FOO
138240
    1MOL0     O    1   4.561   5.254   5.910 -0.2852  0.4733 -0.2011
    1MOL0     C    2   4.443   5.254   5.925 -0.5389 -1.9221  0.5086
    1MOL0     O    3   4.347   5.333   5.848 -0.3826  0.3935  0.6140
    1MOL0     C    4   4.370   5.435   5.758  0.2012 -0.8039 -0.1256
    1MOL0     C    5   4.490   5.503   5.739 -0.5673  0.0856  0.4293
    1MOL0     C    6   4.501   5.623   5.667  1.0940 -0.2651  0.2784
    1MOL0     C    7   4.388   5.671   5.601  0.0298  0.2623 -0.1546
    1MOL0     O    8   4.413   5.775   5.514  0.5768  0.0160 -0.5556
    1MOL0     C    9   4.303   5.821   5.442 -0.2987  0.0671  0.0250
    1MOL0     C   10   4.342   5.937   5.350 -0.5188 -0.6998 -0.1226
    1MOL0     C   11   4.257   5.946   5.222 -0.5340  0.1080  0.0060
    1MOL0     C   12   4.159   6.069   5.203 -0.3220  0.3094 -0.2912
    1MOL0     C   13   4.066   6.075   5.325 -0.1402 -0.1404 -0.9737
    1MOL0     C   14   3.952   6.178   5.298  0.1944 -0.9856  0.0879
    1MOL0     C   15   3.844   6.113   5.205 -0.1130  0.5281  0.0480
    1MOL0     C   16   3.734   6.209   5.183 -0.1501  0.0870  0.7058
    1MOL0     N   17   3.648   6.218   5.295 -0.6159  0.1889  0.4812
    1MOL0     C   18   3.551   6.127   5.322 -0.0636 -0.1540 -0.0015
    1MOL0     C   19   3.479   6.183   5.424 -0.4369  0.5351  0.6831
    1MOL0     C   20   3.368   6.109   5.492  0.7853 -0.6524 -0.4340
    1MOL0     C   21   3.245   6.062   5.401  0.2978  0.0887 -0.2713
    1MOL0     C   22   3.145   5.975   5.485 -0.2173 -0.5305  0.3406
    1MOL0     C   23   3.014   5.939   5.404 -0.7949 -0.1652 -0.1868
    1MOL0     O   24   2.894   5.942   5.484  0.1023 -0.7178 -0.1899
    1MOL0     C   25   2.775   5.895   5.430  0.3161 -0.2181  0.2659
    1MOL0     C   26   2.759   5.869   5.292 -0.8372  0.2755 -0.2875
    1MOL0     C   27   2.630   5.844   5.244  0.0006  0.2252  0.7048
    1MOL0     C   28   2.619   5.826   5.087  0.3005  0.6189 -0.6932
    1MOL0     C   29   2.517   5.821   5.330 -0.3158  0.4222  0.6545
    1MOL0     C   30   2.382   5.780   5.273 -1.5696 -0.4563  0.1534
    1MOL0     O   31   2.331   5.873   5.196  0.1812 -0.4092 -0.5597
    1MOL0     C   32   2.224   5.829   5.111 -0.4123  0.3492  0.5017
    1MOL0     C   33   2.113   5.913   5.097  0.1815  0.0235 -0.1686
    1MOL0     C   34   2.018   5.880   5.000 -0.7049 -0.5753  0.6688
    1MOL0     C   35   2.028   5.761   4.917  0.1424 -0.3280 -0.2372
    1MOL0     O   36   1.922   5.755   4.822  0.1297 -0.4143 -0.3342
    1MOL0     C   37   1.876   5.617   4.809 -0.1267 -0.2146 -0.4256
    1MOL0     C   38   1.758   5.606   4.715  0.6198  0.9637 -0.2805
    1MOL0     C   39   1.715   5.465   4.689  0.1175 -1.0291  0.3531
    1MOL0     C   40   1.649   5.382   4.812  0.2870  0.6984 -0.1173
    1MOL0     C   41   1.510   5.433   4.854  0.2064 -0.8040 -0.1340
    1MOL0     C   42   1.399   5.403   4.751  0.3861  0.0753 -0.6425
    1MOL0     C   43   1.270   5.475   4.795 -0.1877  0.3203 -0.1243
    1MOL0     C   44   1.285   5.625   4.790  0.3105  0.1033 -0.1487
    1MOL0    Cl   45   1.293   5.659   4.615 -0.1591  0.1297 -0.0807
    1MOL0     C   46   2.148   5.692   4.915  0.0618 -0.0404 -0.4038
    1MOL0     C   47   2.245   5.725   5.012  1.0403  0.9892  0.1299
    1MOL0     O   48   2.320   5.700   5.334  0.6093 -0.0716  0.1826
    1MOL0     C   49   2.540   5.828   5.465 -0.4933  0.5225 -0.6523
    1MOL0     C   50   2.667   5.865   5.513 -0.5175  0.8202  0.4454
    1MOL0     N   51   3.520   6.310   5.447  0.1347 -0.0813  0.0710
    1MOL0     N   52   3.629   6.330   5.372  0.4177 -0.2876  0.4855
    1MOL0     C   53   4.267   5.605   5.617  0.1577  0.5201 -0.4233
    1MOL0     C   54   4.255   5.496   5.704 -0.0491 -0.4902  0.0933
    1MOL0     C   55   4.390   5.154   6.008 -1.0546  0.5271  0.2376
    1MOL0     C   56   4.474   5.050   6.064  0.1850  0.8631 -0.3572
    1MOL0     C   57   4.416   4.946   6.132 -0.3327 -0.3129 -1.0233
    1MOL0     C   58   4.276   4.941   6.158  0.7880  0.7373  0.5473
    1MOL0     O   59   4.221   4.839   6.240 -0.4797  0.0825 -0.2310
    1MOL0     C   60   4.187   4.715   6.178  0.3744 -0.2263  0.4530
    1MOL0     C   61   4.037   4.691   6.149 -0.3870 -0.6822 -0.1276
    1MOL0     C   62   4.004   4.565   6.064  0.8241  0.0012 -0.9884
    1MOL0     C   63   3.854   4.543   6.080  0.2179 -0.0291 -1.0767
    1MOL0     C   64   3.765   4.641   6.031 -0.0707  0.0712 -0.4350
    1MOL0     C   65   3.698   4.733   5.999  0.7253  0.3166 -1.0486
    1MOL0     C   66   4.194   5.047   6.107 -0.0301 -0.2610 -0.0661
    1MOL0     C   67   4.248   5.147   6.036 -0.8682  0.2362  0.2743
    1MOL0     H   68   4.578   5.471   5.794  1.5561  2.2868 -1.4695
    1MOL0     H   69   4.596   5.675   5.652  1.3023 -0.8780 -0.5703
    1MOL0     H   70   4.260   5.742   5.379  1.4537 -0.7980 -0.1706
    1MOL0     H   71   4.226   5.847   5.515 -0.6170  1.6337 -0.8217
    1MOL0     H   72   4.346   6.036   5.398  1.3508 -0.1127 -1.3569
    1MOL0     H   73   4.449   5.924   5.330  0.5376 -1.0436  4.4503
    1MOL0     H   74   4.325   5.958   5.137 -1.2532  1.0136 -0.4621
    1MOL0     H   75   4.203   5.853   5.209 -1.0832  0.2339  1.2294
    1MOL0     H   76   4.214   6.163   5.200  0.6648 -0.2711 -1.6178
    1MOL0     H   77   4.102   6.065   5.109 -1.4560 -0.7706  0.4174
    1MOL0     H   78   4.018   5.979   5.346 -0.5136  0.3271  0.4917
    1MOL0     H   79   4.116   6.099   5.420 -1.9465 -0.6612  0.1728
    1MOL0     H   80   3.897   6.197   5.391 -2.9644  0.2768 -1.9077
    1MOL0     H   81   3.988   6.274   5.260 -0.2881 -0.7557  0.2063
    1MOL0     H   82   3.878   6.088   5.104 -0.3921  4.5844 -1.2218
    1MOL0     H   83   3.818   6.016   5.248 -0.5246 -1.1435 -3.6189
    1MOL0     H   84   3.676   6.165   5.102  1.5109 -2.2107  0.6485
    1MOL0     H   85   3.760   6.311   5.153 -4.6451  1.0961 -0.4956
    1MOL0     H   86   3.545   6.034   5.267 -1.4805  0.4011 -0.8251
    1MOL0     H   87   3.416   6.023   5.541  2.3456 -0.6493 -1.8589
    1MOL0     H   88   3.326   6.180   5.563 -2.9261 -1.2003 -1.8866
    1MOL0     H   89   3.281   5.993   5.324 -2.9081 -3.3114  0.9589
    1MOL0     H   90   3.181   6.142   5.364 -1.0683 -1.7927 -2.1603
    1MOL0     H   91   3.103   6.037   5.564  1.6390  0.8952  0.2662
    1MOL0     H   92   3.192   5.882   5.518  0.3797 -0.3163  0.1009
    1MOL0     H   93   3.033   5.843   5.355  0.1738  0.5670 -1.3162
    1MOL0     H   94   3.007   6.002   5.315  0.7642 -0.2934 -0.4248
    1MOL0     H   95   2.839   5.897   5.224 -0.6093 -2.4847 -1.2742
    1MOL0     H   96   2.717   5.831   5.038  0.0957  1.0935 -1.0528
    1MOL0     H   97   2.572   5.728   5.074 -2.1431  1.8716 -1.9488
    1MOL0     H   98   2.554   5.902   5.043 -0.8080  0.6604  0.9362
    1MOL0     H   99   2.121   6.002   5.158  5.7954  0.1364 -0.5219
    1MOL0     H  100   1.929   5.938   4.977 -1.4055 -1.0767  1.9647
    1MOL0     H  101   1.945   5.552   4.754  0.0792  0.3036 -0.7817
    1MOL0     H  102   1.854   5.577   4.909 -2.5095  1.7943 -0.0431
    1MOL0     H  103   1.678   5.668   4.758 -1.0003 -0.6647 -0.8418
    1MOL0     H  104   1.781   5.642   4.615  1.2512 -0.1595 -0.5513
    1MOL0     H  105   1.806   5.414   4.657  0.8245  0.8524 -0.8052
    1MOL0     H  106   1.648   5.467   4.602 -0.0433  2.9558  0.3964
    1MOL0     H  107   1.646   5.273   4.800 -2.1340  0.8512 -1.4402
    1MOL0     H  108   1.715   5.398   4.898 -2.5095 -0.8668  2.5520
    1MOL0     H  109   1.523   5.542   4.856  1.7581 -0.9131 -1.6866
    1MOL0     H  110   1.489   5.403   4.957 -0.4758 -2.9024 -0.8448
    1MOL0     H  111   1.415   5.441   4.649  0.5820 -0.3924 -0.7882
    1MOL0     H  112   1.379   5.295   4.742 -0.3727  0.1081  0.5120
    1MOL0     H  113   1.256   5.440   4.897 -3.6782  0.8418 -0.2753
    1MOL0     H  114   1.192   5.433   4.730  0.5638 -0.1324 -0.7458
    1MOL0     H  115   1.377   5.663   4.836  0.0831  1.1701 -0.5335
    1MOL0     H  116   1.197   5.669   4.837  0.3181 -1.8298  1.8060
    1MOL0     H  117   2.177   5.626   4.834 -0.2392  0.4642 -0.9294
    1MOL0     H  118   2.338   5.670   5.012  1.7740  2.1695  1.0825
    1MOL0     H  119   2.458   5.810   5.534  1.3004 -1.8268  0.9814
    1MOL0     H  120   2.687   5.878   5.619 -0.9411 -1.7249  0.9024
    1MOL0     H  121   4.178   5.627   5.558 -0.0805 -0.7998 -0.5798
    1MOL0     H  122   4.164   5.452   5.744  1.2582 -0.5049  3.3518
    1MOL0     H  123   4.582   5.061   6.065  0.1555  1.1285  0.1150
    1MOL0     H  124   4.481   4.870   6.175  1.2127  2.0323  1.0315
    1MOL0     H  125   4.247   4.708   6.088  1.1631 -1.8786  1.0540
    1MOL0     H  126   4.222   4.636   6.245  0.5275 -0.8039 -0.3024
    1MOL0     H  127   3.988   4.775   6.098 -2.9951 -1.6241  0.6304
    1MOL0     H  128   3.980   4.704   6.241  0.9202  2.1270  0.3980
    1MOL0     H  129   4.059   4.477   6.097  1.7165  1.2644  1.1279
    1MOL0     H  130   4.027   4.575   5.958  2.1617 -1.7183 -0.8964
    1MOL0     H  131   3.831   4.537   6.187 -0.9059  0.9922 -1.2359
    1MOL0     H  132   3.819   4.448   6.037  0.1361 -1.5309  2.0612
    1MOL0     H  133   3.645   4.824   5.982  0.3927  0.2203 -0.5296
    1MOL0     H  134   4.087   5.048   6.122  0.1407  0.8306  1.2431
    1MOL0     H  135   4.188   5.229   5.999  3.1193  3.0071 -0.7109
    2MOL0     O  136   3.638   7.385   7.994 -0.2153 -0.3130  0.8371
    2MOL0     C  137   3.702   7.322   8.076 -0.0645  0.3681  0.4002
    2MOL0     O  138   3.662   7.213   8.135  0.4966 -0.2589 -0.4013
    2MOL0     C  139   3.538   7.153   8.114 -0.0631  0.0658 -0.5152
    2MOL0     C  140   3.473   7.156   7.994 -0.5284  0.5027  0.1607
    2MOL0     C  141   3.362   7.077   7.969  0.4470  0.3879  0.0276
    2MOL0     C  142   3.294   7.007   8.075 -0.6020 -0.3909 -0.5275
    2MOL0     O  143   3.166   6.949   8.067 -0.0770  0.7815 -0.3208
    2MOL0     C  144   3.072   6.977   7.964 -0.0991  0.2786 -0.7449
    2MOL0     C  145   2.936   6.950   8.000  0.3411 -0.6298 -0.2403
    2MOL0     C  146   2.907   6.803   7.969  1.3938  0.3786  0.6266
    2MOL0     C  147   2.760   6.766   7.992  0.5257 -0.5256 -0.5223
    2MOL0     C  148   2.717   6.636   7.923 -1.2525 -0.9515  0.2163
    2MOL0     C  149   2.574   6.613   7.972 -0.6012  0.3645  0.0502
    2MOL0     C  150   2.528   6.470   7.938 -0.4039  0.8581  0.4335
    2MOL0     C  151   2.510   6.480   7.787  0.1511 -0.0627 -0.1566
    2MOL0     N  152   2.423   6.363   7.748  0.1697 -0.6013  0.0852
    2MOL0     C  153   2.448   6.229   7.758 -0.1301  0.1212 -0.1714
    2MOL0     C  154   2.328   6.165   7.745  0.7352 -0.2087  1.1121
    2MOL0     C  155   2.285   6.016   7.764  0.6789  0.1332 -0.4761
    2MOL0     C  156   2.185   6.002   7.885 -0.5479  0.8815 -0.7097
    2MOL0     C  157   2.067   5.902   7.852 -0.5145 -0.7833 -1.2303
    2MOL0     C  158   2.028   5.821   7.976  0.8889 -0.1705 -0.7649
    2MOL0     O  159   1.942   5.715   7.933  0.8848  0.5999 -0.1438
    2MOL0     C  160   1.803   5.742   7.932  0.1119 -0.5860  0.4443
    2MOL0     C  161   1.747   5.863   7.919 -0.3013  0.4606  0.6067
    2MOL0     C  162   1.611   5.900   7.914 -0.6468  0.4918  0.5317
    2MOL0     C  163   1.594   6.043   7.860 -0.8787  0.2864 -0.5954
    2MOL0     C  164   1.513   5.800   7.926  1.1375  0.6988 -0.9208
    2MOL0     C  165   1.368   5.824   7.914  0.5663  0.4145  0.2926
    2MOL0     O  166   1.281   5.724   7.900 -0.5046  0.0190  0.7496
    2MOL0     C  167   1.146   5.736   7.873  0.5782  0.1719  0.1105
    2MOL0     C  168   1.075   5.852   7.842 -0.0295 -0.2956 -0.2769
    2MOL0     C  169   0.937   5.848   7.816  0.7110  0.7299 -0.0831
    2MOL0     C  170   0.869   5.728   7.809 -0.8205  0.0970  0.4186
    2MOL0     O  171   0.742   5.732   7.747 -0.1892  0.4710 -0.2367
    2MOL0     C  172   0.691   5.604   7.710  0.4600  0.2720 -0.4777
    2MOL0     C  173   0.550   5.634   7.651  0.1880  0.1964  0.0850
    2MOL0     C  174   0.457   5.508   7.601 -1.3397 -0.2587  0.5623
    2MOL0     C  175   0.323   5.569   7.567  0.5111 -0.3215  0.3902
    2MOL0     C  176   0.230   5.481   7.474 -0.0940 -0.4721  0.0413
    2MOL0     C  177   0.194   5.353   7.545  0.8335  1.3006  0.1059
    2MOL0     C  178   0.060   5.297   7.500 -0.2698  0.1202 -0.3462
    2MOL0     C  179   0.055   5.251   7.359  0.1694  1.2096  0.7052
    2MOL0    Cl  180   0.180   5.121   7.321  0.1082  0.1240  0.5516
    2MOL0     C  181   0.941   5.616   7.848  0.5637 -0.2156  0.2142
    2MOL0     C  182   1.076   5.616   7.888  0.6050 -0.7233  0.9439
    2MOL0     O  183   1.335   5.933   7.950 -0.1874  0.2018  0.3630
    2MOL0     C  184   1.569   5.666   7.929  0.4647 -0.4509 -0.2436
    2MOL0     C  185   1.707   5.640   7.935 -0.7920  0.3523  0.7360
    2MOL0     N  186   2.239   6.263   7.701  0.1999 -0.5484 -0.1203
    2MOL0     N  187   2.295   6.379   7.711  0.1557 -0.4296  0.2320
    2MOL0     C  188   3.352   7.014   8.204 -0.0625 -0.0997  0.1167
    2MOL0     C  189   3.475   7.080   8.216  0.3896 -0.1247  0.4034
    2MOL0     C  190   3.842   7.360   8.098  0.0083 -0.2179 -0.5121
    2MOL0     C  191   3.926   7.416   7.993  0.2884 -0.4910  0.3494
    2MOL0     C  192   4.059   7.448   8.011 -0.4938 -0.9357 -0.2790
    2MOL0     C  193   4.118   7.435   8.142 -0.1290  0.5750  0.1624
    2MOL0     O  194   4.249   7.482   8.171  0.0075  0.2662 -0.5697
    2MOL0     C  195   4.356   7.390   8.150  0.0284 -0.3641  0.7637
    2MOL0     C  196   4.481   7.461   8.096  0.4155  0.8696 -0.2381
    2MOL0     C  197   4.463   7.492   7.942 -0.1684  0.9200 -0.1831
    2MOL0     C  198   4.557   7.611   7.901 -0.3585  1.0937 -0.7190
    2MOL0     C  199   4.488   7.726   7.938 -0.3047 -0.1440 -0.0967
    2MOL0     C  200   4.434   7.835   7.964 -0.1517 -0.2841  0.0667
    2MOL0     C  201   4.035   7.377   8.246 -1.4333 -0.3414 -0.5290
    2MOL0     C  202   3.903   7.338   8.227 -0.2511  0.1317  0.1185
    2MOL0     H  203   3.507   7.217   7.911  1.4885  0.2219  0.7367
    2MOL0     H  204   3.317   7.075   7.871 -1.6578  1.2052  0.9170
    2MOL0     H  205   3.087   7.078   7.926 -1.0675 -0.1789 -2.4562
    2MOL0     H  206   3.106   6.917   7.879  0.8192  0.4290 -0.4960
    2MOL0     H  207   2.918   6.968   8.107 -1.6744  2.5248 -0.9918
    2MOL0     H  208   2.868   7.014   7.943  0.7130  0.5304  0.5933
    2MOL0     H  209   2.923   6.783   7.863 -1.7905  1.4236 -0.1625
    2MOL0     H  210   2.976   6.744   8.030  1.4845 -1.2707 -0.9964
    2MOL0     H  211   2.752   6.744   8.099 -2.4760 -1.2096 -0.7876
    2MOL0     H  212   2.699   6.855   7.973  0.0331 -0.5435  0.8922
    2MOL0     H  213   2.725   6.649   7.815  2.4387  0.6412  0.5527
    2MOL0     H  214   2.784   6.554   7.950  0.3576  0.3155  0.1945
    2MOL0     H  215   2.578   6.628   8.080 -0.0299  0.3933  0.0282
    2MOL0     H  216   2.506   6.687   7.929 -1.6558 -0.0561  0.9269
    2MOL0     H  217   2.603   6.403   7.980  1.0880  3.7073  2.6258
    2MOL0     H  218   2.435   6.450   7.992  0.9951  1.1053  3.1053
    2MOL0     H  219   2.605   6.477   7.733  0.3923  4.7167 -0.4353
    2MOL0     H  220   2.465   6.575   7.756  0.6203 -0.5915 -2.6673
    2MOL0     H  221   2.545   6.194   7.791  0.2281  1.0505 -0.2212
    2MOL0     H  222   2.241   5.990   7.667  2.1333  1.4553 -1.5559
    2MOL0     H  223   2.373   5.954   7.787 -0.7622 -0.6219  3.8082
    2MOL0     H  224   2.148   6.103   7.906 -0.1161  1.6366 -3.2567
    2MOL0     H  225   2.247   5.966   7.968  0.6854  1.1569 -1.4890
    2MOL0     H  226   2.114   5.838   7.777 -0.7162 -0.9799 -1.1889
    2MOL0     H  227   1.981   5.959   7.816 -0.3363  0.9021  0.7704
    2MOL0     H  228   1.974   5.879   8.051  3.7909  1.1048  0.5093
    2MOL0     H  229   2.110   5.783   8.037  1.1471  0.3275 -0.7949
    2MOL0     H  230   1.813   5.948   7.907  2.4346 -1.6549 -0.0654
    2MOL0     H  231   1.640   6.106   7.937  0.6543  1.0438 -2.0708
    2MOL0     H  232   1.650   6.059   7.767  2.7466  0.7167  1.5013
    2MOL0     H  233   1.488   6.067   7.849 -0.7777  1.0987  0.1083
    2MOL0     H  234   1.122   5.949   7.830  1.9515 -0.9645  1.5620
    2MOL0     H  235   0.892   5.944   7.795  2.0784  1.7687  1.4708
    2MOL0     H  236   0.760   5.549   7.645 -0.3017  0.6818 -1.6419
    2MOL0     H  237   0.677   5.535   7.794 -0.5358 -0.6826 -1.4010
    2MOL0     H  238   0.489   5.678   7.730  0.6970  2.9127 -0.9265
    2MOL0     H  239   0.557   5.709   7.571 -2.6522  0.8891  0.3886
    2MOL0     H  240   0.455   5.420   7.666 -1.8892 -2.0994 -1.7732
    2MOL0     H  241   0.521   5.471   7.521  4.1683 -0.4585  4.5203
    2MOL0     H  242   0.282   5.595   7.665  0.9494  0.8032  0.2906
    2MOL0     H  243   0.328   5.667   7.517  1.9972 -1.1404 -1.1794
    2MOL0     H  244   0.278   5.458   7.379  2.0398 -1.9765  1.3951
    2MOL0     H  245   0.143   5.539   7.443 -0.1899 -1.7253 -2.2381
    2MOL0     H  246   0.271   5.277   7.528 -1.2539 -0.9850  0.2870
    2MOL0     H  247   0.181   5.375   7.651 -2.4094 -0.1686  0.1441
    2MOL0     H  248  -0.016   5.374   7.513 -1.1453 -0.6502 -0.7625
    2MOL0     H  249   0.034   5.222   7.575 -0.9810  0.4907 -0.2230
    2MOL0     H  250   0.071   5.330   7.285 -0.1347  0.0480 -0.6419
    2MOL0     H  251  -0.047   5.212   7.358 -0.0335  1.3726  4.0517
    2MOL0     H  252   0.887   5.523   7.832  0.0670  0.4544 -2.5041
    2MOL0     H  253   1.126   5.522   7.910  0.6862 -1.0346 -0.4364
    2MOL0     H  254   1.502   5.580   7.923 -2.2878  1.2427  2.9479
    2MOL0     H  255   1.755   5.543   7.943  1.2152  1.3488  1.3413
    2MOL0     H  256   3.316   6.970   8.295 -0.1759 -0.5442 -0.1419
    2MOL0     H  257   3.515   7.080   8.317  2.2659  0.3617 -0.2896
    2MOL0     H  258   3.891   7.443   7.894  2.5319  1.0790 -0.1038
    2MOL0     H  259   4.114   7.509   7.940 -0.5551 -1.0181 -0.3971
    2MOL0     H  260   4.383   7.344   8.246  5.0072  0.5999  0.0984
    2MOL0     H  261   4.325   7.309   8.084 -0.0378 -0.7253  1.2330
    2MOL0     H  262   4.565   7.391   8.102 -0.6643 -0.6108 -1.5425
    2MOL0     H  263   4.495   7.546   8.163 -1.9136  3.5436 -2.8452
    2MOL0     H  264   4.354   7.505   7.937 -1.2776 -3.4811  3.9545
    2MOL0     H  265   4.493   7.400   7.891 -0.3496  1.5874 -1.5242
    2MOL0     H  266   4.559   7.605   7.792 -0.4531  0.6485 -0.6956
    2MOL0     H  267   4.652   7.606   7.955 -0.5736  1.0239 -0.3472
    2MOL0     H  268   4.363   7.914   7.980 -2.0974 -2.1015  0.9206
    2MOL0     H  269   4.061   7.377   8.352 -1.0458  2.0775 -0.5704
    2MOL0     H  270   3.842   7.305   8.311 -1.2052  0.8553 -0.2691
    3MOL0     O  271   6.873   7.603   1.733  0.0121  0.4661  0.8278
    3MOL0     C  272   6.976   7.552   1.785  0.0152 -0.5548  0.6637
    3MOL0     O  273   7.087   7.626   1.793 -0.3457 -0.3685 -0.9732
    3MOL0     C  274   7.068   7.758   1.772  0.3583 -0.4138 -1.0578
    3MOL0     C  275   6.989   7.840   1.850 -0.6980 -0.1531 -0.4524
    3MOL0     C  276   6.954   7.972   1.823  0.5123  0.3227 -0.4245
    3MOL0     C  277   7.032   8.037   1.716  0.6579  0.2995 -0.1752
    3MOL0     O  278   7.026   8.170   1.680 -0.0064 -0.0403  0.1569
    3MOL0     C  279   6.952   8.259   1.762  0.2588  0.3372  0.4400
    3MOL0     C  280   6.991   8.403   1.736 -0.3777  0.1071  0.7292
    3MOL0     C  281   6.980   8.448   1.582  0.1738 -0.3626  0.2081
    3MOL0     C  282   6.841   8.504   1.540 -0.2146  0.7545  0.9998
    3MOL0     C  283   6.842   8.544   1.389  0.4723 -0.0791  0.3710
    3MOL0     C  284   6.706   8.613   1.349 -0.4127  0.2813 -0.0201
    3MOL0     C  285   6.698   8.616   1.196  0.4677  0.3810 -0.5881
    3MOL0     C  286   6.572   8.683   1.145  0.4659 -0.6480 -0.2260
    3MOL0     N  287   6.552   8.692   0.992 -0.7268 -0.3698  0.5363
    3MOL0     C  288   6.439   8.740   0.936 -0.7980 -0.0506 -0.0130
    3MOL0     C  289   6.474   8.739   0.802  0.8703  0.7532  0.5406
    3MOL0     C  290   6.391   8.807   0.693  0.4684 -0.1851  0.0463
    3MOL0     C  291   6.269   8.717   0.637 -0.3603 -0.3364 -1.1980
    3MOL0     C  292   6.320   8.597   0.559  0.8763 -0.5556  0.9670
    3MOL0     C  293   6.209   8.510   0.505  0.7499  0.1084  0.2959
    3MOL0     O  294   6.176   8.573   0.381 -0.2503 -0.4746  0.8531
    3MOL0     C  295   6.047   8.548   0.327  0.1073 -0.9705 -0.0484
    3MOL0     C  296   5.990   8.419   0.325  0.3684 -0.9449 -0.0344
    3MOL0     C  297   5.849   8.397   0.293 -0.6605 -0.3505 -0.5070
    3MOL0     C  298   5.795   8.256   0.287 -0.4168  0.3435  0.0459
    3MOL0     C  299   5.776   8.513   0.247 -0.3488 -0.7645  0.1480
    3MOL0     C  300   5.629   8.494   0.199  0.2844 -0.5877 -0.1942
    3MOL0     O  301   5.545   8.598   0.219 -0.1311  0.2214 -0.3121
    3MOL0     C  302   5.416   8.582   0.177  0.0808 -0.8090 -0.1525
    3MOL0     C  303   5.367   8.684   0.099 -1.3130  0.1435 -0.6314
    3MOL0     C  304   5.238   8.687   0.042 -0.1443  0.3486  0.4554
    3MOL0     C  305   5.147   8.577   0.063 -0.4764 -0.4865 -0.3131
    3MOL0     O  306   5.025   8.576   0.011  0.9885  0.2232 -0.5864
    3MOL0     C  307   4.929   8.463   0.017  0.7075  0.4057 -0.2321
    3MOL0     C  308   4.973   8.368  -0.089 -0.4937  0.0181 -0.6064
    3MOL0     C  309   4.873   8.256  -0.115 -0.3830  0.0706  0.3950
    3MOL0     C  310   4.877   8.165   0.004  0.0467  0.2017  0.1127
    3MOL0     C  311   4.815   8.025  -0.027  0.1184  0.0229 -0.4794
    3MOL0     C  312   4.831   7.924   0.088  0.9784 -0.2768  0.2969
    3MOL0     C  313   4.973   7.873   0.099 -0.0029 -0.3889 -0.3154
    3MOL0     C  314   4.993   7.777   0.213  0.3089 -0.2874 -0.8629
    3MOL0    Cl  315   4.935   7.857   0.364  0.5140 -0.3211  0.2411
    3MOL0     C  316   5.191   8.488   0.152 -0.4802  0.4640 -0.1649
    3MOL0     C  317   5.317   8.485   0.212 -0.1627 -0.3464  0.6042
    3MOL0     O  318   5.604   8.397   0.130 -0.3272  0.4495 -0.8375
    3MOL0     C  319   5.839   8.641   0.233 -0.2183 -0.2350  0.3253
    3MOL0     C  320   5.971   8.656   0.281  0.1326  0.2800  0.1021
    3MOL0     N  321   6.606   8.690   0.794  0.4379  0.0710 -0.2243
    3MOL0     N  322   6.648   8.659   0.904 -1.6198 -0.2112  0.4006
    3MOL0     C  323   7.116   7.957   1.636  0.5472 -0.0907  0.3838
    3MOL0     C  324   7.130   7.822   1.664 -0.0935  0.3236 -0.2864
    3MOL0     C  325   6.973   7.414   1.844  0.2088  0.5946  0.8009
    3MOL0     C  326   7.094   7.352   1.886  0.0868  0.3256  0.6699
    3MOL0     C  327   7.094   7.220   1.926 -0.3516  0.7231  0.0270
    3MOL0     C  328   6.975   7.136   1.899 -0.3739 -0.9951  0.1461
    3MOL0     O  329   6.977   6.999   1.909  0.0425  0.6512 -0.4742
    3MOL0     C  330   7.086   6.917   1.970  0.4661 -0.4104  0.7805
    3MOL0     C  331   7.184   6.884   1.852  0.1221  0.1270 -0.8716
    3MOL0     C  332   7.292   6.786   1.882 -0.1166  0.4334 -0.5637
    3MOL0     C  333   7.379   6.839   1.994 -0.6173 -0.1995 -0.1140
    3MOL0     C  334   7.505   6.763   2.005  0.0984  0.3615 -0.0805
    3MOL0     C  335   7.595   6.697   2.024 -0.8385 -0.4302  0.2134
    3MOL0     C  336   6.856   7.198   1.856 -1.0143 -0.4728  0.0375
    3MOL0     C  337   6.858   7.337   1.823 -0.1450  0.8692 -0.4361
    3MOL0     H  338   6.947   7.806   1.944 -1.0092  1.7235  0.1164
    3MOL0     H  339   6.899   8.035   1.891  3.3942  1.8635  0.6335
    3MOL0     H  340   6.847   8.254   1.733  0.3851 -0.3308  0.0942
    3MOL0     H  341   6.969   8.237   1.867 -0.6183 -0.6357  0.3856
    3MOL0     H  342   6.918   8.465   1.789 -3.6428 -2.7170 -0.0900
    3MOL0     H  343   7.091   8.423   1.776  0.1139 -0.2714 -0.2774
    3MOL0     H  344   7.041   8.539   1.580 -3.4679  2.3619  2.0334
    3MOL0     H  345   7.018   8.371   1.513  2.3862 -1.5164  2.5367
    3MOL0     H  346   6.765   8.426   1.551  1.7054 -1.0215  2.4178
    3MOL0     H  347   6.817   8.584   1.610 -1.0666  2.3941 -1.0484
    3MOL0     H  348   6.922   8.617   1.378 -1.0488  1.8149  1.2234
    3MOL0     H  349   6.865   8.456   1.329 -2.8815 -0.7640 -0.1200
    3MOL0     H  350   6.620   8.552   1.379  0.6762 -2.4828 -2.0287
    3MOL0     H  351   6.705   8.714   1.392  1.3684  1.0809 -1.6912
    3MOL0     H  352   6.788   8.669   1.163  1.6195 -1.3719 -0.3904
    3MOL0     H  353   6.699   8.515   1.156  4.2205 -1.6879  3.8123
    3MOL0     H  354   6.565   8.784   1.188 -1.1904 -1.8787  2.6891
    3MOL0     H  355   6.480   8.645   1.191  0.6454  1.1414  1.7752
    3MOL0     H  356   6.348   8.764   0.991 -0.1990 -0.5284  1.2289
    3MOL0     H  357   6.348   8.898   0.738 -1.0555 -0.8335 -0.0270
    3MOL0     H  358   6.454   8.828   0.606  1.9363 -1.9138  0.6237
    3MOL0     H  359   6.199   8.779   0.579 -1.0121 -1.2233 -1.3880
    3MOL0     H  360   6.206   8.675   0.716  0.5388 -0.7000 -0.6718
    3MOL0     H  361   6.360   8.528   0.634 -2.0392 -1.4676  1.8294
    3MOL0     H  362   6.400   8.632   0.493  2.4894 -2.1055  2.0222
    3MOL0     H  363   6.130   8.507   0.580 -1.0052  4.0954 -1.1396
    3MOL0     H  364   6.247   8.409   0.488  0.1818 -0.3698  1.7282
    3MOL0     H  365   6.042   8.327   0.351  1.0261 -0.0796  1.8392
    3MOL0     H  366   5.849   8.194   0.359 -1.0174 -0.0208  0.1931
    3MOL0     H  367   5.694   8.257   0.330 -0.2450  1.0891  0.4554
    3MOL0     H  368   5.803   8.212   0.188 -3.9517  2.4418 -1.3708
    3MOL0     H  369   5.437   8.762   0.072  0.5922 -1.0726  0.5188
    3MOL0     H  370   5.224   8.758  -0.038  0.5693  0.1441  0.1382
    3MOL0     H  371   4.930   8.426   0.120  2.7765  1.1879  0.0748
    3MOL0     H  372   4.831   8.505  -0.009  0.7723 -0.5311 -2.1370
    3MOL0     H  373   4.969   8.423  -0.184  0.1393 -1.4320 -1.5127
    3MOL0     H  374   5.077   8.334  -0.084 -0.7501 -1.4521 -3.2186
    3MOL0     H  375   4.910   8.205  -0.204 -1.7161 -1.6782  0.7916
    3MOL0     H  376   4.773   8.290  -0.144 -1.3962 -1.5366  1.7883
    3MOL0     H  377   4.982   8.147   0.028 -0.0163 -0.0755  0.1897
    3MOL0     H  378   4.825   8.220   0.082  1.0800 -0.7357  1.5194
    3MOL0     H  379   4.855   7.976  -0.116  0.4905 -3.1970  1.3309
    3MOL0     H  380   4.706   8.031  -0.037 -0.1575 -1.5550  1.0989
    3MOL0     H  381   4.813   7.984   0.178  4.2319  2.0930 -0.4358
    3MOL0     H  382   4.765   7.837   0.080  0.7391 -0.2183  1.4477
    3MOL0     H  383   5.029   7.962   0.128 -1.7511  0.0053  2.2591
    3MOL0     H  384   5.006   7.826   0.006  2.1063  0.6537 -0.1440
    3MOL0     H  385   5.095   7.740   0.225 -0.9290 -3.0829  4.1962
    3MOL0     H  386   4.938   7.688   0.183 -0.5623  0.0802 -0.4026
    3MOL0     H  387   5.132   8.403   0.185  1.7683 -1.0582  0.1103
    3MOL0     H  388   5.353   8.408   0.280  1.5083  0.7513  1.0106
    3MOL0     H  389   5.772   8.725   0.218 -0.9661 -1.1270 -1.7426
    3MOL0     H  390   6.003   8.756   0.308  1.0851 -0.2005  0.7875
    3MOL0     H  391   7.160   8.010   1.552 -0.5049  1.6072  0.8557
    3MOL0     H  392   7.195   7.763   1.600  2.5379 -2.7420  4.6126
    3MOL0     H  393   7.191   7.400   1.875  0.2319 -0.4864 -2.6007
    3MOL0     H  394   7.192   7.185   1.956  1.5593  2.8440 -3.1551
    3MOL0     H  395   7.136   6.970   2.051 -0.4754 -1.0283  1.7782
    3MOL0     H  396   7.051   6.822   2.011 -0.4325 -1.0383 -1.2675
    3MOL0     H  397   7.232   6.980   1.829  0.3025  0.7793  1.8828
    3MOL0     H  398   7.130   6.855   1.762 -0.4227 -1.9251  0.0479
    3MOL0     H  399   7.355   6.779   1.793  0.7064 -1.0237  0.0934
    3MOL0     H  400   7.264   6.682   1.901  1.0269  0.7848  4.4675
    3MOL0     H  401   7.325   6.828   2.089  1.6694 -2.1727  1.0491
    3MOL0     H  402   7.412   6.943   2.002  2.2203 -1.1509  3.4250
    3MOL0     H  403   7.680   6.641   2.057 -0.3376 -0.6422 -1.3571
    3MOL0     H  404   6.763   7.142   1.854 -2.3904  1.2693  4.1039
    3MOL0     H  405   6.771   7.376   1.771  0.2729  1.0593 -1.0009
    4MOL0     O  406   5.211   2.709  10.845 -0.3009 -0.4326  0.7834
    4MOL0     C  407   5.180   2.817  10.885 -0.0952 -0.1243 -0.3273
    4MOL0     O  408   5.057   2.865  10.886  0.7414  0.5086  0.6267
    4MOL0     C  409   4.940   2.799  10.863  0.1963 -0.4938  0.2348
    4MOL0     C  410   4.923   2.673  10.804 -0.5923  0.3627 -0.2688
    4MOL0     C  411   4.789   2.628  10.784 -0.4223  0.2991  0.6769
    4MOL0     C  412   4.677   2.704  10.822 -0.7319  0.2141  0.0151
    4MOL0     O  413   4.558   2.664  10.773  0.0577 -0.7873  0.5316
    4MOL0     C  414   4.488   2.745  10.672  0.4453  0.9678  0.3246
    4MOL0     C  415   4.388   2.651  10.597 -0.7763  0.6950 -0.7978
    4MOL0     C  416   4.271   2.582  10.671 -0.0921 -0.5013 -0.3280
    4MOL0     C  417   4.208   2.482  10.570 -1.0768  0.3383 -0.4868
    4MOL0     C  418   4.100   2.395  10.635  0.1293 -0.5464  0.1239
    4MOL0     C  419   4.153   2.294  10.736  0.1436  0.5170 -0.4835
    4MOL0     C  420   4.031   2.199  10.782 -0.2970 -1.3444 -0.9276
    4MOL0     C  421   4.092   2.110  10.892  0.0312 -0.0804 -0.7951
    4MOL0     N  422   3.984   2.033  10.965  0.4268  0.2382  0.2775
    4MOL0     C  423   3.999   1.898  10.984 -0.2642 -0.6425  0.0045
    4MOL0     C  424   3.903   1.870  11.080  0.9717  0.7495 -0.1645
    4MOL0     C  425   3.862   1.742  11.155  0.4797  0.1229  0.8010
    4MOL0     C  426   3.979   1.657  11.193  0.1926  0.3411  0.2724
    4MOL0     C  427   4.051   1.709  11.313 -0.0557  0.3509  0.9978
    4MOL0     C  428   4.164   1.810  11.270 -0.0474  0.0491  0.1030
    4MOL0     O  429   4.257   1.750  11.190 -0.2153 -0.2945 -0.3156
    4MOL0     C  430   4.317   1.815  11.089  0.5836  0.3610 -0.0532
    4MOL0     C  431   4.341   1.736  10.969  0.2341  0.4162 -0.5080
    4MOL0     C  432   4.381   1.808  10.850  0.2174 -0.6308 -0.3875
    4MOL0     C  433   4.375   1.721  10.731 -0.6525 -0.8277 -0.1438
    4MOL0     C  434   4.405   1.948  10.848 -0.0853 -0.1094  1.0007
    4MOL0     C  435   4.432   2.032  10.716 -0.3408  0.2088 -0.1578
    4MOL0     O  436   4.526   2.130  10.729  0.1021  0.2485 -0.1308
    4MOL0     C  437   4.589   2.192  10.620  0.9836  0.2372 -0.0666
    4MOL0     C  438   4.627   2.114  10.506  0.0621  0.5849 -0.2510
    4MOL0     C  439   4.711   2.178  10.407 -0.3395  0.0329 -0.9445
    4MOL0     C  440   4.745   2.315  10.416  0.1547 -0.1068  0.3409
    4MOL0     O  441   4.828   2.367  10.316 -0.8730 -0.0019 -0.1307
    4MOL0     C  442   4.890   2.494  10.342 -0.3595  1.0745  0.3340
    4MOL0     C  443   4.986   2.493  10.456  0.9818 -0.1367 -0.3428
    4MOL0     C  444   5.084   2.377  10.435 -0.4685  0.3562  0.3229
    4MOL0     C  445   5.196   2.404  10.542 -0.2061 -0.0142  0.4762
    4MOL0     C  446   5.322   2.328  10.511  0.0779 -1.3375 -0.2122
    4MOL0     C  447   5.296   2.180  10.561  0.1045 -0.2299  0.1081
    4MOL0     C  448   5.418   2.098  10.523 -0.4577 -0.7022 -0.3736
    4MOL0     C  449   5.537   2.104  10.621  0.1384 -0.9826  0.1332
    4MOL0    Cl  450   5.691   2.096  10.528 -0.1384 -0.2688  0.3256
    4MOL0     C  451   4.682   2.387  10.505  0.4031  0.1205  0.5897
    4MOL0     C  452   4.613   2.330  10.616 -0.4984 -0.1324  0.4312
    4MOL0     O  453   4.373   2.002  10.609 -0.7197  0.2830 -0.8652
    4MOL0     C  454   4.406   2.010  10.975 -0.8810  0.4377  0.3961
    4MOL0     C  455   4.361   1.942  11.091 -0.4584 -0.3690  0.6927
    4MOL0     N  456   3.830   1.986  11.110  0.0089 -0.6831 -0.6066
    4MOL0     N  457   3.884   2.084  11.039  0.2166  0.2190  0.2465
    4MOL0     C  458   4.700   2.824  10.902  0.0175 -0.0485  0.0932
    4MOL0     C  459   4.825   2.871  10.912 -0.9609 -0.3747 -0.1135
    4MOL0     C  460   5.293   2.899  10.941  0.5193 -0.0617  0.0228
    4MOL0     C  461   5.415   2.844  10.979 -0.0643  0.2645  0.0818
    4MOL0     C  462   5.524   2.937  11.001 -0.1486 -0.2013 -0.2381
    4MOL0     C  463   5.498   3.077  11.007  0.0506 -0.2212 -0.1297
    4MOL0     O  464   5.590   3.174  11.034  0.0861  0.4712 -1.1880
    4MOL0     C  465   5.717   3.150  11.091 -0.3974  1.2791 -0.1168
    4MOL0     C  466   5.771   3.263  11.187 -0.1417  0.4935 -0.1253
    4MOL0     C  467   5.898   3.215  11.259  0.4497 -0.1140  0.2055
    4MOL0     C  468   5.952   3.307  11.362 -0.5233  0.0446  0.2045
    4MOL0     C  469   6.067   3.239  11.427  0.0097 -0.4193 -0.6282
    4MOL0     C  470   6.152   3.172  11.486 -0.4483  0.2111  0.1446
    4MOL0     C  471   5.370   3.127  10.980  0.5161  0.0388 -0.2655
    4MOL0     C  472   5.267   3.037  10.952 -0.1822  0.1774 -0.4389
    4MOL0     H  473   5.007   2.611  10.773  2.0430  3.6102 -0.2554
    4MOL0     H  474   4.777   2.540  10.721 -1.5259 -0.5185  1.9659
    4MOL0     H  475   4.439   2.831  10.718  0.7138  1.5815 -0.5164
    4MOL0     H  476   4.565   2.783  10.604  0.9146 -2.0258 -0.9876
    4MOL0     H  477   4.355   2.694  10.502  0.0407 -1.1526 -1.9813
    4MOL0     H  478   4.459   2.572  10.573  0.4621  1.4646  0.1928
    4MOL0     H  479   4.310   2.525  10.756 -0.1403  0.8354  0.6256
    4MOL0     H  480   4.189   2.645  10.705  1.3470  0.8372  0.8157
    4MOL0     H  481   4.158   2.542  10.494 -3.2905  1.3534  1.6412
    4MOL0     H  482   4.273   2.414  10.515 -1.4562 -0.5545  0.1428
    4MOL0     H  483   4.033   2.469  10.680  0.1912 -0.1456 -0.4322
    4MOL0     H  484   4.039   2.351  10.556  0.5455 -1.0194  0.0600
    4MOL0     H  485   4.224   2.225  10.689 -0.1666  0.1541 -0.4263
    4MOL0     H  486   4.212   2.335  10.819  2.4175 -1.0589 -1.2280
    4MOL0     H  487   3.948   2.251  10.830  0.9569  0.1045 -0.2137
    4MOL0     H  488   3.986   2.139  10.703 -1.4496  0.4408 -1.6746
    4MOL0     H  489   4.134   2.175  10.969  0.5113 -2.2113  0.8354
    4MOL0     H  490   4.160   2.037  10.848  1.0632 -0.4035  1.2137
    4MOL0     H  491   4.059   1.826  10.929 -2.4612 -3.4767  1.0676
    4MOL0     H  492   3.802   1.772  11.241  1.7195  0.0254  1.7220
    4MOL0     H  493   3.791   1.685  11.093 -2.0478  2.1975  1.5858
    4MOL0     H  494   4.040   1.637  11.105 -3.7490 -2.2292 -2.1798
    4MOL0     H  495   3.940   1.556  11.207 -1.4727  1.0530  1.0905
    4MOL0     H  496   4.104   1.630  11.366  1.4759 -1.2679 -2.5729
    4MOL0     H  497   3.982   1.756  11.383 -1.7416 -1.9645  1.0099
    4MOL0     H  498   4.217   1.839  11.362  0.1688  1.7669 -0.5169
    4MOL0     H  499   4.127   1.902  11.223 -1.2739 -1.5705 -2.2725
    4MOL0     H  500   4.306   1.634  10.962  2.8816 -0.4967 -1.3172
    4MOL0     H  501   4.352   1.619  10.761  0.4302 -1.4990 -1.4730
    4MOL0     H  502   4.298   1.751  10.660 -2.0759 -1.3547  1.1336
    4MOL0     H  503   4.471   1.710  10.679  1.0745 -1.9267  3.0131
    4MOL0     H  504   4.597   2.011  10.494 -2.2304  1.3560 -1.7865
    4MOL0     H  505   4.742   2.107  10.331 -0.6244  0.9370 -1.9251
    4MOL0     H  506   4.949   2.532  10.258  1.3735 -3.0479 -0.5865
    4MOL0     H  507   4.822   2.575  10.370 -1.3808  0.1909  0.4426
    4MOL0     H  508   5.043   2.585  10.439 -0.7874  0.7609 -1.9010
    4MOL0     H  509   4.949   2.486  10.559  0.8551  2.2135 -0.1624
    4MOL0     H  510   5.129   2.365  10.336  2.0429  2.2516  1.1117
    4MOL0     H  511   5.031   2.288  10.470  0.9851  0.1280  2.1171
    4MOL0     H  512   5.224   2.510  10.541  2.6266 -0.5865  3.5373
    4MOL0     H  513   5.163   2.381  10.643  1.6705 -1.2725  0.8492
    4MOL0     H  514   5.406   2.372  10.565 -1.0617  2.7715 -1.4743
    4MOL0     H  515   5.336   2.340  10.403  3.2782  1.1975  0.3228
    4MOL0     H  516   5.286   2.171  10.670  1.7043 -2.5774  0.1476
    4MOL0     H  517   5.205   2.136  10.520  0.2392  0.9229 -1.5274
    4MOL0     H  518   5.461   2.130  10.428  1.8682  1.0876  1.1729
    4MOL0     H  519   5.381   1.995  10.523  1.4519 -1.4377 -1.2572
    4MOL0     H  520   5.528   2.029  10.700 -1.1149 -1.7712 -0.7253
    4MOL0     H  521   5.550   2.201  10.671  0.2644  0.3747 -2.3587
    4MOL0     H  522   4.690   2.495  10.493  2.5301 -0.2563 -2.7727
    4MOL0     H  523   4.558   2.384  10.692  1.8947  1.1124  1.3694
    4MOL0     H  524   4.437   2.114  10.983  0.0569  0.0418  2.5811
    4MOL0     H  525   4.386   1.991  11.185  0.6534 -1.7606  1.1586
    4MOL0     H  526   4.613   2.884  10.927  1.3109  1.5052  1.0849
    4MOL0     H  527   4.842   2.967  10.960  2.5110 -0.5003 -0.8365
    4MOL0     H  528   5.435   2.737  10.981 -1.8304 -0.1181 -0.5741
    4MOL0     H  529   5.624   2.905  11.026  0.0724 -0.1329 -1.0032
    4MOL0     H  530   5.704   3.063  11.156 -0.4873  1.6592  0.3788
    4MOL0     H  531   5.790   3.126  11.013 -0.0213  1.9868  0.0069
    4MOL0     H  532   5.692   3.290  11.258 -0.6054  1.3972 -0.9694
    4MOL0     H  533   5.808   3.348  11.129  2.0425 -1.8922 -2.5175
    4MOL0     H  534   5.978   3.197  11.186  1.5355  1.7526  0.8373
    4MOL0     H  535   5.872   3.118  11.301  0.2888 -0.4978 -0.7529
    4MOL0     H  536   5.872   3.323  11.435 -1.3021 -1.4626 -0.2841
    4MOL0     H  537   5.978   3.400  11.310 -1.7970 -0.7778 -2.0544
    4MOL0     H  538   6.229   3.113  11.532  0.0813  2.3077  2.1144
    4MOL0     H  539   5.352   3.233  10.995 -0.6859 -0.5111  2.8053
    4MOL0     H  540   5.167   3.068  10.923 -1.1257 -2.7136 -0.6654
    5MOL0     O  541  11.314   9.082   8.347 -0.2848 -0.3866 -0.5075
    5MOL0     C  542  11.215   9.085   8.268  0.0735  0.6046 -0.6636
    5MOL0     O  543  11.210   9.136   8.142  0.5884 -0.7243  0.4786
    5MOL0     C  544  11.327   9.176   8.083  0.2086 -0.6012  0.7376
    5MOL0     C  545  11.446   9.097   8.082  0.0826  0.1545  1.1814
    5MOL0     C  546  11.565   9.140   8.025  0.2872 -0.6352 -0.0137
    5MOL0     C  547  11.571   9.273   7.976 -0.3270 -0.2562  0.1722
    5MOL0     O  548  11.690   9.318   7.932  0.8823  0.5185  0.1793
    5MOL0     C  549  11.734   9.444   7.985 -0.5905 -0.4406  0.8131
    5MOL0     C  550  11.798   9.417   8.119  0.2589  0.2344 -0.2711
    5MOL0     C  551  11.881   9.291   8.125  0.7891  0.1442  0.6081
    5MOL0     C  552  11.921   9.259   8.264 -0.2089  0.0268  0.1292
    5MOL0     C  553  12.059   9.195   8.277  0.1185 -0.4513  0.0563
    5MOL0     C  554  12.084   9.060   8.217  0.0570 -0.7596  0.0389
    5MOL0     C  555  12.224   9.007   8.228 -1.0341  0.3406  0.3901
    5MOL0     C  556  12.350   9.055   8.143  0.0003 -0.5680 -0.0926
    5MOL0     N  557  12.321   9.061   7.998 -1.0456  0.4661  1.0002
    5MOL0     C  558  12.258   8.953   7.938 -0.0818  0.1688  0.7767
    5MOL0     C  559  12.280   8.990   7.806  0.7634  0.3359 -0.6334
    5MOL0     C  560  12.240   8.904   7.687 -0.5536 -0.4096  0.6121
    5MOL0     C  561  12.321   8.772   7.667  0.0814  0.6333 -0.1878
    5MOL0     C  562  12.280   8.699   7.531 -0.1919 -0.7699 -0.1617
    5MOL0     C  563  12.125   8.694   7.514 -0.2634 -0.2879 -0.3769
    5MOL0     O  564  12.084   8.600   7.412  0.6307  0.1479 -0.0225
    5MOL0     C  565  11.950   8.595   7.376  0.3212 -0.1151  0.2458
    5MOL0     C  566  11.910   8.509   7.282  0.1457 -0.4869  0.3458
    5MOL0     C  567  11.777   8.492   7.247  0.4582 -0.7518  0.4810
    5MOL0     C  568  11.759   8.391   7.141  0.5313  0.5368 -0.8103
    5MOL0     C  569  11.673   8.576   7.295  0.3570 -0.2620 -0.6947
    5MOL0     C  570  11.535   8.559   7.265  0.2198 -0.9211 -0.4320
    5MOL0     O  571  11.447   8.658   7.312 -0.2336 -0.0181 -0.4829
    5MOL0     C  572  11.311   8.658   7.306  0.2032  1.3478 -0.7417
    5MOL0     C  573  11.256   8.766   7.357 -0.2717 -0.2259  0.0825
    5MOL0     C  574  11.118   8.765   7.372 -0.3588 -0.6831 -1.0568
    5MOL0     C  575  11.032   8.663   7.336  0.4707  0.3948 -0.1245
    5MOL0     O  576  10.897   8.651   7.338  0.4623  0.3310  0.0516
    5MOL0     C  577  10.812   8.749   7.396  0.4309  0.4454 -0.5953
    5MOL0     C  578  10.698   8.675   7.458  0.6828  0.2933  0.0233
    5MOL0     C  579  10.573   8.762   7.460 -0.7722  0.9088 -0.1473
    5MOL0     C  580  10.587   8.897   7.514  0.2415  0.1752  0.4679
    5MOL0     C  581  10.448   8.969   7.515  0.1284  0.8923  0.5181
    5MOL0     C  582  10.395   8.995   7.370 -0.4056 -0.5190 -0.9633
    5MOL0     C  583  10.285   9.106   7.368 -0.1855 -0.0145  0.2634
    5MOL0     C  584  10.158   9.079   7.282 -0.7695 -0.3790  0.1805
    5MOL0    Cl  585  10.079   9.237   7.251 -0.3668 -0.4425 -0.3936
    5MOL0     C  586  11.095   8.550   7.284  0.0814  0.4131 -0.7891
    5MOL0     C  587  11.230   8.545   7.274 -0.6560 -1.2528 -0.0837
    5MOL0     O  588  11.502   8.473   7.195  0.0205 -0.1580  0.2478
    5MOL0     C  589  11.711   8.676   7.378  0.5003 -0.7761  0.2638
    5MOL0     C  590  11.845   8.685   7.419  0.9308  0.5402  0.3540
    5MOL0     N  591  12.346   9.106   7.793 -0.3049  0.2115  0.3584
    5MOL0     N  592  12.374   9.149   7.913  0.3000 -0.1811 -0.0852
    5MOL0     C  593  11.461   9.355   7.974 -1.3486 -0.4457 -0.3456
    5MOL0     C  594  11.338   9.296   8.019 -0.5638 -0.4920 -0.8124
    5MOL0     C  595  11.077   9.034   8.307 -1.0251  0.0847  0.0906
    5MOL0     C  596  11.059   8.935   8.399 -1.0751 -0.2021  0.7381
    5MOL0     C  597  10.936   8.866   8.409  0.2007 -0.0247 -0.0474
    5MOL0     C  598  10.823   8.904   8.338 -0.1458 -0.6822 -1.0602
    5MOL0     O  599  10.702   8.839   8.346  0.2450 -0.8222  0.2999
    5MOL0     C  600  10.649   8.777   8.465 -0.7652  0.6737  0.0862
    5MOL0     C  601  10.504   8.761   8.466 -0.0695 -0.1408  0.2484
    5MOL0     C  602  10.455   8.636   8.397 -0.0579 -0.2918  0.0821
    5MOL0     C  603  10.298   8.619   8.370 -0.6632 -0.0648  0.2521
    5MOL0     C  604  10.243   8.564   8.494 -0.7838  0.3149 -0.5027
    5MOL0     C  605  10.205   8.497   8.584  0.2945  0.0461  0.5164
    5MOL0     C  606  10.837   9.018   8.255 -0.4892  0.0420 -0.2290
    5MOL0     C  607  10.963   9.076   8.232 -0.4681 -1.0014 -0.9070
    5MOL0     H  608  11.444   9.001   8.134  1.2809 -0.2594  0.4868
    5MOL0     H  609  11.655   9.080   8.031  1.0364  0.5115  0.5334
    5MOL0     H  610  11.803   9.489   7.912 -1.7360 -1.0689 -0.7081
    5MOL0     H  611  11.654   9.518   7.986  0.5270  0.9944 -2.2386
    5MOL0     H  612  11.870   9.495   8.143 -0.8698  0.6592  1.9795
    5MOL0     H  613  11.712   9.412   8.186  0.6923 -4.0501  0.2725
    5MOL0     H  614  11.843   9.206   8.068  0.1780 -0.5139  1.9719
    5MOL0     H  615  11.970   9.309   8.064 -0.3416 -2.0373 -1.9186
    5MOL0     H  616  11.928   9.358   8.311  1.5156 -0.3267  0.6581
    5MOL0     H  617  11.850   9.199   8.322  1.5132 -1.4030  0.8137
    5MOL0     H  618  12.141   9.259   8.244 -1.3947  0.9688 -1.1275
    5MOL0     H  619  12.062   9.177   8.385 -0.2064  0.0610  0.1548
    5MOL0     H  620  12.016   8.994   8.272 -0.7564  0.8223  1.0201
    5MOL0     H  621  12.069   9.055   8.109 -0.5090 -1.5708  0.1473
    5MOL0     H  622  12.253   8.978   8.329 -1.0845 -1.8018 -0.1603
    5MOL0     H  623  12.213   8.907   8.186  0.1260 -0.8497  2.7097
    5MOL0     H  624  12.429   8.985   8.168  0.6484 -0.0372 -0.6237
    5MOL0     H  625  12.385   9.154   8.174  2.2619 -0.7288 -1.8531
    5MOL0     H  626  12.217   8.857   7.969 -2.5756 -1.0082 -4.8553
    5MOL0     H  627  12.135   8.874   7.694 -0.6887 -0.0650  0.1255
    5MOL0     H  628  12.245   8.962   7.595  0.2255 -1.5728 -0.0954
    5MOL0     H  629  12.317   8.702   7.751 -0.6675 -2.3338 -2.4913
    5MOL0     H  630  12.426   8.799   7.652 -0.3146  1.1620 -2.4302
    5MOL0     H  631  12.312   8.595   7.539 -1.1231 -1.1331 -0.8627
    5MOL0     H  632  12.320   8.756   7.446 -1.6590  1.9605  0.8538
    5MOL0     H  633  12.092   8.796   7.491 -0.5167 -0.4117 -0.5614
    5MOL0     H  634  12.083   8.655   7.608 -0.7127 -3.1569 -1.6644
    5MOL0     H  635  11.984   8.448   7.230  1.0136 -0.4613  1.5202
    5MOL0     H  636  11.785   8.437   7.045  1.0743 -1.2940 -1.6010
    5MOL0     H  637  11.838   8.316   7.154  2.2763  2.4068 -0.0419
    5MOL0     H  638  11.661   8.346   7.126  0.0596  1.2734 -0.0019
    5MOL0     H  639  11.318   8.851   7.387  0.1047 -0.5306  0.1765
    5MOL0     H  640  11.076   8.850   7.425  2.7584 -1.7160  3.6850
    5MOL0     H  641  10.861   8.807   7.475 -0.6240  0.6427 -0.0672
    5MOL0     H  642  10.787   8.819   7.316 -1.0181  1.3156  0.5789
    5MOL0     H  643  10.676   8.599   7.382  1.0550  1.7277 -1.5752
    5MOL0     H  644  10.739   8.623   7.545  0.8078  2.1714  1.1203
    5MOL0     H  645  10.491   8.712   7.512 -1.8289 -1.5735 -3.7882
    5MOL0     H  646  10.543   8.764   7.354 -2.2219  1.1039  0.2394
    5MOL0     H  647  10.614   8.884   7.619  0.6235 -0.0641  0.3401
    5MOL0     H  648  10.669   8.953   7.467  0.8989  0.3517  1.7828
    5MOL0     H  649  10.463   9.063   7.569  3.5886  0.2244  0.9383
    5MOL0     H  650  10.379   8.919   7.583  0.1309 -0.0720 -0.1646
    5MOL0     H  651  10.478   9.033   7.311 -1.2163  4.3041  0.5165
    5MOL0     H  652  10.356   8.905   7.323 -0.6847  0.2155 -2.1736
    5MOL0     H  653  10.318   9.204   7.332 -1.2501 -0.4217 -2.0461
    5MOL0     H  654  10.259   9.129   7.471 -1.2211  2.9488 -0.5398
    5MOL0     H  655  10.096   9.017   7.348  0.4909 -0.4064  1.3721
    5MOL0     H  656  10.180   9.026   7.189 -0.1736  1.8864 -1.0575
    5MOL0     H  657  11.018   8.476   7.265 -4.2675  3.0409  3.8379
    5MOL0     H  658  11.267   8.449   7.238 -1.2881 -2.1144  1.4815
    5MOL0     H  659  11.634   8.746   7.409  2.7976  1.8222  0.5014
    5MOL0     H  660  11.878   8.761   7.488 -1.4788  0.0801  2.1425
    5MOL0     H  661  11.459   9.453   7.928  0.1392  1.6421  3.5840
    5MOL0     H  662  11.242   9.348   8.019  1.3212  3.3589  1.0874
    5MOL0     H  663  11.144   8.889   8.448 -2.6640 -2.9366  1.1742
    5MOL0     H  664  10.930   8.782   8.479  0.6643  0.6095  0.7750
    5MOL0     H  665  10.698   8.683   8.492 -1.9994  0.3833  1.4357
    5MOL0     H  666  10.674   8.847   8.545 -2.6329  2.9401 -1.2156
    5MOL0     H  667  10.462   8.849   8.417 -0.2662  0.2728  1.1551
    5MOL0     H  668  10.470   8.764   8.569 -0.5555  1.8605  0.0765
    5MOL0     H  669  10.488   8.544   8.446 -2.4145 -1.6406 -0.7037
    5MOL0     H  670  10.507   8.642   8.302  0.6224 -0.5427  0.4355
    5MOL0     H  671  10.283   8.550   8.286 -1.6001 -0.6613  0.8788
    5MOL0     H  672  10.246   8.713   8.350  0.0261  0.0044 -1.3725
    5MOL0     H  673  10.158   8.430   8.653  1.7138 -1.9314 -0.3423
    5MOL0     H  674  10.758   9.044   8.186  1.7865 -1.3085 -3.5768
    5MOL0     H  675  10.969   9.143   8.147 -0.5320 -0.6474 -0.6317
    6MOL0     O  676   7.607   1.148   4.922  0.8571 -0.2970 -1.2979
    6MOL0     C  677   7.591   1.258   4.866  0.4960  0.2985 -0.3956
    6MOL0     O  678   7.679   1.327   4.791 -0.5749  1.4061  0.1130
    6MOL0     C  679   7.803   1.268   4.766  1.0584 -0.0302  0.6198
    6MOL0     C  680   7.830   1.240   4.633  0.6770 -0.7018  0.0156
    6MOL0     C  681   7.942   1.176   4.602  0.0511  0.4450 -0.7254
    6MOL0     C  682   8.044   1.146   4.692 -0.0561 -0.2355 -0.3944
    6MOL0     O  683   8.143   1.064   4.648 -0.1976 -0.1840 -0.1303
    6MOL0     C  684   8.264   1.045   4.727 -0.5854  0.9473 -0.6130
    6MOL0     C  685   8.355   0.948   4.654 -0.6175 -0.6166  0.5564
    6MOL0     C  686   8.490   0.907   4.728  0.2007  0.0917 -0.8322
    6MOL0     C  687   8.561   0.788   4.660 -0.3789 -0.2768 -1.0236
    6MOL0     C  688   8.669   0.731   4.749  0.5012  0.0217  0.2846
    6MOL0     C  689   8.767   0.631   4.673 -0.4235 -0.3344 -0.5596
    6MOL0     C  690   8.875   0.585   4.769 -0.2624  0.1478  0.8078
    6MOL0     C  691   8.999   0.504   4.711 -0.3942 -0.2254 -0.0403
    6MOL0     N  692   8.960   0.399   4.617  0.0339  0.0839 -0.4719
    6MOL0     C  693   8.911   0.423   4.496  0.9384 -0.4520  0.7945
    6MOL0     C  694   8.857   0.302   4.455  0.0510 -0.4009 -0.0713
    6MOL0     C  695   8.805   0.278   4.320  0.4387  0.6707 -0.2693
    6MOL0     C  696   8.659   0.269   4.307  0.4117 -0.3954 -0.1022
    6MOL0     C  697   8.600   0.414   4.306  0.1836  0.7466  0.1417
    6MOL0     C  698   8.447   0.420   4.326 -0.9299  0.1858 -0.2571
    6MOL0     O  699   8.399   0.557   4.334 -0.7862  0.2871  0.1259
    6MOL0     C  700   8.271   0.577   4.360 -0.2569  0.4742 -0.2185
    6MOL0     C  701   8.173   0.476   4.395 -0.3262  0.8828  0.2635
    6MOL0     C  702   8.042   0.500   4.426 -0.8502 -0.4386 -0.4194
    6MOL0     C  703   7.957   0.372   4.448  0.2147  0.2916 -0.8647
    6MOL0     C  704   7.993   0.636   4.430 -0.6705 -0.0734  0.8830
    6MOL0     C  705   7.856   0.669   4.456  0.4146 -0.4877 -0.6256
    6MOL0     O  706   7.811   0.780   4.399  0.4397 -0.6491 -0.1838
    6MOL0     C  707   7.698   0.840   4.465  0.7528  0.4782 -0.0172
    6MOL0     C  708   7.566   0.838   4.413 -1.4286 -0.0229  0.1678
    6MOL0     C  709   7.464   0.922   4.459  0.1980  0.3478 -0.3282
    6MOL0     C  710   7.492   1.010   4.566  0.0741  0.2154 -0.0802
    6MOL0     O  711   7.409   1.109   4.608  0.4832  0.0344  0.1396
    6MOL0     C  712   7.278   1.129   4.532 -0.2682  0.0156  0.0391
    6MOL0     C  713   7.193   1.214   4.613  0.0427  0.5415  0.7874
    6MOL0     C  714   7.076   1.263   4.533 -0.2838  0.0946  0.3487
    6MOL0     C  715   6.965   1.312   4.628 -0.1028  0.6997  0.1790
    6MOL0     C  716   6.870   1.418   4.564  0.7253 -0.8081  0.5307
    6MOL0     C  717   6.740   1.440   4.649 -0.3063  0.3182  0.4205
    6MOL0     C  718   6.623   1.496   4.567 -0.1944 -0.0966  0.7576
    6MOL0     C  719   6.521   1.574   4.650  0.1193 -0.2370  0.6422
    6MOL0    Cl  720   6.413   1.653   4.530 -0.2279 -0.7776  0.2268
    6MOL0     C  721   7.619   0.992   4.634 -0.1991 -0.0444 -0.2826
    6MOL0     C  722   7.719   0.918   4.576 -0.8690  0.3254  0.4833
    6MOL0     O  723   7.803   0.609   4.554  0.2063 -0.5304 -0.0715
    6MOL0     C  724   8.087   0.739   4.387  0.6749  0.3321 -0.0854
    6MOL0     C  725   8.222   0.706   4.359  0.4627 -0.4769  0.9669
    6MOL0     N  726   8.862   0.213   4.557 -0.0675  0.4461  0.5881
    6MOL0     N  727   8.933   0.266   4.646 -0.3597 -0.9789 -0.8479
    6MOL0     C  728   8.021   1.188   4.824  0.5494  0.3889 -0.5684
    6MOL0     C  729   7.901   1.246   4.869 -0.0182 -0.3724 -0.1103
    6MOL0     C  730   7.456   1.328   4.879  0.3009  0.2716  1.1972
    6MOL0     C  731   7.359   1.266   4.958 -0.0836 -1.2146  0.2372
    6MOL0     C  732   7.227   1.324   4.979 -0.1375  0.7847 -0.7367
    6MOL0     C  733   7.205   1.449   4.929 -0.1468 -0.5542  0.0733
    6MOL0     O  734   7.088   1.506   4.978  0.9869 -0.8908 -0.7445
    6MOL0     C  735   7.048   1.634   4.928  0.8029  0.1253  1.5734
    6MOL0     C  736   6.930   1.689   4.999 -0.7189 -0.1110  0.1969
    6MOL0     C  737   6.914   1.835   4.977 -0.4573  0.7014  0.8050
    6MOL0     C  738   6.777   1.873   4.908  0.3461 -0.0216 -0.6282
    6MOL0     C  739   6.781   1.851   4.760  0.0251  0.2217 -0.9481
    6MOL0     C  740   6.778   1.825   4.641  0.2748 -0.5321  0.3437
    6MOL0     C  741   7.297   1.505   4.849 -0.1081  0.6061 -0.4504
    6MOL0     C  742   7.426   1.452   4.833  0.1632  1.4466  0.2446
    6MOL0     H  743   7.750   1.260   4.562 -0.4580  3.5433  2.1609
    6MOL0     H  744   7.946   1.129   4.504  1.2653  1.0850 -0.9976
    6MOL0     H  745   8.310   1.143   4.741 -0.6662  1.0946 -1.3352
    6MOL0     H  746   8.251   1.001   4.826  3.0378  0.6236 -0.1564
    6MOL0     H  747   8.300   0.854   4.643 -1.4851  0.0227 -0.9034
    6MOL0     H  748   8.375   0.985   4.553  2.7307 -1.6653  0.6887
    6MOL0     H  749   8.557   0.992   4.743 -0.0847  0.1545  0.1701
    6MOL0     H  750   8.466   0.878   4.831  1.4376 -2.9257 -1.2822
    6MOL0     H  751   8.494   0.706   4.630  0.0844 -0.3236 -1.9636
    6MOL0     H  752   8.606   0.834   4.571 -0.3073 -0.6011 -1.1587
    6MOL0     H  753   8.729   0.814   4.788 -0.5517  0.5084  0.8921
    6MOL0     H  754   8.612   0.677   4.825 -3.3976  2.4708 -0.6120
    6MOL0     H  755   8.716   0.539   4.640  0.2609 -0.2509 -1.9023
    6MOL0     H  756   8.808   0.682   4.586 -0.9424  0.5847 -0.2787
    6MOL0     H  757   8.892   0.675   4.828 -2.7138  2.1665 -1.3050
    6MOL0     H  758   8.822   0.512   4.831 -0.1124 -2.0874 -1.5215
    6MOL0     H  759   9.061   0.469   4.794 -0.8416 -1.6038 -0.2599
    6MOL0     H  760   9.067   0.561   4.646  0.1626 -1.0033 -0.1543
    6MOL0     H  761   8.919   0.513   4.436 -1.6166  0.7182  2.0296
    6MOL0     H  762   8.853   0.352   4.255 -3.0615  2.5260 -0.9462
    6MOL0     H  763   8.845   0.182   4.286  2.1230  0.8838  1.0119
    6MOL0     H  764   8.612   0.220   4.393  0.6535 -0.0110  0.2589
    6MOL0     H  765   8.625   0.210   4.222 -1.2148  2.0376 -1.2672
    6MOL0     H  766   8.622   0.456   4.207  1.0107  0.9370  0.3973
    6MOL0     H  767   8.651   0.481   4.375  0.8325 -0.2512  0.6586
    6MOL0     H  768   8.422   0.361   4.414  1.7927 -1.1171 -0.2747
    6MOL0     H  769   8.404   0.366   4.241 -0.8670  0.1636 -0.2748
    6MOL0     H  770   8.198   0.372   4.376  1.7123  1.1035  1.4594
    6MOL0     H  771   7.856   0.361   4.408 -0.3681 -0.7178  0.8117
    6MOL0     H  772   8.008   0.284   4.409 -0.2634 -0.7820  0.8358
    6MOL0     H  773   7.945   0.368   4.556  3.2216 -0.8249 -0.4642
    6MOL0     H  774   7.541   0.778   4.326  1.3349  1.5589 -1.8658
    6MOL0     H  775   7.369   0.925   4.406 -0.7921  0.1995  1.3957
    6MOL0     H  776   7.291   1.165   4.430 -1.4176 -1.8919 -0.8358
    6MOL0     H  777   7.215   1.039   4.528 -1.2217  0.6952 -0.7817
    6MOL0     H  778   7.154   1.160   4.699 -1.1928 -3.4757 -2.0252
    6MOL0     H  779   7.253   1.301   4.643 -2.0656  1.5766  2.2925
    6MOL0     H  780   7.045   1.168   4.488  1.0969  0.0184 -0.5149
    6MOL0     H  781   7.108   1.329   4.452 -0.7044  1.0085  0.9153
    6MOL0     H  782   6.902   1.226   4.655  1.8944 -1.6635 -2.1677
    6MOL0     H  783   7.017   1.352   4.715 -0.6927  1.5334  0.1668
    6MOL0     H  784   6.838   1.395   4.462  1.2563  1.9777 -0.3505
    6MOL0     H  785   6.912   1.518   4.557 -1.6067  0.2288  0.4848
    6MOL0     H  786   6.710   1.352   4.706  0.7410 -0.3916 -0.0806
    6MOL0     H  787   6.761   1.515   4.726 -0.7762  2.8446 -1.7420
    6MOL0     H  788   6.570   1.424   4.504  3.5171  0.4047 -3.4208
    6MOL0     H  789   6.671   1.561   4.493 -0.9449 -0.9287 -0.4928
    6MOL0     H  790   6.571   1.643   4.718 -1.0914  1.7716 -0.3980
    6MOL0     H  791   6.469   1.502   4.714 -1.5877 -1.5523 -2.0393
    6MOL0     H  792   7.637   1.043   4.728 -0.7983  3.9027 -2.0731
    6MOL0     H  793   7.818   0.920   4.621 -0.3627  0.5243 -0.6025
    6MOL0     H  794   8.048   0.840   4.375 -0.1903  0.2390  1.6611
    6MOL0     H  795   8.269   0.794   4.316 -2.2610  0.8164  0.4207
    6MOL0     H  796   8.095   1.165   4.900 -0.3060 -0.2772  0.0748
    6MOL0     H  797   7.879   1.259   4.975 -1.6527 -3.5229  0.0547
    6MOL0     H  798   7.374   1.177   5.018  3.5286  0.2170  1.7613
    6MOL0     H  799   7.147   1.278   5.036 -0.3223 -0.8513 -2.2324
    6MOL0     H  800   7.130   1.706   4.920  1.3451 -0.6808 -2.1845
    6MOL0     H  801   7.024   1.616   4.823  3.5902 -1.0481  1.0397
    6MOL0     H  802   6.941   1.676   5.107 -2.3063  3.2620  0.9026
    6MOL0     H  803   6.839   1.637   4.968  1.0250 -2.0905 -1.9306
    6MOL0     H  804   6.990   1.878   4.911 -0.1639 -2.1595 -0.8788
    6MOL0     H  805   6.921   1.890   5.071  3.4922  0.0378  1.0443
    6MOL0     H  806   6.764   1.980   4.927  1.5091  0.3799 -1.9236
    6MOL0     H  807   6.689   1.816   4.941 -0.6054  0.9506 -1.3952
    6MOL0     H  808   6.775   1.793   4.539 -2.9632  2.8879 -0.8751
    6MOL0     H  809   7.289   1.609   4.817  1.8500  0.8701 -0.1897
    6MOL0     H  810   7.509   1.494   4.777  2.9288 -2.0175  1.3615
    7MOL0     O  811   7.679   6.124   6.551  0.4134  0.3566 -0.1954
    7MOL0     C  812   7.738   6.173   6.642  0.1348 -0.1925  0.3028
    7MOL0     O  813   7.686   6.269   6.731 -0.0979  0.1446 -0.1122
    7MOL0     C  814   7.568   6.342   6.707 -0.0333  1.1666  1.0836
    7MOL0     C  815   7.575   6.474   6.664 -0.8588 -0.2284  0.0657
    7MOL0     C  816   7.464   6.555   6.645 -0.8522  0.6764 -1.3705
    7MOL0     C  817   7.337   6.505   6.663 -0.7207 -0.0079 -1.0772
    7MOL0     O  818   7.231   6.590   6.636 -0.3159 -0.5455 -0.2215
    7MOL0     C  819   7.098   6.546   6.650 -0.3419 -0.8316  0.7330
    7MOL0     C  820   7.022   6.647   6.578 -0.6181 -0.0972 -0.0977
    7MOL0     C  821   6.874   6.616   6.603  0.4199 -0.1395 -0.3217
    7MOL0     C  822   6.779   6.678   6.508  0.0056 -0.8710  0.0019
    7MOL0     C  823   6.734   6.820   6.550 -0.2847  0.1608  0.5564
    7MOL0     C  824   6.635   6.884   6.443  0.2953 -0.4147 -0.4464
    7MOL0     C  825   6.587   7.030   6.493 -0.1918  0.3274  0.5170
    7MOL0     C  826   6.531   7.125   6.388 -0.3888 -0.7116  0.0156
    7MOL0     N  827   6.501   7.263   6.443  0.6308  0.1150  0.0905
    7MOL0     C  828   6.603   7.359   6.455  0.5976  0.0200  0.5553
    7MOL0     C  829   6.556   7.453   6.537  0.4342 -0.2719  0.1622
    7MOL0     C  830   6.615   7.583   6.570  0.8020  0.1360 -0.3678
    7MOL0     C  831   6.548   7.700   6.495  0.1549 -0.0060  0.6281
    7MOL0     C  832   6.562   7.698   6.337  0.7119 -0.1651  0.0828
    7MOL0     C  833   6.696   7.656   6.276  0.1932 -0.0485 -0.0147
    7MOL0     O  834   6.717   7.713   6.143  0.0471  0.7237 -0.1270
    7MOL0     C  835   6.842   7.699   6.088  0.3948  0.6771  0.3399
    7MOL0     C  836   6.926   7.599   6.109 -0.6260  0.2159  0.0770
    7MOL0     C  837   7.049   7.600   6.056  0.8416  0.2386 -0.6649
    7MOL0     C  838   7.125   7.477   6.076  0.7837 -0.2688 -0.4528
    7MOL0     C  839   7.103   7.717   5.986  0.0734  0.6742  0.2203
    7MOL0     C  840   7.234   7.723   5.925  0.1837 -0.3592 -0.1434
    7MOL0     O  841   7.259   7.846   5.887 -0.7775 -1.1571 -0.2280
    7MOL0     C  842   7.397   7.880   5.867  0.8368  1.2747 -0.2785
    7MOL0     C  843   7.449   7.924   5.744  0.9324  0.5799  0.8717
    7MOL0     C  844   7.583   7.958   5.727 -0.2372 -0.5215 -0.3843
    7MOL0     C  845   7.672   7.957   5.835 -0.0499  0.0590 -0.4231
    7MOL0     O  846   7.791   7.997   5.805 -0.5661  0.0656 -0.4707
    7MOL0     C  847   7.895   8.006   5.904 -0.1651  0.6891 -0.1703
    7MOL0     C  848   7.975   7.877   5.924  0.4754  0.1009 -0.1724
    7MOL0     C  849   8.075   7.855   5.815  0.1479  0.4464  0.1307
    7MOL0     C  850   8.187   7.753   5.872  0.3099 -0.1460 -0.0969
    7MOL0     C  851   8.316   7.731   5.787  0.0121  0.5269 -0.2022
    7MOL0     C  852   8.274   7.668   5.647 -0.5991 -0.8960 -0.5743
    7MOL0     C  853   8.385   7.595   5.577  0.1260  0.2013  0.3314
    7MOL0     C  854   8.335   7.529   5.455 -0.8841 -0.6536 -1.0395
    7MOL0    Cl  855   8.465   7.435   5.384  0.0978  0.1552  0.4856
    7MOL0     C  856   7.627   7.901   5.957  0.0763 -0.2273  0.0299
    7MOL0     C  857   7.490   7.866   5.972  0.0928  0.1662 -0.4902
    7MOL0     O  858   7.308   7.628   5.920 -0.0876 -0.3710 -1.0542
    7MOL0     C  859   7.014   7.823   5.971 -0.2667  0.1167  0.6097
    7MOL0     C  860   6.886   7.812   6.021 -0.0232 -0.4664  0.3300
    7MOL0     N  861   6.435   7.404   6.588 -0.4887 -0.2256 -0.2203
    7MOL0     N  862   6.401   7.300   6.529  0.1352 -0.1145  0.1013
    7MOL0     C  863   7.324   6.368   6.717 -0.3535  0.3132 -0.2668
    7MOL0     C  864   7.440   6.292   6.740  0.3265 -0.7807  0.4987
    7MOL0     C  865   7.874   6.122   6.680 -0.3688 -0.7376  0.4492
    7MOL0     C  866   7.939   6.175   6.799  0.1247  0.3565  0.0053
    7MOL0     C  867   8.071   6.139   6.829  0.2576 -1.1322  0.2606
    7MOL0     C  868   8.142   6.049   6.755 -0.7025 -0.6755  0.2338
    7MOL0     O  869   8.265   6.022   6.812 -0.4483  1.0142  0.4133
    7MOL0     C  870   8.333   5.910   6.765 -0.1943  0.1602  0.3935
    7MOL0     C  871   8.463   5.909   6.833  0.3654 -0.3979 -0.0780
    7MOL0     C  872   8.529   5.779   6.816 -0.9491  0.4254  0.5159
    7MOL0     C  873   8.666   5.781   6.888 -0.4787 -0.2463 -0.3434
    7MOL0     C  874   8.713   5.642   6.886  0.1570  0.6321 -0.4308
    7MOL0     C  875   8.753   5.528   6.883 -1.3915 -0.3704  0.1391
    7MOL0     C  876   8.079   5.988   6.639 -0.1105 -0.4380 -0.9347
    7MOL0     C  877   7.948   6.032   6.603  0.1838  0.4781 -0.8111
    7MOL0     H  878   7.676   6.514   6.659 -0.8963  0.1385  1.7803
    7MOL0     H  879   7.476   6.659   6.619 -0.0332  0.9226 -0.1054
    7MOL0     H  880   7.092   6.445   6.609  0.8524 -1.7972  2.7626
    7MOL0     H  881   7.071   6.546   6.756 -2.5350  1.7918  0.2876
    7MOL0     H  882   7.046   6.742   6.627 -2.7714  0.0745  0.7761
    7MOL0     H  883   7.040   6.635   6.471  2.7851 -2.3969  0.5709
    7MOL0     H  884   6.866   6.507   6.604  0.3820 -0.1428  0.9466
    7MOL0     H  885   6.854   6.653   6.704 -0.3698  1.1902 -0.9392
    7MOL0     H  886   6.825   6.689   6.409  0.5211  0.3854  0.3539
    7MOL0     H  887   6.691   6.614   6.515 -0.7669  0.2389  0.8712
    7MOL0     H  888   6.687   6.817   6.648 -2.9018 -1.1206 -0.6499
    7MOL0     H  889   6.823   6.884   6.559 -0.8218  0.9653  0.2619
    7MOL0     H  890   6.693   6.901   6.352 -0.0949  2.0562 -0.3013
    7MOL0     H  891   6.550   6.816   6.433 -0.1130 -0.5933  2.8834
    7MOL0     H  892   6.516   7.009   6.574 -1.0259 -1.8405 -0.6927
    7MOL0     H  893   6.675   7.076   6.537  0.4536 -1.7767  1.5617
    7MOL0     H  894   6.436   7.086   6.352 -0.1902 -1.3146  0.1280
    7MOL0     H  895   6.603   7.149   6.309  0.8389  0.9741  1.5551
    7MOL0     H  896   6.696   7.360   6.399 -0.1868 -0.3820 -0.8018
    7MOL0     H  897   6.619   7.605   6.677  2.0637  0.2019 -0.4081
    7MOL0     H  898   6.716   7.572   6.530 -0.0914 -0.8601 -2.4799
    7MOL0     H  899   6.607   7.787   6.524  2.0253  0.0084 -2.7362
    7MOL0     H  900   6.442   7.717   6.517 -0.2459  2.9719 -2.7035
    7MOL0     H  901   6.531   7.793   6.294  1.6709  0.9228  1.6911
    7MOL0     H  902   6.495   7.620   6.298  1.7771 -1.5704  0.9544
    7MOL0     H  903   6.687   7.548   6.263  1.7450  0.1067 -3.6029
    7MOL0     H  904   6.771   7.681   6.352 -0.8699  2.7194  0.2581
    7MOL0     H  905   6.879   7.521   6.169 -2.6927  1.3309  0.0180
    7MOL0     H  906   7.149   7.439   5.976  0.6665  1.2108 -1.0687
    7MOL0     H  907   7.216   7.495   6.134 -0.9873 -1.1770  2.8339
    7MOL0     H  908   7.074   7.404   6.139  1.0127  1.6625  2.1399
    7MOL0     H  909   7.389   7.935   5.654  1.7486 -1.5567  0.0005
    7MOL0     H  910   7.621   7.995   5.632  0.6882 -2.0713 -0.6434
    7MOL0     H  911   7.972   8.077   5.875 -0.8715  1.5306 -0.0246
    7MOL0     H  912   7.855   8.042   5.999 -0.2859  1.0490 -0.3548
    7MOL0     H  913   8.024   7.886   6.022 -0.1923  0.8584  0.1000
    7MOL0     H  914   7.903   7.795   5.931  0.1821  0.0468 -2.8880
    7MOL0     H  915   8.125   7.948   5.786 -0.7939  0.5942 -1.1117
    7MOL0     H  916   8.023   7.821   5.725 -0.7740  0.0114  0.8118
    7MOL0     H  917   8.224   7.782   5.971  2.7412 -0.6531 -0.7914
    7MOL0     H  918   8.138   7.656   5.883 -2.5580  1.2403  0.2808
    7MOL0     H  919   8.379   7.654   5.833 -1.8909 -1.6786 -1.1168
    7MOL0     H  920   8.374   7.823   5.774  0.3988  0.3101 -0.0424
    7MOL0     H  921   8.205   7.587   5.675 -1.6055  0.9554  2.9873
    7MOL0     H  922   8.225   7.744   5.585  1.2684  2.5084  1.8073
    7MOL0     H  923   8.423   7.511   5.636 -0.9187 -0.3329  0.2676
    7MOL0     H  924   8.465   7.661   5.543  2.0072 -2.6231 -1.0500
    7MOL0     H  925   8.301   7.603   5.382 -1.0016 -1.0105 -1.3495
    7MOL0     H  926   8.254   7.463   5.487  0.7487 -1.1036  2.6315
    7MOL0     H  927   7.691   7.880   6.042 -0.3718  1.8245  0.9361
    7MOL0     H  928   7.449   7.821   6.062 -3.7379  1.5776 -1.3286
    7MOL0     H  929   7.042   7.906   5.907  1.0765 -2.1427 -1.9483
    7MOL0     H  930   6.817   7.892   5.998  0.5623  0.2608  1.0786
    7MOL0     H  931   7.229   6.320   6.734  0.6204 -1.2882  0.8534
    7MOL0     H  932   7.443   6.187   6.771  2.8882 -0.4625  1.5845
    7MOL0     H  933   7.883   6.250   6.855  2.7085  0.8798  2.0451
    7MOL0     H  934   8.117   6.177   6.920  0.0117 -0.0637 -0.0399
    7MOL0     H  935   8.273   5.822   6.792  0.9373 -1.2902 -1.5541
    7MOL0     H  936   8.340   5.917   6.656 -3.6695 -0.3699  0.0243
    7MOL0     H  937   8.446   5.926   6.939 -3.4165 -0.5953 -0.5135
    7MOL0     H  938   8.526   5.988   6.792 -0.4696 -0.3689 -1.3674
    7MOL0     H  939   8.553   5.763   6.710  0.2801  0.1433  0.8223
    7MOL0     H  940   8.476   5.691   6.855 -0.0697 -0.2415  0.2545
    7MOL0     H  941   8.652   5.807   6.993  2.3450  2.3944 -0.4597
    7MOL0     H  942   8.737   5.844   6.832 -1.1963  0.0234 -0.9702
    7MOL0     H  943   8.795   5.430   6.866  1.3556  0.7852 -0.3091
    7MOL0     H  944   8.135   5.926   6.571  1.7213 -0.8362  0.8586
    7MOL0     H  945   7.902   5.996   6.512  2.0352 -0.4533 -1.4480
    8MOL0     O  946   1.978   0.939   8.601 -0.0030 -0.6484  0.2634
    8MOL0     C  947   1.997   1.041   8.546 -0.0340 -0.6708  0.6527
    8MOL0     O  948   1.900   1.142   8.520 -0.2171  0.3359 -0.4924
    8MOL0     C  949   1.783   1.132   8.588  0.2573  0.1005 -0.8498
    8MOL0     C  950   1.691   1.027   8.563 -0.8596 -0.7726  0.5241
    8MOL0     C  951   1.575   1.020   8.642 -0.2983  1.0440 -1.1324
    8MOL0     C  952   1.556   1.095   8.763 -0.2478 -0.3459  0.0030
    8MOL0     O  953   1.437   1.079   8.828 -0.2487  0.4179  0.6136
    8MOL0     C  954   1.434   1.090   8.963  0.0280 -0.1651 -0.3713
    8MOL0     C  955   1.299   1.044   9.021  0.0071  0.2963  0.3667
    8MOL0     C  956   1.311   1.057   9.175 -0.2117 -1.1012  0.1199
    8MOL0     C  957   1.208   0.968   9.243  0.6970  0.9136 -0.9485
    8MOL0     C  958   1.208   0.994   9.394  0.7931 -0.1339  1.0263
    8MOL0     C  959   1.184   0.863   9.464  0.6182  0.7405  0.4572
    8MOL0     C  960   1.119   0.885   9.600  0.3378 -0.3061  0.3889
    8MOL0     C  961   0.963   0.908   9.568  0.3667 -1.4991  0.4716
    8MOL0     N  962   0.892   0.997   9.660 -0.3021  0.5336 -0.5057
    8MOL0     C  963   0.790   0.956   9.736  0.8372  0.3020 -0.2638
    8MOL0     C  964   0.713   1.063   9.753  0.2944 -0.2641 -1.1456
    8MOL0     C  965   0.583   1.046   9.828 -0.3750 -0.1830  0.9336
    8MOL0     C  966   0.574   1.129   9.957 -0.1717  0.3652 -0.5280
    8MOL0     C  967   0.650   1.062  10.080 -0.1728  0.1992 -0.2652
    8MOL0     C  968   0.663   1.155  10.206 -0.2800 -0.0941  0.7398
    8MOL0     O  969   0.714   1.088  10.317 -0.5339  0.5095 -0.1895
    8MOL0     C  970   0.642   0.986  10.379 -0.2375  0.9757  0.3022
    8MOL0     C  971   0.707   0.902  10.475 -0.1757  0.2642 -1.0304
    8MOL0     C  972   0.631   0.810  10.551 -0.6204 -0.4332  0.1714
    8MOL0     C  973   0.705   0.707  10.636 -0.0087  0.1689 -0.6159
    8MOL0     C  974   0.491   0.803  10.537 -0.0663 -0.1909  0.0759
    8MOL0     C  975   0.411   0.697  10.603 -0.4885 -1.2724  1.2049
    8MOL0     O  976   0.356   0.727  10.722  0.0927 -0.5661 -0.1110
    8MOL0     C  977   0.256   0.646  10.771 -0.9255 -0.1654  0.0225
    8MOL0     C  978   0.278   0.585  10.895  0.5199  0.6229  0.2378
    8MOL0     C  979   0.176   0.510  10.963 -0.3623  0.1843  0.4656
    8MOL0     C  980   0.052   0.486  10.899 -0.3282  1.0401  1.2445
    8MOL0     O  981  -0.050   0.424  10.967  0.2793 -0.1197 -0.5223
    8MOL0     C  982  -0.038   0.287  10.997 -0.6227  0.5099  0.5117
    8MOL0     C  983  -0.151   0.260  11.096  0.9832 -0.3113  0.2045
    8MOL0     C  984  -0.289   0.253  11.032  0.2839  0.4099 -0.4696
    8MOL0     C  985  -0.404   0.282  11.130  0.3088  0.0127 -0.1241
    8MOL0     C  986  -0.503   0.158  11.135  0.2501 -0.0798  0.4469
    8MOL0     C  987  -0.617   0.205  11.219  0.5064 -0.2538 -0.4406
    8MOL0     C  988  -0.715   0.098  11.253 -0.6752  0.4804  0.5865
    8MOL0     C  989  -0.833   0.138  11.331  0.1413 -0.2800 -0.2575
    8MOL0    Cl  990  -0.810   0.165  11.509  0.4223 -0.0711  0.2485
    8MOL0     C  991   0.035   0.538  10.765 -0.4340  0.4033  0.1267
    8MOL0     C  992   0.141   0.610  10.699 -0.7611  0.0094  0.0726
    8MOL0     O  993   0.396   0.600  10.532  0.1622 -0.1757 -0.2141
    8MOL0     C  994   0.431   0.883  10.436  0.4596 -0.0006  0.2192
    8MOL0     C  995   0.506   0.972  10.360 -0.4399  0.0082  0.3283
    8MOL0     N  996   0.761   1.174   9.691  0.7453  0.1734  0.2197
    8MOL0     N  997   0.875   1.131   9.632  0.5275  0.3228 -0.0979
    8MOL0     C  998   1.648   1.200   8.794 -0.5635 -0.0285 -0.6986
    8MOL0     C  999   1.758   1.215   8.704  0.3292 -0.7788  0.3690
    8MOL0     C 1000   2.124   1.048   8.470  0.6793 -0.6145  1.2657
    8MOL0     C 1001   2.141   1.143   8.368  0.6503 -0.3809 -0.3748
    8MOL0     C 1002   2.246   1.128   8.279 -0.7913 -0.6038  0.3831
    8MOL0     C 1003   2.350   1.044   8.300  0.6035 -0.6549  1.1584
    8MOL0     O 1004   2.469   1.046   8.224  0.5220 -0.1287  0.2310
    8MOL0     C 1005   2.473   1.074   8.080 -0.3122 -0.1291 -0.5558
    8MOL0     C 1006   2.598   1.002   8.040  0.6359 -0.2195 -0.4192
    8MOL0     C 1007   2.612   0.856   8.089  1.0117  0.2872  0.8416
    8MOL0     C 1008   2.483   0.776   8.058 -0.3728 -0.2445 -0.0913
    8MOL0     C 1009   2.436   0.777   7.919  0.4428  0.0081  0.8218
    8MOL0     C 1010   2.381   0.784   7.809 -0.3364  0.2500  0.0371
    8MOL0     C 1011   2.336   0.961   8.416 -0.7415 -0.2672  0.1947
    8MOL0     C 1012   2.224   0.951   8.488 -0.3289 -0.4492 -0.0451
    8MOL0     H 1013   1.699   0.949   8.488 -4.1690 -2.6540  1.8680
    8MOL0     H 1014   1.514   0.936   8.611  0.2248  0.1085  0.2877
    8MOL0     H 1015   1.506   1.019   9.005 -1.5648 -0.6159  1.7875
    8MOL0     H 1016   1.460   1.192   8.993  1.5480  0.6434 -3.9752
    8MOL0     H 1017   1.214   1.096   8.976  0.3103  0.4283 -0.0507
    8MOL0     H 1018   1.292   0.935   9.011 -1.4696  0.3475  0.6450
    8MOL0     H 1019   1.412   1.037   9.212  0.6744  0.4320 -1.3335
    8MOL0     H 1020   1.289   1.162   9.194  0.6315 -0.2385 -3.0702
    8MOL0     H 1021   1.112   0.981   9.191 -0.5326 -0.1823  0.9279
    8MOL0     H 1022   1.259   0.872   9.228 -0.3988  0.3712 -1.3698
    8MOL0     H 1023   1.307   1.034   9.415  0.9884  1.8892 -2.9162
    8MOL0     H 1024   1.136   1.076   9.401  0.7662  0.3224 -2.6112
    8MOL0     H 1025   1.115   0.806   9.401  0.0376  2.7448 -0.7917
    8MOL0     H 1026   1.281   0.813   9.473  0.6265  0.7173  0.2294
    8MOL0     H 1027   1.131   0.794   9.658 -1.7333  0.2847  1.8622
    8MOL0     H 1028   1.163   0.960   9.667  1.2789 -0.9403  0.4976
    8MOL0     H 1029   0.906   0.816   9.551 -0.5792 -0.8488  0.0634
    8MOL0     H 1030   0.958   0.957   9.470 -1.1860  3.1563  2.6215
    8MOL0     H 1031   0.760   0.854   9.755  2.1022 -0.2216 -0.9255
    8MOL0     H 1032   0.509   1.075   9.753  1.4945 -3.2453 -2.4201
    8MOL0     H 1033   0.577   0.939   9.850 -1.8499 -0.0481  1.3207
    8MOL0     H 1034   0.469   1.127   9.989 -0.8785  3.4357 -2.2554
    8MOL0     H 1035   0.599   1.232   9.933  0.9990 -0.2015 -1.8296
    8MOL0     H 1036   0.752   1.043  10.048  0.5163  5.7609 -2.5271
    8MOL0     H 1037   0.602   0.968  10.109  1.6886 -0.8215 -0.3839
    8MOL0     H 1038   0.565   1.194  10.237  0.8287  0.1453  4.4052
    8MOL0     H 1039   0.730   1.237  10.181 -1.7619  1.0340  0.3087
    8MOL0     H 1040   0.815   0.900  10.486  0.1989  0.2638 -3.8663
    8MOL0     H 1041   0.707   0.614  10.580  0.8821 -1.3052  1.7123
    8MOL0     H 1042   0.798   0.743  10.682 -3.1772  1.3742  6.0699
    8MOL0     H 1043   0.636   0.687  10.718  1.0447 -0.7791  0.0740
    8MOL0     H 1044   0.367   0.616  10.948 -0.4031  0.6593  1.8385
    8MOL0     H 1045   0.190   0.469  11.062 -0.6327 -0.6745  0.1552
    8MOL0     H 1046  -0.046   0.225  10.908  1.9723  0.5797  0.1400
    8MOL0     H 1047   0.060   0.269  11.042  0.1566 -0.8106 -1.5447
    8MOL0     H 1048  -0.128   0.172  11.155  0.3363  0.4228  1.6008
    8MOL0     H 1049  -0.146   0.346  11.164 -0.1696  0.5045 -0.6844
    8MOL0     H 1050  -0.305   0.149  11.003 -0.7057 -1.1371  4.7079
    8MOL0     H 1051  -0.296   0.334  10.959 -1.0475  3.4286  2.7325
    8MOL0     H 1052  -0.346   0.294  11.222  0.8845  3.2110 -0.7924
    8MOL0     H 1053  -0.456   0.375  11.108 -3.3228 -1.9462 -0.6465
    8MOL0     H 1054  -0.453   0.076  11.188  1.3721 -0.9732 -1.8265
    8MOL0     H 1055  -0.537   0.129  11.035  1.6526 -1.9040  0.4295
    8MOL0     H 1056  -0.573   0.258  11.305  2.3233  1.9843 -2.5942
    8MOL0     H 1057  -0.685   0.271  11.164  2.6006  2.7314  0.2413
    8MOL0     H 1058  -0.670   0.013  11.307 -0.1032  0.3310 -0.1153
    8MOL0     H 1059  -0.757   0.056  11.161 -1.0336  2.1295 -0.0289
    8MOL0     H 1060  -0.909   0.059  11.325 -0.4973  0.3745 -0.9634
    8MOL0     H 1061  -0.869   0.232  11.290  0.1214  0.0227  0.4376
    8MOL0     H 1062  -0.057   0.519  10.710 -0.3221 -2.3086  0.7087
    8MOL0     H 1063   0.132   0.639  10.594 -2.5019  1.6315  0.6131
    8MOL0     H 1064   0.325   0.867  10.422  0.0652  0.5817  2.2281
    8MOL0     H 1065   0.457   1.017  10.274 -0.1611  0.6103  0.4808
    8MOL0     H 1066   1.641   1.270   8.877  2.8318 -0.8533  0.4141
    8MOL0     H 1067   1.831   1.292   8.727 -0.3500  0.4528 -1.3785
    8MOL0     H 1068   2.058   1.205   8.335  1.2816 -0.4373 -2.1523
    8MOL0     H 1069   2.252   1.197   8.195 -2.2090  0.7477  1.3245
    8MOL0     H 1070   2.389   1.032   8.025 -1.1572  0.5258  0.2184
    8MOL0     H 1071   2.486   1.181   8.058  2.8795 -0.0290  1.1396
    8MOL0     H 1072   2.685   1.062   8.071  1.6766 -1.1285 -1.4619
    8MOL0     H 1073   2.606   1.010   7.931 -0.0230  1.5080 -0.3690
    8MOL0     H 1074   2.627   0.844   8.196  1.2358 -2.3692  0.5950
    8MOL0     H 1075   2.694   0.808   8.035 -1.0475 -2.4784 -0.0713
    8MOL0     H 1076   2.400   0.803   8.125 -0.2176 -1.3719  0.5817
    8MOL0     H 1077   2.514   0.674   8.084  0.9115  0.9603  3.8366
    8MOL0     H 1078   2.311   0.790   7.729  0.2953  2.8223 -0.4020
    8MOL0     H 1079   2.418   0.898   8.447 -0.4533 -0.5660 -1.0939
    8MOL0     H 1080   2.209   0.874   8.563  0.1882  1.1154  1.7491
    9MOL0     O 1081   7.716   5.357   6.202  0.2963  0.2781  0.0005
    9MOL0     C 1082   7.697   5.263   6.274 -0.0280  0.2174  0.5051
    9MOL0     O 1083   7.786   5.159   6.311  0.2197  0.1391  0.2558
    9MOL0     C 1084   7.911   5.178   6.271 -0.2804 -0.6875 -0.1299
    9MOL0     C 1085   7.959   5.177   6.138  0.1826  0.8680 -0.9285
    9MOL0     C 1086   8.085   5.188   6.099 -0.3764  0.1336  0.2129
    9MOL0     C 1087   8.182   5.202   6.194 -0.6507  1.0328 -0.2519
    9MOL0     O 1088   8.317   5.212   6.156 -0.1631 -0.9758 -0.1851
    9MOL0     C 1089   8.419   5.156   6.244  0.6981 -0.1426  0.2593
    9MOL0     C 1090   8.535   5.122   6.153 -0.6311  1.4108  0.6778
    9MOL0     C 1091   8.658   5.099   6.242  0.0384  1.2419 -0.6843
    9MOL0     C 1092   8.785   5.055   6.172 -0.5386 -0.2472  0.5116
    9MOL0     C 1093   8.850   5.159   6.085 -0.2495  0.1118 -0.4096
    9MOL0     C 1094   9.008   5.136   6.081  0.6828 -0.3127  0.0993
    9MOL0     C 1095   9.067   5.245   5.994 -0.1896  0.0841  0.6008
    9MOL0     C 1096   9.220   5.251   5.988 -0.3800  0.5446 -0.7236
    9MOL0     N 1097   9.275   5.356   5.904  0.1109  0.1161  0.4869
    9MOL0     C 1098   9.398   5.374   5.846 -1.3912  0.4307 -0.1578
    9MOL0     C 1099   9.395   5.494   5.782  0.3881  0.0218 -0.2087
    9MOL0     C 1100   9.511   5.573   5.722 -0.2883  0.0163 -0.1478
    9MOL0     C 1101   9.602   5.633   5.821  0.2867  0.3700 -0.5992
    9MOL0     C 1102   9.524   5.746   5.891  0.4031  0.7752  0.8124
    9MOL0     C 1103   9.637   5.834   5.961  0.4047 -0.5798 -0.5529
    9MOL0     O 1104   9.711   5.916   5.869  0.3672 -1.1591  0.4664
    9MOL0     C 1105   9.657   6.014   5.803  0.2370  0.6402  0.5955
    9MOL0     C 1106   9.526   6.067   5.820 -0.4571  0.4049 -0.2461
    9MOL0     C 1107   9.472   6.168   5.748 -0.2242  0.4039  0.8485
    9MOL0     C 1108   9.334   6.222   5.777  0.6468 -0.2801  0.1062
    9MOL0     C 1109   9.547   6.229   5.641  0.0104  0.3251 -0.2385
    9MOL0     C 1110   9.504   6.352   5.576 -0.0554 -0.1169  0.7897
    9MOL0     O 1111   9.520   6.463   5.650 -0.1559 -0.2310  0.5703
    9MOL0     C 1112   9.529   6.580   5.577 -0.4191  0.5796  0.2479
    9MOL0     C 1113   9.609   6.599   5.460 -0.6409  1.0494 -0.1357
    9MOL0     C 1114   9.622   6.722   5.406  0.0439  0.9205 -0.1979
    9MOL0     C 1115   9.566   6.838   5.451  0.1677  0.4531  0.0312
    9MOL0     O 1116   9.567   6.966   5.391 -0.0687 -0.0393  0.0028
    9MOL0     C 1117   9.599   6.974   5.250 -1.1563 -0.7445 -0.4686
    9MOL0     C 1118   9.597   7.119   5.216  0.7245 -0.3196  0.0319
    9MOL0     C 1119   9.470   7.202   5.244 -0.1588 -0.0558  0.1156
    9MOL0     C 1120   9.344   7.156   5.178 -0.2177  0.5722  0.1752
    9MOL0     C 1121   9.223   7.233   5.233  1.1145  0.4853 -0.3802
    9MOL0     C 1122   9.096   7.187   5.177 -0.0225  0.1489  0.1225
    9MOL0     C 1123   8.982   7.287   5.195  0.7354 -0.4366  0.0561
    9MOL0     C 1124   8.856   7.226   5.138  0.2976  0.0146  0.2239
    9MOL0    Cl 1125   8.744   7.363   5.106 -0.3264 -0.3017 -0.5217
    9MOL0     C 1126   9.484   6.817   5.564  0.4762 -0.1749 -0.0480
    9MOL0     C 1127   9.465   6.696   5.627  0.3063  0.1443  0.2380
    9MOL0     O 1128   9.464   6.339   5.459  0.2235 -0.0464  0.6606
    9MOL0     C 1129   9.680   6.188   5.621  0.1461  0.5679  0.1556
    9MOL0     C 1130   9.732   6.076   5.695 -0.2281  0.3839 -0.6842
    9MOL0     N 1131   9.269   5.551   5.799 -0.5071  0.1124 -0.0381
    9MOL0     N 1132   9.201   5.468   5.877  0.2673 -1.0614 -0.4286
    9MOL0     C 1133   8.149   5.196   6.338 -0.6253 -1.0258  0.2604
    9MOL0     C 1134   8.014   5.184   6.375  0.1311  0.0447 -0.1626
    9MOL0     C 1135   7.567   5.280   6.343  0.3563  0.3861 -0.0877
    9MOL0     C 1136   7.484   5.399   6.327  0.3047  0.4359 -0.2203
    9MOL0     C 1137   7.360   5.413   6.388 -1.0055 -0.2689 -0.9684
    9MOL0     C 1138   7.306   5.310   6.471  0.6000 -0.1762  0.5455
    9MOL0     O 1139   7.196   5.342   6.539 -0.2619 -0.1236 -0.7776
    9MOL0     C 1140   7.128   5.255   6.634  0.2410  0.3979 -0.3433
    9MOL0     C 1141   7.017   5.335   6.705  0.0283  0.1299 -0.0066
    9MOL0     C 1142   7.061   5.466   6.773 -0.1595  0.1128 -0.9476
    9MOL0     C 1143   7.103   5.445   6.921 -0.4274  0.3365 -0.2788
    9MOL0     C 1144   7.224   5.372   6.943 -0.4002  0.0706 -0.2682
    9MOL0     C 1145   7.330   5.315   6.953 -0.3694  0.0206  0.8499
    9MOL0     C 1146   7.378   5.193   6.476  0.3360  0.6932 -0.3214
    9MOL0     C 1147   7.511   5.173   6.414  0.5396  0.3207 -0.5221
    9MOL0     H 1148   7.881   5.152   6.067  0.6634 -1.9592 -0.5868
    9MOL0     H 1149   8.114   5.178   5.995 -1.1340  1.2047 -0.1269
    9MOL0     H 1150   8.446   5.237   6.313 -2.2084  0.6292  0.6491
    9MOL0     H 1151   8.362   5.076   6.292 -3.9622  3.6593  1.9100
    9MOL0     H 1152   8.517   5.031   6.096  1.6697  0.6533  1.0557
    9MOL0     H 1153   8.548   5.195   6.072 -3.7632  0.7101 -0.5887
    9MOL0     H 1154   8.680   5.196   6.288  3.0346  1.6127 -2.6439
    9MOL0     H 1155   8.639   5.014   6.309 -2.2370  1.2120 -1.2981
    9MOL0     H 1156   8.855   5.025   6.251 -1.4404  1.9328  2.2534
    9MOL0     H 1157   8.766   4.964   6.115 -1.8761 -1.9817  3.4609
    9MOL0     H 1158   8.806   5.159   5.985 -1.0366  0.3081 -0.0707
    9MOL0     H 1159   8.834   5.256   6.134 -0.6422 -0.1700  0.0290
    9MOL0     H 1160   9.045   5.142   6.184 -2.5903  0.3523  1.3499
    9MOL0     H 1161   9.043   5.037   6.050  0.1567 -0.0397 -1.4557
    9MOL0     H 1162   9.026   5.222   5.895  2.0253  0.4247 -0.4440
    9MOL0     H 1163   9.022   5.339   6.026 -3.4901 -0.4277 -1.8964
    9MOL0     H 1164   9.253   5.148   5.971  3.4830  1.6975 -1.1336
    9MOL0     H 1165   9.259   5.278   6.086  2.7427  1.2537 -2.0403
    9MOL0     H 1166   9.476   5.299   5.856 -2.9229 -1.3278 -0.6776
    9MOL0     H 1167   9.569   5.518   5.647 -0.0358 -0.5532  0.4517
    9MOL0     H 1168   9.478   5.655   5.657  0.5252 -1.0211 -1.9639
    9MOL0     H 1169   9.681   5.680   5.762 -1.0012  2.2660 -0.9151
    9MOL0     H 1170   9.641   5.562   5.894  1.4103  1.6103  0.0409
    9MOL0     H 1171   9.456   5.692   5.957 -1.7730 -1.4408 -2.8362
    9MOL0     H 1172   9.459   5.804   5.824 -0.3499  0.6747  1.4506
    9MOL0     H 1173   9.705   5.764   6.011 -0.2529 -1.4740 -0.8742
    9MOL0     H 1174   9.599   5.906   6.034 -0.7786  0.5406 -2.1993
    9MOL0     H 1175   9.469   6.022   5.901 -0.2770  0.1140 -0.2776
    9MOL0     H 1176   9.253   6.175   5.721 -2.2009  0.4158  3.3458
    9MOL0     H 1177   9.310   6.214   5.883 -3.4949  1.6094 -0.4921
    9MOL0     H 1178   9.318   6.325   5.746 -2.8981 -0.4326  1.0243
    9MOL0     H 1179   9.643   6.503   5.422 -2.5992 -0.9633  2.7500
    9MOL0     H 1180   9.685   6.725   5.318  0.6518  0.0952  0.2035
    9MOL0     H 1181   9.703   6.939   5.244 -0.9430  0.1023 -2.5180
    9MOL0     H 1182   9.533   6.913   5.187 -2.2096 -0.8573  0.7119
    9MOL0     H 1183   9.676   7.160   5.279  2.8553 -1.8740 -1.4776
    9MOL0     H 1184   9.628   7.138   5.113 -2.4560  1.2192 -0.7530
    9MOL0     H 1185   9.478   7.308   5.218 -1.7784  0.1101  0.1693
    9MOL0     H 1186   9.449   7.212   5.351 -1.1568 -3.0144  0.2672
    9MOL0     H 1187   9.356   7.177   5.072  0.0185  0.7781  0.2404
    9MOL0     H 1188   9.337   7.050   5.201 -3.5630  0.4727 -0.8239
    9MOL0     H 1189   9.243   7.337   5.207  0.7036  0.2233 -1.7934
    9MOL0     H 1190   9.208   7.228   5.342 -0.8778  1.8336 -0.5508
    9MOL0     H 1191   9.112   7.159   5.072 -0.4024 -0.9494  0.3392
    9MOL0     H 1192   9.069   7.092   5.223 -1.0765  0.4769  0.2049
    9MOL0     H 1193   8.992   7.383   5.143 -2.2071 -0.0942 -0.0368
    9MOL0     H 1194   8.966   7.310   5.301 -0.6347  3.5680 -0.8286
    9MOL0     H 1195   8.819   7.157   5.213  0.0741 -0.1958 -0.0789
    9MOL0     H 1196   8.876   7.172   5.045 -0.7000 -1.4489  0.8335
    9MOL0     H 1197   9.430   6.907   5.592  0.9395  0.5586 -1.4083
    9MOL0     H 1198   9.393   6.688   5.708 -0.7791  6.1187  0.3433
    9MOL0     H 1199   9.738   6.235   5.543  0.6484 -0.1303  0.0973
    9MOL0     H 1200   9.834   6.043   5.683 -0.0001 -0.7517  2.9721
    9MOL0     H 1201   8.227   5.221   6.409 -1.2198 -0.8165  0.8505
    9MOL0     H 1202   7.987   5.176   6.479 -0.1270  2.4198 -0.0019
    9MOL0     H 1203   7.519   5.489   6.278  1.6446  0.6903  1.1321
    9MOL0     H 1204   7.309   5.509   6.393  0.5143  0.6119 -1.6375
    9MOL0     H 1205   7.091   5.170   6.577 -1.7935  2.2841 -1.9786
    9MOL0     H 1206   7.191   5.219   6.717  1.4035 -1.1299 -1.8352
    9MOL0     H 1207   6.973   5.271   6.782 -2.4667  1.2776 -0.3825
    9MOL0     H 1208   6.939   5.352   6.631  0.3570 -0.3008 -0.4614
    9MOL0     H 1209   6.973   5.531   6.776 -1.5394 -1.6872 -0.4567
    9MOL0     H 1210   7.134   5.518   6.710 -0.8245 -0.6036 -2.3490
    9MOL0     H 1211   7.022   5.394   6.975  0.3761 -0.6414  0.0247
    9MOL0     H 1212   7.112   5.540   6.974 -2.4394  1.5270 -1.9009
    9MOL0     H 1213   7.421   5.260   6.966  1.0354  2.5373  2.2938
    9MOL0     H 1214   7.351   5.112   6.543  0.0668  0.6178 -0.5189
    9MOL0     H 1215   7.560   5.077   6.424  0.1643  0.0416 -1.3036
   10MOL0     O 1216  10.741  10.786   0.784  0.4002 -0.3303  1.1397
   10MOL0     C 1217  10.764  10.813   0.900 -0.3031 -0.3661  0.2123
   10MOL0     O 1218  10.796  10.938   0.947 -0.3029 -0.7207  0.2038
   10MOL0     C 1219  10.791  11.046   0.857  1.2224  0.4232  0.0098
   10MOL0     C 1220  10.670  11.081   0.782  0.1026 -0.3400  0.4405
   10MOL0     C 1221  10.670  11.194   0.703  0.4845 -0.1124 -0.2159
   10MOL0     C 1222  10.772  11.287   0.703  0.4378 -0.1031  0.5110
   10MOL0     O 1223  10.775  11.417   0.651  0.2176 -0.1730 -0.0631
   10MOL0     C 1224  10.653  11.484   0.623  0.9796 -0.4308  0.7588
   10MOL0     C 1225  10.683  11.629   0.599  0.1319 -0.3150  0.2218
   10MOL0     C 1226  10.553  11.692   0.538  0.5851  0.1328 -0.6825
   10MOL0     C 1227  10.575  11.834   0.467 -0.3834  0.4435 -0.7916
   10MOL0     C 1228  10.456  11.904   0.410  0.6543 -0.5700  0.8309
   10MOL0     C 1229  10.385  11.826   0.295 -0.6267 -0.1967 -0.0322
   10MOL0     C 1230  10.290  11.923   0.230 -0.1584 -0.0631 -0.5438
   10MOL0     C 1231  10.252  11.876   0.092 -0.5993  0.2449  0.1635
   10MOL0     N 1232  10.194  11.749   0.096 -0.2252  0.0239  0.3292
   10MOL0     C 1233  10.078  11.714   0.170 -0.5438  0.6554 -0.6469
   10MOL0     C 1234  10.027  11.607   0.107 -0.1407  0.0891  0.4491
   10MOL0     C 1235   9.910  11.536   0.139  0.3307 -0.4285 -0.0040
   10MOL0     C 1236   9.790  11.580   0.054  0.3555 -0.3448 -0.5374
   10MOL0     C 1237   9.647  11.530   0.095 -0.3051  0.2267  0.5389
   10MOL0     C 1238   9.646  11.373   0.094 -0.4523 -0.1949 -0.4539
   10MOL0     O 1239   9.524  11.331   0.156 -0.2290  0.5709  0.3759
   10MOL0     C 1240   9.435  11.255   0.081  0.8465 -0.4220 -0.0884
   10MOL0     C 1241   9.326  11.315   0.004  0.1675 -0.3928 -0.2419
   10MOL0     C 1242   9.235  11.242  -0.070 -0.4329  0.7662 -0.2892
   10MOL0     C 1243   9.130  11.318  -0.131 -0.5512 -0.8260 -0.4914
   10MOL0     C 1244   9.236  11.100  -0.063 -0.1205  1.4125 -0.8809
   10MOL0     C 1245   9.128  11.011  -0.111  0.2398  0.3323  0.3691
   10MOL0     O 1246   9.132  10.873  -0.085 -0.7125 -0.1759  0.4003
   10MOL0     C 1247   9.041  10.793  -0.150 -0.5531 -0.5929  0.2408
   10MOL0     C 1248   8.903  10.801  -0.165 -0.5608  0.6730 -0.5162
   10MOL0     C 1249   8.834  10.699  -0.231 -0.0624 -0.1963  0.4826
   10MOL0     C 1250   8.893  10.587  -0.283 -0.2704 -1.1310  0.0995
   10MOL0     O 1251   8.827  10.476  -0.333 -0.6500 -0.8487  0.1833
   10MOL0     C 1252   8.892  10.408  -0.444 -0.9332 -1.4269 -0.0608
   10MOL0     C 1253   8.786  10.340  -0.526  0.1745 -0.3531 -0.1000
   10MOL0     C 1254   8.828  10.200  -0.559 -0.1934  0.2411  0.2993
   10MOL0     C 1255   8.752  10.138  -0.677 -0.4357 -0.2459  0.0589
   10MOL0     C 1256   8.603  10.128  -0.653  0.0591  0.7274  0.3887
   10MOL0     C 1257   8.569  10.039  -0.527  0.5625  0.0508 -0.4058
   10MOL0     C 1258   8.418  10.033  -0.501 -0.7692 -0.2673 -0.7369
   10MOL0     C 1259   8.371  10.103  -0.373  0.1710 -1.1920  0.1184
   10MOL0    Cl 1260   8.420  10.274  -0.384 -0.2425  0.2960  0.3506
   10MOL0     C 1261   9.035  10.581  -0.260 -0.4028  0.2039 -0.2249
   10MOL0     C 1262   9.098  10.682  -0.205  0.1837 -0.5185 -0.4943
   10MOL0     O 1263   9.039  11.067  -0.174 -0.5032  0.7104 -0.4697
   10MOL0     C 1264   9.345  11.043   0.018 -0.4980  0.0529 -0.6500
   10MOL0     C 1265   9.448  11.120   0.076 -0.3231 -0.3733 -0.1152
   10MOL0     N 1266  10.117  11.572   0.008  0.7230  0.8122 -0.9049
   10MOL0     N 1267  10.209  11.659  -0.014  0.5621 -0.3540 -0.0889
   10MOL0     C 1268  10.886  11.254   0.786 -0.1686  0.0974 -0.9361
   10MOL0     C 1269  10.902  11.131   0.844  0.1016  0.8789 -0.2799
   10MOL0     C 1270  10.744  10.706   0.994 -0.8682  0.0415  0.3601
   10MOL0     C 1271  10.790  10.717   1.122  0.8503  0.1343 -0.3129
   10MOL0     C 1272  10.754  10.620   1.219  0.3760  0.2463  0.7377
   10MOL0     C 1273  10.693  10.497   1.187  0.6041  0.2657  0.1237
   10MOL0     O 1274  10.660  10.398   1.285  0.4089  0.2502  0.1274
   10MOL0     C 1275  10.675  10.420   1.428  0.1159  0.9753  0.2181
   10MOL0     C 1276  10.613  10.305   1.511  0.5230 -0.1563 -0.2398
   10MOL0     C 1277  10.457  10.286   1.493  1.4258  0.3291  0.5318
   10MOL0     C 1278  10.403  10.184   1.589 -0.5689  0.8228 -0.3772
   10MOL0     C 1279  10.448  10.045   1.568 -0.1334 -0.3757  1.4121
   10MOL0     C 1280  10.480   9.931   1.539  0.6597  0.4516 -0.1131
   10MOL0     C 1281  10.658  10.478   1.045 -0.9856  0.9820 -0.0368
   10MOL0     C 1282  10.676  10.586   0.958  0.4745  0.0647  0.4914
   10MOL0     H 1283  10.580  11.022   0.792  1.3434 -2.3019  0.6140
   10MOL0     H 1284  10.577  11.225   0.656  0.9360  2.2335  0.2893
   10MOL0     H 1285  10.606  11.434   0.538 -0.3433  0.6154  0.8362
   10MOL0     H 1286  10.584  11.483   0.708 -0.8129  1.3191 -0.5849
   10MOL0     H 1287  10.694  11.674   0.698 -3.0463  0.0757  0.5016
   10MOL0     H 1288  10.772  11.647   0.538  0.4374  3.6063  1.5734
   10MOL0     H 1289  10.527  11.624   0.456 -3.0859 -1.7985  1.8041
   10MOL0     H 1290  10.471  11.699   0.610 -0.2608  1.5127 -1.7162
   10MOL0     H 1291  10.618  11.905   0.539  0.9127  2.0250 -3.0177
   10MOL0     H 1292  10.659  11.818   0.400  0.9854 -0.2807  1.0296
   10MOL0     H 1293  10.380  11.926   0.487  2.4287 -0.5618  2.6678
   10MOL0     H 1294  10.493  11.999   0.373  0.8150 -0.0675  2.2025
   10MOL0     H 1295  10.450  11.791   0.214  1.6526 -1.2234  2.0998
   10MOL0     H 1296  10.333  11.736   0.328  2.4931 -2.5617 -1.0356
   10MOL0     H 1297  10.201  11.930   0.293  0.9877  2.1918  0.9703
   10MOL0     H 1298  10.335  12.023   0.223 -1.0231  0.6373  2.5166
   10MOL0     H 1299  10.346  11.865   0.037 -0.1302 -2.9182  1.3959
   10MOL0     H 1300  10.191  11.945   0.033  0.3273  0.1464 -0.9342
   10MOL0     H 1301  10.024  11.764   0.250  0.6498  1.1375 -0.1287
   10MOL0     H 1302   9.941  11.433   0.117 -0.0538 -0.4077 -0.6714
   10MOL0     H 1303   9.873  11.544   0.242  3.7059  1.7761  1.1968
   10MOL0     H 1304   9.807  11.568  -0.054 -2.0630 -2.3437 -0.7749
   10MOL0     H 1305   9.786  11.688   0.069  0.2571 -0.5104  0.7754
   10MOL0     H 1306   9.573  11.578   0.029 -0.2983  0.8081  0.9465
   10MOL0     H 1307   9.625  11.576   0.192 -3.4612 -0.0033  0.0486
   10MOL0     H 1308   9.725  11.348   0.165 -1.1672  0.4989  0.6156
   10MOL0     H 1309   9.673  11.325  -0.001 -2.8765 -2.4865 -0.0836
   10MOL0     H 1310   9.305  11.421  -0.002  1.7665 -0.0841 -0.9771
   10MOL0     H 1311   9.124  11.421  -0.096 -2.9604 -0.4714 -1.7159
   10MOL0     H 1312   9.133  11.299  -0.238  0.4333 -1.5466 -0.3518
   10MOL0     H 1313   9.038  11.284  -0.081 -1.3121  2.1017  0.2831
   10MOL0     H 1314   8.846  10.885  -0.126  0.0171  1.4811 -1.3669
   10MOL0     H 1315   8.726  10.710  -0.234 -0.0269  0.0587 -0.2379
   10MOL0     H 1316   8.946  10.479  -0.507 -1.1119 -0.6022  0.7058
   10MOL0     H 1317   8.969  10.340  -0.406  0.7979  1.3325  1.7334
   10MOL0     H 1318   8.685  10.344  -0.483  1.2744 -3.2145  3.1200
   10MOL0     H 1319   8.782  10.395  -0.621 -1.7330 -1.6439 -0.8311
   10MOL0     H 1320   8.822  10.142  -0.467 -4.2286  0.8482  0.6129
   10MOL0     H 1321   8.935  10.199  -0.580  0.0134  1.0373  1.2534
   10MOL0     H 1322   8.766  10.193  -0.771 -2.8086 -0.4187 -0.4563
   10MOL0     H 1323   8.788  10.036  -0.688  2.2636 -0.0956  4.8009
   10MOL0     H 1324   8.562  10.091  -0.747 -1.6157  1.8750  0.6194
   10MOL0     H 1325   8.556  10.226  -0.642  0.6196  0.9430  0.9241
   10MOL0     H 1326   8.604   9.937  -0.546 -0.0388 -0.1081 -0.6934
   10MOL0     H 1327   8.612  10.090  -0.440  2.1838  0.7529 -1.5581
   10MOL0     H 1328   8.387   9.929  -0.482 -0.1264 -0.4726 -0.7990
   10MOL0     H 1329   8.368  10.084  -0.583 -0.5947  3.1832  1.1209
   10MOL0     H 1330   8.414  10.069  -0.278  0.6436 -0.6087  0.1197
   10MOL0     H 1331   8.262  10.093  -0.372  0.0768 -1.1558 -2.4686
   10MOL0     H 1332   9.104  10.501  -0.284  1.7117  1.6056  0.8215
   10MOL0     H 1333   9.206  10.675  -0.197  0.0352 -0.6581  2.7962
   10MOL0     H 1334   9.347  10.936   0.034  0.4592  0.4143  2.2759
   10MOL0     H 1335   9.532  11.072   0.126  2.3128  1.1225 -2.8164
   10MOL0     H 1336  10.973  11.319   0.789  1.1792 -1.6982  1.2100
   10MOL0     H 1337  10.998  11.104   0.887 -0.2412 -0.6984 -0.4316
   10MOL0     H 1338  10.848  10.806   1.145 -1.3925  1.9527 -1.1796
   10MOL0     H 1339  10.782  10.640   1.322 -2.3590 -1.4116  1.9414
   10MOL0     H 1340  10.781  10.423   1.452  0.7968 -0.6794 -2.1400
   10MOL0     H 1341  10.624  10.514   1.452 -0.4000  1.2340 -1.6939
   10MOL0     H 1342  10.645  10.316   1.615  2.1391 -1.2566 -0.5791
   10MOL0     H 1343  10.653  10.208   1.481  1.9195 -0.5480  2.5568
   10MOL0     H 1344  10.439  10.238   1.396  0.3351 -0.2281  0.9940
   10MOL0     H 1345  10.394  10.375   1.499 -1.9079 -1.9945  3.4758
   10MOL0     H 1346  10.294  10.182   1.595 -0.6949  2.9592 -1.1406
   10MOL0     H 1347  10.441  10.231   1.680  0.4412 -0.3309 -0.1801
   10MOL0     H 1348  10.502   9.827   1.526  0.4058  0.7048 -3.5102
   10MOL0     H 1349  10.607  10.388   1.012  0.9587 -0.6292  1.0932
   10MOL0     H 1350  10.633  10.585   0.859 -0.1336  1.7666  0.7129
   11MOL0     O 1351   9.454   1.899   0.135  0.1492  0.0068 -0.4154
   11MOL0     C 1352   9.442   1.814   0.052  1.0348  0.2440  0.3550
   11MOL0     O 1353   9.331   1.793  -0.026 -0.7136 -0.8464  0.7032
   11MOL0     C 1354   9.229   1.882  -0.025 -0.4712  0.1095 -1.3183
   11MOL0     C 1355   9.236   2.006  -0.091 -0.2429  0.2879  0.3582
   11MOL0     C 1356   9.136   2.110  -0.083 -0.7283  0.4058 -0.3189
   11MOL0     C 1357   9.023   2.080  -0.012 -0.3672 -0.5617  0.5496
   11MOL0     O 1358   8.941   2.188  -0.020 -0.0842  0.3667 -0.6665
   11MOL0     C 1359   8.810   2.164   0.039 -0.8280  0.7038  0.6146
   11MOL0     C 1360   8.720   2.106  -0.075  0.0832 -0.5448 -0.8157
   11MOL0     C 1361   8.561   2.109  -0.040 -0.3370  0.0527  0.2224
   11MOL0     C 1362   8.476   2.039  -0.158 -0.5956  0.3354 -0.0311
   11MOL0     C 1363   8.327   2.047  -0.142  0.6055  1.4271 -0.2207
   11MOL0     C 1364   8.272   2.000  -0.012  1.1169 -0.7982  0.7490
   11MOL0     C 1365   8.119   2.024   0.006  0.2904 -0.8779  0.1522
   11MOL0     C 1366   8.029   1.944  -0.091 -0.0970 -0.5350  0.0805
   11MOL0     N 1367   7.881   1.974  -0.073  0.4227  0.7755  0.3221
   11MOL0     C 1368   7.825   2.024   0.042  0.1745  0.3254 -0.6122
   11MOL0     C 1369   7.689   1.989   0.030  0.3966 -0.2257 -0.0666
   11MOL0     C 1370   7.559   2.003   0.107  0.5586  0.0802  0.3135
   11MOL0     C 1371   7.528   1.864   0.171 -0.8481  0.6851  0.7949
   11MOL0     C 1372   7.454   1.758   0.090  0.9048  1.0939  0.0213
   11MOL0     C 1373   7.463   1.620   0.155 -0.1927  0.8138  1.1484
   11MOL0     O 1374   7.462   1.514   0.061 -1.0351 -0.2351 -0.2190
   11MOL0     C 1375   7.579   1.496  -0.020  0.3961  0.1690  0.9522
   11MOL0     C 1376   7.556   1.424  -0.135  1.2646 -0.3091  0.1917
   11MOL0     C 1377   7.659   1.393  -0.225  0.1300  0.1834  0.1989
   11MOL0     C 1378   7.638   1.297  -0.349 -0.0636 -0.6533  0.3901
   11MOL0     C 1379   7.786   1.447  -0.194 -0.3596  0.2197 -0.0398
   11MOL0     C 1380   7.910   1.434  -0.271 -0.4629 -0.2507 -0.2830
   11MOL0     O 1381   8.008   1.527  -0.237  0.1157  0.1265  0.1827
   11MOL0     C 1382   8.145   1.509  -0.271 -0.0030 -0.4284 -1.0753
   11MOL0     C 1383   8.204   1.381  -0.281 -0.6247  0.1590  0.4889
   11MOL0     C 1384   8.342   1.379  -0.312  0.3898  0.1992  0.8086
   11MOL0     C 1385   8.415   1.500  -0.335 -0.8388 -1.4403  0.8213
   11MOL0     O 1386   8.549   1.515  -0.378  0.2472  0.0688 -0.2524
   11MOL0     C 1387   8.609   1.394  -0.433 -0.1791 -0.3796 -0.1331
   11MOL0     C 1388   8.734   1.428  -0.507 -0.4829 -0.3247  0.3726
   11MOL0     C 1389   8.797   1.306  -0.569  0.1881  0.0609 -0.0268
   11MOL0     C 1390   8.833   1.188  -0.477 -0.3841 -0.3386 -0.1486
   11MOL0     C 1391   8.929   1.081  -0.532 -0.6629 -0.2865  0.2647
   11MOL0     C 1392   8.896   1.048  -0.676 -0.3696  0.4915  0.6286
   11MOL0     C 1393   8.996   0.940  -0.731  0.6091 -0.4635  0.2454
   11MOL0     C 1394   8.943   0.796  -0.715  0.8095 -0.9083  0.8244
   11MOL0    Cl 1395   8.925   0.731  -0.554  0.3460 -0.0388 -0.3488
   11MOL0     C 1396   8.351   1.624  -0.329 -0.9563  0.4665  0.3535
   11MOL0     C 1397   8.216   1.633  -0.285  0.2636  0.5589  0.4108
   11MOL0     O 1398   7.933   1.334  -0.340 -0.1524  0.1161 -0.4013
   11MOL0     C 1399   7.798   1.538  -0.087 -0.4042  0.0849 -0.0271
   11MOL0     C 1400   7.696   1.558  -0.006  0.3610 -0.0270  0.4886
   11MOL0     N 1401   7.670   1.932  -0.096 -0.4151  0.2009  0.7606
   11MOL0     N 1402   7.785   1.915  -0.155  0.1894  0.3372  0.0657
   11MOL0     C 1403   9.014   1.956   0.054 -0.9859 -0.0613  0.0040
   11MOL0     C 1404   9.116   1.868   0.056  0.2988 -0.3772  0.6118
   11MOL0     C 1405   9.553   1.715   0.028  0.1564  0.9551  0.6113
   11MOL0     C 1406   9.557   1.641  -0.096  0.0086  0.6052 -0.1244
   11MOL0     C 1407   9.658   1.557  -0.117 -0.2961  0.0899 -0.1738
   11MOL0     C 1408   9.768   1.542  -0.028  0.3281 -0.1138  0.7339
   11MOL0     O 1409   9.867   1.456  -0.070  0.0435  0.0915  0.5645
   11MOL0     C 1410   9.992   1.440  -0.007  0.0232  0.4158 -0.1200
   11MOL0     C 1411  10.098   1.380  -0.091 -0.3178  0.4391  0.6033
   11MOL0     C 1412  10.135   1.464  -0.215  0.5763 -0.0148 -0.3400
   11MOL0     C 1413  10.264   1.409  -0.278  0.2040  0.0685 -0.1568
   11MOL0     C 1414  10.394   1.462  -0.222  0.3246  0.0912 -0.2057
   11MOL0     C 1415  10.477   1.518  -0.159 -0.3069 -0.3442 -0.6438
   11MOL0     C 1416   9.762   1.610   0.093 -0.0301  0.1259  0.7811
   11MOL0     C 1417   9.652   1.698   0.123 -0.4489  0.7443  0.0215
   11MOL0     H 1418   9.327   2.005  -0.151  0.7310  0.5145  1.7856
   11MOL0     H 1419   9.150   2.204  -0.134 -0.6255  2.5535  3.2895
   11MOL0     H 1420   8.797   2.113   0.135  0.1834 -1.9279 -0.5895
   11MOL0     H 1421   8.771   2.264   0.064  0.0245  1.0288  0.6730
   11MOL0     H 1422   8.745   2.150  -0.172 -1.3656  0.3498 -0.8204
   11MOL0     H 1423   8.751   2.002  -0.087  0.2827 -0.6987  0.8704
   11MOL0     H 1424   8.536   2.059   0.054 -2.3711  0.5657  0.0117
   11MOL0     H 1425   8.524   2.210  -0.018 -0.1561 -0.3257  2.5259
   11MOL0     H 1426   8.509   2.097  -0.245  1.9893  0.7732  1.1400
   11MOL0     H 1427   8.499   1.933  -0.165  1.2504  0.6505  0.6047
   11MOL0     H 1428   8.293   2.144  -0.178 -2.6010  0.3271 -0.4444
   11MOL0     H 1429   8.278   1.978  -0.212  3.4909  0.0192 -1.0204
   11MOL0     H 1430   8.288   1.893   0.004 -1.4342 -1.0947  1.8214
   11MOL0     H 1431   8.323   2.049   0.071  0.1436  0.8178  0.4296
   11MOL0     H 1432   8.095   2.001   0.110  0.1312 -2.1497 -0.1509
   11MOL0     H 1433   8.091   2.129  -0.005 -0.2600 -0.9808  0.5412
   11MOL0     H 1434   8.055   1.840  -0.070  2.2101  0.0850  0.5882
   11MOL0     H 1435   8.056   1.963  -0.195  2.1298 -0.4564  0.6127
   11MOL0     H 1436   7.876   2.080   0.120 -2.5317  0.7009  0.9934
   11MOL0     H 1437   7.568   2.083   0.182 -0.1090  1.2984 -0.8531
   11MOL0     H 1438   7.474   2.025   0.041  1.9060  2.6111 -0.7412
   11MOL0     H 1439   7.466   1.884   0.258  0.3277 -0.3710  1.9371
   11MOL0     H 1440   7.624   1.818   0.200 -0.2640  1.7494  0.6038
   11MOL0     H 1441   7.488   1.753  -0.014 -0.1913  0.3384 -0.3196
   11MOL0     H 1442   7.345   1.769   0.092  0.7034 -0.5990  2.4026
   11MOL0     H 1443   7.371   1.599   0.209 -1.1781  0.4140 -0.6045
   11MOL0     H 1444   7.542   1.610   0.230  3.1006 -0.4901 -2.1639
   11MOL0     H 1445   7.456   1.383  -0.147  0.7133  1.7671 -4.0489
   11MOL0     H 1446   7.537   1.309  -0.388 -0.5035  2.0775  2.1524
   11MOL0     H 1447   7.710   1.334  -0.423 -0.9704  2.1102  0.7941
   11MOL0     H 1448   7.664   1.193  -0.325  0.7389 -0.3622  0.8208
   11MOL0     H 1449   8.155   1.286  -0.265  1.4157 -0.8124  1.2455
   11MOL0     H 1450   8.391   1.283  -0.309  0.7635  0.3014 -1.1405
   11MOL0     H 1451   8.634   1.319  -0.357  0.6273 -0.3006 -0.3104
   11MOL0     H 1452   8.535   1.343  -0.496 -1.3213  1.8323 -0.6615
   11MOL0     H 1453   8.708   1.486  -0.596 -1.4586 -4.3991 -2.2229
   11MOL0     H 1454   8.801   1.486  -0.443 -0.9511  1.6582 -0.8433
   11MOL0     H 1455   8.897   1.329  -0.607  0.0719  0.3788 -0.1467
   11MOL0     H 1456   8.735   1.269  -0.652 -2.6363  2.2786  0.9234
   11MOL0     H 1457   8.869   1.217  -0.377 -2.7420  2.2563  0.0665
   11MOL0     H 1458   8.743   1.131  -0.451  0.3706 -1.1938  0.6946
   11MOL0     H 1459   8.919   0.999  -0.460  0.1543  1.7153  2.8037
   11MOL0     H 1460   9.030   1.121  -0.528 -0.7014 -0.0998 -0.4227
   11MOL0     H 1461   8.794   1.012  -0.693 -0.2662 -1.1498  2.9779
   11MOL0     H 1462   8.918   1.136  -0.737  2.6281 -0.1130  0.6544
   11MOL0     H 1463   9.098   0.943  -0.692  0.7073  0.9222 -0.0558
   11MOL0     H 1464   9.009   0.969  -0.836  0.1162  2.8635  1.0156
   11MOL0     H 1465   9.017   0.735  -0.768 -0.7289 -2.5696  0.5002
   11MOL0     H 1466   8.845   0.793  -0.763  0.9998  1.2171  0.1596
   11MOL0     H 1467   8.410   1.714  -0.333  3.8387 -2.3996 -0.7627
   11MOL0     H 1468   8.163   1.727  -0.296  1.5733  1.2429 -0.2498
   11MOL0     H 1469   7.890   1.587  -0.056 -0.9158  1.8770 -1.1610
   11MOL0     H 1470   7.711   1.624   0.079 -2.4166  2.0927 -0.4968
   11MOL0     H 1471   8.928   1.929   0.114  0.1494  1.1903  2.3243
   11MOL0     H 1472   9.095   1.777   0.111 -2.8733  0.4443  0.9581
   11MOL0     H 1473   9.483   1.673  -0.169  1.8191  1.2031 -1.7828
   11MOL0     H 1474   9.664   1.499  -0.208  0.2278 -2.2785  1.2725
   11MOL0     H 1475  10.021   1.544   0.011 -2.3067  1.2187 -0.6082
   11MOL0     H 1476   9.982   1.390   0.090 -1.1095  0.6918 -0.0785
   11MOL0     H 1477  10.073   1.277  -0.121  0.2556  0.3297  0.4798
   11MOL0     H 1478  10.197   1.375  -0.045  1.8564  0.2687 -3.6188
   11MOL0     H 1479  10.137   1.573  -0.205 -1.2139  0.4525 -3.5303
   11MOL0     H 1480  10.059   1.461  -0.293  1.2949  2.9055 -1.2559
   11MOL0     H 1481  10.256   1.453  -0.378 -0.7364  2.4252  0.8798
   11MOL0     H 1482  10.268   1.299  -0.281 -2.5406 -0.1572  1.2172
   11MOL0     H 1483  10.551   1.569  -0.100  1.5972 -2.6174 -0.9144
   11MOL0     H 1484   9.825   1.582   0.177 -1.9312  1.8798  2.9334
   11MOL0     H 1485   9.658   1.745   0.221  0.3518  2.0971 -0.6506
   12MOL0     O 1486   2.497  10.103   1.183 -0.0761  0.8576  0.4252
   12MOL0     C 1487   2.543  10.148   1.288 -0.1239 -0.7689 -0.8114
   12MOL0     O 1488   2.499  10.269   1.346  0.4834 -0.5916  0.3669
   12MOL0     C 1489   2.382  10.327   1.303 -0.5468  0.2134 -0.7142
   12MOL0     C 1490   2.382  10.466   1.311  0.2176  0.2585  0.1191
   12MOL0     C 1491   2.274  10.545   1.256  0.2094  0.5210 -0.4911
   12MOL0     C 1492   2.171  10.479   1.199  0.1541  0.2249  0.3170
   12MOL0     O 1493   2.064  10.542   1.139  0.1116 -0.2298  0.0906
   12MOL0     C 1494   2.097  10.647   1.048  0.3205 -0.4653  0.5022
   12MOL0     C 1495   2.142  10.597   0.907  0.4332  0.7810  0.3335
   12MOL0     C 1496   2.036  10.593   0.804  0.4685 -0.0950  0.1968
   12MOL0     C 1497   1.897  10.535   0.845 -0.9867  0.5368  0.1298
   12MOL0     C 1498   1.804  10.498   0.729 -0.0227 -0.5123  0.3073
   12MOL0     C 1499   1.668  10.454   0.784  0.2860  0.1008 -0.4940
   12MOL0     C 1500   1.570  10.385   0.688 -0.4349 -0.3153 -0.4905
   12MOL0     C 1501   1.526  10.483   0.571  0.4678  1.1917  0.7550
   12MOL0     N 1502   1.452  10.595   0.628  1.2340 -0.5332  0.6468
   12MOL0     C 1503   1.315  10.600   0.633 -0.1800 -0.3962 -0.9875
   12MOL0     C 1504   1.286  10.739   0.648  0.3334  0.2836  0.1234
   12MOL0     C 1505   1.155  10.802   0.634 -0.4755 -0.0386  0.4227
   12MOL0     C 1506   1.029  10.709   0.634 -0.1469  0.1074 -0.0406
   12MOL0     C 1507   0.910  10.793   0.602  0.1573  0.0576 -0.3927
   12MOL0     C 1508   0.770  10.729   0.616 -0.4315  0.3021  0.3224
   12MOL0     O 1509   0.774  10.657   0.746 -0.1185 -0.5962  0.1502
   12MOL0     C 1510   0.653  10.603   0.781  0.4978 -0.6262 -0.1363
   12MOL0     C 1511   0.590  10.497   0.719  0.7307  0.4249 -0.1461
   12MOL0     C 1512   0.476  10.436   0.777 -0.8230 -0.1197  0.8123
   12MOL0     C 1513   0.426  10.306   0.711 -0.4903 -0.4950 -0.2251
   12MOL0     C 1514   0.402  10.504   0.879 -0.6685 -0.8180 -0.0718
   12MOL0     C 1515   0.266  10.464   0.918  0.5451 -1.6952 -0.1609
   12MOL0     O 1516   0.227  10.512   1.045 -1.5219 -0.0679  0.2856
   12MOL0     C 1517   0.111  10.462   1.102  0.0073 -0.7185  0.2801
   12MOL0     C 1518   0.027  10.548   1.181 -0.5308  0.6925 -0.1874
   12MOL0     C 1519  -0.091  10.494   1.241 -0.0162 -0.4879  0.2811
   12MOL0     C 1520  -0.126  10.355   1.225  1.0899  0.6145  1.0024
   12MOL0     O 1521  -0.246  10.311   1.282 -0.0377 -0.3060  0.6822
   12MOL0     C 1522  -0.302  10.186   1.244 -1.1899 -1.3645  0.2178
   12MOL0     C 1523  -0.448  10.173   1.282 -0.6225 -0.6063  0.2577
   12MOL0     C 1524  -0.531  10.098   1.186 -0.5783  0.1582  0.5984
   12MOL0     C 1525  -0.669  10.066   1.246  0.2283 -0.2363  0.2148
   12MOL0     C 1526  -0.752   9.959   1.163  0.2069 -0.1606  0.9518
   12MOL0     C 1527  -0.833  10.010   1.047 -0.1035  0.2192 -0.4195
   12MOL0     C 1528  -0.886   9.917   0.936  0.4783  0.5376 -0.8873
   12MOL0     C 1529  -0.999   9.826   0.986  0.6065  0.6266  0.5118
   12MOL0    Cl 1530  -1.158   9.920   1.014 -0.2186  0.2645 -0.1436
   12MOL0     C 1531  -0.042  10.273   1.151 -0.1548  0.6123 -0.3230
   12MOL0     C 1532   0.078  10.323   1.091  0.1888  0.3728  0.2433
   12MOL0     O 1533   0.195  10.408   0.836  0.2744  0.5096 -0.6078
   12MOL0     C 1534   0.469  10.611   0.940 -0.9385  0.1939  0.2086
   12MOL0     C 1535   0.598  10.654   0.898 -0.0851  0.7036 -0.1765
   12MOL0     N 1536   1.409  10.802   0.662  0.4815 -0.2316 -0.6716
   12MOL0     N 1537   1.506  10.722   0.653 -0.7291 -0.1822  0.1874
   12MOL0     C 1538   2.167  10.341   1.207  0.3074  0.0613  0.0099
   12MOL0     C 1539   2.271  10.261   1.259 -0.3375 -0.5062  0.4795
   12MOL0     C 1540   2.645  10.068   1.356 -0.0837 -0.1968 -0.6822
   12MOL0     C 1541   2.645   9.936   1.354 -1.0893  0.8552 -0.0198
   12MOL0     C 1542   2.752   9.854   1.401 -0.4646 -0.7270 -0.6683
   12MOL0     C 1543   2.863   9.922   1.455  0.4300 -0.8722  0.8685
   12MOL0     O 1544   2.976   9.855   1.504  0.2020  0.0700  0.5509
   12MOL0     C 1545   3.105   9.914   1.500 -0.0424  0.0742 -0.6531
   12MOL0     C 1546   3.198   9.795   1.521  0.5499 -0.0538  0.4357
   12MOL0     C 1547   3.342   9.841   1.552 -0.4315  0.7224 -0.6715
   12MOL0     C 1548   3.432   9.718   1.554 -0.1056 -0.5810  0.5292
   12MOL0     C 1549   3.424   9.629   1.437  0.7079 -0.0360 -0.7582
   12MOL0     C 1550   3.413   9.547   1.353  0.1166 -0.6588  0.1463
   12MOL0     C 1551   2.859  10.066   1.468 -0.2495  0.3077 -0.7168
   12MOL0     C 1552   2.757  10.136   1.415  0.7149 -0.0698 -0.5553
   12MOL0     H 1553   2.464  10.523   1.354  0.7287  0.2361 -0.7877
   12MOL0     H 1554   2.277  10.652   1.269 -0.3440  0.6124 -1.0636
   12MOL0     H 1555   2.016  10.720   1.045  2.4246  2.1373  2.1354
   12MOL0     H 1556   2.182  10.710   1.077  1.4357 -0.8136 -1.8032
   12MOL0     H 1557   2.217  10.665   0.865  1.9977 -0.5464  0.8956
   12MOL0     H 1558   2.186  10.497   0.906 -0.2704  0.4199 -2.3765
   12MOL0     H 1559   2.020  10.696   0.771 -0.8881 -0.7153 -1.2188
   12MOL0     H 1560   2.082  10.531   0.727 -1.3789  0.1326 -1.1487
   12MOL0     H 1561   1.926  10.457   0.916 -0.1402  2.2278  1.7311
   12MOL0     H 1562   1.849  10.617   0.900  1.0069  0.6456  1.8351
   12MOL0     H 1563   1.792  10.585   0.664  1.4865 -0.5572 -0.0678
   12MOL0     H 1564   1.850  10.416   0.673 -0.9621  0.2188 -1.6254
   12MOL0     H 1565   1.691  10.394   0.873 -1.4269  0.9307  0.5540
   12MOL0     H 1566   1.625  10.549   0.816  0.0618  0.5207 -1.9413
   12MOL0     H 1567   1.623  10.299   0.648  0.9043  0.1156  0.2722
   12MOL0     H 1568   1.479  10.350   0.737 -2.5678 -1.2329 -4.6975
   12MOL0     H 1569   1.454  10.432   0.507  2.4370  0.0678 -0.6935
   12MOL0     H 1570   1.608  10.528   0.513 -0.5060  1.1385 -0.7054
   12MOL0     H 1571   1.233  10.529   0.621  0.3147 -0.7834 -2.1838
   12MOL0     H 1572   1.142  10.884   0.705  1.9881  1.0333 -0.2872
   12MOL0     H 1573   1.160  10.855   0.539 -0.7757 -1.4046 -0.3830
   12MOL0     H 1574   1.019  10.663   0.733 -0.0928 -0.4349 -0.2832
   12MOL0     H 1575   1.021  10.633   0.555  3.7900 -2.1306  1.4094
   12MOL0     H 1576   0.910  10.833   0.501  0.1470 -1.4066 -1.0017
   12MOL0     H 1577   0.906  10.868   0.682 -2.4390 -2.0367  1.6347
   12MOL0     H 1578   0.760  10.655   0.535  0.6321 -1.7430  1.9629
   12MOL0     H 1579   0.691  10.803   0.598 -0.6862 -0.4619 -2.0774
   12MOL0     H 1580   0.644  10.439   0.644 -0.9516  0.2133 -1.2468
   12MOL0     H 1581   0.392  10.249   0.799 -3.2925  0.8349 -0.3354
   12MOL0     H 1582   0.340  10.332   0.648 -0.7726  1.3103  0.8302
   12MOL0     H 1583   0.506  10.252   0.660 -1.3345 -2.2336  0.2125
   12MOL0     H 1584   0.065  10.649   1.189 -2.4355  1.4267  0.1139
   12MOL0     H 1585  -0.161  10.548   1.303  0.8230 -0.4777  1.2523
   12MOL0     H 1586  -0.299  10.175   1.135 -0.8768  0.0593  0.0638
   12MOL0     H 1587  -0.240  10.113   1.298  0.7105  0.2318  0.3221
   12MOL0     H 1588  -0.460  10.134   1.383  0.7790 -0.0344  0.6625
   12MOL0     H 1589  -0.478  10.278   1.287 -0.7979 -0.5224 -1.7300
   12MOL0     H 1590  -0.491  10.001   1.153 -0.2927  0.2370  0.7210
   12MOL0     H 1591  -0.550  10.157   1.096 -1.5121 -1.2196 -0.1640
   12MOL0     H 1592  -0.649  10.036   1.349 -0.3271  0.1171  0.4288
   12MOL0     H 1593  -0.729  10.156   1.263  0.1432 -0.3210  0.3634
   12MOL0     H 1594  -0.820   9.902   1.227 -1.5036 -1.1591 -1.5777
   12MOL0     H 1595  -0.683   9.883   1.126 -1.3495 -1.3891  0.4455
   12MOL0     H 1596  -0.908  10.072   1.097 -1.1700  0.0453 -1.7580
   12MOL0     H 1597  -0.759  10.078   1.003  0.4690 -0.7219 -0.9479
   12MOL0     H 1598  -0.796   9.864   0.905  1.6068 -0.3808  3.2370
   12MOL0     H 1599  -0.922   9.967   0.846  1.3612 -1.3083 -2.3311
   12MOL0     H 1600  -0.975   9.767   1.075  1.0934 -0.7678 -0.4956
   12MOL0     H 1601  -1.020   9.754   0.907 -0.4152  2.9969 -1.4926
   12MOL0     H 1602  -0.049  10.165   1.146  2.1819  0.2445  2.1808
   12MOL0     H 1603   0.138  10.255   1.033  4.6366  1.2161  3.3175
   12MOL0     H 1604   0.430  10.660   1.029  0.4830 -1.9330  2.1234
   12MOL0     H 1605   0.643  10.738   0.949  1.5462 -1.5274  2.3526
   12MOL0     H 1606   2.084  10.273   1.189  1.9973 -2.0743 -0.1819
   12MOL0     H 1607   2.263  10.154   1.243 -0.7227 -0.1741 -1.8633
   12MOL0     H 1608   2.563   9.887   1.304 -1.5700  1.5943  0.0367
   12MOL0     H 1609   2.745   9.746   1.402 -0.3811 -0.8443  3.4998
   12MOL0     H 1610   3.132   9.964   1.407 -1.5266  0.7153 -0.7703
   12MOL0     H 1611   3.118   9.982   1.584 -2.5613  0.4742 -0.5162
   12MOL0     H 1612   3.193   9.735   1.430 -1.9644  1.2312 -0.3482
   12MOL0     H 1613   3.168   9.741   1.612  2.2880  1.7459  2.2053
   12MOL0     H 1614   3.360   9.891   1.648  2.1341  0.0070 -0.6932
   12MOL0     H 1615   3.370   9.910   1.471 -3.0092  1.6236 -0.8970
   12MOL0     H 1616   3.404   9.662   1.644 -2.7737 -1.5745 -0.8196
   12MOL0     H 1617   3.534   9.754   1.570 -1.0035  1.9230  1.1604
   12MOL0     H 1618   3.423   9.469   1.280  1.8289  1.1074 -1.6400
   12MOL0     H 1619   2.951  10.115   1.495  1.9174 -2.2881 -2.7660
   12MOL0     H 1620   2.772  10.244   1.420  0.3761  0.0820 -2.2015
   13MOL0     O 1621  10.432   2.343   5.435 -0.8640 -0.0969  0.1127
   13MOL0     C 1622  10.520   2.417   5.391 -0.4984  0.3944  0.2149
   13MOL0     O 1623  10.496   2.548   5.349 -0.0510  0.7470 -0.2197
   13MOL0     C 1624  10.361   2.591   5.357  0.3033 -0.1886  0.5618
   13MOL0     C 1625  10.277   2.597   5.468  0.0278 -0.1235  0.7902
   13MOL0     C 1626  10.136   2.616   5.451 -0.2687  0.2073 -0.0349
   13MOL0     C 1627  10.078   2.623   5.318  0.6260  0.4759 -0.9779
   13MOL0     O 1628   9.948   2.644   5.291  0.3745 -0.0571 -0.0235
   13MOL0     C 1629   9.851   2.646   5.393 -0.4887  0.3560  0.5390
   13MOL0     C 1630   9.713   2.668   5.346 -0.5121 -0.4723  0.2327
   13MOL0     C 1631   9.607   2.647   5.460 -0.4432 -0.2791  0.1464
   13MOL0     C 1632   9.475   2.703   5.404  0.5719  0.3488  0.2192
   13MOL0     C 1633   9.366   2.696   5.522 -0.2745  0.9326  0.3950
   13MOL0     C 1634   9.233   2.749   5.470  0.8664  0.7389  1.0093
   13MOL0     C 1635   9.131   2.776   5.573  1.0601 -0.9445 -0.4798
   13MOL0     C 1636   9.112   2.665   5.672 -0.1475  1.1074 -0.6861
   13MOL0     N 1637   8.975   2.660   5.724 -0.1734 -0.3283 -0.0362
   13MOL0     C 1638   8.911   2.733   5.820  1.2659  0.6967  0.0257
   13MOL0     C 1639   8.790   2.670   5.827  0.0808 -0.6877  0.0055
   13MOL0     C 1640   8.682   2.719   5.925 -0.7129  1.0321  0.0671
   13MOL0     C 1641   8.560   2.628   5.915 -0.0556 -0.7446 -0.3289
   13MOL0     C 1642   8.463   2.633   6.034  0.7855  0.0490 -0.4709
   13MOL0     C 1643   8.347   2.539   6.014 -0.3902  0.0083  0.4193
   13MOL0     O 1644   8.281   2.528   6.138 -0.4891  0.2069  1.1185
   13MOL0     C 1645   8.154   2.479   6.138  1.1123 -0.1117  0.0479
   13MOL0     C 1646   8.079   2.515   6.253  0.2797 -0.2982  0.2599
   13MOL0     C 1647   7.943   2.476   6.274  0.0836  0.8795  0.8588
   13MOL0     C 1648   7.854   2.545   6.372 -0.0672  0.1087  0.3349
   13MOL0     C 1649   7.893   2.370   6.180  0.8498 -0.3063  0.3129
   13MOL0     C 1650   7.761   2.299   6.183  0.5487  0.1958 -0.3113
   13MOL0     O 1651   7.726   2.219   6.080  0.6272 -0.0490  0.1078
   13MOL0     C 1652   7.616   2.139   6.102 -0.2861  0.2422  0.7082
   13MOL0     C 1653   7.636   1.999   6.110 -0.0968  0.0790  0.0411
   13MOL0     C 1654   7.534   1.909   6.146  0.1351 -0.3386  0.0492
   13MOL0     C 1655   7.405   1.962   6.177 -0.6767 -1.0462 -0.8556
   13MOL0     O 1656   7.294   1.885   6.221  0.5031 -0.0640 -0.0920
   13MOL0     C 1657   7.300   1.745   6.230  0.3724 -0.7949  0.0217
   13MOL0     C 1658   7.164   1.693   6.300 -0.0458  0.6319  0.0402
   13MOL0     C 1659   7.037   1.720   6.224  0.0202 -0.2219 -0.3524
   13MOL0     C 1660   6.927   1.661   6.314 -0.6595 -0.1729  0.5988
   13MOL0     C 1661   6.782   1.673   6.279  0.3321 -0.5272  0.9042
   13MOL0     C 1662   6.723   1.811   6.311  0.0245  0.7655 -0.6055
   13MOL0     C 1663   6.572   1.809   6.334 -0.3273 -0.7646 -0.7049
   13MOL0     C 1664   6.509   1.945   6.315 -0.1520  0.1081  0.6842
   13MOL0    Cl 1665   6.589   2.071   6.421 -0.0937 -0.3250 -0.0137
   13MOL0     C 1666   7.387   2.099   6.166  0.8875 -0.4579 -1.2173
   13MOL0     C 1667   7.493   2.187   6.136  1.0111  0.0119 -0.0772
   13MOL0     O 1668   7.699   2.309   6.286  0.4079 -0.3228 -0.3994
   13MOL0     C 1669   7.967   2.343   6.062  0.7854  0.3932  0.2075
   13MOL0     C 1670   8.096   2.393   6.046 -0.3778  0.4209  0.5924
   13MOL0     N 1671   8.785   2.567   5.733 -0.0551  0.3050  0.0371
   13MOL0     N 1672   8.892   2.569   5.662  0.1211  0.0796  0.0800
   13MOL0     C 1673  10.166   2.627   5.210 -0.0272 -0.6910  0.1239
   13MOL0     C 1674  10.305   2.616   5.229 -0.2134 -0.4229  0.3296
   13MOL0     C 1675  10.655   2.364   5.395  0.3570 -0.2178  0.3603
   13MOL0     C 1676  10.681   2.239   5.455 -0.0385 -0.6530 -0.1532
   13MOL0     C 1677  10.815   2.194   5.471 -0.5040 -0.2347  0.4668
   13MOL0     C 1678  10.911   2.267   5.404 -0.5023 -0.7118 -0.8414
   13MOL0     O 1679  11.041   2.232   5.407  0.2207  0.8924  0.1525
   13MOL0     C 1680  11.096   2.167   5.524  0.0106 -0.3927 -0.0500
   13MOL0     C 1681  11.244   2.203   5.541  0.4551  0.1726 -0.5972
   13MOL0     C 1682  11.327   2.159   5.416  0.3391  0.1821  0.1448
   13MOL0     C 1683  11.478   2.168   5.444 -0.8282  0.6560  0.1708
   13MOL0     C 1684  11.551   2.104   5.336 -0.9292 -0.3450  0.2125
   13MOL0     C 1685  11.594   2.061   5.226 -0.0412  0.1772 -0.5551
   13MOL0     C 1686  10.881   2.380   5.330 -0.1088 -0.8173 -0.2921
   13MOL0     C 1687  10.756   2.442   5.332 -0.2650  0.2129  0.1285
   13MOL0     H 1688  10.308   2.569   5.568 -2.4416 -1.5742  1.2463
   13MOL0     H 1689  10.071   2.607   5.537  1.7753 -3.2855  1.3258
   13MOL0     H 1690   9.845   2.551   5.447  1.9447 -1.6635 -2.3684
   13MOL0     H 1691   9.864   2.734   5.457 -3.3768 -0.0712  1.8693
   13MOL0     H 1692   9.713   2.769   5.303 -0.8838 -1.4042 -2.1045
   13MOL0     H 1693   9.686   2.602   5.264 -2.7677  1.1037 -0.3781
   13MOL0     H 1694   9.590   2.541   5.479  0.0906  0.0023  2.5366
   13MOL0     H 1695   9.632   2.712   5.544  0.0657  0.8228 -0.8241
   13MOL0     H 1696   9.488   2.811   5.392 -1.3559  0.5081 -0.8339
   13MOL0     H 1697   9.439   2.653   5.314  1.5282  0.7479 -0.3935
   13MOL0     H 1698   9.357   2.595   5.562 -0.1730  0.5641 -0.5093
   13MOL0     H 1699   9.417   2.752   5.601  2.4965 -1.8023  0.7528
   13MOL0     H 1700   9.243   2.839   5.408  0.3477 -0.7902 -1.4351
   13MOL0     H 1701   9.195   2.673   5.401 -0.9676  0.2650  2.4333
   13MOL0     H 1702   9.156   2.871   5.622 -1.0157 -1.6891  2.2426
   13MOL0     H 1703   9.042   2.798   5.512  1.0422 -1.0199 -0.4794
   13MOL0     H 1704   9.186   2.671   5.751 -1.5141 -0.2850  0.7831
   13MOL0     H 1705   9.135   2.571   5.621  1.9655  1.7393 -0.9708
   13MOL0     H 1706   8.930   2.812   5.892 -0.8443 -0.7674  2.3573
   13MOL0     H 1707   8.726   2.721   6.025  0.5358  1.5526 -0.4750
   13MOL0     H 1708   8.663   2.817   5.878  0.1973  0.7988 -0.8218
   13MOL0     H 1709   8.599   2.526   5.922 -2.0055 -1.6212  7.6640
   13MOL0     H 1710   8.503   2.658   5.827 -0.1011 -0.8065 -0.3205
   13MOL0     H 1711   8.443   2.740   6.047  1.0342 -0.1499  2.0817
   13MOL0     H 1712   8.511   2.608   6.129  1.7069  1.9705 -0.3806
   13MOL0     H 1713   8.386   2.445   5.973 -3.1295 -0.5714 -1.0867
   13MOL0     H 1714   8.291   2.579   5.929  0.7920 -2.2369 -1.5331
   13MOL0     H 1715   8.123   2.589   6.318 -0.8620  0.6100  0.0342
   13MOL0     H 1716   7.811   2.469   6.438  2.5441 -2.5165 -0.7331
   13MOL0     H 1717   7.916   2.614   6.430  1.9444 -0.8903 -0.5093
   13MOL0     H 1718   7.781   2.614   6.329 -0.8827 -0.6297  0.5159
   13MOL0     H 1719   7.736   1.961   6.095  2.3142  2.6084  6.2129
   13MOL0     H 1720   7.539   1.801   6.146  2.5198 -0.3188 -2.4623
   13MOL0     H 1721   7.292   1.693   6.134 -1.9227 -2.0956  0.8334
   13MOL0     H 1722   7.385   1.709   6.289 -1.3749 -3.2183  1.1918
   13MOL0     H 1723   7.176   1.585   6.301 -3.2718  0.1491  2.2788
   13MOL0     H 1724   7.162   1.722   6.405  2.3466 -1.6133  0.7974
   13MOL0     H 1725   7.040   1.677   6.123 -1.2401  1.6085 -1.2249
   13MOL0     H 1726   7.011   1.826   6.221 -1.8707 -0.6789 -2.3663
   13MOL0     H 1727   6.950   1.555   6.329  1.3788  0.2459  0.7189
   13MOL0     H 1728   6.941   1.706   6.412 -0.6594 -1.4878  1.2249
   13MOL0     H 1729   6.734   1.591   6.334 -0.7139 -0.5834 -0.0745
   13MOL0     H 1730   6.757   1.649   6.175  0.5710 -0.0641  0.7391
   13MOL0     H 1731   6.782   1.853   6.392  0.3795  2.0269 -1.4854
   13MOL0     H 1732   6.747   1.866   6.219  0.3143  1.3174 -0.2023
   13MOL0     H 1733   6.559   1.780   6.439 -0.0238 -1.9819 -0.9829
   13MOL0     H 1734   6.529   1.735   6.267  1.2724 -0.2868 -2.3401
   13MOL0     H 1735   6.400   1.945   6.321 -0.3186 -2.2498 -0.8395
   13MOL0     H 1736   6.518   1.971   6.209  2.2295 -1.1245  0.4986
   13MOL0     H 1737   7.294   2.144   6.200  0.5674 -2.0997  0.2304
   13MOL0     H 1738   7.470   2.292   6.148 -0.9298 -0.4775  1.0340
   13MOL0     H 1739   7.925   2.272   5.992  0.4320 -0.8205  1.6101
   13MOL0     H 1740   8.162   2.363   5.964 -0.4091 -1.5478  1.2385
   13MOL0     H 1741  10.135   2.648   5.108  0.1115 -1.6691 -0.1311
   13MOL0     H 1742  10.378   2.600   5.150 -1.0084 -4.1458  0.1349
   13MOL0     H 1743  10.604   2.189   5.513 -0.2282 -0.5991 -0.3529
   13MOL0     H 1744  10.842   2.105   5.529 -1.1420 -1.2158 -0.6933
   13MOL0     H 1745  11.045   2.198   5.616  0.0647 -0.8514  0.1361
   13MOL0     H 1746  11.080   2.059   5.530 -2.6990 -0.0221  1.1236
   13MOL0     H 1747  11.277   2.154   5.633  0.8965 -1.7985 -1.7356
   13MOL0     H 1748  11.254   2.310   5.558 -0.2599  0.3927 -1.5106
   13MOL0     H 1749  11.296   2.226   5.335  0.7295  1.2295  0.8344
   13MOL0     H 1750  11.304   2.057   5.383  0.3877  0.1185  0.3083
   13MOL0     H 1751  11.506   2.115   5.536 -0.9587 -1.2783 -0.8519
   13MOL0     H 1752  11.512   2.272   5.451  0.9019  0.0594  1.1258
   13MOL0     H 1753  11.622   2.028   5.128 -0.1171 -1.0112 -0.1917
   13MOL0     H 1754  10.958   2.434   5.274 -1.1800  0.2164 -0.8139
   13MOL0     H 1755  10.723   2.524   5.269 -0.6158 -1.9514 -2.7680
   14MOL0     O 1756   1.303   5.921   4.208 -0.4385  0.3029 -0.8863
   14MOL0     C 1757   1.330   6.033   4.255  1.0688  0.1996 -0.0643
   14MOL0     O 1758   1.237   6.109   4.321  0.8033  0.0804 -0.0903
   14MOL0     C 1759   1.132   6.070   4.390  0.2726 -0.2216 -0.1232
   14MOL0     C 1760   1.043   5.970   4.360 -0.1261  0.1661 -0.1049
   14MOL0     C 1761   0.934   5.948   4.451 -0.2363  0.2002  0.6566
   14MOL0     C 1762   0.926   6.027   4.577  1.0477 -0.1853 -0.0650
   14MOL0     O 1763   0.808   6.008   4.643 -0.3744  0.0935  0.1737
   14MOL0     C 1764   0.834   5.991   4.785  0.1620 -0.7880  0.4548
   14MOL0     C 1765   0.842   5.842   4.816 -0.4051  0.4830  0.4546
   14MOL0     C 1766   0.718   5.761   4.780  0.0298  0.0666 -1.3491
   14MOL0     C 1767   0.743   5.613   4.753  0.0796  0.3821 -0.4206
   14MOL0     C 1768   0.758   5.595   4.600 -1.3582  0.6041  0.4403
   14MOL0     C 1769   0.820   5.456   4.567  0.2651 -0.0544  0.4880
   14MOL0     C 1770   0.718   5.342   4.581  0.4551  0.1826 -0.3414
   14MOL0     C 1771   0.789   5.204   4.600  0.6716  0.1070 -0.2956
   14MOL0     N 1772   0.849   5.148   4.479 -0.8703  0.2695 -0.5367
   14MOL0     C 1773   0.783   5.108   4.366  0.2675 -0.7091  0.6995
   14MOL0     C 1774   0.873   5.038   4.287 -0.3706 -0.3587 -0.1536
   14MOL0     C 1775   0.839   4.956   4.167 -0.3548 -0.3316 -0.1363
   14MOL0     C 1776   0.850   5.048   4.044 -0.1100  0.6229 -0.1319
   14MOL0     C 1777   0.974   5.132   4.032  0.2679 -0.2708 -0.1546
   14MOL0     C 1778   1.098   5.049   4.029 -0.0523  0.8609  0.3280
   14MOL0     O 1779   1.093   4.961   3.925  0.3235 -0.0618 -0.1700
   14MOL0     C 1780   1.193   4.872   3.888 -0.1063 -0.2476  0.2629
   14MOL0     C 1781   1.329   4.895   3.907 -0.5328 -0.8808  0.1425
   14MOL0     C 1782   1.425   4.794   3.882 -0.2714  0.4380 -0.6337
   14MOL0     C 1783   1.580   4.817   3.891 -0.2545  0.0976  0.1831
   14MOL0     C 1784   1.368   4.671   3.819 -0.6265  0.1182 -0.7390
   14MOL0     C 1785   1.462   4.581   3.746 -0.4474 -0.5070  0.0613
   14MOL0     O 1786   1.522   4.632   3.635  0.8794  0.8723  0.2006
   14MOL0     C 1787   1.619   4.551   3.577  0.1121  0.1319  0.3533
   14MOL0     C 1788   1.753   4.578   3.593  0.5359  0.6885  0.6661
   14MOL0     C 1789   1.851   4.486   3.551 -0.1405  0.7210 -0.1710
   14MOL0     C 1790   1.812   4.368   3.492  0.6110 -0.0391  0.4731
   14MOL0     O 1791   1.910   4.283   3.456  0.5731  0.0951 -0.0320
   14MOL0     C 1792   1.889   4.149   3.392  0.0136  0.6635 -0.8272
   14MOL0     C 1793   1.838   4.134   3.247  0.7662 -0.4261 -0.9194
   14MOL0     C 1794   1.950   4.152   3.144 -0.5921  0.3183 -0.3484
   14MOL0     C 1795   2.064   4.050   3.139 -0.0331  0.4666 -0.1254
   14MOL0     C 1796   2.124   4.062   2.998  0.2656  0.3660  0.7100
   14MOL0     C 1797   2.239   3.969   2.967 -0.4683  0.5982 -0.0370
   14MOL0     C 1798   2.212   3.826   3.002 -0.2983  0.7759  0.0462
   14MOL0     C 1799   2.333   3.744   2.982 -0.0336  0.5422 -1.1051
   14MOL0    Cl 1800   2.399   3.721   2.818  0.0901 -0.3680 -0.3734
   14MOL0     C 1801   1.675   4.334   3.478  0.1024  0.0752  1.3957
   14MOL0     C 1802   1.579   4.428   3.517 -0.0146  0.1332  0.3932
   14MOL0     O 1803   1.493   4.474   3.798 -0.0421  0.2873  0.0401
   14MOL0     C 1804   1.237   4.650   3.795  0.6956 -0.2366  0.1358
   14MOL0     C 1805   1.150   4.751   3.831  0.2098 -0.4380  0.4138
   14MOL0     N 1806   0.995   5.051   4.352 -0.7024 -0.1290  0.3946
   14MOL0     N 1807   0.981   5.106   4.466  0.2463  0.6740 -0.2428
   14MOL0     C 1808   1.014   6.134   4.604  0.4972  0.4723  0.2769
   14MOL0     C 1809   1.113   6.151   4.502 -0.1030 -0.7101 -0.6700
   14MOL0     C 1810   1.470   6.078   4.247  0.5527 -0.2074  0.4499
   14MOL0     C 1811   1.571   6.000   4.194 -0.4214 -0.4410  0.2996
   14MOL0     C 1812   1.705   6.031   4.212 -0.3290 -0.4966  0.0055
   14MOL0     C 1813   1.748   6.159   4.257  0.5141  0.4594  0.5377
   14MOL0     O 1814   1.868   6.202   4.291 -0.1879 -0.5813 -0.0550
   14MOL0     C 1815   1.985   6.135   4.249 -0.4588  0.6146 -0.1455
   14MOL0     C 1816   2.104   6.225   4.243 -0.1158  0.7926  0.1225
   14MOL0     C 1817   2.224   6.160   4.286 -0.0143 -0.0149 -0.3038
   14MOL0     C 1818   2.347   6.186   4.203 -0.4140  0.0557  0.0377
   14MOL0     C 1819   2.367   6.330   4.180  0.2086  0.6312 -1.1021
   14MOL0     C 1820   2.392   6.451   4.169 -0.0931 -0.0263  0.5867
   14MOL0     C 1821   1.640   6.245   4.299  0.6694 -0.2870 -1.0353
   14MOL0     C 1822   1.508   6.198   4.302 -0.3513 -0.0904  0.0441
   14MOL0     H 1823   1.048   5.898   4.279  1.0735 -2.9757  2.5388
   14MOL0     H 1824   0.856   5.875   4.434  1.0328 -0.6221 -2.2256
   14MOL0     H 1825   0.920   6.052   4.814  1.0483 -1.1555 -1.2480
   14MOL0     H 1826   0.740   6.032   4.822  0.6485  2.0520 -1.1910
   14MOL0     H 1827   0.925   5.803   4.756  2.4028  2.0946  2.9846
   14MOL0     H 1828   0.856   5.826   4.924 -1.7776 -1.8794  0.3260
   14MOL0     H 1829   0.651   5.772   4.865  0.2896  0.1000 -1.1466
   14MOL0     H 1830   0.665   5.806   4.695 -0.9618  2.1986  0.3238
   14MOL0     H 1831   0.835   5.580   4.803  0.7407  2.0986 -0.4510
   14MOL0     H 1832   0.652   5.559   4.781 -0.1845  2.5892  3.7891
   14MOL0     H 1833   0.667   5.608   4.540 -0.2400  0.6032 -1.3442
   14MOL0     H 1834   0.827   5.672   4.562  0.6736 -0.9423  0.8175
   14MOL0     H 1835   0.842   5.475   4.462 -0.7263 -3.7337 -0.5494
   14MOL0     H 1836   0.915   5.433   4.617  0.7847  1.2976  0.1608
   14MOL0     H 1837   0.646   5.361   4.661  0.1511  0.3904 -0.6610
   14MOL0     H 1838   0.659   5.334   4.489  2.2212  0.3839 -1.5463
   14MOL0     H 1839   0.723   5.133   4.651  3.0382 -0.7856  1.7312
   14MOL0     H 1840   0.867   5.211   4.676  0.8587  1.4509 -0.5781
   14MOL0     H 1841   0.676   5.115   4.353  0.2283 -1.4128  0.6209
   14MOL0     H 1842   0.914   4.877   4.158  0.5335  0.7567 -4.2148
   14MOL0     H 1843   0.732   4.935   4.176 -0.8778  0.7537 -2.7545
   14MOL0     H 1844   0.761   5.112   4.036 -0.7784 -0.3894 -1.1290
   14MOL0     H 1845   0.833   4.981   3.959  2.1830  0.0425 -0.1822
   14MOL0     H 1846   0.978   5.201   4.117  0.5261 -0.1142 -0.2940
   14MOL0     H 1847   0.973   5.191   3.940  1.9092  0.8892  0.5118
   14MOL0     H 1848   1.123   5.000   4.123  3.0522  0.6549 -0.4952
   14MOL0     H 1849   1.185   5.113   4.010 -0.7823  2.2389  1.4345
   14MOL0     H 1850   1.370   4.993   3.927  2.6822 -1.5686 -2.3579
   14MOL0     H 1851   1.617   4.880   3.809  0.4889 -1.3299 -0.6095
   14MOL0     H 1852   1.610   4.860   3.987 -1.7649  1.0704  0.2640
   14MOL0     H 1853   1.629   4.721   3.875 -1.2071 -0.1809 -1.3287
   14MOL0     H 1854   1.790   4.666   3.644  0.5046  1.3662 -0.4481
   14MOL0     H 1855   1.956   4.506   3.567 -0.4686  1.6289  1.0480
   14MOL0     H 1856   1.989   4.106   3.403 -0.3612 -0.3445 -1.2755
   14MOL0     H 1857   1.819   4.099   3.461 -0.7238  1.1967 -1.1742
   14MOL0     H 1858   1.794   4.036   3.223  1.3283 -0.4163 -2.0784
   14MOL0     H 1859   1.765   4.215   3.234  0.7957 -0.1811  0.3842
   14MOL0     H 1860   1.986   4.255   3.151  3.8189 -0.9097 -1.7615
   14MOL0     H 1861   1.910   4.150   3.042  0.7395 -0.9977 -0.8794
   14MOL0     H 1862   2.142   4.060   3.214 -1.7367 -1.2608  2.0072
   14MOL0     H 1863   2.021   3.950   3.145  0.4446  0.1976 -1.0161
   14MOL0     H 1864   2.147   4.167   2.975 -2.8958  1.4126  1.7527
   14MOL0     H 1865   2.042   4.032   2.932  1.2983  0.8519 -0.8497
   14MOL0     H 1866   2.262   3.977   2.860  0.8284 -0.6123  0.1185
   14MOL0     H 1867   2.323   4.018   3.018  3.1194 -1.8823 -2.9807
   14MOL0     H 1868   2.130   3.786   2.941  0.5264  0.3061 -0.7777
   14MOL0     H 1869   2.197   3.820   3.110 -0.0565 -1.0786  0.0031
   14MOL0     H 1870   2.304   3.646   3.022 -0.0024 -0.1603 -2.7194
   14MOL0     H 1871   2.407   3.782   3.053  0.2933 -0.2321 -1.0188
   14MOL0     H 1872   1.649   4.241   3.429 -0.1642  0.0828  1.5219
   14MOL0     H 1873   1.475   4.414   3.490 -0.0069  2.2691 -0.9966
   14MOL0     H 1874   1.207   4.566   3.733  2.4624 -0.2112 -0.8358
   14MOL0     H 1875   1.045   4.738   3.806  0.1743 -0.4039  0.5440
   14MOL0     H 1876   1.008   6.204   4.687 -2.9961  1.6800 -0.8293
   14MOL0     H 1877   1.186   6.231   4.517 -0.1176 -0.5485 -1.4429
   14MOL0     H 1878   1.550   5.908   4.140  0.9255 -0.5404 -0.1041
   14MOL0     H 1879   1.787   5.967   4.179  0.0808 -0.0036  0.0465
   14MOL0     H 1880   2.008   6.054   4.318 -0.4496  0.9831  0.2874
   14MOL0     H 1881   1.969   6.088   4.151  1.4455 -0.2846 -0.0817
   14MOL0     H 1882   2.088   6.312   4.308 -0.2904  1.4325 -0.7660
   14MOL0     H 1883   2.111   6.264   4.141  0.1045 -1.0636 -0.5965
   14MOL0     H 1884   2.217   6.051   4.290  2.7883 -0.2851  3.3598
   14MOL0     H 1885   2.237   6.192   4.390  1.3800  1.0326 -0.7647
   14MOL0     H 1886   2.340   6.144   4.103  1.5177 -2.5297  0.8880
   14MOL0     H 1887   2.426   6.143   4.265 -1.3563  1.1752  2.1629
   14MOL0     H 1888   2.426   6.551   4.152  0.6433 -0.2839  0.5160
   14MOL0     H 1889   1.658   6.346   4.333  4.5014 -1.6756  1.7743
   14MOL0     H 1890   1.431   6.270   4.324  0.4134  0.4681  1.0089
   15MOL0     O 1891   4.977   4.202   4.344 -0.8325 -0.1950 -0.4259
   15MOL0     C 1892   4.980   4.319   4.376  1.1147  0.8178  0.3219
   15MOL0     O 1893   4.886   4.409   4.358  0.9323  0.2185 -0.2024
   15MOL0     C 1894   4.776   4.395   4.273 -1.0176  0.7095  0.1917
   15MOL0     C 1895   4.742   4.289   4.182 -0.1444 -0.0953  0.5460
   15MOL0     C 1896   4.620   4.303   4.111  0.4316  0.1635  0.0815
   15MOL0     C 1897   4.531   4.410   4.124 -0.0053 -0.6602 -0.4902
   15MOL0     O 1898   4.407   4.433   4.067 -0.1672 -0.7364 -0.4002
   15MOL0     C 1899   4.340   4.329   3.994 -0.1643 -0.0955  0.0984
   15MOL0     C 1900   4.195   4.363   3.950 -0.4876 -0.1150 -0.6757
   15MOL0     C 1901   4.112   4.254   3.886 -0.5326  0.2102 -0.0830
   15MOL0     C 1902   3.969   4.298   3.873  1.0945 -1.1654 -0.4800
   15MOL0     C 1903   3.884   4.181   3.841 -1.0669  0.1586 -0.8380
   15MOL0     C 1904   3.883   4.157   3.683  0.4889 -0.0611 -0.6087
   15MOL0     C 1905   3.758   4.091   3.629  0.5461 -0.5037 -0.0847
   15MOL0     C 1906   3.752   4.080   3.475 -0.0829 -0.7170  0.2330
   15MOL0     N 1907   3.628   4.014   3.436  0.8262  0.1805 -0.1736
   15MOL0     C 1908   3.619   3.881   3.418 -0.3525 -0.7059  0.3018
   15MOL0     C 1909   3.486   3.864   3.394  1.0404  0.3747 -0.2427
   15MOL0     C 1910   3.430   3.716   3.374  0.2478  0.0625  1.7766
   15MOL0     C 1911   3.349   3.726   3.239 -0.1052 -0.3472 -0.0323
   15MOL0     C 1912   3.291   3.586   3.192  0.3541 -0.3505  0.2141
   15MOL0     C 1913   3.144   3.570   3.202 -0.0988  0.7539  0.7719
   15MOL0     O 1914   3.101   3.437   3.160  0.1876  0.0914 -0.2934
   15MOL0     C 1915   3.100   3.329   3.246  0.7163 -0.2419 -0.2099
   15MOL0     C 1916   3.129   3.333   3.381 -0.0905 -0.2489 -1.5614
   15MOL0     C 1917   3.107   3.225   3.464  0.4577  0.6100  0.7395
   15MOL0     C 1918   3.135   3.243   3.609  0.2008 -0.5848  0.0546
   15MOL0     C 1919   3.070   3.100   3.407  0.3160  0.6781  0.6521
   15MOL0     C 1920   3.071   2.977   3.480 -0.1935 -0.0243  0.0344
   15MOL0     O 1921   3.127   2.862   3.425  0.3187  1.2159 -0.1023
   15MOL0     C 1922   3.167   2.761   3.511  1.0498 -0.5179 -0.0109
   15MOL0     C 1923   3.068   2.678   3.565 -0.5275 -0.8142 -0.8232
   15MOL0     C 1924   3.114   2.570   3.646  0.4206  0.2771  0.2067
   15MOL0     C 1925   3.242   2.556   3.695  0.1881 -0.3888  1.0811
   15MOL0     O 1926   3.271   2.452   3.778 -0.6277 -0.1137 -0.2424
   15MOL0     C 1927   3.378   2.475   3.867  0.3918  0.7268 -0.1637
   15MOL0     C 1928   3.406   2.355   3.953 -0.4737  0.1992 -0.2569
   15MOL0     C 1929   3.284   2.303   4.027 -0.5870  1.1346 -0.2659
   15MOL0     C 1930   3.343   2.217   4.142 -1.1933  0.3620  0.4945
   15MOL0     C 1931   3.231   2.172   4.240 -0.0867 -0.0085 -0.5256
   15MOL0     C 1932   3.292   2.120   4.370  0.4532 -0.1574 -0.5471
   15MOL0     C 1933   3.326   2.243   4.462 -0.3472 -0.1162 -0.2551
   15MOL0     C 1934   3.338   2.191   4.608  0.0924 -0.8291  0.6093
   15MOL0    Cl 1935   3.482   2.077   4.629  0.1171  0.0621  0.3053
   15MOL0     C 1936   3.336   2.655   3.650  0.0877  0.2735  0.1829
   15MOL0     C 1937   3.302   2.742   3.549 -0.0233 -0.7548 -0.2353
   15MOL0     O 1938   3.012   2.980   3.593  0.2521  0.0308  0.3989
   15MOL0     C 1939   3.033   3.088   3.273 -0.2343 -0.5388  0.3496
   15MOL0     C 1940   3.057   3.204   3.194 -0.0254 -0.1995  0.3002
   15MOL0     N 1941   3.422   3.985   3.389  0.1716 -0.2358  0.0659
   15MOL0     N 1942   3.503   4.074   3.422 -0.1735 -0.6048  0.2379
   15MOL0     C 1943   4.570   4.514   4.218  0.1816 -0.3740  0.5352
   15MOL0     C 1944   4.693   4.506   4.283 -0.4980 -0.7589  0.2197
   15MOL0     C 1945   5.092   4.354   4.469 -0.0088  0.1203  0.6626
   15MOL0     C 1946   5.202   4.269   4.488  0.2498 -0.3260 -0.3326
   15MOL0     C 1947   5.302   4.303   4.578 -0.6761 -0.2267  0.0294
   15MOL0     C 1948   5.301   4.426   4.643 -0.8125  0.5351 -0.3756
   15MOL0     O 1949   5.389   4.457   4.749 -0.0175  0.5378  0.0596
   15MOL0     C 1950   5.456   4.347   4.817 -1.4138  0.2479 -0.6122
   15MOL0     C 1951   5.530   4.419   4.941  0.6207  0.1639  0.2796
   15MOL0     C 1952   5.667   4.437   4.892 -0.1598  0.1419  0.3222
   15MOL0     C 1953   5.730   4.544   4.984  0.2013  0.1407  0.1804
   15MOL0     C 1954   5.873   4.529   4.972  0.7375  1.4047 -0.7850
   15MOL0     C 1955   5.986   4.502   4.973 -0.8432  0.4893 -0.0302
   15MOL0     C 1956   5.219   4.524   4.596 -0.2323  0.9203 -1.7693
   15MOL0     C 1957   5.116   4.481   4.517  0.0647 -0.2449  0.0006
   15MOL0     H 1958   4.809   4.205   4.167 -2.3950 -2.4147  2.6365
   15MOL0     H 1959   4.574   4.221   4.056  0.2537  1.0492 -1.1137
   15MOL0     H 1960   4.398   4.307   3.904 -1.0099  0.1657 -0.5183
   15MOL0     H 1961   4.341   4.236   4.052  1.1541 -0.2071 -0.0599
   15MOL0     H 1962   4.148   4.382   4.047  2.4919 -3.2665  1.5988
   15MOL0     H 1963   4.184   4.446   3.879 -0.0630 -0.2472 -0.8997
   15MOL0     H 1964   4.163   4.234   3.791 -0.0704 -0.4396  0.2949
   15MOL0     H 1965   4.116   4.166   3.951  2.9971  0.7783  0.6523
   15MOL0     H 1966   3.945   4.324   3.976  3.5845 -1.1721  0.1755
   15MOL0     H 1967   3.947   4.384   3.811  0.9643 -0.6782  0.2294
   15MOL0     H 1968   3.920   4.095   3.898 -0.3101  0.3769 -0.9808
   15MOL0     H 1969   3.778   4.196   3.867 -1.5055 -2.9673 -0.4638
   15MOL0     H 1970   3.889   4.251   3.627  1.1578 -0.6794 -1.5958
   15MOL0     H 1971   3.972   4.098   3.661  0.8753 -0.0291  0.7584
   15MOL0     H 1972   3.754   3.990   3.669  1.2379 -0.0954  1.0487
   15MOL0     H 1973   3.668   4.148   3.653  0.7544  0.7879 -2.1127
   15MOL0     H 1974   3.837   4.019   3.442 -0.1416  0.1643 -1.7183
   15MOL0     H 1975   3.754   4.177   3.425 -3.2636 -1.4077 -1.5377
   15MOL0     H 1976   3.703   3.813   3.419 -1.0914 -1.6732 -0.4122
   15MOL0     H 1977   3.512   3.644   3.375  1.9781  1.4587 -3.7258
   15MOL0     H 1978   3.372   3.695   3.464 -0.7152  0.7976  1.3542
   15MOL0     H 1979   3.412   3.771   3.162 -1.3377  2.1786  0.3248
   15MOL0     H 1980   3.265   3.794   3.255  0.5102  0.9165 -1.8030
   15MOL0     H 1981   3.341   3.508   3.249 -1.1151 -0.2207  1.7520
   15MOL0     H 1982   3.320   3.575   3.087  0.5756 -0.2702  0.2666
   15MOL0     H 1983   3.093   3.637   3.132  2.4811  1.1702 -0.8347
   15MOL0     H 1984   3.108   3.598   3.301 -2.2932  2.0424 -0.3155
   15MOL0     H 1985   3.164   3.427   3.422 -0.8407  1.0441 -3.7462
   15MOL0     H 1986   3.049   3.220   3.672 -0.0493  2.9288  1.2201
   15MOL0     H 1987   3.217   3.175   3.635 -1.3858 -2.8765 -0.6624
   15MOL0     H 1988   3.154   3.349   3.630 -2.7432  0.3108 -1.3122
   15MOL0     H 1989   2.964   2.699   3.542  0.0112 -1.5549 -4.3979
   15MOL0     H 1990   3.039   2.501   3.683  1.4956 -0.3367  1.3045
   15MOL0     H 1991   3.469   2.488   3.807 -0.3176  2.8511 -0.8826
   15MOL0     H 1992   3.346   2.560   3.928 -2.7690 -0.6768  0.3528
   15MOL0     H 1993   3.438   2.280   3.881  0.9911  0.1091  0.4458
   15MOL0     H 1994   3.486   2.369   4.026 -1.6097 -0.3674  1.1638
   15MOL0     H 1995   3.215   2.241   3.969 -0.1961  1.0042 -0.5988
   15MOL0     H 1996   3.235   2.386   4.079  1.7316  2.5995 -0.2392
   15MOL0     H 1997   3.380   2.120   4.107 -0.8515 -0.2536  2.4375
   15MOL0     H 1998   3.417   2.270   4.202 -2.2458 -0.1328  2.3001
   15MOL0     H 1999   3.165   2.098   4.192 -0.3853 -0.7248  0.9038
   15MOL0     H 2000   3.155   2.247   4.264 -1.3287 -1.7459  1.3309
   15MOL0     H 2001   3.222   2.049   4.416  1.0999 -0.5063 -0.0833
   15MOL0     H 2002   3.384   2.063   4.360 -0.6493 -2.1994  0.2110
   15MOL0     H 2003   3.247   2.319   4.455 -0.7438 -0.5789 -0.9080
   15MOL0     H 2004   3.430   2.264   4.438  0.7729 -2.6856  1.7288
   15MOL0     H 2005   3.250   2.133   4.640 -0.2265 -0.5863  0.1808
   15MOL0     H 2006   3.337   2.280   4.671 -0.8957 -3.2347  4.2756
   15MOL0     H 2007   3.441   2.662   3.678  1.0800 -0.9630 -2.8452
   15MOL0     H 2008   3.372   2.812   3.504  0.0447  2.2721  4.0147
   15MOL0     H 2009   2.990   3.000   3.225 -1.7813 -0.3260  1.2712
   15MOL0     H 2010   3.035   3.202   3.087 -0.4241  2.5869  0.2373
   15MOL0     H 2011   4.498   4.592   4.239 -2.5559 -2.4180 -0.6112
   15MOL0     H 2012   4.734   4.587   4.342  0.0620 -0.3562 -0.7186
   15MOL0     H 2013   5.226   4.178   4.435  0.1396  0.0129 -0.9842
   15MOL0     H 2014   5.379   4.226   4.587 -1.3333 -0.6380  3.5165
   15MOL0     H 2015   5.384   4.280   4.865 -2.1685  1.4662 -0.0071
   15MOL0     H 2016   5.517   4.296   4.742 -1.3312  0.2318 -0.5352
   15MOL0     H 2017   5.525   4.358   5.031 -3.5554  2.0784  1.5861
   15MOL0     H 2018   5.480   4.513   4.967 -0.2347 -0.2754  0.2521
   15MOL0     H 2019   5.670   4.470   4.788 -1.9185 -1.8540 -0.4342
   15MOL0     H 2020   5.716   4.339   4.891 -1.3311 -0.4679  0.8200
   15MOL0     H 2021   5.688   4.538   5.084 -1.4598 -2.7528 -0.5734
   15MOL0     H 2022   5.712   4.644   4.941 -1.7291  0.1681  0.9529
   15MOL0     H 2023   6.092   4.484   4.971 -1.4677 -4.5686 -2.3535
   15MOL0     H 2024   5.213   4.621   4.644 -0.3550  0.4834 -0.8823
   15MOL0     H 2025   5.045   4.562   4.506  0.4792 -0.0085 -1.0467
   16MOL0     O 2026   9.750   0.498   5.820  1.2226 -0.4097  0.0205
   16MOL0     C 2027   9.722   0.469   5.699 -0.1226  0.5917 -0.2799
   16MOL0     O 2028   9.809   0.465   5.589 -0.9587  0.6523 -0.0100
   16MOL0     C 2029   9.933   0.509   5.595 -0.7615  0.9102  1.1587
   16MOL0     C 2030   9.998   0.585   5.692 -0.6230 -0.8141  0.5062
   16MOL0     C 2031  10.138   0.607   5.691  0.1075  0.0552 -0.6656
   16MOL0     C 2032  10.212   0.565   5.582 -0.4641 -0.5108  0.1500
   16MOL0     O 2033  10.343   0.596   5.571  0.4159  0.9898  0.8965
   16MOL0     C 2034  10.427   0.591   5.682  1.0707 -0.0431 -0.3242
   16MOL0     C 2035  10.503   0.724   5.681  0.0715  0.0449 -0.0947
   16MOL0     C 2036  10.615   0.735   5.779 -0.2278 -0.1370  0.4199
   16MOL0     C 2037  10.602   0.852   5.875  0.3897 -0.0823 -0.2960
   16MOL0     C 2038  10.717   0.844   5.974 -0.2500 -0.1776 -0.5672
   16MOL0     C 2039  10.722   0.975   6.059 -0.0139 -0.2438 -0.0501
   16MOL0     C 2040  10.590   1.028   6.109  0.5428 -0.0793 -0.7976
   16MOL0     C 2041  10.604   1.091   6.250  0.3673 -1.0548 -0.0935
   16MOL0     N 2042  10.674   1.004   6.349 -0.1812  0.7567 -0.1144
   16MOL0     C 2043  10.659   0.864   6.368 -1.1343 -0.5429  0.4764
   16MOL0     C 2044  10.771   0.839   6.447 -0.0628 -0.7853  0.4678
   16MOL0     C 2045  10.814   0.705   6.504  0.2788  0.6117  0.0820
   16MOL0     C 2046  10.826   0.716   6.656 -0.3854 -0.3850 -0.1551
   16MOL0     C 2047  10.684   0.737   6.719  0.1931  0.0717 -0.0649
   16MOL0     C 2048  10.610   0.611   6.742 -0.1099 -0.2753  1.4963
   16MOL0     O 2049  10.553   0.536   6.632  0.0717 -0.3538 -0.2440
   16MOL0     C 2050  10.473   0.587   6.539  0.0619  0.3342  0.0667
   16MOL0     C 2051  10.458   0.514   6.425 -0.1085 -0.4421  1.1293
   16MOL0     C 2052  10.380   0.567   6.319  0.0576 -0.3422 -0.3616
   16MOL0     C 2053  10.391   0.487   6.195  0.4590 -0.7549 -0.6761
   16MOL0     C 2054  10.304   0.683   6.334  0.0188 -0.3082 -0.5399
   16MOL0     C 2055  10.207   0.727   6.228 -0.2381  0.9301 -0.2030
   16MOL0     O 2056  10.080   0.740   6.269 -0.0867 -0.0340 -0.4741
   16MOL0     C 2057   9.966   0.776   6.201  0.6625 -0.1388  0.8049
   16MOL0     C 2058   9.860   0.827   6.268 -0.3288 -0.0170 -0.3030
   16MOL0     C 2059   9.748   0.871   6.197  0.0696 -0.6919  0.8320
   16MOL0     C 2060   9.731   0.846   6.059 -0.3966  0.5583  0.4056
   16MOL0     O 2061   9.625   0.883   5.982 -0.3629 -0.2829 -1.0282
   16MOL0     C 2062   9.504   0.900   6.049 -0.0891  0.1537 -0.3081
   16MOL0     C 2063   9.401   0.961   5.958  0.4952 -0.6096  0.0412
   16MOL0     C 2064   9.400   0.910   5.810  0.6822  0.0485 -0.5867
   16MOL0     C 2065   9.270   0.954   5.734 -0.1126  0.2074  0.3539
   16MOL0     C 2066   9.279   1.101   5.682  0.5768  0.5205 -0.3457
   16MOL0     C 2067   9.139   1.161   5.637 -0.8596  0.1037 -0.2703
   16MOL0     C 2068   9.077   1.082   5.516  0.2028  0.2677 -0.9028
   16MOL0     C 2069   8.924   1.108   5.500 -0.2206 -0.1053 -0.1641
   16MOL0    Cl 2070   8.841   1.060   5.642  0.5915  0.3490  0.2713
   16MOL0     C 2071   9.839   0.782   5.997  0.2070  0.3018  0.0461
   16MOL0     C 2072   9.955   0.752   6.067 -0.0705 -0.5364 -0.5998
   16MOL0     O 2073  10.240   0.754   6.110  0.2350  0.5797 -0.2259
   16MOL0     C 2074  10.305   0.751   6.456 -0.7700  1.0175  0.9700
   16MOL0     C 2075  10.402   0.708   6.559  0.9371 -0.1159  0.3243
   16MOL0     N 2076  10.835   0.959   6.475  0.3533 -0.8584  0.2658
   16MOL0     N 2077  10.771   1.058   6.430  0.8261  0.2413 -0.3183
   16MOL0     C 2078  10.153   0.495   5.477  0.1420 -0.4864 -0.3120
   16MOL0     C 2079  10.016   0.459   5.485  0.4400  0.3046  0.4986
   16MOL0     C 2080   9.578   0.445   5.662 -0.0561  0.7461  0.3704
   16MOL0     C 2081   9.476   0.487   5.743  0.3307 -0.4500 -0.6058
   16MOL0     C 2082   9.343   0.462   5.705 -0.2663  0.5614  0.2119
   16MOL0     C 2083   9.319   0.386   5.590 -0.5823 -0.7438  0.2510
   16MOL0     O 2084   9.183   0.365   5.556 -0.1738  0.7141  0.5582
   16MOL0     C 2085   9.144   0.237   5.516  0.2879 -0.1218  0.3393
   16MOL0     C 2086   8.994   0.233   5.512 -0.5076 -0.3604 -0.0240
   16MOL0     C 2087   8.935   0.114   5.426 -0.1651 -1.1725 -0.4908
   16MOL0     C 2088   8.945  -0.020   5.502 -0.1839 -0.1243 -0.0919
   16MOL0     C 2089   9.084  -0.069   5.516 -0.1777  0.1604  0.5544
   16MOL0     C 2090   9.194  -0.124   5.524 -0.4259  0.9166  0.5485
   16MOL0     C 2091   9.419   0.353   5.498  0.2984  0.3806 -0.4736
   16MOL0     C 2092   9.549   0.380   5.537  0.2913 -0.2775 -0.1636
   16MOL0     H 2093   9.946   0.629   5.777  0.1183  2.5584 -0.5963
   16MOL0     H 2094  10.162   0.667   5.777 -3.7323  0.3266  0.4177
   16MOL0     H 2095  10.369   0.577   5.774  0.2835  2.0379 -0.4631
   16MOL0     H 2096  10.495   0.505   5.675 -0.0969 -1.4133  3.0024
   16MOL0     H 2097  10.543   0.745   5.581 -0.4254  2.6300  0.1753
   16MOL0     H 2098  10.428   0.801   5.703  0.6216  0.5161  0.1804
   16MOL0     H 2099  10.625   0.652   5.850  1.0752  0.3466  0.8431
   16MOL0     H 2100  10.704   0.748   5.717 -1.9294 -1.7418 -2.5677
   16MOL0     H 2101  10.613   0.943   5.816 -0.2503  1.9857  2.5441
   16MOL0     H 2102  10.512   0.830   5.933 -2.1601 -1.7613 -4.4455
   16MOL0     H 2103  10.722   0.755   6.038 -1.7906  0.9968  1.2891
   16MOL0     H 2104  10.813   0.850   5.922  1.6294 -1.5107  2.4354
   16MOL0     H 2105  10.799   0.955   6.135  0.0542  1.0345  0.2446
   16MOL0     H 2106  10.764   1.048   5.988  0.7539 -0.0112  0.6252
   16MOL0     H 2107  10.537   1.094   6.040  0.4177  3.7981  2.6048
   16MOL0     H 2108  10.515   0.948   6.115 -2.7748  2.7422 -1.8086
   16MOL0     H 2109  10.503   1.121   6.281 -0.6657 -0.4052 -3.6251
   16MOL0     H 2110  10.674   1.175   6.237 -0.8171  0.1110  0.7896
   16MOL0     H 2111  10.595   0.787   6.327 -3.3390  0.2886  2.1263
   16MOL0     H 2112  10.739   0.634   6.468 -1.2460  1.2862  1.8128
   16MOL0     H 2113  10.905   0.665   6.458  1.6630  0.9247  2.3816
   16MOL0     H 2114  10.898   0.797   6.673  2.7639 -2.9397 -0.3355
   16MOL0     H 2115  10.867   0.625   6.701 -1.5477 -1.0451 -0.3947
   16MOL0     H 2116  10.633   0.809   6.654  1.5525  0.0225 -1.2472
   16MOL0     H 2117  10.705   0.786   6.814  3.5178  0.9277 -1.1309
   16MOL0     H 2118  10.531   0.621   6.817 -0.0564 -2.1038  1.8463
   16MOL0     H 2119  10.684   0.548   6.791  0.1192 -0.8780  0.4007
   16MOL0     H 2120  10.499   0.413   6.416  0.7105 -0.1323  1.2817
   16MOL0     H 2121  10.300   0.462   6.141  0.7576 -2.4692 -0.4400
   16MOL0     H 2122  10.453   0.540   6.122  0.3053 -0.8724 -0.8936
   16MOL0     H 2123  10.428   0.385   6.209 -0.4462 -0.6710  3.6265
   16MOL0     H 2124   9.862   0.839   6.376 -1.0588 -0.2361 -0.2586
   16MOL0     H 2125   9.665   0.911   6.255 -0.3132 -0.7441  0.3403
   16MOL0     H 2126   9.469   0.797   6.064  0.5225 -0.1591 -0.9713
   16MOL0     H 2127   9.500   0.949   6.147  0.2411 -1.9334  0.8034
   16MOL0     H 2128   9.302   0.937   5.998 -0.0171 -0.5102 -1.1326
   16MOL0     H 2129   9.422   1.068   5.971  1.1048 -1.0176  3.1502
   16MOL0     H 2130   9.402   0.801   5.808  2.6543  0.0667 -1.9106
   16MOL0     H 2131   9.489   0.937   5.753  0.3492  0.1810 -1.0547
   16MOL0     H 2132   9.250   0.875   5.660 -0.9512  0.8435 -0.1209
   16MOL0     H 2133   9.182   0.947   5.798 -0.9611  0.6868 -0.7180
   16MOL0     H 2134   9.351   1.101   5.600  0.3347 -1.6254 -0.6397
   16MOL0     H 2135   9.313   1.158   5.768 -0.9154  1.9871 -0.6672
   16MOL0     H 2136   9.083   1.159   5.731  0.9037  0.4448  0.8360
   16MOL0     H 2137   9.161   1.263   5.604  0.9668 -0.7250 -1.7645
   16MOL0     H 2138   9.091   0.975   5.537  1.5279  0.3314 -1.3676
   16MOL0     H 2139   9.136   1.097   5.425  1.0638  1.2447 -0.2102
   16MOL0     H 2140   8.887   1.069   5.405  1.2618  0.9613 -1.2289
   16MOL0     H 2141   8.923   1.217   5.492 -0.8405 -0.2607 -3.2115
   16MOL0     H 2142   9.814   0.756   5.894  3.7893  0.2011 -0.9141
   16MOL0     H 2143  10.034   0.698   6.015  1.5977  2.7022 -1.6962
   16MOL0     H 2144  10.257   0.848   6.466  0.2313  1.8254 -1.2784
   16MOL0     H 2145  10.398   0.762   6.653  0.0849 -2.1777  1.5481
   16MOL0     H 2146  10.219   0.460   5.398  0.2392 -0.6490 -0.1599
   16MOL0     H 2147   9.974   0.404   5.402  1.3814  1.5265 -0.8482
   16MOL0     H 2148   9.482   0.552   5.829 -0.6720  1.9176 -2.2127
   16MOL0     H 2149   9.257   0.493   5.764 -2.2236  1.2672 -2.7841
   16MOL0     H 2150   9.187   0.219   5.417  0.7827  0.8757  0.3657
   16MOL0     H 2151   9.183   0.168   5.591 -0.6552  0.9049  1.8349
   16MOL0     H 2152   8.961   0.328   5.470  0.4825  0.1613  0.3534
   16MOL0     H 2153   8.953   0.232   5.614  1.1187  0.7718  0.6897
   16MOL0     H 2154   8.992   0.106   5.333  0.5132 -1.2601 -0.0729
   16MOL0     H 2155   8.830   0.126   5.399 -0.4994 -1.6497  0.5617
   16MOL0     H 2156   8.883  -0.097   5.454  0.3104 -0.2042 -0.6121
   16MOL0     H 2157   8.893  -0.009   5.597  0.1312  2.0408 -0.1170
   16MOL0     H 2158   9.289  -0.174   5.536 -0.7585  0.5758  2.0302
   16MOL0     H 2159   9.402   0.298   5.406  0.5804 -1.0618  0.3065
   16MOL0     H 2160   9.637   0.340   5.487  0.7915 -1.5910  1.6687
   17MOL0     O 2161   0.485  10.519   7.182  0.2264  0.1254  0.3712
   17MOL0     C 2162   0.584  10.542   7.254  0.2244 -0.1107 -0.5224
   17MOL0     O 2163   0.586  10.599   7.373 -0.0306 -0.0809  0.1418
   17MOL0     C 2164   0.462  10.624   7.431 -0.1807  0.1112  0.4214
   17MOL0     C 2165   0.415  10.546   7.533  0.0823 -0.0215 -0.7333
   17MOL0     C 2166   0.285  10.562   7.591 -0.5443  0.5437  0.7472
   17MOL0     C 2167   0.201  10.667   7.542 -0.0502 -0.3723  0.2833
   17MOL0     O 2168   0.071  10.687   7.589 -0.1266  1.0010 -0.6985
   17MOL0     C 2169   0.065  10.821   7.638 -0.4624 -0.5405  0.7654
   17MOL0     C 2170  -0.081  10.843   7.680  0.5739 -0.0215 -1.1975
   17MOL0     C 2171  -0.163  10.883   7.556  1.4524  0.2203 -0.0196
   17MOL0     C 2172  -0.312  10.876   7.589 -0.0917  0.0359  0.0169
   17MOL0     C 2173  -0.394  10.925   7.468  0.8042  0.3599 -1.1218
   17MOL0     C 2174  -0.533  10.982   7.514  0.1236  0.6886 -0.0400
   17MOL0     C 2175  -0.606  11.010   7.376 -0.1076 -0.0262 -0.1021
   17MOL0     C 2176  -0.737  11.098   7.399  0.5534  0.8339  1.2001
   17MOL0     N 2177  -0.842  11.055   7.482  0.2346 -0.3610  0.6344
   17MOL0     C 2178  -0.839  11.030   7.612  0.1674  0.8089 -0.3515
   17MOL0     C 2179  -0.962  10.995   7.651 -0.0359  0.6457 -0.3275
   17MOL0     C 2180  -1.006  10.972   7.798 -0.6607  0.7954  0.8522
   17MOL0     C 2181  -1.139  10.910   7.824 -0.8117  0.0511  0.2079
   17MOL0     C 2182  -1.241  11.021   7.832  0.2112  0.8810  0.0437
   17MOL0     C 2183  -1.374  10.961   7.872  0.8389 -0.8450  0.4405
   17MOL0     O 2184  -1.478  11.064   7.857 -0.3886 -0.7620  0.3909
   17MOL0     C 2185  -1.601  11.041   7.908 -0.2682 -0.5773  0.0390
   17MOL0     C 2186  -1.687  11.154   7.915  0.0918 -0.5522 -0.2350
   17MOL0     C 2187  -1.819  11.145   7.968 -0.4902 -1.2193  0.2078
   17MOL0     C 2188  -1.902  11.266   7.988  0.4457 -0.1149  0.5618
   17MOL0     C 2189  -1.860  11.023   8.009 -0.0188 -0.2201  0.2249
   17MOL0     C 2190  -1.988  11.001   8.070  0.4772 -0.1195  0.2400
   17MOL0     O 2191  -2.010  11.006   8.210  0.6133 -0.5763 -0.0625
   17MOL0     C 2192  -2.131  11.037   8.257 -0.4437 -0.0005 -0.2031
   17MOL0     C 2193  -2.222  10.935   8.273  0.0616  0.4354 -0.3170
   17MOL0     C 2194  -2.356  10.966   8.322 -0.1167 -0.3240  0.6421
   17MOL0     C 2195  -2.387  11.097   8.353 -0.3699  0.0253 -0.2967
   17MOL0     O 2196  -2.518  11.121   8.400  0.8037 -0.5785 -0.7909
   17MOL0     C 2197  -2.525  11.161   8.537  0.0195 -0.1183 -0.0766
   17MOL0     C 2198  -2.633  11.081   8.601 -0.4651 -0.3590  0.1255
   17MOL0     C 2199  -2.771  11.097   8.522 -0.1194  0.1341  0.6752
   17MOL0     C 2200  -2.893  11.094   8.608  0.0244  1.0340 -0.5992
   17MOL0     C 2201  -3.028  11.096   8.515 -0.4786  0.6858 -0.3419
   17MOL0     C 2202  -3.121  11.222   8.539  1.4005  0.2387  0.0948
   17MOL0     C 2203  -3.042  11.345   8.496 -0.0016  0.6941 -0.3672
   17MOL0     C 2204  -3.131  11.472   8.482 -0.3988 -0.7070 -0.3308
   17MOL0    Cl 2205  -3.237  11.463   8.350  0.1027 -0.1888  0.2150
   17MOL0     C 2206  -2.292  11.197   8.344  0.0432  0.3190  0.1303
   17MOL0     C 2207  -2.167  11.165   8.280 -0.2411  0.2294  0.0340
   17MOL0     O 2208  -2.080  11.006   7.985  0.3052 -0.2423  0.2253
   17MOL0     C 2209  -1.777  10.910   8.008  0.5852  0.2691  0.1248
   17MOL0     C 2210  -1.649  10.924   7.952 -0.7592  0.4261  0.0744
   17MOL0     N 2211  -1.029  10.991   7.531 -0.2464  0.5823  0.0372
   17MOL0     N 2212  -0.962  11.022   7.429 -0.3701  0.8070 -0.4078
   17MOL0     C 2213   0.247  10.733   7.428 -0.3519 -0.1356  0.4545
   17MOL0     C 2214   0.382  10.728   7.382  0.7096 -0.5360 -0.4281
   17MOL0     C 2215   0.716  10.492   7.206  0.7734  0.2996 -0.5838
   17MOL0     C 2216   0.728  10.447   7.077  0.4009  0.5969  0.1708
   17MOL0     C 2217   0.845  10.392   7.028 -0.2572 -0.0618 -0.3222
   17MOL0     C 2218   0.953  10.409   7.110 -0.5535  1.2381  0.8823
   17MOL0     O 2219   1.080  10.361   7.072  1.0599  0.6139 -0.3911
   17MOL0     C 2220   1.090  10.302   6.944 -0.7288  0.8970  0.2505
   17MOL0     C 2221   1.241  10.306   6.914  0.3036  0.2209 -0.3113
   17MOL0     C 2222   1.285  10.455   6.892  0.4162  0.7039  0.0620
   17MOL0     C 2223   1.254  10.490   6.743 -0.2082 -0.0072 -0.4340
   17MOL0     C 2224   1.333  10.417   6.650  0.3248 -1.1317  0.0741
   17MOL0     C 2225   1.385  10.358   6.558  0.6346 -0.1007  0.5052
   17MOL0     C 2226   0.946  10.461   7.243  0.2688  0.2636  0.5604
   17MOL0     C 2227   0.827  10.512   7.286  0.0293  0.3286 -0.3007
   17MOL0     H 2228   0.481  10.475   7.583  0.0016  0.1206 -0.4232
   17MOL0     H 2229   0.250  10.498   7.671  0.1405  1.3412  1.7142
   17MOL0     H 2230   0.142  10.839   7.714  1.4457 -0.8773 -1.0012
   17MOL0     H 2231   0.086  10.883   7.551 -0.1322 -2.1137 -0.3202
   17MOL0     H 2232  -0.116  10.753   7.731 -2.2468  1.4581 -0.3142
   17MOL0     H 2233  -0.079  10.926   7.751  0.2939  0.9787 -2.3285
   17MOL0     H 2234  -0.136  10.987   7.534  0.8146  0.3549 -0.2012
   17MOL0     H 2235  -0.137  10.805   7.484 -0.4613 -2.4466  1.9301
   17MOL0     H 2236  -0.349  10.778   7.621 -3.0260  1.8023  2.5763
   17MOL0     H 2237  -0.338  10.935   7.677  3.4156 -2.3337  2.9731
   17MOL0     H 2238  -0.337  10.997   7.408  3.2732 -0.8105 -0.3175
   17MOL0     H 2239  -0.407  10.834   7.408  0.1170  1.5064 -2.8149
   17MOL0     H 2240  -0.577  10.905   7.577  2.6153  0.2757  1.3490
   17MOL0     H 2241  -0.516  11.076   7.568 -0.0199  0.2503  0.7897
   17MOL0     H 2242  -0.540  11.057   7.302  1.3750 -0.1428  1.0918
   17MOL0     H 2243  -0.638  10.911   7.342  2.9576 -1.0827 -0.2388
   17MOL0     H 2244  -0.780  11.135   7.305 -0.8131 -0.7978  1.1342
   17MOL0     H 2245  -0.698  11.187   7.450 -2.0080  2.9708 -0.2791
   17MOL0     H 2246  -0.762  11.032   7.689  0.7479  0.1954 -0.9077
   17MOL0     H 2247  -0.938  10.900   7.845 -1.2354 -0.9980 -0.9192
   17MOL0     H 2248  -0.995  11.064   7.855 -1.7550  0.3143  1.8762
   17MOL0     H 2249  -1.134  10.858   7.920  0.9646  0.4134  0.3475
   17MOL0     H 2250  -1.171  10.846   7.741 -0.4934  0.7577 -0.4744
   17MOL0     H 2251  -1.244  11.074   7.737  2.9009  0.6755 -0.2128
   17MOL0     H 2252  -1.217  11.096   7.908  1.1416  0.0765  0.5730
   17MOL0     H 2253  -1.358  10.924   7.974 -0.8403 -0.3459  0.9276
   17MOL0     H 2254  -1.397  10.873   7.811  0.7946 -0.1937 -0.5075
   17MOL0     H 2255  -1.640  11.248   7.890  2.2251 -1.6067 -0.4623
   17MOL0     H 2256  -1.903  11.301   8.091 -0.8553  1.8555 -0.0637
   17MOL0     H 2257  -1.865  11.347   7.924  0.8351 -2.1172 -1.9041
   17MOL0     H 2258  -1.999  11.226   7.958  0.2231 -2.0060  3.3998
   17MOL0     H 2259  -2.195  10.836   8.238  3.3253  1.2245 -0.3139
   17MOL0     H 2260  -2.434  10.895   8.347 -0.9391  1.1140  2.3978
   17MOL0     H 2261  -2.432  11.156   8.594 -1.7889 -1.7214  2.9988
   17MOL0     H 2262  -2.555  11.265   8.551  2.5532  0.6360  0.1088
   17MOL0     H 2263  -2.587  10.982   8.609 -0.9739 -0.6494 -0.5392
   17MOL0     H 2264  -2.642  11.119   8.703 -0.3674 -0.8846  0.3302
   17MOL0     H 2265  -2.783  11.018   8.447  3.8192  1.1912 -1.3352
   17MOL0     H 2266  -2.759  11.184   8.457 -1.6292 -0.8623 -1.0439
   17MOL0     H 2267  -2.893  11.001   8.666 -3.5177  0.9383 -0.5160
   17MOL0     H 2268  -2.893  11.175   8.682  4.0915 -0.4616  1.3706
   17MOL0     H 2269  -3.082  11.002   8.529  1.1377 -0.3853 -0.9492
   17MOL0     H 2270  -2.992  11.093   8.412  0.9158 -3.4245  0.0740
   17MOL0     H 2271  -3.203  11.204   8.469  1.3041 -2.6269  0.8249
   17MOL0     H 2272  -3.164  11.221   8.640  0.4276  0.3888 -0.3126
   17MOL0     H 2273  -2.981  11.322   8.407  0.2335 -2.4253  0.4761
   17MOL0     H 2274  -2.964  11.366   8.570  0.3527  0.3984 -0.6468
   17MOL0     H 2275  -3.068  11.559   8.461 -0.4505 -0.9562 -1.6066
   17MOL0     H 2276  -3.194  11.479   8.571  0.8096  2.0230  0.3844
   17MOL0     H 2277  -2.313  11.302   8.360  1.9470  0.6790  0.5619
   17MOL0     H 2278  -2.096  11.247   8.272  0.0874  0.1338  1.6003
   17MOL0     H 2279  -1.794  10.808   8.040  3.3422 -1.3529 -3.0381
   17MOL0     H 2280  -1.590  10.833   7.950  1.9109  2.0635 -1.7233
   17MOL0     H 2281   0.193  10.809   7.373  0.4132  0.0534 -0.0516
   17MOL0     H 2282   0.416  10.806   7.314 -0.1975  0.3994  0.1567
   17MOL0     H 2283   0.647  10.457   7.006 -1.6819  0.7450  2.4545
   17MOL0     H 2284   0.843  10.349   6.928 -2.7766 -1.8723  0.4127
   17MOL0     H 2285   1.057  10.198   6.936  0.5134  0.1836  3.1933
   17MOL0     H 2286   1.035  10.361   6.870 -0.2005  2.0490  0.7704
   17MOL0     H 2287   1.255  10.252   6.820 -1.2706  2.3642 -1.8931
   17MOL0     H 2288   1.302  10.265   6.994 -3.0511 -1.4568  1.5990
   17MOL0     H 2289   1.391  10.447   6.917  0.2137 -3.2323  0.2774
   17MOL0     H 2290   1.237  10.527   6.959  2.8039  1.4755  1.0411
   17MOL0     H 2291   1.284  10.593   6.725  2.3282 -0.3202  1.3414
   17MOL0     H 2292   1.147  10.476   6.726 -0.6341  2.9949 -0.6817
   17MOL0     H 2293   1.428  10.304   6.476  2.3361  3.3739 -1.1163
   17MOL0     H 2294   1.038  10.463   7.302  1.0071 -2.5536 -0.3499
   17MOL0     H 2295   0.816  10.551   7.387  1.1829 -2.9101  1.2102
   18MOL0     O 2296   3.545  10.568   5.454  0.4539 -0.6110  0.4515
   18MOL0     C 2297   3.526  10.588   5.331 -1.6084 -0.1325 -0.1390
   18MOL0     O 2298   3.632  10.612   5.241 -0.7345 -0.6938  0.5750
   18MOL0     C 2299   3.757  10.600   5.289  0.4364 -0.5235  0.1830
   18MOL0     C 2300   3.838  10.704   5.252  1.3653 -0.4303 -0.3700
   18MOL0     C 2301   3.971  10.697   5.292 -0.9158  0.0328  0.1678
   18MOL0     C 2302   4.024  10.581   5.361 -0.3417  0.0186  0.7520
   18MOL0     O 2303   4.168  10.571   5.384  0.0499 -0.6506  0.5767
   18MOL0     C 2304   4.259  10.652   5.307  0.7097  0.0014  0.2322
   18MOL0     C 2305   4.409  10.599   5.271 -0.0016 -1.1635  0.5710
   18MOL0     C 2306   4.390  10.472   5.195  0.0056 -0.0006  0.1469
   18MOL0     C 2307   4.515  10.439   5.111 -0.3192  0.1184  0.5818
   18MOL0     C 2308   4.645  10.396   5.182  0.0026 -0.4523 -0.7816
   18MOL0     C 2309   4.639  10.256   5.247 -0.1442 -0.7209 -1.6389
   18MOL0     C 2310   4.769  10.208   5.310  0.5715 -0.6616  0.5545
   18MOL0     C 2311   4.732  10.091   5.399 -0.5267  0.0634 -0.6743
   18MOL0     N 2312   4.838  10.038   5.483 -0.3358 -0.8408 -0.5329
   18MOL0     C 2313   4.931  10.102   5.561  0.2856 -0.2404 -0.2702
   18MOL0     C 2314   4.989  10.004   5.632 -0.1177 -0.6934 -0.2467
   18MOL0     C 2315   5.110  10.014   5.718 -0.1264 -0.3649  0.5158
   18MOL0     C 2316   5.131   9.904   5.814 -0.6529  1.0715  0.5264
   18MOL0     C 2317   5.195   9.785   5.734 -1.2192 -0.1929 -0.2357
   18MOL0     C 2318   5.237   9.681   5.840 -0.0036 -0.7085 -0.5397
   18MOL0     O 2319   5.305   9.742   5.957 -0.0050 -0.7349 -0.4573
   18MOL0     C 2320   5.432   9.792   5.957  0.0338  0.1580  0.5842
   18MOL0     C 2321   5.476   9.877   6.073  0.0436  0.3746  0.5163
   18MOL0     C 2322   5.606   9.911   6.075  0.8074  0.4111 -0.4463
   18MOL0     C 2323   5.641  10.018   6.187 -0.2305 -0.2776 -0.5482
   18MOL0     C 2324   5.699   9.869   5.977  0.1100 -0.0762 -0.1905
   18MOL0     C 2325   5.840   9.894   5.982 -0.4461  0.4327 -0.0556
   18MOL0     O 2326   5.899   9.911   5.856 -0.6033 -0.6279 -0.6346
   18MOL0     C 2327   6.024   9.965   5.831  0.1084 -0.3284 -0.0470
   18MOL0     C 2328   6.060  10.015   5.702  0.2199 -0.2608 -1.3076
   18MOL0     C 2329   6.182  10.070   5.660 -0.0255 -0.4077  0.1971
   18MOL0     C 2330   6.283  10.085   5.758 -1.5723  0.2702 -0.1051
   18MOL0     O 2331   6.416  10.121   5.710  0.2672 -0.1693  0.2576
   18MOL0     C 2332   6.527  10.161   5.790  0.1541  0.2581  0.2010
   18MOL0     C 2333   6.659  10.153   5.716  0.2661 -0.9005  0.8893
   18MOL0     C 2334   6.660  10.234   5.584 -0.6155 -0.4692 -0.2634
   18MOL0     C 2335   6.809  10.242   5.527 -0.1286  0.5526 -0.4019
   18MOL0     C 2336   6.824  10.363   5.432 -0.1456  0.0070  0.5821
   18MOL0     C 2337   6.710  10.348   5.326  0.4129  0.9062  0.2827
   18MOL0     C 2338   6.703  10.216   5.246  0.8486  0.9671  0.5933
   18MOL0     C 2339   6.673  10.248   5.105 -0.4951 -0.2390  0.6841
   18MOL0    Cl 2340   6.629  10.102   5.008 -0.1532  0.4597 -0.3840
   18MOL0     C 2341   6.248  10.042   5.885 -0.5285 -0.0698 -0.1415
   18MOL0     C 2342   6.129   9.984   5.921 -0.7272  0.1943 -0.8743
   18MOL0     O 2343   5.906   9.890   6.087  0.7644  1.0165 -0.3833
   18MOL0     C 2344   5.647   9.783   5.872 -0.2493  0.3217 -1.4237
   18MOL0     C 2345   5.522   9.747   5.858 -0.2186 -0.4287  0.1312
   18MOL0     N 2346   4.939   9.881   5.597  0.2339  0.2468 -0.1843
   18MOL0     N 2347   4.844   9.901   5.508  0.4098  0.2024  0.2058
   18MOL0     C 2348   3.936  10.479   5.400 -0.5158  0.8072 -0.1555
   18MOL0     C 2349   3.810  10.489   5.350  0.0458 -0.2307 -0.0295
   18MOL0     C 2350   3.382  10.600   5.296  0.3996  0.1398 -0.0504
   18MOL0     C 2351   3.352  10.662   5.180  0.5160  0.2030 -0.4497
   18MOL0     C 2352   3.217  10.661   5.128  0.3626  0.2767  1.3149
   18MOL0     C 2353   3.113  10.613   5.208  0.4670 -0.8738  0.6494
   18MOL0     O 2354   2.975  10.618   5.191  0.1425  0.2861  1.1391
   18MOL0     C 2355   2.927  10.658   5.063  0.3530  0.0698  0.0910
   18MOL0     C 2356   2.768  10.662   5.069 -0.7853  0.3265 -0.1440
   18MOL0     C 2357   2.716  10.789   5.145  0.8012 -0.1660 -1.1503
   18MOL0     C 2358   2.648  10.899   5.053 -0.1172  0.5073 -0.4177
   18MOL0     C 2359   2.738  10.940   4.938  0.0132  0.5132 -0.2526
   18MOL0     C 2360   2.802  10.950   4.839 -0.0797  0.5592 -0.3291
   18MOL0     C 2361   3.150  10.541   5.319 -0.2685  0.2404 -0.0134
   18MOL0     C 2362   3.279  10.520   5.360 -0.2520  0.7203  0.3925
   18MOL0     H 2363   3.814  10.790   5.191  1.7393 -0.9162 -1.2171
   18MOL0     H 2364   4.039  10.777   5.265 -1.9136  1.1461  0.8410
   18MOL0     H 2365   4.206  10.664   5.212 -2.6870 -2.4820  1.5884
   18MOL0     H 2366   4.281  10.749   5.352  3.8182 -0.8974  0.9481
   18MOL0     H 2367   4.465  10.680   5.223 -0.9997 -0.4556  0.5654
   18MOL0     H 2368   4.468  10.575   5.360  0.8653 -2.3763 -0.2949
   18MOL0     H 2369   4.358  10.385   5.252  0.5332 -1.7763 -2.1050
   18MOL0     H 2370   4.311  10.480   5.120 -1.0619 -0.5750  1.1897
   18MOL0     H 2371   4.482  10.355   5.050  1.0422 -0.0796  0.0942
   18MOL0     H 2372   4.527  10.522   5.041 -0.6093  0.9087  1.4299
   18MOL0     H 2373   4.734  10.393   5.118  0.7892 -1.4605  0.2956
   18MOL0     H 2374   4.663  10.475   5.256 -0.5640  2.6979 -3.7939
   18MOL0     H 2375   4.561  10.259   5.324  1.1638 -0.7108 -0.2749
   18MOL0     H 2376   4.616  10.184   5.169  0.1301 -2.5234 -0.1368
   18MOL0     H 2377   4.841  10.176   5.234  0.5369 -0.9849  0.6563
   18MOL0     H 2378   4.819  10.278   5.377 -1.7029 -1.2779  3.0863
   18MOL0     H 2379   4.710  10.012   5.326 -1.7878  1.1889 -1.5712
   18MOL0     H 2380   4.653  10.111   5.472  2.1111  0.4065  2.2936
   18MOL0     H 2381   4.943  10.209   5.573 -3.8875  0.3654  0.0002
   18MOL0     H 2382   5.205  10.033   5.666  0.5248  0.9574  2.1051
   18MOL0     H 2383   5.112  10.112   5.767  2.0295 -0.4665  0.7231
   18MOL0     H 2384   5.037   9.872   5.858  0.3311 -0.0382  1.9049
   18MOL0     H 2385   5.192   9.949   5.893 -0.5698  0.2515  0.9410
   18MOL0     H 2386   5.280   9.824   5.676 -0.5122 -1.0819  0.1660
   18MOL0     H 2387   5.129   9.741   5.659  1.1980 -0.7547 -2.1889
   18MOL0     H 2388   5.299   9.614   5.779  2.0985  2.4345 -2.1065
   18MOL0     H 2389   5.150   9.628   5.880  0.4726  0.8575  2.9203
   18MOL0     H 2390   5.419   9.911   6.158 -0.1659  1.2332  0.0482
   18MOL0     H 2391   5.632  10.121   6.151 -1.4544 -0.2544 -0.2109
   18MOL0     H 2392   5.568  10.012   6.269 -0.3339 -2.8890 -0.7727
   18MOL0     H 2393   5.739   9.992   6.226 -1.4952 -3.7074  0.6571
   18MOL0     H 2394   5.990   9.997   5.622 -0.2150 -2.4914 -0.4917
   18MOL0     H 2395   6.205  10.076   5.554  0.4978 -2.7254  0.1216
   18MOL0     H 2396   6.505  10.260   5.830 -1.4020 -0.5044  1.3324
   18MOL0     H 2397   6.538  10.094   5.876  0.4989  1.9396  1.5286
   18MOL0     H 2398   6.744  10.179   5.780  2.3213 -0.4186 -1.8459
   18MOL0     H 2399   6.675  10.049   5.686  1.6663 -0.3192 -0.5358
   18MOL0     H 2400   6.633  10.340   5.597  0.3276 -0.0452 -1.5502
   18MOL0     H 2401   6.597  10.194   5.504  0.1318  0.2899 -1.2568
   18MOL0     H 2402   6.880  10.259   5.609 -0.9872 -0.1538  0.5069
   18MOL0     H 2403   6.819  10.148   5.472 -1.6586  1.4868 -2.3693
   18MOL0     H 2404   6.926  10.360   5.394 -0.5067 -2.4062 -0.4404
   18MOL0     H 2405   6.798  10.453   5.488  0.3513  0.4080  0.1808
   18MOL0     H 2406   6.614  10.370   5.374  1.0416  1.8667  1.1348
   18MOL0     H 2407   6.728  10.426   5.251 -0.3588 -0.1982 -1.1020
   18MOL0     H 2408   6.621  10.153   5.284  1.6130  0.2119  1.0194
   18MOL0     H 2409   6.790  10.149   5.252  0.8854  1.1116  2.0079
   18MOL0     H 2410   6.749  10.309   5.056 -1.9860  1.6966  0.6642
   18MOL0     H 2411   6.581  10.307   5.109  0.2137  0.9670 -0.2935
   18MOL0     H 2412   6.327  10.041   5.960  0.1665 -1.1711 -0.8650
   18MOL0     H 2413   6.115   9.947   6.022 -0.7329  1.2900 -0.4635
   18MOL0     H 2414   5.715   9.742   5.799 -1.8931 -0.7992 -2.3883
   18MOL0     H 2415   5.503   9.688   5.769  3.6394  0.7786 -1.7064
   18MOL0     H 2416   3.961  10.389   5.456 -1.8883  0.5213  0.0303
   18MOL0     H 2417   3.754  10.398   5.371  1.1213 -0.8633  0.1924
   18MOL0     H 2418   3.429  10.702   5.115 -1.9783  2.6109 -2.1686
   18MOL0     H 2419   3.193  10.706   5.032 -1.1367 -2.0797  0.5228
   18MOL0     H 2420   2.957  10.761   5.044 -0.1904  0.4307  1.0912
   18MOL0     H 2421   2.969  10.596   4.983  1.2388 -0.1513  0.7084
   18MOL0     H 2422   2.735  10.563   5.101 -0.1775  0.0499 -0.3564
   18MOL0     H 2423   2.736  10.661   4.965  0.8421 -1.7706 -0.6970
   18MOL0     H 2424   2.791  10.833   5.212  1.1786  2.7183 -3.2662
   18MOL0     H 2425   2.631  10.761   5.208  0.8260  0.1697 -0.9621
   18MOL0     H 2426   2.626  10.982   5.121  2.8011 -1.3438  3.0900
   18MOL0     H 2427   2.557  10.849   5.017  1.3326 -0.9232 -2.3219
   18MOL0     H 2428   2.866  10.961   4.753  2.2485 -1.7787  0.9654
   18MOL0     H 2429   3.077  10.506   5.391  1.5872  0.5440  2.1419
   18MOL0     H 2430   3.306  10.454   5.441 -2.5568  2.9098  3.1260
   19MOL0     O 2431   8.370   5.002   1.225  0.2537 -0.2247  0.7276
   19MOL0     C 2432   8.346   5.015   1.105 -0.0960 -0.7995 -0.8200
   19MOL0     O 2433   8.366   5.121   1.029 -0.7620  0.0286 -0.1498
   19MOL0     C 2434   8.423   5.230   1.092 -0.0432  0.1668 -0.0723
   19MOL0     C 2435   8.335   5.314   1.161 -1.1619  0.0740 -0.3947
   19MOL0     C 2436   8.377   5.418   1.235 -0.2442 -0.4530 -0.2687
   19MOL0     C 2437   8.510   5.456   1.225 -0.7611 -0.5475 -0.0621
   19MOL0     O 2438   8.565   5.575   1.286 -0.3431  0.4449 -0.2412
   19MOL0     C 2439   8.467   5.656   1.355  0.0194 -0.0014  0.6494
   19MOL0     C 2440   8.543   5.782   1.411 -0.3313 -0.0067 -0.3004
   19MOL0     C 2441   8.623   5.849   1.306 -0.9995 -0.4399  0.3596
   19MOL0     C 2442   8.673   5.988   1.339  0.8686 -1.1364 -0.8218
   19MOL0     C 2443   8.782   6.049   1.243 -0.6770  0.1233  0.1822
   19MOL0     C 2444   8.732   6.084   1.097  0.2400 -0.1734 -1.2829
   19MOL0     C 2445   8.847   6.117   1.010 -0.2912  0.3725 -0.3399
   19MOL0     C 2446   8.797   6.122   0.857  0.5340 -0.5712 -0.0735
   19MOL0     N 2447   8.878   6.209   0.780  0.0093  0.3309  0.0975
   19MOL0     C 2448   8.996   6.170   0.715  0.5194 -0.1673 -0.0617
   19MOL0     C 2449   9.031   6.279   0.655 -0.0204 -0.3307 -0.7498
   19MOL0     C 2450   9.160   6.294   0.579  0.4331  0.1971  0.8859
   19MOL0     C 2451   9.137   6.307   0.423  0.5127 -0.0887 -0.0170
   19MOL0     C 2452   9.084   6.445   0.388  0.2718 -0.4271  0.0859
   19MOL0     C 2453   9.115   6.473   0.238  0.9532 -0.0632  0.9340
   19MOL0     O 2454   9.165   6.610   0.224 -0.2402  0.5125 -0.1465
   19MOL0     C 2455   9.295   6.648   0.252 -0.3408  0.3199 -0.1718
   19MOL0     C 2456   9.322   6.777   0.214 -0.4637  0.3874  0.5995
   19MOL0     C 2457   9.447   6.834   0.231  0.3391  0.4950  0.2337
   19MOL0     C 2458   9.460   6.982   0.205 -0.1012 -0.2642  0.6393
   19MOL0     C 2459   9.546   6.766   0.308  0.4060  0.2934 -0.6491
   19MOL0     C 2460   9.683   6.821   0.342  0.8061  0.1626 -0.4336
   19MOL0     O 2461   9.723   6.793   0.466 -0.5090  0.5259  0.3221
   19MOL0     C 2462   9.838   6.838   0.508  0.7315 -0.7525  0.3672
   19MOL0     C 2463   9.948   6.775   0.475  0.6619  1.4138 -0.0049
   19MOL0     C 2464  10.071   6.807   0.530 -0.8009  0.1326 -0.1375
   19MOL0     C 2465  10.085   6.905   0.630  0.5673  0.0919 -0.5976
   19MOL0     O 2466  10.215   6.922   0.668  0.9187  0.2615  0.5513
   19MOL0     C 2467  10.239   7.045   0.728 -0.1538  0.9140  0.0328
   19MOL0     C 2468  10.375   7.082   0.742 -0.4478 -1.0450  0.7011
   19MOL0     C 2469  10.441   7.096   0.605 -1.0535  0.3356 -0.5872
   19MOL0     C 2470  10.596   7.127   0.628 -0.4577  1.0318  0.5575
   19MOL0     C 2471  10.668   7.134   0.490 -0.6974 -0.0473  0.2243
   19MOL0     C 2472  10.816   7.186   0.496 -0.0922 -0.5689  0.1458
   19MOL0     C 2473  10.871   7.223   0.357  0.7465 -0.9037 -0.2088
   19MOL0     C 2474  10.853   7.372   0.320  0.0430  0.6830  0.1793
   19MOL0    Cl 2475  10.909   7.413   0.154  0.3297  0.1171 -0.3826
   19MOL0     C 2476   9.966   6.970   0.673  0.0179  0.0979  0.7005
   19MOL0     C 2477   9.846   6.939   0.607 -0.3793  0.9201 -0.7533
   19MOL0     O 2478   9.741   6.882   0.252  0.5503 -0.3462 -0.1255
   19MOL0     C 2479   9.516   6.638   0.357  0.5536 -0.7107 -1.0255
   19MOL0     C 2480   9.393   6.580   0.326  0.5472  0.2436 -0.6158
   19MOL0     N 2481   8.940   6.382   0.669  0.0183 -0.3642  0.2023
   19MOL0     N 2482   8.854   6.335   0.750  0.6027 -0.1945 -0.3157
   19MOL0     C 2483   8.596   5.382   1.145 -0.1524 -0.6221  0.7339
   19MOL0     C 2484   8.558   5.268   1.077 -0.0031 -0.1038 -0.4449
   19MOL0     C 2485   8.277   4.897   1.048 -0.9067  0.2564  0.2188
   19MOL0     C 2486   8.261   4.775   1.107  0.0773  0.3161 -0.3088
   19MOL0     C 2487   8.183   4.675   1.047  0.0392  0.0990 -1.2294
   19MOL0     C 2488   8.133   4.687   0.912 -0.4860 -0.4733  0.8716
   19MOL0     O 2489   8.071   4.596   0.836  0.2743 -0.1292 -0.1476
   19MOL0     C 2490   7.984   4.497   0.909 -0.3098  0.0523  0.0234
   19MOL0     C 2491   8.058   4.363   0.946 -0.0114 -0.4923  0.0434
   19MOL0     C 2492   8.056   4.265   0.828 -0.9658 -0.0477 -0.4879
   19MOL0     C 2493   8.066   4.123   0.879 -0.4276 -0.4280  0.2790
   19MOL0     C 2494   7.938   4.061   0.912  0.7744  0.1894  0.3934
   19MOL0     C 2495   7.834   3.998   0.913  0.5228 -0.0393 -1.1251
   19MOL0     C 2496   8.161   4.810   0.847 -0.5963 -0.0900  0.7359
   19MOL0     C 2497   8.224   4.915   0.915 -0.4017  0.1540 -0.0304
   19MOL0     H 2498   8.229   5.290   1.161 -1.6319  2.0140  0.0401
   19MOL0     H 2499   8.298   5.466   1.292  0.4752  0.3865  0.0381
   19MOL0     H 2500   8.384   5.695   1.296 -0.9131  0.9323  2.4649
   19MOL0     H 2501   8.421   5.601   1.437 -0.2159  1.5310  1.5863
   19MOL0     H 2502   8.468   5.846   1.459 -1.2103  0.2056 -1.8824
   19MOL0     H 2503   8.598   5.753   1.501  0.0419  2.9819  0.5544
   19MOL0     H 2504   8.706   5.794   1.261  0.5719  0.7888  1.6339
   19MOL0     H 2505   8.571   5.860   1.211 -0.4493  1.3613  0.2310
   19MOL0     H 2506   8.582   6.048   1.345 -0.9340 -3.6444 -1.2970
   19MOL0     H 2507   8.705   5.982   1.444 -1.5929  0.2229  0.1036
   19MOL0     H 2508   8.824   6.138   1.289 -2.4689 -0.0132  2.2394
   19MOL0     H 2509   8.865   5.979   1.233 -1.2238 -0.6379  0.8490
   19MOL0     H 2510   8.678   5.994   1.064 -0.0448 -2.1543  3.6944
   19MOL0     H 2511   8.674   6.177   1.095 -1.1343 -0.8570  1.5015
   19MOL0     H 2512   8.883   6.214   1.044  1.3629 -1.0391  2.2668
   19MOL0     H 2513   8.931   6.047   1.020 -1.1211 -0.5387  0.4637
   19MOL0     H 2514   8.692   6.153   0.859  0.2735 -1.4195  1.3634
   19MOL0     H 2515   8.797   6.020   0.819  1.8924 -1.1681  1.3978
   19MOL0     H 2516   9.057   6.080   0.720 -0.4899 -0.9209 -0.8700
   19MOL0     H 2517   9.228   6.370   0.619  2.5775 -1.1156 -0.0787
   19MOL0     H 2518   9.207   6.198   0.599 -1.8263 -0.7341  2.0547
   19MOL0     H 2519   9.066   6.233   0.387  1.5329 -0.7627 -0.7194
   19MOL0     H 2520   9.235   6.288   0.376 -0.1586 -2.3562 -0.6164
   19MOL0     H 2521   9.135   6.519   0.450  0.9915  2.7939 -3.9578
   19MOL0     H 2522   8.979   6.468   0.411  0.1098 -0.0690 -0.9475
   19MOL0     H 2523   9.022   6.465   0.181  0.9034  0.6336  0.9078
   19MOL0     H 2524   9.193   6.405   0.203  0.1416  0.2083 -1.5900
   19MOL0     H 2525   9.240   6.825   0.161 -0.5943 -2.2529 -1.8846
   19MOL0     H 2526   9.363   7.021   0.173 -0.9519 -3.2184 -0.7520
   19MOL0     H 2527   9.494   7.040   0.292 -0.5057  1.7299 -0.4587
   19MOL0     H 2528   9.528   7.003   0.121  1.7475 -1.7633  1.6971
   19MOL0     H 2529   9.931   6.690   0.409 -0.0355  0.6564  1.1130
   19MOL0     H 2530  10.163   6.772   0.484 -1.0462  0.6283 -1.0443
   19MOL0     H 2531  10.187   7.130   0.683 -1.0473  0.4242  0.0991
   19MOL0     H 2532  10.201   7.026   0.829 -1.0608  1.3163 -0.2210
   19MOL0     H 2533  10.376   7.176   0.799 -1.1688 -1.5317  1.5453
   19MOL0     H 2534  10.430   6.998   0.787  0.9970  0.1184  1.2120
   19MOL0     H 2535  10.407   7.176   0.538  0.4839  0.5989 -1.1158
   19MOL0     H 2536  10.432   7.009   0.541  0.2057 -2.1765  2.3918
   19MOL0     H 2537  10.598   7.225   0.676  1.0774  1.9488 -1.2227
   19MOL0     H 2538  10.639   7.055   0.699 -0.1990  1.3245  0.7028
   19MOL0     H 2539  10.612   7.202   0.424 -0.8027  0.5093  0.8835
   19MOL0     H 2540  10.667   7.032   0.449 -2.9714 -0.6708  1.6820
   19MOL0     H 2541  10.830   7.271   0.562  1.6467 -0.6548 -0.0751
   19MOL0     H 2542  10.874   7.111   0.552 -2.5218 -0.6829  2.7257
   19MOL0     H 2543  10.823   7.167   0.276 -2.1288 -0.8300  1.2998
   19MOL0     H 2544  10.975   7.191   0.367  1.2150  0.3779 -0.7838
   19MOL0     H 2545  10.903   7.446   0.383  0.9715  2.6293 -2.6726
   19MOL0     H 2546  10.745   7.391   0.311 -0.0254 -0.6560 -3.0357
   19MOL0     H 2547   9.971   7.038   0.758 -1.1945 -0.8125  1.5469
   19MOL0     H 2548   9.761   6.991   0.652  1.9658  3.5667  0.9637
   19MOL0     H 2549   9.592   6.585   0.413  0.2617  0.9888  1.1369
   19MOL0     H 2550   9.373   6.476   0.353 -0.4783  1.0269  1.9556
   19MOL0     H 2551   8.691   5.435   1.142 -0.7567  0.4694 -0.2991
   19MOL0     H 2552   8.631   5.210   1.022 -0.1404  1.5512 -2.4791
   19MOL0     H 2553   8.302   4.753   1.205 -3.9780  2.1163  1.9982
   19MOL0     H 2554   8.150   4.591   1.107  1.1677  0.7185  0.3082
   19MOL0     H 2555   7.952   4.536   1.006  0.0105  0.1904  0.0759
   19MOL0     H 2556   7.898   4.476   0.846 -0.5785  1.0564  0.0249
   19MOL0     H 2557   8.006   4.324   1.034  0.9176  0.2544  0.9478
   19MOL0     H 2558   8.160   4.386   0.978 -1.0317  1.3646  2.2403
   19MOL0     H 2559   8.148   4.288   0.772 -0.1240 -2.3250 -0.1498
   19MOL0     H 2560   7.968   4.282   0.766 -1.5505 -1.0491  0.0514
   19MOL0     H 2561   8.140   4.121   0.960  0.6431  0.1041 -0.6510
   19MOL0     H 2562   8.103   4.053   0.803 -2.1964 -0.1936 -0.8572
   19MOL0     H 2563   7.742   3.944   0.922 -0.9336  2.2518 -1.4147
   19MOL0     H 2564   8.131   4.826   0.744 -0.1625  1.7608  0.8583
   19MOL0     H 2565   8.232   5.008   0.860 -0.0373  0.3686  0.3694
   20MOL0     O 2566   0.345   5.267   5.454 -0.5059 -0.4811  0.1471
   20MOL0     C 2567   0.271   5.203   5.527  0.5738 -0.2553 -0.6026
   20MOL0     O 2568   0.261   5.219   5.657  0.1915 -0.5936 -0.1132
   20MOL0     C 2569   0.343   5.315   5.721  0.4945  0.1799  0.5845
   20MOL0     C 2570   0.321   5.455   5.739  0.8373  0.2649 -0.9137
   20MOL0     C 2571   0.413   5.540   5.804 -0.8265  0.0250  0.5671
   20MOL0     C 2572   0.541   5.490   5.839  0.2020  0.1667  0.5561
   20MOL0     O 2573   0.628   5.582   5.883 -1.0787 -0.0846 -0.5579
   20MOL0     C 2574   0.682   5.559   6.019  0.2681  0.3620 -0.5504
   20MOL0     C 2575   0.631   5.649   6.129 -0.0522 -0.1022 -0.5838
   20MOL0     C 2576   0.622   5.792   6.090 -0.0817 -0.6415 -0.5519
   20MOL0     C 2577   0.504   5.864   6.166  0.4863 -0.0638  0.2643
   20MOL0     C 2578   0.373   5.840   6.087 -0.4064 -0.1856  0.2417
   20MOL0     C 2579   0.252   5.890   6.157  0.6290 -0.7317 -0.0869
   20MOL0     C 2580   0.140   5.894   6.055  0.5662  0.2318  0.1472
   20MOL0     C 2581  -0.003   5.912   6.106 -0.1615  0.1972  0.0509
   20MOL0     N 2582  -0.033   6.050   6.141 -0.0174 -0.7966  0.1193
   20MOL0     C 2583  -0.034   6.107   6.264 -0.8540 -0.4652 -0.2281
   20MOL0     C 2584  -0.111   6.211   6.272 -0.3922  0.8613  0.7982
   20MOL0     C 2585  -0.150   6.285   6.399  0.2350  0.0102  0.4814
   20MOL0     C 2586  -0.030   6.344   6.474 -0.0509 -0.1094  0.3485
   20MOL0     C 2587   0.061   6.433   6.396 -0.4677 -0.3187  0.9148
   20MOL0     C 2588  -0.006   6.522   6.289 -0.0781  0.8345 -0.0112
   20MOL0     O 2589  -0.107   6.594   6.363 -0.3225  0.2788 -0.1501
   20MOL0     C 2590  -0.060   6.729   6.385 -0.5817  0.1558 -0.2117
   20MOL0     C 2591  -0.029   6.763   6.517 -0.0912 -0.1400  0.3275
   20MOL0     C 2592   0.011   6.891   6.562 -0.8307 -1.2104  0.7242
   20MOL0     C 2593   0.028   6.934   6.714  0.8484  0.4925  0.1976
   20MOL0     C 2594   0.016   6.994   6.460 -0.6112  0.0325  0.4736
   20MOL0     C 2595   0.038   7.139   6.490  0.7210  0.1727 -0.7534
   20MOL0     O 2596  -0.023   7.233   6.423 -0.1097  0.2742  0.2459
   20MOL0     C 2597  -0.036   7.356   6.491 -0.3492 -1.1030  0.8809
   20MOL0     C 2598  -0.148   7.372   6.585 -0.9661  0.0727 -0.4509
   20MOL0     C 2599  -0.147   7.489   6.664 -0.0927 -0.1368 -0.1579
   20MOL0     C 2600  -0.055   7.590   6.645 -1.0831 -0.6010 -0.3849
   20MOL0     O 2601  -0.087   7.709   6.710 -1.0322 -0.1415 -0.0994
   20MOL0     C 2602   0.004   7.764   6.799 -0.1292 -0.1109  0.0590
   20MOL0     C 2603  -0.042   7.735   6.943 -0.0693  0.7730 -0.8813
   20MOL0     C 2604   0.061   7.773   7.050  0.1482  0.0790  0.3963
   20MOL0     C 2605   0.090   7.925   7.050 -0.0365  0.2721 -0.5361
   20MOL0     C 2606   0.175   7.963   7.168 -0.6594  0.6992 -0.3947
   20MOL0     C 2607   0.325   7.916   7.154  0.4268 -0.1887 -0.1342
   20MOL0     C 2608   0.411   7.984   7.256 -0.1303  0.5829  0.9989
   20MOL0     C 2609   0.556   7.933   7.250 -0.1113  0.6268 -0.3798
   20MOL0    Cl 2610   0.644   7.979   7.399  0.6831  0.2475 -0.0689
   20MOL0     C 2611   0.047   7.577   6.556  0.7670  0.0457 -0.3165
   20MOL0     C 2612   0.051   7.465   6.471  0.3092 -0.7649 -1.1870
   20MOL0     O 2613   0.130   7.169   6.569  0.3095  0.2306 -0.4217
   20MOL0     C 2614  -0.013   6.961   6.326  0.1848 -0.1089 -0.0787
   20MOL0     C 2615  -0.053   6.829   6.287  0.2948  0.0294 -0.3174
   20MOL0     N 2616  -0.167   6.225   6.146 -0.3564 -0.5591  0.6689
   20MOL0     N 2617  -0.122   6.127   6.074 -0.5707  0.2012  0.0549
   20MOL0     C 2618   0.558   5.355   5.829 -0.7680 -0.0589 -0.2573
   20MOL0     C 2619   0.466   5.273   5.768 -0.7111  0.7555  0.2808
   20MOL0     C 2620   0.183   5.108   5.454 -0.5407  0.8082  0.1611
   20MOL0     C 2621   0.069   5.063   5.518 -0.0213 -0.3840 -0.6474
   20MOL0     C 2622  -0.021   4.977   5.453 -0.1400 -0.3627 -0.1469
   20MOL0     C 2623   0.009   4.923   5.331 -0.4469  0.2926 -0.2347
   20MOL0     O 2624  -0.089   4.831   5.276 -0.6563  0.6585 -1.1305
   20MOL0     C 2625  -0.099   4.825   5.137 -0.3528 -0.0550  0.1761
   20MOL0     C 2626  -0.159   4.950   5.071  0.5945  0.0339 -0.0449
   20MOL0     C 2627  -0.260   5.022   5.161 -0.4045 -0.5250  1.5334
   20MOL0     C 2628  -0.387   4.930   5.182 -0.0510 -0.3292  0.1816
   20MOL0     C 2629  -0.474   4.982   5.281  0.0563  0.3949  0.2320
   20MOL0     C 2630  -0.565   5.018   5.346 -0.4832 -0.0854  0.5058
   20MOL0     C 2631   0.121   4.975   5.257 -0.4467 -0.2394 -0.1978
   20MOL0     C 2632   0.212   5.064   5.323  0.2745  0.3175  0.5520
   20MOL0     H 2633   0.234   5.495   5.687  1.9792 -0.6890 -3.7816
   20MOL0     H 2634   0.392   5.646   5.817  0.8688  0.1945  2.2799
   20MOL0     H 2635   0.673   5.455   6.052 -0.8245  0.4945 -0.4159
   20MOL0     H 2636   0.789   5.576   6.001  0.3197  0.1713 -0.4271
   20MOL0     H 2637   0.536   5.605   6.158  1.0113 -3.6350 -1.9492
   20MOL0     H 2638   0.702   5.636   6.211 -0.7648  0.9326  0.2368
   20MOL0     H 2639   0.711   5.848   6.119 -0.4254 -0.3876  0.0278
   20MOL0     H 2640   0.600   5.804   5.984 -1.8749  0.6261 -0.0693
   20MOL0     H 2641   0.490   5.830   6.269  0.5474 -0.3779  0.1670
   20MOL0     H 2642   0.509   5.974   6.167 -1.4968  0.0945 -1.1834
   20MOL0     H 2643   0.378   5.902   5.997 -1.4007 -0.3894  0.0377
   20MOL0     H 2644   0.360   5.733   6.065 -1.6814  0.3008 -1.5820
   20MOL0     H 2645   0.217   5.824   6.237  0.0362 -1.6865 -1.1048
   20MOL0     H 2646   0.278   5.986   6.203  0.2464 -0.9326  0.5540
   20MOL0     H 2647   0.165   5.986   6.000  1.9879 -0.7148 -0.8634
   20MOL0     H 2648   0.142   5.807   5.988 -2.2849  0.5913 -0.5445
   20MOL0     H 2649  -0.039   5.861   6.196 -0.2268 -0.8007 -0.5299
   20MOL0     H 2650  -0.058   5.891   6.014 -0.0920  3.1395 -0.7639
   20MOL0     H 2651   0.018   6.063   6.348 -0.3436 -1.7786 -1.1918
   20MOL0     H 2652  -0.229   6.353   6.367  0.4058 -0.7054 -1.6396
   20MOL0     H 2653  -0.190   6.208   6.466 -1.1857  0.5811  0.3103
   20MOL0     H 2654   0.037   6.259   6.492 -0.2228  0.0647  1.9210
   20MOL0     H 2655  -0.060   6.385   6.571  2.7055 -1.6316  1.9990
   20MOL0     H 2656   0.141   6.377   6.347 -1.0916 -2.5038  2.2489
   20MOL0     H 2657   0.113   6.493   6.471  1.3557 -0.6884  0.0064
   20MOL0     H 2658  -0.052   6.463   6.209 -1.5327  2.4947 -0.4660
   20MOL0     H 2659   0.076   6.574   6.239 -0.5159  0.3238 -1.2964
   20MOL0     H 2660  -0.035   6.693   6.600  0.5823 -0.5956 -0.0022
   20MOL0     H 2661  -0.068   6.981   6.738 -0.0492 -0.4297 -1.3450
   20MOL0     H 2662   0.024   6.842   6.773 -0.7265  0.8805  0.7364
   20MOL0     H 2663   0.119   6.986   6.745  0.6778  0.5019  0.6860
   20MOL0     H 2664  -0.227   7.298   6.588  0.6316 -1.7827 -1.9465
   20MOL0     H 2665  -0.221   7.516   6.738  0.0208 -0.7998  0.1983
   20MOL0     H 2666   0.104   7.721   6.787  0.0628  0.2101  0.4421
   20MOL0     H 2667   0.010   7.869   6.769  2.7518 -1.3873 -4.8041
   20MOL0     H 2668  -0.130   7.798   6.965  0.1715  1.3871 -1.6367
   20MOL0     H 2669  -0.077   7.632   6.953  1.5974  0.1023 -1.6917
   20MOL0     H 2670   0.156   7.723   7.033  0.9512  1.0650  1.7942
   20MOL0     H 2671   0.026   7.739   7.148  0.1115 -5.5024 -1.2108
   20MOL0     H 2672   0.141   7.948   6.956  3.2659  0.5400  1.2007
   20MOL0     H 2673  -0.005   7.980   7.053 -0.7570 -0.9462 -0.5388
   20MOL0     H 2674   0.146   7.916   7.263  1.0557  0.0088 -0.1685
   20MOL0     H 2675   0.169   8.071   7.183 -0.0507  0.4170  2.4788
   20MOL0     H 2676   0.332   7.808   7.167  0.2641 -0.2581 -0.6294
   20MOL0     H 2677   0.356   7.936   7.051 -0.3037 -0.7941 -0.4756
   20MOL0     H 2678   0.380   7.954   7.357  1.9892  0.8452  1.7890
   20MOL0     H 2679   0.412   8.092   7.239  1.6156  0.0476 -3.9037
   20MOL0     H 2680   0.603   7.982   7.165  2.1248  1.1057  1.0291
   20MOL0     H 2681   0.547   7.824   7.239 -1.6340  0.5200  1.3186
   20MOL0     H 2682   0.137   7.639   6.555 -0.7318  2.3545 -0.6292
   20MOL0     H 2683   0.133   7.448   6.402 -0.1413 -0.5269 -1.7980
   20MOL0     H 2684   0.006   7.032   6.246  1.0608 -1.0438 -0.7239
   20MOL0     H 2685  -0.067   6.813   6.181  0.9460  2.0193 -0.7362
   20MOL0     H 2686   0.638   5.312   5.888 -1.3219  1.6561  1.9061
   20MOL0     H 2687   0.486   5.166   5.770  3.5716  1.3526 -0.3355
   20MOL0     H 2688   0.055   5.111   5.615  2.8571  1.4244 -1.0066
   20MOL0     H 2689  -0.116   4.954   5.501 -1.0443 -1.2567 -2.2591
   20MOL0     H 2690  -0.008   4.817   5.076 -1.8279 -0.6520 -2.0920
   20MOL0     H 2691  -0.150   4.733   5.107  1.1680 -1.4927  1.7469
   20MOL0     H 2692  -0.213   4.933   4.977  0.3198  3.5048 -0.6585
   20MOL0     H 2693  -0.075   5.013   5.040  0.2784  0.8676  0.7714
   20MOL0     H 2694  -0.278   5.122   5.121  0.1114  0.5128  3.7317
   20MOL0     H 2695  -0.213   5.037   5.259  2.3802 -0.1972  0.2349
   20MOL0     H 2696  -0.371   4.822   5.191 -3.7812 -0.8838  2.2348
   20MOL0     H 2697  -0.448   4.931   5.091 -1.3444 -1.4286  0.9922
   20MOL0     H 2698  -0.639   5.040   5.420 -1.1942 -0.9475  0.0762
   20MOL0     H 2699   0.143   4.938   5.157  1.8677 -1.4239  0.6873
   20MOL0     H 2700   0.297   5.098   5.265  1.3741 -1.5736  0.9908
   21MOL0     O 2701   1.833   3.162   6.014  0.4577  0.7246 -0.0773
   21MOL0     C 2702   1.720   3.146   6.052  0.6906 -0.4803  0.0348
   21MOL0     O 2703   1.615   3.121   5.972  0.6034  0.2373 -0.0749
   21MOL0     C 2704   1.631   3.068   5.847  0.2109 -1.0117  0.1447
   21MOL0     C 2705   1.561   3.134   5.738  0.4828  0.0465  0.2232
   21MOL0     C 2706   1.573   3.075   5.614 -0.9383 -0.2217  0.4249
   21MOL0     C 2707   1.667   2.970   5.580 -0.3041  0.7533  0.6364
   21MOL0     O 2708   1.690   2.926   5.451  0.1970 -0.7587 -0.2981
   21MOL0     C 2709   1.680   3.025   5.350 -0.0501  0.2148 -0.2407
   21MOL0     C 2710   1.724   2.973   5.217  0.1497 -1.2477 -0.3434
   21MOL0     C 2711   1.607   2.890   5.143 -0.2479  0.2648  0.0862
   21MOL0     C 2712   1.660   2.854   5.004 -0.2744 -0.3791 -0.2304
   21MOL0     C 2713   1.555   2.787   4.915  0.0631 -0.2506  0.7947
   21MOL0     C 2714   1.586   2.774   4.767  0.1724  0.1479 -0.5698
   21MOL0     C 2715   1.470   2.699   4.695  0.8740 -0.4648  0.7874
   21MOL0     C 2716   1.440   2.551   4.725  0.2072 -0.3951 -0.1668
   21MOL0     N 2717   1.548   2.462   4.703  1.0809 -0.0633  1.2147
   21MOL0     C 2718   1.617   2.445   4.581  0.0748 -0.0827 -0.7552
   21MOL0     C 2719   1.706   2.343   4.613 -0.2358 -0.0556 -0.8167
   21MOL0     C 2720   1.806   2.281   4.513 -0.6011  0.1971 -0.3981
   21MOL0     C 2721   1.896   2.385   4.447  0.7643 -0.3126  0.2490
   21MOL0     C 2722   1.962   2.476   4.545  0.3762  0.1303 -0.4359
   21MOL0     C 2723   2.063   2.418   4.639 -1.3116 -0.2385  0.1757
   21MOL0     O 2724   2.139   2.528   4.689  0.3428  0.0868 -0.1856
   21MOL0     C 2725   2.267   2.501   4.739 -0.1309 -0.5883  0.3688
   21MOL0     C 2726   2.352   2.612   4.756  0.2751  0.2208  0.6984
   21MOL0     C 2727   2.493   2.602   4.769  0.3064 -1.5323 -0.8468
   21MOL0     C 2728   2.567   2.733   4.780  0.7826  0.0562  0.1144
   21MOL0     C 2729   2.555   2.476   4.777  0.4588 -0.7171 -0.0218
   21MOL0     C 2730   2.693   2.446   4.812 -0.5238  0.1800 -0.2603
   21MOL0     O 2731   2.763   2.547   4.876 -0.1380  0.3679 -0.6558
   21MOL0     C 2732   2.902   2.519   4.895  0.2368  0.5219  0.3355
   21MOL0     C 2733   2.949   2.519   5.029  0.0588  0.2814  0.0362
   21MOL0     C 2734   3.079   2.504   5.061  0.1507  0.1218 -0.0282
   21MOL0     C 2735   3.164   2.486   4.950  0.5526  0.0303  0.2355
   21MOL0     O 2736   3.296   2.489   4.964  0.1433  0.5166  0.0159
   21MOL0     C 2737   3.362   2.568   5.069 -0.0231 -0.0820  0.7356
   21MOL0     C 2738   3.511   2.579   5.031 -0.6503  0.3513  0.7385
   21MOL0     C 2739   3.525   2.659   4.899  0.3671 -0.3596  0.0883
   21MOL0     C 2740   3.674   2.685   4.876 -0.0253  0.3477 -0.1923
   21MOL0     C 2741   3.742   2.786   4.979  0.3541 -0.1112 -0.2125
   21MOL0     C 2742   3.889   2.825   4.941  0.2688 -0.2978  0.8932
   21MOL0     C 2743   3.957   2.887   5.062  0.6786 -1.1309 -0.3551
   21MOL0     C 2744   3.931   3.035   5.072  0.3351  0.1589 -0.2521
   21MOL0    Cl 2745   3.989   3.132   4.930 -0.0504  0.3255  0.3378
   21MOL0     C 2746   3.129   2.491   4.824  0.3101  0.1844  0.3441
   21MOL0     C 2747   2.995   2.495   4.792  0.0363 -0.2427 -0.0197
   21MOL0     O 2748   2.735   2.338   4.780 -0.2842 -0.3169  0.0169
   21MOL0     C 2749   2.473   2.367   4.757  1.2002 -0.3861  0.0436
   21MOL0     C 2750   2.332   2.374   4.738 -0.4347  0.7256  0.2308
   21MOL0     N 2751   1.676   2.296   4.736  0.1399 -0.0885 -1.1916
   21MOL0     N 2752   1.586   2.367   4.792  0.4750 -0.1056  0.8129
   21MOL0     C 2753   1.752   2.928   5.686  0.5145  0.6592  0.1303
   21MOL0     C 2754   1.724   2.969   5.811  0.0686  0.0166  1.1468
   21MOL0     C 2755   1.692   3.190   6.186 -0.5686 -0.3591  1.3313
   21MOL0     C 2756   1.569   3.244   6.226  0.3983  0.2654  0.6751
   21MOL0     C 2757   1.560   3.308   6.355  0.6320  0.0641 -0.6270
   21MOL0     C 2758   1.670   3.308   6.439  0.3069 -0.1174  0.2541
   21MOL0     O 2759   1.636   3.370   6.560  0.5110  0.0635 -0.5703
   21MOL0     C 2760   1.745   3.449   6.616 -0.4506 -0.3101 -0.6326
   21MOL0     C 2761   1.788   3.563   6.520  0.5523  0.0749 -0.7338
   21MOL0     C 2762   1.879   3.670   6.588 -0.2126  0.5143 -0.7352
   21MOL0     C 2763   2.026   3.619   6.609 -0.0780 -0.5725  0.3633
   21MOL0     C 2764   2.027   3.535   6.730  0.1791  0.1896 -0.3099
   21MOL0     C 2765   2.033   3.465   6.827 -0.8074  0.6881 -0.0036
   21MOL0     C 2766   1.792   3.253   6.400  0.2240  0.3737 -0.1923
   21MOL0     C 2767   1.800   3.193   6.276  0.3993 -1.0194 -0.4225
   21MOL0     H 2768   1.495   3.218   5.758  0.1448  0.6324 -2.8582
   21MOL0     H 2769   1.525   3.117   5.527  3.4183  0.5112 -1.9033
   21MOL0     H 2770   1.577   3.063   5.347 -0.0369  0.4487  1.4092
   21MOL0     H 2771   1.736   3.117   5.365  0.0115  0.3621 -1.2508
   21MOL0     H 2772   1.754   3.061   5.160  1.2873 -2.2072 -1.2884
   21MOL0     H 2773   1.815   2.913   5.222  1.6134  0.8918 -0.0114
   21MOL0     H 2774   1.568   2.809   5.206  0.2064  0.1776  0.2558
   21MOL0     H 2775   1.518   2.954   5.135 -1.7173 -1.3145  2.4850
   21MOL0     H 2776   1.701   2.946   4.961  1.4301 -2.1757 -2.8114
   21MOL0     H 2777   1.744   2.784   5.013  0.9244  1.0048 -0.3245
   21MOL0     H 2778   1.539   2.691   4.965 -0.0558 -1.6059 -1.6863
   21MOL0     H 2779   1.463   2.845   4.924 -1.7703 -3.0986  1.5769
   21MOL0     H 2780   1.592   2.875   4.725 -0.1428  1.0303  1.4180
   21MOL0     H 2781   1.683   2.727   4.750  1.6466  1.9774  2.1103
   21MOL0     H 2782   1.376   2.750   4.715  0.9726 -0.9120  2.5293
   21MOL0     H 2783   1.482   2.718   4.588  1.3135  0.0456  0.9222
   21MOL0     H 2784   1.353   2.518   4.668 -3.0178  0.8625  3.6373
   21MOL0     H 2785   1.405   2.538   4.827  2.4771  2.0685  1.0569
   21MOL0     H 2786   1.605   2.491   4.483  0.8350 -2.4214 -2.0154
   21MOL0     H 2787   1.861   2.200   4.562  1.6159  0.0070 -3.0055
   21MOL0     H 2788   1.744   2.235   4.436 -0.5386  0.8320 -0.8367
   21MOL0     H 2789   1.844   2.446   4.372 -0.1669  0.9923  1.8792
   21MOL0     H 2790   1.971   2.322   4.398  0.8699  2.5426 -3.8187
   21MOL0     H 2791   1.898   2.542   4.604  1.3782  0.9307 -0.2076
   21MOL0     H 2792   2.015   2.548   4.481  1.5333  0.5984  0.9908
   21MOL0     H 2793   2.131   2.348   4.589 -0.7360  0.6064 -0.2420
   21MOL0     H 2794   2.027   2.375   4.733  1.6018 -1.3794  0.9063
   21MOL0     H 2795   2.304   2.708   4.742  1.5359  0.7464 -0.2810
   21MOL0     H 2796   2.665   2.734   4.732 -0.6856  0.2242 -3.1532
   21MOL0     H 2797   2.519   2.811   4.720  1.6571  0.1437 -0.4759
   21MOL0     H 2798   2.580   2.767   4.883 -1.3518 -0.9522  0.7829
   21MOL0     H 2799   2.866   2.537   5.097 -1.0628  2.6993 -1.7583
   21MOL0     H 2800   3.116   2.490   5.161  0.2695 -1.1941 -0.2454
   21MOL0     H 2801   3.318   2.668   5.082  2.7095  0.9874  2.5879
   21MOL0     H 2802   3.363   2.517   5.165 -1.1742 -0.1496  0.7317
   21MOL0     H 2803   3.560   2.628   5.115 -1.9767  0.4682  1.4698
   21MOL0     H 2804   3.543   2.474   5.025 -3.5035 -0.7203  2.3404
   21MOL0     H 2805   3.464   2.749   4.909 -1.0692 -1.4168  1.3284
   21MOL0     H 2806   3.476   2.603   4.819  1.6159 -1.5259  0.0916
   21MOL0     H 2807   3.719   2.585   4.878  0.9717  0.7946  0.6042
   21MOL0     H 2808   3.682   2.737   4.780 -1.7644  3.9393  1.4055
   21MOL0     H 2809   3.737   2.751   5.082 -0.4599  1.1143  0.1884
   21MOL0     H 2810   3.687   2.881   4.978  0.6852  0.1089 -2.0735
   21MOL0     H 2811   3.946   2.735   4.916  3.3318  1.5498  0.6609
   21MOL0     H 2812   3.885   2.889   4.852  1.0406 -1.7752 -0.2434
   21MOL0     H 2813   4.064   2.870   5.052  0.2445 -4.0483 -0.8621
   21MOL0     H 2814   3.932   2.844   5.160 -0.1676  0.2137  0.0520
   21MOL0     H 2815   3.980   3.074   5.161 -4.8004  0.4257  2.9006
   21MOL0     H 2816   3.826   3.061   5.091  0.5056  1.6661 -1.1806
   21MOL0     H 2817   3.204   2.478   4.747 -2.1753  3.1143 -2.9189
   21MOL0     H 2818   2.965   2.486   4.688 -2.5063 -3.0120  0.8116
   21MOL0     H 2819   2.511   2.266   4.763  1.2726 -0.2782  1.9942
   21MOL0     H 2820   2.279   2.281   4.720  0.3596  0.5795 -1.5380
   21MOL0     H 2821   1.822   2.851   5.656 -4.3512 -3.3179 -2.4759
   21MOL0     H 2822   1.783   2.929   5.893  1.9853  1.4299  0.5188
   21MOL0     H 2823   1.484   3.232   6.160  0.9506 -0.6011  0.0845
   21MOL0     H 2824   1.468   3.346   6.397  0.2420 -2.1394  0.6500
   21MOL0     H 2825   1.702   3.491   6.707  1.5240  2.1815 -0.7359
   21MOL0     H 2826   1.821   3.374   6.640 -0.0413 -0.0336 -1.0552
   21MOL0     H 2827   1.694   3.610   6.490  1.0491  0.7691 -1.2486
   21MOL0     H 2828   1.837   3.518   6.433 -1.2357  0.3702 -1.9456
   21MOL0     H 2829   1.841   3.694   6.688  3.0606  2.4321  0.2118
   21MOL0     H 2830   1.883   3.759   6.524  0.3249 -0.0507 -1.5030
   21MOL0     H 2831   2.097   3.700   6.627  0.4543 -0.8721 -0.3705
   21MOL0     H 2832   2.058   3.560   6.523  0.3785 -0.5832  0.5384
   21MOL0     H 2833   2.041   3.399   6.911 -2.9531 -0.2789 -0.4769
   21MOL0     H 2834   1.878   3.244   6.466  0.0031  1.6355  0.2892
   21MOL0     H 2835   1.896   3.152   6.248  0.3371 -0.4541 -1.5588
   22MOL0     O 2836   9.763   5.445   2.569 -0.6656  0.2112  0.0088
   22MOL0     C 2837   9.786   5.468   2.450 -0.0845 -0.2553 -0.0951
   22MOL0     O 2838   9.704   5.437   2.342 -0.0178  0.6502 -0.6157
   22MOL0     C 2839   9.581   5.374   2.357  0.0848 -0.2180  0.4112
   22MOL0     C 2840   9.517   5.310   2.247  0.0979 -1.2533  0.2639
   22MOL0     C 2841   9.405   5.230   2.253  0.0059 -0.0557 -0.0764
   22MOL0     C 2842   9.331   5.230   2.366  1.5352 -0.2631 -0.1224
   22MOL0     O 2843   9.210   5.160   2.377  0.2987 -0.8628  0.2264
   22MOL0     C 2844   9.109   5.197   2.268 -0.8892  0.3487 -0.3146
   22MOL0     C 2845   9.033   5.336   2.302 -1.1237  0.5527  0.8866
   22MOL0     C 2846   8.947   5.328   2.419  0.1670 -0.0061  0.4287
   22MOL0     C 2847   8.853   5.451   2.443  0.0739 -0.3397 -0.5585
   22MOL0     C 2848   8.735   5.412   2.531 -0.1641 -0.2220  0.3894
   22MOL0     C 2849   8.637   5.531   2.541 -0.6740 -0.2524 -0.2277
   22MOL0     C 2850   8.515   5.523   2.632 -0.1860  0.5276  0.4522
   22MOL0     C 2851   8.445   5.654   2.657 -0.4441  0.4604  0.0597
   22MOL0     N 2852   8.353   5.644   2.763  0.0134 -0.1013 -0.4002
   22MOL0     C 2853   8.215   5.663   2.757  0.2112  0.3697 -0.1122
   22MOL0     C 2854   8.171   5.684   2.880 -0.1882 -0.7604  0.0015
   22MOL0     C 2855   8.035   5.718   2.924  0.4122 -0.1838 -0.4322
   22MOL0     C 2856   7.921   5.614   2.882 -0.2391 -0.2561 -0.4622
   22MOL0     C 2857   7.927   5.478   2.949 -0.0458  0.8963  0.8529
   22MOL0     C 2858   7.812   5.379   2.920 -0.2621  0.6340  0.1532
   22MOL0     O 2859   7.710   5.403   3.012 -0.0865  0.1526 -0.1250
   22MOL0     C 2860   7.588   5.430   2.966  1.1647 -0.6725 -1.9871
   22MOL0     C 2861   7.492   5.414   3.067 -0.4718  0.1224 -0.5262
   22MOL0     C 2862   7.354   5.443   3.039 -0.0576  0.0477  0.3111
   22MOL0     C 2863   7.264   5.413   3.153  0.4285 -0.2667 -0.2823
   22MOL0     C 2864   7.317   5.486   2.910 -0.1581 -0.0474 -0.0631
   22MOL0     C 2865   7.187   5.497   2.859  0.1460  0.1075  0.6953
   22MOL0     O 2866   7.172   5.580   2.749 -0.3075  0.0928 -0.3938
   22MOL0     C 2867   7.058   5.588   2.675  0.6196 -0.4344 -0.5605
   22MOL0     C 2868   6.954   5.492   2.664  0.3215  0.1359  0.0158
   22MOL0     C 2869   6.842   5.510   2.589  0.5383 -0.2395 -0.5063
   22MOL0     C 2870   6.829   5.629   2.522 -0.1691 -0.4810 -0.0832
   22MOL0     O 2871   6.710   5.665   2.451 -0.0614 -0.5194 -0.0975
   22MOL0     C 2872   6.592   5.607   2.508  0.0374  1.0256 -0.2175
   22MOL0     C 2873   6.475   5.656   2.414  0.2403 -0.3412 -0.5145
   22MOL0     C 2874   6.342   5.631   2.489  0.7728  0.2595  0.2845
   22MOL0     C 2875   6.297   5.473   2.466  0.6454 -0.4852  0.7925
   22MOL0     C 2876   6.150   5.441   2.485 -0.1856 -0.3045  0.2512
   22MOL0     C 2877   6.114   5.294   2.481 -0.2666  0.5380 -0.5420
   22MOL0     C 2878   5.962   5.268   2.508 -0.7290  0.7188  0.6982
   22MOL0     C 2879   5.924   5.278   2.654 -0.1728 -0.0215  0.6138
   22MOL0    Cl 2880   5.753   5.319   2.676 -0.1424  0.1064  0.4251
   22MOL0     C 2881   6.922   5.731   2.537 -0.8285  0.5628 -0.3603
   22MOL0     C 2882   7.028   5.713   2.624 -0.7986 -0.5650  0.2440
   22MOL0     O 2883   7.098   5.432   2.914 -0.5645  0.0119 -0.0708
   22MOL0     C 2884   7.425   5.521   2.821  0.4190  0.0256 -0.0867
   22MOL0     C 2885   7.555   5.497   2.850 -0.3371 -0.2088 -0.5512
   22MOL0     N 2886   8.282   5.685   2.958  0.7883  0.1109 -0.1238
   22MOL0     N 2887   8.386   5.660   2.897 -0.4229 -0.0081 -1.2744
   22MOL0     C 2888   9.372   5.307   2.479 -0.3894 -0.3549 -0.0922
   22MOL0     C 2889   9.493   5.376   2.467 -0.3401 -0.4410  0.4920
   22MOL0     C 2890   9.921   5.529   2.411  0.3846 -0.7864 -0.6371
   22MOL0     C 2891   9.985   5.505   2.290 -0.6586 -0.4006  0.9773
   22MOL0     C 2892  10.104   5.568   2.260  0.4786 -1.7334 -0.0514
   22MOL0     C 2893  10.168   5.642   2.357 -0.6904 -0.3574 -0.1342
   22MOL0     O 2894  10.289   5.713   2.341 -0.0113 -0.1014  0.0652
   22MOL0     C 2895  10.325   5.757   2.213 -0.1256 -0.3475 -0.5429
   22MOL0     C 2896  10.402   5.888   2.231 -0.9756  0.1921 -0.4614
   22MOL0     C 2897  10.549   5.892   2.275 -0.3841 -0.7911  0.1467
   22MOL0     C 2898  10.594   6.038   2.292 -0.3602  0.5933  0.1578
   22MOL0     C 2899  10.732   6.044   2.328 -0.1199  0.7860 -0.5762
   22MOL0     C 2900  10.854   6.063   2.332  0.0169 -0.2271 -0.3279
   22MOL0     C 2901  10.111   5.670   2.479  0.5590 -1.2653  0.2684
   22MOL0     C 2902   9.987   5.615   2.501  0.6641 -0.0058  0.5191
   22MOL0     H 2903   9.577   5.298   2.157 -0.7684  0.0108 -0.5094
   22MOL0     H 2904   9.372   5.179   2.162 -2.8994  1.3887  0.0627
   22MOL0     H 2905   9.154   5.190   2.169  2.2158  0.3110  0.9743
   22MOL0     H 2906   9.030   5.122   2.271  1.0134 -1.8722 -1.9527
   22MOL0     H 2907   9.112   5.412   2.306  3.3969 -3.2067 -3.2412
   22MOL0     H 2908   8.971   5.353   2.213  0.1494  1.2614  0.1035
   22MOL0     H 2909   8.883   5.241   2.406 -1.7069  1.1371  1.5269
   22MOL0     H 2910   9.004   5.299   2.508 -0.5456  1.6620  1.4766
   22MOL0     H 2911   8.909   5.531   2.492  0.8970 -0.0450 -1.9365
   22MOL0     H 2912   8.824   5.490   2.345  0.6368  1.3419 -0.0885
   22MOL0     H 2913   8.675   5.330   2.491  0.0314 -0.4213  0.5086
   22MOL0     H 2914   8.779   5.392   2.629  0.7231 -1.2375 -0.1985
   22MOL0     H 2915   8.696   5.616   2.579 -0.4296 -0.3677 -0.3488
   22MOL0     H 2916   8.616   5.558   2.437 -2.0569  0.7282  0.2847
   22MOL0     H 2917   8.442   5.454   2.588  1.1565 -0.7742  0.1944
   22MOL0     H 2918   8.547   5.483   2.729  0.0009 -2.2201 -0.6597
   22MOL0     H 2919   8.400   5.680   2.560 -1.5358  0.7872  0.6444
   22MOL0     H 2920   8.517   5.729   2.691  0.1472 -0.5052  0.9898
   22MOL0     H 2921   8.146   5.671   2.673  2.8535  3.1594 -2.2027
   22MOL0     H 2922   8.024   5.740   3.031 -1.8320  0.1339 -0.6729
   22MOL0     H 2923   8.006   5.809   2.871  0.8938  0.8900  1.0681
   22MOL0     H 2924   7.939   5.591   2.777  2.6316 -0.8939  0.0750
   22MOL0     H 2925   7.823   5.658   2.901  0.2756  1.1905 -1.0588
   22MOL0     H 2926   7.917   5.489   3.057 -0.0472 -1.1318  1.0886
   22MOL0     H 2927   8.020   5.432   2.918 -2.4548 -2.2035 -2.6590
   22MOL0     H 2928   7.851   5.283   2.957  2.2135  1.1632 -0.8507
   22MOL0     H 2929   7.787   5.368   2.814 -2.4940  1.7038  0.5276
   22MOL0     H 2930   7.529   5.382   3.163 -0.0678  2.7190  0.2704
   22MOL0     H 2931   7.212   5.509   3.164 -0.1811 -0.8063  1.8582
   22MOL0     H 2932   7.190   5.337   3.127 -1.2066  2.1402 -3.4792
   22MOL0     H 2933   7.320   5.385   3.242 -2.6427 -1.2939  1.4620
   22MOL0     H 2934   6.953   5.397   2.717 -0.9456  0.5257  0.7254
   22MOL0     H 2935   6.776   5.424   2.595 -0.3153  0.4694  0.5035
   22MOL0     H 2936   6.596   5.499   2.518 -1.3501  0.6345 -3.0453
   22MOL0     H 2937   6.577   5.638   2.612  2.3968 -3.0586  1.5731
   22MOL0     H 2938   6.485   5.763   2.399 -0.4172 -0.2172 -0.1004
   22MOL0     H 2939   6.478   5.616   2.312 -0.4131 -0.1769 -0.5958
   22MOL0     H 2940   6.267   5.698   2.445 -0.5652 -1.8513 -0.7973
   22MOL0     H 2941   6.340   5.655   2.596 -1.2135 -2.0696  0.8443
   22MOL0     H 2942   6.312   5.432   2.366 -2.8499 -1.6254  0.5817
   22MOL0     H 2943   6.359   5.425   2.542  2.2897 -0.6451 -0.6012
   22MOL0     H 2944   6.090   5.483   2.403 -0.1890  0.8535  0.8324
   22MOL0     H 2945   6.126   5.489   2.580 -1.4765  1.7677 -1.0372
   22MOL0     H 2946   6.136   5.255   2.382 -3.9342 -1.4965 -0.7413
   22MOL0     H 2947   6.178   5.254   2.561 -0.3583  2.7603  0.7338
   22MOL0     H 2948   5.934   5.168   2.473  0.9510 -0.2075  1.8491
   22MOL0     H 2949   5.913   5.340   2.441 -0.4137  0.8079  0.5593
   22MOL0     H 2950   5.973   5.364   2.700 -1.9763  0.2042  2.2409
   22MOL0     H 2951   5.955   5.190   2.711  0.9747 -0.0597 -0.0381
   22MOL0     H 2952   6.905   5.823   2.483  1.0602 -0.1975 -2.3916
   22MOL0     H 2953   7.104   5.791   2.630 -1.2727 -0.2038  2.1508
   22MOL0     H 2954   7.409   5.577   2.729 -1.4058  3.2411  1.9568
   22MOL0     H 2955   7.623   5.527   2.770  0.1966 -1.8883 -0.7729
   22MOL0     H 2956   9.312   5.322   2.568  0.2653 -0.2298  0.3367
   22MOL0     H 2957   9.522   5.439   2.550  0.6233 -0.4948  0.2154
   22MOL0     H 2958   9.940   5.435   2.220 -0.4660 -0.1355  0.5855
   22MOL0     H 2959  10.157   5.550   2.168  0.9022 -2.4958  0.3312
   22MOL0     H 2960  10.376   5.680   2.154 -1.0217 -1.8764  0.6079
   22MOL0     H 2961  10.227   5.777   2.168  0.3463 -1.2841 -2.0695
   22MOL0     H 2962  10.346   5.944   2.307 -1.3816 -0.4549 -0.2766
   22MOL0     H 2963  10.392   5.947   2.140 -1.8485 -1.3820 -1.4239
   22MOL0     H 2964  10.603   5.845   2.192  3.6080 -0.3669  2.2952
   22MOL0     H 2965  10.576   5.825   2.356  2.7224 -1.2365 -1.1192
   22MOL0     H 2966  10.544   6.093   2.372  1.3074 -1.3262  2.6814
   22MOL0     H 2967  10.594   6.096   2.200 -2.6453  1.0656  0.3926
   22MOL0     H 2968  10.958   6.086   2.337  0.8265 -3.4246  0.1151
   22MOL0     H 2969  10.158   5.742   2.544  0.2673 -0.4017 -0.4519
   22MOL0     H 2970   9.941   5.635   2.598  1.9982  0.1306  1.1464
   23MOL0     O 2971   8.265   5.825   4.704  0.0618  0.6390  0.4818
   23MOL0     C 2972   8.241   5.784   4.823  0.1858 -1.6079  0.9348
   23MOL0     O 2973   8.298   5.675   4.891  0.2037  0.1616  0.0901
   23MOL0     C 2974   8.391   5.602   4.825 -0.0136 -0.2371 -0.1686
   23MOL0     C 2975   8.360   5.485   4.759  0.2925 -0.9011 -0.6599
   23MOL0     C 2976   8.456   5.410   4.689 -0.8284 -0.0688 -0.4938
   23MOL0     C 2977   8.590   5.454   4.684 -0.8262 -0.1063 -1.2084
   23MOL0     O 2978   8.680   5.378   4.608  0.3637 -0.5097  0.4467
   23MOL0     C 2979   8.824   5.414   4.619 -0.3847 -0.6547  0.4713
   23MOL0     C 2980   8.899   5.349   4.502 -0.3589 -0.1359  0.7250
   23MOL0     C 2981   8.894   5.201   4.484  0.3930 -0.4938 -1.1717
   23MOL0     C 2982   8.779   5.148   4.394 -0.8914 -0.7564  0.5826
   23MOL0     C 2983   8.822   5.171   4.246 -0.5460  0.8403 -0.1731
   23MOL0     C 2984   8.701   5.139   4.164  0.0894  0.5974 -0.2996
   23MOL0     C 2985   8.719   5.157   4.009 -0.1219  0.0108  0.6942
   23MOL0     C 2986   8.603   5.091   3.927  0.4899  0.0850 -0.4098
   23MOL0     N 2987   8.469   5.151   3.956  0.0002  0.5257  0.1881
   23MOL0     C 2988   8.402   5.111   4.064  1.1768 -0.5612  0.2917
   23MOL0     C 2989   8.279   5.172   4.067  0.5311  0.5683 -0.4970
   23MOL0     C 2990   8.179   5.162   4.180 -0.1802 -0.5338  0.8743
   23MOL0     C 2991   8.087   5.282   4.197  0.2750 -0.4733 -1.3041
   23MOL0     C 2992   8.146   5.417   4.246  0.9324 -0.1303  0.7591
   23MOL0     C 2993   8.043   5.517   4.267  0.5320  0.4645  0.2861
   23MOL0     O 2994   8.087   5.642   4.326  0.0010  0.0812 -0.5395
   23MOL0     C 2995   7.985   5.727   4.346  0.5792 -0.2362 -0.1223
   23MOL0     C 2996   8.007   5.827   4.432 -0.0111  0.5385 -0.6136
   23MOL0     C 2997   7.913   5.919   4.471 -0.7182  0.3914  0.0755
   23MOL0     C 2998   7.979   6.028   4.565 -0.5108  0.0138 -0.3948
   23MOL0     C 2999   7.781   5.907   4.424 -0.3994 -0.6269 -0.6053
   23MOL0     C 3000   7.676   5.999   4.472 -0.3301  0.1331 -0.3293
   23MOL0     O 3001   7.554   5.964   4.436  0.0225  0.1922  0.3351
   23MOL0     C 3002   7.437   6.042   4.441 -0.8410 -0.6548  0.2442
   23MOL0     C 3003   7.339   6.049   4.343  0.0294 -0.0883 -0.1325
   23MOL0     C 3004   7.234   6.142   4.347  0.3149  0.2948  0.2229
   23MOL0     C 3005   7.216   6.220   4.458 -0.1300  0.2892 -0.5504
   23MOL0     O 3006   7.124   6.318   4.483 -0.5335  0.0699  0.1692
   23MOL0     C 3007   7.016   6.352   4.395 -0.2546 -0.4353  0.9322
   23MOL0     C 3008   6.901   6.254   4.389 -0.2689  0.0261  0.8676
   23MOL0     C 3009   6.804   6.275   4.271  1.0391  0.2333 -0.3820
   23MOL0     C 3010   6.714   6.151   4.262  0.1204  0.8806 -0.0334
   23MOL0     C 3011   6.612   6.180   4.146  0.6253 -0.3813  0.3701
   23MOL0     C 3012   6.587   6.045   4.071  0.4743 -0.3206 -0.9968
   23MOL0     C 3013   6.494   5.954   4.157  0.2135 -0.2876  0.6594
   23MOL0     C 3014   6.425   5.834   4.079  0.1323 -1.1675 -0.4805
   23MOL0    Cl 3015   6.548   5.719   4.065  0.2681  0.4507  0.0911
   23MOL0     C 3016   7.306   6.213   4.562 -0.2514 -0.1265 -0.3004
   23MOL0     C 3017   7.420   6.123   4.552  0.0711 -0.7003 -0.5583
   23MOL0     O 3018   7.698   6.115   4.512 -0.5180 -0.0162 -0.7286
   23MOL0     C 3019   7.748   5.804   4.331 -0.2421 -0.2711 -0.2513
   23MOL0     C 3020   7.856   5.718   4.287  0.4054 -0.6233 -0.2015
   23MOL0     N 3021   8.272   5.244   3.949  0.3343 -0.2386  0.0203
   23MOL0     N 3022   8.390   5.238   3.882  0.0978 -0.3667  0.5041
   23MOL0     C 3023   8.624   5.561   4.763 -0.2049 -0.0423 -0.4366
   23MOL0     C 3024   8.522   5.637   4.834 -0.2107 -0.4718  0.2387
   23MOL0     C 3025   8.156   5.865   4.917  0.8605  0.4336  0.3800
   23MOL0     C 3026   8.118   5.830   5.047 -0.7551 -0.5548 -0.1018
   23MOL0     C 3027   8.042   5.912   5.130 -0.9758  1.4189  0.4580
   23MOL0     C 3028   8.007   6.041   5.093 -0.3363 -1.1609 -0.5846
   23MOL0     O 3029   7.944   6.120   5.195  0.0211  0.0984 -0.0963
   23MOL0     C 3030   7.943   6.259   5.192 -0.3676 -0.0257  0.1212
   23MOL0     C 3031   7.908   6.323   5.327  0.4818 -0.3253  1.2868
   23MOL0     C 3032   7.787   6.268   5.397 -1.2323  0.1144  0.2602
   23MOL0     C 3033   7.664   6.260   5.306 -0.2042 -0.0482  0.2987
   23MOL0     C 3034   7.630   6.400   5.268 -0.6271  0.6607 -0.2692
   23MOL0     C 3035   7.571   6.502   5.233  0.1962  0.6556 -1.4214
   23MOL0     C 3036   8.045   6.077   4.969  0.4051 -0.2588 -0.0628
   23MOL0     C 3037   8.120   5.996   4.885 -0.4645 -0.0639 -0.2903
   23MOL0     H 3038   8.257   5.453   4.745  0.3941 -0.6190 -2.2174
   23MOL0     H 3039   8.445   5.316   4.637  0.3563 -1.3691  1.4963
   23MOL0     H 3040   8.839   5.522   4.613 -1.2312 -0.5595 -0.1082
   23MOL0     H 3041   8.862   5.371   4.712  1.3950  0.1688  0.1645
   23MOL0     H 3042   8.871   5.408   4.414  2.3685  1.4364  0.7803
   23MOL0     H 3043   9.004   5.370   4.524 -0.5018  1.7865 -0.1841
   23MOL0     H 3044   8.996   5.174   4.455  1.4928  1.4783  0.6067
   23MOL0     H 3045   8.868   5.163   4.584 -1.3415  0.4608 -1.2177
   23MOL0     H 3046   8.753   5.044   4.418 -0.0342 -1.0520  0.2963
   23MOL0     H 3047   8.692   5.209   4.418 -0.0281  1.4053 -1.3296
   23MOL0     H 3048   8.850   5.275   4.228  2.2484  0.3017  0.6820
   23MOL0     H 3049   8.901   5.102   4.218 -2.5970 -1.9806  0.5254
   23MOL0     H 3050   8.662   5.039   4.184  0.8247 -0.1440 -2.2743
   23MOL0     H 3051   8.619   5.199   4.204 -1.5084 -1.9445  0.4842
   23MOL0     H 3052   8.725   5.265   3.990  0.8468 -0.1641 -0.0010
   23MOL0     H 3053   8.817   5.121   3.977 -0.2389  0.4539 -0.1844
   23MOL0     H 3054   8.596   4.992   3.972 -1.7935 -0.2326 -1.3366
   23MOL0     H 3055   8.619   5.086   3.819  0.7289  0.3690 -0.3888
   23MOL0     H 3056   8.441   5.050   4.145 -0.7093  0.8768  2.4200
   23MOL0     H 3057   8.116   5.074   4.167  1.6684 -1.5130 -3.4174
   23MOL0     H 3058   8.233   5.148   4.274  0.1544  0.1509  0.7929
   23MOL0     H 3059   8.010   5.248   4.266  1.2164  0.5874  0.3304
   23MOL0     H 3060   8.048   5.297   4.096  3.5942  1.2956 -2.4751
   23MOL0     H 3061   8.227   5.458   4.185  1.3146 -0.8391  0.7676
   23MOL0     H 3062   8.191   5.378   4.338  1.1505 -2.6876 -0.3424
   23MOL0     H 3063   7.960   5.472   4.323  1.1096 -1.1001 -0.0464
   23MOL0     H 3064   8.012   5.538   4.164  1.0742  0.4643  0.1184
   23MOL0     H 3065   8.111   5.835   4.464  0.2671 -2.6976 -0.4034
   23MOL0     H 3066   8.078   5.999   4.599  0.3450 -1.0807 -3.5226
   23MOL0     H 3067   7.987   6.121   4.506  0.1490  0.2161  0.0130
   23MOL0     H 3068   7.920   6.050   4.655 -0.2270  2.3523 -0.6971
   23MOL0     H 3069   7.348   5.981   4.260 -2.4340  2.4501 -2.6954
   23MOL0     H 3070   7.165   6.159   4.265 -0.9966 -0.9973  1.0071
   23MOL0     H 3071   6.970   6.447   4.424 -2.7684 -1.4681  0.6028
   23MOL0     H 3072   7.057   6.382   4.298 -0.1583  0.4289  1.2305
   23MOL0     H 3073   6.945   6.154   4.387  2.3656  1.1203 -1.4480
   23MOL0     H 3074   6.839   6.261   4.479 -1.1523  1.1172  0.2055
   23MOL0     H 3075   6.865   6.291   4.182  0.2501  0.3383 -0.9125
   23MOL0     H 3076   6.745   6.367   4.278 -0.5228 -0.6394 -1.4598
   23MOL0     H 3077   6.780   6.072   4.225 -0.3506  0.4406  0.0550
   23MOL0     H 3078   6.670   6.123   4.358 -1.2633  0.3053 -0.7994
   23MOL0     H 3079   6.638   6.248   4.065  0.6740 -1.0464 -0.1860
   23MOL0     H 3080   6.518   6.217   4.188  0.7486  0.3345  0.0280
   23MOL0     H 3081   6.536   6.077   3.980 -0.2237  2.4485  0.2455
   23MOL0     H 3082   6.681   5.997   4.044  0.6276 -0.0993 -0.8609
   23MOL0     H 3083   6.412   6.019   4.189  0.0389  0.7715 -1.7203
   23MOL0     H 3084   6.552   5.915   4.241  2.6259 -0.7743 -1.1278
   23MOL0     H 3085   6.379   5.866   3.985 -1.2894 -0.1229  0.5301
   23MOL0     H 3086   6.351   5.787   4.144  2.8261 -3.0120  1.4941
   23MOL0     H 3087   7.304   6.275   4.651 -0.8723  2.0880 -1.7800
   23MOL0     H 3088   7.485   6.105   4.637  1.0197  2.2999 -0.5168
   23MOL0     H 3089   7.650   5.807   4.284  0.6726 -0.3290 -2.2389
   23MOL0     H 3090   7.829   5.654   4.204  2.9700  0.2537 -1.8093
   23MOL0     H 3091   8.726   5.597   4.772  0.6684 -0.5858 -5.3551
   23MOL0     H 3092   8.546   5.723   4.895  0.8102 -0.5164 -0.0886
   23MOL0     H 3093   8.158   5.734   5.076 -0.3515 -0.4580 -0.3321
   23MOL0     H 3094   8.004   5.872   5.223 -2.6055  0.5918 -0.5237
   23MOL0     H 3095   8.043   6.294   5.166  0.5260 -2.8121 -0.5266
   23MOL0     H 3096   7.865   6.293   5.125 -1.0863 -0.7005  0.5956
   23MOL0     H 3097   7.888   6.430   5.311  0.6055 -0.1247  2.3972
   23MOL0     H 3098   7.987   6.315   5.401  1.4869 -2.0010  0.0884
   23MOL0     H 3099   7.753   6.333   5.478 -0.2629 -0.6687  1.3205
   23MOL0     H 3100   7.809   6.173   5.447  1.8886  0.4720 -0.2661
   23MOL0     H 3101   7.588   6.213   5.370  0.7725 -2.4265 -0.1749
   23MOL0     H 3102   7.688   6.194   5.222  0.6832 -0.6851  1.0305
   23MOL0     H 3103   7.532   6.596   5.202 -0.1320  0.8833 -0.3685
   23MOL0     H 3104   8.009   6.173   4.932  2.1480  0.0291 -1.1149
   23MOL0     H 3105   8.138   6.053   4.795  0.3133  1.6654  0.8986
   24MOL0     O 3106   6.607  11.279   9.120  0.1108  0.0450  0.6536
   24MOL0     C 3107   6.589  11.292   8.999 -0.3839  0.0907 -0.4588
   24MOL0     O 3108   6.509  11.382   8.947  0.4784 -0.2803  0.1836
   24MOL0     C 3109   6.435  11.463   9.034  0.8726  0.3481  0.1107
   24MOL0     C 3110   6.328  11.408   9.116  0.4527 -0.4156 -0.6707
   24MOL0     C 3111   6.230  11.484   9.179  0.1078  0.0303 -0.0453
   24MOL0     C 3112   6.233  11.622   9.162 -0.1488  0.3719  0.0107
   24MOL0     O 3113   6.146  11.708   9.215 -0.2183  0.4170  1.2633
   24MOL0     C 3114   6.009  11.682   9.223  0.1363 -0.1151  0.5863
   24MOL0     C 3115   5.941  11.819   9.230 -0.0111  0.1208 -0.4785
   24MOL0     C 3116   5.795  11.807   9.268  0.4257 -0.5878  0.1022
   24MOL0     C 3117   5.737  11.943   9.303 -1.1027  0.7286  0.2133
   24MOL0     C 3118   5.607  11.925   9.360 -0.2920 -0.8955  0.2606
   24MOL0     C 3119   5.530  12.066   9.347  0.1419 -0.3257 -0.3546
   24MOL0     C 3120   5.382  12.047   9.399 -1.3199 -0.0519 -0.6171
   24MOL0     C 3121   5.279  11.980   9.316 -1.0088  0.0878 -0.0665
   24MOL0     N 3122   5.144  11.956   9.384  0.0055  0.4585  0.2929
   24MOL0     C 3123   5.038  12.037   9.389 -0.9833  0.6274 -0.0450
   24MOL0     C 3124   4.944  11.967   9.457 -0.1642  0.3445  0.2014
   24MOL0     C 3125   4.802  12.007   9.475 -0.7415  0.7365 -0.7098
   24MOL0     C 3126   4.715  11.973   9.354 -0.3993 -0.9049  0.0246
   24MOL0     C 3127   4.566  12.022   9.366  0.3848 -0.2282  0.4950
   24MOL0     C 3128   4.478  11.924   9.441 -0.0915 -0.1661 -0.2949
   24MOL0     O 3129   4.341  11.950   9.419  0.0366 -0.5795 -0.1119
   24MOL0     C 3130   4.251  11.857   9.454  0.5575  0.5539 -0.0958
   24MOL0     C 3131   4.127  11.846   9.390  0.0918  0.2341  0.4836
   24MOL0     C 3132   4.013  11.776   9.435  0.0317 -0.1746 -0.1113
   24MOL0     C 3133   3.882  11.789   9.360  0.2734  0.5677 -0.0843
   24MOL0     C 3134   4.034  11.690   9.549 -0.7908 -0.5296 -0.0488
   24MOL0     C 3135   3.925  11.615   9.620  0.2732  0.8427 -0.9778
   24MOL0     O 3136   3.949  11.589   9.753 -0.3681  0.1741  0.2002
   24MOL0     C 3137   3.859  11.522   9.829  0.0209 -0.0706  0.3936
   24MOL0     C 3138   3.912  11.433   9.922 -0.7607 -0.7612  0.0433
   24MOL0     C 3139   3.837  11.405  10.039 -0.7520  0.7225  0.8317
   24MOL0     C 3140   3.707  11.444  10.047  0.2425 -0.0882 -1.0504
   24MOL0     O 3141   3.640  11.418  10.159  0.0057  0.1936  0.1275
   24MOL0     C 3142   3.617  11.278  10.169  0.1296 -0.0546  0.9211
   24MOL0     C 3143   3.535  11.235  10.291 -0.6889 -0.6406  0.9529
   24MOL0     C 3144   3.522  11.078  10.309 -0.3690 -0.8554 -0.2639
   24MOL0     C 3145   3.609  11.019  10.429  0.5815  0.4121  0.8542
   24MOL0     C 3146   3.748  11.071  10.449 -0.4697 -0.1887 -0.4583
   24MOL0     C 3147   3.834  10.977  10.531 -0.3526  0.5389 -0.1676
   24MOL0     C 3148   3.987  11.005  10.523  0.6785  0.2909  0.6555
   24MOL0     C 3149   4.059  10.910  10.425  0.6166 -0.4627 -0.0063
   24MOL0    Cl 3150   4.211  10.989  10.342 -0.5067  0.7762  0.3327
   24MOL0     C 3151   3.648  11.529   9.952  0.3816  1.0444 -0.0572
   24MOL0     C 3152   3.730  11.567   9.846  0.6143 -0.1565 -0.5222
   24MOL0     O 3153   3.816  11.597   9.558 -0.2618  0.4659 -0.4494
   24MOL0     C 3154   4.167  11.682   9.592 -0.0147  0.0697 -0.2142
   24MOL0     C 3155   4.266  11.771   9.556 -0.4172 -0.2723  0.4438
   24MOL0     N 3156   5.001  11.841   9.488  0.6452  0.0730 -0.2837
   24MOL0     N 3157   5.116  11.840   9.441  0.0849  0.1830 -1.5528
   24MOL0     C 3158   6.322  11.670   9.072 -0.4716 -0.6001 -0.2872
   24MOL0     C 3159   6.425  11.596   9.010  0.1907 -0.2683 -0.2126
   24MOL0     C 3160   6.676  11.227   8.896 -0.0408  0.2559 -0.0161
   24MOL0     C 3161   6.625  11.215   8.763 -0.3933 -0.9490 -0.0799
   24MOL0     C 3162   6.707  11.178   8.653 -0.5072 -0.4029 -0.7019
   24MOL0     C 3163   6.842  11.139   8.675 -0.5231 -0.3980  0.1157
   24MOL0     O 3164   6.923  11.116   8.564  0.5730 -0.4000 -0.8144
   24MOL0     C 3165   7.066  11.098   8.574 -0.3146  0.3607 -0.2003
   24MOL0     C 3166   7.094  10.944   8.572 -0.3537 -0.8073 -0.0750
   24MOL0     C 3167   7.227  10.911   8.652  0.4212  0.1337  0.7178
   24MOL0     C 3168   7.249  10.766   8.683  0.6265  0.0172 -0.9389
   24MOL0     C 3169   7.344  10.748   8.798 -0.1289 -0.8509 -0.3551
   24MOL0     C 3170   7.413  10.742   8.899  0.5981 -0.5683 -1.2522
   24MOL0     C 3171   6.893  11.141   8.809  0.0538 -0.2118 -0.7740
   24MOL0     C 3172   6.809  11.183   8.913 -0.1837 -0.7023 -0.2421
   24MOL0     H 3173   6.339  11.301   9.133 -0.2952  0.0180  3.4867
   24MOL0     H 3174   6.145  11.443   9.232 -0.6885 -1.1852 -2.1419
   24MOL0     H 3175   5.971  11.633   9.133  0.7202 -1.8422  1.2337
   24MOL0     H 3176   5.984  11.613   9.305 -0.3807 -0.5625  0.0596
   24MOL0     H 3177   5.985  11.880   9.309 -0.9850  0.2619 -0.0199
   24MOL0     H 3178   5.963  11.880   9.142  2.5851  1.0289  0.7085
   24MOL0     H 3179   5.741  11.765   9.183  1.0725  2.3658 -1.9026
   24MOL0     H 3180   5.784  11.737   9.352 -1.1797 -2.7765 -1.8072
   24MOL0     H 3181   5.804  11.987   9.378  1.2127 -3.8966  1.2369
   24MOL0     H 3182   5.746  12.007   9.215 -0.6043  1.3232  0.6864
   24MOL0     H 3183   5.556  11.851   9.298 -1.1674  1.5250 -2.1127
   24MOL0     H 3184   5.597  11.895   9.465 -0.6743  2.5971  1.3777
   24MOL0     H 3185   5.580  12.143   9.406  2.1195 -3.0084  1.7591
   24MOL0     H 3186   5.519  12.110   9.247 -0.1477 -3.3953 -1.7977
   24MOL0     H 3187   5.391  11.992   9.493 -1.3294  0.2260 -0.4505
   24MOL0     H 3188   5.343  12.147   9.422 -1.4430 -0.7501  2.7632
   24MOL0     H 3189   5.318  11.886   9.277 -0.6519  1.6984 -4.1167
   24MOL0     H 3190   5.263  12.026   9.218  0.7796 -2.4740 -1.6760
   24MOL0     H 3191   5.026  12.140   9.358 -1.0322  1.9743  3.8812
   24MOL0     H 3192   4.767  11.947   9.560  0.7143  1.7299  0.6360
   24MOL0     H 3193   4.795  12.109   9.514  2.8625  0.8012  0.1551
   24MOL0     H 3194   4.725  11.864   9.342 -2.0778 -1.0247 -0.5483
   24MOL0     H 3195   4.766  12.021   9.270  0.1399 -2.2538 -0.4592
   24MOL0     H 3196   4.527  12.030   9.265  2.6501 -1.4184 -0.5647
   24MOL0     H 3197   4.558  12.125   9.402 -0.9892 -0.4461  0.8583
   24MOL0     H 3198   4.506  11.926   9.547  0.3245 -1.8504 -0.3360
   24MOL0     H 3199   4.491  11.826   9.394  2.2775  1.8659 -4.3823
   24MOL0     H 3200   4.114  11.923   9.314 -0.1183  0.0881  0.3674
   24MOL0     H 3201   3.853  11.689   9.328  0.8301 -0.3942  2.2028
   24MOL0     H 3202   3.804  11.816   9.433 -1.6698 -3.5813 -0.3169
   24MOL0     H 3203   3.887  11.855   9.273 -1.2196  1.6676  0.5988
   24MOL0     H 3204   4.018  11.416   9.913 -0.4762  1.8073 -3.0379
   24MOL0     H 3205   3.879  11.348  10.121  2.3955 -0.2666 -1.2588
   24MOL0     H 3206   3.574  11.236  10.078  1.0344  1.7347 -0.3887
   24MOL0     H 3207   3.705  11.214  10.181 -1.4952 -2.5499  0.2140
   24MOL0     H 3208   3.580  11.284  10.377 -0.1483  0.1588  0.2331
   24MOL0     H 3209   3.435  11.278  10.293  0.0314  1.0713  2.0607
   24MOL0     H 3210   3.557  11.034  10.215 -3.6545  0.4063 -2.2558
   24MOL0     H 3211   3.421  11.039  10.325 -1.4779  1.1489 -1.8966
   24MOL0     H 3212   3.549  11.021  10.520 -4.4970 -0.1135 -2.0845
   24MOL0     H 3213   3.606  10.914  10.397 -0.8383  1.0036 -1.1234
   24MOL0     H 3214   3.757  11.169  10.496  0.4518 -0.2700 -0.4426
   24MOL0     H 3215   3.797  11.069  10.351 -0.9582  0.0807 -0.7144
   24MOL0     H 3216   3.805  10.984  10.636 -0.0543 -4.2684  0.4435
   24MOL0     H 3217   3.815  10.873  10.505  1.4226  0.6155 -2.0175
   24MOL0     H 3218   4.033  11.001  10.622  0.0078 -0.6071  0.9512
   24MOL0     H 3219   4.002  11.108  10.490 -1.5403  0.1705 -0.9396
   24MOL0     H 3220   3.997  10.873  10.344  1.1435  0.9047 -1.0804
   24MOL0     H 3221   4.093  10.823  10.481 -1.4494 -1.2932  0.0359
   24MOL0     H 3222   3.550  11.576   9.958  1.4336  3.2402  0.6279
   24MOL0     H 3223   3.687  11.634   9.772  1.1774  2.7501  1.5956
   24MOL0     H 3224   4.196  11.603   9.660 -0.6594 -0.1902 -0.2314
   24MOL0     H 3225   4.363  11.774   9.603 -0.9813  0.5863  1.5923
   24MOL0     H 3226   6.314  11.774   9.043 -0.0218 -0.2441  0.8111
   24MOL0     H 3227   6.501  11.651   8.954 -2.1067  1.5042 -1.7821
   24MOL0     H 3228   6.523  11.247   8.747  0.0319  1.6876  1.7859
   24MOL0     H 3229   6.687  11.195   8.548  2.9777 -0.8271 -1.5462
   24MOL0     H 3230   7.108  11.138   8.481 -0.4431 -1.5871 -1.1468
   24MOL0     H 3231   7.122  11.153   8.650 -0.1713  2.3642 -1.6772
   24MOL0     H 3232   7.094  10.909   8.468 -4.3435  1.7290 -1.1576
   24MOL0     H 3233   7.016  10.892   8.628 -1.6902  1.0457 -0.1362
   24MOL0     H 3234   7.230  10.974   8.741 -2.6218  1.3358  0.0954
   24MOL0     H 3235   7.311  10.945   8.591  0.6057 -0.6635  0.5064
   24MOL0     H 3236   7.289  10.719   8.593 -0.5441 -1.5202 -0.6993
   24MOL0     H 3237   7.164  10.714   8.728  2.7614  0.0106  3.6854
   24MOL0     H 3238   7.482  10.727   8.980 -0.4890 -1.7323 -0.4980
   24MOL0     H 3239   6.997  11.118   8.833  0.0181  0.0564 -0.3601
   24MOL0     H 3240   6.865  11.193   9.005  3.3499 -2.0437 -2.0301
   25MOL0     O 3241   4.480   9.368   8.015  0.3554  0.3422  0.4140
   25MOL0     C 3242   4.565   9.452   7.981 -0.4670  1.0995 -0.1977
   25MOL0     O 3243   4.577   9.583   8.025  0.6785 -0.3838 -0.3193
   25MOL0     C 3244   4.482   9.646   8.105 -0.5383  0.3662 -0.5776
   25MOL0     C 3245   4.354   9.602   8.140  0.5294 -0.2005  0.3476
   25MOL0     C 3246   4.263   9.669   8.224  0.8328 -0.0050  0.4050
   25MOL0     C 3247   4.306   9.786   8.285 -0.6201  0.5682 -0.3736
   25MOL0     O 3248   4.222   9.848   8.378 -0.2633  0.6701  0.1685
   25MOL0     C 3249   4.253   9.978   8.411 -0.5702 -0.3343  0.8720
   25MOL0     C 3250   4.135  10.040   8.478  0.1428 -0.1997  0.1661
   25MOL0     C 3251   4.008  10.058   8.387 -0.7138  0.7025 -0.5387
   25MOL0     C 3252   3.902  10.154   8.441 -0.3424  0.0390  1.0780
   25MOL0     C 3253   3.773  10.152   8.360 -0.1067 -0.1302 -0.0624
   25MOL0     C 3254   3.730  10.295   8.331  0.2316 -0.1654 -0.0709
   25MOL0     C 3255   3.592  10.306   8.262  0.5454  1.1955  0.7502
   25MOL0     C 3256   3.588  10.201   8.146  0.2830 -0.0575 -0.0090
   25MOL0     N 3257   3.472  10.228   8.058  0.0431  0.2403  0.9548
   25MOL0     C 3258   3.339  10.224   8.107  1.4959 -0.1341 -0.3556
   25MOL0     C 3259   3.265  10.303   8.019 -0.4171 -0.8582 -0.5192
   25MOL0     C 3260   3.119  10.357   8.024  0.1232  0.2257  0.2143
   25MOL0     C 3261   3.061  10.380   7.879  0.1913  0.1974 -0.3787
   25MOL0     C 3262   3.022  10.260   7.787  0.5113 -0.8858 -0.5979
   25MOL0     C 3263   2.920  10.151   7.837 -0.7202  0.4094  0.7509
   25MOL0     O 3264   2.798  10.210   7.857  0.0026  0.2430 -0.3582
   25MOL0     C 3265   2.705  10.208   7.762  0.0087 -1.1808 -0.9633
   25MOL0     C 3266   2.635  10.332   7.749 -0.4418 -0.8102  0.8049
   25MOL0     C 3267   2.532  10.353   7.651 -0.4772  0.3853  0.5126
   25MOL0     C 3268   2.467  10.479   7.634  0.8327  0.3217 -0.4531
   25MOL0     C 3269   2.495  10.241   7.571 -0.2811 -0.0865 -0.9625
   25MOL0     C 3270   2.391  10.233   7.467 -0.6896  0.2246 -0.4694
   25MOL0     O 3271   2.429  10.162   7.353 -0.3282  0.4885  0.3160
   25MOL0     C 3272   2.345  10.167   7.246 -0.8768  0.6882 -0.2377
   25MOL0     C 3273   2.379  10.262   7.149  0.5115  0.7466 -0.1114
   25MOL0     C 3274   2.307  10.269   7.028  0.0794 -0.0853 -0.6799
   25MOL0     C 3275   2.196  10.189   7.010  0.3223  0.5080  0.1208
   25MOL0     O 3276   2.118  10.182   6.898 -0.8267  0.1399 -0.7863
   25MOL0     C 3277   2.118  10.303   6.819 -0.0517 -0.7608 -0.4404
   25MOL0     C 3278   2.214  10.298   6.713  0.1574 -0.2708  0.2126
   25MOL0     C 3279   2.189  10.402   6.599  0.2789  0.8364  1.0906
   25MOL0     C 3280   2.280  10.405   6.473  0.7955 -0.1090 -0.1758
   25MOL0     C 3281   2.432  10.433   6.508 -0.1004  0.0468  0.9812
   25MOL0     C 3282   2.445  10.588   6.501 -0.0814  0.2753 -0.0811
   25MOL0     C 3283   2.588  10.630   6.543 -1.1972 -0.0833 -0.3732
   25MOL0     C 3284   2.626  10.772   6.483  0.1227  1.1473 -0.1639
   25MOL0    Cl 3285   2.630  10.759   6.296  0.0323  0.1073 -0.1416
   25MOL0     C 3286   2.157  10.092   7.111 -0.8333 -1.1197 -0.1806
   25MOL0     C 3287   2.234  10.079   7.234  0.8595 -0.8864 -0.2124
   25MOL0     O 3288   2.288  10.295   7.487 -0.0800 -0.4398 -0.3585
   25MOL0     C 3289   2.555  10.113   7.601 -0.4768 -0.2414  0.1949
   25MOL0     C 3290   2.660  10.101   7.693  0.8504  0.4761 -0.2436
   25MOL0     N 3291   3.357  10.346   7.924  0.1972  0.1384 -0.5007
   25MOL0     N 3292   3.479  10.309   7.947  0.1920  0.7066 -0.2680
   25MOL0     C 3293   4.435   9.833   8.254  0.3648 -0.3158  0.2856
   25MOL0     C 3294   4.524   9.762   8.172 -0.7298 -0.2869 -0.1444
   25MOL0     C 3295   4.654   9.401   7.875  0.6735 -0.3424 -0.9317
   25MOL0     C 3296   4.623   9.294   7.788  0.1607 -0.1785  0.6060
   25MOL0     C 3297   4.728   9.252   7.706  1.1385  0.0520 -0.5364
   25MOL0     C 3298   4.860   9.310   7.704  0.2985  0.1711  0.4573
   25MOL0     O 3299   4.963   9.279   7.622 -0.4627  0.0297  0.7365
   25MOL0     C 3300   4.947   9.159   7.545 -0.0238 -0.5702  0.0331
   25MOL0     C 3301   5.081   9.140   7.465  0.7315 -0.8674 -0.5785
   25MOL0     C 3302   5.076   9.005   7.394  0.5628  0.3319 -0.0372
   25MOL0     C 3303   4.961   8.990   7.304 -0.6048 -0.3072 -0.6194
   25MOL0     C 3304   4.957   8.847   7.266  0.3919  0.2579  0.5860
   25MOL0     C 3305   4.941   8.734   7.230  0.1917  0.3642 -0.5739
   25MOL0     C 3306   4.881   9.412   7.793 -0.7838  0.1797 -0.3797
   25MOL0     C 3307   4.784   9.456   7.876 -0.1843 -0.1422  0.6616
   25MOL0     H 3308   4.303   9.514   8.101 -1.1549 -0.1426  2.2419
   25MOL0     H 3309   4.166   9.629   8.255  1.0017 -0.0111  0.9458
   25MOL0     H 3310   4.335   9.969   8.483  3.2942  1.0049 -2.9329
   25MOL0     H 3311   4.280  10.037   8.323  0.1233 -0.0276  1.2819
   25MOL0     H 3312   4.110   9.968   8.556 -3.2728  1.6384  0.9512
   25MOL0     H 3313   4.166  10.133   8.526 -0.5265 -1.2960  2.9020
   25MOL0     H 3314   4.029  10.075   8.281  0.6481 -2.7300 -0.9482
   25MOL0     H 3315   3.958   9.962   8.371 -2.4658  1.4198  0.3550
   25MOL0     H 3316   3.881  10.126   8.545  3.8060 -0.3841  1.9917
   25MOL0     H 3317   3.943  10.255   8.448 -0.9677  0.3452  0.3726
   25MOL0     H 3318   3.794  10.107   8.263  1.9061  3.8033 -1.7042
   25MOL0     H 3319   3.700  10.101   8.423 -2.3885  3.4336  0.4617
   25MOL0     H 3320   3.735  10.350   8.426  4.4520 -0.3736 -0.0021
   25MOL0     H 3321   3.806  10.347   8.272  2.3263 -0.1182  2.4868
   25MOL0     H 3322   3.506  10.296   8.329 -0.3886 -2.0307 -0.6949
   25MOL0     H 3323   3.581  10.399   8.207  3.1799  1.8395  1.1813
   25MOL0     H 3324   3.575  10.110   8.204  4.0799  0.5205  2.0776
   25MOL0     H 3325   3.684  10.191   8.094  2.5492 -1.4667  4.0428
   25MOL0     H 3326   3.297  10.191   8.201 -1.4548  2.0173 -0.7524
   25MOL0     H 3327   3.056  10.280   8.067  0.6451 -0.7281 -0.6732
   25MOL0     H 3328   3.112  10.449   8.083  1.2271  1.0277 -0.8463
   25MOL0     H 3329   3.131  10.446   7.827 -1.5390  0.5253 -2.4615
   25MOL0     H 3330   2.972  10.443   7.881  0.3310  0.3831  0.6359
   25MOL0     H 3331   3.113  10.202   7.766 -0.5676 -1.5357 -4.0713
   25MOL0     H 3332   2.989  10.296   7.690  2.5436 -2.5009 -2.0057
   25MOL0     H 3333   2.962  10.111   7.930  1.5496  3.1102  1.0231
   25MOL0     H 3334   2.923  10.082   7.752  1.7705  0.3252  0.8480
   25MOL0     H 3335   2.665  10.408   7.821 -0.5192  0.9099 -0.9031
   25MOL0     H 3336   2.362  10.456   7.657  0.9910  0.3121  0.2823
   25MOL0     H 3337   2.505  10.548   7.710  1.1526  1.3869 -1.5493
   25MOL0     H 3338   2.471  10.526   7.536 -0.1507  0.4671 -0.4399
   25MOL0     H 3339   2.470  10.316   7.174 -0.0595  1.4805  0.4343
   25MOL0     H 3340   2.346  10.342   6.959  0.4020 -0.4213 -0.8558
   25MOL0     H 3341   2.021  10.327   6.775  0.9359  2.9374 -1.0089
   25MOL0     H 3342   2.135  10.388   6.886 -1.4764 -1.8516  1.4071
   25MOL0     H 3343   2.319  10.298   6.745  0.4754 -0.2252 -0.8103
   25MOL0     H 3344   2.203  10.198   6.670 -1.6696  0.3191 -0.7464
   25MOL0     H 3345   2.181  10.502   6.642  0.6668  1.2411  0.2483
   25MOL0     H 3346   2.089  10.379   6.561  1.0136 -0.5181 -0.1439
   25MOL0     H 3347   2.267  10.307   6.427 -0.0294 -1.4544  2.7034
   25MOL0     H 3348   2.240  10.481   6.405 -1.3369  0.4135  1.5450
   25MOL0     H 3349   2.499  10.380   6.438 -0.2209  0.2865  0.6815
   25MOL0     H 3350   2.458  10.400   6.609  4.0629 -1.5125 -0.3723
   25MOL0     H 3351   2.415  10.620   6.402 -3.5629  1.0360  1.1059
   25MOL0     H 3352   2.375  10.633   6.571 -0.6002  1.4988 -1.3603
   25MOL0     H 3353   2.654  10.558   6.495 -0.0285  2.0822 -2.2290
   25MOL0     H 3354   2.581  10.625   6.652 -2.0789  0.6644 -0.3824
   25MOL0     H 3355   2.723  10.801   6.525  0.8293 -2.8866  1.4564
   25MOL0     H 3356   2.553  10.846   6.514 -0.6220 -1.2770  4.7410
   25MOL0     H 3357   2.064  10.037   7.112 -0.3591 -1.9527  1.5777
   25MOL0     H 3358   2.213  10.013   7.318  0.1870  0.8356  1.0233
   25MOL0     H 3359   2.533  10.022   7.545  0.0215 -1.4770  1.9239
   25MOL0     H 3360   2.712  10.006   7.700  1.5489  0.8947  0.4154
   25MOL0     H 3361   4.490   9.918   8.291  3.3333 -0.9267 -2.2904
   25MOL0     H 3362   4.628   9.790   8.160 -0.3900  0.0325  2.7646
   25MOL0     H 3363   4.523   9.252   7.782 -0.2145  0.8187 -0.9159
   25MOL0     H 3364   4.707   9.175   7.632 -2.0914 -0.3919  0.6914
   25MOL0     H 3365   4.928   9.071   7.606  2.0357 -0.9545  0.2215
   25MOL0     H 3366   4.866   9.172   7.473  0.0335 -0.6645 -0.0484
   25MOL0     H 3367   5.168   9.144   7.531 -0.8052 -0.2881  1.5535
   25MOL0     H 3368   5.098   9.215   7.387  1.3802  1.2690  1.4754
   25MOL0     H 3369   5.064   8.937   7.478 -1.1047  1.9136  1.0867
   25MOL0     H 3370   5.168   8.982   7.340 -1.1753 -5.5985 -1.1653
   25MOL0     H 3371   4.965   9.058   7.218  1.6877 -0.9331 -1.0852
   25MOL0     H 3372   4.866   9.005   7.355 -0.8383  1.0328 -1.3930
   25MOL0     H 3373   4.936   8.632   7.196 -1.2555  0.0963  0.3214
   25MOL0     H 3374   4.979   9.458   7.801 -0.2115 -1.1113  0.4588
   25MOL0     H 3375   4.807   9.539   7.941 -3.0382  2.3118 -1.1775
   26MOL0     O 3376   4.275  11.048   9.300 -0.1738  0.0035  0.4091
   26MOL0     C 3377   4.328  10.949   9.363 -0.1557  0.4921 -0.3120
   26MOL0     O 3378   4.253  10.863   9.443 -0.0545  0.5443 -0.5288
   26MOL0     C 3379   4.116  10.866   9.450  0.0083 -0.7207 -0.3221
   26MOL0     C 3380   4.026  10.920   9.355 -0.2754  0.1238  0.3602
   26MOL0     C 3381   3.886  10.945   9.387 -0.2055 -0.4193  0.5701
   26MOL0     C 3382   3.836  10.893   9.506 -0.1692  0.1715  0.4951
   26MOL0     O 3383   3.702  10.916   9.524  0.0501  0.2103 -0.1519
   26MOL0     C 3384   3.628  10.845   9.617  0.6341  1.2604 -0.0265
   26MOL0     C 3385   3.474  10.873   9.589 -0.4950 -0.0194  0.5413
   26MOL0     C 3386   3.385  10.754   9.628  0.7588 -0.3514 -0.0604
   26MOL0     C 3387   3.238  10.784   9.584  0.0122 -0.1989 -0.6964
   26MOL0     C 3388   3.154  10.663   9.619 -0.2316  1.6100  0.1100
   26MOL0     C 3389   3.020  10.677   9.548  0.1404 -0.0594  0.0187
   26MOL0     C 3390   2.914  10.568   9.597 -0.3561 -0.2055 -1.0168
   26MOL0     C 3391   2.775  10.610   9.534 -0.4551  0.0714  0.3094
   26MOL0     N 3392   2.677  10.536   9.607 -0.3928 -0.2710 -0.4027
   26MOL0     C 3393   2.626  10.575   9.719 -0.5934  0.4025 -0.9289
   26MOL0     C 3394   2.513  10.509   9.743 -0.4029  0.0579 -0.0773
   26MOL0     C 3395   2.426  10.523   9.857 -0.4469 -0.0681 -0.3222
   26MOL0     C 3396   2.438  10.395   9.949  0.3489 -0.4321 -0.6190
   26MOL0     C 3397   2.358  10.404  10.086  1.0292  0.0453  0.2573
   26MOL0     C 3398   2.386  10.281  10.171  0.5599 -0.1893  0.5576
   26MOL0     O 3399   2.524  10.288  10.209  0.1994 -0.6084 -0.6293
   26MOL0     C 3400   2.566  10.357  10.319 -1.5536 -0.0513  0.2274
   26MOL0     C 3401   2.710  10.378  10.320 -0.0251  1.2742 -0.2194
   26MOL0     C 3402   2.772  10.434  10.430 -0.0195  0.3933  0.2236
   26MOL0     C 3403   2.919  10.439  10.425 -0.3195 -0.0124 -0.5339
   26MOL0     C 3404   2.691  10.474  10.543  0.7562 -0.0300  0.7847
   26MOL0     C 3405   2.748  10.517  10.675  0.2158 -0.1335 -0.2287
   26MOL0     O 3406   2.870  10.578  10.664  0.0686 -0.1483  0.2604
   26MOL0     C 3407   2.924  10.630  10.780 -0.0367  1.1097 -0.6822
   26MOL0     C 3408   3.017  10.557  10.840 -0.9593  0.0671 -0.2556
   26MOL0     C 3409   3.081  10.604  10.953 -0.3496 -0.4879  0.7997
   26MOL0     C 3410   3.070  10.743  10.991  0.2912  0.1805  0.5591
   26MOL0     O 3411   3.150  10.784  11.101  0.0558  0.2689 -0.8396
   26MOL0     C 3412   3.191  10.923  11.103 -0.1318  0.3908  1.3108
   26MOL0     C 3413   3.100  11.003  11.198 -0.3047  0.7531 -0.4645
   26MOL0     C 3414   3.149  11.149  11.233  0.4276  0.2199  0.5365
   26MOL0     C 3415   3.203  11.228  11.103  0.1273  0.4875 -0.5025
   26MOL0     C 3416   3.286  11.347  11.151 -0.3568  0.0170  0.0488
   26MOL0     C 3417   3.331  11.457  11.051  0.2118  0.0114  0.1245
   26MOL0     C 3418   3.392  11.581  11.124  0.1352  0.4477  0.5309
   26MOL0     C 3419   3.460  11.685  11.030 -0.9197  0.4967  0.1517
   26MOL0    Cl 3420   3.340  11.752  10.917 -0.1292 -0.5567  0.3837
   26MOL0     C 3421   2.969  10.817  10.929  0.0727 -0.2639  0.5059
   26MOL0     C 3422   2.897  10.758  10.825 -0.0330 -0.8305 -0.8575
   26MOL0     O 3423   2.695  10.480  10.783 -0.4483  0.1946 -0.4547
   26MOL0     C 3424   2.555  10.464  10.538  0.8915 -0.2412 -0.1960
   26MOL0     C 3425   2.490  10.402  10.426 -0.2397  0.2138  0.9958
   26MOL0     N 3426   2.498  10.423   9.635  0.5437  0.6079  0.8463
   26MOL0     N 3427   2.604  10.432   9.549 -0.5156 -0.0703  0.3290
   26MOL0     C 3428   3.924  10.834   9.597  0.2768  0.1033 -0.1728
   26MOL0     C 3429   4.064  10.820   9.574  0.3215  0.4004  0.6141
   26MOL0     C 3430   4.478  10.938   9.359  0.3258  0.0341  0.1979
   26MOL0     C 3431   4.556  11.005   9.264 -0.1396 -0.2425 -0.2844
   26MOL0     C 3432   4.690  11.014   9.270 -0.6826  0.2409 -0.3794
   26MOL0     C 3433   4.762  10.962   9.376  0.1301  0.4754  0.7810
   26MOL0     O 3434   4.887  10.996   9.388 -0.4398  0.0957 -0.4007
   26MOL0     C 3435   4.971  10.920   9.482  0.4246  0.1226 -0.4470
   26MOL0     C 3436   5.102  10.977   9.487 -0.1369 -1.0980  0.1785
   26MOL0     C 3437   5.212  10.888   9.556 -0.2908 -0.4602  0.3493
   26MOL0     C 3438   5.327  10.857   9.457 -0.0099 -0.2791 -0.1232
   26MOL0     C 3439   5.406  10.981   9.428  0.4809  0.3274 -1.0401
   26MOL0     C 3440   5.460  11.081   9.403 -0.3724 -0.6340  0.1913
   26MOL0     C 3441   4.686  10.882   9.464 -0.4064  0.4495 -0.2906
   26MOL0     C 3442   4.551  10.864   9.453  0.7174 -0.3551 -0.5167
   26MOL0     H 3443   4.074  10.948   9.262 -0.0085  0.3159  0.5516
   26MOL0     H 3444   3.806  10.975   9.321 -0.5227 -2.9055 -0.2558
   26MOL0     H 3445   3.647  10.737   9.612 -0.6590  1.0475 -0.6696
   26MOL0     H 3446   3.649  10.872   9.721 -0.4024 -0.3177  0.6394
   26MOL0     H 3447   3.446  10.967   9.638  3.3263  2.6228 -1.8384
   26MOL0     H 3448   3.466  10.890   9.482 -1.1534  0.5836  0.6761
   26MOL0     H 3449   3.430  10.664   9.584  0.4030 -0.4908 -0.1453
   26MOL0     H 3450   3.382  10.733   9.736 -2.3543 -0.9315 -0.1676
   26MOL0     H 3451   3.204  10.872   9.640 -2.2137 -1.8604  0.7350
   26MOL0     H 3452   3.246  10.816   9.480 -2.4679  0.6482 -0.6825
   26MOL0     H 3453   3.202  10.573   9.580  1.0466  3.2963 -2.4888
   26MOL0     H 3454   3.139  10.654   9.728 -0.1805  2.0246  0.1550
   26MOL0     H 3455   2.971  10.774   9.565 -1.8442 -1.4484  2.8744
   26MOL0     H 3456   3.029  10.668   9.439  1.3324 -2.0480  0.2454
   26MOL0     H 3457   2.936  10.467   9.562  0.7657 -0.6831  0.9074
   26MOL0     H 3458   2.900  10.568   9.706  0.7834 -0.6972 -0.8553
   26MOL0     H 3459   2.782  10.582   9.428  0.1226  0.6510  0.1825
   26MOL0     H 3460   2.749  10.716   9.540  2.9251  1.2426 -2.2222
   26MOL0     H 3461   2.675  10.650   9.780  0.3025 -0.0762 -1.0496
   26MOL0     H 3462   2.458  10.610   9.915  0.0754 -0.4200 -0.0627
   26MOL0     H 3463   2.323  10.538   9.824  0.5221  0.0109 -3.6301
   26MOL0     H 3464   2.543  10.379   9.973  1.0834  1.4679 -2.2124
   26MOL0     H 3465   2.407  10.309   9.890  2.8999 -1.3390 -0.7586
   26MOL0     H 3466   2.252  10.414  10.063  0.8753 -0.7031  0.5962
   26MOL0     H 3467   2.386  10.490  10.147  3.0114 -1.5560  1.7700
   26MOL0     H 3468   2.381  10.189  10.112  2.9224 -0.3720  0.5639
   26MOL0     H 3469   2.319  10.272  10.257  2.2178 -0.5231  1.8656
   26MOL0     H 3470   2.778  10.350  10.241  0.8699  0.2541  0.8660
   26MOL0     H 3471   2.968  10.379  10.502  1.9974  3.0878  0.6264
   26MOL0     H 3472   2.951  10.414  10.323 -3.1880 -2.0348 -1.0871
   26MOL0     H 3473   2.948  10.543  10.444  2.8485 -1.1793  1.7675
   26MOL0     H 3474   3.050  10.462  10.801 -0.2321  0.2335 -0.0739
   26MOL0     H 3475   3.147  10.535  11.005  2.3046  1.0559 -0.3340
   26MOL0     H 3476   3.298  10.924  11.126  0.4980  1.2096 -1.2704
   26MOL0     H 3477   3.180  10.957  11.000 -1.2299 -0.2190  1.2075
   26MOL0     H 3478   3.007  11.026  11.145 -0.4658  1.9034  0.2850
   26MOL0     H 3479   3.072  10.954  11.291 -3.3744  1.3822 -0.9591
   26MOL0     H 3480   3.232  11.138  11.303  0.1528 -2.1640  0.5909
   26MOL0     H 3481   3.073  11.210  11.282  1.2863  0.7106  1.2850
   26MOL0     H 3482   3.270  11.169  11.040  1.3466  0.9921  0.2871
   26MOL0     H 3483   3.115  11.259  11.047  0.7986  1.1497 -1.2079
   26MOL0     H 3484   3.374  11.308  11.204 -0.2985 -0.1414 -0.1646
   26MOL0     H 3485   3.229  11.398  11.229 -1.0343 -2.5319  1.3253
   26MOL0     H 3486   3.414  11.425  10.989  0.0450 -0.3614  0.0893
   26MOL0     H 3487   3.248  11.490  10.987  1.2132  3.8093  0.5289
   26MOL0     H 3488   3.472  11.553  11.193  0.6691 -1.1558 -0.6836
   26MOL0     H 3489   3.323  11.643  11.182  0.6096  2.4607 -0.9699
   26MOL0     H 3490   3.533  11.631  10.969 -0.7132 -0.0017  0.8344
   26MOL0     H 3491   3.513  11.765  11.083  1.1486  0.1558 -1.3108
   26MOL0     H 3492   2.951  10.921  10.954 -2.3304 -0.6756  0.7264
   26MOL0     H 3493   2.816  10.804  10.769 -1.0995  1.7215  2.4497
   26MOL0     H 3494   2.487  10.493  10.617 -0.8081  0.4144 -1.8239
   26MOL0     H 3495   2.388  10.371  10.444 -0.5121 -0.3901 -1.3345
   26MOL0     H 3496   3.875  10.797   9.687 -0.6617  0.7756 -0.3928
   26MOL0     H 3497   4.127  10.784   9.655  0.9983  0.3455  0.0776
   26MOL0     H 3498   4.502  11.042   9.177  0.7046  0.4615 -0.5222
   26MOL0     H 3499   4.746  11.072   9.197  1.4553 -1.9982 -0.6438
   26MOL0     H 3500   4.933  10.917   9.584  4.3145  0.0582  1.1789
   26MOL0     H 3501   4.973  10.815   9.453 -0.2278  0.1340 -0.5439
   26MOL0     H 3502   5.085  11.074   9.535 -3.3413 -0.5987 -1.6705
   26MOL0     H 3503   5.119  11.003   9.382 -1.7956  2.4578  0.6532
   26MOL0     H 3504   5.170  10.792   9.586 -2.7220 -0.5074 -2.7389
   26MOL0     H 3505   5.252  10.935   9.646 -0.4406  0.1760  0.0894
   26MOL0     H 3506   5.296  10.814   9.362  3.5065 -2.3894 -0.5035
   26MOL0     H 3507   5.403  10.799   9.510  0.6161  0.3962 -0.2576
   26MOL0     H 3508   5.516  11.164   9.366 -0.1463 -0.2882  1.2652
   26MOL0     H 3509   4.741  10.827   9.540 -0.6505  2.7938  1.7059
   26MOL0     H 3510   4.496  10.787   9.508 -2.5082  1.4176 -0.9724
   27MOL0     O 3511   2.870   0.888   5.768  0.1587  0.5221  0.2854
   27MOL0     C 3512   2.943   0.792   5.800  0.5529 -0.9970 -0.6035
   27MOL0     O 3513   2.914   0.670   5.810 -0.0113 -0.5588  0.0196
   27MOL0     C 3514   2.782   0.626   5.815  0.9549 -0.3304  0.3440
   27MOL0     C 3515   2.734   0.611   5.939  0.1315 -0.4559  0.2132
   27MOL0     C 3516   2.599   0.555   5.964 -1.2660 -0.2423  0.4514
   27MOL0     C 3517   2.517   0.526   5.856 -0.2712  0.6011 -0.2083
   27MOL0     O 3518   2.401   0.460   5.873  0.1587 -0.3799 -0.3320
   27MOL0     C 3519   2.290   0.489   5.785 -0.1365 -0.1568 -0.1648
   27MOL0     C 3520   2.162   0.456   5.853  0.4668  0.4152 -0.0604
   27MOL0     C 3521   2.091   0.332   5.781 -0.3103  0.1128 -0.4664
   27MOL0     C 3522   2.011   0.386   5.666 -0.0928 -0.3563 -0.1394
   27MOL0     C 3523   1.903   0.281   5.634 -0.3608  0.1368  0.0267
   27MOL0     C 3524   1.812   0.330   5.526 -0.3107 -0.5553 -0.1425
   27MOL0     C 3525   1.684   0.245   5.512 -1.0154 -0.3822  0.1623
   27MOL0     C 3526   1.598   0.301   5.409 -0.4458  1.1075  0.8884
   27MOL0     N 3527   1.491   0.206   5.380 -0.2103 -0.5506 -0.4807
   27MOL0     C 3528   1.360   0.216   5.429 -0.1122  0.1476 -0.0724
   27MOL0     C 3529   1.293   0.118   5.365  0.6305 -0.8704 -0.2406
   27MOL0     C 3530   1.146   0.110   5.365  0.0791 -0.1755 -0.6801
   27MOL0     C 3531   1.088   0.235   5.304 -0.9836 -0.1416  0.7532
   27MOL0     C 3532   0.950   0.260   5.369 -0.8833  0.2329  1.0793
   27MOL0     C 3533   0.941   0.328   5.504 -0.2050 -0.3715 -0.3145
   27MOL0     O 3534   0.976   0.466   5.495 -0.3644  0.5965 -0.0809
   27MOL0     C 3535   1.060   0.502   5.600  0.1833  0.3975  0.1366
   27MOL0     C 3536   1.016   0.530   5.737  0.2747  0.1579  0.1610
   27MOL0     C 3537   1.101   0.572   5.837 -0.7950 -0.7721 -0.1840
   27MOL0     C 3538   1.045   0.598   5.971  1.3160  0.2492 -0.8416
   27MOL0     C 3539   1.242   0.569   5.809  0.6142 -0.6129 -0.6067
   27MOL0     C 3540   1.345   0.576   5.920 -0.3132  0.3420 -0.0517
   27MOL0     O 3541   1.476   0.608   5.883  0.2252 -0.0718 -0.0635
   27MOL0     C 3542   1.572   0.601   5.991  0.5369 -0.3076  1.0911
   27MOL0     C 3543   1.611   0.478   6.039  0.2014 -0.2522  0.4593
   27MOL0     C 3544   1.706   0.478   6.137 -0.0379  0.1278 -0.5409
   27MOL0     C 3545   1.753   0.591   6.210  0.5809  1.5482 -0.9508
   27MOL0     O 3546   1.846   0.575   6.307  0.4548  0.2218  0.2226
   27MOL0     C 3547   1.855   0.685   6.403  0.6626 -0.2064  0.0590
   27MOL0     C 3548   1.742   0.684   6.507 -0.8459  0.2518  0.2871
   27MOL0     C 3549   1.733   0.543   6.566  0.3799 -0.2012  1.0580
   27MOL0     C 3550   1.612   0.536   6.653 -0.6732 -0.4947  0.4181
   27MOL0     C 3551   1.562   0.407   6.704 -0.9859  0.3017  0.0345
   27MOL0     C 3552   1.423   0.413   6.772 -0.6784 -0.8951  0.3892
   27MOL0     C 3553   1.361   0.277   6.789  0.2849 -0.0674 -0.7837
   27MOL0     C 3554   1.231   0.295   6.882  0.4550 -0.6456  0.7518
   27MOL0    Cl 3555   1.284   0.330   7.056 -0.1393  0.2326 -0.0232
   27MOL0     C 3556   1.689   0.709   6.174 -0.0193 -1.3889 -0.7523
   27MOL0     C 3557   1.613   0.720   6.060  0.4250 -0.8525 -0.0417
   27MOL0     O 3558   1.311   0.532   6.029 -0.0308 -0.3801  0.1689
   27MOL0     C 3559   1.289   0.546   5.684  0.0814 -0.5295 -0.0140
   27MOL0     C 3560   1.202   0.514   5.572 -0.2210 -0.1602  0.7718
   27MOL0     N 3561   1.371   0.050   5.277  0.3896 -0.4598  0.4726
   27MOL0     N 3562   1.488   0.112   5.284 -0.6237 -0.1650  0.5470
   27MOL0     C 3563   2.568   0.547   5.727  0.0227 -0.0842 -0.0174
   27MOL0     C 3564   2.702   0.590   5.708 -0.1982 -0.5159 -0.6991
   27MOL0     C 3565   3.087   0.816   5.839 -0.3686 -0.2034 -0.6019
   27MOL0     C 3566   3.158   0.927   5.787  0.1524  0.4013  0.3698
   27MOL0     C 3567   3.285   0.957   5.831  0.1319  0.3476 -0.4255
   27MOL0     C 3568   3.343   0.883   5.929  0.4220  1.3013  0.3713
   27MOL0     O 3569   3.465   0.914   5.985 -0.1720  0.2728 -0.3147
   27MOL0     C 3570   3.551   1.024   5.948 -1.1146  0.0059  0.9732
   27MOL0     C 3571   3.660   0.973   5.857  0.4604  1.2844  0.4585
   27MOL0     C 3572   3.744   0.855   5.920 -0.1072  0.1606 -0.1668
   27MOL0     C 3573   3.824   0.772   5.818 -0.3214 -0.0785 -0.3316
   27MOL0     C 3574   3.931   0.854   5.747 -0.2392 -0.2618  0.3121
   27MOL0     C 3575   4.023   0.919   5.691  1.2319  0.0548 -0.8592
   27MOL0     C 3576   3.275   0.770   5.982  0.1590 -0.9919  0.2007
   27MOL0     C 3577   3.145   0.740   5.947 -0.7046 -0.3881  0.5993
   27MOL0     H 3578   2.803   0.632   6.020  1.0720  0.3747 -0.7724
   27MOL0     H 3579   2.582   0.542   6.070  0.4907 -1.7612  0.6014
   27MOL0     H 3580   2.297   0.594   5.756 -0.7343  0.1740  0.8174
   27MOL0     H 3581   2.302   0.442   5.687 -0.7370  0.6460 -0.6336
   27MOL0     H 3582   2.173   0.412   5.953 -0.3882 -1.9926 -0.9477
   27MOL0     H 3583   2.092   0.540   5.859  1.3669  1.1809 -0.0731
   27MOL0     H 3584   2.166   0.259   5.748  0.4652 -0.2304  1.8482
   27MOL0     H 3585   2.018   0.274   5.837 -0.2992 -1.3761 -1.9195
   27MOL0     H 3586   1.965   0.479   5.702  1.6348  0.3801  0.2523
   27MOL0     H 3587   2.071   0.395   5.575  2.4867 -2.9685  1.1360
   27MOL0     H 3588   1.953   0.188   5.605 -1.0462 -1.0931  2.5389
   27MOL0     H 3589   1.847   0.261   5.725  2.4292 -1.1265  1.6159
   27MOL0     H 3590   1.780   0.434   5.539  1.4219 -0.0553  0.3881
   27MOL0     H 3591   1.868   0.324   5.432  0.1748 -1.3089  0.1869
   27MOL0     H 3592   1.729   0.151   5.481  0.5376  0.3873  0.0050
   27MOL0     H 3593   1.635   0.250   5.610  3.7916 -1.3103  2.9268
   27MOL0     H 3594   1.657   0.317   5.318 -1.6002  3.3697  0.4646
   27MOL0     H 3595   1.555   0.397   5.439 -0.1905  1.4741  0.1014
   27MOL0     H 3596   1.308   0.290   5.489  1.4414  1.0935  0.1714
   27MOL0     H 3597   1.102   0.032   5.302 -1.3294  0.1632 -0.1470
   27MOL0     H 3598   1.110   0.100   5.468  0.3021 -2.7904 -0.7714
   27MOL0     H 3599   1.050   0.216   5.203 -2.3303 -1.2310  1.4223
   27MOL0     H 3600   1.156   0.321   5.306 -0.9694 -0.0938 -0.7354
   27MOL0     H 3601   0.890   0.171   5.347  0.7033 -0.3514 -1.2259
   27MOL0     H 3602   0.902   0.324   5.294 -1.6086 -2.4932 -0.9340
   27MOL0     H 3603   1.003   0.272   5.574 -0.7277 -0.1143  0.3645
   27MOL0     H 3604   0.841   0.332   5.548  0.3046  0.7313  0.8037
   27MOL0     H 3605   0.913   0.527   5.771  0.3724  2.3873  0.8336
   27MOL0     H 3606   1.111   0.662   6.031  0.8086  1.5827 -1.6502
   27MOL0     H 3607   0.949   0.650   5.969  0.4420 -0.9701  2.5046
   27MOL0     H 3608   1.032   0.503   6.023  1.1731  0.9637  0.4742
   27MOL0     H 3609   1.576   0.393   5.982 -2.9564  1.0202  0.3351
   27MOL0     H 3610   1.747   0.384   6.170 -1.0297 -0.3060 -0.5037
   27MOL0     H 3611   1.949   0.668   6.457  2.3385  0.4683 -2.4726
   27MOL0     H 3612   1.859   0.786   6.361 -0.6285 -1.2482 -2.7525
   27MOL0     H 3613   1.753   0.757   6.587 -0.3548  1.8994 -1.2188
   27MOL0     H 3614   1.652   0.704   6.447 -0.8859 -0.4337  0.0987
   27MOL0     H 3615   1.826   0.518   6.618  1.1466  1.7647  0.6981
   27MOL0     H 3616   1.712   0.477   6.482  1.9125 -1.7512  1.8311
   27MOL0     H 3617   1.645   0.592   6.742 -0.5311 -1.2422  0.8406
   27MOL0     H 3618   1.531   0.592   6.606  1.1075  0.1195 -2.1860
   27MOL0     H 3619   1.642   0.369   6.769  1.7232 -0.4279 -3.4098
   27MOL0     H 3620   1.558   0.334   6.623  3.0699  0.5459 -0.5996
   27MOL0     H 3621   1.439   0.474   6.861  1.6795 -0.6617 -0.1279
   27MOL0     H 3622   1.352   0.474   6.715 -0.9598  1.0254  2.6577
   27MOL0     H 3623   1.432   0.214   6.843 -0.1522  0.9622  1.0609
   27MOL0     H 3624   1.341   0.225   6.695 -2.2283  1.5922 -1.2707
   27MOL0     H 3625   1.174   0.202   6.869 -2.6303  1.2195 -0.2149
   27MOL0     H 3626   1.164   0.373   6.844  0.9128  0.1100  1.4777
   27MOL0     H 3627   1.693   0.803   6.228 -0.0024 -1.8472  0.0544
   27MOL0     H 3628   1.562   0.808   6.021 -2.0270 -1.5723  1.2832
   27MOL0     H 3629   1.395   0.544   5.662  0.0973 -1.6984  0.1116
   27MOL0     H 3630   1.245   0.494   5.475 -0.5907 -2.5645  1.0509
   27MOL0     H 3631   2.499   0.535   5.643  3.1275  0.6753 -2.9105
   27MOL0     H 3632   2.739   0.603   5.607  1.9592 -1.1659 -0.0495
   27MOL0     H 3633   3.108   0.984   5.709  4.1640  1.3165 -1.7825
   27MOL0     H 3634   3.342   1.034   5.780  0.5094  0.3586  0.0072
   27MOL0     H 3635   3.501   1.097   5.884 -0.3309 -2.1324 -2.3469
   27MOL0     H 3636   3.608   1.065   6.033 -0.5439 -1.0959  1.1444
   27MOL0     H 3637   3.723   1.057   5.827  0.0484  1.8555  1.1398
   27MOL0     H 3638   3.611   0.930   5.769  0.4101  1.4708  0.3957
   27MOL0     H 3639   3.675   0.784   5.967  0.8328  0.2984  1.5233
   27MOL0     H 3640   3.792   0.905   6.005 -3.2193  2.2912  0.5050
   27MOL0     H 3641   3.758   0.735   5.740  0.8696 -0.3374 -1.2462
   27MOL0     H 3642   3.860   0.680   5.864  0.3451 -0.0194 -0.7289
   27MOL0     H 3643   4.102   0.973   5.642 -0.1932  2.3748 -0.7138
   27MOL0     H 3644   3.333   0.713   6.053 -0.0820  0.8938  2.0160
   27MOL0     H 3645   3.087   0.657   5.987 -1.3106 -1.2977 -2.0190
   28MOL0     O 3646   7.777   0.391   0.203  0.1941 -0.1321 -1.3691
   28MOL0     C 3647   7.885   0.451   0.195 -0.0853 -0.0115 -0.3556
   28MOL0     O 3648   7.936   0.499   0.078  0.3348 -0.2372 -0.1920
   28MOL0     C 3649   7.835   0.512  -0.025  0.4829  0.1665 -0.1046
   28MOL0     C 3650   7.885   0.497  -0.158 -0.2000  0.3304  0.1059
   28MOL0     C 3651   7.804   0.498  -0.268 -0.2720  0.2233  0.0778
   28MOL0     C 3652   7.669   0.520  -0.262  0.4291 -0.2639 -0.3806
   28MOL0     O 3653   7.589   0.531  -0.367 -0.1332 -0.5187 -0.2249
   28MOL0     C 3654   7.600   0.429  -0.465 -0.5587 -0.5133 -0.1180
   28MOL0     C 3655   7.580   0.495  -0.605 -1.0356  0.9815  0.1307
   28MOL0     C 3656   7.430   0.517  -0.625 -0.1217 -0.4262 -0.8200
   28MOL0     C 3657   7.385   0.544  -0.768 -0.2774  0.2991 -0.7407
   28MOL0     C 3658   7.234   0.579  -0.780 -0.0313  0.1166 -0.0629
   28MOL0     C 3659   7.192   0.665  -0.897  0.1411 -0.2049 -0.3537
   28MOL0     C 3660   7.038   0.705  -0.887  0.3185 -0.5814  0.2624
   28MOL0     C 3661   6.991   0.773  -1.004 -0.2455 -0.2470  0.5597
   28MOL0     N 3662   6.878   0.849  -0.970  0.3963 -0.0535 -0.0288
   28MOL0     C 3663   6.769   0.811  -0.889  0.2149 -0.6889  0.8636
   28MOL0     C 3664   6.706   0.922  -0.854  0.2563  0.4012  0.8111
   28MOL0     C 3665   6.591   0.910  -0.762  0.5302 -0.0701  0.5653
   28MOL0     C 3666   6.490   0.801  -0.789  0.4700 -0.6655  0.0876
   28MOL0     C 3667   6.391   0.770  -0.673  0.6746  0.4153 -0.2150
   28MOL0     C 3668   6.303   0.892  -0.617 -0.2440 -0.3793 -0.7613
   28MOL0     O 3669   6.244   0.962  -0.731  1.4516  0.9692  0.2233
   28MOL0     C 3670   6.180   1.072  -0.701 -0.0841  0.3485 -1.0300
   28MOL0     C 3671   6.152   1.153  -0.808  0.7656  0.8396  0.7573
   28MOL0     C 3672   6.057   1.262  -0.800  0.2105  0.7297  0.3911
   28MOL0     C 3673   6.028   1.347  -0.921  0.1970 -0.0768 -0.5703
   28MOL0     C 3674   5.971   1.272  -0.685  0.5211 -0.1197  0.3047
   28MOL0     C 3675   5.847   1.354  -0.682 -0.8150  0.2906  0.2806
   28MOL0     O 3676   5.822   1.457  -0.767 -0.8742  0.1809 -0.3287
   28MOL0     C 3677   5.702   1.519  -0.762 -0.2730 -0.8174 -0.3652
   28MOL0     C 3678   5.692   1.657  -0.797  0.4901  0.2694 -0.1079
   28MOL0     C 3679   5.566   1.712  -0.811 -0.4170  0.1156 -0.1639
   28MOL0     C 3680   5.447   1.644  -0.797  0.9475  0.6621 -0.3593
   28MOL0     O 3681   5.326   1.709  -0.804  1.1701 -0.4866  0.1613
   28MOL0     C 3682   5.208   1.627  -0.779 -0.2529 -0.7647 -0.4050
   28MOL0     C 3683   5.077   1.704  -0.787  0.0608 -0.9723 -1.1616
   28MOL0     C 3684   5.047   1.790  -0.665 -0.4614 -0.3898 -0.2687
   28MOL0     C 3685   4.930   1.887  -0.691 -1.3518  0.4970  0.7310
   28MOL0     C 3686   4.925   2.003  -0.589 -0.4261  0.3757 -0.3255
   28MOL0     C 3687   4.912   1.953  -0.449  0.1690 -0.9249 -0.2054
   28MOL0     C 3688   4.770   1.915  -0.435 -0.1285 -0.1826 -0.8894
   28MOL0     C 3689   4.745   1.855  -0.290  0.3171  0.8271  0.6372
   28MOL0    Cl 3690   4.725   1.990  -0.168 -0.2461 -0.2443 -0.0306
   28MOL0     C 3691   5.458   1.510  -0.761  0.8526 -0.1297 -1.2253
   28MOL0     C 3692   5.580   1.449  -0.749 -0.1741 -0.0033  0.4221
   28MOL0     O 3693   5.769   1.300  -0.599  0.4278 -0.3556 -0.6369
   28MOL0     C 3694   6.016   1.195  -0.569 -0.1852  0.4387 -0.2011
   28MOL0     C 3695   6.122   1.106  -0.580 -0.2323 -0.0535  0.2775
   28MOL0     N 3696   6.759   1.020  -0.929  0.6058 -0.2967  0.4337
   28MOL0     N 3697   6.863   0.986  -0.989 -0.0945  0.2586  0.9452
   28MOL0     C 3698   7.612   0.551  -0.141 -0.4778  0.0790 -0.1983
   28MOL0     C 3699   7.690   0.532  -0.021  0.4530 -0.7131  0.4699
   28MOL0     C 3700   7.962   0.465   0.326  0.1443 -0.8877  0.0010
   28MOL0     C 3701   7.898   0.444   0.444 -0.4652  0.5976 -0.0752
   28MOL0     C 3702   7.970   0.445   0.564  0.2415 -0.5337  0.2389
   28MOL0     C 3703   8.112   0.479   0.559 -0.6944  0.0726 -0.0804
   28MOL0     O 3704   8.175   0.468   0.677  0.9122 -0.0861  0.4118
   28MOL0     C 3705   8.292   0.537   0.705  0.4196 -0.9525 -0.1346
   28MOL0     C 3706   8.259   0.677   0.756  0.0579  0.3606 -0.3863
   28MOL0     C 3707   8.181   0.770   0.659 -0.4027 -1.4567  0.6401
   28MOL0     C 3708   8.120   0.888   0.733 -0.2076  0.1181  0.1341
   28MOL0     C 3709   8.058   0.996   0.651 -0.3400 -0.3981  0.0434
   28MOL0     C 3710   8.021   1.086   0.577 -0.2742  0.5390 -0.3332
   28MOL0     C 3711   8.175   0.495   0.437  1.1287  1.0627  0.3012
   28MOL0     C 3712   8.094   0.490   0.322 -0.0884  0.1670 -0.3036
   28MOL0     H 3713   7.993   0.490  -0.164 -0.1469 -1.6012  2.1026
   28MOL0     H 3714   7.852   0.512  -0.364 -1.1041 -1.6230 -0.6631
   28MOL0     H 3715   7.699   0.384  -0.476  0.7452  1.9193  0.8813
   28MOL0     H 3716   7.536   0.342  -0.445  1.6079 -2.3600 -0.8325
   28MOL0     H 3717   7.623   0.595  -0.616 -2.0384  1.4381  0.2181
   28MOL0     H 3718   7.637   0.439  -0.679 -0.1344  3.8022 -1.4851
   28MOL0     H 3719   7.377   0.426  -0.594  0.8185 -1.3887 -1.9654
   28MOL0     H 3720   7.397   0.607  -0.573  2.6158 -0.0238  0.4230
   28MOL0     H 3721   7.448   0.616  -0.822  2.5948 -1.1863  0.3752
   28MOL0     H 3722   7.403   0.453  -0.826 -0.7501 -0.6557  0.5773
   28MOL0     H 3723   7.179   0.486  -0.764 -2.6012  1.8778  2.1891
   28MOL0     H 3724   7.212   0.647  -0.697 -2.3626 -0.6680  0.0405
   28MOL0     H 3725   7.253   0.755  -0.895 -2.5430  1.8759 -2.8214
   28MOL0     H 3726   7.209   0.610  -0.991  1.3833  1.4810 -1.1646
   28MOL0     H 3727   6.977   0.614  -0.888  1.3063 -1.2934 -2.2960
   28MOL0     H 3728   7.021   0.767  -0.798 -0.7064 -2.0605  1.1534
   28MOL0     H 3729   6.972   0.700  -1.083  1.4969 -0.3313  0.1957
   28MOL0     H 3730   7.063   0.845  -1.042 -0.2041 -0.5146  0.1288
   28MOL0     H 3731   6.743   0.709  -0.862 -1.3699 -1.6421 -3.4524
   28MOL0     H 3732   6.635   0.894  -0.664  1.0691 -1.1161  0.1656
   28MOL0     H 3733   6.534   1.003  -0.771 -3.7417 -2.0148  3.7586
   28MOL0     H 3734   6.540   0.708  -0.817  1.4969 -0.1377  0.1528
   28MOL0     H 3735   6.438   0.815  -0.885 -1.2856 -2.9497  0.6152
   28MOL0     H 3736   6.443   0.718  -0.593  1.5066  0.8202 -0.4844
   28MOL0     H 3737   6.315   0.700  -0.709  1.1414 -0.4859  0.5355
   28MOL0     H 3738   6.377   0.949  -0.561  2.1773 -0.8931 -3.2538
   28MOL0     H 3739   6.220   0.851  -0.559 -1.5916  1.1880 -1.5048
   28MOL0     H 3740   6.208   1.128  -0.898 -2.5325 -2.0262 -0.7372
   28MOL0     H 3741   6.105   1.318  -0.993  2.0528 -2.0278  2.0303
   28MOL0     H 3742   5.933   1.323  -0.972 -0.8864  0.7381  0.9770
   28MOL0     H 3743   6.040   1.454  -0.907  0.1441 -0.1780  0.2672
   28MOL0     H 3744   5.783   1.714  -0.817  0.6074  0.0134 -0.3164
   28MOL0     H 3745   5.564   1.820  -0.828  3.2373  0.4775  0.9494
   28MOL0     H 3746   5.198   1.564  -0.868 -0.0115  3.5206 -3.8162
   28MOL0     H 3747   5.215   1.574  -0.683  0.7198 -0.2128 -0.1605
   28MOL0     H 3748   5.067   1.778  -0.867  1.6668 -0.5176 -0.9702
   28MOL0     H 3749   4.995   1.631  -0.791 -0.8791 -0.1435  1.4462
   28MOL0     H 3750   5.127   1.864  -0.658 -3.5944  3.2377  1.3009
   28MOL0     H 3751   5.028   1.729  -0.576  2.6052  0.3478  1.0489
   28MOL0     H 3752   4.911   1.923  -0.793 -0.3479  1.0735  0.7358
   28MOL0     H 3753   4.845   1.821  -0.672 -1.5246  1.1759  2.4995
   28MOL0     H 3754   4.839   2.066  -0.611  1.7854  4.6542  2.1461
   28MOL0     H 3755   5.008   2.074  -0.595 -0.5291  0.5045 -0.2314
   28MOL0     H 3756   4.976   1.868  -0.425 -0.6675 -1.0850  1.6430
   28MOL0     H 3757   4.935   2.039  -0.386  1.0380  0.7090 -2.5977
   28MOL0     H 3758   4.741   1.834  -0.503  2.2154 -1.9789  0.1288
   28MOL0     H 3759   4.704   2.002  -0.442  1.6410  1.2728 -0.3166
   28MOL0     H 3760   4.817   1.779  -0.259 -0.5421 -0.8971 -1.3480
   28MOL0     H 3761   4.653   1.796  -0.289  2.7360 -3.3379  0.8023
   28MOL0     H 3762   5.370   1.447  -0.761  0.5944  0.2152 -0.3501
   28MOL0     H 3763   5.575   1.343  -0.729 -0.8238 -0.0995 -0.2092
   28MOL0     H 3764   5.963   1.207  -0.475 -1.6562 -4.0506 -0.2147
   28MOL0     H 3765   6.155   1.051  -0.492 -3.2490  0.8717  2.1716
   28MOL0     H 3766   7.506   0.573  -0.133 -0.3116  0.9504 -0.2954
   28MOL0     H 3767   7.645   0.549   0.076 -0.5136 -0.0349 -0.0766
   28MOL0     H 3768   7.793   0.419   0.450  0.3094 -3.2364  0.3273
   28MOL0     H 3769   7.924   0.425   0.660 -1.5335  2.8255  0.2367
   28MOL0     H 3770   8.351   0.484   0.780 -1.1125 -0.9256  1.1681
   28MOL0     H 3771   8.343   0.545   0.609 -1.5806 -2.7686 -1.4569
   28MOL0     H 3772   8.357   0.720   0.779  0.7895 -0.5884 -1.5841
   28MOL0     H 3773   8.206   0.663   0.851  1.1999 -3.5712 -0.1576
   28MOL0     H 3774   8.110   0.720   0.592 -2.2960 -1.0698  2.2348
   28MOL0     H 3775   8.253   0.813   0.589 -0.6394 -2.3287 -0.1622
   28MOL0     H 3776   8.203   0.930   0.790  0.9299  1.2459 -2.2186
   28MOL0     H 3777   8.047   0.851   0.806  0.9068 -1.0029  0.7287
   28MOL0     H 3778   7.985   1.166   0.515  1.4048 -0.8237 -3.3070
   28MOL0     H 3779   8.282   0.494   0.423  1.1158 -2.5511 -0.5004
   28MOL0     H 3780   8.154   0.509   0.234  4.3146 -0.0487  2.3400
   29MOL0     O 3781   8.930   7.119   6.942 -0.5272 -0.3535 -0.1633
   29MOL0     C 3782   9.029   7.143   7.023 -0.6624 -0.1143 -0.6106
   29MOL0     O 3783   9.019   7.134   7.160 -0.5280  0.4599 -0.0533
   29MOL0     C 3784   8.898   7.114   7.219  0.8209 -0.6667 -0.3014
   29MOL0     C 3785   8.817   7.226   7.245 -0.6645  0.3144 -1.1651
   29MOL0     C 3786   8.705   7.204   7.325  0.6622 -0.2087 -0.1937
   29MOL0     C 3787   8.665   7.079   7.377 -0.1954  0.6811  0.2847
   29MOL0     O 3788   8.580   7.076   7.479  0.3816  0.4683 -0.0959
   29MOL0     C 3789   8.467   7.165   7.462  0.0565 -0.3652  0.1677
   29MOL0     C 3790   8.393   7.151   7.329  0.1644 -0.2779  0.7926
   29MOL0     C 3791   8.254   7.205   7.326  0.5330 -0.2459  0.5271
   29MOL0     C 3792   8.160   7.177   7.440 -0.7858  0.5809 -0.4394
   29MOL0     C 3793   8.009   7.229   7.422 -1.3311  0.2827  1.0730
   29MOL0     C 3794   7.931   7.221   7.555  0.1754 -0.5144 -0.6192
   29MOL0     C 3795   7.790   7.240   7.538  0.7388 -0.1743  0.0624
   29MOL0     C 3796   7.703   7.117   7.492 -0.0154  0.1764  0.3938
   29MOL0     N 3797   7.565   7.159   7.488  0.5210  0.3325 -0.8605
   29MOL0     C 3798   7.493   7.193   7.599 -1.0623  0.1508 -0.1156
   29MOL0     C 3799   7.381   7.260   7.553 -0.0104 -0.4137  0.0624
   29MOL0     C 3800   7.259   7.333   7.616  0.2538  0.0131  1.1554
   29MOL0     C 3801   7.236   7.479   7.572 -0.7566  0.1401 -0.3478
   29MOL0     C 3802   7.197   7.572   7.694 -0.1102  0.5948  1.0140
   29MOL0     C 3803   7.059   7.543   7.749  0.0316 -1.0703  0.2306
   29MOL0     O 3804   7.067   7.443   7.844 -0.7032  0.3033 -0.0347
   29MOL0     C 3805   6.987   7.337   7.849  0.0201 -0.2230  0.2608
   29MOL0     C 3806   6.866   7.322   7.777  0.4606 -0.5918 -0.0208
   29MOL0     C 3807   6.782   7.218   7.800 -0.3488  0.2152  0.2008
   29MOL0     C 3808   6.658   7.207   7.724 -0.3039 -0.0650  0.1543
   29MOL0     C 3809   6.804   7.134   7.905  0.9177  0.8693 -0.2673
   29MOL0     C 3810   6.708   7.026   7.963  0.0686  0.1144  0.2691
   29MOL0     O 3811   6.612   6.961   7.880  0.1000  0.3677 -0.1376
   29MOL0     C 3812   6.522   6.868   7.933 -0.3089 -0.4668 -0.7295
   29MOL0     C 3813   6.556   6.738   7.971 -0.5411 -0.4996 -0.0793
   29MOL0     C 3814   6.467   6.647   8.008 -0.3708  0.0368  0.8897
   29MOL0     C 3815   6.334   6.689   8.022 -0.2057 -0.0032  0.6973
   29MOL0     O 3816   6.246   6.588   8.049 -0.2414  0.4590  0.3544
   29MOL0     C 3817   6.107   6.617   8.051  0.1987  0.1666 -0.6908
   29MOL0     C 3818   6.040   6.484   8.102 -0.9420 -0.1427  0.3822
   29MOL0     C 3819   6.063   6.462   8.248  0.4428 -0.6705 -0.2139
   29MOL0     C 3820   5.971   6.352   8.296  0.2247 -0.1472  0.0288
   29MOL0     C 3821   5.988   6.336   8.446 -0.4712 -0.7080 -0.8287
   29MOL0     C 3822   6.119   6.275   8.496 -0.1303 -0.5096  0.0970
   29MOL0     C 3823   6.092   6.257   8.646 -0.4591 -0.2074  0.5294
   29MOL0     C 3824   6.216   6.234   8.732 -1.1050 -0.0751  0.0667
   29MOL0    Cl 3825   6.314   6.094   8.707  0.6391  0.3938  0.3256
   29MOL0     C 3826   6.294   6.825   8.003 -0.0873 -0.3907 -0.2072
   29MOL0     C 3827   6.389   6.914   7.952  0.5397  0.6720 -0.0673
   29MOL0     O 3828   6.726   6.984   8.077 -0.2996  0.7045 -0.5083
   29MOL0     C 3829   6.923   7.139   7.964 -1.1079  0.4945 -0.2059
   29MOL0     C 3830   7.019   7.240   7.937 -0.6894  0.1504  0.5212
   29MOL0     N 3831   7.386   7.254   7.414 -0.1531 -0.2235 -0.0346
   29MOL0     N 3832   7.506   7.211   7.379 -0.3088 -0.0841 -0.2061
   29MOL0     C 3833   8.748   6.967   7.349 -0.9954  0.0752 -0.2140
   29MOL0     C 3834   8.863   6.987   7.269 -0.0309  0.2781 -0.4084
   29MOL0     C 3835   9.155   7.200   6.969  0.4450  0.3758 -0.3307
   29MOL0     C 3836   9.163   7.211   6.827  0.5596 -0.2972 -0.1538
   29MOL0     C 3837   9.266   7.270   6.762 -0.7584  0.8616  0.1259
   29MOL0     C 3838   9.374   7.306   6.827  0.3949 -0.3356  0.3753
   29MOL0     O 3839   9.481   7.354   6.758 -0.5927 -0.3596  0.5322
   29MOL0     C 3840   9.613   7.362   6.816 -0.3199 -1.3032  1.1300
   29MOL0     C 3841   9.704   7.405   6.701 -0.7909 -0.0065  0.1960
   29MOL0     C 3842   9.651   7.536   6.633 -0.7493  0.6106 -0.5035
   29MOL0     C 3843   9.716   7.571   6.500  0.0366 -0.7121 -0.1963
   29MOL0     C 3844   9.671   7.697   6.448  0.0235  0.1577  0.1256
   29MOL0     C 3845   9.635   7.801   6.397  0.1629 -0.4994 -0.6126
   29MOL0     C 3846   9.377   7.309   6.967  0.1330 -0.0117 -0.8419
   29MOL0     C 3847   9.265   7.255   7.037 -0.3000 -0.3968 -0.1185
   29MOL0     H 3848   8.839   7.329   7.217  0.2653  0.0325 -1.5302
   29MOL0     H 3849   8.653   7.295   7.352 -0.0189 -0.2005 -1.4843
   29MOL0     H 3850   8.390   7.142   7.536  0.5586  0.5597  1.0012
   29MOL0     H 3851   8.476   7.269   7.494 -0.5841 -0.7243  1.6129
   29MOL0     H 3852   8.458   7.188   7.249  1.5135 -4.8046 -0.5301
   29MOL0     H 3853   8.385   7.044   7.303 -1.2292  0.7546 -4.2994
   29MOL0     H 3854   8.269   7.313   7.317 -2.3324  0.2214  0.2600
   29MOL0     H 3855   8.201   7.169   7.237 -0.3261 -1.2636  1.4301
   29MOL0     H 3856   8.160   7.069   7.459 -0.4860  0.1713 -2.5457
   29MOL0     H 3857   8.203   7.231   7.525 -0.1302  2.1288 -1.7102
   29MOL0     H 3858   8.004   7.328   7.376 -0.9011 -0.0047  0.4000
   29MOL0     H 3859   7.968   7.159   7.349 -2.2514  0.2615  1.5926
   29MOL0     H 3860   7.956   7.130   7.611  0.8355  0.1352  0.1609
   29MOL0     H 3861   7.972   7.306   7.610 -1.5565  0.8697 -1.3528
   29MOL0     H 3862   7.736   7.275   7.626 -1.3737 -2.5415 -0.1741
   29MOL0     H 3863   7.773   7.321   7.467 -1.8474 -0.0144  0.7753
   29MOL0     H 3864   7.718   7.033   7.560  0.4450 -0.8349 -0.9248
   29MOL0     H 3865   7.727   7.077   7.394 -2.4426 -4.0134  1.2739
   29MOL0     H 3866   7.529   7.176   7.700  0.8268 -0.8341 -0.8971
   29MOL0     H 3867   7.169   7.283   7.580  0.9182 -0.2454 -0.1888
   29MOL0     H 3868   7.270   7.331   7.725  4.3327 -1.2054  0.9029
   29MOL0     H 3869   7.168   7.486   7.486 -1.3883 -1.9811 -0.0727
   29MOL0     H 3870   7.336   7.502   7.533 -0.0320 -2.8370 -0.4715
   29MOL0     H 3871   7.197   7.676   7.662  1.9206  0.5704  0.8350
   29MOL0     H 3872   7.274   7.574   7.772  2.2060 -0.8770 -1.0779
   29MOL0     H 3873   6.985   7.527   7.670 -1.1154 -2.5818  1.5321
   29MOL0     H 3874   7.027   7.636   7.796 -0.5960 -0.2819 -1.6707
   29MOL0     H 3875   6.851   7.398   7.701 -0.0892 -0.5889  0.0881
   29MOL0     H 3876   6.655   7.119   7.658 -1.2652 -0.7719  1.0987
   29MOL0     H 3877   6.578   7.212   7.799  0.1132 -2.1490  0.8061
   29MOL0     H 3878   6.639   7.288   7.653 -1.7448 -1.3829 -1.0303
   29MOL0     H 3879   6.658   6.701   7.970 -1.1241 -2.2661 -2.2328
   29MOL0     H 3880   6.496   6.545   8.031 -1.7791 -1.1991 -2.1685
   29MOL0     H 3881   6.090   6.697   8.123 -1.0987 -0.2153 -0.5518
   29MOL0     H 3882   6.055   6.636   7.956 -2.8728  0.0852  0.8297
   29MOL0     H 3883   5.932   6.481   8.083 -0.7828 -0.2846 -0.5746
   29MOL0     H 3884   6.086   6.398   8.053  3.4551  0.9658  2.0690
   29MOL0     H 3885   6.035   6.555   8.298  0.9503  0.0597 -1.2770
   29MOL0     H 3886   6.170   6.449   8.266  0.7702  1.0521 -0.8187
   29MOL0     H 3887   5.869   6.385   8.276  0.5547 -0.2541 -2.0036
   29MOL0     H 3888   5.980   6.257   8.243 -1.0341 -1.1453  1.5061
   29MOL0     H 3889   5.906   6.271   8.480  1.6041 -4.1038 -1.8149
   29MOL0     H 3890   5.987   6.433   8.495 -0.4970  0.1339 -2.4196
   29MOL0     H 3891   6.132   6.178   8.447 -0.2411 -0.4533 -0.0458
   29MOL0     H 3892   6.211   6.334   8.489 -0.8897  0.8082  0.9292
   29MOL0     H 3893   6.023   6.173   8.655 -1.4843  0.3831 -1.4238
   29MOL0     H 3894   6.049   6.344   8.696 -2.8274 -1.4129  0.7352
   29MOL0     H 3895   6.194   6.234   8.839  5.1427 -1.1162  1.7232
   29MOL0     H 3896   6.282   6.321   8.721 -0.8674 -0.3158 -0.4642
   29MOL0     H 3897   6.188   6.847   8.014 -0.6763 -3.0379  0.1421
   29MOL0     H 3898   6.356   7.016   7.934  2.5297  2.6453  5.4292
   29MOL0     H 3899   6.955   7.063   8.035 -1.1596 -0.2499 -0.9720
   29MOL0     H 3900   7.113   7.249   7.990 -1.5006 -0.6170  2.1442
   29MOL0     H 3901   8.727   6.873   7.398  0.2269 -0.9219 -1.5253
   29MOL0     H 3902   8.938   6.910   7.253 -1.0258 -0.1661 -3.5782
   29MOL0     H 3903   9.082   7.172   6.766 -0.6452  0.9636  0.5856
   29MOL0     H 3904   9.262   7.276   6.654 -0.3656  0.2439  0.0726
   29MOL0     H 3905   9.614   7.438   6.895 -1.9587 -1.0389  0.9229
   29MOL0     H 3906   9.634   7.266   6.864 -2.3617 -2.8709 -0.8868
   29MOL0     H 3907   9.729   7.325   6.632  0.0379  2.4040 -2.4908
   29MOL0     H 3908   9.800   7.410   6.753 -0.5566 -2.7684  0.1298
   29MOL0     H 3909   9.670   7.619   6.702  3.3295  1.1141 -1.9577
   29MOL0     H 3910   9.543   7.535   6.615 -0.3586 -1.7666 -3.3918
   29MOL0     H 3911   9.709   7.490   6.427  1.8518  0.9122 -2.2955
   29MOL0     H 3912   9.824   7.573   6.513  0.0455  0.9051 -0.3671
   29MOL0     H 3913   9.596   7.889   6.349  1.5033  0.9784  0.9035
   29MOL0     H 3914   9.466   7.348   7.017 -0.1857 -0.8659  0.4456
   29MOL0     H 3915   9.263   7.264   7.145  0.0530 -2.5534  0.1249
   30MOL0     O 3916   9.314  10.022   9.093 -0.1536  0.4257 -0.0163
   30MOL0     C 3917   9.280  10.128   9.046 -0.4789 -0.2680  0.2393
   30MOL0     O 3918   9.156  10.180   9.065 -0.7370  0.3744 -0.5097
   30MOL0     C 3919   9.059  10.119   9.141 -0.4496  0.0915  0.0423
   30MOL0     C 3920   8.931  10.095   9.088 -0.2549  1.3646  0.4385
   30MOL0     C 3921   8.827  10.052   9.169  0.0364  1.3632 -0.2497
   30MOL0     C 3922   8.848  10.020   9.307  1.0188 -1.1149  0.7159
   30MOL0     O 3923   8.739   9.974   9.374  0.4592  0.1619 -0.1449
   30MOL0     C 3924   8.760   9.913   9.496  0.6780 -0.2770 -0.8254
   30MOL0     C 3925   8.623   9.874   9.561  0.0883  0.2706  0.0716
   30MOL0     C 3926   8.561  10.003   9.625 -0.6007 -0.7437  0.3056
   30MOL0     C 3927   8.416   9.964   9.664 -0.4769 -0.8179  0.0248
   30MOL0     C 3928   8.339  10.089   9.716  0.2109 -0.1745 -0.1017
   30MOL0     C 3929   8.242  10.057   9.824 -1.4397 -0.1338 -0.3186
   30MOL0     C 3930   8.311   9.993   9.950  0.1607  0.5493  0.7763
   30MOL0     C 3931   8.222  10.020  10.073 -0.4093  0.1946  0.0055
   30MOL0     N 3932   8.077   9.991  10.049  0.0892 -0.4657 -0.0761
   30MOL0     C 3933   7.983  10.086  10.057 -0.1588 -0.3136  0.4637
   30MOL0     C 3934   7.879  10.021  10.104 -0.6280  0.3261 -0.0627
   30MOL0     C 3935   7.754  10.080  10.172  0.4661  0.6312 -0.0975
   30MOL0     C 3936   7.678  10.171  10.091  0.8064  0.2739  0.0990
   30MOL0     C 3937   7.625  10.108   9.961 -0.4224  0.8402 -0.0318
   30MOL0     C 3938   7.503   9.996   9.988 -0.2969 -0.6081 -0.4282
   30MOL0     O 3939   7.395  10.060  10.060  0.8817 -0.4831  0.0961
   30MOL0     C 3940   7.315  10.117   9.964  0.0865 -0.2384 -0.2378
   30MOL0     C 3941   7.321  10.251   9.941  0.2237  0.2134  0.2945
   30MOL0     C 3942   7.231  10.311   9.846  0.7637  1.0151  1.3037
   30MOL0     C 3943   7.254  10.449   9.811  0.5104  0.7956 -0.7469
   30MOL0     C 3944   7.125  10.226   9.800  0.7542 -0.2771  0.6562
   30MOL0     C 3945   6.996  10.276   9.730 -0.4057 -0.3309  0.5700
   30MOL0     O 3946   6.915  10.193   9.671  0.1045 -0.6038  0.7186
   30MOL0     C 3947   6.784  10.227   9.688 -0.1192 -1.2537 -0.2180
   30MOL0     C 3948   6.730  10.238   9.814 -0.0495 -0.4424  0.0002
   30MOL0     C 3949   6.599  10.281   9.829  0.4467  1.3929  0.1098
   30MOL0     C 3950   6.519  10.311   9.720 -0.1129 -0.0734 -0.3889
   30MOL0     O 3951   6.400  10.364   9.728  0.0041  0.2453  0.4010
   30MOL0     C 3952   6.328  10.376   9.847 -0.3228  0.0276 -0.6557
   30MOL0     C 3953   6.191  10.438   9.819 -0.3744  0.2470  0.1949
   30MOL0     C 3954   6.189  10.567   9.754 -1.0195  0.0272  1.6571
   30MOL0     C 3955   6.055  10.620   9.715  0.2705  0.1419 -0.0987
   30MOL0     C 3956   6.062  10.766   9.704 -0.2839 -1.3211 -0.1019
   30MOL0     C 3957   5.927  10.836   9.678  0.2454  0.8364 -0.2494
   30MOL0     C 3958   5.864  10.782   9.557  0.5690  0.1479  0.1643
   30MOL0     C 3959   5.752  10.868   9.502  0.9013 -0.2929 -0.6048
   30MOL0    Cl 3960   5.627  10.886   9.640 -0.1965  0.1754  0.1802
   30MOL0     C 3961   6.572  10.295   9.593 -0.3100  0.1435  0.3015
   30MOL0     C 3962   6.700  10.246   9.574  0.3574 -0.4064 -0.9480
   30MOL0     O 3963   6.984  10.396   9.727  0.1622 -0.8413  0.6505
   30MOL0     C 3964   7.125  10.093   9.835  0.3389  0.9477  0.3371
   30MOL0     C 3965   7.207  10.038   9.921  0.2365  0.3387 -0.0669
   30MOL0     N 3966   7.902   9.886  10.122  0.1223 -0.1292 -0.1697
   30MOL0     N 3967   8.029   9.867  10.092 -0.0366  0.2448  0.8168
   30MOL0     C 3968   8.980  10.030   9.353  0.4968 -0.8246 -0.5014
   30MOL0     C 3969   9.081  10.084   9.279 -0.7268  0.5465  0.4649
   30MOL0     C 3970   9.352  10.190   8.935 -0.7386  1.2704 -1.0559
   30MOL0     C 3971   9.474  10.141   8.885 -0.2893 -0.4821 -0.1366
   30MOL0     C 3972   9.541  10.213   8.785 -0.2128 -0.2606  0.9960
   30MOL0     C 3973   9.489  10.332   8.733  0.4253 -0.4049  0.2946
   30MOL0     O 3974   9.549  10.388   8.622 -0.8526 -0.0406  0.0019
   30MOL0     C 3975   9.468  10.409   8.504 -0.2034  1.0202 -0.4893
   30MOL0     C 3976   9.541  10.359   8.376  0.6702 -0.4084 -0.6890
   30MOL0     C 3977   9.659  10.440   8.328 -0.4823 -0.0309  0.1031
   30MOL0     C 3978   9.621  10.567   8.252 -0.4584 -0.4449  0.0681
   30MOL0     C 3979   9.640  10.688   8.332  0.4949 -0.5854 -0.0253
   30MOL0     C 3980   9.653  10.779   8.416 -1.2892 -0.2147 -0.6418
   30MOL0     C 3981   9.370  10.381   8.792 -0.3550 -0.2907 -0.3564
   30MOL0     C 3982   9.303  10.306   8.894 -0.7332 -0.2503 -0.0879
   30MOL0     H 3983   8.913  10.117   8.984  0.2942  2.7862  0.6273
   30MOL0     H 3984   8.729  10.029   9.129 -0.1290  3.3125 -1.0579
   30MOL0     H 3985   8.816   9.820   9.487  1.1755 -0.2432  1.3410
   30MOL0     H 3986   8.818   9.977   9.563 -2.9060  1.3658  1.0031
   30MOL0     H 3987   8.558   9.828   9.486  2.8521  0.8061 -2.9008
   30MOL0     H 3988   8.641   9.799   9.639 -3.0640 -0.0829  0.5771
   30MOL0     H 3989   8.612  10.027   9.719 -2.6158 -0.2708  1.3361
   30MOL0     H 3990   8.566  10.085   9.554  2.4165 -1.1051 -0.0275
   30MOL0     H 3991   8.369   9.928   9.572 -0.2790  0.3428 -0.5437
   30MOL0     H 3992   8.413   9.880   9.735  2.3129 -0.4959  0.6441
   30MOL0     H 3993   8.405  10.166   9.757  2.5828 -1.3917 -1.3869
   30MOL0     H 3994   8.290  10.130   9.626  3.8111  1.0429 -1.7033
   30MOL0     H 3995   8.190  10.150   9.850 -4.8692 -1.8042 -0.5868
   30MOL0     H 3996   8.161   9.992   9.791 -1.0632 -0.3809 -0.7478
   30MOL0     H 3997   8.316   9.887   9.922 -0.6431  0.7094 -0.0032
   30MOL0     H 3998   8.413  10.027   9.971  0.5289 -0.5283  0.7973
   30MOL0     H 3999   8.229  10.126  10.099 -3.2062  0.4635 -0.0435
   30MOL0     H 4000   8.249   9.973  10.168 -1.7124 -0.3480  0.1269
   30MOL0     H 4001   7.992  10.192  10.036 -1.7829 -0.5355 -1.7830
   30MOL0     H 4002   7.688  10.010  10.223  1.2217 -0.2849 -0.3550
   30MOL0     H 4003   7.792  10.139  10.257 -0.1502  2.5212 -1.0813
   30MOL0     H 4004   7.749  10.248  10.062  1.1412  0.1197  0.4984
   30MOL0     H 4005   7.597  10.200  10.158  1.2792  0.8968  0.4048
   30MOL0     H 4006   7.711  10.071   9.905 -0.5112 -0.3917  0.6010
   30MOL0     H 4007   7.586  10.191   9.902 -0.2308  0.9471 -0.0097
   30MOL0     H 4008   7.547   9.925  10.058  2.1779  1.7258  0.5898
   30MOL0     H 4009   7.471   9.944   9.897  1.1498  0.3406 -1.5441
   30MOL0     H 4010   7.389  10.315   9.996  2.6612 -1.1668 -0.9408
   30MOL0     H 4011   7.361  10.471   9.800  0.6351  0.4719 -0.2231
   30MOL0     H 4012   7.221  10.458   9.707 -0.5448 -2.6561 -0.8405
   30MOL0     H 4013   7.196  10.506   9.884 -1.2269 -1.1509 -0.4990
   30MOL0     H 4014   6.799  10.232   9.897 -1.5587  0.1405  1.3294
   30MOL0     H 4015   6.552  10.273   9.927  0.8653 -1.5509  0.1577
   30MOL0     H 4016   6.319  10.274   9.886 -0.2505  0.5446  0.7654
   30MOL0     H 4017   6.400  10.431   9.908 -0.3625 -1.0970  0.4700
   30MOL0     H 4018   6.148  10.360   9.755  1.3076 -0.3524 -0.2743
   30MOL0     H 4019   6.137  10.454   9.913  0.8807  1.8917  0.6774
   30MOL0     H 4020   6.254  10.573   9.667 -1.5014 -0.9828  1.2138
   30MOL0     H 4021   6.222  10.636   9.832  0.8831 -1.1457  1.9223
   30MOL0     H 4022   6.015  10.585   9.619 -1.5258  3.3157 -0.6481
   30MOL0     H 4023   5.983  10.586   9.790 -0.6458 -2.6026 -2.0197
   30MOL0     H 4024   6.122  10.781   9.613  0.8727 -2.8422  0.3769
   30MOL0     H 4025   6.101  10.818   9.792 -1.9516  0.5191 -0.3581
   30MOL0     H 4026   5.852  10.813   9.755  1.8393 -1.3369  0.7476
   30MOL0     H 4027   5.942  10.944   9.681  3.7371  0.4493  0.2301
   30MOL0     H 4028   5.817  10.688   9.586 -2.7843  1.4679 -0.5247
   30MOL0     H 4029   5.931  10.758   9.474  2.9424 -1.5675  2.4169
   30MOL0     H 4030   5.713  10.821   9.412  0.8951 -0.1952 -0.6537
   30MOL0     H 4031   5.788  10.970   9.482  1.5141 -0.2795  0.4526
   30MOL0     H 4032   6.522  10.328   9.503 -1.3511  4.0011  2.0578
   30MOL0     H 4033   6.748  10.229   9.478  0.9364 -0.1493 -0.7026
   30MOL0     H 4034   7.044  10.033   9.796 -1.9261  3.0632  1.4709
   30MOL0     H 4035   7.213   9.933   9.948  1.7041 -0.0109 -1.5937
   30MOL0     H 4036   9.001   9.984   9.449 -1.6531  1.4945  1.1983
   30MOL0     H 4037   9.182  10.083   9.318 -0.4761 -0.2001 -0.1644
   30MOL0     H 4038   9.513  10.051   8.932 -0.8715 -0.6889 -0.0317
   30MOL0     H 4039   9.631  10.175   8.739  0.5380  4.1265 -1.7527
   30MOL0     H 4040   9.371  10.361   8.519  0.0343  0.6283 -0.1739
   30MOL0     H 4041   9.442  10.514   8.486 -4.2242  0.4802  1.1416
   30MOL0     H 4042   9.478  10.347   8.287 -1.6915 -2.0251  1.0619
   30MOL0     H 4043   9.572  10.258   8.407 -3.0912 -1.3180  0.8297
   30MOL0     H 4044   9.712  10.365   8.269 -1.6043 -4.2314  3.9344
   30MOL0     H 4045   9.720  10.458   8.417  1.5492 -2.1483 -0.7747
   30MOL0     H 4046   9.514  10.573   8.228 -0.7681  2.2486  1.6562
   30MOL0     H 4047   9.686  10.575   8.165 -1.4774 -1.7973 -0.8612
   30MOL0     H 4048   9.655  10.855   8.492 -1.9605 -0.5879 -0.2515
   30MOL0     H 4049   9.333  10.477   8.758 -0.5444 -0.1753  0.1720
   30MOL0     H 4050   9.215  10.357   8.932  1.1088  0.8632  2.9927
   31MOL0     O 4051   4.519   7.336   0.789 -0.2485  0.2081  0.2652
   31MOL0     C 4052   4.553   7.215   0.773  0.7520  0.1564  0.5417
   31MOL0     O 4053   4.462   7.112   0.741 -0.1725  0.4860 -0.7773
   31MOL0     C 4054   4.332   7.149   0.734 -0.5161  0.3638  0.3135
   31MOL0     C 4055   4.246   7.131   0.843  0.4030  0.6221 -0.1916
   31MOL0     C 4056   4.109   7.171   0.836  1.1257  0.6400  0.4292
   31MOL0     C 4057   4.061   7.229   0.714 -0.4562 -0.4666 -0.4403
   31MOL0     O 4058   3.938   7.290   0.708 -0.2611 -0.4340  1.0771
   31MOL0     C 4059   3.879   7.314   0.575  1.0130 -0.4822 -0.3978
   31MOL0     C 4060   3.763   7.407   0.615 -0.4486 -0.2053  1.0851
   31MOL0     C 4061   3.675   7.442   0.488  1.2334 -0.6671 -0.4288
   31MOL0     C 4062   3.537   7.517   0.529 -0.5550 -0.2432  0.2407
   31MOL0     C 4063   3.437   7.435   0.606 -0.2643 -0.3233 -0.2153
   31MOL0     C 4064   3.302   7.436   0.536  0.2246  0.1625 -0.8175
   31MOL0     C 4065   3.182   7.438   0.615  1.2214  0.6093 -0.0605
   31MOL0     C 4066   3.065   7.504   0.529 -0.1273  0.0908 -0.2420
   31MOL0     N 4067   3.076   7.654   0.540 -0.4691 -0.5135  0.1854
   31MOL0     C 4068   3.040   7.740   0.643  0.0385 -0.1949 -0.0865
   31MOL0     C 4069   3.093   7.862   0.603  0.9442  0.9348 -0.0185
   31MOL0     C 4070   3.091   7.990   0.683 -0.2742 -0.0862 -0.5995
   31MOL0     C 4071   2.972   8.071   0.662 -0.6794 -0.8993 -0.5990
   31MOL0     C 4072   2.991   8.207   0.734  0.8929  0.2438 -0.1228
   31MOL0     C 4073   2.861   8.288   0.694  0.2780  0.3014 -0.0744
   31MOL0     O 4074   2.854   8.393   0.790  0.9801  1.4256 -0.2524
   31MOL0     C 4075   2.747   8.481   0.781 -0.5325  0.8610  0.5970
   31MOL0     C 4076   2.732   8.595   0.860 -0.0650  0.1581 -0.0194
   31MOL0     C 4077   2.635   8.694   0.856  0.0822 -0.2295  0.7264
   31MOL0     C 4078   2.633   8.809   0.951  0.2896  0.1196 -0.8361
   31MOL0     C 4079   2.537   8.671   0.764  0.8248  0.8519 -0.0619
   31MOL0     C 4080   2.429   8.766   0.732  0.8301  0.3968 -0.6973
   31MOL0     O 4081   2.415   8.785   0.597 -0.0616 -0.2626 -0.2658
   31MOL0     C 4082   2.290   8.811   0.553  0.9722  0.6343 -0.4263
   31MOL0     C 4083   2.283   8.886   0.429  0.2573  0.9732  0.3130
   31MOL0     C 4084   2.163   8.887   0.355 -0.4342 -0.5962 -0.5596
   31MOL0     C 4085   2.044   8.816   0.400  0.6843 -0.5686  0.8556
   31MOL0     O 4086   1.925   8.792   0.329  0.3397  0.0529  0.3063
   31MOL0     C 4087   1.866   8.897   0.260 -1.1045 -0.1786  0.7403
   31MOL0     C 4088   1.766   8.845   0.157  0.7752  0.4100 -0.4629
   31MOL0     C 4089   1.686   8.963   0.089 -0.4646 -0.1493  1.2136
   31MOL0     C 4090   1.581   8.918  -0.006  0.0081 -0.9027  0.2095
   31MOL0     C 4091   1.503   9.034  -0.056 -0.2442 -0.5600 -0.0332
   31MOL0     C 4092   1.414   8.983  -0.170  0.2570  0.5297  0.2534
   31MOL0     C 4093   1.326   9.104  -0.218 -0.3907  0.5574  0.2479
   31MOL0     C 4094   1.218   9.054  -0.315 -0.7330 -0.4405 -0.1129
   31MOL0    Cl 4095   1.084   9.167  -0.344  0.0164 -0.3149 -0.5068
   31MOL0     C 4096   2.056   8.757   0.527  0.3342  0.7466 -0.1435
   31MOL0     C 4097   2.170   8.762   0.602 -0.0397 -0.3614  0.0013
   31MOL0     O 4098   2.351   8.794   0.825  0.3283 -0.5069  1.5403
   31MOL0     C 4099   2.540   8.558   0.688 -0.1494  0.6345 -0.8375
   31MOL0     C 4100   2.640   8.466   0.698 -0.1453  0.0105  0.2807
   31MOL0     N 4101   3.157   7.860   0.485 -0.1698  0.6431  0.1621
   31MOL0     N 4102   3.157   7.736   0.457 -0.0169  0.5833  0.0781
   31MOL0     C 4103   4.147   7.230   0.606 -0.7058 -0.1724 -0.0542
   31MOL0     C 4104   4.278   7.187   0.615 -0.4489  0.3771 -0.1804
   31MOL0     C 4105   4.686   7.186   0.808  0.1641 -0.1023  1.4814
   31MOL0     C 4106   4.786   7.286   0.826 -0.2273 -0.0240 -0.0303
   31MOL0     C 4107   4.915   7.251   0.871 -0.0388  0.8854 -0.2777
   31MOL0     C 4108   4.957   7.121   0.887 -0.0156 -0.2175  0.5764
   31MOL0     O 4109   5.073   7.077   0.930 -0.5310 -0.7108  0.1838
   31MOL0     C 4110   5.186   7.168   0.940 -0.4706  0.4881 -0.5439
   31MOL0     C 4111   5.319   7.087   0.932 -0.3719  0.3722 -0.4107
   31MOL0     C 4112   5.339   7.012   1.065  0.2294  0.8543  1.2650
   31MOL0     C 4113   5.463   6.918   1.075 -0.0684  0.2093  0.1876
   31MOL0     C 4114   5.589   6.989   1.107  0.8777  0.1967  0.3651
   31MOL0     C 4115   5.698   7.028   1.146  0.1741  0.3285 -0.2967
   31MOL0     C 4116   4.862   7.021   0.860  0.6179 -0.3554  1.0555
   31MOL0     C 4117   4.732   7.054   0.822  0.8547  0.5945 -0.1504
   31MOL0     H 4118   4.295   7.096   0.933 -1.6680 -0.4359  0.6010
   31MOL0     H 4119   4.047   7.161   0.924  0.4282  0.7526 -0.0388
   31MOL0     H 4120   3.949   7.376   0.518  3.7130  1.6316  4.6125
   31MOL0     H 4121   3.842   7.227   0.519 -1.5806  0.2554  0.0235
   31MOL0     H 4122   3.703   7.357   0.691  0.9242  0.8008  2.8983
   31MOL0     H 4123   3.796   7.496   0.669  0.0739  1.9187 -2.4191
   31MOL0     H 4124   3.725   7.508   0.416  1.7631  2.4088  2.5138
   31MOL0     H 4125   3.638   7.355   0.433  0.2265 -0.4484 -0.1206
   31MOL0     H 4126   3.557   7.607   0.589 -2.9297 -1.3814  2.9993
   31MOL0     H 4127   3.498   7.547   0.432 -0.7146 -0.6196  0.1882
   31MOL0     H 4128   3.482   7.339   0.633 -1.4812 -0.3071  2.1265
   31MOL0     H 4129   3.419   7.487   0.701 -2.6029  3.1285 -2.3133
   31MOL0     H 4130   3.299   7.535   0.489  0.1011  1.5060  1.8392
   31MOL0     H 4131   3.296   7.355   0.463 -4.0759  0.5010 -1.1051
   31MOL0     H 4132   3.154   7.338   0.651  1.6956  0.9193  1.2399
   31MOL0     H 4133   3.201   7.499   0.704  0.6821  0.7198 -0.0167
   31MOL0     H 4134   2.964   7.484   0.565 -0.3759  0.6606 -0.6106
   31MOL0     H 4135   3.074   7.467   0.427  0.0124 -4.6743  1.2850
   31MOL0     H 4136   2.982   7.718   0.732 -2.7219  0.8377 -1.4910
   31MOL0     H 4137   3.105   7.955   0.786 -4.0388 -1.4086 -0.3763
   31MOL0     H 4138   3.175   8.056   0.658  0.4492  1.5424  4.7209
   31MOL0     H 4139   2.886   8.025   0.710  1.6891 -2.8235  2.1688
   31MOL0     H 4140   2.962   8.077   0.553  0.3208  0.0561 -0.6642
   31MOL0     H 4141   3.082   8.263   0.710  0.1019  1.7298  0.2168
   31MOL0     H 4142   2.995   8.200   0.843 -0.7144  0.6923 -0.0046
   31MOL0     H 4143   2.766   8.234   0.695 -0.3545  1.4036  0.2357
   31MOL0     H 4144   2.883   8.330   0.595 -1.2924  4.0303  1.0169
   31MOL0     H 4145   2.797   8.611   0.946 -2.5288  1.1993  1.7432
   31MOL0     H 4146   2.654   8.910   0.912 -1.4499  1.7364  2.0487
   31MOL0     H 4147   2.539   8.819   1.005  0.1766 -1.3483 -0.7369
   31MOL0     H 4148   2.711   8.795   1.027  1.3737 -0.1272 -1.9522
   31MOL0     H 4149   2.376   8.925   0.387 -0.1992  0.6150 -1.0672
   31MOL0     H 4150   2.161   8.954   0.270 -1.3855  3.3756  2.3154
   31MOL0     H 4151   1.812   8.952   0.338  0.6657 -0.1045  1.9855
   31MOL0     H 4152   1.943   8.961   0.215  0.5381 -0.8586  2.4093
   31MOL0     H 4153   1.810   8.785   0.077 -0.9463 -0.1179 -1.0626
   31MOL0     H 4154   1.702   8.776   0.213  0.4220  1.5325  0.5667
   31MOL0     H 4155   1.754   9.033   0.040 -0.8932  0.7559  1.8777
   31MOL0     H 4156   1.629   9.025   0.160  0.8254  2.6217 -0.0170
   31MOL0     H 4157   1.631   8.870  -0.091 -3.2733 -2.6621 -0.9049
   31MOL0     H 4158   1.503   8.854   0.035 -1.4661  0.1535 -0.8021
   31MOL0     H 4159   1.562   9.123  -0.080 -3.0460  0.7251 -2.8957
   31MOL0     H 4160   1.431   9.066   0.020 -2.6121 -4.0317 -0.5551
   31MOL0     H 4161   1.477   8.943  -0.251 -1.8678  0.6856 -1.5896
   31MOL0     H 4162   1.350   8.901  -0.137 -2.2775  0.9385 -3.1404
   31MOL0     H 4163   1.400   9.170  -0.266 -0.2080  0.5874  0.5653
   31MOL0     H 4164   1.286   9.163  -0.135  1.1289  1.4174  0.4151
   31MOL0     H 4165   1.181   8.966  -0.261 -2.6212  0.9597  0.9761
   31MOL0     H 4166   1.257   9.023  -0.412  1.0596 -2.0032  1.0257
   31MOL0     H 4167   1.968   8.701   0.555  0.0920  0.6691 -1.0228
   31MOL0     H 4168   2.171   8.715   0.700  2.3995 -0.2960  0.0621
   31MOL0     H 4169   2.459   8.514   0.630 -0.6131 -0.6029  0.6944
   31MOL0     H 4170   2.624   8.374   0.642 -2.7943  0.3336  0.3562
   31MOL0     H 4171   4.124   7.278   0.511 -1.3795  1.5144  0.9117
   31MOL0     H 4172   4.339   7.194   0.525 -0.0969 -0.2722  0.0078
   31MOL0     H 4173   4.750   7.388   0.836 -2.2703 -0.7988  1.2460
   31MOL0     H 4174   4.972   7.332   0.915  1.4668  0.2075 -0.9126
   31MOL0     H 4175   5.195   7.237   0.856  0.0743 -0.3087 -1.1666
   31MOL0     H 4176   5.180   7.233   1.027  2.2495 -0.5074  0.5058
   31MOL0     H 4177   5.413   7.135   0.902  1.6378 -3.8208 -1.4470
   31MOL0     H 4178   5.309   7.019   0.847  5.0687 -0.8915 -0.3476
   31MOL0     H 4179   5.251   6.949   1.079  2.3229 -2.6465  0.1977
   31MOL0     H 4180   5.350   7.093   1.138 -1.3007  0.3530  2.0838
   31MOL0     H 4181   5.476   6.861   0.982  1.2124 -1.5701  1.3815
   31MOL0     H 4182   5.442   6.841   1.149  0.6443 -0.5415 -0.3738
   31MOL0     H 4183   5.784   7.074   1.191  0.3317 -2.6233  2.7950
   31MOL0     H 4184   4.891   6.917   0.866 -0.2921 -0.7034 -0.2416
   31MOL0     H 4185   4.667   6.968   0.805  2.2807 -0.4359 -0.5684
   32MOL0     O 4186   6.577   7.180   9.307  0.0901  0.3528 -0.0117
   32MOL0     C 4187   6.611   7.135   9.198 -0.1588  0.9454  1.0964
   32MOL0     O 4188   6.532   7.119   9.089 -0.1495  0.4157  0.0268
   32MOL0     C 4189   6.399   7.100   9.107  0.0086  0.0964 -0.1892
   32MOL0     C 4190   6.313   7.197   9.041  0.2578  0.4008 -0.0146
   32MOL0     C 4191   6.168   7.184   9.055  0.1733 -0.9880 -0.4264
   32MOL0     C 4192   6.110   7.091   9.141 -0.1799 -0.3268  0.1156
   32MOL0     O 4193   5.976   7.098   9.176 -0.1971 -0.1472  0.6822
   32MOL0     C 4194   5.896   6.985   9.131  0.2825  0.0542  0.2282
   32MOL0     C 4195   5.747   7.010   9.162 -0.8925 -0.7881 -0.3670
   32MOL0     C 4196   5.650   6.908   9.106 -0.5241  0.1618  0.3815
   32MOL0     C 4197   5.503   6.960   9.124 -0.4185 -0.1394 -1.0740
   32MOL0     C 4198   5.402   6.854   9.070  0.1781  0.6310 -0.1266
   32MOL0     C 4199   5.450   6.788   8.945 -0.2794 -0.2018 -0.7642
   32MOL0     C 4200   5.361   6.693   8.867  0.1841 -0.1145 -0.2316
   32MOL0     C 4201   5.327   6.566   8.940  0.1711 -0.5814 -0.1628
   32MOL0     N 4202   5.203   6.498   8.902  0.4276  0.3183 -0.4905
   32MOL0     C 4203   5.173   6.398   8.817 -0.3746  0.3929 -0.3381
   32MOL0     C 4204   5.043   6.402   8.810  0.7984 -0.6836 -0.2293
   32MOL0     C 4205   4.963   6.323   8.712 -0.3548  0.1845  0.1185
   32MOL0     C 4206   4.811   6.325   8.740 -0.2385  0.8929 -0.2024
   32MOL0     C 4207   4.768   6.240   8.868  0.8284  0.9784 -0.0040
   32MOL0     C 4208   4.616   6.223   8.871 -0.2391  0.2224 -0.5045
   32MOL0     O 4209   4.550   6.344   8.922 -0.2817  0.0139  0.5774
   32MOL0     C 4210   4.421   6.311   8.967 -0.1853 -0.0991  0.2472
   32MOL0     C 4211   4.336   6.208   8.918  0.9807  0.4386  0.1493
   32MOL0     C 4212   4.196   6.199   8.952  0.7101 -0.2985 -0.5084
   32MOL0     C 4213   4.115   6.079   8.888  0.6538 -0.2540 -0.4240
   32MOL0     C 4214   4.142   6.302   9.042  0.1262 -0.5583 -0.2189
   32MOL0     C 4215   3.995   6.317   9.073 -0.3801 -0.3909 -0.3046
   32MOL0     O 4216   3.913   6.220   9.050  0.5519  0.0496 -0.0598
   32MOL0     C 4217   3.778   6.252   9.055  0.4478  0.5109  0.1376
   32MOL0     C 4218   3.700   6.198   8.954 -0.3261 -0.0140  0.5357
   32MOL0     C 4219   3.566   6.229   8.951  0.0082 -0.6953  0.0298
   32MOL0     C 4220   3.505   6.315   9.040  0.1689 -0.6611 -0.2960
   32MOL0     O 4221   3.375   6.365   9.035 -0.4942  0.0486 -0.2309
   32MOL0     C 4222   3.308   6.397   8.912 -0.5806  0.4757  0.2942
   32MOL0     C 4223   3.189   6.492   8.932 -0.8334 -0.3114 -0.5954
   32MOL0     C 4224   3.236   6.624   9.001  0.3522 -0.2018  0.5756
   32MOL0     C 4225   3.120   6.717   9.024 -0.3289  1.0466  0.7166
   32MOL0     C 4226   3.152   6.838   9.098 -0.4204  0.5744 -0.1671
   32MOL0     C 4227   3.044   6.952   9.085  0.1805  0.1301  0.5667
   32MOL0     C 4228   2.989   6.981   8.945  0.7608 -0.3169  0.0876
   32MOL0     C 4229   2.910   7.110   8.930  0.3518 -0.0615 -0.2785
   32MOL0    Cl 4230   2.874   7.131   8.760  0.5442 -0.8826 -0.1325
   32MOL0     C 4231   3.574   6.363   9.147 -0.0925 -0.0203 -0.2553
   32MOL0     C 4232   3.716   6.331   9.158 -0.6619 -0.5968  0.1729
   32MOL0     O 4233   3.972   6.423   9.131 -0.3746 -0.1317 -0.3241
   32MOL0     C 4234   4.233   6.392   9.101  0.0785 -0.6110  0.5946
   32MOL0     C 4235   4.367   6.393   9.064 -0.1414 -0.1041 -0.5609
   32MOL0     N 4236   4.988   6.497   8.903 -0.3354 -0.1999  0.2103
   32MOL0     N 4237   5.092   6.550   8.957  0.1245 -0.3958 -0.0432
   32MOL0     C 4238   6.202   7.008   9.209 -0.1543 -0.0818  0.2059
   32MOL0     C 4239   6.341   7.016   9.192 -0.4021 -0.5189 -0.6752
   32MOL0     C 4240   6.748   7.088   9.164  0.3478  0.9418 -0.1350
   32MOL0     C 4241   6.849   7.113   9.256 -0.2407  1.0658  0.2973
   32MOL0     C 4242   6.980   7.065   9.223 -0.2225 -0.4543 -0.2206
   32MOL0     C 4243   7.005   7.001   9.100  0.2383  0.5174 -0.6068
   32MOL0     O 4244   7.126   6.942   9.066  0.2838  0.5967 -0.9916
   32MOL0     C 4245   7.219   7.051   9.037  0.2135 -0.1995 -0.3698
   32MOL0     C 4246   7.277   7.056   8.894 -0.7100 -0.0829 -0.3837
   32MOL0     C 4247   7.360   6.936   8.854 -0.4416 -0.6966  0.4399
   32MOL0     C 4248   7.282   6.809   8.811  0.3550 -0.1912 -0.6181
   32MOL0     C 4249   7.360   6.724   8.720  0.0022  0.0678  0.3367
   32MOL0     C 4250   7.439   6.668   8.640 -0.2878 -0.3714 -0.5147
   32MOL0     C 4251   6.900   6.975   9.012 -0.6880 -0.1291 -0.1062
   32MOL0     C 4252   6.770   7.017   9.043 -0.9407  0.1967 -0.0634
   32MOL0     H 4253   6.356   7.274   8.979  0.5361 -0.2315 -0.6158
   32MOL0     H 4254   6.099   7.260   9.020 -1.8396 -0.2571  4.3511
   32MOL0     H 4255   5.902   6.972   9.022 -0.8244 -0.1561  0.1735
   32MOL0     H 4256   5.933   6.896   9.183  0.7097  0.0667 -0.0489
   32MOL0     H 4257   5.730   7.018   9.270 -0.8062 -0.5930 -0.3670
   32MOL0     H 4258   5.713   7.107   9.125 -1.4160  0.6216  3.4180
   32MOL0     H 4259   5.687   6.899   9.003  1.5016  0.9822  0.9999
   32MOL0     H 4260   5.656   6.811   9.156 -2.3271  0.1884  0.7330
   32MOL0     H 4261   5.485   6.982   9.230  0.4141 -1.9422 -0.5213
   32MOL0     H 4262   5.498   7.054   9.069 -2.0902  0.2395 -0.3179
   32MOL0     H 4263   5.407   6.777   9.148 -1.4587 -0.6627 -1.2293
   32MOL0     H 4264   5.306   6.905   9.064  1.7954  3.7792 -1.7110
   32MOL0     H 4265   5.476   6.875   8.884 -1.1217  1.0111  0.5366
   32MOL0     H 4266   5.542   6.735   8.971  0.7330  1.7438 -0.2420
   32MOL0     H 4267   5.266   6.742   8.843  0.9600  0.4818 -2.3222
   32MOL0     H 4268   5.413   6.682   8.772  2.5666  5.8290 -0.0472
   32MOL0     H 4269   5.332   6.588   9.047  0.7094  1.1231 -0.4962
   32MOL0     H 4270   5.412   6.499   8.923 -0.1547 -0.9167 -0.4840
   32MOL0     H 4271   5.241   6.341   8.754 -0.9551 -1.7521  0.9233
   32MOL0     H 4272   4.989   6.371   8.617 -0.4594  0.9115  0.4475
   32MOL0     H 4273   4.997   6.220   8.717  1.2521  0.7568  1.5119
   32MOL0     H 4274   4.762   6.301   8.645  1.7868  2.9872 -1.8907
   32MOL0     H 4275   4.768   6.423   8.765 -4.4195 -1.0503  1.0938
   32MOL0     H 4276   4.800   6.291   8.959 -2.1361 -0.0547  1.7577
   32MOL0     H 4277   4.822   6.145   8.873  3.3475  2.3907  2.0169
   32MOL0     H 4278   4.592   6.136   8.931 -1.0883 -1.0638 -2.5971
   32MOL0     H 4279   4.582   6.184   8.775  0.5117  0.5067 -0.8907
   32MOL0     H 4280   4.364   6.140   8.838  0.8355  0.5190  0.0274
   32MOL0     H 4281   4.181   6.033   8.814  1.1840  2.8669 -2.0456
   32MOL0     H 4282   4.087   6.009   8.967  1.6468  2.3117  2.4056
   32MOL0     H 4283   4.027   6.107   8.829  2.1744  0.6615 -2.3596
   32MOL0     H 4284   3.738   6.131   8.878  1.5917  1.8810 -0.2822
   32MOL0     H 4285   3.503   6.191   8.871 -1.7508  3.4961 -0.8819
   32MOL0     H 4286   3.371   6.433   8.831 -0.3930  0.5801  0.4847
   32MOL0     H 4287   3.261   6.303   8.880  0.9483  0.4302 -2.0574
   32MOL0     H 4288   3.131   6.513   8.842 -2.4633 -1.6805  0.0677
   32MOL0     H 4289   3.115   6.437   8.992 -0.2553 -0.3213  0.1209
   32MOL0     H 4290   3.305   6.671   8.930 -0.1594 -0.7372 -0.2848
   32MOL0     H 4291   3.293   6.611   9.094  3.1470  3.3717 -0.4263
   32MOL0     H 4292   3.088   6.729   8.920  1.1269  2.4838  0.3908
   32MOL0     H 4293   3.038   6.662   9.072 -0.1786 -0.7441 -0.9293
   32MOL0     H 4294   3.250   6.867   9.059 -0.4759  0.2306 -0.5688
   32MOL0     H 4295   3.165   6.829   9.206 -0.3926  2.3505  0.0068
   32MOL0     H 4296   2.961   6.918   9.149  0.8160  2.0938  2.5451
   32MOL0     H 4297   3.086   7.044   9.125 -1.5959  0.5359  1.6292
   32MOL0     H 4298   2.918   6.902   8.918  0.1012 -0.5902  2.3947
   32MOL0     H 4299   3.066   6.978   8.868  0.4673 -0.6365 -0.1990
   32MOL0     H 4300   2.971   7.193   8.966 -1.4862  0.5247  1.7138
   32MOL0     H 4301   2.812   7.116   8.978  0.0895  0.3710 -0.8634
   32MOL0     H 4302   3.516   6.417   9.221 -2.5320 -1.6719 -0.8673
   32MOL0     H 4303   3.772   6.370   9.243 -0.8236  1.7770 -0.7277
   32MOL0     H 4304   4.203   6.463   9.177  0.1416 -0.4428  0.4621
   32MOL0     H 4305   4.424   6.473   9.110 -0.6071 -0.3465  0.4658
   32MOL0     H 4306   6.144   6.938   9.268 -2.0841  1.6984  0.5251
   32MOL0     H 4307   6.396   6.958   9.265  1.3917 -0.0794 -1.6056
   32MOL0     H 4308   6.831   7.155   9.354 -2.5941  3.7267 -1.1528
   32MOL0     H 4309   7.059   7.093   9.292 -0.4871  0.8798 -0.4212
   32MOL0     H 4310   7.193   7.155   9.060 -0.4023 -0.4236 -0.0198
   32MOL0     H 4311   7.302   7.026   9.104  0.9403 -0.6186 -1.4069
   32MOL0     H 4312   7.339   7.145   8.884 -1.0113 -0.0157 -1.8086
   32MOL0     H 4313   7.193   7.069   8.826 -1.1340  1.1328  0.3399
   32MOL0     H 4314   7.427   6.924   8.940 -2.9319 -2.2222  2.3267
   32MOL0     H 4315   7.434   6.963   8.778  0.6903  0.1318  1.7953
   32MOL0     H 4316   7.191   6.830   8.754 -0.8498 -1.8682  0.6008
   32MOL0     H 4317   7.253   6.747   8.896  0.7847 -0.5569 -0.7379
   32MOL0     H 4318   7.507   6.639   8.563  0.4742  2.2107 -0.9244
   32MOL0     H 4319   6.936   6.914   8.930  0.2415 -2.4251  1.8561
   32MOL0     H 4320   6.686   6.992   8.979 -1.9347 -0.4324  1.4232
   33MOL0     O 4321   6.662   8.860   9.313 -0.3263  1.1012 -0.6485
   33MOL0     C 4322   6.680   8.927   9.208 -0.1071 -0.0845 -0.8582
   33MOL0     O 4323   6.585   8.970   9.121 -0.1979 -0.0322  0.1643
   33MOL0     C 4324   6.457   8.943   9.151 -0.4863  0.0683 -0.8417
   33MOL0     C 4325   6.397   8.992   9.271 -0.6341  1.1773  0.6898
   33MOL0     C 4326   6.264   8.962   9.291 -0.2953 -0.0119 -0.3314
   33MOL0     C 4327   6.184   8.891   9.206 -0.3304  0.1108  0.0778
   33MOL0     O 4328   6.047   8.870   9.236 -0.2408 -0.2955  0.0094
   33MOL0     C 4329   5.963   8.866   9.110  0.4557 -0.1672 -0.4084
   33MOL0     C 4330   5.816   8.903   9.143  0.0597 -0.0326  0.1265
   33MOL0     C 4331   5.797   9.053   9.180  0.3888  0.8748 -0.4862
   33MOL0     C 4332   5.648   9.069   9.221  0.1328 -0.6068 -0.5260
   33MOL0     C 4333   5.532   9.048   9.121  0.0414 -0.1506  1.0061
   33MOL0     C 4334   5.448   8.914   9.146 -0.6068  0.3436 -1.0552
   33MOL0     C 4335   5.350   8.876   9.043  0.1863  0.6522 -0.3940
   33MOL0     C 4336   5.285   8.747   9.076 -0.0251  0.1341  0.4572
   33MOL0     N 4337   5.253   8.657   8.965  0.3952  0.1407 -0.4227
   33MOL0     C 4338   5.139   8.589   8.937 -0.0470  0.4150 -0.0432
   33MOL0     C 4339   5.175   8.485   8.856  0.0934 -0.3459  0.7872
   33MOL0     C 4340   5.086   8.384   8.790 -0.0561 -1.5617 -0.1406
   33MOL0     C 4341   5.026   8.289   8.892 -0.7098  0.3331 -0.1550
   33MOL0     C 4342   4.915   8.346   8.973 -0.1354  1.0458 -0.8717
   33MOL0     C 4343   4.776   8.330   8.906  0.1657 -0.2529 -0.1026
   33MOL0     O 4344   4.671   8.372   9.006  0.4193  0.0188  0.1497
   33MOL0     C 4345   4.536   8.393   8.968  0.0316  1.4390 -0.0581
   33MOL0     C 4346   4.490   8.378   8.835  0.3180  0.4542 -1.0972
   33MOL0     C 4347   4.353   8.411   8.803  0.3933  0.4851 -0.4536
   33MOL0     C 4348   4.307   8.406   8.658  0.6425  0.0094  0.5393
   33MOL0     C 4349   4.263   8.461   8.896  1.0705  0.4216 -0.4666
   33MOL0     C 4350   4.121   8.497   8.867  0.0653  0.1811  0.1357
   33MOL0     O 4351   4.039   8.449   8.962 -0.2691  0.3959  0.2658
   33MOL0     C 4352   3.907   8.490   8.964  0.0566  0.3342  0.0171
   33MOL0     C 4353   3.815   8.404   8.892 -0.7715  0.3353 -0.2064
   33MOL0     C 4354   3.678   8.433   8.880 -0.6153  0.6003  0.6089
   33MOL0     C 4355   3.630   8.553   8.943 -0.1126 -0.1674  0.5171
   33MOL0     O 4356   3.507   8.607   8.951 -0.2430  0.3225 -0.2270
   33MOL0     C 4357   3.411   8.557   8.855  0.0489 -0.0360 -0.0307
   33MOL0     C 4358   3.305   8.665   8.827  0.1375  0.3296  0.3483
   33MOL0     C 4359   3.234   8.620   8.702 -0.2144 -0.7226  0.3748
   33MOL0     C 4360   3.101   8.699   8.693  0.2140  0.2823 -1.0390
   33MOL0     C 4361   3.016   8.679   8.563  0.1435  0.0269 -0.4927
   33MOL0     C 4362   2.864   8.721   8.593 -0.7389  0.0863 -0.9600
   33MOL0     C 4363   2.801   8.733   8.460  0.9615 -0.3161  0.2432
   33MOL0     C 4364   2.651   8.764   8.482 -0.3556  0.2503  0.3381
   33MOL0    Cl 4365   2.566   8.808   8.329  0.2665 -0.0749  0.2918
   33MOL0     C 4366   3.723   8.624   9.026  0.1904  0.2909 -0.3969
   33MOL0     C 4367   3.854   8.580   9.048  0.0408 -0.7273  0.3187
   33MOL0     O 4368   4.086   8.588   8.792 -0.0105 -0.3744  0.3717
   33MOL0     C 4369   4.308   8.477   9.025 -0.5693  0.4331 -1.2026
   33MOL0     C 4370   4.439   8.428   9.059 -0.3028  0.9713  0.1737
   33MOL0     N 4371   5.310   8.492   8.833  0.3708  0.0372 -0.3928
   33MOL0     N 4372   5.357   8.598   8.900 -0.1037  0.1923 -0.6454
   33MOL0     C 4373   6.243   8.836   9.095  0.0329  0.1008  0.1566
   33MOL0     C 4374   6.378   8.865   9.069 -0.1600 -0.7738  0.9184
   33MOL0     C 4375   6.815   8.957   9.157  0.7864 -0.6053  0.6997
   33MOL0     C 4376   6.830   9.045   9.043 -0.4145  0.2843  0.1471
   33MOL0     C 4377   6.958   9.085   8.998  0.4033  1.1680 -0.8738
   33MOL0     C 4378   7.074   9.025   9.048  0.2619 -0.1272 -0.0507
   33MOL0     O 4379   7.189   9.047   8.981  0.0589 -0.2335  0.3118
   33MOL0     C 4380   7.321   9.017   9.032  1.3925 -0.2050 -0.4170
   33MOL0     C 4381   7.358   8.878   9.003  0.5951 -0.0050  0.2738
   33MOL0     C 4382   7.466   8.823   9.099 -0.2853  0.0432  0.4967
   33MOL0     C 4383   7.613   8.861   9.075 -0.0033  0.5987  0.9422
   33MOL0     C 4384   7.648   8.988   9.139 -0.0293 -0.4388  0.0432
   33MOL0     C 4385   7.660   9.101   9.189 -0.2217  0.1557 -0.9152
   33MOL0     C 4386   7.059   8.950   9.167 -0.2758  0.1560 -0.3671
   33MOL0     C 4387   6.930   8.921   9.216 -0.3083  0.5127 -0.3084
   33MOL0     H 4388   6.448   9.052   9.346  2.1991 -2.9510  2.4309
   33MOL0     H 4389   6.223   8.993   9.386 -0.8314  0.3398 -0.6741
   33MOL0     H 4390   6.005   8.941   9.043 -0.7971  0.8014 -0.1482
   33MOL0     H 4391   5.978   8.765   9.069  1.6651 -1.2632  2.4835
   33MOL0     H 4392   5.751   8.883   9.057  0.3406 -2.3554  0.3789
   33MOL0     H 4393   5.787   8.848   9.233 -0.0483 -1.2781 -0.6332
   33MOL0     H 4394   5.857   9.086   9.265 -1.5442  1.3833  0.7564
   33MOL0     H 4395   5.814   9.122   9.096 -0.0026  0.0204 -1.2800
   33MOL0     H 4396   5.634   9.001   9.305  1.9870  1.4155  1.5479
   33MOL0     H 4397   5.647   9.167   9.269 -0.6356 -2.1584  2.9353
   33MOL0     H 4398   5.468   9.136   9.107  0.7033  0.1455 -0.3521
   33MOL0     H 4399   5.568   9.028   9.020 -1.2544 -1.4531  0.7704
   33MOL0     H 4400   5.515   8.830   9.167 -2.1182 -0.5974  0.2815
   33MOL0     H 4401   5.393   8.940   9.237  0.1863  3.0183 -1.2514
   33MOL0     H 4402   5.266   8.944   9.027  0.0500  0.0799 -2.3883
   33MOL0     H 4403   5.403   8.855   8.949  0.4281  0.9284 -0.3230
   33MOL0     H 4404   5.188   8.773   9.119 -0.7494 -0.2896 -0.8810
   33MOL0     H 4405   5.342   8.696   9.155 -1.2933 -0.7088  0.8708
   33MOL0     H 4406   5.038   8.615   8.967  0.2627 -0.6535  2.1411
   33MOL0     H 4407   5.015   8.440   8.729  2.9134  1.5208 -1.0483
   33MOL0     H 4408   5.160   8.330   8.730  0.7612 -0.6359  0.0157
   33MOL0     H 4409   5.104   8.253   8.960  0.1400  1.7135 -0.3463
   33MOL0     H 4410   4.992   8.200   8.839 -0.0032 -0.1303  0.1503
   33MOL0     H 4411   4.943   8.445   9.010  2.4106 -0.6962  2.4177
   33MOL0     H 4412   4.902   8.292   9.068  1.3126 -0.3195 -1.4023
   33MOL0     H 4413   4.762   8.228   8.869 -2.4834  0.3827 -1.0913
   33MOL0     H 4414   4.769   8.398   8.822 -0.7829 -1.4272 -1.0163
   33MOL0     H 4415   4.554   8.353   8.751 -0.3263 -0.5808 -1.2947
   33MOL0     H 4416   4.385   8.367   8.591  0.4952 -0.1210  0.4452
   33MOL0     H 4417   4.218   8.346   8.637  1.3032 -0.2220 -1.8622
   33MOL0     H 4418   4.287   8.510   8.631 -0.8083  0.0258  1.5842
   33MOL0     H 4419   3.849   8.315   8.839  0.4140  0.4306  0.3695
   33MOL0     H 4420   3.611   8.374   8.819  1.6006 -1.3369 -0.0648
   33MOL0     H 4421   3.460   8.534   8.760 -1.3290 -1.9303 -0.3361
   33MOL0     H 4422   3.371   8.463   8.894 -0.1991  0.1190  0.0986
   33MOL0     H 4423   3.244   8.675   8.917 -1.8461  1.9299 -1.0769
   33MOL0     H 4424   3.342   8.767   8.810 -2.5299  1.5221  1.1899
   33MOL0     H 4425   3.224   8.512   8.688  1.0899 -0.6158 -1.8444
   33MOL0     H 4426   3.290   8.645   8.611  1.1886 -2.1426  0.8089
   33MOL0     H 4427   3.041   8.673   8.781  1.8515 -2.0902 -0.5076
   33MOL0     H 4428   3.135   8.802   8.698  0.5439  0.2002 -1.4838
   33MOL0     H 4429   3.009   8.581   8.515  1.3322 -0.8017  0.9415
   33MOL0     H 4430   3.045   8.752   8.486 -2.6420  1.3187 -0.4216
   33MOL0     H 4431   2.822   8.653   8.668 -0.2697  1.5733  0.7486
   33MOL0     H 4432   2.866   8.816   8.646 -0.2219  0.3913 -1.5087
   33MOL0     H 4433   2.820   8.645   8.399 -1.8552 -0.1992 -0.9558
   33MOL0     H 4434   2.844   8.817   8.405 -2.7748  2.5958  1.3251
   33MOL0     H 4435   2.658   8.850   8.550  1.5281  0.8529 -0.5473
   33MOL0     H 4436   2.587   8.684   8.519 -0.2180  0.0645  0.1726
   33MOL0     H 4437   3.693   8.716   9.075  0.2916 -0.4206  1.0519
   33MOL0     H 4438   3.920   8.635   9.114 -0.7183  1.0405 -0.3214
   33MOL0     H 4439   4.245   8.531   9.094  1.6417  1.7621 -0.1016
   33MOL0     H 4440   4.478   8.438   9.160 -1.3778  3.4083  0.4359
   33MOL0     H 4441   6.192   8.783   9.016 -2.5697  2.2680  0.2357
   33MOL0     H 4442   6.428   8.819   8.984  0.0671  1.2210 -0.0715
   33MOL0     H 4443   6.740   9.065   8.985 -1.6714 -0.8269  1.6007
   33MOL0     H 4444   6.965   9.145   8.908  1.0828  1.1220 -0.8523
   33MOL0     H 4445   7.392   9.091   8.995 -0.8056  2.3411  0.1334
   33MOL0     H 4446   7.312   9.033   9.140 -5.0879 -0.5878 -0.5073
   33MOL0     H 4447   7.383   8.865   8.898 -0.0258 -0.5261  0.1863
   33MOL0     H 4448   7.267   8.822   9.027  0.7185 -0.6027 -0.6261
   33MOL0     H 4449   7.466   8.715   9.079 -0.5900  0.8262 -5.8041
   33MOL0     H 4450   7.439   8.837   9.204  4.1983 -0.1945  1.8966
   33MOL0     H 4451   7.641   8.862   8.969 -0.5310 -0.0396  0.7934
   33MOL0     H 4452   7.674   8.793   9.135  0.6060 -0.1266 -0.4316
   33MOL0     H 4453   7.680   9.201   9.223  2.1324 -0.1513 -1.2148
   33MOL0     H 4454   7.153   8.913   9.206 -0.3879  0.2594  0.0086
   33MOL0     H 4455   6.930   8.865   9.308  0.9925  2.0959  0.7061
   34MOL0     O 4456   7.410   3.516   9.526 -0.2209 -0.0994  0.7146
   34MOL0     C 4457   7.389   3.632   9.534 -0.0042  0.6284 -0.8825
   34MOL0     O 4458   7.317   3.703   9.439 -0.2964 -0.0989  0.0515
   34MOL0     C 4459   7.302   3.646   9.312  0.3401  0.4301 -0.5810
   34MOL0     C 4460   7.167   3.627   9.271  0.6374 -0.5315  0.4745
   34MOL0     C 4461   7.135   3.559   9.152  0.6387  0.7877  0.5651
   34MOL0     C 4462   7.237   3.516   9.066  1.2568  0.1413 -0.3116
   34MOL0     O 4463   7.211   3.451   8.946 -1.1680  0.0773 -0.7778
   34MOL0     C 4464   7.085   3.453   8.885 -0.1132 -0.0355  1.2112
   34MOL0     C 4465   7.105   3.434   8.740  0.3659 -0.5436 -0.2329
   34MOL0     C 4466   7.172   3.302   8.699 -0.1234 -0.0252 -0.2497
   34MOL0     C 4467   7.158   3.273   8.553  1.2451  0.7849 -0.2999
   34MOL0     C 4468   7.205   3.133   8.504 -0.2324  0.2402 -0.0870
   34MOL0     C 4469   7.343   3.116   8.567  0.6946  0.0256  0.7228
   34MOL0     C 4470   7.408   2.987   8.509 -0.7055  0.3156  0.9735
   34MOL0     C 4471   7.537   2.928   8.570  0.1443 -0.3083  0.8435
   34MOL0     N 4472   7.660   3.011   8.545  0.2426  0.6185 -0.5155
   34MOL0     C 4473   7.682   3.144   8.580  0.0533 -0.9349  0.2134
   34MOL0     C 4474   7.811   3.161   8.554 -0.3912 -0.0257 -1.0035
   34MOL0     C 4475   7.884   3.290   8.563  0.1244 -0.2097  0.5357
   34MOL0     C 4476   7.897   3.354   8.705 -0.0484  0.5817  0.5346
   34MOL0     C 4477   8.009   3.459   8.703 -0.3308  0.6622  0.9596
   34MOL0     C 4478   7.983   3.580   8.609 -0.3685 -0.1584 -0.9461
   34MOL0     O 4479   8.006   3.553   8.474  0.8223  0.0507 -0.0555
   34MOL0     C 4480   7.933   3.628   8.384  1.0879 -0.0043  0.0401
   34MOL0     C 4481   7.910   3.763   8.388 -0.8745  0.0268  0.0303
   34MOL0     C 4482   7.821   3.828   8.302 -0.0122 -0.0715  0.3007
   34MOL0     C 4483   7.801   3.978   8.325 -0.6072 -1.0280  1.0854
   34MOL0     C 4484   7.744   3.750   8.201  0.0186 -0.8558  0.4052
   34MOL0     C 4485   7.632   3.792   8.116  0.1140 -0.4256  0.0616
   34MOL0     O 4486   7.559   3.693   8.054 -0.3633  0.0243  0.0661
   34MOL0     C 4487   7.435   3.728   8.010 -0.2788  0.0886  0.0197
   34MOL0     C 4488   7.348   3.811   8.084 -0.4362 -0.3260 -0.1311
   34MOL0     C 4489   7.226   3.850   8.033  0.8899 -0.1642 -0.7378
   34MOL0     C 4490   7.184   3.806   7.913 -0.3677  0.6388  0.1853
   34MOL0     O 4491   7.063   3.837   7.839 -0.0064 -0.7060  0.2802
   34MOL0     C 4492   6.979   3.948   7.886 -0.1244  0.7572 -0.3322
   34MOL0     C 4493   6.860   3.963   7.802  0.0647  0.2909 -0.3566
   34MOL0     C 4494   6.771   4.072   7.848 -0.5805 -0.6502 -0.6847
   34MOL0     C 4495   6.669   4.119   7.733 -0.0849 -0.4300 -0.1451
   34MOL0     C 4496   6.547   4.198   7.785 -0.1300 -0.0543  0.0485
   34MOL0     C 4497   6.468   4.248   7.661  0.2398  0.0175 -0.3573
   34MOL0     C 4498   6.327   4.275   7.699 -0.0465  0.1937 -0.4272
   34MOL0     C 4499   6.254   4.385   7.618 -0.0719  0.4909  1.0596
   34MOL0    Cl 4500   6.190   4.324   7.470 -0.0163  0.0438 -0.0989
   34MOL0     C 4501   7.268   3.719   7.842  0.1598  0.4683 -0.0059
   34MOL0     C 4502   7.394   3.680   7.892 -0.1893  0.5899  0.6220
   34MOL0     O 4503   7.607   3.914   8.110  0.4213 -0.3243 -0.3308
   34MOL0     C 4504   7.778   3.612   8.195  0.3711 -0.1907 -0.1110
   34MOL0     C 4505   7.866   3.549   8.280  0.0732  0.3778  0.2958
   34MOL0     N 4506   7.870   3.049   8.514 -0.0789 -0.1517  0.2205
   34MOL0     N 4507   7.780   2.955   8.504  0.8287 -0.0329  0.7151
   34MOL0     C 4508   7.369   3.527   9.104  1.1874 -0.7460 -0.4102
   34MOL0     C 4509   7.400   3.594   9.224 -0.2961 -0.7268  0.5376
   34MOL0     C 4510   7.455   3.714   9.636 -0.2168 -0.2478 -0.0489
   34MOL0     C 4511   7.547   3.660   9.725  0.4633  0.6161  0.3150
   34MOL0     C 4512   7.622   3.746   9.811 -0.2584  0.0213 -0.9973
   34MOL0     C 4513   7.593   3.878   9.828  0.6857 -0.4677 -0.1673
   34MOL0     O 4514   7.649   3.973   9.922 -0.1401  0.3461 -0.8575
   34MOL0     C 4515   7.777   3.943   9.979  0.1919 -0.2094 -0.0759
   34MOL0     C 4516   7.821   4.072  10.058  1.5140 -0.1293 -0.0643
   34MOL0     C 4517   7.941   4.044  10.151 -0.2839  0.6399  0.3081
   34MOL0     C 4518   7.916   4.028  10.305 -0.6959 -0.2529  0.4850
   34MOL0     C 4519   7.838   3.916  10.350  0.8032 -0.5242 -1.1583
   34MOL0     C 4520   7.786   3.818  10.394  0.1324 -0.3529  0.0723
   34MOL0     C 4521   7.489   3.928   9.753 -0.8356  0.2111  0.5491
   34MOL0     C 4522   7.434   3.847   9.651 -0.6828 -0.2800  0.1671
   34MOL0     H 4523   7.086   3.652   9.339  2.1614  0.7466  1.9144
   34MOL0     H 4524   7.031   3.542   9.127  0.9805 -1.5055  0.5175
   34MOL0     H 4525   7.014   3.374   8.913 -0.5258 -0.9019 -1.8662
   34MOL0     H 4526   7.033   3.545   8.913 -1.1846 -0.7478  1.6504
   34MOL0     H 4527   7.014   3.455   8.684  0.3994  0.1539 -0.0414
   34MOL0     H 4528   7.177   3.514   8.718  1.6508 -1.9715 -1.4237
   34MOL0     H 4529   7.275   3.290   8.733 -0.1585 -2.7935 -0.8528
   34MOL0     H 4530   7.120   3.218   8.747 -0.2375  0.2936  0.1900
   34MOL0     H 4531   7.053   3.284   8.523 -0.3906 -0.5898  4.1125
   34MOL0     H 4532   7.217   3.350   8.503  1.0253  1.5253  0.5573
   34MOL0     H 4533   7.153   3.050   8.552  2.6696  0.3988  3.8349
   34MOL0     H 4534   7.203   3.139   8.395 -2.2566  0.1412 -0.1001
   34MOL0     H 4535   7.415   3.194   8.541  2.1465 -1.8449 -1.1658
   34MOL0     H 4536   7.334   3.096   8.674 -0.7525 -0.0551  0.6165
   34MOL0     H 4537   7.332   2.909   8.518 -0.3902  0.1750  2.8481
   34MOL0     H 4538   7.421   3.002   8.401  0.1045 -1.5067  0.7782
   34MOL0     H 4539   7.547   2.825   8.536  1.6790  0.0058  0.2512
   34MOL0     H 4540   7.521   2.924   8.678  1.6991 -1.7701  1.0606
   34MOL0     H 4541   7.613   3.227   8.592  2.1026  1.0685 -1.1026
   34MOL0     H 4542   7.984   3.287   8.517  0.4853  0.5246  1.2520
   34MOL0     H 4543   7.825   3.362   8.506 -0.4649 -1.9661 -1.1724
   34MOL0     H 4544   7.929   3.283   8.783 -0.0078 -1.7271 -1.4515
   34MOL0     H 4545   7.810   3.406   8.747  1.5698  2.7513  1.3841
   34MOL0     H 4546   8.106   3.411   8.685  0.7963  2.9520  0.5550
   34MOL0     H 4547   8.029   3.492   8.806 -0.9452 -0.4232  1.4427
   34MOL0     H 4548   8.051   3.657   8.648  2.4213 -2.1777 -1.4981
   34MOL0     H 4549   7.880   3.617   8.619  0.0484  1.1636 -1.3055
   34MOL0     H 4550   7.973   3.807   8.464  0.7065 -3.7531  1.1458
   34MOL0     H 4551   7.886   4.025   8.375  0.5892 -1.4760 -0.4584
   34MOL0     H 4552   7.789   4.028   8.229  2.7726 -2.4142 -0.1992
   34MOL0     H 4553   7.710   3.987   8.386 -2.0033  0.9824 -1.1120
   34MOL0     H 4554   7.371   3.845   8.184  0.0265  0.0130 -0.3462
   34MOL0     H 4555   7.151   3.902   8.092 -0.2393 -1.3271 -1.1011
   34MOL0     H 4556   6.947   3.940   7.990 -0.3356  1.1970 -0.3637
   34MOL0     H 4557   7.040   4.038   7.879 -0.9305  1.3424  0.0634
   34MOL0     H 4558   6.905   3.986   7.704 -1.2160  0.3266 -0.9538
   34MOL0     H 4559   6.795   3.876   7.795  0.1656 -0.1534  2.7330
   34MOL0     H 4560   6.835   4.159   7.863 -0.7196 -0.2213 -2.3956
   34MOL0     H 4561   6.716   4.048   7.940  4.1080 -1.0291  2.3561
   34MOL0     H 4562   6.737   4.179   7.672  1.1083 -2.4722 -0.9185
   34MOL0     H 4563   6.631   4.038   7.671 -1.3822 -0.8677  1.1668
   34MOL0     H 4564   6.579   4.285   7.843  0.9658  1.4460 -2.6065
   34MOL0     H 4565   6.476   4.140   7.845 -0.8649 -1.0934 -1.7398
   34MOL0     H 4566   6.524   4.329   7.613 -1.0102  1.5281  0.6358
   34MOL0     H 4567   6.456   4.169   7.586  0.1412 -0.6535  0.3412
   34MOL0     H 4568   6.327   4.316   7.800  2.5913 -0.9080  0.0897
   34MOL0     H 4569   6.276   4.178   7.702  0.3553 -0.0559 -1.3289
   34MOL0     H 4570   6.321   4.469   7.599 -1.6944  1.1605 -2.2383
   34MOL0     H 4571   6.171   4.419   7.681  1.0212  1.3712  2.0858
   34MOL0     H 4572   7.247   3.677   7.745  0.5520  2.3159 -0.9489
   34MOL0     H 4573   7.452   3.617   7.824  1.2967  2.3447  0.1905
   34MOL0     H 4574   7.738   3.552   8.113  0.9118 -0.4067 -0.2180
   34MOL0     H 4575   7.889   3.443   8.283  2.1406  0.8029  1.1319
   34MOL0     H 4576   7.449   3.491   9.040  1.1460  0.4427 -1.1544
   34MOL0     H 4577   7.506   3.603   9.249 -1.1115  0.2782  4.2980
   34MOL0     H 4578   7.564   3.553   9.724  0.4595  0.5798  1.9330
   34MOL0     H 4579   7.704   3.705   9.869 -0.3970  0.0845 -0.7564
   34MOL0     H 4580   7.779   3.859  10.049  2.4902  1.3221  1.8882
   34MOL0     H 4581   7.850   3.908   9.906  0.8228  1.3339 -0.2292
   34MOL0     H 4582   7.730   4.104  10.111 -0.7473 -0.2670 -3.5524
   34MOL0     H 4583   7.852   4.143   9.981 -3.4384  0.6341 -1.7301
   34MOL0     H 4584   8.020   4.117  10.136  1.9275 -1.6381  0.1849
   34MOL0     H 4585   7.984   3.951  10.112 -2.3842  0.6710 -2.3830
   34MOL0     H 4586   7.881   4.120  10.353  0.2864 -1.3400  3.4999
   34MOL0     H 4587   8.019   4.014  10.338 -0.8477  0.9031  1.5010
   34MOL0     H 4588   7.739   3.731  10.435 -3.4451  1.3073 -0.1872
   34MOL0     H 4589   7.460   4.033   9.754  2.2365  1.1748 -0.6776
   34MOL0     H 4590   7.351   3.888   9.594 -0.7783 -3.3962 -2.1976
   35MOL0     O 4591   9.392   9.877   5.142 -0.0585 -0.5342 -0.0200
   35MOL0     C 4592   9.505   9.865   5.196 -0.0065 -0.4332  0.5357
   35MOL0     O 4593   9.526   9.812   5.320 -0.1182  0.8289  0.7092
   35MOL0     C 4594   9.427   9.800   5.411 -0.0058  0.0057  0.3128
   35MOL0     C 4595   9.298   9.868   5.413 -0.6126 -0.0550 -0.4681
   35MOL0     C 4596   9.202   9.849   5.517  0.1411  0.1160  0.0219
   35MOL0     C 4597   9.234   9.760   5.628  0.1682  1.1067 -0.2146
   35MOL0     O 4598   9.142   9.749   5.734  0.4123 -0.4371  0.2969
   35MOL0     C 4599   9.204   9.724   5.860  0.6598 -0.1581  0.1017
   35MOL0     C 4600   9.095   9.762   5.961 -0.2955  0.4971  0.2959
   35MOL0     C 4601   9.149   9.806   6.103 -0.3070  0.9660  0.0023
   35MOL0     C 4602   9.208   9.943   6.098 -0.5382 -0.4225 -0.1770
   35MOL0     C 4603   9.283   9.984   6.231  0.3114 -0.1663  0.7079
   35MOL0     C 4604   9.188  10.006   6.347  0.3113  0.3438  0.0855
   35MOL0     C 4605   9.249  10.033   6.483  0.4155  0.0433 -0.1248
   35MOL0     C 4606   9.275   9.918   6.568 -0.0862  0.7137 -0.0179
   35MOL0     N 4607   9.373   9.814   6.518 -0.0039  0.2769 -0.9549
   35MOL0     C 4608   9.515   9.836   6.525  0.7353  0.8246  1.0950
   35MOL0     C 4609   9.561   9.724   6.469  0.7043  0.5782 -0.1427
   35MOL0     C 4610   9.703   9.699   6.446  0.2651  0.9051  0.1441
   35MOL0     C 4611   9.738   9.560   6.380 -0.7020  0.7968  0.7079
   35MOL0     C 4612   9.874   9.550   6.308  0.2726 -0.2444  0.6286
   35MOL0     C 4613   9.922   9.668   6.214 -0.2197 -0.6891 -0.2553
   35MOL0     O 4614   9.992   9.773   6.282  0.8175 -0.3662  0.2961
   35MOL0     C 4615  10.100   9.766   6.358 -0.2331 -0.0062  0.3608
   35MOL0     C 4616  10.131   9.874   6.442 -0.1134  0.1935  0.8925
   35MOL0     C 4617  10.244   9.884   6.521 -0.4003 -0.0716  0.0558
   35MOL0     C 4618  10.255  10.014   6.607 -0.9128 -0.9174  0.3282
   35MOL0     C 4619  10.333   9.780   6.526 -0.2790 -0.2760 -0.0374
   35MOL0     C 4620  10.455   9.778   6.611 -1.2492 -0.7699  0.2196
   35MOL0     O 4621  10.437   9.799   6.744  0.5119 -0.0897 -0.0183
   35MOL0     C 4622  10.541   9.792   6.829  0.8808  0.1345  0.2219
   35MOL0     C 4623  10.610   9.673   6.837 -0.3713  1.0314  0.8155
   35MOL0     C 4624  10.726   9.661   6.919 -0.1241 -0.0684 -0.0277
   35MOL0     C 4625  10.767   9.773   6.996  1.1344 -0.0869  0.2083
   35MOL0     O 4626  10.879   9.756   7.070 -0.4460  0.2240 -0.0703
   35MOL0     C 4627  10.901   9.830   7.184  0.2124 -0.1052  0.0071
   35MOL0     C 4628  10.989   9.747   7.269 -1.1615  0.4646  0.8193
   35MOL0     C 4629  11.143   9.730   7.236 -0.2228 -0.9269  0.9068
   35MOL0     C 4630  11.167   9.640   7.108  0.4323 -0.6477  0.9891
   35MOL0     C 4631  11.307   9.584   7.091 -0.0592  0.8703 -0.2183
   35MOL0     C 4632  11.408   9.691   7.056  0.9119  0.1572  0.0567
   35MOL0     C 4633  11.544   9.620   7.042 -0.7733  0.4750  0.5272
   35MOL0     C 4634  11.663   9.712   7.029  0.1703 -0.0715 -0.1339
   35MOL0    Cl 4635  11.625   9.853   6.925 -0.5322 -0.0481 -0.0173
   35MOL0     C 4636  10.682   9.882   7.009  0.0951  0.2798 -0.0144
   35MOL0     C 4637  10.575   9.895   6.921 -0.6271 -0.5603  0.8136
   35MOL0     O 4638  10.561   9.731   6.561  0.4169  0.0847 -0.0280
   35MOL0     C 4639  10.308   9.669   6.442 -0.2662 -0.0370 -0.3456
   35MOL0     C 4640  10.189   9.664   6.363 -0.9559  0.9599  0.5927
   35MOL0     N 4641   9.450   9.647   6.426  0.1170 -0.0585  0.1278
   35MOL0     N 4642   9.330   9.698   6.461 -0.3856  0.0432 -0.7363
   35MOL0     C 4643   9.354   9.688   5.621  0.0429  0.4124  0.0727
   35MOL0     C 4644   9.440   9.705   5.512 -0.1097 -0.6205 -0.7426
   35MOL0     C 4645   9.622   9.896   5.108  0.4856 -0.1121  0.5649
   35MOL0     C 4646   9.617   9.890   4.970 -0.0410  0.1123 -0.1518
   35MOL0     C 4647   9.736   9.920   4.895  1.1384  0.2743  0.0173
   35MOL0     C 4648   9.859   9.945   4.963 -0.3679  0.6369 -0.3760
   35MOL0     O 4649   9.970   9.961   4.878  0.0969 -0.1428 -0.7173
   35MOL0     C 4650  10.061  10.064   4.917 -0.2227  0.1830 -0.0067
   35MOL0     C 4651  10.163  10.048   4.812 -0.7864  0.2493  0.0108
   35MOL0     C 4652  10.263  10.164   4.830  0.0760  0.6579  0.2797
   35MOL0     C 4653  10.362  10.132   4.940 -0.4673 -1.1380 -0.5590
   35MOL0     C 4654  10.474  10.230   4.963  0.5998 -0.1598  0.1365
   35MOL0     C 4655  10.570  10.305   4.970  0.4224  0.2252 -0.0457
   35MOL0     C 4656   9.865   9.947   5.108  0.5589 -0.4488  0.0124
   35MOL0     C 4657   9.742   9.926   5.171  0.2041  0.7279 -0.1547
   35MOL0     H 4658   9.269   9.947   5.345  1.6350  1.7980  0.5865
   35MOL0     H 4659   9.106   9.900   5.524 -0.4596 -0.5153 -2.5430
   35MOL0     H 4660   9.233   9.619   5.871 -0.4176 -0.3141  1.6846
   35MOL0     H 4661   9.294   9.783   5.879  0.4361 -0.2352  1.4448
   35MOL0     H 4662   9.042   9.848   5.919  1.3665  1.8130  0.7595
   35MOL0     H 4663   9.019   9.685   5.975  0.2170  0.2450  1.9233
   35MOL0     H 4664   9.069   9.813   6.177 -0.2184 -0.3039  0.2390
   35MOL0     H 4665   9.225   9.734   6.136  0.6031  2.5328  1.5243
   35MOL0     H 4666   9.280   9.945   6.015 -0.9507 -1.9249 -0.5959
   35MOL0     H 4667   9.127  10.016   6.087  0.0541  0.3139  0.1878
   35MOL0     H 4668   9.359   9.906   6.245  0.1899 -0.1566  1.4635
   35MOL0     H 4669   9.335  10.078   6.214 -1.0022  0.1362 -2.1339
   35MOL0     H 4670   9.109  10.073   6.312  0.0698 -0.3459 -0.7251
   35MOL0     H 4671   9.142   9.908   6.360  3.3645 -0.9354  2.5204
   35MOL0     H 4672   9.337  10.099   6.477 -2.0976  3.9449  1.7087
   35MOL0     H 4673   9.164  10.084   6.529 -1.2076  0.5092 -3.3948
   35MOL0     H 4674   9.177   9.870   6.577  0.0845 -0.5987 -3.4999
   35MOL0     H 4675   9.296   9.944   6.672 -3.0472  0.1320  0.8049
   35MOL0     H 4676   9.574   9.917   6.566  0.5132  0.8228  1.4167
   35MOL0     H 4677   9.729   9.783   6.381  0.3543  1.1486  0.4928
   35MOL0     H 4678   9.757   9.707   6.541 -2.5884  0.7286  1.9097
   35MOL0     H 4679   9.661   9.547   6.303 -0.2185  3.1461 -0.2745
   35MOL0     H 4680   9.739   9.481   6.456 -2.8125  1.9648  2.0843
   35MOL0     H 4681   9.864   9.465   6.239 -3.7999  1.1437 -0.8069
   35MOL0     H 4682   9.948   9.524   6.384  0.5949 -0.1733  0.3395
   35MOL0     H 4683   9.837   9.720   6.170  0.5171  0.7919 -0.0070
   35MOL0     H 4684   9.985   9.629   6.133 -1.6689  2.1353 -2.9639
   35MOL0     H 4685  10.060   9.954   6.428 -0.4203 -0.3583 -0.9190
   35MOL0     H 4686  10.357  10.055   6.604 -1.6341  1.1572  1.8055
   35MOL0     H 4687  10.184  10.093   6.582  0.0067 -0.1772 -0.0124
   35MOL0     H 4688  10.228   9.988   6.709  1.7278 -4.5480  0.2956
   35MOL0     H 4689  10.588   9.595   6.765  0.5232  1.6500 -0.1631
   35MOL0     H 4690  10.794   9.577   6.926  0.5699  0.5346  0.6314
   35MOL0     H 4691  10.947   9.925   7.155  0.4244 -0.6945 -1.6912
   35MOL0     H 4692  10.804   9.842   7.234 -0.2986  4.6120 -1.6229
   35MOL0     H 4693  10.976   9.790   7.369  1.3998 -0.4772  1.6331
   35MOL0     H 4694  10.935   9.653   7.258  1.8814 -1.0962 -2.6512
   35MOL0     H 4695  11.187   9.696   7.331 -0.4967  3.7038  3.0034
   35MOL0     H 4696  11.193   9.826   7.218  1.7081 -1.7417  1.5989
   35MOL0     H 4697  11.099   9.555   7.102  3.0486 -2.7940 -1.5089
   35MOL0     H 4698  11.153   9.694   7.014  0.1876 -2.6241 -0.1674
   35MOL0     H 4699  11.321   9.505   7.016 -1.4254 -0.7113  1.0926
   35MOL0     H 4700  11.333   9.545   7.190  0.8919  3.6996  0.7463
   35MOL0     H 4701  11.369   9.736   6.965  0.8297 -1.1934 -0.6036
   35MOL0     H 4702  11.401   9.775   7.126 -0.6898  1.2211 -1.3013
   35MOL0     H 4703  11.548   9.558   6.952  2.3655  1.2330  0.0464
   35MOL0     H 4704  11.561   9.552   7.126 -0.0094  1.4000  1.1370
   35MOL0     H 4705  11.739   9.647   6.984  1.3136  0.7440  0.5596
   35MOL0     H 4706  11.708   9.754   7.119 -0.1919 -0.0279  0.0254
   35MOL0     H 4707  10.707   9.972   7.065 -0.2047  0.2479  0.1749
   35MOL0     H 4708  10.519   9.988   6.927  2.4962  1.4989  0.1164
   35MOL0     H 4709  10.380   9.587   6.451  0.2798  0.5959  1.2822
   35MOL0     H 4710  10.185   9.577   6.297 -1.2557  0.1001  1.7030
   35MOL0     H 4711   9.384   9.620   5.699  0.2703  1.4628  0.9190
   35MOL0     H 4712   9.524   9.637   5.518  0.4858  0.2093  2.1208
   35MOL0     H 4713   9.522   9.867   4.923 -0.5655  2.2839 -0.2674
   35MOL0     H 4714   9.739   9.933   4.788 -2.2581  1.2342 -0.0813
   35MOL0     H 4715  10.006  10.158   4.918 -2.1247 -0.8821 -0.3672
   35MOL0     H 4716  10.097  10.048   5.019 -2.3808  0.1749  0.7971
   35MOL0     H 4717  10.124  10.055   4.710  0.6022  2.7674 -0.4095
   35MOL0     H 4718  10.220   9.956   4.828  3.4648  2.8658  1.6453
   35MOL0     H 4719  10.213  10.261   4.838  0.7105  1.0850 -0.7729
   35MOL0     H 4720  10.323  10.170   4.739  0.3798  3.6623  0.5682
   35MOL0     H 4721  10.392  10.028   4.924 -1.2973 -1.4096 -0.4150
   35MOL0     H 4722  10.317  10.148   5.039  1.4938  3.8421 -0.1767
   35MOL0     H 4723  10.655  10.370   4.975  0.9208 -0.4968  1.0759
   35MOL0     H 4724   9.958   9.966   5.160  0.6282 -4.4104  1.7190
   35MOL0     H 4725   9.733   9.923   5.279 -3.4587 -0.8367 -0.3711
   36MOL0     O 4726   5.813  11.219   9.389 -0.4551 -0.1054 -0.3541
   36MOL0     C 4727   5.918  11.206   9.450 -1.3420 -0.0913  0.9886
   36MOL0     O 4728   5.942  11.235   9.582 -0.1530  0.1202  0.3685
   36MOL0     C 4729   5.848  11.298   9.664  0.4882 -1.0313 -0.5000
   36MOL0     C 4730   5.706  11.296   9.659  0.1080 -0.1660  0.8438
   36MOL0     C 4731   5.620  11.344   9.765 -0.4519  0.2499  0.3129
   36MOL0     C 4732   5.688  11.399   9.878  0.4098 -0.4048 -0.0589
   36MOL0     O 4733   5.608  11.454   9.971 -0.2572 -0.2557  0.6513
   36MOL0     C 4734   5.620  11.419  10.109  0.7992  0.2827 -0.0552
   36MOL0     C 4735   5.481  11.421  10.185 -0.4854 -0.1924  0.2041
   36MOL0     C 4736   5.385  11.323  10.117  0.2058  0.2363 -0.0694
   36MOL0     C 4737   5.254  11.338  10.190 -0.2043  1.2843  0.0261
   36MOL0     C 4738   5.158  11.228  10.146  0.5299 -0.3880  0.2392
   36MOL0     C 4739   5.078  11.275  10.019  1.3595  0.4023 -0.0657
   36MOL0     C 4740   4.949  11.359  10.056  0.4312  0.5538 -0.0056
   36MOL0     C 4741   4.865  11.390   9.932 -0.3254 -0.1758 -1.4088
   36MOL0     N 4742   4.806  11.262   9.886  0.3083  0.9478  0.2643
   36MOL0     C 4743   4.712  11.175   9.947  0.5579 -0.9693 -0.0544
   36MOL0     C 4744   4.705  11.063   9.873  0.0168 -0.1673  0.4791
   36MOL0     C 4745   4.591  10.957   9.901 -0.3670  0.0185  0.2183
   36MOL0     C 4746   4.609  10.827   9.827  0.2013 -0.1021 -0.7550
   36MOL0     C 4747   4.685  10.732   9.926 -0.2260  0.2960  0.3151
   36MOL0     C 4748   4.737  10.597   9.861  0.1173  0.5250 -0.3389
   36MOL0     O 4749   4.817  10.618   9.749  0.2099  0.0007  0.1642
   36MOL0     C 4750   4.948  10.646   9.775  0.5455 -0.4616  0.7906
   36MOL0     C 4751   4.993  10.772   9.819 -1.1474  0.4808 -0.6275
   36MOL0     C 4752   5.122  10.780   9.868 -0.6041 -1.3770  0.6858
   36MOL0     C 4753   5.161  10.916   9.929  0.7658 -0.7888 -0.4187
   36MOL0     C 4754   5.217  10.678   9.851 -0.3457  0.6243 -0.4876
   36MOL0     C 4755   5.366  10.678   9.895  0.2217 -0.8407 -0.3751
   36MOL0     O 4756   5.424  10.558   9.896 -0.1479 -0.3210  0.0786
   36MOL0     C 4757   5.537  10.544   9.985  0.3088 -1.0339  0.7627
   36MOL0     C 4758   5.518  10.526  10.127 -1.0612 -0.3204 -0.4559
   36MOL0     C 4759   5.633  10.515  10.206  0.2079  0.7408 -0.8358
   36MOL0     C 4760   5.763  10.517  10.154 -0.2629  1.2976  1.3752
   36MOL0     O 4761   5.875  10.499  10.226 -0.2451 -0.7345  0.0101
   36MOL0     C 4762   5.876  10.420  10.347 -0.7734  0.5582 -0.2860
   36MOL0     C 4763   5.823  10.281  10.315 -0.2687 -0.1479  0.4398
   36MOL0     C 4764   5.834  10.189  10.434 -0.2503 -0.2144 -0.1970
   36MOL0     C 4765   5.835  10.039  10.393 -0.8390  0.5234 -0.4821
   36MOL0     C 4766   5.835   9.943  10.510  0.5233 -0.2625 -0.0922
   36MOL0     C 4767   5.745   9.813  10.483 -0.0475 -0.2164  0.0501
   36MOL0     C 4768   5.755   9.713  10.600  0.3002  0.0083  0.3716
   36MOL0     C 4769   5.630   9.732  10.689  0.2138  0.2241  0.0556
   36MOL0    Cl 4770   5.614   9.591  10.795  0.0659 -0.2355  0.3351
   36MOL0     C 4771   5.776  10.539  10.012  0.4667  0.2881 -0.4474
   36MOL0     C 4772   5.667  10.548   9.932 -0.1907 -0.0005 -0.0831
   36MOL0     O 4773   5.428  10.775   9.938  0.4134 -0.1552 -0.4265
   36MOL0     C 4774   5.165  10.551   9.801 -0.1696  0.2021 -0.5634
   36MOL0     C 4775   5.030  10.536   9.775  0.7145  0.5035  0.4517
   36MOL0     N 4776   4.787  11.071   9.771  1.0033 -0.4222  0.3002
   36MOL0     N 4777   4.856  11.192   9.773 -0.3421  1.4755 -0.2621
   36MOL0     C 4778   5.829  11.404   9.886 -0.2768 -0.3092 -0.0400
   36MOL0     C 4779   5.906  11.352   9.783 -1.2018  0.4717 -0.5058
   36MOL0     C 4780   6.029  11.148   9.374  0.0938 -0.0002 -0.8753
   36MOL0     C 4781   6.123  11.069   9.447  0.1513  0.6813  0.2273
   36MOL0     C 4782   6.213  10.990   9.380 -0.6567  0.3667  0.2729
   36MOL0     C 4783   6.213  10.979   9.238  0.4649 -0.2132  0.5253
   36MOL0     O 4784   6.296  10.891   9.165 -0.2823 -0.7972 -0.4802
   36MOL0     C 4785   6.433  10.910   9.175  0.1377 -0.3093  0.0320
   36MOL0     C 4786   6.495  10.868   9.043 -1.2860 -0.1317 -0.0276
   36MOL0     C 4787   6.644  10.848   9.055 -0.2854  0.0481  0.2666
   36MOL0     C 4788   6.714  10.761   8.941  0.3097  0.0524  1.2965
   36MOL0     C 4789   6.851  10.796   8.928 -0.2317  0.1115  0.8468
   36MOL0     C 4790   6.967  10.820   8.922 -0.1492  0.3714 -0.3591
   36MOL0     C 4791   6.124  11.056   9.165  0.2522 -0.3009 -0.1444
   36MOL0     C 4792   6.025  11.139   9.235 -0.1173  0.4035  0.3395
   36MOL0     H 4793   5.659  11.263   9.566  2.0552  3.7362 -1.7681
   36MOL0     H 4794   5.513  11.337   9.746 -0.4451 -1.0723  0.6535
   36MOL0     H 4795   5.659  11.316  10.114 -1.7968 -0.7124  2.7563
   36MOL0     H 4796   5.694  11.483  10.158  3.5377 -2.6743  0.0432
   36MOL0     H 4797   5.502  11.394  10.289  2.6578  0.7542 -0.0840
   36MOL0     H 4798   5.449  11.525  10.186  0.2775  0.0629 -0.6397
   36MOL0     H 4799   5.370  11.340  10.010  2.4727 -1.3246 -0.7048
   36MOL0     H 4800   5.418  11.220  10.135 -0.7847  0.1650  1.6201
   36MOL0     H 4801   5.283  11.323  10.295 -0.8841 -1.8838 -0.1572
   36MOL0     H 4802   5.218  11.440  10.170 -4.3014 -0.4437 -2.9533
   36MOL0     H 4803   5.212  11.138  10.115 -1.3619 -1.3026 -0.5935
   36MOL0     H 4804   5.087  11.207  10.227  1.6945  2.1488  2.0767
   36MOL0     H 4805   5.146  11.329   9.952  0.4143  1.3250 -0.3073
   36MOL0     H 4806   5.047  11.184   9.969 -0.8653  2.9526 -3.8271
   36MOL0     H 4807   4.892  11.301  10.129  2.9149  0.1464  1.7468
   36MOL0     H 4808   4.971  11.458  10.097  2.0511  0.2950 -0.1713
   36MOL0     H 4809   4.932  11.416   9.850 -0.3877 -1.6198 -1.9482
   36MOL0     H 4810   4.787  11.464   9.952 -0.7342 -0.4706 -1.8877
   36MOL0     H 4811   4.647  11.185  10.033 -0.5470 -0.6430 -0.9080
   36MOL0     H 4812   4.580  10.954  10.010 -0.2215  1.0863  0.2682
   36MOL0     H 4813   4.490  10.987   9.872 -1.1003 -2.2770  0.1362
   36MOL0     H 4814   4.659  10.834   9.730  0.1592 -0.9736 -0.8489
   36MOL0     H 4815   4.508  10.787   9.808  1.0479 -1.7385 -2.1333
   36MOL0     H 4816   4.620  10.712  10.012 -0.2390 -1.1955 -0.0216
   36MOL0     H 4817   4.775  10.786   9.958  1.0091  0.6737 -3.3368
   36MOL0     H 4818   4.655  10.533   9.829  2.2675 -1.0364 -3.2539
   36MOL0     H 4819   4.794  10.545   9.940 -1.9875 -2.1437 -0.4360
   36MOL0     H 4820   4.924  10.854   9.838  0.8234  1.5372  2.6870
   36MOL0     H 4821   5.068  10.974   9.930  0.6950 -0.8859 -1.2178
   36MOL0     H 4822   5.186  10.901  10.035 -1.6695 -2.8784 -0.0329
   36MOL0     H 4823   5.234  10.969   9.868 -1.4841 -0.5329 -3.0791
   36MOL0     H 4824   5.420  10.523  10.173 -1.0152 -1.0232 -0.3903
   36MOL0     H 4825   5.620  10.497  10.312  0.0753 -2.2138 -1.2655
   36MOL0     H 4826   5.977  10.407  10.387 -0.1458  1.2907 -1.5355
   36MOL0     H 4827   5.816  10.466  10.426 -1.8549  1.0248 -1.3550
   36MOL0     H 4828   5.718  10.284  10.286  0.0716  0.2678 -0.7739
   36MOL0     H 4829   5.884  10.254  10.228 -0.5001  0.5188  0.0665
   36MOL0     H 4830   5.745  10.209  10.495 -1.1332 -2.7983 -0.5227
   36MOL0     H 4831   5.927  10.211  10.487 -0.1689 -0.1166 -0.3827
   36MOL0     H 4832   5.749  10.020  10.329 -1.6307 -0.4752  0.8218
   36MOL0     H 4833   5.927  10.022  10.337 -1.2396 -2.7680 -0.3419
   36MOL0     H 4834   5.807  10.002  10.597  0.6242  0.8598 -0.7948
   36MOL0     H 4835   5.933   9.902  10.536  0.5488 -0.3748 -0.3568
   36MOL0     H 4836   5.640   9.843  10.469  0.2899  0.6255 -0.7475
   36MOL0     H 4837   5.772   9.774  10.385 -0.7535  1.1186 -0.7063
   36MOL0     H 4838   5.852   9.717  10.650  0.3344 -2.0141  0.5290
   36MOL0     H 4839   5.749   9.607  10.572  1.4237 -0.4321  1.6697
   36MOL0     H 4840   5.544   9.732  10.622  0.3677  1.7541 -0.1994
   36MOL0     H 4841   5.635   9.827  10.744 -0.4535 -0.5042  1.4131
   36MOL0     H 4842   5.868  10.536   9.955 -0.5066 -2.3655 -2.0687
   36MOL0     H 4843   5.684  10.574   9.828  1.6214 -1.0260 -0.0843
   36MOL0     H 4844   5.225  10.460   9.798  0.1810  0.3758  0.6403
   36MOL0     H 4845   4.979  10.444   9.749 -1.9325  2.6015 -2.5360
   36MOL0     H 4846   5.882  11.455   9.966 -0.7224 -0.5657  0.4283
   36MOL0     H 4847   6.014  11.361   9.792 -1.2254 -0.8138  1.9094
   36MOL0     H 4848   6.117  11.058   9.554  1.0715 -3.1024  0.0318
   36MOL0     H 4849   6.276  10.928   9.444 -0.4183 -0.5181 -0.7824
   36MOL0     H 4850   6.475  11.010   9.182  2.2111 -0.8942 -2.4571
   36MOL0     H 4851   6.466  10.853   9.263 -2.8777 -0.4259  1.1984
   36MOL0     H 4852   6.476  10.945   8.967  4.0070  3.3571  1.5418
   36MOL0     H 4853   6.460  10.773   9.002  0.0605 -0.3095 -0.8264
   36MOL0     H 4854   6.651  10.788   9.147 -1.0484  0.3827  0.5441
   36MOL0     H 4855   6.699  10.941   9.071  1.6492 -0.9767 -0.0745
   36MOL0     H 4856   6.659  10.784   8.849  2.4465 -1.7285 -0.5527
   36MOL0     H 4857   6.717  10.653   8.955  0.0372 -0.0334  0.7215
   36MOL0     H 4858   7.067  10.856   8.906 -0.0239  1.4060  2.2636
   36MOL0     H 4859   6.125  11.056   9.056 -2.7831  3.9039 -0.4263
   36MOL0     H 4860   5.944  11.183   9.178  0.0461  0.4398  0.1311
   37MOL0     O 4861   8.590   8.010   7.349  0.1610  0.0798 -0.5710
   37MOL0     C 4862   8.543   7.945   7.441  0.4504 -0.0962 -0.4311
   37MOL0     O 4863   8.584   7.820   7.479  0.3859  0.7306 -0.3177
   37MOL0     C 4864   8.678   7.746   7.409 -0.5223 -0.8200  0.0390
   37MOL0     C 4865   8.695   7.749   7.265 -0.5782  0.4194 -0.5276
   37MOL0     C 4866   8.805   7.691   7.215 -0.0595  0.0607 -0.2316
   37MOL0     C 4867   8.884   7.606   7.288 -0.2002 -0.3928 -0.4521
   37MOL0     O 4868   8.999   7.550   7.231 -0.0989  0.3201 -0.1421
   37MOL0     C 4869   9.120   7.620   7.281 -0.3295  0.2180 -0.5784
   37MOL0     C 4870   9.234   7.554   7.228  0.2553  0.7791 -0.5910
   37MOL0     C 4871   9.355   7.645   7.261  0.3207 -0.5826 -0.0857
   37MOL0     C 4872   9.484   7.602   7.203  0.2687  0.1372  0.2933
   37MOL0     C 4873   9.600   7.678   7.247  0.4177 -0.9493 -0.1428
   37MOL0     C 4874   9.671   7.617   7.368 -0.1371 -0.9351 -0.0805
   37MOL0     C 4875   9.606   7.643   7.496  0.0939 -0.1900  0.5906
   37MOL0     C 4876   9.693   7.613   7.625 -0.0891 -0.2305 -0.3796
   37MOL0     N 4877   9.740   7.475   7.627  0.4347  0.1883  0.7221
   37MOL0     C 4878   9.877   7.441   7.610 -0.4289 -0.1306  0.3927
   37MOL0     C 4879   9.885   7.314   7.656  0.7743  0.2012  0.0870
   37MOL0     C 4880  10.003   7.233   7.688  0.5388  0.4168  0.5561
   37MOL0     C 4881  10.107   7.300   7.785  0.0191  0.0814 -0.2732
   37MOL0     C 4882  10.062   7.329   7.933 -0.0863  0.0904  0.3097
   37MOL0     C 4883   9.982   7.460   7.960 -0.2289  0.2781 -0.4290
   37MOL0     O 4884  10.059   7.572   7.906 -0.4460  0.1082 -0.1738
   37MOL0     C 4885   9.984   7.686   7.881  0.1383 -0.5295  0.7682
   37MOL0     C 4886  10.029   7.767   7.774 -0.0773 -0.5160  0.4299
   37MOL0     C 4887   9.957   7.886   7.743 -0.2812 -0.0583 -0.4991
   37MOL0     C 4888  10.019   7.975   7.637 -0.2227 -0.6794  0.5896
   37MOL0     C 4889   9.841   7.933   7.820 -0.5256 -0.4498  1.0835
   37MOL0     C 4890   9.766   8.055   7.794 -0.1348 -0.6202  0.3278
   37MOL0     O 4891   9.678   8.083   7.896 -0.1565 -0.2010  0.2989
   37MOL0     C 4892   9.575   8.178   7.870  0.5473  0.0807  0.0751
   37MOL0     C 4893   9.506   8.204   7.748 -0.0770  0.8430 -0.3373
   37MOL0     C 4894   9.384   8.270   7.750 -0.6397 -0.1967 -0.0369
   37MOL0     C 4895   9.333   8.328   7.863 -0.0634 -0.4341  0.5088
   37MOL0     O 4896   9.207   8.388   7.848 -0.3937  0.4369 -0.5293
   37MOL0     C 4897   9.100   8.339   7.932 -0.5712  0.3416 -0.2931
   37MOL0     C 4898   9.004   8.450   7.971  1.1456  0.2177 -0.6229
   37MOL0     C 4899   9.065   8.589   7.990 -0.8158 -0.2752  0.3288
   37MOL0     C 4900   8.968   8.708   8.017  0.1630  0.5870  0.2976
   37MOL0     C 4901   8.871   8.731   7.909  0.2848 -0.0241  0.5913
   37MOL0     C 4902   8.766   8.837   7.946 -0.0819 -0.0583 -0.1352
   37MOL0     C 4903   8.837   8.976   7.932  0.2996 -0.8172 -0.3969
   37MOL0     C 4904   8.732   9.092   7.977  0.0731  1.0948  0.4527
   37MOL0    Cl 4905   8.640   9.144   7.817 -0.1013 -0.2829 -0.0415
   37MOL0     C 4906   9.405   8.316   7.985 -0.2778 -0.1102  0.0417
   37MOL0     C 4907   9.520   8.232   7.988  0.5342 -0.8883 -0.8076
   37MOL0     O 4908   9.777   8.112   7.684 -0.3403 -0.0624  0.2470
   37MOL0     C 4909   9.799   7.840   7.920 -0.5259 -0.0947 -0.1425
   37MOL0     C 4910   9.867   7.725   7.953 -0.2051 -0.2422  0.4328
   37MOL0     N 4911   9.753   7.278   7.692  0.1408  0.5172  0.1636
   37MOL0     N 4912   9.673   7.368   7.674  0.3228  0.5953  0.5739
   37MOL0     C 4913   8.866   7.594   7.427  0.7946 -0.4252 -0.0322
   37MOL0     C 4914   8.760   7.673   7.486 -0.2933  0.5475 -0.2586
   37MOL0     C 4915   8.424   8.001   7.507  0.0165  0.9673 -0.1152
   37MOL0     C 4916   8.330   7.923   7.570 -0.3201  0.0825  0.2153
   37MOL0     C 4917   8.216   7.970   7.622  0.6042  0.0329 -0.2090
   37MOL0     C 4918   8.189   8.108   7.617  0.5876 -0.7095 -0.3577
   37MOL0     O 4919   8.071   8.153   7.675 -0.3216  0.3197 -0.6008
   37MOL0     C 4920   8.034   8.101   7.805  0.0238  0.2494 -0.3678
   37MOL0     C 4921   7.979   8.218   7.882  0.2470  0.9574  0.3900
   37MOL0     C 4922   7.945   8.155   8.009  0.5323 -0.7317  0.1121
   37MOL0     C 4923   7.878   8.256   8.118 -0.2403  0.7489  0.2992
   37MOL0     C 4924   7.746   8.305   8.067  0.0469  0.2010 -0.6158
   37MOL0     C 4925   7.647   8.344   8.020 -0.1098  0.8128 -0.4963
   37MOL0     C 4926   8.278   8.190   7.555  0.3763 -0.1839 -0.0697
   37MOL0     C 4927   8.383   8.135   7.496 -0.5345 -0.1692  0.1336
   37MOL0     H 4928   8.638   7.811   7.197 -0.4569 -0.9400 -1.9093
   37MOL0     H 4929   8.831   7.690   7.109 -0.8194  0.4277 -0.4294
   37MOL0     H 4930   9.120   7.719   7.233 -1.3915  2.0303  2.8659
   37MOL0     H 4931   9.119   7.647   7.387  3.0069  0.8722 -0.6026
   37MOL0     H 4932   9.242   7.460   7.284  1.0220  2.4338  2.2350
   37MOL0     H 4933   9.216   7.540   7.121 -1.0791  1.3921 -0.4709
   37MOL0     H 4934   9.336   7.750   7.235 -0.0675 -0.7277 -0.3912
   37MOL0     H 4935   9.374   7.637   7.368 -0.3516  0.8994  0.1702
   37MOL0     H 4936   9.502   7.495   7.221 -2.5541 -0.5830 -0.6402
   37MOL0     H 4937   9.479   7.602   7.093 -2.1246 -1.5187  0.3234
   37MOL0     H 4938   9.666   7.671   7.160 -1.8757  0.5012 -2.1524
   37MOL0     H 4939   9.572   7.783   7.260 -0.0854 -1.2106  1.0303
   37MOL0     H 4940   9.685   7.509   7.360  2.2292 -0.8108  1.3454
   37MOL0     H 4941   9.776   7.647   7.363 -0.0604 -0.5640  2.4218
   37MOL0     H 4942   9.575   7.746   7.511  0.8392  0.5646 -2.3793
   37MOL0     H 4943   9.515   7.584   7.510  0.4723 -0.7673  0.6951
   37MOL0     H 4944   9.619   7.626   7.705 -0.9549 -3.7851 -0.3963
   37MOL0     H 4945   9.779   7.678   7.640 -0.5002  0.5486 -1.2859
   37MOL0     H 4946   9.963   7.501   7.586 -0.6418  0.9227  2.1040
   37MOL0     H 4947   9.975   7.137   7.732  1.1541 -0.7489 -1.5056
   37MOL0     H 4948  10.051   7.201   7.595  2.2287  0.5681  1.3288
   37MOL0     H 4949  10.132   7.391   7.729 -0.1115  0.6556  0.5946
   37MOL0     H 4950  10.199   7.243   7.804 -1.4596 -1.4473  3.0189
   37MOL0     H 4951  10.156   7.355   7.982  0.1333  0.4177 -0.2643
   37MOL0     H 4952  10.022   7.241   7.985 -5.2541 -0.7717 -4.1814
   37MOL0     H 4953   9.973   7.468   8.069  4.1130 -2.4790  0.3563
   37MOL0     H 4954   9.881   7.456   7.918 -1.0767 -0.0907  1.5207
   37MOL0     H 4955  10.112   7.726   7.718  0.3224  0.1819  0.4930
   37MOL0     H 4956  10.035   8.077   7.673  1.6583 -0.8661  0.4105
   37MOL0     H 4957  10.110   7.924   7.604 -0.5739  0.1286 -1.8212
   37MOL0     H 4958   9.960   7.964   7.546  0.9886 -2.4820 -0.0515
   37MOL0     H 4959   9.541   8.159   7.656  0.3524 -3.2460  1.6098
   37MOL0     H 4960   9.344   8.299   7.654 -1.5523  0.5364  0.5457
   37MOL0     H 4961   9.063   8.256   7.872  2.7544 -2.9766  1.7567
   37MOL0     H 4962   9.148   8.287   8.016  1.4465  2.3387 -0.1105
   37MOL0     H 4963   8.920   8.457   7.902  1.3832 -2.2107 -1.2431
   37MOL0     H 4964   8.964   8.429   8.071  5.0225  0.8848  1.2338
   37MOL0     H 4965   9.121   8.615   7.899 -0.9809 -1.6204 -0.1695
   37MOL0     H 4966   9.143   8.589   8.066  1.5302  0.2370 -1.9151
   37MOL0     H 4967   8.926   8.678   8.114  2.0873  2.1330  1.6933
   37MOL0     H 4968   9.029   8.793   8.046  0.0904  0.5132  0.6738
   37MOL0     H 4969   8.810   8.641   7.898  2.0274 -1.1237 -0.3891
   37MOL0     H 4970   8.917   8.756   7.813  0.7623  1.0028  1.0773
   37MOL0     H 4971   8.671   8.852   7.893 -2.0558  1.0316  3.3664
   37MOL0     H 4972   8.742   8.825   8.052  2.8036 -0.4305  0.5463
   37MOL0     H 4973   8.865   8.991   7.828 -1.7849 -2.5503 -1.2773
   37MOL0     H 4974   8.923   8.985   7.999  0.2758  1.0793 -0.5470
   37MOL0     H 4975   8.771   9.178   8.032 -0.8779  1.9854 -0.2169
   37MOL0     H 4976   8.651   9.042   8.033  0.7704 -2.6569 -1.5608
   37MOL0     H 4977   9.365   8.367   8.072 -3.0450 -0.6166 -0.8179
   37MOL0     H 4978   9.572   8.210   8.081  1.4548  2.3216 -0.4472
   37MOL0     H 4979   9.708   7.861   7.975  1.2415  2.5829  2.0225
   37MOL0     H 4980   9.836   7.665   8.038  2.9478 -3.6112 -0.5659
   37MOL0     H 4981   8.921   7.524   7.489 -1.8116 -2.2740  0.3466
   37MOL0     H 4982   8.742   7.666   7.593  2.9082 -3.5085  0.2804
   37MOL0     H 4983   8.345   7.817   7.589  0.4959  0.3555  1.1944
   37MOL0     H 4984   8.154   7.895   7.671  0.8172  0.4166  0.6708
   37MOL0     H 4985   7.975   8.010   7.798  0.5165  0.0220 -1.7901
   37MOL0     H 4986   8.122   8.069   7.862 -1.9861 -1.4441  2.0261
   37MOL0     H 4987   7.886   8.243   7.830 -0.2029 -0.1387  0.6230
   37MOL0     H 4988   8.047   8.304   7.883  2.5586 -0.7566  0.7726
   37MOL0     H 4989   8.033   8.111   8.057  0.2761 -1.3362  0.0442
   37MOL0     H 4990   7.873   8.073   7.995  0.3746 -0.1694 -3.2522
   37MOL0     H 4991   7.936   8.348   8.130 -0.4466  0.8479  0.5270
   37MOL0     H 4992   7.875   8.211   8.217 -3.0612 -4.6469 -1.8181
   37MOL0     H 4993   7.559   8.391   7.983 -1.6749 -2.3235 -1.0775
   37MOL0     H 4994   8.258   8.297   7.555  1.1922 -0.0121 -1.2433
   37MOL0     H 4995   8.452   8.212   7.462  0.5713 -1.0633  0.3007
   38MOL0     O 4996   9.154   9.009   0.210  0.1432 -0.0957 -0.4789
   38MOL0     C 4997   9.237   8.943   0.135 -0.4594 -0.5805  0.1392
   38MOL0     O 4998   9.207   8.826   0.072 -0.0584 -0.7765  0.3303
   38MOL0     C 4999   9.095   8.761   0.097  0.7193 -0.0063 -0.0313
   38MOL0     C 5000   8.983   8.798   0.027 -0.2043  0.1312 -0.7553
   38MOL0     C 5001   8.854   8.748   0.059 -0.6661 -0.5153 -0.3048
   38MOL0     C 5002   8.841   8.654   0.163  0.0717  0.5882  0.6377
   38MOL0     O 5003   8.731   8.591   0.201  0.0244 -0.8412  0.1647
   38MOL0     C 5004   8.605   8.618   0.135 -0.9927  0.2991  0.2314
   38MOL0     C 5005   8.505   8.529   0.191  0.5503  0.0863 -0.0204
   38MOL0     C 5006   8.504   8.540   0.347  0.2334  0.3852  0.1296
   38MOL0     C 5007   8.374   8.487   0.417  0.2008  0.0568 -0.3580
   38MOL0     C 5008   8.408   8.457   0.558 -0.2584 -0.3699 -0.8733
   38MOL0     C 5009   8.302   8.486   0.674  1.1114  0.1625 -0.6323
   38MOL0     C 5010   8.154   8.432   0.647  0.9258 -0.7157  0.2284
   38MOL0     C 5011   8.052   8.463   0.751  0.6514 -0.6888  0.1391
   38MOL0     N 5012   8.081   8.395   0.879 -0.6732  0.6884  1.0555
   38MOL0     C 5013   8.151   8.446   0.979 -0.1834  0.2099  0.0048
   38MOL0     C 5014   8.108   8.382   1.094  0.3898 -0.3448  0.7860
   38MOL0     C 5015   8.150   8.418   1.230  0.8303 -0.2058  0.2610
   38MOL0     C 5016   8.046   8.498   1.313 -0.2727 -0.4819  0.0717
   38MOL0     C 5017   7.906   8.453   1.294  0.1935  0.4402 -0.6552
   38MOL0     C 5018   7.887   8.318   1.371 -0.1270  0.2288  0.3517
   38MOL0     O 5019   7.757   8.317   1.430 -0.3542 -0.3201 -0.0673
   38MOL0     C 5020   7.740   8.228   1.532  0.8296  0.8701 -0.1158
   38MOL0     C 5021   7.607   8.216   1.584  0.2504 -0.9858  0.3376
   38MOL0     C 5022   7.565   8.135   1.683  0.1491  0.1932  0.2991
   38MOL0     C 5023   7.417   8.132   1.733 -0.5425 -0.8965  0.2091
   38MOL0     C 5024   7.665   8.050   1.737 -0.2212  1.0074 -0.0103
   38MOL0     C 5025   7.634   7.926   1.814 -0.1592 -0.5824 -0.4685
   38MOL0     O 5026   7.679   7.807   1.766 -0.3741  0.5226 -0.0442
   38MOL0     C 5027   7.620   7.695   1.827 -0.1195 -0.0948  0.2460
   38MOL0     C 5028   7.717   7.619   1.895 -0.0597 -0.1651  0.3557
   38MOL0     C 5029   7.668   7.504   1.958 -0.0956  0.0125 -0.0813
   38MOL0     C 5030   7.533   7.484   1.979 -1.1208  0.4769  0.6512
   38MOL0     O 5031   7.490   7.378   2.054  0.5574  0.1529  0.0184
   38MOL0     C 5032   7.519   7.398   2.193  1.0282 -0.1447  0.0561
   38MOL0     C 5033   7.387   7.452   2.271 -1.1517  0.2814 -0.3188
   38MOL0     C 5034   7.375   7.608   2.285  0.5180 -0.3212 -0.7860
   38MOL0     C 5035   7.228   7.649   2.326 -0.3206  0.1021  0.4408
   38MOL0     C 5036   7.209   7.795   2.331  1.1523 -0.5514  0.2366
   38MOL0     C 5037   7.205   7.892   2.208  0.2882  0.3113 -0.2494
   38MOL0     C 5038   7.341   7.926   2.149 -0.0983 -0.6984  0.2997
   38MOL0     C 5039   7.378   8.065   2.186  0.4565  0.2740  0.3854
   38MOL0    Cl 5040   7.267   8.189   2.132  0.1220  0.1536  0.1026
   38MOL0     C 5041   7.436   7.566   1.923  0.2009 -0.4245 -0.0825
   38MOL0     C 5042   7.481   7.672   1.841 -0.1771  0.8831  0.6512
   38MOL0     O 5043   7.574   7.942   1.919  0.5010  0.2769 -0.3304
   38MOL0     C 5044   7.800   8.050   1.688 -0.0761 -0.5062 -0.6417
   38MOL0     C 5045   7.837   8.144   1.591  0.0056  0.4126  0.3427
   38MOL0     N 5046   8.025   8.283   1.054  0.0085 -1.0338  0.1949
   38MOL0     N 5047   8.005   8.294   0.927 -0.6347  0.2046  0.1542
   38MOL0     C 5048   8.959   8.613   0.230 -0.4301  0.5388 -0.8416
   38MOL0     C 5049   9.086   8.665   0.200 -0.0268 -0.3157 -0.7250
   38MOL0     C 5050   9.378   9.006   0.113  1.5959 -0.4845  0.4964
   38MOL0     C 5051   9.412   9.143   0.130 -0.2497  0.1385  0.8636
   38MOL0     C 5052   9.554   9.176   0.130  0.8046 -0.2326  0.1857
   38MOL0     C 5053   9.648   9.068   0.108  0.0373 -0.6411  0.0078
   38MOL0     O 5054   9.782   9.095   0.110 -0.1613  0.5633 -0.2476
   38MOL0     C 5055   9.839   9.200   0.196  0.8317 -0.0780  0.2528
   38MOL0     C 5056   9.900   9.143   0.323 -0.1970  0.3013 -0.2112
   38MOL0     C 5057  10.001   9.037   0.292 -0.9245  1.0151 -0.1709
   38MOL0     C 5058  10.082   9.011   0.417 -0.0144 -0.4070  0.8486
   38MOL0     C 5059  10.000   8.933   0.513  0.5123 -1.1718 -0.3446
   38MOL0     C 5060   9.937   8.857   0.586 -0.9988 -0.4085 -0.0266
   38MOL0     C 5061   9.604   8.937   0.099 -0.0440 -0.8713 -0.7324
   38MOL0     C 5062   9.466   8.912   0.092 -0.4378 -0.0113  0.2293
   38MOL0     H 5063   8.984   8.855  -0.066  0.2347  1.3593 -0.0133
   38MOL0     H 5064   8.771   8.790   0.004 -0.8283  2.9382  2.2839
   38MOL0     H 5065   8.565   8.720   0.140  0.4435  0.8414  1.2824
   38MOL0     H 5066   8.597   8.587   0.030 -2.7436  0.3947  0.2951
   38MOL0     H 5067   8.409   8.568   0.156 -0.3973 -2.6842 -0.8149
   38MOL0     H 5068   8.522   8.425   0.161 -2.8673 -1.3155  2.1929
   38MOL0     H 5069   8.591   8.488   0.388 -1.3629  0.2780  3.7357
   38MOL0     H 5070   8.526   8.645   0.365  1.6298  0.1671 -0.1500
   38MOL0     H 5071   8.288   8.555   0.409 -0.5969 -1.1064 -2.4508
   38MOL0     H 5072   8.344   8.393   0.369  1.3232 -0.4927 -0.0198
   38MOL0     H 5073   8.426   8.349   0.560  2.1812 -0.0560  2.2347
   38MOL0     H 5074   8.502   8.500   0.593  1.2845 -2.1764 -2.6093
   38MOL0     H 5075   8.340   8.431   0.760  0.8395 -0.6485 -1.0167
   38MOL0     H 5076   8.294   8.592   0.698  8.1496  0.8938  0.5641
   38MOL0     H 5077   8.123   8.499   0.566 -0.5586 -0.5830  0.8727
   38MOL0     H 5078   8.140   8.330   0.609 -2.2132 -0.6099  0.8467
   38MOL0     H 5079   7.949   8.447   0.717  1.8823  0.0191 -4.6564
   38MOL0     H 5080   8.069   8.567   0.781  3.8831 -0.8443 -0.7481
   38MOL0     H 5081   8.223   8.527   0.976  3.8341 -3.0487  0.8987
   38MOL0     H 5082   8.170   8.323   1.280 -0.6919  0.4997  2.3646
   38MOL0     H 5083   8.243   8.475   1.230  1.0072 -0.4572 -0.9136
   38MOL0     H 5084   8.037   8.597   1.267 -3.3876  0.4640  2.4231
   38MOL0     H 5085   8.069   8.506   1.419 -1.5573 -0.1120  0.3311
   38MOL0     H 5086   7.892   8.444   1.186  3.1209 -0.2758 -1.0829
   38MOL0     H 5087   7.842   8.532   1.333  0.9106  0.1497  1.2210
   38MOL0     H 5088   7.961   8.301   1.450 -1.4913 -4.4177  0.8963
   38MOL0     H 5089   7.891   8.229   1.309 -1.3129 -1.0062  1.9680
   38MOL0     H 5090   7.538   8.280   1.530  0.2850 -1.8658 -0.8005
   38MOL0     H 5091   7.389   8.035   1.776  0.5714 -2.2395 -1.8984
   38MOL0     H 5092   7.416   8.210   1.810 -1.5712  0.0756 -0.7503
   38MOL0     H 5093   7.340   8.165   1.663 -0.9674  0.3724  1.2236
   38MOL0     H 5094   7.824   7.637   1.892 -0.1245  0.2185  0.2929
   38MOL0     H 5095   7.743   7.445   2.009 -0.6026  1.4386  2.5458
   38MOL0     H 5096   7.561   7.312   2.246  0.6137  0.7815  1.9626
   38MOL0     H 5097   7.601   7.468   2.211  1.4238 -0.9872  1.7326
   38MOL0     H 5098   7.304   7.421   2.207  0.6955 -1.4573 -2.0798
   38MOL0     H 5099   7.369   7.409   2.370 -0.8705 -1.9635 -1.1717
   38MOL0     H 5100   7.401   7.642   2.184  1.7362  0.3669 -0.2612
   38MOL0     H 5101   7.451   7.645   2.355  0.5307 -1.2748 -0.2801
   38MOL0     H 5102   7.160   7.596   2.259 -0.0848  0.1583  0.1522
   38MOL0     H 5103   7.223   7.609   2.428  2.0345  1.4865  1.1722
   38MOL0     H 5104   7.294   7.836   2.387  0.2985  1.2439  0.2847
   38MOL0     H 5105   7.116   7.822   2.382  1.1926  1.0561 -0.4888
   38MOL0     H 5106   7.149   7.848   2.125  1.4841 -2.6449  0.4103
   38MOL0     H 5107   7.155   7.984   2.241 -1.1201 -0.3025 -0.5914
   38MOL0     H 5108   7.343   7.918   2.040  1.5211  0.3083  0.2264
   38MOL0     H 5109   7.425   7.859   2.172  1.4291  0.5012 -1.5211
   38MOL0     H 5110   7.478   8.091   2.150  0.8709 -0.1824  1.1663
   38MOL0     H 5111   7.380   8.077   2.295 -2.2604 -3.5630  1.0535
   38MOL0     H 5112   7.333   7.553   1.958  0.1024 -0.4584 -0.3834
   38MOL0     H 5113   7.411   7.738   1.790 -1.0694 -1.4270 -1.2857
   38MOL0     H 5114   7.878   7.989   1.733 -0.5536  0.0682  1.0755
   38MOL0     H 5115   7.942   8.147   1.562 -0.3080 -0.5620 -0.9915
   38MOL0     H 5116   8.961   8.536   0.307  2.2082  1.1588 -0.2152
   38MOL0     H 5117   9.167   8.615   0.253  0.7349  3.0515  1.6673
   38MOL0     H 5118   9.337   9.212   0.166 -0.5270 -1.5477  3.8016
   38MOL0     H 5119   9.570   9.280   0.157 -2.3469  0.4865 -0.2898
   38MOL0     H 5120   9.919   9.250   0.140  0.5892  0.8348  0.7242
   38MOL0     H 5121   9.761   9.270   0.225  0.9991  0.5775 -0.8394
   38MOL0     H 5122   9.826   9.082   0.376  1.5134 -2.6207 -0.9404
   38MOL0     H 5123   9.932   9.224   0.389  0.6829  0.0697 -0.3482
   38MOL0     H 5124  10.062   9.060   0.204 -0.8670 -2.6526 -1.2940
   38MOL0     H 5125   9.950   8.944   0.264 -0.7233  0.1979  2.0008
   38MOL0     H 5126  10.127   9.100   0.461 -0.7267 -0.3153  1.4176
   38MOL0     H 5127  10.165   8.948   0.383  0.1786  0.0404  0.4913
   38MOL0     H 5128   9.874   8.789   0.639 -2.7282 -0.3858 -1.9363
   38MOL0     H 5129   9.677   8.857   0.104 -1.6760 -2.3596  1.3072
   38MOL0     H 5130   9.442   8.810   0.067 -3.1247  0.7194 -0.5157
   39MOL0     O 5131   3.557  10.358  11.299  0.0427 -0.5363 -0.0187
   39MOL0     C 5132   3.498  10.287  11.226 -0.1614  0.5636  0.2225
   39MOL0     O 5133   3.387  10.204  11.266 -0.4294 -0.0570 -0.4384
   39MOL0     C 5134   3.310  10.238  11.375  0.0452 -0.4843  1.1283
   39MOL0     C 5135   3.265  10.366  11.417  0.1664 -1.2640  0.7813
   39MOL0     C 5136   3.175  10.393  11.519  0.0261 -0.6406 -0.0542
   39MOL0     C 5137   3.109  10.286  11.577 -0.2057 -0.3012 -0.2378
   39MOL0     O 5138   3.022  10.294  11.680  0.7536 -0.9099  0.2742
   39MOL0     C 5139   2.995  10.410  11.764  0.8204  0.1014  0.1182
   39MOL0     C 5140   2.892  10.499  11.704 -0.0217 -0.0384  0.4657
   39MOL0     C 5141   2.750  10.481  11.766 -0.5786  0.0776  0.5087
   39MOL0     C 5142   2.707  10.331  11.731 -0.1299 -0.3098  0.3594
   39MOL0     C 5143   2.569  10.290  11.803 -0.3449 -0.4032  0.6608
   39MOL0     C 5144   2.438  10.353  11.739  0.0462 -0.8212 -0.0136
   39MOL0     C 5145   2.301  10.282  11.776 -0.0338  0.0876 -0.3949
   39MOL0     C 5146   2.207  10.367  11.870  0.4882 -0.1960  0.0715
   39MOL0     N 5147   2.259  10.348  12.008  0.4451 -0.1075  0.0755
   39MOL0     C 5148   2.369  10.399  12.074 -0.7378 -0.0716  0.2713
   39MOL0     C 5149   2.380  10.336  12.194  0.7393  0.6962  0.5989
   39MOL0     C 5150   2.479  10.346  12.308 -0.7464 -0.4264 -0.5092
   39MOL0     C 5151   2.601  10.443  12.276 -0.3284  0.2244 -0.3530
   39MOL0     C 5152   2.704  10.368  12.196  0.3843 -0.8303 -0.6798
   39MOL0     C 5153   2.786  10.269  12.283  0.2861 -0.2578  0.8395
   39MOL0     O 5154   2.897  10.345  12.337 -0.6889 -0.7470  0.1441
   39MOL0     C 5155   2.995  10.295  12.428 -0.0995 -0.6322  0.3203
   39MOL0     C 5156   3.042  10.161  12.402  1.5290  0.2454  0.3189
   39MOL0     C 5157   3.162  10.113  12.462 -0.2217  0.5465  1.0102
   39MOL0     C 5158   3.197   9.973  12.422  0.3575  0.3200 -0.0701
   39MOL0     C 5159   3.230  10.187  12.558  0.5594  1.0364 -0.1365
   39MOL0     C 5160   3.338  10.137  12.640 -0.0170 -0.6638 -0.1542
   39MOL0     O 5161   3.427  10.049  12.586 -0.5475  0.4620  0.3416
   39MOL0     C 5162   3.536  10.008  12.655 -1.4570  0.5741  0.3007
   39MOL0     C 5163   3.580   9.871  12.637  0.1457 -0.4498  0.2481
   39MOL0     C 5164   3.691   9.819  12.705 -0.0684  0.2273  0.1587
   39MOL0     C 5165   3.761   9.895  12.796  0.9040  0.2681 -0.5171
   39MOL0     O 5166   3.868   9.845  12.864  0.3900 -0.0330  0.5688
   39MOL0     C 5167   3.934   9.724  12.811  0.5999 -0.1801 -0.1168
   39MOL0     C 5168   4.056   9.702  12.904  0.1815  0.4959 -0.7501
   39MOL0     C 5169   4.164   9.805  12.891 -0.1422 -0.5996 -0.4732
   39MOL0     C 5170   4.219   9.865  13.026 -0.5871  0.8786 -0.0363
   39MOL0     C 5171   4.326   9.975  13.002 -0.4601 -0.1826  0.0347
   39MOL0     C 5172   4.454   9.916  12.979  0.1224  0.1461 -0.1018
   39MOL0     C 5173   4.573  10.020  12.977 -0.2669  0.2082 -0.0545
   39MOL0     C 5174   4.703   9.955  12.929 -0.7239  1.2116  0.3816
   39MOL0    Cl 5175   4.737   9.798  12.996  0.1849  0.1691 -0.6580
   39MOL0     C 5176   3.722  10.033  12.810  0.2984 -0.7277 -0.8785
   39MOL0     C 5177   3.617  10.091  12.738 -0.8379 -0.3223  0.4622
   39MOL0     O 5178   3.341  10.190  12.748  0.7384 -0.5187  0.5154
   39MOL0     C 5179   3.173  10.315  12.600  0.0159  0.3364  0.0801
   39MOL0     C 5180   3.066  10.367  12.530 -0.2288 -0.0516  0.7662
   39MOL0     N 5181   2.277  10.240  12.190  0.3414  0.1204 -0.4661
   39MOL0     N 5182   2.214  10.245  12.083  0.8836  0.2430  0.1114
   39MOL0     C 5183   3.130  10.161  11.526  0.3153  0.3145  0.7406
   39MOL0     C 5184   3.232  10.133  11.433  0.0742  0.1607 -0.2099
   39MOL0     C 5185   3.550  10.274  11.083  0.2430 -0.2498  0.4417
   39MOL0     C 5186   3.682  10.322  11.050  0.2551  1.1344 -0.4881
   39MOL0     C 5187   3.735  10.295  10.921 -0.3875  0.3009  0.8728
   39MOL0     C 5188   3.660  10.210  10.832  0.2278 -0.2880  0.1560
   39MOL0     O 5189   3.719  10.165  10.711  0.8148  0.0674 -0.3939
   39MOL0     C 5190   3.830  10.234  10.642  0.6732  0.2335 -0.4466
   39MOL0     C 5191   3.775  10.275  10.506  0.7172  0.1144  0.0840
   39MOL0     C 5192   3.879  10.350  10.438  0.5229  0.8132  0.4233
   39MOL0     C 5193   3.859  10.394  10.299  0.2366  0.2866 -0.2841
   39MOL0     C 5194   3.762  10.505  10.300 -0.7941 -0.4229  0.7450
   39MOL0     C 5195   3.682  10.597  10.308  0.5773 -0.4123  0.9169
   39MOL0     C 5196   3.533  10.157  10.876 -0.4795  0.4199 -0.1233
   39MOL0     C 5197   3.484  10.188  11.002  0.5946 -0.4388 -0.1829
   39MOL0     H 5198   3.297  10.460  11.374  1.5379 -0.5678  3.1410
   39MOL0     H 5199   3.141  10.492  11.545  4.1350  0.5053  1.7492
   39MOL0     H 5200   2.955  10.384  11.862 -1.4691 -0.3804 -0.8837
   39MOL0     H 5201   3.091  10.459  11.786  0.7149  0.7830 -0.8923
   39MOL0     H 5202   2.916  10.604  11.720  0.3412 -0.3699  2.3567
   39MOL0     H 5203   2.888  10.471  11.598 -0.1869  4.2156 -0.8044
   39MOL0     H 5204   2.741  10.499  11.874 -3.2734  0.5765  0.2871
   39MOL0     H 5205   2.680  10.551  11.718  0.6240  0.2770 -1.0316
   39MOL0     H 5206   2.699  10.325  11.622 -0.6346 -1.5315  0.4452
   39MOL0     H 5207   2.779  10.254  11.760  0.3314 -0.2431 -0.5825
   39MOL0     H 5208   2.566  10.181  11.794 -2.9031 -0.3717  0.3154
   39MOL0     H 5209   2.571  10.312  11.910  1.8741 -0.8215  0.7467
   39MOL0     H 5210   2.428  10.460  11.757 -0.9284 -0.9335  0.1648
   39MOL0     H 5211   2.447  10.341  11.630 -1.9898 -1.8056 -0.1161
   39MOL0     H 5212   2.251  10.259  11.681  1.3316 -1.6613 -0.7518
   39MOL0     H 5213   2.331  10.183  11.811  1.0227 -0.6562 -3.1788
   39MOL0     H 5214   2.102  10.336  11.871  0.0067  0.9794 -2.8204
   39MOL0     H 5215   2.213  10.473  11.845  0.4891 -0.5733 -1.6209
   39MOL0     H 5216   2.434  10.477  12.034 -0.1571 -0.8733 -0.3700
   39MOL0     H 5217   2.426  10.379  12.399 -0.7034 -1.7614  0.0109
   39MOL0     H 5218   2.521  10.251  12.340  2.0678  1.4378  1.9134
   39MOL0     H 5219   2.655  10.460  12.369  0.4903 -1.5383 -0.4545
   39MOL0     H 5220   2.566  10.535  12.228 -0.0526  1.2909  1.3958
   39MOL0     H 5221   2.768  10.446  12.153 -1.2234  0.7181 -0.3651
   39MOL0     H 5222   2.648  10.331  12.110 -1.2907  0.7959 -0.3608
   39MOL0     H 5223   2.818  10.181  12.225 -3.4644 -1.3829  0.2162
   39MOL0     H 5224   2.727  10.225  12.363 -0.9680  1.1677  0.7340
   39MOL0     H 5225   2.988  10.099  12.331  1.5129 -2.1199  2.2464
   39MOL0     H 5226   3.299   9.976  12.384  0.3641 -0.0005 -0.0778
   39MOL0     H 5227   3.190   9.897  12.500 -1.4816 -3.6818 -3.7044
   39MOL0     H 5228   3.128   9.939  12.344 -1.9895  3.7397  0.2564
   39MOL0     H 5229   3.526   9.814  12.561  0.4474  0.4052 -0.6228
   39MOL0     H 5230   3.704   9.712  12.693  1.2422  0.2910  0.8874
   39MOL0     H 5231   3.873   9.634  12.800  2.6832 -1.7771  0.8046
   39MOL0     H 5232   3.970   9.738  12.709  3.0819  2.5013  0.9896
   39MOL0     H 5233   4.020   9.699  13.007 -0.2153  0.7790 -0.8772
   39MOL0     H 5234   4.104   9.607  12.880 -1.1109  0.4341 -3.4409
   39MOL0     H 5235   4.126   9.898  12.846  0.5241  1.0936  2.2375
   39MOL0     H 5236   4.247   9.762  12.834  1.4100  0.7727  0.6502
   39MOL0     H 5237   4.140   9.912  13.086  0.3444  1.5720  0.6746
   39MOL0     H 5238   4.264   9.789  13.089  2.2192  2.6367  0.2556
   39MOL0     H 5239   4.332  10.035  13.093  0.4018 -2.2869  1.4357
   39MOL0     H 5240   4.295  10.037  12.917 -0.5221  2.2096  1.7207
   39MOL0     H 5241   4.473   9.834  13.048  0.3321 -0.8262 -1.2905
   39MOL0     H 5242   4.465   9.873  12.879 -0.9683  0.5630 -0.4186
   39MOL0     H 5243   4.582  10.056  13.080 -0.8119 -3.5875  1.4867
   39MOL0     H 5244   4.548  10.106  12.914 -2.6211 -1.3808 -1.4547
   39MOL0     H 5245   4.790  10.020  12.941  0.0461  0.7767 -2.2385
   39MOL0     H 5246   4.695   9.946  12.820  1.9264 -1.3569  0.2729
   39MOL0     H 5247   3.787  10.098  12.867 -1.3578 -0.0775  0.3436
   39MOL0     H 5248   3.587  10.195  12.746  0.0580 -0.2062  3.4759
   39MOL0     H 5249   3.208  10.368  12.689 -1.2126 -1.1638  1.5169
   39MOL0     H 5250   3.034  10.471  12.538  1.0988  0.4490 -0.1375
   39MOL0     H 5251   3.075  10.078  11.570  0.9341 -1.0347 -0.9404
   39MOL0     H 5252   3.244  10.029  11.406 -0.3667  0.2690 -0.8596
   39MOL0     H 5253   3.746  10.373  11.121  0.9163  2.0338 -1.6857
   39MOL0     H 5254   3.837  10.325  10.898 -2.0662  3.5567 -3.8299
   39MOL0     H 5255   3.880  10.316  10.695  1.2212  0.5010 -1.3540
   39MOL0     H 5256   3.907  10.157  10.635  1.9076  1.3824  0.1468
   39MOL0     H 5257   3.679  10.327  10.516 -0.9863 -3.1462  2.4785
   39MOL0     H 5258   3.749  10.185  10.450  0.7577  0.5391 -0.6367
   39MOL0     H 5259   3.964  10.281  10.426  0.3491  0.5348  0.7567
   39MOL0     H 5260   3.918  10.435  10.494  1.0957  0.2891  0.8409
   39MOL0     H 5261   3.814  10.307  10.251  2.3939 -0.3901 -1.1923
   39MOL0     H 5262   3.951  10.422  10.246  0.2731  0.3628 -0.1825
   39MOL0     H 5263   3.609  10.674  10.292 -1.1292 -1.7744  1.7016
   39MOL0     H 5264   3.475  10.108  10.799  1.2617 -0.5212 -0.8905
   39MOL0     H 5265   3.393  10.141  11.036 -0.3514  1.7293  0.4467
   40MOL0     O 5266   2.027   6.841   5.740  0.0174  0.2605  0.4225
   40MOL0     C 5267   2.028   6.718   5.718 -0.4400 -0.7553 -0.2427
   40MOL0     O 5268   2.137   6.635   5.719  0.1872 -0.9282  0.0434
   40MOL0     C 5269   2.258   6.704   5.729  0.1940  0.4575  0.1243
   40MOL0     C 5270   2.345   6.749   5.622 -0.0192  1.4952  0.0956
   40MOL0     C 5271   2.462   6.820   5.657 -0.4549  0.2750  0.7587
   40MOL0     C 5272   2.514   6.813   5.784  1.1534  0.4886 -1.0328
   40MOL0     O 5273   2.634   6.870   5.816  1.0036  1.0798  0.1383
   40MOL0     C 5274   2.737   6.865   5.717  0.0020 -0.6261 -0.1014
   40MOL0     C 5275   2.862   6.901   5.785  1.0278 -0.5603 -0.3731
   40MOL0     C 5276   2.973   6.868   5.688 -0.2678  1.2086 -0.4668
   40MOL0     C 5277   3.110   6.896   5.761 -0.7807 -0.8735  0.5217
   40MOL0     C 5278   3.154   7.041   5.735  0.1617  0.1227  0.2654
   40MOL0     C 5279   3.295   7.090   5.782  1.0094 -0.1334  0.8229
   40MOL0     C 5280   3.294   7.239   5.781  0.4285  0.1219 -0.6654
   40MOL0     C 5281   3.434   7.299   5.828  0.5185 -0.3893  0.0237
   40MOL0     N 5282   3.440   7.439   5.779 -0.0563  0.6216  0.1566
   40MOL0     C 5283   3.344   7.529   5.813  0.0956 -0.3399  0.9146
   40MOL0     C 5284   3.361   7.634   5.734 -0.6278  0.2091  0.1743
   40MOL0     C 5285   3.273   7.761   5.722 -0.6097 -0.2144 -0.5998
   40MOL0     C 5286   3.157   7.749   5.625 -0.5455  0.1706 -0.2300
   40MOL0     C 5287   3.121   7.864   5.542 -0.2050  0.2993  0.5740
   40MOL0     C 5288   3.088   7.987   5.630  0.9774  0.4848 -0.7113
   40MOL0     O 5289   2.959   7.964   5.710 -0.0252  0.8466  0.6208
   40MOL0     C 5290   2.955   8.048   5.819 -0.6832 -0.3079 -0.1518
   40MOL0     C 5291   2.921   7.993   5.933  1.1548 -0.7185 -1.5362
   40MOL0     C 5292   2.896   8.068   6.057  0.4651  1.2829  0.4909
   40MOL0     C 5293   2.851   7.997   6.184  0.6145 -0.0486 -1.2075
   40MOL0     C 5294   2.913   8.205   6.056 -0.4583  0.2750 -0.4366
   40MOL0     C 5295   2.898   8.295   6.184 -0.8981  0.4249 -0.2526
   40MOL0     O 5296   2.857   8.424   6.151  0.8313  0.5126 -0.5145
   40MOL0     C 5297   2.832   8.511   6.260 -0.9911 -0.1684 -0.4090
   40MOL0     C 5298   2.933   8.601   6.284 -0.5341  0.4445 -0.1063
   40MOL0     C 5299   2.910   8.708   6.363 -0.0119  0.7465  0.1538
   40MOL0     C 5300   2.790   8.718   6.433  0.0948 -0.3489 -0.2980
   40MOL0     O 5301   2.751   8.816   6.510 -0.2303  0.2907 -0.4086
   40MOL0     C 5302   2.856   8.895   6.564  0.1278 -0.0156 -0.5738
   40MOL0     C 5303   2.795   9.012   6.644 -0.2259 -0.4332  0.0175
   40MOL0     C 5304   2.887   9.118   6.704 -0.4820  0.3393  0.2034
   40MOL0     C 5305   2.816   9.248   6.762 -0.2585 -0.6918  0.0064
   40MOL0     C 5306   2.915   9.344   6.839 -0.1803 -0.5084 -0.6573
   40MOL0     C 5307   3.020   9.407   6.750 -0.2243  0.0614  0.2602
   40MOL0     C 5308   3.130   9.485   6.825 -0.7452 -0.4387  0.2088
   40MOL0     C 5309   3.235   9.545   6.728 -0.4593 -0.4129  0.2427
   40MOL0    Cl 5310   3.315   9.417   6.637  0.0253 -0.1214  0.3514
   40MOL0     C 5311   2.698   8.619   6.419 -1.1710 -0.0395 -1.2171
   40MOL0     C 5312   2.717   8.508   6.339  0.1783  0.3359  0.1190
   40MOL0     O 5313   2.925   8.258   6.297  0.3449  0.6175  0.6090
   40MOL0     C 5314   2.948   8.262   5.934 -0.2476  0.2318  0.2318
   40MOL0     C 5315   2.972   8.186   5.817  0.0975  0.3953 -0.3254
   40MOL0     N 5316   3.475   7.607   5.657  0.3995  0.7149 -0.2729
   40MOL0     N 5317   3.520   7.485   5.687 -0.3099 -0.2628  0.9165
   40MOL0     C 5318   2.434   6.759   5.880 -0.3308  0.1637  0.2317
   40MOL0     C 5319   2.314   6.705   5.855 -0.0072 -0.5000 -0.2682
   40MOL0     C 5320   1.903   6.660   5.691 -0.7832  0.2952 -0.1568
   40MOL0     C 5321   1.891   6.529   5.626 -0.2227 -1.1118  0.4625
   40MOL0     C 5322   1.765   6.474   5.597  0.5276  0.5222  0.1336
   40MOL0     C 5323   1.650   6.550   5.620 -1.0518 -0.5864  0.0109
   40MOL0     O 5324   1.543   6.477   5.587  0.5542 -0.3600  0.0777
   40MOL0     C 5325   1.423   6.556   5.563 -0.7584  0.3259 -0.7597
   40MOL0     C 5326   1.312   6.523   5.662 -0.2567  0.2224 -1.1201
   40MOL0     C 5327   1.199   6.633   5.680  0.2974 -0.2435 -1.0379
   40MOL0     C 5328   1.128   6.648   5.555  0.5037  0.0180  0.3560
   40MOL0     C 5329   1.016   6.744   5.564 -0.2999  0.5065 -0.7676
   40MOL0     C 5330   0.932   6.835   5.579 -0.8523 -0.0023 -0.4127
   40MOL0     C 5331   1.659   6.678   5.688 -0.3776  0.6296  0.4227
   40MOL0     C 5332   1.784   6.726   5.719  0.7896 -0.1681 -0.3969
   40MOL0     H 5333   2.316   6.749   5.517 -0.8697  0.1178  0.2922
   40MOL0     H 5334   2.528   6.855   5.578 -0.5605  0.5986  0.8124
   40MOL0     H 5335   2.748   6.766   5.672  0.4594  0.0335 -1.4849
   40MOL0     H 5336   2.727   6.940   5.639  3.6103 -0.1809 -0.3110
   40MOL0     H 5337   2.866   7.009   5.804  0.2802 -0.6881  0.5958
   40MOL0     H 5338   2.872   6.850   5.881  0.5144  0.3842  0.2054
   40MOL0     H 5339   2.962   6.763   5.661  0.5325  0.5421  1.5550
   40MOL0     H 5340   2.967   6.919   5.592 -2.2843  0.6404 -0.6928
   40MOL0     H 5341   3.123   6.868   5.866  1.0995 -0.8236  0.3430
   40MOL0     H 5342   3.187   6.843   5.705  0.4946  1.8207 -0.4502
   40MOL0     H 5343   3.141   7.070   5.631  2.4411  1.3803  0.2576
   40MOL0     H 5344   3.086   7.098   5.799  2.7796  2.3669  1.2864
   40MOL0     H 5345   3.321   7.059   5.884  0.3777  2.8901  2.0087
   40MOL0     H 5346   3.377   7.053   5.720  2.1835  0.0098  2.2403
   40MOL0     H 5347   3.282   7.258   5.674 -2.4580 -1.7953 -0.8122
   40MOL0     H 5348   3.208   7.285   5.832  1.0758  1.1934 -0.5190
   40MOL0     H 5349   3.512   7.234   5.788 -1.0665 -2.3484 -0.0187
   40MOL0     H 5350   3.441   7.301   5.937 -0.6082 -0.5712  0.1110
   40MOL0     H 5351   3.253   7.516   5.870 -0.0059 -2.0648  0.4297
   40MOL0     H 5352   3.269   7.807   5.821  1.9964 -2.2387  0.5681
   40MOL0     H 5353   3.340   7.834   5.676  0.2003  0.1434  1.0667
   40MOL0     H 5354   3.069   7.720   5.684 -1.9308  2.0823 -1.2462
   40MOL0     H 5355   3.186   7.668   5.559 -0.5021 -0.0793  0.0942
   40MOL0     H 5356   3.026   7.835   5.495  1.2783 -1.3933 -1.5983
   40MOL0     H 5357   3.187   7.872   5.456  0.2133  1.7052  1.0000
   40MOL0     H 5358   3.078   8.079   5.572 -1.4858  1.0411  0.4925
   40MOL0     H 5359   3.165   7.996   5.708 -1.1273 -0.3080  1.5654
   40MOL0     H 5360   2.904   7.886   5.939  0.4265 -0.5693  3.1730
   40MOL0     H 5361   2.931   7.990   6.259  0.3074  2.3413 -0.5667
   40MOL0     H 5362   2.770   8.046   6.241  0.3397  0.4042 -1.9742
   40MOL0     H 5363   2.829   7.892   6.166  0.6698  0.0060 -1.5943
   40MOL0     H 5364   3.016   8.616   6.216  1.7247 -0.6548  2.2278
   40MOL0     H 5365   2.980   8.791   6.367 -1.8805  2.3566  1.6986
   40MOL0     H 5366   2.915   8.837   6.635 -0.7818  1.2093  1.2616
   40MOL0     H 5367   2.917   8.938   6.484 -0.2419 -0.6140 -1.1956
   40MOL0     H 5368   2.728   9.064   6.575  0.4976  0.0000 -0.3714
   40MOL0     H 5369   2.730   8.972   6.722 -2.3876 -1.0958 -2.0065
   40MOL0     H 5370   2.959   9.148   6.628 -0.5962  0.6752  0.2263
   40MOL0     H 5371   2.937   9.070   6.789 -0.2968  0.2212  0.0278
   40MOL0     H 5372   2.755   9.295   6.684  0.7636  1.2267  0.3212
   40MOL0     H 5373   2.748   9.200   6.833 -1.1370  3.0546  1.9390
   40MOL0     H 5374   2.974   9.280   6.906 -1.6894 -1.7244 -0.4134
   40MOL0     H 5375   2.858   9.415   6.899 -1.3410  0.0976 -2.3944
   40MOL0     H 5376   3.065   9.320   6.702  0.2923  0.4642  0.0007
   40MOL0     H 5377   2.974   9.474   6.676  1.5775  2.1179  0.8927
   40MOL0     H 5378   3.185   9.418   6.892 -1.4640 -0.8618  0.3870
   40MOL0     H 5379   3.073   9.554   6.888 -2.9912 -2.2864  0.3407
   40MOL0     H 5380   3.301   9.603   6.793  0.1660 -0.7665 -0.0600
   40MOL0     H 5381   3.191   9.627   6.670 -0.4643 -0.1583  0.6022
   40MOL0     H 5382   2.600   8.623   6.466 -2.7898 -0.2272 -4.2470
   40MOL0     H 5383   2.644   8.429   6.330 -2.0563  2.5295 -3.3946
   40MOL0     H 5384   2.959   8.370   5.925  2.8375 -0.1075 -1.4235
   40MOL0     H 5385   2.995   8.229   5.720 -0.9442  1.8657  0.0379
   40MOL0     H 5386   2.485   6.764   5.976  0.2623  2.2503 -0.1558
   40MOL0     H 5387   2.268   6.652   5.938  0.0946 -0.1222  0.0353
   40MOL0     H 5388   1.984   6.483   5.592 -0.5216 -1.0026 -0.5346
   40MOL0     H 5389   1.754   6.378   5.549 -0.5798 -0.5754  2.4227
   40MOL0     H 5390   1.451   6.662   5.567 -0.3471  0.2541  4.1242
   40MOL0     H 5391   1.384   6.540   5.462 -1.0755  1.2058 -0.7792
   40MOL0     H 5392   1.348   6.507   5.764  2.3171  0.2299 -1.9654
   40MOL0     H 5393   1.261   6.431   5.634 -2.4335  0.4486  1.6308
   40MOL0     H 5394   1.239   6.730   5.709 -1.0635 -0.3829  1.6092
   40MOL0     H 5395   1.137   6.588   5.758  1.3550 -1.2520 -0.7436
   40MOL0     H 5396   1.089   6.555   5.514 -0.1695 -0.3485  1.7794
   40MOL0     H 5397   1.186   6.689   5.472 -0.8202 -0.9752 -1.1328
   40MOL0     H 5398   0.855   6.907   5.597 -0.4489 -0.0827  1.9845
   40MOL0     H 5399   1.571   6.739   5.708 -0.6622 -0.5608  3.3242
   40MOL0     H 5400   1.793   6.821   5.772 -1.5897 -0.5896  0.8975
   41MOL0     O 5401   8.678   6.749   9.057  0.2382 -0.5861  0.6773
   41MOL0     C 5402   8.651   6.779   8.938 -0.8980 -0.7625 -0.3409
   41MOL0     O 5403   8.716   6.880   8.865  0.2267  0.6313 -0.0310
   41MOL0     C 5404   8.804   6.968   8.919 -0.0507 -0.1720 -0.3032
   41MOL0     C 5405   8.890   6.933   9.030  0.2116 -0.0086 -0.7038
   41MOL0     C 5406   8.953   7.034   9.095  1.1392 -0.4993 -0.6050
   41MOL0     C 5407   8.949   7.170   9.047 -0.7251 -0.2492 -0.7172
   41MOL0     O 5408   9.029   7.278   9.094  0.6410  0.4923 -0.7011
   41MOL0     C 5409   9.095   7.267   9.220 -0.0996 -0.2683  0.5044
   41MOL0     C 5410   9.166   7.400   9.245 -0.8794  0.4811 -0.3654
   41MOL0     C 5411   9.091   7.488   9.358 -0.2949 -0.5143  0.6355
   41MOL0     C 5412   9.198   7.588   9.426  0.1180 -0.0410 -0.1857
   41MOL0     C 5413   9.154   7.645   9.563 -0.0489  0.7563  0.3126
   41MOL0     C 5414   9.240   7.763   9.607  0.0454  0.1517  0.3330
   41MOL0     C 5415   9.371   7.713   9.666  0.7153 -1.1882 -0.1814
   41MOL0     C 5416   9.452   7.833   9.710  0.8723 -0.3046  0.0127
   41MOL0     N 5417   9.399   7.905   9.824  0.0246 -0.9396 -0.2582
   41MOL0     C 5418   9.342   8.034   9.819  0.6491 -0.5131  0.0016
   41MOL0     C 5419   9.343   8.089   9.936 -0.0698 -0.1539  0.0262
   41MOL0     C 5420   9.294   8.223   9.965 -0.5917  0.1733 -0.5671
   41MOL0     C 5421   9.219   8.241  10.094  0.5278  0.0230  0.6224
   41MOL0     C 5422   9.151   8.373  10.089  0.0593  0.3613 -0.0734
   41MOL0     C 5423   9.239   8.485  10.106 -0.1796 -0.3032 -0.6940
   41MOL0     O 5424   9.161   8.604  10.129 -0.1670 -0.2440  0.3344
   41MOL0     C 5425   9.236   8.721  10.148 -0.0472 -0.3159 -0.3343
   41MOL0     C 5426   9.161   8.838  10.197 -0.1262  0.6695  0.4651
   41MOL0     C 5427   9.228   8.961  10.211 -0.1492 -0.3527  0.1799
   41MOL0     C 5428   9.140   9.072  10.261  0.3535 -0.2847  0.2288
   41MOL0     C 5429   9.361   8.976  10.195  0.1115  0.7422  0.4217
   41MOL0     C 5430   9.450   9.094  10.218 -0.0534  0.3660  1.1003
   41MOL0     O 5431   9.579   9.070  10.247  0.1114  0.8311  0.1883
   41MOL0     C 5432   9.661   9.171  10.292  0.5856  1.3911  0.4308
   41MOL0     C 5433   9.676   9.291  10.220 -0.9065 -0.7556  0.0796
   41MOL0     C 5434   9.758   9.395  10.281  0.1433  0.1175 -0.7605
   41MOL0     C 5435   9.811   9.374  10.407 -0.0440 -0.0922 -0.8741
   41MOL0     O 5436   9.899   9.478  10.448  0.2635 -0.2502  0.1110
   41MOL0     C 5437   9.953   9.478  10.588  0.1894 -0.0903  0.5337
   41MOL0     C 5438  10.034   9.608  10.625  0.2610  0.2627  0.3773
   41MOL0     C 5439  10.022   9.668  10.773  0.6046  0.4202 -0.3596
   41MOL0     C 5440  10.153   9.714  10.827  0.3096 -0.7029 -0.1704
   41MOL0     C 5441  10.140   9.735  10.987 -0.4984  0.2631  0.0151
   41MOL0     C 5442  10.090   9.874  11.026 -0.0499 -0.1349 -0.1920
   41MOL0     C 5443  10.123   9.904  11.175  1.0537 -0.2994 -0.2745
   41MOL0     C 5444  10.278   9.934  11.188 -0.1609  0.0402  0.5724
   41MOL0    Cl 5445  10.389   9.786  11.209 -0.0924  0.2971  0.1702
   41MOL0     C 5446   9.788   9.258  10.475  0.5988 -0.4663 -1.3302
   41MOL0     C 5447   9.719   9.154  10.412  0.2719  0.6266 -0.2052
   41MOL0     O 5448   9.397   9.199  10.201  0.0915 -0.0123  0.5169
   41MOL0     C 5449   9.436   8.855  10.162  0.1759  0.1844  0.5909
   41MOL0     C 5450   9.371   8.735  10.132 -0.3880 -0.7046 -0.5605
   41MOL0     N 5451   9.391   7.993  10.024  0.7817  0.0641  0.1968
   41MOL0     N 5452   9.416   7.878   9.953 -0.2042  0.2101  0.5456
   41MOL0     C 5453   8.870   7.199   8.938 -0.2304 -0.1734 -0.8998
   41MOL0     C 5454   8.796   7.096   8.876  0.6235 -1.6082  0.4795
   41MOL0     C 5455   8.551   6.695   8.863  0.1001  0.3076 -0.3461
   41MOL0     C 5456   8.487   6.578   8.922 -0.7474 -0.4162 -0.0667
   41MOL0     C 5457   8.390   6.508   8.841  0.3412  0.2863  0.4208
   41MOL0     C 5458   8.366   6.544   8.704 -0.1791 -1.1775 -0.6900
   41MOL0     O 5459   8.268   6.488   8.634  0.5193 -0.0673  0.0121
   41MOL0     C 5460   8.153   6.576   8.639 -0.0205  0.4829 -0.1756
   41MOL0     C 5461   8.033   6.537   8.548 -0.4559  0.5283  0.2224
   41MOL0     C 5462   8.006   6.388   8.577  1.0930 -0.4238  0.0032
   41MOL0     C 5463   7.903   6.330   8.481 -0.2231  0.7109 -0.0599
   41MOL0     C 5464   7.949   6.346   8.343 -0.0294 -0.8168 -0.2577
   41MOL0     C 5465   7.984   6.347   8.219 -0.1073  0.2625  0.3094
   41MOL0     C 5466   8.437   6.656   8.654 -0.1634  0.0238 -0.6913
   41MOL0     C 5467   8.519   6.735   8.726  0.7910  0.5093 -0.1140
   41MOL0     H 5468   8.908   6.828   9.054 -1.3009 -0.7801 -2.6545
   41MOL0     H 5469   9.021   7.011   9.176  2.0443  0.2981 -1.1206
   41MOL0     H 5470   9.027   7.247   9.303 -0.4390 -1.6963 -0.0938
   41MOL0     H 5471   9.168   7.186   9.208  0.7137  0.6684 -1.2060
   41MOL0     H 5472   9.270   7.368   9.259 -1.4745 -1.2168  0.4439
   41MOL0     H 5473   9.171   7.468   9.159  1.8145  2.1887  0.9837
   41MOL0     H 5474   9.015   7.559   9.323 -0.3819 -0.7288  0.3823
   41MOL0     H 5475   9.061   7.424   9.442 -0.8771 -2.3799 -0.9111
   41MOL0     H 5476   9.295   7.540   9.444  0.7008  0.4243 -1.9206
   41MOL0     H 5477   9.236   7.666   9.359  1.4374 -1.8028 -1.5536
   41MOL0     H 5478   9.052   7.682   9.560 -1.3116 -2.3607  0.9129
   41MOL0     H 5479   9.155   7.562   9.634  0.8593 -1.6237 -2.3187
   41MOL0     H 5480   9.254   7.839   9.530 -1.6194  1.6448  1.4267
   41MOL0     H 5481   9.187   7.813   9.689 -0.9882  0.4898 -0.5269
   41MOL0     H 5482   9.348   7.643   9.747  4.1032 -0.5431  1.5057
   41MOL0     H 5483   9.427   7.662   9.587 -0.4674 -0.2600 -1.6722
   41MOL0     H 5484   9.476   7.911   9.638  0.9541 -0.3079  0.0357
   41MOL0     H 5485   9.547   7.785   9.736  1.9637  1.0329 -1.3232
   41MOL0     H 5486   9.305   8.090   9.734 -1.6416 -2.1494 -0.1597
   41MOL0     H 5487   9.381   8.290   9.969  0.6676 -1.4611  1.5249
   41MOL0     H 5488   9.240   8.259   9.877 -2.4773 -0.4424  0.2912
   41MOL0     H 5489   9.282   8.232  10.183  3.4898  0.4897 -1.2936
   41MOL0     H 5490   9.136   8.170  10.106 -0.8563  1.7806  1.8895
   41MOL0     H 5491   9.072   8.380  10.164 -0.2035  2.0179 -0.4749
   41MOL0     H 5492   9.097   8.388   9.995 -0.6482  1.0275  0.4325
   41MOL0     H 5493   9.313   8.494  10.027 -1.7156  0.2160 -2.1344
   41MOL0     H 5494   9.294   8.456  10.196 -0.6705 -0.1834 -0.3472
   41MOL0     H 5495   9.054   8.832  10.214 -0.5374  0.5470 -1.8436
   41MOL0     H 5496   9.048   9.030  10.301 -0.7904  0.7244 -1.2218
   41MOL0     H 5497   9.195   9.118  10.344  4.5324 -0.4057 -2.1520
   41MOL0     H 5498   9.111   9.150  10.190 -1.1140  0.3031  1.4353
   41MOL0     H 5499   9.637   9.302  10.119 -3.3645 -1.4162  0.8925
   41MOL0     H 5500   9.770   9.496  10.244 -2.7479  0.4945 -0.8730
   41MOL0     H 5501   9.864   9.487  10.651 -0.3329  4.0724 -0.5596
   41MOL0     H 5502  10.019   9.393  10.610  1.7967  0.8277 -0.5312
   41MOL0     H 5503  10.138   9.587  10.600  0.1376  1.1721 -0.9921
   41MOL0     H 5504   9.995   9.685  10.558  1.9654 -0.4884 -1.5806
   41MOL0     H 5505   9.976   9.596  10.841 -1.1784  0.1160 -1.8117
   41MOL0     H 5506   9.955   9.755  10.773  1.0861  1.1330  4.7354
   41MOL0     H 5507  10.236   9.644  10.814  1.1215  0.5159 -1.7087
   41MOL0     H 5508  10.179   9.811  10.786  0.5743 -1.3456 -1.5627
   41MOL0     H 5509  10.244   9.716  11.018 -0.2094  0.0724 -1.0268
   41MOL0     H 5510  10.082   9.651  11.026 -1.0868  1.2682  1.3820
   41MOL0     H 5511  10.141   9.947  10.963  1.1957  0.7095  1.6772
   41MOL0     H 5512   9.982   9.881  11.011  0.1316  0.2895 -1.3585
   41MOL0     H 5513  10.103   9.821  11.243  1.5886 -1.6658 -1.7414
   41MOL0     H 5514  10.061   9.987  11.211 -1.3719 -2.0456 -0.1576
   41MOL0     H 5515  10.300   9.999  11.273  3.5763  0.7001 -0.7266
   41MOL0     H 5516  10.313   9.976  11.093  2.3766 -0.5448  1.1704
   41MOL0     H 5517   9.805   9.259  10.583 -2.5091  0.8909 -0.7317
   41MOL0     H 5518   9.688   9.065  10.465  0.3770  0.2119 -0.8381
   41MOL0     H 5519   9.541   8.869  10.138  0.0209 -1.5298 -1.4458
   41MOL0     H 5520   9.431   8.648  10.110  3.1514  1.2955  0.3326
   41MOL0     H 5521   8.860   7.301   8.903 -0.2403  0.5182  1.0047
   41MOL0     H 5522   8.716   7.119   8.806 -0.2128 -0.3949  1.7906
   41MOL0     H 5523   8.504   6.556   9.027  1.0734 -2.3493 -0.6958
   41MOL0     H 5524   8.330   6.429   8.886 -0.6618  1.0840  0.5250
   41MOL0     H 5525   8.111   6.577   8.740  2.4159  1.2136  0.8980
   41MOL0     H 5526   8.178   6.681   8.625 -2.2488  0.9714 -0.8100
   41MOL0     H 5527   8.065   6.553   8.444 -2.4958  2.3423 -0.2154
   41MOL0     H 5528   7.940   6.594   8.562 -1.2559 -0.6970  0.0848
   41MOL0     H 5529   7.965   6.376   8.678  1.7294 -3.8906 -0.0214
   41MOL0     H 5530   8.095   6.325   8.570  2.3889  1.1573  1.5406
   41MOL0     H 5531   7.807   6.383   8.490  0.3053  1.4105  2.0799
   41MOL0     H 5532   7.891   6.223   8.498 -0.3325  0.9330  1.3773
   41MOL0     H 5533   8.037   6.356   8.126 -0.7855  0.5497 -0.0545
   41MOL0     H 5534   8.420   6.683   8.550 -0.8111  2.2348 -0.0539
   41MOL0     H 5535   8.577   6.816   8.683  1.6204  0.5856  1.0795
   42MOL0     O 5536   2.917   5.574   6.968 -0.1223 -1.0806 -0.1688
   42MOL0     C 5537   2.993   5.478   6.958 -0.5491  1.0521 -0.0634
   42MOL0     O 5538   2.957   5.355   6.906 -0.9000  0.4621 -0.5903
   42MOL0     C 5539   2.833   5.365   6.846  0.0719  0.0368 -0.0108
   42MOL0     C 5540   2.722   5.337   6.926  0.5633 -0.7270 -0.6062
   42MOL0     C 5541   2.594   5.347   6.873 -0.2050 -0.2323  0.1358
   42MOL0     C 5542   2.576   5.375   6.740 -0.0482  0.1504 -0.3155
   42MOL0     O 5543   2.451   5.361   6.677  0.4308 -0.1560  0.1375
   42MOL0     C 5544   2.359   5.269   6.727  0.0875  0.1754 -0.5615
   42MOL0     C 5545   2.272   5.207   6.611  0.4929 -0.2947  0.4967
   42MOL0     C 5546   2.169   5.291   6.551  0.5069  0.0352  0.2129
   42MOL0     C 5547   2.080   5.216   6.449  0.0309  0.3325  0.0127
   42MOL0     C 5548   1.961   5.289   6.399  0.6823  0.0961  0.5266
   42MOL0     C 5549   1.879   5.199   6.312 -0.0242 -0.2698 -0.7152
   42MOL0     C 5550   1.790   5.091   6.389  0.1060 -0.1497  0.3569
   42MOL0     C 5551   1.685   5.027   6.288 -0.1220 -0.5870 -1.0821
   42MOL0     N 5552   1.599   4.924   6.351 -0.3715 -0.3944  0.9377
   42MOL0     C 5553   1.543   4.816   6.293 -0.4376 -0.2456  0.0877
   42MOL0     C 5554   1.499   4.746   6.397 -0.4600 -0.1658  0.1338
   42MOL0     C 5555   1.407   4.629   6.375 -0.0532  0.3630  0.2591
   42MOL0     C 5556   1.270   4.657   6.425  0.8061  0.8192 -0.5290
   42MOL0     C 5557   1.162   4.541   6.391 -0.1719  0.0564  1.0496
   42MOL0     C 5558   1.198   4.403   6.446 -0.3159  0.6229 -0.8788
   42MOL0     O 5559   1.080   4.320   6.448 -0.6929 -0.3933  0.0985
   42MOL0     C 5560   1.044   4.261   6.327  0.1225  1.0193  0.7504
   42MOL0     C 5561   1.109   4.275   6.194 -0.4248  0.1268  0.6097
   42MOL0     C 5562   1.055   4.208   6.082  0.2549 -0.0366  0.4910
   42MOL0     C 5563   1.121   4.243   5.947 -0.3308 -1.5995 -0.2858
   42MOL0     C 5564   0.949   4.121   6.090 -0.5562  0.1974  0.7041
   42MOL0     C 5565   0.898   4.042   5.972  0.6369  0.1253 -0.0398
   42MOL0     O 5566   0.762   4.015   5.972  0.4376  0.0275  0.4053
   42MOL0     C 5567   0.722   3.888   5.933 -0.1062  0.2684 -0.0090
   42MOL0     C 5568   0.781   3.766   5.967  0.2255 -0.2013  0.5189
   42MOL0     C 5569   0.726   3.646   5.940  0.0640  0.1047  0.6505
   42MOL0     C 5570   0.598   3.641   5.881  0.7200  0.2662  0.2414
   42MOL0     O 5571   0.527   3.529   5.871 -0.4056  0.3388  0.6009
   42MOL0     C 5572   0.595   3.424   5.790  0.6464 -0.6424 -0.0438
   42MOL0     C 5573   0.503   3.305   5.774  1.2686  0.2633 -0.1848
   42MOL0     C 5574   0.390   3.322   5.669  0.9471 -0.1069 -0.1511
   42MOL0     C 5575   0.415   3.408   5.540  0.1127  0.0204 -0.0256
   42MOL0     C 5576   0.301   3.488   5.481  0.4029 -0.3196  0.0699
   42MOL0     C 5577   0.226   3.570   5.584 -0.7353  0.2508  1.0848
   42MOL0     C 5578   0.157   3.691   5.523 -0.9886 -0.7384  0.4407
   42MOL0     C 5579   0.016   3.663   5.474 -0.7229 -0.0722 -0.3238
   42MOL0    Cl 5580   0.023   3.565   5.328 -0.3179  0.1136 -0.0083
   42MOL0     C 5581   0.523   3.761   5.858  0.1166 -0.3989  0.5481
   42MOL0     C 5582   0.593   3.886   5.885  0.5748  0.9727 -0.1584
   42MOL0     O 5583   0.980   3.980   5.905  0.2210 -0.3700 -0.2645
   42MOL0     C 5584   0.878   4.114   6.210 -0.3725  0.3279  1.0005
   42MOL0     C 5585   0.928   4.178   6.324 -0.0540 -0.8589  0.4771
   42MOL0     N 5586   1.536   4.800   6.519 -0.1806 -1.3401  0.1165
   42MOL0     N 5587   1.584   4.919   6.485 -0.4939 -0.1767 -0.5104
   42MOL0     C 5588   2.684   5.388   6.658  0.1899  0.3613 -0.2350
   42MOL0     C 5589   2.818   5.396   6.705  0.1089  0.0250  0.0553
   42MOL0     C 5590   3.135   5.511   6.985  0.7381 -0.2071  0.5246
   42MOL0     C 5591   3.239   5.432   6.941 -0.5978  0.6517 -0.9289
   42MOL0     C 5592   3.377   5.458   6.967 -0.0725  0.2692  0.0530
   42MOL0     C 5593   3.410   5.568   7.054 -0.1130 -0.2810 -0.3530
   42MOL0     O 5594   3.543   5.584   7.086 -0.0890  0.2987  0.4959
   42MOL0     C 5595   3.578   5.636   7.208  0.0643  0.4516 -0.6093
   42MOL0     C 5596   3.648   5.777   7.200 -0.8316 -0.0086  0.8202
   42MOL0     C 5597   3.733   5.809   7.330  0.2775 -0.4451 -0.9729
   42MOL0     C 5598   3.783   5.957   7.334  0.5622  0.7482  0.0005
   42MOL0     C 5599   3.879   5.986   7.233 -0.0314  0.8716  1.2191
   42MOL0     C 5600   3.938   6.010   7.124 -0.6486  0.3886 -0.4573
   42MOL0     C 5601   3.305   5.660   7.087 -0.1244 -0.1635  0.7078
   42MOL0     C 5602   3.166   5.624   7.061  0.4617  0.0041  0.3379
   42MOL0     H 5603   2.714   5.323   7.033 -2.5359  0.6664 -0.5614
   42MOL0     H 5604   2.508   5.333   6.937 -0.7302  2.0414  0.0124
   42MOL0     H 5605   2.399   5.186   6.786 -2.4886  0.0255  1.1010
   42MOL0     H 5606   2.289   5.329   6.785  0.9673  3.6315 -2.7575
   42MOL0     H 5607   2.340   5.164   6.536  1.4154 -0.2011  1.2607
   42MOL0     H 5608   2.217   5.122   6.652 -2.5635  0.5565 -1.5251
   42MOL0     H 5609   2.108   5.332   6.632  1.6718  1.5204  0.3774
   42MOL0     H 5610   2.214   5.373   6.494 -1.7720 -0.3512 -2.3707
   42MOL0     H 5611   2.138   5.196   6.358  0.4014 -2.8514  0.8277
   42MOL0     H 5612   2.062   5.114   6.484 -1.1908  1.1737  2.0042
   42MOL0     H 5613   1.898   5.327   6.480  0.5253  0.3638  0.2808
   42MOL0     H 5614   1.998   5.375   6.343 -0.6099  0.1534 -0.2720
   42MOL0     H 5615   1.813   5.269   6.260  2.8053  3.4603  0.2155
   42MOL0     H 5616   1.946   5.158   6.236  0.1622  0.4233 -0.9325
   42MOL0     H 5617   1.850   5.012   6.435 -2.0494 -0.3991  2.9933
   42MOL0     H 5618   1.735   5.141   6.470 -0.3095 -1.4072  0.8829
   42MOL0     H 5619   1.739   4.987   6.202 -0.3033  0.5398 -1.7392
   42MOL0     H 5620   1.630   5.113   6.249  1.4815  1.5824  1.0866
   42MOL0     H 5621   1.527   4.802   6.187 -0.9681 -1.3170  0.2961
   42MOL0     H 5622   1.392   4.606   6.270 -2.2931  1.3801  0.2868
   42MOL0     H 5623   1.454   4.544   6.425 -0.5637 -0.6484 -0.9248
   42MOL0     H 5624   1.242   4.742   6.363  3.1371  0.8935 -1.5946
   42MOL0     H 5625   1.248   4.670   6.532 -4.0233 -0.8930 -1.0675
   42MOL0     H 5626   1.154   4.531   6.283  2.0890 -1.1242  0.9178
   42MOL0     H 5627   1.069   4.572   6.439 -0.4210 -0.3116  0.8026
   42MOL0     H 5628   1.251   4.397   6.542 -2.8302  1.5909  0.6825
   42MOL0     H 5629   1.275   4.371   6.375 -0.8103 -1.5844 -0.4999
   42MOL0     H 5630   1.190   4.346   6.181 -3.1418  2.9206 -3.5213
   42MOL0     H 5631   1.057   4.239   5.859  3.6434 -2.5971 -3.3967
   42MOL0     H 5632   1.158   4.346   5.951  0.1196 -1.7820  1.7759
   42MOL0     H 5633   1.200   4.171   5.922 -0.1350 -0.7781 -2.1899
   42MOL0     H 5634   0.873   3.770   6.024  1.0496  2.9659 -0.7943
   42MOL0     H 5635   0.771   3.548   5.959  1.4372  0.5196 -0.3483
   42MOL0     H 5636   0.618   3.463   5.691 -2.9279 -0.6225 -1.0233
   42MOL0     H 5637   0.684   3.386   5.841 -0.0600 -1.6488  0.4812
   42MOL0     H 5638   0.568   3.222   5.742  0.2667  0.1667 -2.1511
   42MOL0     H 5639   0.454   3.272   5.866  2.1938 -0.9000 -0.0808
   42MOL0     H 5640   0.304   3.367   5.718 -1.0487 -0.0378 -3.4278
   42MOL0     H 5641   0.360   3.225   5.629  3.3763 -0.8071 -0.4617
   42MOL0     H 5642   0.496   3.481   5.542 -1.5973  2.1586 -2.3336
   42MOL0     H 5643   0.439   3.331   5.467 -1.9954  0.4946 -1.3078
   42MOL0     H 5644   0.228   3.416   5.444  0.4532  0.7214 -2.2200
   42MOL0     H 5645   0.338   3.546   5.396  1.9334  1.2211  1.7128
   42MOL0     H 5646   0.166   3.510   5.653  0.2702 -1.1873  0.7574
   42MOL0     H 5647   0.304   3.612   5.649  1.2683 -1.8249  0.1993
   42MOL0     H 5648   0.223   3.743   5.453 -0.9529 -2.5498 -0.9471
   42MOL0     H 5649   0.143   3.763   5.605  1.5772  0.6747 -0.2624
   42MOL0     H 5650  -0.036   3.755   5.448  0.1888  0.8517  1.0417
   42MOL0     H 5651  -0.034   3.604   5.551  1.4572 -0.2238  1.0616
   42MOL0     H 5652   0.428   3.764   5.807  0.8803  0.3525 -0.8990
   42MOL0     H 5653   0.541   3.979   5.863 -1.0729 -0.0485 -0.7795
   42MOL0     H 5654   0.786   4.058   6.218 -0.7276  0.8430  0.5908
   42MOL0     H 5655   0.885   4.164   6.423  0.8914 -2.6415  0.6690
   42MOL0     H 5656   2.663   5.413   6.555  0.4950  0.4693 -0.2721
   42MOL0     H 5657   2.897   5.438   6.645  0.3060  1.2492  1.1363
   42MOL0     H 5658   3.209   5.353   6.874 -0.6839  0.5211 -0.7385
   42MOL0     H 5659   3.458   5.404   6.920 -1.1211  0.0807 -1.6286
   42MOL0     H 5660   3.498   5.653   7.280 -0.5402  3.0076 -1.7711
   42MOL0     H 5661   3.647   5.564   7.253 -0.4074  0.4773  0.1778
   42MOL0     H 5662   3.567   5.849   7.186 -1.9761 -1.6013 -1.4477
   42MOL0     H 5663   3.702   5.777   7.105 -0.7907  0.2560  0.8441
   42MOL0     H 5664   3.826   5.752   7.341 -0.7217 -1.9796  0.0102
   42MOL0     H 5665   3.670   5.780   7.414 -1.6720  2.4520 -1.3078
   42MOL0     H 5666   3.820   5.971   7.436  0.5822  0.6717  0.0044
   42MOL0     H 5667   3.699   6.026   7.321 -0.1772 -0.2561 -0.6764
   42MOL0     H 5668   3.981   6.050   7.034 -3.3957  2.6495 -0.9032
   42MOL0     H 5669   3.338   5.753   7.133 -0.9015  2.2643 -3.1400
   42MOL0     H 5670   3.089   5.690   7.099  0.3940 -0.1071  0.3937
   43MOL0     O 5671   9.375  10.897  10.463  0.2025 -0.9509  0.2885
   43MOL0     C 5672   9.263  10.918  10.423 -0.2848  1.4301 -0.2946
   43MOL0     O 5673   9.234  10.964  10.298  0.2127 -0.1482 -0.7300
   43MOL0     C 5674   9.339  10.969  10.211 -0.6495 -0.0962 -0.0703
   43MOL0     C 5675   9.387  11.091  10.163 -0.7116 -0.6338  0.0712
   43MOL0     C 5676   9.504  11.093  10.084 -0.3653 -0.7019  0.7123
   43MOL0     C 5677   9.582  10.984  10.061  0.4537  1.0769  0.3925
   43MOL0     O 5678   9.690  10.998   9.975 -0.7324  0.7103 -0.0686
   43MOL0     C 5679   9.790  11.095  10.015 -0.4453  0.3666  0.3651
   43MOL0     C 5680   9.912  11.082   9.926 -0.0082 -0.2641 -0.2274
   43MOL0     C 5681  10.039  11.143   9.979 -0.5054  0.0778 -0.2641
   43MOL0     C 5682  10.022  11.292  10.021  0.4046 -0.2818 -0.3047
   43MOL0     C 5683  10.150  11.338  10.096  0.3985 -0.1654 -0.3527
   43MOL0     C 5684  10.138  11.475  10.161  0.1419 -0.2638 -0.3369
   43MOL0     C 5685  10.221  11.486  10.295  0.0676 -0.1041 -0.2091
   43MOL0     C 5686  10.183  11.613  10.371  0.2565  0.8486  0.5827
   43MOL0     N 5687  10.275  11.611  10.482 -0.1162  0.2296  0.4906
   43MOL0     C 5688  10.259  11.544  10.594  0.2187  0.5820  0.1584
   43MOL0     C 5689  10.341  11.599  10.683 -0.6310  0.4394  0.0789
   43MOL0     C 5690  10.350  11.568  10.834  0.6435  1.1213  0.2603
   43MOL0     C 5691  10.285  11.435  10.878  0.3478  0.2604 -0.3243
   43MOL0     C 5692  10.343  11.383  11.012 -0.5752 -1.1985  0.2550
   43MOL0     C 5693  10.285  11.254  11.067 -0.0993  0.5176 -0.1559
   43MOL0     O 5694  10.175  11.274  11.151  0.2910  0.3936 -0.1436
   43MOL0     C 5695  10.109  11.163  11.199 -0.0102 -0.6559  0.0208
   43MOL0     C 5696  10.110  11.034  11.136 -0.7854 -0.4632 -0.1295
   43MOL0     C 5697  10.022  10.934  11.178 -0.3734 -0.0574 -0.5549
   43MOL0     C 5698  10.040  10.796  11.115  0.8886 -0.0620  0.2032
   43MOL0     C 5699   9.919  10.967  11.272 -0.6983  1.3531 -0.0907
   43MOL0     C 5700   9.824  10.866  11.328 -1.1652 -0.0943 -0.2989
   43MOL0     O 5701   9.765  10.788  11.234  0.6592 -0.2034  0.5872
   43MOL0     C 5702   9.660  10.701  11.263 -0.3439 -0.7905  0.4526
   43MOL0     C 5703   9.566  10.716  11.366  0.0019  0.5410  1.1200
   43MOL0     C 5704   9.464  10.624  11.375  0.4736  0.1639 -0.3702
   43MOL0     C 5705   9.457  10.507  11.297 -0.3650 -0.1120  0.0335
   43MOL0     O 5706   9.369  10.406  11.331  0.2273 -0.3620 -0.3352
   43MOL0     C 5707   9.350  10.308  11.229  0.1134 -0.2815 -0.3855
   43MOL0     C 5708   9.213  10.256  11.262 -0.0383 -0.3661 -0.2626
   43MOL0     C 5709   9.203  10.121  11.183 -1.0028 -0.2071 -0.3877
   43MOL0     C 5710   9.060  10.066  11.230 -0.3738  0.0057 -0.1046
   43MOL0     C 5711   9.031   9.950  11.137  0.1951 -0.7914 -1.0336
   43MOL0     C 5712   8.890   9.904  11.187  0.0950  0.4552  1.0155
   43MOL0     C 5713   8.824   9.813  11.083 -0.5561 -0.3262 -0.1851
   43MOL0     C 5714   8.693   9.768  11.147  1.4159  0.5451  0.1310
   43MOL0    Cl 5715   8.714   9.619  11.250 -0.2555  0.0301  0.0495
   43MOL0     C 5716   9.548  10.495  11.185 -0.3240 -0.2473 -0.2855
   43MOL0     C 5717   9.644  10.590  11.173 -1.0020 -0.5111  1.7141
   43MOL0     O 5718   9.819  10.850  11.455 -0.4330 -0.1328  0.2466
   43MOL0     C 5719   9.914  11.098  11.326  0.2961  0.3280  0.3509
   43MOL0     C 5720  10.004  11.193  11.282 -0.7287 -0.2665  0.1740
   43MOL0     N 5721  10.420  11.695  10.623 -0.4752 -0.2568  0.2297
   43MOL0     N 5722  10.377  11.703  10.504  0.4019 -0.4949  0.2800
   43MOL0     C 5723   9.537  10.865  10.100 -0.4436 -0.2371 -0.0449
   43MOL0     C 5724   9.417  10.854  10.172 -0.0941  0.2598 -0.6782
   43MOL0     C 5725   9.157  10.878  10.519  0.1352  0.1469  0.7254
   43MOL0     C 5726   9.184  10.800  10.635  0.1798  0.1376  0.3147
   43MOL0     C 5727   9.076  10.762  10.714 -0.4518 -0.5818 -0.1456
   43MOL0     C 5728   8.945  10.803  10.691  0.1097  0.7263 -0.3698
   43MOL0     O 5729   8.850  10.758  10.787 -0.1675  0.3080  0.6069
   43MOL0     C 5730   8.712  10.794  10.763 -0.3941 -0.2373 -0.4087
   43MOL0     C 5731   8.616  10.747  10.870 -0.4036 -0.5936 -0.8952
   43MOL0     C 5732   8.469  10.737  10.837 -0.1734  0.3167 -0.2169
   43MOL0     C 5733   8.387  10.667  10.950  0.8534 -0.3408  0.2272
   43MOL0     C 5734   8.243  10.710  10.943  0.2942  0.3444  0.1542
   43MOL0     C 5735   8.126  10.739  10.938 -0.2332  0.3172  0.5040
   43MOL0     C 5736   8.919  10.872  10.572  0.1792 -0.0013  0.0850
   43MOL0     C 5737   9.021  10.911  10.487  0.2143  1.0337 -0.7680
   43MOL0     H 5738   9.329  11.183  10.167 -3.0205 -1.9840 -0.6574
   43MOL0     H 5739   9.519  11.195  10.049 -2.0753 -0.5629  0.3358
   43MOL0     H 5740   9.755  11.198  10.016  2.8137  1.5904  2.6285
   43MOL0     H 5741   9.813  11.074  10.120  0.2430  1.9227  0.5428
   43MOL0     H 5742   9.946  10.981   9.898 -1.8608 -0.8141 -0.6098
   43MOL0     H 5743   9.888  11.123   9.827  1.3392 -2.4516 -1.5525
   43MOL0     H 5744  10.091  11.087  10.058  1.5242  0.2300 -1.4134
   43MOL0     H 5745  10.116  11.135   9.902  1.6407 -1.9177  1.9000
   43MOL0     H 5746  10.023  11.360   9.935 -0.0893 -1.5931 -1.3876
   43MOL0     H 5747   9.929  11.314  10.074  0.5514  1.4855 -0.7063
   43MOL0     H 5748  10.168  11.255  10.164 -4.4113 -0.8619  0.4690
   43MOL0     H 5749  10.236  11.343  10.028  3.1804 -0.7765  2.8663
   43MOL0     H 5750  10.165  11.563  10.102 -1.4359  2.4867  2.7037
   43MOL0     H 5751  10.034  11.491  10.191 -1.2426  0.4632 -4.7894
   43MOL0     H 5752  10.197  11.397  10.353  1.6952 -0.1600  0.4366
   43MOL0     H 5753  10.328  11.479  10.272 -0.2090 -2.2074 -1.0853
   43MOL0     H 5754  10.080  11.602  10.405  0.2720 -0.8698  0.1666
   43MOL0     H 5755  10.197  11.709  10.319 -1.0946  1.3303  1.0462
   43MOL0     H 5756  10.198  11.457  10.617  0.7136 -0.0129 -0.7272
   43MOL0     H 5757  10.457  11.564  10.853  1.5051 -1.3584 -3.7846
   43MOL0     H 5758  10.306  11.650  10.892 -2.1923  0.5424 -0.9030
   43MOL0     H 5759  10.311  11.352  10.811  0.7021 -1.7019  2.0806
   43MOL0     H 5760  10.179  11.459  10.871 -0.1015  1.6113  5.7165
   43MOL0     H 5761  10.323  11.456  11.091  2.3308 -1.0262  0.9503
   43MOL0     H 5762  10.451  11.371  11.004 -0.3858  0.5241  0.0188
   43MOL0     H 5763  10.368  11.204  11.118 -0.4565  1.3743  1.3160
   43MOL0     H 5764  10.244  11.197  10.983 -1.7513 -0.3228  1.1536
   43MOL0     H 5765  10.193  11.007  11.070  1.3497  3.0070  0.8684
   43MOL0     H 5766  10.030  10.706  11.177  0.3314 -0.7284 -0.8220
   43MOL0     H 5767   9.963  10.772  11.041  2.4103 -2.1966 -0.8036
   43MOL0     H 5768  10.125  10.787  11.047  1.1016  0.2632  0.4208
   43MOL0     H 5769   9.569  10.806  11.426 -1.1474  1.9924 -0.9068
   43MOL0     H 5770   9.392  10.640  11.455 -1.7010  0.3761 -2.2829
   43MOL0     H 5771   9.341  10.348  11.128  1.0199  2.9915  0.7237
   43MOL0     H 5772   9.419  10.223  11.231  0.6042  0.1190 -0.0951
   43MOL0     H 5773   9.210  10.248  11.371 -1.3341 -0.5114 -0.2920
   43MOL0     H 5774   9.135  10.327  11.236  0.5226 -0.8887 -3.9306
   43MOL0     H 5775   9.282  10.058  11.226  0.8459  0.2777 -2.8838
   43MOL0     H 5776   9.211  10.123  11.074 -2.3609 -0.3892 -0.5134
   43MOL0     H 5777   9.049  10.038  11.335 -4.8967 -0.0389 -0.3946
   43MOL0     H 5778   8.979  10.140  11.227 -0.5707  0.0371  3.0720
   43MOL0     H 5779   9.112   9.878  11.148  1.1041  0.3706  0.3713
   43MOL0     H 5780   9.022   9.984  11.034 -0.3532 -1.6763 -1.2828
   43MOL0     H 5781   8.912   9.847  11.277  1.9407 -1.5048 -0.5746
   43MOL0     H 5782   8.821   9.986  11.210 -2.9960 -1.4402 -0.8372
   43MOL0     H 5783   8.889   9.726  11.078 -0.5088 -0.3502  0.6792
   43MOL0     H 5784   8.809   9.872  10.992  2.4632  0.3340 -0.3434
   43MOL0     H 5785   8.617   9.747  11.071 -0.7819 -1.1150  2.5692
   43MOL0     H 5786   8.650   9.845  11.212  0.2613  1.5673 -1.7729
   43MOL0     H 5787   9.554  10.405  11.125  3.0036 -1.3222  1.4843
   43MOL0     H 5788   9.710  10.568  11.090 -3.1751  0.9766 -0.5688
   43MOL0     H 5789   9.849  11.130  11.407  0.1573  2.5082 -0.5547
   43MOL0     H 5790   9.983  11.289  11.329 -0.7842 -0.6044  0.8453
   43MOL0     H 5791   9.585  10.775  10.064  0.8568  0.9534 -1.4254
   43MOL0     H 5792   9.381  10.757  10.205 -0.4992  1.0313  1.2723
   43MOL0     H 5793   9.278  10.749  10.654  2.2879  2.7763 -2.2430
   43MOL0     H 5794   9.094  10.697  10.799  0.1237  2.0615  1.8924
   43MOL0     H 5795   8.696  10.900  10.740 -0.1383 -0.6867 -2.8704
   43MOL0     H 5796   8.689  10.738  10.672 -2.7213 -1.1426  0.6611
   43MOL0     H 5797   8.647  10.822  10.943  2.8804 -1.2458 -1.4467
   43MOL0     H 5798   8.649  10.649  10.904 -0.3653  0.0776  1.1079
   43MOL0     H 5799   8.452  10.676  10.748  0.9195 -1.9195  1.0248
   43MOL0     H 5800   8.438  10.840  10.817 -3.5474 -1.0387 -2.9526
   43MOL0     H 5801   8.428  10.674  11.051  1.3387  1.9568 -0.0652
   43MOL0     H 5802   8.383  10.563  10.919 -0.5153 -0.4810  0.7950
   43MOL0     H 5803   8.020  10.742  10.923 -0.2952  0.4931  0.9578
   43MOL0     H 5804   8.815  10.886  10.545 -0.0237 -2.8274 -0.8372
   43MOL0     H 5805   8.994  10.979  10.406  0.7944  0.3183 -1.5783
   44MOL0     O 5806   0.828   9.617  10.813 -0.4707  0.5010  0.1384
   44MOL0     C 5807   0.884   9.624  10.928  0.4728  0.0508  0.0422
   44MOL0     O 5808   0.813   9.657  11.051  0.4940  0.4750  0.2594
   44MOL0     C 5809   0.683   9.695  11.031 -0.2464 -0.6022 -0.1593
   44MOL0     C 5810   0.591   9.595  11.019 -0.7190  0.1649  0.0667
   44MOL0     C 5811   0.456   9.631  11.007  1.0068 -0.2409  0.7271
   44MOL0     C 5812   0.417   9.764  11.002 -0.9756  0.5934 -0.5697
   44MOL0     O 5813   0.288   9.793  10.978  0.1637 -0.7565  0.3328
   44MOL0     C 5814   0.247   9.866  10.863  0.1818  0.2465 -0.0248
   44MOL0     C 5815   0.269  10.017  10.888 -0.3514  0.2288  0.1902
   44MOL0     C 5816   0.210  10.069  11.025  0.5514  0.3907 -0.3115
   44MOL0     C 5817   0.220  10.224  11.018  0.2775  0.8462 -0.1494
   44MOL0     C 5818   0.103  10.295  11.088 -0.3119  0.4200 -1.0599
   44MOL0     C 5819   0.080  10.245  11.236 -0.6698  0.1673  1.1316
   44MOL0     C 5820  -0.029  10.328  11.306  0.4616 -0.6135  0.1758
   44MOL0     C 5821  -0.002  10.474  11.319 -0.6701 -0.0300 -0.4376
   44MOL0     N 5822   0.133  10.522  11.367 -0.6869 -0.6713 -0.0168
   44MOL0     C 5823   0.197  10.499  11.489 -0.2411 -1.1443  1.0212
   44MOL0     C 5824   0.309  10.573  11.477  0.2089  0.2179  1.2345
   44MOL0     C 5825   0.412  10.591  11.580  0.6092  0.1449  0.4301
   44MOL0     C 5826   0.537  10.502  11.534 -0.0822 -0.0932  0.7879
   44MOL0     C 5827   0.665  10.501  11.623  0.3256 -0.4626 -1.4292
   44MOL0     C 5828   0.778  10.425  11.556  0.0242 -0.5308 -0.3817
   44MOL0     O 5829   0.897  10.518  11.560 -0.0984 -0.8146 -0.5881
   44MOL0     C 5830   1.027  10.470  11.529  0.2810  0.4354  0.1901
   44MOL0     C 5831   1.058  10.343  11.484 -0.3128  0.2268 -0.6029
   44MOL0     C 5832   1.184  10.297  11.478 -0.4404  0.1283 -0.1236
   44MOL0     C 5833   1.216  10.156  11.438 -0.1144 -0.0035  1.1260
   44MOL0     C 5834   1.288  10.389  11.517 -0.2328 -0.5658  0.4742
   44MOL0     C 5835   1.438  10.365  11.498 -0.0245 -0.1847 -0.1725
   44MOL0     O 5836   1.521  10.455  11.566  0.0750 -0.2899 -0.2472
   44MOL0     C 5837   1.659  10.437  11.556 -0.4402 -0.8889 -1.3013
   44MOL0     C 5838   1.723  10.351  11.641 -0.5204  0.4370 -0.0687
   44MOL0     C 5839   1.865  10.337  11.625  0.1980 -0.4284  0.2779
   44MOL0     C 5840   1.944  10.408  11.533  0.3223 -0.0265  0.8637
   44MOL0     O 5841   2.080  10.404  11.548  0.6207  0.5349  0.1836
   44MOL0     C 5842   2.152  10.374  11.434 -0.1880 -0.4141 -0.6854
   44MOL0     C 5843   2.246  10.490  11.394 -0.1406  0.1077 -0.2024
   44MOL0     C 5844   2.358  10.439  11.309 -1.2178 -1.0292  0.0421
   44MOL0     C 5845   2.490  10.523  11.345  0.4035 -0.3510  0.0877
   44MOL0     C 5846   2.619  10.454  11.273  0.1550  0.3103  0.2854
   44MOL0     C 5847   2.688  10.555  11.167 -0.0262 -0.4753 -0.3840
   44MOL0     C 5848   2.752  10.674  11.236 -0.4643  0.0725  0.1881
   44MOL0     C 5849   2.857  10.635  11.352  0.6627 -0.0555  0.3489
   44MOL0    Cl 5850   2.986  10.557  11.269  0.4092  0.3739 -0.5194
   44MOL0     C 5851   1.887  10.502  11.451  0.0652 -0.5558 -0.4380
   44MOL0     C 5852   1.742  10.520  11.466 -0.3939 -0.8686  0.2522
   44MOL0     O 5853   1.479  10.281  11.420 -0.4022 -0.3513  0.0035
   44MOL0     C 5854   1.252  10.519  11.557  0.3710  0.4918  0.6675
   44MOL0     C 5855   1.123  10.563  11.564 -0.0623 -0.2967  0.2156
   44MOL0     N 5856   0.316  10.640  11.355 -0.3088 -0.1292 -0.0599
   44MOL0     N 5857   0.212  10.601  11.289  0.0147 -1.0758 -0.6422
   44MOL0     C 5858   0.511   9.864  11.021  0.3846  0.2717 -0.2653
   44MOL0     C 5859   0.647   9.830  11.032 -0.0022  0.2224 -0.3260
   44MOL0     C 5860   1.017   9.583  10.949  0.3651  0.2734  0.8463
   44MOL0     C 5861   1.095   9.650  11.045 -0.5978  0.4274  0.9114
   44MOL0     C 5862   1.226   9.607  11.065 -0.5540  0.3444 -0.0318
   44MOL0     C 5863   1.276   9.494  10.984  0.3203  0.2408  0.5605
   44MOL0     O 5864   1.405   9.439  11.002 -0.2044 -0.6785 -0.0311
   44MOL0     C 5865   1.482   9.458  11.116  0.3369  0.4584 -1.5487
   44MOL0     C 5866   1.568   9.587  11.120  0.2810 -0.5370  0.2779
   44MOL0     C 5867   1.628   9.612  11.262  1.0183 -0.2200  0.1994
   44MOL0     C 5868   1.728   9.507  11.306 -0.1462 -0.4111  1.1435
   44MOL0     C 5869   1.845   9.580  11.354 -0.4754  0.1738  0.0178
   44MOL0     C 5870   1.936   9.660  11.382 -0.0420  0.3448  1.1281
   44MOL0     C 5871   1.200   9.447  10.876 -0.0876  0.7358 -0.1200
   44MOL0     C 5872   1.072   9.489  10.860  0.3712 -0.3231  0.3014
   44MOL0     H 5873   0.633   9.495  11.018 -1.9818 -0.4012 -1.4890
   44MOL0     H 5874   0.386   9.549  11.014  1.0121 -0.5405 -1.9923
   44MOL0     H 5875   0.308   9.838  10.776 -0.6607 -1.2233 -0.1762
   44MOL0     H 5876   0.140   9.849  10.845  0.1835  0.8343 -0.6345
   44MOL0     H 5877   0.372  10.047  10.865  0.0274 -1.6053 -0.7610
   44MOL0     H 5878   0.207  10.057  10.807  2.1944 -1.2159 -2.6887
   44MOL0     H 5879   0.106  10.034  11.030  0.6279 -0.3073 -2.6110
   44MOL0     H 5880   0.264  10.023  11.109  1.6747  0.5533 -0.9232
   44MOL0     H 5881   0.320  10.250  11.054 -0.0108  1.5130  0.1932
   44MOL0     H 5882   0.215  10.270  10.919 -0.0859  0.0193 -0.5224
   44MOL0     H 5883   0.124  10.402  11.082  2.2042  0.0217 -0.3581
   44MOL0     H 5884   0.013  10.287  11.026 -0.8015 -1.5255 -0.1909
   44MOL0     H 5885   0.042  10.145  11.215 -2.7505  0.7773  1.7747
   44MOL0     H 5886   0.173  10.233  11.292 -1.2292  1.2187  2.3438
   44MOL0     H 5887  -0.121  10.313  11.248  0.7887  1.3102 -0.8920
   44MOL0     H 5888  -0.040  10.278  11.403 -1.4907 -1.1492 -0.2763
   44MOL0     H 5889  -0.076  10.528  11.378 -0.6730 -0.0753 -0.3998
   44MOL0     H 5890  -0.019  10.513  11.218  1.2940  0.2573 -0.6867
   44MOL0     H 5891   0.153  10.443  11.571 -1.0691 -0.8847  0.7625
   44MOL0     H 5892   0.451  10.693  11.584  1.0550 -0.0430  1.0299
   44MOL0     H 5893   0.384  10.560  11.681 -0.9336  3.5572  1.1952
   44MOL0     H 5894   0.563  10.530  11.432 -2.3977 -0.7002 -0.0239
   44MOL0     H 5895   0.500  10.401  11.516  1.5226 -0.3630 -1.3380
   44MOL0     H 5896   0.647  10.439  11.711  0.5145  0.4079 -0.7680
   44MOL0     H 5897   0.686  10.602  11.659 -2.6062 -0.4617  0.6290
   44MOL0     H 5898   0.750  10.409  11.451  0.4447  1.2222 -0.7900
   44MOL0     H 5899   0.798  10.328  11.602  1.3373 -0.0544  0.0860
   44MOL0     H 5900   0.972  10.277  11.476 -1.3647  1.4619  0.0910
   44MOL0     H 5901   1.282  10.100  11.505  2.5945  2.2772  0.5780
   44MOL0     H 5902   1.126  10.104  11.407  1.1060 -0.7654 -1.4048
   44MOL0     H 5903   1.258  10.156  11.337  0.7036 -1.4962  1.4453
   44MOL0     H 5904   1.661  10.284  11.701  2.3023 -1.4911  0.8916
   44MOL0     H 5905   1.909  10.263  11.691  1.2661 -2.0927 -2.1491
   44MOL0     H 5906   2.206  10.286  11.470 -0.9576 -0.6061  0.0327
   44MOL0     H 5907   2.083  10.353  11.351 -1.9781 -1.4982  0.9938
   44MOL0     H 5908   2.179  10.566  11.352 -1.4864  0.0031  1.6534
   44MOL0     H 5909   2.280  10.532  11.489 -0.6611 -2.0637  0.9899
   44MOL0     H 5910   2.338  10.452  11.202  4.7152  2.5788 -1.0925
   44MOL0     H 5911   2.382  10.333  11.325  2.4748 -0.2040  0.7322
   44MOL0     H 5912   2.467  10.620  11.302 -4.9663 -0.6463  1.5101
   44MOL0     H 5913   2.511  10.548  11.449  3.6280  1.8041 -0.9372
   44MOL0     H 5914   2.591  10.363  11.219  0.6868 -0.1288  0.7363
   44MOL0     H 5915   2.678  10.417  11.357 -1.4878 -3.0298  0.1330
   44MOL0     H 5916   2.766  10.507  11.107  0.3169  0.2377 -0.5239
   44MOL0     H 5917   2.617  10.592  11.092  1.2102 -2.2389 -2.5615
   44MOL0     H 5918   2.677  10.736  11.285 -0.0158 -0.4461  1.5879
   44MOL0     H 5919   2.805  10.738  11.165 -0.2985  0.0147  0.2600
   44MOL0     H 5920   2.810  10.578  11.433  2.9147 -0.9446  1.0978
   44MOL0     H 5921   2.911  10.724  11.386  0.8370 -0.4674  1.1655
   44MOL0     H 5922   1.946  10.569  11.390 -0.7159  1.6539  1.1066
   44MOL0     H 5923   1.684  10.593  11.411 -0.4108 -0.4025  0.8724
   44MOL0     H 5924   1.329  10.587  11.592  3.0201 -0.8188 -2.1990
   44MOL0     H 5925   1.100  10.657  11.613  0.9555 -0.3471  0.8232
   44MOL0     H 5926   0.478   9.967  11.036 -2.1380 -0.6844  1.3648
   44MOL0     H 5927   0.717   9.908  11.060 -0.4957 -0.4389  3.1794
   44MOL0     H 5928   1.047   9.723  11.108 -0.3885  2.9768 -1.6536
   44MOL0     H 5929   1.283   9.654  11.146  2.7915 -3.6281  0.2639
   44MOL0     H 5930   1.409   9.464  11.198  0.6463 -4.4701 -0.5932
   44MOL0     H 5931   1.539   9.366  11.129  0.0223 -0.0693 -3.5487
   44MOL0     H 5932   1.509   9.670  11.080 -0.2337 -1.4209 -0.8566
   44MOL0     H 5933   1.654   9.583  11.053  2.0801  1.1474  2.3251
   44MOL0     H 5934   1.541   9.611  11.329  0.6942 -2.6311 -0.1569
   44MOL0     H 5935   1.671   9.711  11.279 -2.1598  1.3457 -0.1106
   44MOL0     H 5936   1.755   9.435  11.228  0.8550  0.4748  0.6431
   44MOL0     H 5937   1.699   9.455  11.398  1.3283  0.1197  1.9565
   44MOL0     H 5938   2.015   9.729  11.401  3.2108 -3.0359  1.1437
   44MOL0     H 5939   1.242   9.380  10.802  0.3930  2.3396 -1.3814
   44MOL0     H 5940   1.014   9.447  10.778 -1.7076 -1.6366  2.3024
   45MOL0     O 5941   9.432   1.275   6.619 -0.4417  0.4919  0.1188
   45MOL0     C 5942   9.506   1.183   6.647  0.6347  0.4807 -0.2853
   45MOL0     O 5943   9.498   1.057   6.597  0.2966 -0.0172  0.5924
   45MOL0     C 5944   9.403   1.017   6.515 -0.6661  0.0264  0.1392
   45MOL0     C 5945   9.290   1.085   6.467 -0.0082 -0.3232  0.4055
   45MOL0     C 5946   9.201   1.034   6.370  0.4405 -0.4160  0.9940
   45MOL0     C 5947   9.230   0.901   6.322  1.2752 -0.0250  0.2150
   45MOL0     O 5948   9.149   0.860   6.208 -0.5946 -0.5603 -0.7964
   45MOL0     C 5949   9.156   0.715   6.177  0.0863 -0.5339  0.2186
   45MOL0     C 5950   9.028   0.674   6.089 -0.1487  0.4061  0.7222
   45MOL0     C 5951   9.033   0.715   5.942  0.3351  0.0828 -0.6148
   45MOL0     C 5952   8.907   0.660   5.864  0.2994  0.5415 -0.9998
   45MOL0     C 5953   8.903   0.691   5.716 -0.2414  0.6811  0.0470
   45MOL0     C 5954   8.790   0.644   5.627 -0.8648  0.5052  0.0569
   45MOL0     C 5955   8.739   0.510   5.665  0.1023  0.1020  0.7474
   45MOL0     C 5956   8.641   0.453   5.574 -0.0773 -0.3600 -0.0806
   45MOL0     N 5957   8.600   0.316   5.612 -0.4068  0.1684 -0.1677
   45MOL0     C 5958   8.500   0.293   5.710  0.3454  0.4486  0.0209
   45MOL0     C 5959   8.515   0.168   5.756 -0.1837 -0.4474  0.7779
   45MOL0     C 5960   8.425   0.097   5.851 -0.7069  0.1880 -0.5002
   45MOL0     C 5961   8.298   0.049   5.784  0.3655 -0.3470 -0.4028
   45MOL0     C 5962   8.196   0.168   5.798  0.6021  0.4207  0.7002
   45MOL0     C 5963   8.061   0.117   5.737  0.1289 -0.8561 -0.4823
   45MOL0     O 5964   7.969   0.205   5.790 -0.1365  0.6086  0.2197
   45MOL0     C 5965   7.840   0.172   5.772  0.7433 -0.4959  0.2546
   45MOL0     C 5966   7.796   0.071   5.690  0.1709  0.2898 -0.4544
   45MOL0     C 5967   7.663   0.027   5.700 -0.2942 -0.2560  0.2628
   45MOL0     C 5968   7.623  -0.072   5.589  0.1847  1.1943  0.3727
   45MOL0     C 5969   7.560   0.093   5.781  0.4276  0.3863  0.6975
   45MOL0     C 5970   7.419   0.044   5.796 -1.3349 -0.3214  0.7256
   45MOL0     O 5971   7.347   0.139   5.862 -0.7918 -0.1662  0.0068
   45MOL0     C 5972   7.238   0.099   5.934 -0.5407  0.2848 -0.5020
   45MOL0     C 5973   7.243   0.135   6.065  0.1634  0.2353 -0.9926
   45MOL0     C 5974   7.148   0.081   6.163 -0.4169  0.4173 -0.2993
   45MOL0     C 5975   7.046   0.000   6.114  0.1378  0.9872  0.1571
   45MOL0     O 5976   6.952  -0.042   6.201 -0.7233  0.1142 -0.1945
   45MOL0     C 5977   6.825  -0.026   6.145 -0.4710  0.3123 -0.5124
   45MOL0     C 5978   6.720  -0.033   6.245 -0.0957 -0.6493  0.4426
   45MOL0     C 5979   6.581  -0.066   6.183 -0.2595 -0.0746  0.4512
   45MOL0     C 5980   6.475  -0.069   6.293 -0.1301  0.2586 -0.3206
   45MOL0     C 5981   6.332  -0.081   6.242  0.6986  1.1590 -0.2712
   45MOL0     C 5982   6.233  -0.071   6.359 -0.4516  0.0905  0.5706
   45MOL0     C 5983   6.163  -0.195   6.406  0.0102 -0.2387 -0.2790
   45MOL0     C 5984   6.038  -0.171   6.490  1.0552 -0.0337  0.4826
   45MOL0    Cl 5985   5.905  -0.280   6.424 -0.1923  0.1466 -0.0588
   45MOL0     C 5986   7.045  -0.040   5.977  0.3086 -0.7905  0.3464
   45MOL0     C 5987   7.145   0.009   5.887  0.5598  0.0257  0.1612
   45MOL0     O 5988   7.392  -0.072   5.770  0.4272 -0.3543 -0.3683
   45MOL0     C 5989   7.606   0.200   5.860 -0.3964 -0.4590  0.3117
   45MOL0     C 5990   7.749   0.240   5.850 -0.7242  0.0151  0.1352
   45MOL0     N 5991   8.607   0.106   5.663 -0.4449  0.3919 -0.4351
   45MOL0     N 5992   8.657   0.197   5.577  0.6546 -1.0030  0.7509
   45MOL0     C 5993   9.335   0.832   6.374 -1.1237  0.4875 -0.3672
   45MOL0     C 5994   9.416   0.883   6.468  0.1514  0.4229 -0.2075
   45MOL0     C 5995   9.604   1.209   6.756 -0.6390  0.2821 -0.0260
   45MOL0     C 5996   9.628   1.332   6.810  0.6613 -1.0094 -1.2698
   45MOL0     C 5997   9.728   1.365   6.905  0.3509 -1.0447 -0.2895
   45MOL0     C 5998   9.817   1.263   6.939  1.2025  0.0298  0.2465
   45MOL0     O 5999   9.917   1.274   7.026 -0.4671  0.5101 -0.4441
   45MOL0     C 6000   9.910   1.358   7.140 -0.4638  0.1642  0.9517
   45MOL0     C 6001   9.989   1.490   7.108 -0.4865 -0.3014 -0.4090
   45MOL0     C 6002   9.982   1.577   7.222  0.2103 -0.5339  0.1781
   45MOL0     C 6003  10.022   1.724   7.201 -0.0022  0.1967  0.4990
   45MOL0     C 6004  10.146   1.749   7.119 -0.1137 -0.7063  0.9852
   45MOL0     C 6005  10.251   1.777   7.063  0.0728 -0.1940 -0.1385
   45MOL0     C 6006   9.786   1.134   6.898 -0.8228 -0.4860 -0.2767
   45MOL0     C 6007   9.693   1.110   6.798 -0.1576  0.3605 -0.1404
   45MOL0     H 6008   9.265   1.186   6.500  1.4615  0.3062 -0.3030
   45MOL0     H 6009   9.120   1.095   6.331 -0.1316 -2.4332 -1.1750
   45MOL0     H 6010   9.249   0.697   6.121 -1.2633 -0.0150 -2.3297
   45MOL0     H 6011   9.153   0.655   6.269 -1.7358 -1.3119 -0.3083
   45MOL0     H 6012   9.020   0.566   6.080 -2.4406  0.2655  3.1816
   45MOL0     H 6013   8.941   0.706   6.147 -1.3997 -2.4862  0.6119
   45MOL0     H 6014   9.021   0.823   5.949  2.4466  0.5061 -2.4712
   45MOL0     H 6015   9.124   0.687   5.888 -0.5123 -4.1594 -0.2155
   45MOL0     H 6016   8.900   0.551   5.870 -0.6242  0.6666  1.0650
   45MOL0     H 6017   8.824   0.703   5.922  0.5564  2.6557 -2.0983
   45MOL0     H 6018   8.904   0.800   5.703 -1.1591  0.6704 -0.2133
   45MOL0     H 6019   8.994   0.661   5.663 -0.7245  1.9813 -1.6328
   45MOL0     H 6020   8.702   0.708   5.636 -1.9176 -0.5044 -2.1888
   45MOL0     H 6021   8.818   0.644   5.521  3.0633 -0.2919  0.9101
   45MOL0     H 6022   8.827   0.452   5.695 -0.4505 -2.0059 -1.3933
   45MOL0     H 6023   8.689   0.521   5.762 -2.7054 -1.1074 -0.4412
   45MOL0     H 6024   8.700   0.451   5.482  0.4767  0.0516  0.2633
   45MOL0     H 6025   8.555   0.520   5.569  0.5855  0.5601  0.4873
   45MOL0     H 6026   8.439   0.372   5.752 -0.1161  0.6481 -0.9719
   45MOL0     H 6027   8.475   0.013   5.900  1.0441  0.6422 -1.4108
   45MOL0     H 6028   8.389   0.156   5.935  1.0994 -2.4916  2.3918
   45MOL0     H 6029   8.267  -0.040   5.839  2.1455 -0.2785  0.8203
   45MOL0     H 6030   8.313   0.021   5.679 -1.0935  0.2348 -0.7877
   45MOL0     H 6031   8.228   0.257   5.743 -2.0003  1.9988  1.5754
   45MOL0     H 6032   8.181   0.195   5.903 -0.7668 -0.3746  0.7343
   45MOL0     H 6033   8.049   0.011   5.759  1.2530 -1.3170 -1.9042
   45MOL0     H 6034   8.077   0.139   5.631  2.0972  2.0708  0.2841
   45MOL0     H 6035   7.861   0.017   5.622 -1.3652  1.6905 -3.1873
   45MOL0     H 6036   7.701  -0.093   5.515  0.5443 -1.7261  1.4444
   45MOL0     H 6037   7.591  -0.168   5.631 -0.4928  0.0941 -2.3797
   45MOL0     H 6038   7.537  -0.030   5.536  0.4919 -0.2426 -1.3822
   45MOL0     H 6039   7.319   0.197   6.112  0.5657 -0.9873  0.0286
   45MOL0     H 6040   7.168   0.122   6.261  1.8947  1.0777 -0.9703
   45MOL0     H 6041   6.812   0.058   6.075  0.4711  0.3853 -0.6196
   45MOL0     H 6042   6.811  -0.113   6.080  2.6086 -0.0551 -0.8547
   45MOL0     H 6043   6.750  -0.105   6.321 -0.2243  1.1968  2.3442
   45MOL0     H 6044   6.712   0.059   6.305  0.3789 -0.6216  0.4619
   45MOL0     H 6045   6.583  -0.167   6.142 -1.3412 -0.7387  1.9536
   45MOL0     H 6046   6.555   0.007   6.106 -2.8562 -0.1935  1.1159
   45MOL0     H 6047   6.489  -0.153   6.361 -1.3733  0.6037  0.3958
   45MOL0     H 6048   6.485   0.010   6.369  1.2011 -3.2686  3.5508
   45MOL0     H 6049   6.312  -0.175   6.190 -1.4668  1.1840  0.4276
   45MOL0     H 6050   6.320  -0.001   6.168  1.5271  0.7250 -0.8974
   45MOL0     H 6051   6.269  -0.011   6.443  0.0759  1.8420 -0.8266
   45MOL0     H 6052   6.159   0.001   6.324  0.7986  1.3826  0.4722
   45MOL0     H 6053   6.228  -0.256   6.470 -4.6233 -0.6312  4.7219
   45MOL0     H 6054   6.141  -0.259   6.320 -1.1118 -1.5453  0.9282
   45MOL0     H 6055   6.014  -0.065   6.482  1.0612  0.1855  2.6964
   45MOL0     H 6056   6.046  -0.191   6.597  0.2981 -2.1375  0.1995
   45MOL0     H 6057   6.970  -0.102   5.928  1.4668  0.3014 -3.1059
   45MOL0     H 6058   7.133  -0.023   5.784  0.4973  1.2665 -0.2272
   45MOL0     H 6059   7.534   0.249   5.925 -1.2835  0.3036 -1.1907
   45MOL0     H 6060   7.797   0.320   5.905 -2.0080  0.4939  0.6155
   45MOL0     H 6061   9.358   0.733   6.336  1.9143  1.0772 -0.3534
   45MOL0     H 6062   9.491   0.825   6.520  0.4004  0.9534  0.0298
   45MOL0     H 6063   9.558   1.408   6.777 -0.8769 -2.5345 -1.6761
   45MOL0     H 6064   9.739   1.468   6.937  1.7198 -2.1887  3.4191
   45MOL0     H 6065   9.803   1.376   7.156 -0.4338 -0.4684  1.9526
   45MOL0     H 6066   9.949   1.306   7.228  0.2154  0.3753  0.7771
   45MOL0     H 6067   9.949   1.538   7.018 -2.9451 -0.2812  0.6062
   45MOL0     H 6068  10.095   1.465   7.100  0.0498  1.1081  1.3865
   45MOL0     H 6069  10.054   1.544   7.298  2.3351  2.0981 -0.5263
   45MOL0     H 6070   9.879   1.571   7.258 -0.4117 -0.0695 -1.4373
   45MOL0     H 6071  10.040   1.779   7.294  0.3781  0.1608  0.4464
   45MOL0     H 6072   9.939   1.776   7.152  1.8874  1.0050 -2.1035
   45MOL0     H 6073  10.337   1.826   7.020  1.4437 -0.0197  2.5830
   45MOL0     H 6074   9.850   1.052   6.931  0.0627  0.2136 -0.2033
   45MOL0     H 6075   9.686   1.007   6.765 -1.1025  0.6045 -0.7228
   46MOL0     O 6076   6.611   7.294   0.366  0.1434  0.3443  0.7097
   46MOL0     C 6077   6.672   7.319   0.263 -0.5526 -0.6251  0.5922
   46MOL0     O 6078   6.630   7.304   0.133 -0.0920 -0.0666  0.3737
   46MOL0     C 6079   6.508   7.244   0.124 -0.1534 -0.0223  0.2071
   46MOL0     C 6080   6.383   7.317   0.121  0.2340 -0.1674 -0.2712
   46MOL0     C 6081   6.266   7.250   0.107 -0.9116  0.3199  0.7954
   46MOL0     C 6082   6.267   7.102   0.089  0.1546 -1.0462  0.3501
   46MOL0     O 6083   6.154   7.023   0.086 -0.0332 -0.2129  0.0956
   46MOL0     C 6084   6.034   7.104   0.065 -1.0928 -0.1055  0.0067
   46MOL0     C 6085   5.915   7.023   0.007  0.8901 -0.0669 -0.3193
   46MOL0     C 6086   5.874   6.896   0.099 -0.5324 -0.3894  0.1458
   46MOL0     C 6087   5.728   6.859   0.134  0.1423 -0.8033 -0.1797
   46MOL0     C 6088   5.652   6.991   0.195 -0.6802  0.6604  0.1506
   46MOL0     C 6089   5.517   6.947   0.268  0.4788  0.0949 -0.2675
   46MOL0     C 6090   5.481   7.027   0.398 -0.0341  0.0150  0.3461
   46MOL0     C 6091   5.493   6.948   0.531  0.5624 -0.1442  0.1866
   46MOL0     N 6092   5.628   6.900   0.546 -0.2160  1.0911  0.1325
   46MOL0     C 6093   5.740   6.979   0.542  0.0341  0.0171  0.1481
   46MOL0     C 6094   5.844   6.888   0.536  0.5969 -0.0150  0.1141
   46MOL0     C 6095   5.992   6.933   0.533 -0.4104 -0.0635 -0.0217
   46MOL0     C 6096   6.082   6.824   0.480  0.2064 -0.1993 -0.6510
   46MOL0     C 6097   6.208   6.881   0.402 -0.0469 -0.3969 -0.3500
   46MOL0     C 6098   6.296   6.764   0.363 -0.5498 -0.3592  0.3888
   46MOL0     O 6099   6.381   6.718   0.468 -0.4282  0.7343 -0.3766
   46MOL0     C 6100   6.495   6.784   0.509 -0.7276  0.0237 -0.6073
   46MOL0     C 6101   6.580   6.713   0.590 -0.3019 -0.0408 -0.2943
   46MOL0     C 6102   6.700   6.766   0.634  0.0716  0.3715 -0.2247
   46MOL0     C 6103   6.777   6.685   0.739  0.1534 -0.4965 -0.1597
   46MOL0     C 6104   6.744   6.890   0.583  0.7339  0.6306  0.4102
   46MOL0     C 6105   6.866   6.943   0.632 -0.2408  1.3031  1.3344
   46MOL0     O 6106   6.973   6.951   0.541 -0.9046 -0.0465  0.1967
   46MOL0     C 6107   7.096   7.006   0.565  0.8173  0.3031 -0.4160
   46MOL0     C 6108   7.150   7.025   0.690  0.6113  0.0783  0.3010
   46MOL0     C 6109   7.265   7.102   0.711  0.1553 -0.0849 -0.1453
   46MOL0     C 6110   7.335   7.147   0.599  0.0742  0.6737 -0.1036
   46MOL0     O 6111   7.453   7.211   0.599 -0.2994 -0.3900  0.6458
   46MOL0     C 6112   7.533   7.196   0.721  0.1399  0.0936  0.1432
   46MOL0     C 6113   7.680   7.213   0.698 -0.2515  0.3125  0.6976
   46MOL0     C 6114   7.728   7.091   0.618 -0.1487  0.7378  0.2434
   46MOL0     C 6115   7.874   7.105   0.573  0.0768 -0.1250 -0.2138
   46MOL0     C 6116   7.977   7.093   0.687 -0.7289  0.3005 -0.3396
   46MOL0     C 6117   7.992   6.954   0.733  0.1239  0.0090 -0.0419
   46MOL0     C 6118   8.067   6.850   0.646 -0.6641 -0.0873 -0.2362
   46MOL0     C 6119   8.084   6.712   0.718  0.0956 -0.4970 -0.4405
   46MOL0    Cl 6120   8.178   6.727   0.865 -0.1467 -0.2434 -0.1487
   46MOL0     C 6121   7.277   7.120   0.467  0.3847  0.0331  0.2949
   46MOL0     C 6122   7.157   7.050   0.449 -0.0758 -0.1076 -0.4015
   46MOL0     O 6123   6.862   6.987   0.744  0.5598  0.3432  0.7014
   46MOL0     C 6124   6.654   6.964   0.498  0.8389 -0.0555  0.1593
   46MOL0     C 6125   6.533   6.910   0.470 -0.0502 -0.2128  0.5443
   46MOL0     N 6126   5.790   6.761   0.537  0.0817 -0.5522 -0.1169
   46MOL0     N 6127   5.661   6.767   0.540 -0.4236  0.0208  0.7909
   46MOL0     C 6128   6.391   7.034   0.080 -0.3737  0.2144  0.4908
   46MOL0     C 6129   6.503   7.106   0.108 -0.6349 -0.0693 -0.3394
   46MOL0     C 6130   6.796   7.392   0.279  0.6964 -0.3145  1.1833
   46MOL0     C 6131   6.815   7.506   0.197  1.2027  0.0947  0.0759
   46MOL0     C 6132   6.935   7.580   0.217 -0.9501  0.9850 -0.1331
   46MOL0     C 6133   7.031   7.554   0.308 -0.7265  0.6931 -0.7197
   46MOL0     O 6134   7.130   7.639   0.340  0.4138  0.3208 -0.4807
   46MOL0     C 6135   7.140   7.672   0.481 -0.5925  0.5276  0.2423
   46MOL0     C 6136   7.181   7.815   0.499  0.1280 -0.0350 -0.3251
   46MOL0     C 6137   7.071   7.912   0.461 -0.3032 -0.8269 -0.6668
   46MOL0     C 6138   6.992   7.956   0.585 -0.5235 -0.6466  0.6389
   46MOL0     C 6139   6.916   7.853   0.650 -0.5189  0.3051 -0.9234
   46MOL0     C 6140   6.854   7.767   0.706  0.9888 -0.6625 -0.6131
   46MOL0     C 6141   7.003   7.439   0.393 -0.4942  0.3009 -0.0733
   46MOL0     C 6142   6.893   7.353   0.379  0.0062  0.5666  0.1689
   46MOL0     H 6143   6.377   7.424   0.132 -3.5107  0.3157 -4.4883
   46MOL0     H 6144   6.169   7.299   0.104 -0.8421  0.4093 -0.4806
   46MOL0     H 6145   6.017   7.161   0.157 -2.5597  2.7603 -1.8903
   46MOL0     H 6146   6.047   7.180  -0.014  2.0464  0.3656  0.8614
   46MOL0     H 6147   5.843   7.106   0.004  1.5802  0.6352  1.2409
   46MOL0     H 6148   5.934   6.996  -0.097  1.4030 -1.5754  0.1527
   46MOL0     H 6149   5.903   6.802   0.051  0.3788 -0.9014  1.6464
   46MOL0     H 6150   5.939   6.917   0.184  2.0854  0.1140 -1.8289
   46MOL0     H 6151   5.675   6.825   0.044  0.2973  0.4466 -0.7555
   46MOL0     H 6152   5.729   6.775   0.204 -2.1467 -2.0636 -1.5235
   46MOL0     H 6153   5.705   7.056   0.265 -0.9940  0.1525  0.8809
   46MOL0     H 6154   5.637   7.053   0.106  1.3530  0.8920 -0.0644
   46MOL0     H 6155   5.442   6.966   0.191  0.4669 -1.3935 -0.6639
   46MOL0     H 6156   5.517   6.839   0.287  3.6427 -0.0367 -0.4006
   46MOL0     H 6157   5.528   7.125   0.392  1.5545 -0.7656 -0.9293
   46MOL0     H 6158   5.374   7.049   0.390  0.2151  0.7032 -1.9634
   46MOL0     H 6159   5.426   6.861   0.532  3.8393 -2.8627  0.5384
   46MOL0     H 6160   5.469   7.012   0.616 -5.1456 -1.1282 -0.2830
   46MOL0     H 6161   5.744   7.084   0.516 -0.6270 -0.2027 -0.8953
   46MOL0     H 6162   5.990   7.012   0.457 -2.9855  0.1780  0.1802
   46MOL0     H 6163   6.029   6.981   0.624  3.0546 -2.0166 -0.2186
   46MOL0     H 6164   6.035   6.768   0.399  1.6099  0.9298 -2.3253
   46MOL0     H 6165   6.100   6.754   0.562 -0.4153 -0.1526 -0.4661
   46MOL0     H 6166   6.260   6.948   0.472  0.4835 -1.7130  0.5399
   46MOL0     H 6167   6.168   6.927   0.311 -1.8318 -2.7780 -0.8551
   46MOL0     H 6168   6.359   6.785   0.276 -1.0140 -2.5396 -0.5307
   46MOL0     H 6169   6.223   6.687   0.338 -0.9573 -0.9471  3.0687
   46MOL0     H 6170   6.548   6.619   0.634 -2.4350  2.1163  3.2545
   46MOL0     H 6171   6.770   6.578   0.718 -0.6114 -0.3837 -0.5115
   46MOL0     H 6172   6.877   6.725   0.760 -0.3998  0.7538  0.1959
   46MOL0     H 6173   6.726   6.713   0.832  0.5007 -0.1706 -0.0614
   46MOL0     H 6174   7.096   6.995   0.780 -0.1737 -0.8408 -0.4605
   46MOL0     H 6175   7.295   7.139   0.808  0.9182  4.2109 -1.8167
   46MOL0     H 6176   7.486   7.262   0.794  1.5645 -0.1900  1.3549
   46MOL0     H 6177   7.513   7.097   0.764  0.2141  0.3939  0.8789
   46MOL0     H 6178   7.709   7.308   0.652 -1.8905  0.0087 -1.0953
   46MOL0     H 6179   7.734   7.215   0.793  2.5252  1.7883 -0.8094
   46MOL0     H 6180   7.673   7.085   0.524  1.2393  1.1947 -0.6276
   46MOL0     H 6181   7.711   6.998   0.674  3.6065 -0.7585 -0.8304
   46MOL0     H 6182   7.906   7.041   0.491  0.8615 -0.2501  0.1799
   46MOL0     H 6183   7.879   7.207   0.534 -1.7996 -0.3451 -1.1660
   46MOL0     H 6184   7.936   7.151   0.770 -1.1631  2.3705 -1.9181
   46MOL0     H 6185   8.077   7.128   0.661 -0.2548  0.2165  1.2317
   46MOL0     H 6186   8.046   6.948   0.828 -1.6087 -0.3674  0.9663
   46MOL0     H 6187   7.894   6.916   0.762 -1.1751  0.8253 -3.0334
   46MOL0     H 6188   8.163   6.883   0.606  0.6009 -2.4898  0.6540
   46MOL0     H 6189   8.013   6.831   0.552 -1.6739 -0.6510  0.4454
   46MOL0     H 6190   8.126   6.643   0.644 -0.4715  1.0798 -2.3048
   46MOL0     H 6191   7.990   6.660   0.739 -0.1040  0.6643  1.7869
   46MOL0     H 6192   7.333   7.152   0.379  1.3865 -1.0857  0.5052
   46MOL0     H 6193   7.104   7.038   0.355 -2.5644 -2.5661  1.1575
   46MOL0     H 6194   6.675   7.065   0.463 -0.2156  0.1490  0.0772
   46MOL0     H 6195   6.466   6.961   0.403  2.2685 -0.7018 -2.3409
   46MOL0     H 6196   6.395   6.928   0.058 -2.3331  0.5088 -1.6093
   46MOL0     H 6197   6.601   7.061   0.094 -1.2036 -3.2233  3.8966
   46MOL0     H 6198   6.741   7.549   0.131 -0.0187  0.6981  1.7654
   46MOL0     H 6199   6.928   7.664   0.148 -1.1893 -1.2741 -3.0279
   46MOL0     H 6200   7.043   7.651   0.529 -0.0444 -0.1941  1.0655
   46MOL0     H 6201   7.220   7.611   0.524  0.8868  3.5674  2.1930
   46MOL0     H 6202   7.280   7.833   0.455 -0.0799  1.5949 -0.1652
   46MOL0     H 6203   7.213   7.837   0.601 -0.1103 -1.1671  0.0162
   46MOL0     H 6204   6.994   7.878   0.391 -3.5528  2.6633  0.8363
   46MOL0     H 6205   7.121   8.003   0.428 -0.4879  0.1661  1.5577
   46MOL0     H 6206   6.920   8.030   0.550 -0.9857 -2.0147 -1.5152
   46MOL0     H 6207   7.063   8.008   0.649 -0.7978  1.7479 -0.8802
   46MOL0     H 6208   6.791   7.697   0.758 -1.2497  1.9446  0.4165
   46MOL0     H 6209   7.081   7.400   0.459  1.1542 -2.4206 -3.3327
   46MOL0     H 6210   6.899   7.263   0.440  5.0340 -0.1728 -1.0023
   47MOL0     O 6211   6.858  10.216   3.937 -0.5330  0.1892 -0.1283
   47MOL0     C 6212   6.830  10.306   4.010  0.5362  0.2093  0.6135
   47MOL0     O 6213   6.913  10.405   4.062  0.0939  0.2894  0.0648
   47MOL0     C 6214   7.032  10.407   4.013 -0.4678 -0.5780  0.4381
   47MOL0     C 6215   7.059  10.429   3.881  0.3350 -0.2570 -0.5718
   47MOL0     C 6216   7.197  10.432   3.843 -0.4803  0.6216  0.5560
   47MOL0     C 6217   7.301  10.394   3.928 -0.0501 -0.2759 -0.3266
   47MOL0     O 6218   7.432  10.396   3.898 -0.3027 -0.3245  0.7971
   47MOL0     C 6219   7.472  10.444   3.765 -0.1389 -0.5134  0.3471
   47MOL0     C 6220   7.623  10.457   3.765  0.6072  0.3186 -0.4118
   47MOL0     C 6221   7.663  10.567   3.861 -0.5430 -0.5288  0.8318
   47MOL0     C 6222   7.791  10.628   3.785 -0.5286 -0.0721 -0.4604
   47MOL0     C 6223   7.864  10.723   3.882 -0.3256  0.1720  0.2423
   47MOL0     C 6224   7.912  10.658   4.016  0.0519  0.8368  0.2361
   47MOL0     C 6225   8.039  10.574   3.970  0.0724  0.5108 -0.1886
   47MOL0     C 6226   8.124  10.538   4.093  0.7751 -0.2686  0.7873
   47MOL0     N 6227   8.229  10.643   4.113 -0.2208  0.1567 -0.0894
   47MOL0     C 6228   8.231  10.769   4.060 -0.5464 -0.2791 -0.1023
   47MOL0     C 6229   8.362  10.802   4.057  0.3546 -0.1110 -0.9060
   47MOL0     C 6230   8.403  10.933   4.005 -0.2627  0.8157  0.1083
   47MOL0     C 6231   8.405  11.044   4.109  0.7743 -0.4975  0.8858
   47MOL0     C 6232   8.488  11.170   4.068 -0.7677 -0.3384 -0.0685
   47MOL0     C 6233   8.533  11.266   4.183 -0.2578  0.3137  0.5543
   47MOL0     O 6234   8.606  11.175   4.268  0.8262 -0.2035  0.1853
   47MOL0     C 6235   8.733  11.212   4.308 -0.1218  0.8940  1.1064
   47MOL0     C 6236   8.834  11.236   4.214 -0.6997  0.2459  0.3331
   47MOL0     C 6237   8.960  11.261   4.261  0.4104 -0.0577 -0.5128
   47MOL0     C 6238   9.071  11.269   4.157  0.8600  0.3026 -0.3047
   47MOL0     C 6239   8.999  11.269   4.396 -0.1647  0.1992 -0.1910
   47MOL0     C 6240   9.137  11.288   4.443  0.4539 -0.5995 -0.4533
   47MOL0     O 6241   9.168  11.232   4.568  0.2176  0.0032 -0.3888
   47MOL0     C 6242   9.291  11.257   4.620  0.1436  0.2601  0.1001
   47MOL0     C 6243   9.392  11.162   4.630  0.5732  1.2970 -0.1323
   47MOL0     C 6244   9.512  11.193   4.692  1.1759  0.0069 -0.4597
   47MOL0     C 6245   9.531  11.321   4.750 -0.4274 -0.2334 -0.5401
   47MOL0     O 6246   9.661  11.359   4.787 -0.5331  0.5455  0.5171
   47MOL0     C 6247   9.694  11.492   4.804 -0.2133 -0.0118 -0.1562
   47MOL0     C 6248   9.822  11.508   4.889  0.2136 -0.3695 -0.1980
   47MOL0     C 6249   9.867  11.664   4.881 -0.3041  0.2778  0.0216
   47MOL0     C 6250   9.971  11.707   4.993  0.2618 -0.5497  0.1638
   47MOL0     C 6251   9.977  11.859   4.991  0.5163 -0.5639  0.0891
   47MOL0     C 6252  10.043  11.922   5.107 -0.0815  0.8523  0.5321
   47MOL0     C 6253  10.197  11.934   5.090  0.8797  0.2812 -0.2134
   47MOL0     C 6254  10.257  12.061   5.156 -0.3734 -0.1794  0.6774
   47MOL0    Cl 6255  10.180  12.210   5.083  0.1928 -0.2431 -0.5469
   47MOL0     C 6256   9.424  11.420   4.731  0.4846 -0.7679  0.3292
   47MOL0     C 6257   9.309  11.378   4.672 -0.4241 -0.7024  0.2686
   47MOL0     O 6258   9.214  11.356   4.379  0.0646 -0.3837  0.1564
   47MOL0     C 6259   8.894  11.249   4.487  0.3028  0.7953  0.2003
   47MOL0     C 6260   8.764  11.220   4.438 -0.2328 -0.3807 -0.5867
   47MOL0     N 6261   8.440  10.704   4.106  1.0257  0.6211  0.1513
   47MOL0     N 6262   8.356  10.602   4.138  0.3180 -0.0925  0.3410
   47MOL0     C 6263   7.264  10.363   4.063 -1.2543 -0.4232 -0.0132
   47MOL0     C 6264   7.133  10.380   4.106 -0.1041 -0.4279 -0.2186
   47MOL0     C 6265   6.683  10.323   4.046  0.6684  0.8039  0.6304
   47MOL0     C 6266   6.577  10.263   3.969 -0.3088  0.3481  0.5374
   47MOL0     C 6267   6.447  10.271   4.015  0.3851  0.9199 -0.4326
   47MOL0     C 6268   6.420  10.351   4.133 -0.1250  0.3381 -0.5215
   47MOL0     O 6269   6.292  10.371   4.190 -0.4158  0.2473  0.4098
   47MOL0     C 6270   6.178  10.338   4.121  1.1584 -0.8661  0.1077
   47MOL0     C 6271   6.055  10.331   4.211 -0.8774  0.0799 -0.1857
   47MOL0     C 6272   5.925  10.332   4.128  0.4248 -0.1493  0.6517
   47MOL0     C 6273   5.897  10.205   4.042  0.3988  0.3203  0.2500
   47MOL0     C 6274   5.918  10.078   4.118 -0.2110  0.9760  0.7306
   47MOL0     C 6275   5.938   9.974   4.174 -0.4121 -0.0108  0.2186
   47MOL0     C 6276   6.521  10.417   4.202 -0.3968  0.0544 -0.0250
   47MOL0     C 6277   6.657  10.395   4.164 -0.3693  0.4317 -0.4774
   47MOL0     H 6278   6.980  10.436   3.806 -1.2437  0.2380  1.0770
   47MOL0     H 6279   7.216  10.465   3.741 -0.3185 -1.6805 -0.2070
   47MOL0     H 6280   7.439  10.372   3.689  0.2198 -1.0508  0.6903
   47MOL0     H 6281   7.437  10.546   3.746  2.1388  0.5642  1.5768
   47MOL0     H 6282   7.675  10.368   3.801  3.0936  2.3235  1.2825
   47MOL0     H 6283   7.657  10.484   3.665 -1.4292  3.1490 -0.4780
   47MOL0     H 6284   7.589  10.648   3.860 -0.5281 -0.5187  0.1267
   47MOL0     H 6285   7.675  10.528   3.962 -1.2096  1.7155  1.8341
   47MOL0     H 6286   7.851  10.549   3.741 -0.2049 -1.3635  2.1134
   47MOL0     H 6287   7.765  10.697   3.704  0.4341 -1.5566 -2.0707
   47MOL0     H 6288   7.953  10.762   3.832 -0.9808  1.0849 -0.2288
   47MOL0     H 6289   7.799  10.809   3.901 -0.7336  0.3533 -1.7891
   47MOL0     H 6290   7.949  10.722   4.097  1.4265  0.6470 -0.2070
   47MOL0     H 6291   7.841  10.590   4.065 -0.0538  1.0859  0.4265
   47MOL0     H 6292   8.006  10.478   3.928 -1.8306  0.4636  1.2659
   47MOL0     H 6293   8.095  10.618   3.887  1.9772 -1.6623 -0.1718
   47MOL0     H 6294   8.165  10.439   4.071 -3.1154 -1.7116 -0.8306
   47MOL0     H 6295   8.059  10.517   4.177 -0.7265 -0.6570 -0.4212
   47MOL0     H 6296   8.145  10.830   4.035  0.2505  1.9762  2.1569
   47MOL0     H 6297   8.500  10.914   3.959 -1.6948  0.1318 -2.8202
   47MOL0     H 6298   8.341  10.962   3.920 -1.3027 -2.7690 -0.5139
   47MOL0     H 6299   8.443  11.001   4.202 -0.2371  2.1420  2.6545
   47MOL0     H 6300   8.302  11.082   4.102  1.0008 -0.2040 -2.2466
   47MOL0     H 6301   8.431  11.223   3.991  0.6407 -0.2844 -1.1083
   47MOL0     H 6302   8.581  11.126   4.031 -0.9473 -1.2622  0.5294
   47MOL0     H 6303   8.460  11.330   4.234 -2.3957  0.6263 -2.6660
   47MOL0     H 6304   8.601  11.337   4.135  0.3146  0.5053  1.6173
   47MOL0     H 6305   8.807  11.218   4.110 -1.3209 -2.3153  0.8602
   47MOL0     H 6306   9.158  11.213   4.192  0.6287  1.7253  2.8255
   47MOL0     H 6307   9.037  11.219   4.066  0.1862  1.5688 -0.7779
   47MOL0     H 6308   9.092  11.376   4.142 -0.6403  0.5973 -0.5291
   47MOL0     H 6309   9.390  11.069   4.574  3.0511  2.0607 -1.6633
   47MOL0     H 6310   9.593  11.121   4.697 -0.5027 -1.9720 -0.6855
   47MOL0     H 6311   9.722  11.535   4.707 -0.0154 -2.5089 -1.3023
   47MOL0     H 6312   9.610  11.554   4.837  0.8028  1.3986 -0.1432
   47MOL0     H 6313   9.793  11.494   4.993  1.2925 -0.2625  0.1258
   47MOL0     H 6314   9.905  11.444   4.856 -0.1357 -0.8112 -0.2280
   47MOL0     H 6315   9.773  11.719   4.891 -1.2140 -0.8553 -1.7659
   47MOL0     H 6316   9.901  11.685   4.779  1.9346  0.6337  0.8049
   47MOL0     H 6317   9.953  11.667   5.093 -1.4398  1.2333  0.6197
   47MOL0     H 6318  10.068  11.670   4.957 -1.0872 -2.1400 -2.1186
   47MOL0     H 6319   9.874  11.894   4.990  0.6888  0.2500  3.0133
   47MOL0     H 6320  10.025  11.889   4.897  1.7663  0.7609  1.1089
   47MOL0     H 6321  10.003  12.024   5.108 -0.9832  0.4998  1.2077
   47MOL0     H 6322  10.021  11.866   5.198 -0.3694  2.1187  1.2564
   47MOL0     H 6323  10.224  11.938   4.984 -0.3619 -0.3935 -0.5779
   47MOL0     H 6324  10.241  11.847   5.139  1.1854 -0.1090 -1.1575
   47MOL0     H 6325  10.362  12.061   5.125 -0.9557 -0.4578 -1.4504
   47MOL0     H 6326  10.244  12.061   5.265 -0.3511  0.6596  0.6870
   47MOL0     H 6327   9.432  11.523   4.765 -0.1415 -0.0414 -1.5725
   47MOL0     H 6328   9.219  11.438   4.665  1.4718  2.3093  0.0077
   47MOL0     H 6329   8.900  11.260   4.595 -1.4212 -0.8702  0.5154
   47MOL0     H 6330   8.688  11.198   4.513  0.0819  1.6886  0.4201
   47MOL0     H 6331   7.337  10.319   4.130 -1.3546 -0.4086  0.1071
   47MOL0     H 6332   7.106  10.356   4.208 -0.0336  2.4819  0.5652
   47MOL0     H 6333   6.593  10.193   3.887  5.2048  0.2995  1.2285
   47MOL0     H 6334   6.363  10.222   3.969  0.4095 -1.2882  1.6528
   47MOL0     H 6335   6.159  10.417   4.048 -1.7314 -0.9796  0.6133
   47MOL0     H 6336   6.193  10.240   4.074  2.3822 -0.7831  0.2883
   47MOL0     H 6337   6.058  10.426   4.264  1.0668  1.2074 -2.1712
   47MOL0     H 6338   6.053  10.248   4.282  1.1087  0.5263  0.4641
   47MOL0     H 6339   5.908  10.421   4.067 -1.0602 -1.2759 -0.6774
   47MOL0     H 6340   5.840  10.336   4.196 -0.4584 -1.4113 -0.3209
   47MOL0     H 6341   5.964  10.208   3.956  2.2241 -1.4319  1.5213
   47MOL0     H 6342   5.796  10.195   4.002 -1.4848 -1.1142  4.6783
   47MOL0     H 6343   5.968   9.879   4.215  2.6856  0.8093  0.1644
   47MOL0     H 6344   6.507  10.494   4.278  0.6672  2.0050 -1.6931
   47MOL0     H 6345   6.736  10.450   4.213  0.4200 -1.4930  0.5285
   48MOL0     O 6346   1.540   7.219   7.185  0.2835  0.9086 -0.2263
   48MOL0     C 6347   1.595   7.319   7.219 -0.2075  0.5738  0.5074
   48MOL0     O 6348   1.609   7.370   7.347 -0.8921  0.3808 -0.6512
   48MOL0     C 6349   1.543   7.319   7.451 -0.2355  0.4753  0.7282
   48MOL0     C 6350   1.482   7.408   7.551  0.1205  0.0315  0.1769
   48MOL0     C 6351   1.424   7.349   7.665  0.1893  0.5578  0.2200
   48MOL0     C 6352   1.420   7.213   7.688  0.5468  0.5886 -0.8064
   48MOL0     O 6353   1.370   7.191   7.811  0.4837 -0.5622 -0.3117
   48MOL0     C 6354   1.341   7.055   7.850 -0.6242 -0.2645 -0.3198
   48MOL0     C 6355   1.266   7.038   7.979  0.0490  0.3484 -0.0369
   48MOL0     C 6356   1.198   6.898   7.984  0.3686  0.4206  0.3716
   48MOL0     C 6357   1.066   6.887   7.904  0.9972  0.8558  0.0919
   48MOL0     C 6358   1.011   6.749   7.933 -0.0239 -0.0458 -0.2609
   48MOL0     C 6359   0.876   6.724   7.880  0.0676  0.6332 -0.1870
   48MOL0     C 6360   0.836   6.578   7.893  0.5906  0.8078 -0.3708
   48MOL0     C 6361   0.847   6.522   8.034  0.2864 -0.3782  0.8167
   48MOL0     N 6362   0.797   6.383   8.038 -0.0313 -0.1935 -0.5211
   48MOL0     C 6363   0.751   6.310   8.149  0.3874  0.9715  0.4873
   48MOL0     C 6364   0.773   6.176   8.117 -0.1933 -0.3421  0.0459
   48MOL0     C 6365   0.750   6.056   8.204 -0.2237 -0.3432 -0.0174
   48MOL0     C 6366   0.613   5.988   8.169 -0.3153  0.5258  0.4809
   48MOL0     C 6367   0.615   5.905   8.032 -0.1583  0.6423  0.1219
   48MOL0     C 6368   0.475   5.834   8.023  0.1216  0.3787 -0.0861
   48MOL0     O 6369   0.458   5.726   8.113 -0.3759  0.4134  0.0921
   48MOL0     C 6370   0.337   5.664   8.121 -0.0291 -0.6519  0.9983
   48MOL0     C 6371   0.257   5.640   8.010  0.0844 -0.3489  0.4082
   48MOL0     C 6372   0.119   5.598   8.014 -0.6515  0.5127 -0.8075
   48MOL0     C 6373   0.041   5.608   7.888 -0.3088  0.5055  0.5330
   48MOL0     C 6374   0.068   5.563   8.142  0.8190 -0.0220  1.1331
   48MOL0     C 6375  -0.079   5.541   8.177 -1.1000 -0.3631  0.9286
   48MOL0     O 6376  -0.116   5.511   8.307  0.0688  0.0597  0.3366
   48MOL0     C 6377  -0.238   5.452   8.338  0.5916  0.0505  0.4502
   48MOL0     C 6378  -0.239   5.313   8.345 -0.1068 -0.4183 -0.3311
   48MOL0     C 6379  -0.350   5.236   8.384  0.8898 -0.2435 -0.0234
   48MOL0     C 6380  -0.466   5.304   8.419 -0.1698 -0.4373  1.0436
   48MOL0     O 6381  -0.581   5.235   8.447 -0.5397 -0.0337  0.2037
   48MOL0     C 6382  -0.563   5.130   8.540 -0.1280  0.4910 -0.2239
   48MOL0     C 6383  -0.698   5.137   8.613  0.0376 -0.8240 -0.9394
   48MOL0     C 6384  -0.710   5.056   8.743  0.3361 -0.8190  0.2647
   48MOL0     C 6385  -0.844   5.077   8.819 -0.2247 -0.2310  1.0243
   48MOL0     C 6386  -0.833   5.010   8.957 -0.2529 -0.3216 -0.4146
   48MOL0     C 6387  -0.948   5.040   9.057 -0.1203  0.2126  0.8740
   48MOL0     C 6388  -0.959   5.191   9.068 -0.2675  0.6030 -0.0731
   48MOL0     C 6389  -1.075   5.234   9.158 -0.5186 -1.0258  0.0474
   48MOL0    Cl 6390  -1.221   5.150   9.109  0.1838 -0.4600  0.2962
   48MOL0     C 6391  -0.474   5.441   8.383  0.6775 -0.5903  0.3083
   48MOL0     C 6392  -0.363   5.518   8.346 -0.0788 -0.0201 -0.1671
   48MOL0     O 6393  -0.150   5.546   8.079  0.4242 -0.8884 -0.4379
   48MOL0     C 6394   0.149   5.576   8.257 -0.3602 -0.1011 -0.7716
   48MOL0     C 6395   0.282   5.619   8.244  0.6554 -0.2398 -0.4648
   48MOL0     N 6396   0.831   6.171   7.989  0.1155 -0.5443 -0.0598
   48MOL0     N 6397   0.846   6.293   7.947 -0.8931  0.0278  0.3972
   48MOL0     C 6398   1.464   7.126   7.587 -0.1659 -0.6182 -0.0228
   48MOL0     C 6399   1.531   7.183   7.475 -0.4652 -0.2956  0.0185
   48MOL0     C 6400   1.666   7.399   7.114  0.5152 -0.0982  0.4232
   48MOL0     C 6401   1.678   7.537   7.134 -0.3949 -0.0814  0.0388
   48MOL0     C 6402   1.718   7.616   7.026 -0.3719  0.8791 -0.1145
   48MOL0     C 6403   1.771   7.561   6.905  0.6744 -0.3888  0.2887
   48MOL0     O 6404   1.795   7.638   6.802  1.0339 -0.3441  0.2036
   48MOL0     C 6405   1.896   7.585   6.710 -0.6938 -0.6048 -0.9660
   48MOL0     C 6406   1.976   7.696   6.645 -0.2555  0.2887  0.1815
   48MOL0     C 6407   1.879   7.751   6.544  0.9966  0.1343  0.0339
   48MOL0     C 6408   1.908   7.897   6.500 -0.7217  0.0222 -1.0624
   48MOL0     C 6409   1.847   7.994   6.593 -1.5080 -0.1800  0.2308
   48MOL0     C 6410   1.800   8.064   6.677 -0.0851  0.5851  0.0977
   48MOL0     C 6411   1.774   7.423   6.908  1.5275 -0.1623  0.1622
   48MOL0     C 6412   1.723   7.343   7.006 -0.8272  0.7546  0.6983
   48MOL0     H 6413   1.470   7.515   7.542 -0.3869  0.1144  1.5568
   48MOL0     H 6414   1.385   7.417   7.741 -0.9639 -1.1054  1.1981
   48MOL0     H 6415   1.277   7.017   7.770 -2.3478  0.2306  0.7730
   48MOL0     H 6416   1.440   7.008   7.846  1.1712  3.2488 -1.6995
   48MOL0     H 6417   1.335   7.042   8.064  0.9565 -0.0328 -0.7438
   48MOL0     H 6418   1.195   7.120   7.987 -1.1368 -0.4135 -2.2110
   48MOL0     H 6419   1.269   6.820   7.955 -0.9483  0.5009 -3.7457
   48MOL0     H 6420   1.178   6.888   8.091 -1.2185 -1.3383 -0.0359
   48MOL0     H 6421   1.000   6.969   7.933 -0.8584 -0.2175 -0.9213
   48MOL0     H 6422   1.079   6.894   7.796  0.3141  1.8340  0.0650
   48MOL0     H 6423   1.087   6.682   7.892 -0.0909  2.0029 -4.2312
   48MOL0     H 6424   1.012   6.736   8.042 -1.4588  0.2321 -0.1961
   48MOL0     H 6425   0.800   6.779   7.936  0.4878 -0.2804  1.3265
   48MOL0     H 6426   0.872   6.767   7.779  1.6320  1.0388 -0.0943
   48MOL0     H 6427   0.735   6.564   7.852  1.0729 -1.4239 -0.9262
   48MOL0     H 6428   0.903   6.516   7.832 -1.3236 -2.5612  0.6997
   48MOL0     H 6429   0.797   6.578   8.114  0.5216  3.3164 -1.3620
   48MOL0     H 6430   0.953   6.519   8.060  0.9571 -1.9580 -1.7895
   48MOL0     H 6431   0.713   6.353   8.241  0.4178  1.3650  0.3203
   48MOL0     H 6432   0.828   5.984   8.176 -2.6589 -3.2399  0.1401
   48MOL0     H 6433   0.758   6.082   8.310 -1.9180  0.1049  0.0147
   48MOL0     H 6434   0.537   6.066   8.172 -0.1767  0.7207 -0.6343
   48MOL0     H 6435   0.581   5.923   8.251  0.9912  2.0799  2.2940
   48MOL0     H 6436   0.682   5.819   8.019 -1.3278 -0.2027 -0.6225
   48MOL0     H 6437   0.629   5.975   7.949 -0.5866 -1.3625 -1.7519
   48MOL0     H 6438   0.446   5.806   7.921 -1.6930  0.7549  0.2940
   48MOL0     H 6439   0.392   5.899   8.048 -1.0389 -2.2961  3.9798
   48MOL0     H 6440   0.294   5.679   7.916 -0.9086 -1.3122 -0.4027
   48MOL0     H 6441  -0.023   5.696   7.889  0.0957  0.9656 -2.6610
   48MOL0     H 6442   0.106   5.615   7.800 -1.4937 -0.5080 -0.4588
   48MOL0     H 6443  -0.019   5.519   7.865  0.2916  0.5881 -1.6544
   48MOL0     H 6444  -0.145   5.258   8.341  0.2207  0.1331 -0.4703
   48MOL0     H 6445  -0.353   5.128   8.397 -0.6945 -0.2996 -0.6282
   48MOL0     H 6446  -0.537   5.033   8.496  0.8335 -0.0817  1.4770
   48MOL0     H 6447  -0.485   5.149   8.615  0.1594  2.0947 -0.9007
   48MOL0     H 6448  -0.698   5.243   8.641  0.7021 -1.4239  1.6028
   48MOL0     H 6449  -0.777   5.116   8.541 -0.2975  2.3195 -1.6372
   48MOL0     H 6450  -0.624   5.062   8.810  0.1170 -1.0611  0.5710
   48MOL0     H 6451  -0.714   4.955   8.702 -0.9694  0.0688 -1.9614
   48MOL0     H 6452  -0.868   5.184   8.821  0.9380  0.0654  0.2063
   48MOL0     H 6453  -0.918   5.025   8.758  1.0851 -0.8284 -0.0812
   48MOL0     H 6454  -0.734   5.033   8.997  0.7972  0.4387 -3.2508
   48MOL0     H 6455  -0.816   4.902   8.951 -1.4643 -0.5060 -0.9631
   48MOL0     H 6456  -1.037   4.994   9.015 -1.0886  2.0456  0.8324
   48MOL0     H 6457  -0.926   4.994   9.153 -1.0394  0.3538  1.1561
   48MOL0     H 6458  -0.989   5.229   8.970  1.7181  0.6271 -0.7072
   48MOL0     H 6459  -0.865   5.243   9.092 -0.7450  0.7142  1.7121
   48MOL0     H 6460  -1.085   5.342   9.143  2.6032 -0.4756  1.0644
   48MOL0     H 6461  -1.059   5.222   9.266 -0.0060 -3.7496 -0.2545
   48MOL0     H 6462  -0.575   5.483   8.379  1.1624  0.7661  1.2624
   48MOL0     H 6463  -0.364   5.623   8.320  1.0479 -0.1664 -0.8671
   48MOL0     H 6464   0.106   5.552   8.353 -2.1599 -0.7590 -1.6958
   48MOL0     H 6465   0.341   5.624   8.335  1.1024  0.8027 -0.8020
   48MOL0     H 6466   1.455   7.018   7.587  0.1134 -0.6798 -1.8003
   48MOL0     H 6467   1.579   7.114   7.406  0.0520 -1.2376  1.2855
   48MOL0     H 6468   1.636   7.575   7.227  1.1337 -2.1288  1.6666
   48MOL0     H 6469   1.717   7.724   7.038  0.6371  1.3703 -3.4612
   48MOL0     H 6470   1.969   7.545   6.780 -1.7426  0.2149  0.6478
   48MOL0     H 6471   1.858   7.500   6.652  2.8267 -3.8989  1.1184
   48MOL0     H 6472   2.070   7.662   6.602  0.4965  0.1716  1.8271
   48MOL0     H 6473   2.000   7.779   6.712  2.5507  2.0271 -2.7111
   48MOL0     H 6474   1.778   7.759   6.585  1.0843 -1.8351  0.7358
   48MOL0     H 6475   1.869   7.691   6.453 -0.1311  2.2293 -1.2834
   48MOL0     H 6476   1.872   7.910   6.398  1.9798  2.0385 -1.8813
   48MOL0     H 6477   2.015   7.914   6.515 -1.0566  2.3180 -0.8527
   48MOL0     H 6478   1.757   8.140   6.740 -4.6847 -0.0815 -1.8059
   48MOL0     H 6479   1.802   7.365   6.821 -0.4188 -0.3259 -0.4198
   48MOL0     H 6480   1.707   7.237   6.989  1.3943  0.1584  1.9238
   49MOL0     O 6481   7.870   2.706   4.832 -0.4008 -1.0425  0.1255
   49MOL0     C 6482   7.963   2.791   4.843 -0.1712  0.4383 -0.0064
   49MOL0     O 6483   7.960   2.926   4.804  0.4795  0.2642 -0.9903
   49MOL0     C 6484   7.868   2.975   4.728  0.2058  0.1054  0.1919
   49MOL0     C 6485   7.910   3.066   4.625  0.6758  0.3341  0.1911
   49MOL0     C 6486   7.813   3.117   4.535 -0.1001  0.0690  0.7964
   49MOL0     C 6487   7.674   3.082   4.540  0.7673  0.2561 -0.3668
   49MOL0     O 6488   7.594   3.122   4.437 -0.1455 -0.2318  0.0113
   49MOL0     C 6489   7.455   3.119   4.460  0.4666 -0.1410  1.1626
   49MOL0     C 6490   7.392   3.208   4.348  0.9146 -0.7260 -0.2337
   49MOL0     C 6491   7.305   3.316   4.409  0.4918  0.7202  0.5699
   49MOL0     C 6492   7.244   3.410   4.301 -0.6063 -0.8665  0.0346
   49MOL0     C 6493   7.135   3.517   4.337 -0.5461 -0.1518 -0.5296
   49MOL0     C 6494   7.185   3.645   4.413 -0.2033  1.0084 -0.4193
   49MOL0     C 6495   7.079   3.751   4.434  0.0908 -0.1567  0.4280
   49MOL0     C 6496   6.965   3.685   4.513 -0.2319 -0.7512 -0.1090
   49MOL0     N 6497   6.883   3.794   4.554  0.0936 -0.3496  0.1930
   49MOL0     C 6498   6.811   3.865   4.457 -0.1092  0.3225 -0.4200
   49MOL0     C 6499   6.752   3.966   4.525  0.3290  0.2711  0.0689
   49MOL0     C 6500   6.644   4.038   4.457 -0.0716  0.3754  0.7499
   49MOL0     C 6501   6.508   3.972   4.493  0.0559  0.2055 -0.3919
   49MOL0     C 6502   6.399   4.064   4.443  0.3015  0.4477  0.9309
   49MOL0     C 6503   6.260   3.999   4.462 -0.4580  0.3383 -0.9076
   49MOL0     O 6504   6.252   3.874   4.390  1.1993 -0.5797  0.8565
   49MOL0     C 6505   6.129   3.863   4.328  0.2875  0.5626 -1.7874
   49MOL0     C 6506   6.135   3.770   4.226  0.8165 -0.5108  0.2419
   49MOL0     C 6507   6.012   3.710   4.180 -0.3699  0.7558  0.5245
   49MOL0     C 6508   6.036   3.603   4.071  0.6116 -0.1630  0.2739
   49MOL0     C 6509   5.886   3.738   4.234  0.2085 -0.5966  0.3383
   49MOL0     C 6510   5.754   3.679   4.210 -0.0968 -0.0342 -0.8819
   49MOL0     O 6511   5.649   3.713   4.291 -0.2617  0.6399  1.0369
   49MOL0     C 6512   5.519   3.683   4.253  1.0913 -0.1746  0.1530
   49MOL0     C 6513   5.448   3.610   4.342 -0.1725  0.7771  0.0939
   49MOL0     C 6514   5.312   3.579   4.315  0.2023 -0.7087 -0.0265
   49MOL0     C 6515   5.241   3.647   4.212 -0.5880 -0.1843 -0.0806
   49MOL0     O 6516   5.104   3.635   4.199  0.6544 -0.4449 -0.1469
   49MOL0     C 6517   5.047   3.659   4.061 -0.5226 -0.9103  0.0428
   49MOL0     C 6518   4.929   3.580   4.042 -0.2016  0.3950 -0.1925
   49MOL0     C 6519   4.862   3.590   3.909 -0.1900  0.9420  0.8200
   49MOL0     C 6520   4.913   3.487   3.808  0.0021  0.4769  0.0339
   49MOL0     C 6521   4.851   3.488   3.672 -0.1395  0.5583 -0.0054
   49MOL0     C 6522   4.854   3.343   3.602  0.5169 -0.1180  0.0615
   49MOL0     C 6523   4.816   3.371   3.459  0.7378  0.7008 -0.0812
   49MOL0     C 6524   4.841   3.248   3.380 -0.3237 -0.1293  0.9797
   49MOL0    Cl 6525   5.014   3.216   3.371 -0.2381 -0.1159 -0.0742
   49MOL0     C 6526   5.318   3.729   4.127 -0.3015  0.1119 -0.1940
   49MOL0     C 6527   5.454   3.741   4.140 -0.1459  0.5246  0.3982
   49MOL0     O 6528   5.746   3.593   4.119 -0.0175  0.4787  0.1728
   49MOL0     C 6529   5.888   3.836   4.340  0.1155  0.4697 -0.2706
   49MOL0     C 6530   6.002   3.899   4.380 -0.0687 -0.2636  0.4909
   49MOL0     N 6531   6.788   3.963   4.663 -0.5172 -0.1212  0.2314
   49MOL0     N 6532   6.866   3.856   4.677 -0.2012  0.9879  0.7321
   49MOL0     C 6533   7.636   2.998   4.645  0.0761 -0.8772 -0.1944
   49MOL0     C 6534   7.729   2.951   4.739  0.0911  0.4484 -0.3903
   49MOL0     C 6535   8.091   2.739   4.900 -0.3035  0.3861 -0.1268
   49MOL0     C 6536   8.217   2.802   4.872  0.2655 -0.1981 -0.2809
   49MOL0     C 6537   8.332   2.743   4.938 -0.2842 -0.3764 -0.2090
   49MOL0     C 6538   8.338   2.626   5.009  1.2935 -0.5419  1.1795
   49MOL0     O 6539   8.457   2.585   5.059 -0.2078  0.6886  0.6698
   49MOL0     C 6540   8.453   2.507   5.179  0.3756  0.1239  0.2033
   49MOL0     C 6541   8.592   2.452   5.210 -0.2144 -0.6495 -0.0108
   49MOL0     C 6542   8.688   2.578   5.207 -0.2424 -0.8350 -0.2426
   49MOL0     C 6543   8.817   2.538   5.275  0.4447 -0.1975  0.1140
   49MOL0     C 6544   8.934   2.620   5.233  0.2991 -0.3813 -0.2865
   49MOL0     C 6545   9.028   2.692   5.203 -0.1391  0.5380  0.5025
   49MOL0     C 6546   8.212   2.564   5.024 -0.5006  0.0358  0.5404
   49MOL0     C 6547   8.091   2.610   4.969  0.3720 -0.3328 -0.1826
   49MOL0     H 6548   8.014   3.095   4.617  1.0754 -1.0538  0.0982
   49MOL0     H 6549   7.847   3.185   4.457 -1.4049 -1.0415 -0.7945
   49MOL0     H 6550   7.433   3.014   4.442  1.2774 -0.3308  1.2333
   49MOL0     H 6551   7.438   3.168   4.557  3.6001  2.8430  0.4091
   49MOL0     H 6552   7.468   3.261   4.290 -0.5060  1.8640  0.0943
   49MOL0     H 6553   7.328   3.148   4.283  1.0228 -0.6743 -0.3871
   49MOL0     H 6554   7.227   3.261   4.462  1.7512 -2.6463 -0.8415
   49MOL0     H 6555   7.369   3.372   4.479  2.0754 -1.1723  0.7130
   49MOL0     H 6556   7.321   3.460   4.242 -0.4163 -0.7687  0.3670
   49MOL0     H 6557   7.196   3.351   4.223  1.1085  0.0568 -1.8025
   49MOL0     H 6558   7.107   3.552   4.237  2.1103  2.2282 -0.5627
   49MOL0     H 6559   7.066   3.464   4.403  1.9049 -0.7709  1.6994
   49MOL0     H 6560   7.223   3.614   4.511  2.1390  3.6944 -0.3316
   49MOL0     H 6561   7.273   3.686   4.363 -0.9135 -0.2261 -2.8256
   49MOL0     H 6562   7.124   3.836   4.486  1.6467 -1.1054  0.6979
   49MOL0     H 6563   7.047   3.791   4.337 -0.1778  2.7638  1.6469
   49MOL0     H 6564   6.993   3.646   4.611 -0.9109  0.4869  0.6083
   49MOL0     H 6565   6.899   3.614   4.462  0.3694 -1.0097 -0.5451
   49MOL0     H 6566   6.793   3.841   4.352 -2.5039 -1.0957  0.2385
   49MOL0     H 6567   6.661   4.145   4.471 -3.3289  0.6346  4.1107
   49MOL0     H 6568   6.667   4.028   4.350  0.5644 -0.1016  0.9259
   49MOL0     H 6569   6.498   3.959   4.602  1.8104 -2.7129 -0.4780
   49MOL0     H 6570   6.504   3.875   4.443  1.2805 -1.3603  2.2876
   49MOL0     H 6571   6.415   4.080   4.336  0.2556 -1.9583  0.5203
   49MOL0     H 6572   6.408   4.161   4.492  2.3611  0.4778  0.5908
   49MOL0     H 6573   6.201   4.086   4.431  1.1553  1.3904 -1.1493
   49MOL0     H 6574   6.219   3.976   4.561 -1.5411  2.1262 -0.9021
   49MOL0     H 6575   6.230   3.733   4.189  1.3352  1.1681 -0.2040
   49MOL0     H 6576   6.141   3.602   4.042  0.0442 -1.6010 -2.0451
   49MOL0     H 6577   5.992   3.505   4.090 -1.6931  0.4894 -1.2948
   49MOL0     H 6578   5.982   3.640   3.983 -0.4493 -0.7151  0.6661
   49MOL0     H 6579   5.502   3.551   4.415  1.3562  1.5210 -0.3766
   49MOL0     H 6580   5.251   3.512   4.375 -0.1580  0.0838  0.5172
   49MOL0     H 6581   5.012   3.760   4.040  2.0228 -0.0336 -0.3230
   49MOL0     H 6582   5.121   3.638   3.983  0.8245 -1.0512  1.3167
   49MOL0     H 6583   4.956   3.477   4.067 -1.2140  0.6395  2.1262
   49MOL0     H 6584   4.850   3.606   4.113  0.0348 -0.7121  0.5073
   49MOL0     H 6585   4.874   3.691   3.870 -1.9704  0.8848  0.0362
   49MOL0     H 6586   4.755   3.566   3.918 -0.6869  1.0895 -2.9489
   49MOL0     H 6587   5.022   3.491   3.803 -0.0451  0.5807 -2.4608
   49MOL0     H 6588   4.884   3.390   3.849  0.2863  0.0157 -0.8244
   49MOL0     H 6589   4.905   3.569   3.622  0.4246  1.3981  1.8824
   49MOL0     H 6590   4.747   3.519   3.681  0.1289  1.5802 -0.2733
   49MOL0     H 6591   4.955   3.301   3.604 -0.0257 -1.5032 -0.0561
   49MOL0     H 6592   4.793   3.266   3.650  1.5831 -0.3353  1.1396
   49MOL0     H 6593   4.875   3.456   3.423 -0.8928  1.0161 -2.2111
   49MOL0     H 6594   4.710   3.397   3.456  1.5493  4.4584 -0.7687
   49MOL0     H 6595   4.803   3.254   3.277  1.7716 -3.3434 -0.1206
   49MOL0     H 6596   4.789   3.167   3.433 -0.5784 -0.8221 -0.2871
   49MOL0     H 6597   5.280   3.780   4.039  0.1040 -0.7476 -0.8785
   49MOL0     H 6598   5.502   3.809   4.069 -0.4817  1.6366  1.2044
   49MOL0     H 6599   5.797   3.858   4.394  0.2197 -0.0983  0.1365
   49MOL0     H 6600   5.991   3.964   4.466 -4.3473 -2.0031  1.4925
   49MOL0     H 6601   7.532   2.968   4.659 -0.7028  1.2464 -1.0163
   49MOL0     H 6602   7.688   2.875   4.804 -2.9693  1.9647 -0.4014
   49MOL0     H 6603   8.219   2.888   4.805 -0.1741 -1.1524 -1.5629
   49MOL0     H 6604   8.421   2.804   4.938  0.4484 -1.3894  1.1950
   49MOL0     H 6605   8.407   2.567   5.258 -3.5632 -0.1066 -1.6631
   49MOL0     H 6606   8.391   2.417   5.165  4.4458 -2.6217 -2.3754
   49MOL0     H 6607   8.628   2.369   5.148  1.4858 -0.4703  0.6863
   49MOL0     H 6608   8.591   2.411   5.311 -1.2530  0.1070  0.3058
   49MOL0     H 6609   8.643   2.653   5.273  1.6822 -2.3043  2.9159
   49MOL0     H 6610   8.699   2.625   5.108 -1.1988 -0.7640 -0.3215
   49MOL0     H 6611   8.838   2.433   5.250  1.3196 -0.2770  1.1111
   49MOL0     H 6612   8.811   2.551   5.383  0.1571  1.4760 -0.0790
   49MOL0     H 6613   9.107   2.758   5.171 -2.0488  2.0987 -1.2873
   49MOL0     H 6614   8.202   2.478   5.090 -4.4029 -1.0338 -1.1574
   49MOL0     H 6615   7.997   2.558   4.982  0.0931  0.4951  1.4256
   50MOL0     O 6616   7.875   9.731   4.633 -0.2208 -0.7240 -0.1480
   50MOL0     C 6617   7.858   9.651   4.546  0.9781  0.4270  0.7154
   50MOL0     O 6618   7.836   9.512   4.557 -0.2548  0.2903 -0.1106
   50MOL0     C 6619   7.844   9.462   4.678 -0.5800 -0.6331 -0.0604
   50MOL0     C 6620   7.743   9.366   4.702 -0.3743 -1.1505  0.5153
   50MOL0     C 6621   7.741   9.291   4.816  0.1363 -0.2029 -0.3797
   50MOL0     C 6622   7.845   9.307   4.907  0.7175 -0.2066  0.0626
   50MOL0     O 6623   7.855   9.222   5.017  0.5036 -0.1038  0.1705
   50MOL0     C 6624   7.910   9.270   5.145 -0.1067  1.1066 -0.1444
   50MOL0     C 6625   7.857   9.189   5.255 -0.4022  0.6489  0.8366
   50MOL0     C 6626   7.916   9.212   5.387  0.5134  1.1208  0.0705
   50MOL0     C 6627   7.883   9.347   5.442  0.0550  0.1354 -1.0750
   50MOL0     C 6628   7.882   9.359   5.599 -0.7401  0.1322  0.9190
   50MOL0     C 6629   7.798   9.477   5.665  0.8426  0.1864 -0.7122
   50MOL0     C 6630   7.768   9.448   5.807  0.6885 -0.3911 -0.3110
   50MOL0     C 6631   7.892   9.465   5.891  0.2377  0.4891 -0.0541
   50MOL0     N 6632   7.883   9.442   6.035  1.0110 -0.5265  0.0542
   50MOL0     C 6633   7.777   9.472   6.111  0.6276 -0.2069 -0.4983
   50MOL0     C 6634   7.807   9.414   6.225  0.1385  0.3002 -0.3185
   50MOL0     C 6635   7.740   9.402   6.358 -0.0304 -0.4717 -0.0406
   50MOL0     C 6636   7.594   9.403   6.326  0.8203  0.7136  0.0912
   50MOL0     C 6637   7.544   9.271   6.254  0.5428 -0.6094  0.2381
   50MOL0     C 6638   7.392   9.261   6.255 -0.2034  0.3987 -0.7041
   50MOL0     O 6639   7.336   9.356   6.167 -0.0891 -0.2135  0.1963
   50MOL0     C 6640   7.226   9.423   6.215 -0.4763 -0.4565  0.6357
   50MOL0     C 6641   7.230   9.563   6.230  0.5774  0.9423 -0.0655
   50MOL0     C 6642   7.123   9.639   6.280 -0.7939  0.6516  0.4728
   50MOL0     C 6643   7.143   9.788   6.281  0.4733 -0.3033 -0.0004
   50MOL0     C 6644   7.004   9.570   6.317  0.4424  0.4332  1.0919
   50MOL0     C 6645   6.886   9.631   6.382  0.0584 -0.3714  0.5643
   50MOL0     O 6646   6.790   9.554   6.432  0.3575 -0.2001 -0.1966
   50MOL0     C 6647   6.700   9.600   6.526 -0.4681 -0.4901 -0.4523
   50MOL0     C 6648   6.655   9.511   6.626  0.4786 -0.0818 -0.1077
   50MOL0     C 6649   6.554   9.543   6.718  0.2326 -0.5350  0.0204
   50MOL0     C 6650   6.511   9.675   6.724  0.3130  0.7218  0.6800
   50MOL0     O 6651   6.410   9.679   6.811  0.0924 -0.5471 -0.1391
   50MOL0     C 6652   6.311   9.786   6.786 -0.4449 -0.5537 -0.4303
   50MOL0     C 6653   6.213   9.792   6.909 -0.2561 -0.4774  0.0125
   50MOL0     C 6654   6.107   9.692   6.886 -0.1501  0.5229  0.1094
   50MOL0     C 6655   5.997   9.691   6.995  0.0355 -0.5884  0.7989
   50MOL0     C 6656   5.917   9.561   7.016  0.7354  0.2302  0.5862
   50MOL0     C 6657   5.853   9.526   6.889  1.3097  0.5656  0.1094
   50MOL0     C 6658   5.723   9.449   6.910 -0.0690 -0.7737 -0.1448
   50MOL0     C 6659   5.724   9.327   6.996 -0.0752 -0.3189 -0.0600
   50MOL0    Cl 6660   5.802   9.193   6.899  0.1956  0.0839 -0.1528
   50MOL0     C 6661   6.560   9.769   6.635  0.3371  0.2087  0.8446
   50MOL0     C 6662   6.650   9.725   6.540  0.0345 -0.1019  0.9599
   50MOL0     O 6663   6.886   9.752   6.389  0.2823  1.7093 -0.5576
   50MOL0     C 6664   7.001   9.429   6.296  0.3853 -0.3743  0.0132
   50MOL0     C 6665   7.115   9.361   6.253  0.8953 -0.3798  1.0822
   50MOL0     N 6666   7.938   9.368   6.219  0.4815  0.8445  0.4097
   50MOL0     N 6667   7.983   9.381   6.101 -0.1071 -0.5446  0.5001
   50MOL0     C 6668   7.942   9.405   4.892 -0.3361 -0.3865  0.2974
   50MOL0     C 6669   7.943   9.483   4.777  0.5530 -0.9399 -0.5082
   50MOL0     C 6670   7.822   9.708   4.412 -0.6261  0.2470  0.8057
   50MOL0     C 6671   7.894   9.812   4.352 -0.3324 -0.7525  0.2139
   50MOL0     C 6672   7.857   9.856   4.216 -0.9257 -0.5370  0.2125
   50MOL0     C 6673   7.745   9.802   4.156 -0.4281 -0.1700 -0.1979
   50MOL0     O 6674   7.697   9.843   4.030  0.4696 -0.6052 -0.0691
   50MOL0     C 6675   7.711   9.984   4.003 -0.7273 -0.0453 -0.2852
   50MOL0     C 6676   7.663  10.001   3.867 -0.0600  0.0885  0.7195
   50MOL0     C 6677   7.507  10.020   3.863 -0.0603  0.3948 -0.4935
   50MOL0     C 6678   7.442  10.012   3.731 -0.2935 -0.6548  0.3516
   50MOL0     C 6679   7.305  10.066   3.729 -0.6977  0.1667  0.1510
   50MOL0     C 6680   7.189  10.106   3.734  0.0049 -0.0905 -0.0993
   50MOL0     C 6681   7.670   9.706   4.214 -0.3647 -0.5011 -0.0384
   50MOL0     C 6682   7.711   9.667   4.336  0.6352 -1.0034 -0.5670
   50MOL0     H 6683   7.670   9.347   4.624  1.6912 -2.1708 -1.2583
   50MOL0     H 6684   7.671   9.208   4.823  0.4182 -0.3989  0.1539
   50MOL0     H 6685   8.017   9.257   5.127 -0.5929  0.5317 -3.1815
   50MOL0     H 6686   7.886   9.374   5.169  0.6819  0.9148  1.6140
   50MOL0     H 6687   7.748   9.183   5.254 -0.4610 -1.6240 -3.2751
   50MOL0     H 6688   7.890   9.089   5.225 -0.2598  1.4497 -1.9947
   50MOL0     H 6689   7.872   9.138   5.455 -0.8463 -0.7708 -2.6948
   50MOL0     H 6690   8.025   9.198   5.384  0.2168 -1.7805 -0.7120
   50MOL0     H 6691   7.956   9.415   5.399 -1.4068  1.0113 -2.2801
   50MOL0     H 6692   7.783   9.380   5.413 -1.6302 -3.5292 -0.0386
   50MOL0     H 6693   7.844   9.267   5.643 -2.3217  0.8657  1.1556
   50MOL0     H 6694   7.984   9.360   5.639  0.7804  1.2577 -2.5768
   50MOL0     H 6695   7.844   9.574   5.644  1.5527 -0.5099 -2.5853
   50MOL0     H 6696   7.703   9.474   5.612  0.1801 -3.7378  0.3554
   50MOL0     H 6697   7.694   9.519   5.844  0.7431  0.6036 -2.0271
   50MOL0     H 6698   7.717   9.351   5.810 -2.2027  0.9868 -1.8109
   50MOL0     H 6699   7.928   9.568   5.879  0.0354  0.7380  1.3622
   50MOL0     H 6700   7.979   9.413   5.849 -0.8696  0.7393 -2.9286
   50MOL0     H 6701   7.690   9.535   6.095 -0.8790 -1.4741  2.1781
   50MOL0     H 6702   7.777   9.313   6.408  1.9852  0.3144 -0.0616
   50MOL0     H 6703   7.773   9.489   6.416  0.7986 -1.0745  0.4061
   50MOL0     H 6704   7.572   9.484   6.256  0.2540 -0.2523 -0.8819
   50MOL0     H 6705   7.539   9.413   6.420 -0.4455 -2.2003 -0.2218
   50MOL0     H 6706   7.583   9.187   6.312  1.4711  0.8959  1.8755
   50MOL0     H 6707   7.590   9.260   6.155  1.1522 -2.0632  0.6563
   50MOL0     H 6708   7.361   9.294   6.355  0.6781  2.9099 -1.1990
   50MOL0     H 6709   7.353   9.162   6.229 -2.8418  1.4462 -1.0123
   50MOL0     H 6710   7.327   9.600   6.197  0.4244  2.3072  0.9435
   50MOL0     H 6711   7.137   9.824   6.385 -0.5291  3.5220 -1.2152
   50MOL0     H 6712   7.242   9.828   6.256 -1.1878  5.2486  1.0006
   50MOL0     H 6713   7.062   9.841   6.231 -0.8518 -0.5608  1.7581
   50MOL0     H 6714   6.697   9.411   6.632  0.5237 -0.1720 -1.5562
   50MOL0     H 6715   6.510   9.471   6.787 -2.8912  0.6778 -0.5383
   50MOL0     H 6716   6.361   9.883   6.777  0.6948 -1.1157 -0.3684
   50MOL0     H 6717   6.253   9.758   6.697 -2.4265  1.4244  0.1606
   50MOL0     H 6718   6.262   9.755   6.999  0.7207 -3.0178 -1.4662
   50MOL0     H 6719   6.176   9.896   6.911  1.9283  0.4260 -2.2706
   50MOL0     H 6720   6.157   9.595   6.896  0.7242  1.1894  3.2461
   50MOL0     H 6721   6.050   9.710   6.795 -1.4042  0.4521  0.8606
   50MOL0     H 6722   6.058   9.709   7.084 -0.9211  2.5797  0.9254
   50MOL0     H 6723   5.933   9.778   6.977 -1.2125 -1.3549  1.4263
   50MOL0     H 6724   5.849   9.585   7.098 -0.0919  0.0476 -0.0406
   50MOL0     H 6725   5.981   9.478   7.048 -1.6745 -2.4606 -1.1325
   50MOL0     H 6726   5.817   9.619   6.846  1.0005  1.6538  2.5559
   50MOL0     H 6727   5.926   9.460   6.840  2.6122  0.0697  2.5178
   50MOL0     H 6728   5.683   9.431   6.810  1.1765  1.5367 -1.1150
   50MOL0     H 6729   5.649   9.516   6.954 -0.0176  1.4905 -3.2179
   50MOL0     H 6730   5.622   9.299   7.026  0.5189 -3.2413 -0.4939
   50MOL0     H 6731   5.783   9.340   7.088  0.3290 -2.7257  0.0808
   50MOL0     H 6732   6.518   9.868   6.653 -1.0711 -0.3418  0.7255
   50MOL0     H 6733   6.695   9.803   6.480 -1.0595  0.5717  0.9785
   50MOL0     H 6734   6.916   9.371   6.331 -1.3348  1.4961 -0.8357
   50MOL0     H 6735   7.118   9.253   6.267  2.3215 -0.1733  2.7298
   50MOL0     H 6736   8.029   9.403   4.958 -1.0996 -2.4023  1.3106
   50MOL0     H 6737   8.016   9.560   4.754 -0.0070 -0.6614 -1.3875
   50MOL0     H 6738   7.991   9.839   4.391 -0.3554 -0.3493  0.0017
   50MOL0     H 6739   7.917   9.931   4.165  2.6410 -0.8977  3.3833
   50MOL0     H 6740   7.653  10.043   4.075  0.1337  1.3585 -0.6815
   50MOL0     H 6741   7.815  10.019   4.002 -1.1221  1.2654  0.9421
   50MOL0     H 6742   7.682   9.909   3.812  0.0824  1.5199 -1.7449
   50MOL0     H 6743   7.705  10.087   3.814 -1.8454  0.5765  0.0125
   50MOL0     H 6744   7.476  10.115   3.908  0.1073  0.9516 -1.5239
   50MOL0     H 6745   7.467   9.937   3.921  0.8636 -0.7920 -1.5070
   50MOL0     H 6746   7.443   9.911   3.689 -1.3854 -0.6121  0.2158
   50MOL0     H 6747   7.508  10.077   3.672 -2.0274  0.6927 -0.1661
   50MOL0     H 6748   7.086  10.136   3.737 -0.1556 -0.7108  1.2909
   50MOL0     H 6749   7.576   9.669   4.175  0.2788 -0.2922 -1.8991
   50MOL0     H 6750   7.641   9.600   4.385  1.3069 -0.9346  0.5409
   51MOL0     O 6751   5.686   5.914   7.535 -0.0562 -0.1476 -0.5602
   51MOL0     C 6752   5.708   5.809   7.589  0.5852 -0.1630  0.0522
   51MOL0     O 6753   5.613   5.716   7.615  1.0123  0.3563 -0.7647
   51MOL0     C 6754   5.485   5.744   7.578  0.3597  0.5950  0.2455
   51MOL0     C 6755   5.448   5.774   7.447 -0.2957  0.5312 -0.8398
   51MOL0     C 6756   5.313   5.769   7.404  0.5261  1.0665  0.7058
   51MOL0     C 6757   5.212   5.740   7.495  0.2530  0.0026 -1.1178
   51MOL0     O 6758   5.079   5.734   7.467  0.6094 -0.2969 -0.4175
   51MOL0     C 6759   5.037   5.724   7.337 -0.0614 -0.2071 -0.0193
   51MOL0     C 6760   4.890   5.662   7.330 -0.1078 -0.4614  0.8579
   51MOL0     C 6761   4.865   5.612   7.187 -0.0318  0.2682  0.1342
   51MOL0     C 6762   4.723   5.571   7.169  0.6060 -0.4729  0.7682
   51MOL0     C 6763   4.710   5.529   7.019 -0.3780  0.4238  0.3213
   51MOL0     C 6764   4.569   5.475   6.972 -0.1542 -1.1894  0.3378
   51MOL0     C 6765   4.525   5.343   7.011  0.1696  0.3920 -0.8040
   51MOL0     C 6766   4.382   5.312   6.971  0.3025  0.4580  0.0066
   51MOL0     N 6767   4.374   5.273   6.830 -0.4225 -0.5931  0.3218
   51MOL0     C 6768   4.428   5.160   6.781 -0.4311  0.1342 -0.3759
   51MOL0     C 6769   4.401   5.158   6.646 -0.2714 -0.4508 -0.4195
   51MOL0     C 6770   4.447   5.069   6.538  0.3968 -0.8952 -0.4263
   51MOL0     C 6771   4.491   4.927   6.582  0.0348  0.8919  1.2221
   51MOL0     C 6772   4.378   4.852   6.653 -0.0453  0.6533 -0.0545
   51MOL0     C 6773   4.248   4.833   6.566  0.2064 -0.9405  0.1035
   51MOL0     O 6774   4.131   4.780   6.646 -0.5588  0.0079  0.5581
   51MOL0     C 6775   4.062   4.669   6.595  0.9314 -1.0740 -0.0042
   51MOL0     C 6776   4.116   4.559   6.523  0.2582 -0.6498  0.7824
   51MOL0     C 6777   4.027   4.462   6.472 -0.5488  0.3022 -0.1052
   51MOL0     C 6778   4.105   4.354   6.394  0.2117  0.4397 -0.1134
   51MOL0     C 6779   3.886   4.461   6.490  0.2706 -0.7146  0.2887
   51MOL0     C 6780   3.793   4.369   6.424  0.5942  0.1254 -0.4928
   51MOL0     O 6781   3.661   4.383   6.456  0.1016 -0.3235 -0.0733
   51MOL0     C 6782   3.569   4.298   6.398 -0.2624 -0.9809 -0.1770
   51MOL0     C 6783   3.543   4.183   6.464  0.3060  0.1257 -0.0469
   51MOL0     C 6784   3.428   4.101   6.430  0.4500  0.3168  0.3565
   51MOL0     C 6785   3.348   4.136   6.319  0.6184 -0.9087 -0.1211
   51MOL0     O 6786   3.241   4.067   6.272  0.2103  0.4682 -0.1589
   51MOL0     C 6787   3.219   3.936   6.325  0.5789  0.8806 -0.2754
   51MOL0     C 6788   3.087   3.879   6.276 -0.9320  0.1687 -0.1792
   51MOL0     C 6789   2.961   3.930   6.344  0.1660  0.6482 -0.7898
   51MOL0     C 6790   2.837   3.907   6.258 -0.0101  1.0163 -0.9320
   51MOL0     C 6791   2.714   3.924   6.347  1.2734  0.3432 -0.0968
   51MOL0     C 6792   2.589   3.899   6.267  0.1164  0.0482  0.2527
   51MOL0     C 6793   2.466   3.893   6.356 -0.5086 -0.3403 -0.2777
   51MOL0     C 6794   2.342   3.851   6.275  0.3759  0.0146 -0.6733
   51MOL0    Cl 6795   2.215   3.789   6.398  0.0715  0.0250  0.0528
   51MOL0     C 6796   3.381   4.254   6.248  0.1491 -0.5319  0.6022
   51MOL0     C 6797   3.494   4.332   6.282 -0.7190  0.1087  0.7675
   51MOL0     O 6798   3.834   4.294   6.343  0.3358 -0.8771  0.0857
   51MOL0     C 6799   3.833   4.562   6.574  0.2751 -0.4458 -0.2383
   51MOL0     C 6800   3.920   4.663   6.616 -0.4026 -0.3451 -0.2923
   51MOL0     N 6801   4.319   5.263   6.623  0.4025 -0.2921  0.2775
   51MOL0     N 6802   4.292   5.324   6.730 -0.8417  0.9545  0.4008
   51MOL0     C 6803   5.248   5.726   7.632 -0.5942  0.4606  1.3774
   51MOL0     C 6804   5.379   5.742   7.664 -1.6781  0.0779 -0.3532
   51MOL0     C 6805   5.849   5.780   7.612 -0.4313  0.3435 -0.9352
   51MOL0     C 6806   5.890   5.649   7.643  0.1120  0.2061 -0.3532
   51MOL0     C 6807   6.021   5.624   7.682 -0.7770 -1.1262 -0.0141
   51MOL0     C 6808   6.119   5.731   7.684 -0.7243  0.7647  0.2997
   51MOL0     O 6809   6.239   5.717   7.746  0.1819  0.0265 -0.1499
   51MOL0     C 6810   6.244   5.623   7.857 -0.3405 -0.3837  0.2699
   51MOL0     C 6811   6.370   5.649   7.935  0.1377  0.3805  0.5140
   51MOL0     C 6812   6.386   5.764   8.036  0.7517 -0.1331 -0.2038
   51MOL0     C 6813   6.258   5.772   8.110  1.0394 -0.4585  0.1853
   51MOL0     C 6814   6.261   5.890   8.197 -1.0689  0.2322 -0.0669
   51MOL0     C 6815   6.262   5.995   8.254 -0.2354 -0.4352 -0.2189
   51MOL0     C 6816   6.080   5.856   7.637 -0.3563  1.2864  0.1325
   51MOL0     C 6817   5.944   5.882   7.610  0.3741 -0.1496  0.1540
   51MOL0     H 6818   5.522   5.787   7.368  1.4800  0.7323  0.8059
   51MOL0     H 6819   5.290   5.788   7.300  0.8500 -1.0956  0.1856
   51MOL0     H 6820   5.044   5.827   7.300 -0.3705  0.6583  2.1691
   51MOL0     H 6821   5.105   5.665   7.275  1.5671 -0.3886  1.8358
   51MOL0     H 6822   4.879   5.570   7.388  0.8270 -1.2099 -0.1053
   51MOL0     H 6823   4.821   5.741   7.359  2.4099  2.2104  0.0901
   51MOL0     H 6824   4.897   5.689   7.117  2.4951  0.2216  1.1229
   51MOL0     H 6825   4.936   5.529   7.184  1.6307  1.5268  2.0069
   51MOL0     H 6826   4.708   5.476   7.222 -2.0459  0.1047  1.1738
   51MOL0     H 6827   4.665   5.654   7.209 -0.8255 -0.5120 -1.1036
   51MOL0     H 6828   4.732   5.621   6.965 -0.2112  0.7091  0.8747
   51MOL0     H 6829   4.795   5.470   6.983  0.9521  2.2396  0.3834
   51MOL0     H 6830   4.491   5.546   7.001 -1.2650 -2.0421 -0.4680
   51MOL0     H 6831   4.568   5.486   6.863 -1.3290  0.5231  0.4756
   51MOL0     H 6832   4.598   5.269   6.978 -1.3797 -1.2936 -0.6479
   51MOL0     H 6833   4.519   5.327   7.119 -0.3907  0.2547 -0.8504
   51MOL0     H 6834   4.308   5.391   6.987 -3.6542 -2.5266 -1.6012
   51MOL0     H 6835   4.353   5.219   7.021 -0.0007 -0.1498 -1.2483
   51MOL0     H 6836   4.487   5.093   6.844  3.3622  3.2279 -0.2365
   51MOL0     H 6837   4.366   5.066   6.465 -0.5132 -1.0122  0.5635
   51MOL0     H 6838   4.527   5.125   6.488 -1.0558  0.2819 -1.5381
   51MOL0     H 6839   4.583   4.936   6.641  0.5305  0.6775  0.4981
   51MOL0     H 6840   4.521   4.877   6.490  3.5666 -0.3376  2.8807
   51MOL0     H 6841   4.338   4.902   6.742  1.2755 -1.1800  1.6691
   51MOL0     H 6842   4.422   4.756   6.682  1.0778  1.3109  0.4368
   51MOL0     H 6843   4.268   4.767   6.481 -0.8676  0.1546 -1.0531
   51MOL0     H 6844   4.213   4.935   6.546 -0.5787 -1.1812  0.1936
   51MOL0     H 6845   4.221   4.548   6.501 -0.2108 -0.2338 -1.9716
   51MOL0     H 6846   4.209   4.352   6.427  0.9919  2.8093 -2.1320
   51MOL0     H 6847   4.067   4.252   6.409  4.4909 -1.3996 -0.3000
   51MOL0     H 6848   4.097   4.392   6.292 -3.0765  0.8512  0.1723
   51MOL0     H 6849   3.606   4.171   6.553  4.4255  0.6623 -2.5999
   51MOL0     H 6850   3.412   4.017   6.497 -0.0980  2.0163  2.4690
   51MOL0     H 6851   3.296   3.862   6.303 -0.8355 -0.6813 -0.1239
   51MOL0     H 6852   3.220   3.948   6.434  0.2574  0.5650 -0.2369
   51MOL0     H 6853   3.077   3.905   6.170 -0.9060 -0.7529 -0.4170
   51MOL0     H 6854   3.091   3.769   6.275 -1.8751  0.1279 -0.2119
   51MOL0     H 6855   2.973   4.035   6.371 -1.1540  0.1472  2.1215
   51MOL0     H 6856   2.948   3.892   6.446 -0.3666  1.5895 -0.4978
   51MOL0     H 6857   2.824   3.976   6.174  0.6146  3.4151  0.8223
   51MOL0     H 6858   2.843   3.801   6.231  0.6693  0.4780  1.1868
   51MOL0     H 6859   2.710   4.029   6.379 -2.2448  0.2758  0.0425
   51MOL0     H 6860   2.717   3.854   6.431 -1.1643 -1.2090 -1.1816
   51MOL0     H 6861   2.568   3.975   6.191  0.0812 -0.5125 -0.3048
   51MOL0     H 6862   2.599   3.806   6.211  0.9732  1.1940 -1.5984
   51MOL0     H 6863   2.448   3.992   6.398 -0.6091 -0.9731  1.2370
   51MOL0     H 6864   2.476   3.817   6.433 -4.3186 -1.4802 -0.7129
   51MOL0     H 6865   2.363   3.766   6.210  0.2877 -0.2557 -0.3523
   51MOL0     H 6866   2.293   3.931   6.219  2.3794  1.1877 -0.8458
   51MOL0     H 6867   3.323   4.291   6.164 -2.1268  1.5776  2.9521
   51MOL0     H 6868   3.531   4.410   6.217 -2.4367 -0.3269 -0.8027
   51MOL0     H 6869   3.727   4.569   6.591  0.5611  1.7620  1.0584
   51MOL0     H 6870   3.885   4.746   6.677 -0.9459  0.4463 -1.6477
   51MOL0     H 6871   5.168   5.713   7.703 -1.1023  0.6323  0.8453
   51MOL0     H 6872   5.386   5.753   7.772 -0.5351  1.8953 -0.5587
   51MOL0     H 6873   5.821   5.565   7.646 -0.4054  0.6342 -0.1141
   51MOL0     H 6874   6.043   5.527   7.726 -2.2901 -0.7917  1.5984
   51MOL0     H 6875   6.160   5.632   7.926 -0.5897 -1.1208  0.0683
   51MOL0     H 6876   6.237   5.519   7.826 -1.7346 -0.3336  0.3702
   51MOL0     H 6877   6.455   5.654   7.867 -1.4100 -1.3102 -1.6965
   51MOL0     H 6878   6.385   5.552   7.982  2.4883 -0.0905 -1.0539
   51MOL0     H 6879   6.396   5.860   7.984  0.9528  0.2931  0.6057
   51MOL0     H 6880   6.477   5.753   8.095  1.2481 -2.6212 -1.3264
   51MOL0     H 6881   6.231   5.679   8.161  2.8129 -0.6249  0.8969
   51MOL0     H 6882   6.178   5.805   8.043  1.4238  2.4014  0.9926
   51MOL0     H 6883   6.280   6.087   8.307 -2.9588 -0.2021  0.4743
   51MOL0     H 6884   6.157   5.931   7.647  0.6234  0.3046  0.1171
   51MOL0     H 6885   5.913   5.985   7.595  3.1780  1.3356  3.2749
   52MOL0     O 6886   4.674   0.895   4.909  0.6621  0.0688 -0.1521
   52MOL0     C 6887   4.707   1.010   4.943  1.0323  0.4281 -0.1142
   52MOL0     O 6888   4.617   1.110   4.944 -0.9461  0.2617  0.3316
   52MOL0     C 6889   4.483   1.080   4.958  0.8395  0.1274 -0.3707
   52MOL0     C 6890   4.386   1.158   4.886 -0.4097  0.9587  0.4339
   52MOL0     C 6891   4.245   1.139   4.913  0.0825 -0.7431  0.0914
   52MOL0     C 6892   4.204   1.057   5.020 -0.2955 -0.5580 -0.0819
   52MOL0     O 6893   4.073   1.059   5.078  0.4640 -0.0664 -1.1184
   52MOL0     C 6894   3.990   1.161   5.033  0.0163 -1.5240  0.5463
   52MOL0     C 6895   3.844   1.120   5.055  1.2651  0.0883  0.2185
   52MOL0     C 6896   3.751   1.235   5.027  0.1845  0.4785  0.7396
   52MOL0     C 6897   3.604   1.201   5.055  0.3270  0.7381  0.8256
   52MOL0     C 6898   3.549   1.109   4.948  0.2618  0.3082  1.2002
   52MOL0     C 6899   3.410   1.060   4.980 -0.2175 -0.3518 -0.3149
   52MOL0     C 6900   3.311   1.164   5.034 -0.4440  0.2253 -0.5976
   52MOL0     C 6901   3.168   1.110   5.059 -0.4413 -0.3924 -0.3907
   52MOL0     N 6902   3.085   1.095   4.943 -0.3493  0.3886 -0.1093
   52MOL0     C 6903   3.062   1.203   4.856 -0.2947  0.7902 -0.5302
   52MOL0     C 6904   3.016   1.140   4.744 -0.3292  0.7029 -0.1528
   52MOL0     C 6905   2.982   1.214   4.626  0.6355 -0.1993 -0.0040
   52MOL0     C 6906   3.089   1.202   4.517  0.1078 -0.1875  1.0203
   52MOL0     C 6907   3.203   1.296   4.552  0.5344 -0.3823 -0.8059
   52MOL0     C 6908   3.278   1.310   4.425 -0.4516 -0.1160  0.8205
   52MOL0     O 6909   3.398   1.393   4.447  0.0222 -0.3964 -0.0256
   52MOL0     C 6910   3.492   1.414   4.350 -0.2793 -0.7281  0.3444
   52MOL0     C 6911   3.576   1.521   4.379  0.1276 -0.9840 -0.0108
   52MOL0     C 6912   3.676   1.562   4.295 -1.6801 -0.0441  0.2109
   52MOL0     C 6913   3.753   1.685   4.333  0.6379  0.1874  0.6659
   52MOL0     C 6914   3.703   1.479   4.186 -0.5355  0.4286 -0.3625
   52MOL0     C 6915   3.817   1.516   4.092 -0.0642  0.3553 -0.0904
   52MOL0     O 6916   3.931   1.571   4.145 -0.0071  0.7573  1.5429
   52MOL0     C 6917   4.037   1.620   4.070 -0.2568  0.3592  0.7801
   52MOL0     C 6918   4.055   1.637   3.925 -0.4062  0.1943 -0.5120
   52MOL0     C 6919   4.178   1.678   3.869 -1.0901  0.2627  1.3761
   52MOL0     C 6920   4.289   1.694   3.939  0.3753  0.9349 -0.4070
   52MOL0     O 6921   4.409   1.720   3.887 -0.4340 -0.0945 -0.2121
   52MOL0     C 6922   4.442   1.857   3.871 -0.2868 -0.4246  0.5933
   52MOL0     C 6923   4.449   1.936   4.005 -0.4169 -0.3862  0.7551
   52MOL0     C 6924   4.525   2.069   4.015 -0.1050 -0.2678 -0.4653
   52MOL0     C 6925   4.462   2.168   3.915  0.1773  0.2111  0.2549
   52MOL0     C 6926   4.325   2.225   3.955 -0.1293  0.7607  0.0910
   52MOL0     C 6927   4.302   2.255   4.105  0.4573 -0.1458 -0.2204
   52MOL0     C 6928   4.170   2.326   4.125  0.7210 -0.6742  0.3550
   52MOL0     C 6929   4.138   2.352   4.279 -0.8642  0.1560  0.2147
   52MOL0    Cl 6930   4.219   2.511   4.333  0.8023 -0.1818  0.1847
   52MOL0     C 6931   4.274   1.686   4.073 -0.0422 -0.1821 -0.5554
   52MOL0     C 6932   4.157   1.651   4.136 -0.4952  0.0249 -0.5557
   52MOL0     O 6933   3.804   1.471   3.980 -0.0814 -0.1340  0.0368
   52MOL0     C 6934   3.622   1.371   4.155 -0.8322  0.8310 -0.0805
   52MOL0     C 6935   3.516   1.337   4.235  0.7120 -0.9843  0.1962
   52MOL0     N 6936   2.995   1.002   4.759 -0.6128 -0.0189  0.0658
   52MOL0     N 6937   3.053   0.975   4.876  0.8986 -0.1476  0.3149
   52MOL0     C 6938   4.298   0.974   5.078  0.2520  0.0462 -0.4197
   52MOL0     C 6939   4.438   0.982   5.051 -0.0440 -0.4769 -0.0772
   52MOL0     C 6940   4.847   1.042   4.977 -0.8422 -0.4727  0.2342
   52MOL0     C 6941   4.952   0.951   4.962 -0.3520  0.4887 -0.2387
   52MOL0     C 6942   5.086   0.984   4.982 -0.8091 -0.3643 -0.1752
   52MOL0     C 6943   5.119   1.108   5.043 -0.7898 -0.2205  0.1426
   52MOL0     O 6944   5.242   1.117   5.092  0.2418 -0.4659 -0.3288
   52MOL0     C 6945   5.286   1.229   5.174 -0.2347  0.3822 -0.5608
   52MOL0     C 6946   5.416   1.179   5.252 -0.8519  0.3543 -0.2659
   52MOL0     C 6947   5.409   1.080   5.376  0.9115  0.2325  0.3761
   52MOL0     C 6948   5.545   1.049   5.442  0.3011 -0.4456  0.5762
   52MOL0     C 6949   5.634   0.993   5.347  0.4561 -0.7022  0.2082
   52MOL0     C 6950   5.715   0.947   5.283 -0.4813  0.4162 -0.6857
   52MOL0     C 6951   5.013   1.192   5.078 -0.2849  0.4636  0.1884
   52MOL0     C 6952   4.888   1.172   5.024  0.1705  0.2553 -0.4664
   52MOL0     H 6953   4.423   1.239   4.823  0.5635  0.2293  0.0452
   52MOL0     H 6954   4.180   1.218   4.876  0.6189 -1.4467 -2.5599
   52MOL0     H 6955   3.999   1.258   5.082 -0.8274 -2.4698  2.6765
   52MOL0     H 6956   3.999   1.170   4.924 -0.0467 -1.0359  0.5811
   52MOL0     H 6957   3.825   1.037   4.987 -0.6558 -0.9682  1.9377
   52MOL0     H 6958   3.838   1.076   5.155  2.9632  0.9169  0.7428
   52MOL0     H 6959   3.787   1.318   5.089  1.6521  0.3543  0.0992
   52MOL0     H 6960   3.760   1.263   4.922 -0.8443 -1.2686  0.1468
   52MOL0     H 6961   3.603   1.171   5.160 -0.1376  1.1056  0.9272
   52MOL0     H 6962   3.536   1.286   5.043 -0.4683 -0.0495 -0.4359
   52MOL0     H 6963   3.560   1.156   4.849  0.6208 -1.9662  0.0953
   52MOL0     H 6964   3.618   1.026   4.931  3.6476  2.9007  1.0726
   52MOL0     H 6965   3.369   1.016   4.889  0.9029  0.2789 -1.1482
   52MOL0     H 6966   3.427   0.978   5.051  0.0309  0.5292  0.6677
   52MOL0     H 6967   3.341   1.213   5.127 -1.6283 -0.3575  0.1110
   52MOL0     H 6968   3.313   1.240   4.956  2.3459  0.6245 -0.2665
   52MOL0     H 6969   3.125   1.176   5.135  0.7709  0.7791 -0.6901
   52MOL0     H 6970   3.180   1.010   5.102 -0.7231 -1.0202 -1.7005
   52MOL0     H 6971   3.106   1.302   4.866 -1.0609  1.1548 -0.6758
   52MOL0     H 6972   2.890   1.176   4.582 -1.0763 -0.3653  3.3630
   52MOL0     H 6973   2.978   1.320   4.654 -0.1211 -0.1617 -0.2277
   52MOL0     H 6974   3.052   1.226   4.417 -2.6068 -3.4770  1.0560
   52MOL0     H 6975   3.112   1.095   4.520 -3.8919 -1.2067  1.4743
   52MOL0     H 6976   3.258   1.244   4.631  3.6285  1.4725 -1.5516
   52MOL0     H 6977   3.170   1.395   4.585 -0.4584 -0.0852 -2.5636
   52MOL0     H 6978   3.211   1.366   4.358 -3.1747 -1.8688  1.9073
   52MOL0     H 6979   3.304   1.214   4.380 -1.0891  1.3358 -3.0755
   52MOL0     H 6980   3.545   1.569   4.471 -0.7658 -0.0086 -0.7996
   52MOL0     H 6981   3.760   1.751   4.246  1.3243  1.8819  1.9461
   52MOL0     H 6982   3.698   1.734   4.414  2.1558  1.4065  1.0130
   52MOL0     H 6983   3.855   1.659   4.364 -0.9847 -3.6407  3.7892
   52MOL0     H 6984   3.982   1.602   3.853  0.5090 -0.7157 -1.0202
   52MOL0     H 6985   4.158   1.697   3.764 -4.2952 -1.0329  1.6344
   52MOL0     H 6986   4.540   1.870   3.825  0.7573  2.7795  3.2923
   52MOL0     H 6987   4.368   1.898   3.801 -1.0628 -4.5947 -1.3624
   52MOL0     H 6988   4.351   1.957   4.047 -0.9968  0.2941 -0.8535
   52MOL0     H 6989   4.491   1.861   4.073 -0.2926 -0.5354  0.5137
   52MOL0     H 6990   4.622   2.054   3.968  2.0778  2.6603  2.6711
   52MOL0     H 6991   4.546   2.112   4.113  1.4991 -1.0096 -0.4576
   52MOL0     H 6992   4.534   2.247   3.892  0.1264  0.2200  0.1228
   52MOL0     H 6993   4.455   2.127   3.814 -0.9584  3.1030 -0.9609
   52MOL0     H 6994   4.251   2.151   3.922 -0.7029  2.0453 -1.6485
   52MOL0     H 6995   4.296   2.311   3.894 -0.0317 -0.4905 -1.8359
   52MOL0     H 6996   4.287   2.158   4.154 -0.0115 -0.2119 -0.4867
   52MOL0     H 6997   4.386   2.311   4.146  1.5971 -1.7226 -0.3127
   52MOL0     H 6998   4.089   2.263   4.089  1.4287 -0.5493 -1.5355
   52MOL0     H 6999   4.160   2.426   4.081  2.7785  0.1854  1.6814
   52MOL0     H 7000   4.176   2.270   4.341 -1.2061  0.2152  0.5043
   52MOL0     H 7001   4.030   2.346   4.294 -0.8121  1.9512  1.5154
   52MOL0     H 7002   4.367   1.710   4.124  0.4599 -0.9925 -1.0785
   52MOL0     H 7003   4.155   1.634   4.243 -1.2088 -1.8863 -0.8326
   52MOL0     H 7004   3.631   1.310   4.065  1.5636 -1.7989  1.7680
   52MOL0     H 7005   3.452   1.252   4.214  0.3544 -0.2112 -2.0626
   52MOL0     H 7006   4.252   0.900   5.143 -2.9430  1.2813 -1.0676
   52MOL0     H 7007   4.509   0.922   5.107  1.8107 -0.7029 -2.5096
   52MOL0     H 7008   4.929   0.853   4.921 -2.0837 -0.2385  2.2274
   52MOL0     H 7009   5.166   0.919   4.948 -0.8044  0.1664 -1.2186
   52MOL0     H 7010   5.317   1.313   5.112  2.6064  0.2232  0.4927
   52MOL0     H 7011   5.214   1.260   5.250  1.5519  0.0826  1.3513
   52MOL0     H 7012   5.475   1.267   5.279  0.9181 -0.9351  0.2295
   52MOL0     H 7013   5.466   1.122   5.173 -2.2476  0.1652 -1.0400
   52MOL0     H 7014   5.366   0.987   5.339 -0.4764  2.0769 -3.1327
   52MOL0     H 7015   5.344   1.130   5.449 -0.0759  1.0607 -1.0202
   52MOL0     H 7016   5.527   0.982   5.527  0.0421  2.9225  3.3996
   52MOL0     H 7017   5.610   1.128   5.482 -0.4817  0.4612  0.0795
   52MOL0     H 7018   5.787   0.891   5.227  2.1967 -0.6074  3.3694
   52MOL0     H 7019   5.031   1.286   5.129 -0.2915  1.3595 -1.4096
   52MOL0     H 7020   4.811   1.244   5.050  1.9723  1.0839  3.1184
   53MOL0     O 7021  10.210  11.265   2.220 -0.2034 -0.2726  0.0115
   53MOL0     C 7022  10.296  11.260   2.133 -0.3823  0.6832  0.1155
   53MOL0     O 7023  10.282  11.228   2.000  0.1031 -0.0982  0.4799
   53MOL0     C 7024  10.155  11.210   1.949  0.2311 -0.4427 -0.7436
   53MOL0     C 7025  10.051  11.128   1.997 -0.0127  0.0562  0.1229
   53MOL0     C 7026   9.930  11.123   1.933 -0.3280 -0.6927  0.7719
   53MOL0     C 7027   9.899  11.197   1.816 -0.5614 -0.5036  0.4927
   53MOL0     O 7028   9.774  11.205   1.749  0.1525 -0.1367 -0.1786
   53MOL0     C 7029   9.771  11.183   1.608  0.1717  0.3741  0.5011
   53MOL0     C 7030   9.698  11.300   1.553 -0.1386 -0.2987 -0.4620
   53MOL0     C 7031   9.688  11.298   1.397  0.4213  0.2861  0.7841
   53MOL0     C 7032   9.588  11.205   1.344  1.3164  0.2050  0.6115
   53MOL0     C 7033   9.567  11.234   1.194  0.2515  0.6859  0.1832
   53MOL0     C 7034   9.496  11.124   1.118  0.6616 -0.1286  0.3727
   53MOL0     C 7035   9.345  11.112   1.147 -0.0962  0.6165  0.3784
   53MOL0     C 7036   9.313  11.019   1.267  0.1566 -0.0932 -0.7328
   53MOL0     N 7037   9.161  11.025   1.274 -0.3186  0.1395  0.1613
   53MOL0     C 7038   9.072  10.937   1.215  0.0464  0.5464  0.3044
   53MOL0     C 7039   8.953  11.011   1.218 -0.9450  1.1244 -0.4863
   53MOL0     C 7040   8.835  10.976   1.137  0.5659  0.0320 -0.1112
   53MOL0     C 7041   8.708  10.928   1.222 -0.4860 -1.0227 -0.0015
   53MOL0     C 7042   8.678  11.005   1.355 -0.1124 -0.5455  0.3371
   53MOL0     C 7043   8.552  10.956   1.414  0.3426  0.0257  0.5065
   53MOL0     O 7044   8.437  10.997   1.337 -0.4257 -0.5584 -0.3431
   53MOL0     C 7045   8.314  10.977   1.384  0.2408  0.1391 -0.6910
   53MOL0     C 7046   8.208  11.016   1.304  0.3392  0.1764  0.0964
   53MOL0     C 7047   8.070  10.986   1.331 -0.4329 -0.5713  0.5101
   53MOL0     C 7048   7.972  11.031   1.215 -0.5223  0.7040 -0.4303
   53MOL0     C 7049   8.037  10.930   1.454 -0.3160  0.4802  0.4391
   53MOL0     C 7050   7.897  10.914   1.502 -0.0634  0.3320 -0.3798
   53MOL0     O 7051   7.882  10.833   1.617  0.0053 -0.1764  0.1303
   53MOL0     C 7052   7.756  10.825   1.679 -0.2420  0.5445 -0.3666
   53MOL0     C 7053   7.692  10.935   1.729  0.1188  0.5270  0.1503
   53MOL0     C 7054   7.573  10.927   1.800 -0.9285 -0.2284  0.1200
   53MOL0     C 7055   7.516  10.806   1.824  0.2717 -0.2999  0.4394
   53MOL0     O 7056   7.385  10.794   1.867  0.3535  0.2890  0.0859
   53MOL0     C 7057   7.357  10.868   1.987  0.7658 -0.7580  0.0994
   53MOL0     C 7058   7.203  10.848   2.017 -1.0051 -1.0767 -0.4970
   53MOL0     C 7059   7.160  10.869   2.166  0.1026 -1.1391  1.0867
   53MOL0     C 7060   7.006  10.845   2.186  1.4071  0.4295 -0.3614
   53MOL0     C 7061   6.926  10.963   2.142  0.2874 -0.7745 -0.3168
   53MOL0     C 7062   6.770  10.937   2.153 -0.4833  0.2729 -0.3695
   53MOL0     C 7063   6.715  10.921   2.297 -0.2781  0.7843 -0.0072
   53MOL0     C 7064   6.581  10.858   2.309  0.4568  0.0428 -0.3311
   53MOL0    Cl 7065   6.511  10.884   2.478  0.1940 -0.0563  0.4722
   53MOL0     C 7066   7.577  10.694   1.770 -0.2516  1.0318  0.9996
   53MOL0     C 7067   7.699  10.696   1.704 -0.0170  0.1014 -0.8817
   53MOL0     O 7068   7.799  10.960   1.437  0.6254 -0.2683  0.2003
   53MOL0     C 7069   8.146  10.889   1.538 -0.6090 -0.2370  0.0176
   53MOL0     C 7070   8.283  10.913   1.502  0.5462  0.7370 -0.6078
   53MOL0     N 7071   8.976  11.128   1.295 -0.1244  0.2216  0.9870
   53MOL0     N 7072   9.099  11.136   1.320 -0.4765 -0.2653 -0.4964
   53MOL0     C 7073  10.000  11.279   1.777  0.4457 -0.3544  0.7070
   53MOL0     C 7074  10.119  11.295   1.842  0.6736 -0.4541 -0.0739
   53MOL0     C 7075  10.430  11.287   2.187  0.5731 -0.4060 -0.6097
   53MOL0     C 7076  10.475  11.252   2.314 -0.4134 -0.9113 -0.1862
   53MOL0     C 7077  10.605  11.274   2.348  0.1525  0.2542 -0.0232
   53MOL0     C 7078  10.706  11.327   2.263  0.4203 -0.0423 -0.3051
   53MOL0     O 7079  10.835  11.376   2.294 -0.0315 -0.1183 -0.2785
   53MOL0     C 7080  10.897  11.296   2.394  0.0642 -0.6743 -0.1238
   53MOL0     C 7081  11.048  11.312   2.382 -1.1541  0.8876  0.3507
   53MOL0     C 7082  11.086  11.256   2.248  0.2118 -0.5870  0.7218
   53MOL0     C 7083  11.195  11.154   2.263 -0.2216  0.2308  0.5655
   53MOL0     C 7084  11.326  11.205   2.302 -0.0449 -1.0115  0.1219
   53MOL0     C 7085  11.441  11.238   2.317 -1.3044  0.2250  0.3016
   53MOL0     C 7086  10.663  11.356   2.135  0.2003 -0.3535 -0.0483
   53MOL0     C 7087  10.531  11.334   2.093  0.0388  0.3227 -0.2802
   53MOL0     H 7088  10.073  11.060   2.079  2.4795  1.0552  0.3681
   53MOL0     H 7089   9.842  11.071   1.969 -1.5650  0.1773 -0.8540
   53MOL0     H 7090   9.873  11.182   1.566  0.4691 -0.2114  1.2170
   53MOL0     H 7091   9.725  11.090   1.573  2.0826  0.6879 -3.3779
   53MOL0     H 7092   9.596  11.308   1.591 -0.9833  4.0332 -2.9665
   53MOL0     H 7093   9.735  11.395   1.592  1.1829  0.0084 -2.3162
   53MOL0     H 7094   9.662  11.398   1.360  2.2023  0.4750 -0.0530
   53MOL0     H 7095   9.790  11.280   1.361 -0.9215  1.2838 -4.4036
   53MOL0     H 7096   9.626  11.105   1.367 -1.4207 -1.0231  0.1137
   53MOL0     H 7097   9.496  11.204   1.402  1.3803  0.7332  0.7304
   53MOL0     H 7098   9.512  11.326   1.172  2.3516  1.4953 -2.1495
   53MOL0     H 7099   9.670  11.251   1.160  0.1354  2.8793  0.7658
   53MOL0     H 7100   9.501  11.143   1.011 -3.1210 -0.6640 -0.0581
   53MOL0     H 7101   9.550  11.032   1.141 -0.1500 -0.5148  0.7855
   53MOL0     H 7102   9.314  11.217   1.152 -2.3004 -0.0322  1.0978
   53MOL0     H 7103   9.293  11.063   1.064  1.5915  0.3093 -0.5586
   53MOL0     H 7104   9.363  11.057   1.356  0.0801  0.7899 -1.0566
   53MOL0     H 7105   9.354  10.920   1.243  3.1152  1.0343 -0.6887
   53MOL0     H 7106   9.094  10.836   1.181  2.5411  0.2707  2.4157
   53MOL0     H 7107   8.809  11.064   1.077 -2.3645 -0.1469  0.7358
   53MOL0     H 7108   8.854  10.894   1.067 -2.1983 -1.0463  0.2728
   53MOL0     H 7109   8.723  10.820   1.235  1.5329 -0.5636  1.9878
   53MOL0     H 7110   8.622  10.951   1.158  0.6277  1.3338 -0.7561
   53MOL0     H 7111   8.674  11.113   1.339  1.3076 -0.5531 -0.2172
   53MOL0     H 7112   8.757  10.981   1.426  0.6645  1.3228  0.1695
   53MOL0     H 7113   8.534  10.989   1.516 -3.5161  0.8321 -0.2917
   53MOL0     H 7114   8.537  10.847   1.416 -0.7144  0.0417 -2.2175
   53MOL0     H 7115   8.243  11.071   1.217  2.4695 -2.6985 -1.0399
   53MOL0     H 7116   7.932  11.130   1.240 -0.2657  0.5607  0.5971
   53MOL0     H 7117   8.024  11.039   1.120 -1.4292 -2.0311 -1.2524
   53MOL0     H 7118   7.882  10.970   1.207 -2.4504  3.0591  1.6746
   53MOL0     H 7119   7.755  11.020   1.707  2.4316 -1.2180 -0.2936
   53MOL0     H 7120   7.534  11.019   1.844 -0.5980 -0.6685  1.3826
   53MOL0     H 7121   7.417  10.831   2.070  1.2345 -1.3008 -0.4680
   53MOL0     H 7122   7.378  10.974   1.968 -3.1503 -0.1080 -1.5896
   53MOL0     H 7123   7.152  10.924   1.959 -3.1836 -0.0625  2.4826
   53MOL0     H 7124   7.180  10.751   1.971  2.7360 -1.1226 -2.6966
   53MOL0     H 7125   7.186  10.972   2.191  1.4562 -0.8470 -1.2931
   53MOL0     H 7126   7.220  10.809   2.235 -1.2539 -0.5840  2.8384
   53MOL0     H 7127   6.972  10.762   2.124  1.8193  2.2971 -3.3179
   53MOL0     H 7128   6.977  10.830   2.290  1.6816  1.0949 -0.1773
   53MOL0     H 7129   6.954  10.996   2.042 -0.4849 -5.3455 -2.2870
   53MOL0     H 7130   6.953  11.044   2.211 -2.2180 -3.1024  3.8001
   53MOL0     H 7131   6.719  11.018   2.099 -1.2958 -1.7558 -2.8061
   53MOL0     H 7132   6.754  10.845   2.096  0.3630  1.8577 -3.3834
   53MOL0     H 7133   6.698  11.016   2.349  0.7941  0.5315  0.8385
   53MOL0     H 7134   6.784  10.864   2.359  2.5488 -0.3558 -3.7899
   53MOL0     H 7135   6.591  10.751   2.286 -0.1180 -0.8240  2.9205
   53MOL0     H 7136   6.511  10.910   2.243  0.1313  1.6283  1.2129
   53MOL0     H 7137   7.513  10.606   1.779 -0.8959  1.5756  1.8683
   53MOL0     H 7138   7.753  10.610   1.666  1.8177  1.5835 -1.7893
   53MOL0     H 7139   8.130  10.845   1.636  2.0978 -1.1412  0.1250
   53MOL0     H 7140   8.359  10.874   1.568 -1.9480 -2.3069  0.7214
   53MOL0     H 7141   9.990  11.334   1.683 -4.0318  1.7800  2.1651
   53MOL0     H 7142  10.196  11.361   1.802 -1.4473  1.9798 -0.3467
   53MOL0     H 7143  10.411  11.222   2.397  1.6277 -0.7266  1.5528
   53MOL0     H 7144  10.626  11.247   2.450  0.8048  0.4809 -0.0897
   53MOL0     H 7145  10.875  11.334   2.494  2.2093  0.5998 -0.0752
   53MOL0     H 7146  10.862  11.193   2.381 -2.3094  0.0739 -0.0799
   53MOL0     H 7147  11.087  11.254   2.466 -1.5552  4.1951  3.0033
   53MOL0     H 7148  11.077  11.416   2.400  2.4380  0.3784 -1.7117
   53MOL0     H 7149  11.122  11.337   2.184 -0.9205 -1.8404 -1.6267
   53MOL0     H 7150  11.000  11.212   2.197 -0.3033  0.2245  0.8732
   53MOL0     H 7151  11.198  11.107   2.164 -0.4363 -0.8494  1.0668
   53MOL0     H 7152  11.167  11.073   2.330  4.0496 -2.4723 -0.5505
   53MOL0     H 7153  11.543  11.268   2.331 -2.2543  3.8872  0.3391
   53MOL0     H 7154  10.738  11.399   2.070  1.4651  1.4779  2.5004
   53MOL0     H 7155  10.499  11.359   1.992 -0.7359 -1.6935 -0.5834
   54MOL0     O 7156   6.479   2.215   6.101  0.0804  0.7720 -0.9679
   54MOL0     C 7157   6.538   2.323   6.077 -0.7258  0.1898  0.2367
   54MOL0     O 7158   6.487   2.430   6.011 -0.1525  0.0964 -0.3017
   54MOL0     C 7159   6.350   2.459   6.015 -0.2159  0.2080 -0.1770
   54MOL0     C 7160   6.259   2.407   6.108  0.3861 -1.0561 -0.9627
   54MOL0     C 7161   6.122   2.438   6.102 -0.1663  0.5279  0.0419
   54MOL0     C 7162   6.071   2.517   5.995  0.0281 -0.1342 -0.2878
   54MOL0     O 7163   5.932   2.539   5.992  0.3520  0.8756 -0.3235
   54MOL0     C 7164   5.886   2.667   5.949 -0.7196  0.0437  0.9403
   54MOL0     C 7165   5.758   2.727   6.019 -1.1476 -0.3716 -0.5318
   54MOL0     C 7166   5.638   2.632   6.017  0.0011 -0.3620  0.0296
   54MOL0     C 7167   5.517   2.714   6.067  0.5586  0.3366  0.4842
   54MOL0     C 7168   5.387   2.633   6.074 -0.0999 -0.0234  0.7644
   54MOL0     C 7169   5.279   2.703   6.164 -0.6330  0.1129  0.0739
   54MOL0     C 7170   5.150   2.626   6.187 -1.1369  0.1652  0.9659
   54MOL0     C 7171   5.155   2.472   6.167  0.5804  0.2752  0.0847
   54MOL0     N 7172   5.030   2.405   6.225  0.5984 -0.6987  0.1129
   54MOL0     C 7173   4.918   2.477   6.260 -0.3338  0.7679  0.8485
   54MOL0     C 7174   4.843   2.376   6.310 -0.7501  0.6227  0.6462
   54MOL0     C 7175   4.700   2.378   6.362 -0.3184  0.4661  0.2655
   54MOL0     C 7176   4.603   2.329   6.259 -0.0481 -0.3443  0.3912
   54MOL0     C 7177   4.458   2.340   6.301 -0.0835 -0.3606 -0.3251
   54MOL0     C 7178   4.402   2.222   6.378  0.5590 -0.3659 -0.0146
   54MOL0     O 7179   4.263   2.239   6.401 -0.1287 -0.1291 -0.5270
   54MOL0     C 7180   4.192   2.158   6.480 -0.9247 -0.2026  0.0345
   54MOL0     C 7181   4.244   2.034   6.522  0.5251 -0.2639  0.9369
   54MOL0     C 7182   4.173   1.948   6.609 -0.8029 -0.1950  0.3030
   54MOL0     C 7183   4.241   1.814   6.638  0.1861 -0.1450  0.7485
   54MOL0     C 7184   4.046   1.985   6.655  0.5424  0.3878  0.1361
   54MOL0     C 7185   3.967   1.901   6.746  1.2977 -0.6209  0.2056
   54MOL0     O 7186   3.833   1.909   6.721  0.0394  0.2895 -0.5132
   54MOL0     C 7187   3.761   1.892   6.838 -0.1485  0.4396 -0.9553
   54MOL0     C 7188   3.746   1.769   6.911  0.6640 -0.2983  0.6201
   54MOL0     C 7189   3.672   1.768   7.030 -0.1991  0.3065  0.6723
   54MOL0     C 7190   3.587   1.874   7.064 -0.5047 -0.2741  0.0421
   54MOL0     O 7191   3.499   1.859   7.168  0.8211  0.2443  0.1521
   54MOL0     C 7192   3.359   1.883   7.144  0.1499  0.2435  0.2515
   54MOL0     C 7193   3.294   1.908   7.278  0.3835 -0.0236  0.1818
   54MOL0     C 7194   3.144   1.957   7.262  0.5550 -0.0041  0.2790
   54MOL0     C 7195   3.086   2.023   7.389  0.0597 -0.6592  0.2623
   54MOL0     C 7196   2.929   2.046   7.391 -1.3108  0.3383  0.1995
   54MOL0     C 7197   2.874   2.127   7.278 -0.4812  0.4741  0.0216
   54MOL0     C 7198   2.722   2.163   7.284 -1.0813  0.3722 -0.9975
   54MOL0     C 7199   2.635   2.041   7.330 -0.0673  0.3888 -0.4897
   54MOL0    Cl 7200   2.658   1.902   7.226  0.1280 -0.0023  0.1025
   54MOL0     C 7201   3.597   1.992   6.988  0.6925  0.1947 -0.8205
   54MOL0     C 7202   3.696   2.001   6.887  0.3496 -0.1270  0.4609
   54MOL0     O 7203   4.020   1.828   6.828  0.1902 -0.7599  0.0621
   54MOL0     C 7204   3.988   2.102   6.591 -0.4781  0.0317 -0.4392
   54MOL0     C 7205   4.065   2.198   6.517 -0.5392  0.6441  0.5176
   54MOL0     N 7206   4.907   2.254   6.306  0.0140 -0.4128 -0.3508
   54MOL0     N 7207   5.024   2.273   6.253  0.0155  0.7569  0.8188
   54MOL0     C 7208   6.157   2.566   5.899 -0.6491  0.0794 -1.1104
   54MOL0     C 7209   6.295   2.539   5.912 -1.2912  0.1002  0.1017
   54MOL0     C 7210   6.684   2.326   6.118 -0.5860 -0.5833 -0.6364
   54MOL0     C 7211   6.760   2.208   6.135 -1.1134 -0.8253  0.3495
   54MOL0     C 7212   6.892   2.213   6.179 -0.6018 -0.9926  0.2671
   54MOL0     C 7213   6.962   2.335   6.207  0.4623 -0.3685  0.0822
   54MOL0     O 7214   7.080   2.324   6.272 -0.2354 -0.3051  0.2848
   54MOL0     C 7215   7.117   2.423   6.368 -0.0899 -0.2159 -0.2162
   54MOL0     C 7216   7.267   2.455   6.343 -0.0965  0.0222 -0.3934
   54MOL0     C 7217   7.285   2.515   6.205  0.5818  0.5829  0.5339
   54MOL0     C 7218   7.425   2.577   6.186  0.7573  0.2421 -0.1184
   54MOL0     C 7219   7.452   2.587   6.047  0.5718  0.3168 -0.3045
   54MOL0     C 7220   7.488   2.588   5.937  0.2732 -0.2211  0.6827
   54MOL0     C 7221   6.893   2.457   6.163 -0.9098  0.5726 -0.0968
   54MOL0     C 7222   6.759   2.449   6.129 -0.5938 -0.1953  0.8012
   54MOL0     H 7223   6.306   2.357   6.192  2.6603  1.6998 -0.4370
   54MOL0     H 7224   6.059   2.411   6.186 -0.3628  6.1955  2.1716
   54MOL0     H 7225   5.970   2.733   5.968  2.8846 -3.6875 -0.4962
   54MOL0     H 7226   5.864   2.669   5.842  0.6646  1.5035  0.6593
   54MOL0     H 7227   5.790   2.752   6.120 -2.6539 -0.3494 -0.0360
   54MOL0     H 7228   5.731   2.820   5.968 -1.0656 -0.7345 -1.2499
   54MOL0     H 7229   5.613   2.604   5.914 -1.4307  2.5452 -0.5183
   54MOL0     H 7230   5.645   2.540   6.075 -1.8921 -0.5422  0.0400
   54MOL0     H 7231   5.542   2.753   6.166  1.5472  1.3672 -0.1428
   54MOL0     H 7232   5.500   2.804   6.006  0.4575  0.1228  0.1948
   54MOL0     H 7233   5.343   2.610   5.976 -0.8450 -3.8915  1.8415
   54MOL0     H 7234   5.410   2.537   6.122 -2.3411 -0.3776  1.2421
   54MOL0     H 7235   5.335   2.717   6.256  1.9147 -4.0817 -0.5420
   54MOL0     H 7236   5.258   2.799   6.116  0.8101 -0.1162 -1.0781
   54MOL0     H 7237   5.120   2.649   6.289 -2.3628  1.0329  0.4317
   54MOL0     H 7238   5.082   2.668   6.112  0.0828  1.4002  0.5044
   54MOL0     H 7239   5.245   2.425   6.208  1.0160  1.0829  0.0881
   54MOL0     H 7240   5.161   2.460   6.058  1.2900 -0.9367  0.2376
   54MOL0     H 7241   4.880   2.577   6.239  0.1100  0.5736 -1.0131
   54MOL0     H 7242   4.689   2.318   6.453 -1.4269 -1.2533 -0.9403
   54MOL0     H 7243   4.682   2.480   6.398  0.6514 -0.5434  4.1225
   54MOL0     H 7244   4.620   2.222   6.248 -1.6302 -0.9973  3.3222
   54MOL0     H 7245   4.615   2.382   6.164 -1.2477 -0.7316  0.0138
   54MOL0     H 7246   4.402   2.344   6.207 -0.9535 -0.7142  0.1679
   54MOL0     H 7247   4.445   2.424   6.369  3.3838  0.5293 -0.5742
   54MOL0     H 7248   4.453   2.209   6.473  0.3927 -3.0469 -0.2285
   54MOL0     H 7249   4.417   2.129   6.323  1.5448  1.2026 -2.6386
   54MOL0     H 7250   4.336   1.994   6.481  0.1260 -1.5725  1.2842
   54MOL0     H 7251   4.157   1.744   6.639  0.9651 -1.1270 -0.0445
   54MOL0     H 7252   4.307   1.774   6.561 -0.9994  0.8874 -0.8715
   54MOL0     H 7253   4.300   1.818   6.730 -2.2584 -1.0834  2.4543
   54MOL0     H 7254   3.781   1.676   6.868 -0.5159 -0.3996 -0.1781
   54MOL0     H 7255   3.684   1.681   7.094  1.6032 -1.0586 -1.3777
   54MOL0     H 7256   3.330   1.964   7.076 -0.5658 -2.3408 -2.7602
   54MOL0     H 7257   3.303   1.802   7.096 -2.4634  1.8383  0.3866
   54MOL0     H 7258   3.300   1.814   7.333 -1.6519 -1.5123 -1.9702
   54MOL0     H 7259   3.343   1.989   7.334 -2.2075  1.5783  0.3288
   54MOL0     H 7260   3.088   1.864   7.253  0.9851 -0.5129  2.2947
   54MOL0     H 7261   3.139   2.023   7.175 -1.6079  0.3693  0.6403
   54MOL0     H 7262   3.132   1.978   7.476  0.6436  1.1789  0.9575
   54MOL0     H 7263   3.133   2.121   7.404 -2.0807  0.3345  0.8741
   54MOL0     H 7264   2.907   2.099   7.484  2.3788 -1.8123  2.5862
   54MOL0     H 7265   2.870   1.954   7.392  0.6978 -1.0360  1.0959
   54MOL0     H 7266   2.923   2.224   7.283 -1.9459  1.1836  3.0817
   54MOL0     H 7267   2.897   2.068   7.188  0.3869  0.3070  0.3408
   54MOL0     H 7268   2.679   2.197   7.189 -1.4252 -0.9772 -1.3572
   54MOL0     H 7269   2.716   2.247   7.353  1.7934 -1.2414  1.4469
   54MOL0     H 7270   2.528   2.059   7.321 -0.3333 -0.6026  0.4384
   54MOL0     H 7271   2.638   2.015   7.437 -0.1343  0.0527 -0.5677
   54MOL0     H 7272   3.529   2.073   7.014 -0.1419  0.0762 -2.5131
   54MOL0     H 7273   3.711   2.094   6.833 -0.3179 -1.2053 -1.6840
   54MOL0     H 7274   3.885   2.128   6.615 -0.3914 -1.6039  2.0303
   54MOL0     H 7275   4.026   2.294   6.485  0.4975  1.0837  0.5160
   54MOL0     H 7276   6.114   2.639   5.831 -1.0241  2.1192  1.1673
   54MOL0     H 7277   6.357   2.576   5.831  2.4939 -0.9445  2.2853
   54MOL0     H 7278   6.720   2.109   6.113 -0.1999 -1.1827  0.2421
   54MOL0     H 7279   6.942   2.118   6.195 -0.5668 -0.6626  2.3439
   54MOL0     H 7280   7.073   2.521   6.352  0.2354 -0.3793 -2.4649
   54MOL0     H 7281   7.102   2.399   6.473 -2.4457  2.1466  0.0796
   54MOL0     H 7282   7.318   2.358   6.352 -0.1493  0.1223  1.3901
   54MOL0     H 7283   7.300   2.523   6.422 -2.8685 -0.5713  1.4200
   54MOL0     H 7284   7.219   2.602   6.201 -0.6815 -0.3860 -0.3424
   54MOL0     H 7285   7.260   2.447   6.124 -3.3292  1.7049  0.6051
   54MOL0     H 7286   7.505   2.514   6.226  0.6247 -1.2285 -2.0118
   54MOL0     H 7287   7.422   2.674   6.237 -1.2267 -0.0306  0.3445
   54MOL0     H 7288   7.520   2.602   5.835 -1.1355 -4.2672 -0.5158
   54MOL0     H 7289   6.946   2.551   6.172 -0.1000  0.3073 -1.7687
   54MOL0     H 7290   6.721   2.549   6.109  3.6980  1.4981  0.0224
   55MOL0     O 7291   9.598   5.515   5.098 -0.0507  0.2908 -0.5886
   55MOL0     C 7292   9.612   5.598   5.010 -0.4469 -0.1305 -0.4386
   55MOL0     O 7293   9.518   5.635   4.919 -0.2842 -0.7343 -0.3973
   55MOL0     C 7294   9.382   5.609   4.931  0.1156  0.6019  0.7148
   55MOL0     C 7295   9.313   5.551   4.824 -0.2975 -1.1782 -0.6540
   55MOL0     C 7296   9.180   5.528   4.832  0.3341  0.1841  0.4738
   55MOL0     C 7297   9.097   5.567   4.941 -0.4015  0.4576 -0.3123
   55MOL0     O 7298   8.959   5.545   4.920  0.0874  0.6728 -0.3943
   55MOL0     C 7299   8.871   5.571   5.030  0.3139 -0.7983  0.3858
   55MOL0     C 7300   8.793   5.443   5.060  0.0309 -0.2921 -0.0122
   55MOL0     C 7301   8.700   5.489   5.184 -0.1912 -0.0643  0.3456
   55MOL0     C 7302   8.651   5.370   5.254 -0.3689  0.7793 -0.7995
   55MOL0     C 7303   8.523   5.378   5.343  0.1526 -0.3027  0.3437
   55MOL0     C 7304   8.402   5.336   5.264  0.2492  0.7723  0.0372
   55MOL0     C 7305   8.398   5.181   5.242 -0.9648  0.0368  0.2098
   55MOL0     C 7306   8.298   5.106   5.324 -0.1958  0.5113  0.4309
   55MOL0     N 7307   8.302   4.956   5.299  0.6645  0.6149 -0.6464
   55MOL0     C 7308   8.220   4.901   5.199  0.5354  0.4542 -0.5285
   55MOL0     C 7309   8.255   4.771   5.188  0.0654 -0.7080 -0.1276
   55MOL0     C 7310   8.218   4.666   5.099  0.2724 -0.0719  0.4517
   55MOL0     C 7311   8.118   4.567   5.168  0.9116  0.4371  0.1387
   55MOL0     C 7312   8.057   4.461   5.072  0.3691 -0.1449 -0.8973
   55MOL0     C 7313   7.970   4.363   5.154  0.3524  0.0307 -0.0444
   55MOL0     O 7314   8.044   4.292   5.252 -0.8560 -0.7878  0.0946
   55MOL0     C 7315   8.156   4.214   5.227  0.5730  0.2573 -0.5610
   55MOL0     C 7316   8.198   4.168   5.101  0.2942  0.3717 -0.0216
   55MOL0     C 7317   8.297   4.076   5.072  0.2361  0.8951  0.5261
   55MOL0     C 7318   8.326   4.037   4.927 -0.2435 -0.1193  0.2921
   55MOL0     C 7319   8.377   4.038   5.182  0.2833  0.7233 -0.9438
   55MOL0     C 7320   8.494   3.945   5.164  1.3520  0.1680  0.3503
   55MOL0     O 7321   8.514   3.871   5.275  0.5444  1.2869 -0.2651
   55MOL0     C 7322   8.627   3.794   5.295  0.3720 -0.1725 -0.4167
   55MOL0     C 7323   8.621   3.665   5.259  0.4478  0.4766  1.0762
   55MOL0     C 7324   8.729   3.574   5.268 -0.1568  0.5146 -1.1003
   55MOL0     C 7325   8.834   3.609   5.347 -0.4974 -0.2642  0.1122
   55MOL0     O 7326   8.937   3.518   5.374  0.0931  0.1651  0.1012
   55MOL0     C 7327   9.056   3.561   5.445  0.0648  0.1304 -0.9505
   55MOL0     C 7328   9.136   3.441   5.483 -0.9116  0.0740  0.7649
   55MOL0     C 7329   9.255   3.485   5.566 -0.3307  0.7025  0.2641
   55MOL0     C 7330   9.370   3.383   5.580  0.1466 -0.0710  0.1643
   55MOL0     C 7331   9.408   3.326   5.720  0.7668 -0.5400 -0.0784
   55MOL0     C 7332   9.309   3.228   5.774  0.5068  0.2448 -1.1574
   55MOL0     C 7333   9.306   3.095   5.699 -1.1349  0.1034  0.3027
   55MOL0     C 7334   9.285   2.978   5.798 -0.8792 -1.1969  0.5395
   55MOL0    Cl 7335   9.136   2.993   5.884 -0.1661 -0.2292  0.2443
   55MOL0     C 7336   8.841   3.747   5.383 -0.3933  0.0169  0.4796
   55MOL0     C 7337   8.742   3.846   5.362  1.0877 -0.6981  0.4114
   55MOL0     O 7338   8.548   3.934   5.061 -0.1742  0.9644 -0.2308
   55MOL0     C 7339   8.342   4.077   5.314  0.2707 -0.2757 -0.0299
   55MOL0     C 7340   8.233   4.165   5.335 -0.0774 -0.4798 -0.0453
   55MOL0     N 7341   8.343   4.741   5.291  0.4898 -0.1297  1.2102
   55MOL0     N 7342   8.370   4.853   5.353 -0.1142  0.1138  0.7538
   55MOL0     C 7343   9.171   5.610   5.058  0.6294  0.9730  0.1280
   55MOL0     C 7344   9.309   5.624   5.051 -0.0956  0.0423 -0.4192
   55MOL0     C 7345   9.741   5.664   5.005  0.0510 -0.5208 -0.3736
   55MOL0     C 7346   9.774   5.753   4.903  0.4160  0.6863  0.1546
   55MOL0     C 7347   9.895   5.812   4.897  0.4832  0.3436  0.1862
   55MOL0     C 7348   9.986   5.808   4.998 -0.6406  0.1241  0.3565
   55MOL0     O 7349  10.108   5.874   4.973 -0.2478 -0.2896 -0.3858
   55MOL0     C 7350  10.229   5.822   5.028  0.6926 -0.4045 -0.1553
   55MOL0     C 7351  10.259   5.673   4.994  0.5560 -1.2108  0.5729
   55MOL0     C 7352  10.369   5.617   5.082 -0.6609 -1.5596 -0.3564
   55MOL0     C 7353  10.511   5.658   5.037 -0.0301  0.0738 -0.1101
   55MOL0     C 7354  10.623   5.604   5.116  0.0196 -0.4908  0.4272
   55MOL0     C 7355  10.722   5.566   5.164 -0.5665 -0.1797 -1.0730
   55MOL0     C 7356   9.947   5.732   5.115  0.2044  1.0241  0.0749
   55MOL0     C 7357   9.833   5.650   5.114 -0.1833  0.1001 -0.5005
   55MOL0     H 7358   9.376   5.530   4.738 -0.5690 -0.3347 -1.0701
   55MOL0     H 7359   9.140   5.466   4.752 -0.0870  0.9808  0.0600
   55MOL0     H 7360   8.923   5.590   5.124 -1.2250  0.9725  0.9474
   55MOL0     H 7361   8.805   5.657   5.013  1.2734  0.0589  0.9004
   55MOL0     H 7362   8.747   5.420   4.963  2.1821 -0.0103 -1.1591
   55MOL0     H 7363   8.859   5.363   5.094  2.0875  0.7173 -1.4767
   55MOL0     H 7364   8.751   5.541   5.265 -3.3213  1.0642  1.7502
   55MOL0     H 7365   8.614   5.543   5.143 -1.1332 -2.6990 -1.4246
   55MOL0     H 7366   8.621   5.294   5.182 -0.7532 -0.8117  0.9554
   55MOL0     H 7367   8.741   5.333   5.306  1.1059  1.9424 -2.4178
   55MOL0     H 7368   8.524   5.316   5.433 -4.1357 -0.7325  0.2643
   55MOL0     H 7369   8.525   5.480   5.383 -0.7368  0.2302 -0.9034
   55MOL0     H 7370   8.313   5.373   5.315 -0.5788 -0.3215 -0.5704
   55MOL0     H 7371   8.403   5.386   5.166  0.9573 -2.9578 -2.0348
   55MOL0     H 7372   8.392   5.170   5.133  2.5628  0.7097 -0.1514
   55MOL0     H 7373   8.495   5.140   5.270  0.9800  2.4709 -2.4081
   55MOL0     H 7374   8.199   5.145   5.298 -0.9903 -0.4646  1.8255
   55MOL0     H 7375   8.325   5.126   5.428  0.5706 -4.1195  1.3326
   55MOL0     H 7376   8.159   4.958   5.129  0.4252  0.9608 -0.0233
   55MOL0     H 7377   8.180   4.712   5.008 -1.2341  4.3819  3.0451
   55MOL0     H 7378   8.315   4.616   5.085  2.4147  3.3349  1.8353
   55MOL0     H 7379   8.044   4.630   5.218  4.9549  4.2060  2.0718
   55MOL0     H 7380   8.171   4.519   5.251 -2.0315  0.4740  2.1988
   55MOL0     H 7381   8.131   4.401   5.017  0.7590 -0.9487  0.4570
   55MOL0     H 7382   7.996   4.516   5.000 -1.4533 -0.6486  0.1945
   55MOL0     H 7383   7.930   4.289   5.084  0.8465 -0.4986  0.2254
   55MOL0     H 7384   7.891   4.421   5.202 -0.3775 -0.5015 -0.5862
   55MOL0     H 7385   8.141   4.194   5.012  0.0116 -0.2902 -0.0372
   55MOL0     H 7386   8.393   4.116   4.893 -0.3885 -0.5668 -1.1337
   55MOL0     H 7387   8.364   3.935   4.916  0.8854  0.3285 -0.0432
   55MOL0     H 7388   8.236   4.044   4.864  1.8575  1.5735 -2.8323
   55MOL0     H 7389   8.525   3.635   5.217  0.4302 -0.4783  1.7613
   55MOL0     H 7390   8.713   3.473   5.230 -2.9926  0.4592 -0.0133
   55MOL0     H 7391   9.112   3.631   5.381  0.9409  0.8961  0.5965
   55MOL0     H 7392   9.037   3.610   5.540  3.6787 -0.2856  0.1479
   55MOL0     H 7393   9.079   3.362   5.533 -2.1977  1.0393  0.8565
   55MOL0     H 7394   9.183   3.400   5.393 -1.3515 -1.5253  1.2289
   55MOL0     H 7395   9.212   3.505   5.664  1.0085  0.0432  1.0173
   55MOL0     H 7396   9.302   3.572   5.518  1.0191  0.3450  0.8893
   55MOL0     H 7397   9.338   3.299   5.518  1.2460 -1.2382  1.1033
   55MOL0     H 7398   9.462   3.421   5.535  1.4252 -0.2002  2.5059
   55MOL0     H 7399   9.399   3.410   5.789  0.6942 -0.9424  0.4092
   55MOL0     H 7400   9.511   3.287   5.721 -0.0543 -2.8704  0.6253
   55MOL0     H 7401   9.333   3.214   5.880  2.3847 -0.9330 -1.6768
   55MOL0     H 7402   9.205   3.260   5.772 -0.4983 -2.5633  0.7025
   55MOL0     H 7403   9.399   3.078   5.644 -1.2816 -1.8393  0.6035
   55MOL0     H 7404   9.228   3.096   5.622 -0.9656 -0.9112  0.1005
   55MOL0     H 7405   9.366   2.988   5.871  1.4595  1.7301 -2.2155
   55MOL0     H 7406   9.308   2.880   5.755  3.4305 -0.9406  1.8567
   55MOL0     H 7407   8.924   3.773   5.448  1.1706 -0.9855 -1.0260
   55MOL0     H 7408   8.746   3.948   5.399  2.2097 -0.1499 -1.0828
   55MOL0     H 7409   8.402   4.039   5.396  0.3190 -1.3673 -0.5522
   55MOL0     H 7410   8.209   4.202   5.434  0.1491  2.3234 -0.9516
   55MOL0     H 7411   9.120   5.638   5.149  2.6192  0.1820  1.5459
   55MOL0     H 7412   9.377   5.654   5.129  0.0713  1.4280 -1.0715
   55MOL0     H 7413   9.707   5.774   4.820  2.3371  0.1951 -1.5878
   55MOL0     H 7414   9.925   5.874   4.814  2.4161  2.0758  2.0629
   55MOL0     H 7415  10.299   5.895   4.987  0.7244  0.5998  1.6341
   55MOL0     H 7416  10.219   5.837   5.136 -0.3127 -0.1025 -0.2849
   55MOL0     H 7417  10.281   5.674   4.887 -2.5165  0.7608 -0.1753
   55MOL0     H 7418  10.177   5.605   5.016  1.2762 -2.5943 -0.8718
   55MOL0     H 7419  10.359   5.509   5.085  2.8795 -2.1322 -2.4175
   55MOL0     H 7420  10.355   5.658   5.182  0.9841 -1.1646 -0.2540
   55MOL0     H 7421  10.516   5.766   5.019  2.9739 -0.0279 -0.5284
   55MOL0     H 7422  10.524   5.626   4.933  1.2791  1.7390 -0.5139
   55MOL0     H 7423  10.813   5.534   5.212 -1.6498  1.6237  2.5376
   55MOL0     H 7424  10.003   5.736   5.208 -3.7897 -0.9333  2.8937
   55MOL0     H 7425   9.811   5.589   5.201 -3.3833  3.3835  1.2734
   56MOL0     O 7426   2.951   2.649  10.851  0.9177  0.3395 -0.2550
   56MOL0     C 7427   2.947   2.759  10.902 -0.5155 -0.7175 -0.2053
   56MOL0     O 7428   2.838   2.810  10.963  0.0922  0.0575 -0.0957
   56MOL0     C 7429   2.726   2.740  10.985  1.1459 -0.2585  0.0500
   56MOL0     C 7430   2.652   2.771  11.098  0.5359 -0.2588 -0.1965
   56MOL0     C 7431   2.520   2.727  11.123  0.5645 -0.1001  0.9295
   56MOL0     C 7432   2.458   2.631  11.038 -0.2200 -0.6455  0.0567
   56MOL0     O 7433   2.338   2.584  11.077 -0.4680  0.4790 -0.0387
   56MOL0     C 7434   2.299   2.465  11.007 -0.7631 -0.3448 -0.0233
   56MOL0     C 7435   2.187   2.409  11.098  0.3251 -0.3854 -0.0367
   56MOL0     C 7436   2.049   2.412  11.036  0.3407  0.0686  0.1120
   56MOL0     C 7437   1.951   2.353  11.148 -0.2109 -0.0287 -0.0900
   56MOL0     C 7438   1.798   2.349  11.123 -0.5023  0.5235 -0.5882
   56MOL0     C 7439   1.733   2.274  11.234  0.4619  0.4267 -0.3781
   56MOL0     C 7440   1.579   2.263  11.220 -0.8408 -0.6196 -0.0591
   56MOL0     C 7441   1.510   2.366  11.307  0.8194 -0.0452 -0.5453
   56MOL0     N 7442   1.373   2.377  11.254 -0.7468 -0.4598 -0.0262
   56MOL0     C 7443   1.265   2.297  11.277 -0.1452 -0.1282  0.0681
   56MOL0     C 7444   1.157   2.343  11.208  0.4556  0.5949  0.3407
   56MOL0     C 7445   1.020   2.286  11.199 -0.4806  0.6375  0.5424
   56MOL0     C 7446   1.006   2.238  11.058 -0.8030  0.2251  0.4771
   56MOL0     C 7447   0.872   2.180  11.012  0.0472 -1.4503 -0.2269
   56MOL0     C 7448   0.883   2.090  10.891  0.1403  0.4203 -0.1471
   56MOL0     O 7449   0.823   1.963  10.928 -0.3699  0.9687 -0.4985
   56MOL0     C 7450   0.689   1.950  10.930  0.0353 -0.2014 -0.3128
   56MOL0     C 7451   0.599   2.052  10.896 -0.1552  0.1148  1.5353
   56MOL0     C 7452   0.456   2.039  10.914 -0.5468 -0.2903  0.0656
   56MOL0     C 7453   0.374   2.167  10.890  0.2323 -0.1516  0.5870
   56MOL0     C 7454   0.397   1.929  10.972  0.4208  0.4452  0.1725
   56MOL0     C 7455   0.255   1.915  10.997 -0.1164  0.0979 -0.5597
   56MOL0     O 7456   0.215   1.818  11.089 -0.3262 -0.1524 -0.2700
   56MOL0     C 7457   0.079   1.792  11.095 -0.0640  0.9280  0.3164
   56MOL0     C 7458   0.037   1.666  11.041 -0.0834 -0.3835 -0.5261
   56MOL0     C 7459  -0.098   1.635  11.060 -0.7464 -0.4793 -0.7664
   56MOL0     C 7460  -0.195   1.722  11.111 -0.7295  0.5031  0.6769
   56MOL0     O 7461  -0.329   1.671  11.103  0.4945  0.1806  0.3968
   56MOL0     C 7462  -0.441   1.739  11.158 -0.1521  0.3023 -0.2398
   56MOL0     C 7463  -0.574   1.713  11.105 -0.3581  0.6136  0.8344
   56MOL0     C 7464  -0.597   1.786  10.965 -0.0352  0.1439 -0.2163
   56MOL0     C 7465  -0.737   1.728  10.905 -0.3943 -0.2352  0.9704
   56MOL0     C 7466  -0.762   1.781  10.766 -0.1869 -0.8741 -0.4991
   56MOL0     C 7467  -0.879   1.709  10.697  0.0147  1.0142 -0.0381
   56MOL0     C 7468  -0.831   1.605  10.588 -1.0092  0.1642  0.2271
   56MOL0     C 7469  -0.952   1.545  10.523  0.1211  0.4123 -0.0437
   56MOL0    Cl 7470  -1.025   1.665  10.423 -0.1438 -0.1076 -0.1871
   56MOL0     C 7471  -0.154   1.851  11.141  1.0739  0.6007  1.2667
   56MOL0     C 7472  -0.016   1.886  11.133  0.5860 -1.2308  0.1642
   56MOL0     O 7473   0.178   1.977  10.923  0.0471 -0.0784 -0.0043
   56MOL0     C 7474   0.481   1.811  10.992  0.7671 -0.2184 -1.2199
   56MOL0     C 7475   0.623   1.832  10.979  0.0423  0.0040 -0.4830
   56MOL0     N 7476   1.193   2.455  11.148  0.5953 -0.4868 -0.3460
   56MOL0     N 7477   1.324   2.477  11.175  0.1802  0.3070  0.1311
   56MOL0     C 7478   2.539   2.591  10.921 -0.0422  1.6200 -0.1494
   56MOL0     C 7479   2.668   2.644  10.892  0.0245  0.5185 -0.0067
   56MOL0     C 7480   3.062   2.848  10.882  0.0852  0.4393  0.3561
   56MOL0     C 7481   3.190   2.780  10.871  0.8037  0.2987 -0.2205
   56MOL0     C 7482   3.304   2.851  10.846 -0.6595 -0.3759  0.3834
   56MOL0     C 7483   3.306   2.988  10.836 -0.0175 -0.2172  0.7502
   56MOL0     O 7484   3.420   3.058  10.819 -0.5019  0.1696 -0.4086
   56MOL0     C 7485   3.431   3.182  10.893 -0.9414 -0.1801 -0.0159
   56MOL0     C 7486   3.579   3.190  10.947 -0.2971 -0.9491 -1.1341
   56MOL0     C 7487   3.622   3.070  11.037  0.2024  0.2754  0.1100
   56MOL0     C 7488   3.772   3.082  11.081 -0.4477  0.8438 -0.3363
   56MOL0     C 7489   3.786   3.019  11.216 -0.2384 -0.1166 -0.2248
   56MOL0     C 7490   3.790   2.971  11.324  0.1642  0.4709 -0.0899
   56MOL0     C 7491   3.180   3.051  10.848 -0.3845 -0.7738  0.7072
   56MOL0     C 7492   3.061   2.985  10.865  0.3454  0.4423 -0.6213
   56MOL0     H 7493   2.681   2.852  11.165 -0.3962  1.7545 -2.1089
   56MOL0     H 7494   2.463   2.771  11.204 -0.3035  3.8454 -1.5730
   56MOL0     H 7495   2.260   2.484  10.907 -0.5994 -2.7956 -0.6218
   56MOL0     H 7496   2.379   2.390  11.008  1.3548  1.7854 -0.2534
   56MOL0     H 7497   2.208   2.307  11.131 -0.7103 -1.2279 -1.8263
   56MOL0     H 7498   2.185   2.465  11.193  2.4369 -2.1606  1.1532
   56MOL0     H 7499   2.023   2.515  11.008 -0.6470 -0.6466 -1.7221
   56MOL0     H 7500   2.044   2.348  10.948  2.8378  0.9511 -0.7615
   56MOL0     H 7501   1.987   2.253  11.173  1.0969 -0.0223 -1.7112
   56MOL0     H 7502   1.959   2.412  11.240  0.7957  0.3341 -0.3845
   56MOL0     H 7503   1.756   2.448  11.102 -3.3860 -0.8761 -2.0147
   56MOL0     H 7504   1.783   2.297  11.028  0.5296 -1.7145  0.4066
   56MOL0     H 7505   1.773   2.173  11.241  0.0767  0.1214 -2.1425
   56MOL0     H 7506   1.756   2.325  11.328 -0.7736 -0.3510  0.3714
   56MOL0     H 7507   1.551   2.282  11.115  0.5711  2.9673  0.0487
   56MOL0     H 7508   1.554   2.161  11.248 -0.2807 -0.9198 -0.6001
   56MOL0     H 7509   1.560   2.462  11.289  3.2771 -1.1983 -0.4095
   56MOL0     H 7510   1.503   2.338  11.413 -0.1936  1.3081 -0.2257
   56MOL0     H 7511   1.262   2.203  11.331 -2.5876 -0.7002 -0.9139
   56MOL0     H 7512   1.002   2.218  11.282  1.4230  1.3822  1.6272
   56MOL0     H 7513   0.950   2.368  11.222 -3.2328 -0.8556 -1.9044
   56MOL0     H 7514   1.081   2.160  11.040 -0.4257  0.8007 -0.5112
   56MOL0     H 7515   1.029   2.315  10.984 -1.4295 -0.1579 -0.1250
   56MOL0     H 7516   0.795   2.257  11.003 -1.9094 -2.9279  2.3860
   56MOL0     H 7517   0.837   2.118  11.095 -1.2861 -0.7628 -0.2544
   56MOL0     H 7518   0.991   2.078  10.883  0.3379  1.3158  0.8485
   56MOL0     H 7519   0.849   2.146  10.803  2.7129 -1.1376 -2.2651
   56MOL0     H 7520   0.640   2.143  10.853 -1.2307 -0.2703 -0.4081
   56MOL0     H 7521   0.307   2.146  10.806  0.9746  1.4904 -0.4674
   56MOL0     H 7522   0.312   2.197  10.975  1.2595  0.5562  1.1164
   56MOL0     H 7523   0.423   2.256  10.851 -1.0398  0.4822  0.3837
   56MOL0     H 7524   0.104   1.593  10.996 -0.1699 -0.9225  0.1954
   56MOL0     H 7525  -0.138   1.539  11.030 -2.6595 -0.2494  0.8097
   56MOL0     H 7526  -0.440   1.715  11.264 -2.3203  0.9637 -0.0169
   56MOL0     H 7527  -0.420   1.844  11.136  1.3990 -0.4441 -2.8360
   56MOL0     H 7528  -0.587   1.604  11.100  1.0388  0.4131  1.2717
   56MOL0     H 7529  -0.650   1.751  11.174  0.2988 -1.2154  2.7052
   56MOL0     H 7530  -0.513   1.757  10.902  0.5954  0.7969  0.3010
   56MOL0     H 7531  -0.583   1.895  10.968  1.1862  0.0171 -0.9871
   56MOL0     H 7532  -0.720   1.620  10.898  0.6448 -0.0604  0.5910
   56MOL0     H 7533  -0.821   1.756  10.969 -0.3053  0.9329  0.5916
   56MOL0     H 7534  -0.664   1.770  10.717  0.1528 -1.4529  0.2893
   56MOL0     H 7535  -0.798   1.884  10.766  2.2149  0.0281 -0.5642
   56MOL0     H 7536  -0.938   1.648  10.766  2.7544 -0.3831  1.2519
   56MOL0     H 7537  -0.937   1.785  10.645  1.9335  1.2632 -1.9949
   56MOL0     H 7538  -0.772   1.524  10.631  0.4544 -0.2361 -2.3500
   56MOL0     H 7539  -0.772   1.663  10.517  0.5270  1.6091  2.5584
   56MOL0     H 7540  -1.022   1.512  10.600 -1.6014 -1.2407 -2.1967
   56MOL0     H 7541  -0.907   1.464  10.464  1.9174  0.7319  0.8143
   56MOL0     H 7542  -0.226   1.931  11.150  0.8733  0.6148 -0.1952
   56MOL0     H 7543   0.014   1.984  11.167 -3.0911 -0.0420  0.4555
   56MOL0     H 7544   0.442   1.721  11.040  1.5772  0.0717  0.0308
   56MOL0     H 7545   0.693   1.757  11.014  0.5147  0.2656 -0.8551
   56MOL0     H 7546   2.498   2.512  10.860  1.9672 -0.4184  0.9981
   56MOL0     H 7547   2.708   2.609  10.797  2.1305 -2.1663  1.6990
   56MOL0     H 7548   3.194   2.672  10.881 -0.7045  0.2007 -0.3587
   56MOL0     H 7549   3.401   2.803  10.841 -0.6921 -0.3384 -1.5704
   56MOL0     H 7550   3.412   3.263  10.823  1.7073  0.6657  0.1365
   56MOL0     H 7551   3.358   3.198  10.973 -1.4010 -1.1034 -0.2374
   56MOL0     H 7552   3.582   3.282  11.007 -3.3220 -2.1025  1.0999
   56MOL0     H 7553   3.650   3.189  10.865 -0.2460 -1.6700 -1.0844
   56MOL0     H 7554   3.616   2.977  10.980  1.5003 -1.5055  2.6603
   56MOL0     H 7555   3.552   3.062  11.121 -1.3642 -2.0801 -1.2862
   56MOL0     H 7556   3.792   3.189  11.088 -0.8498  0.9729 -1.0942
   56MOL0     H 7557   3.842   3.049  11.004 -0.9571 -1.4782  0.1163
   56MOL0     H 7558   3.802   2.944  11.427  1.2121  0.5851 -0.1723
   56MOL0     H 7559   3.190   3.159  10.836  0.3526 -0.9136 -0.0107
   56MOL0     H 7560   2.971   3.044  10.880  1.0555  1.9877 -2.1739
   57MOL0     O 7561   3.180   3.115   5.292 -0.0776  0.3571  0.8925
   57MOL0     C 7562   3.143   3.017   5.226  0.4284  0.2576  0.1827
   57MOL0     O 7563   3.212   2.895   5.229  0.2437 -0.3045  0.1006
   57MOL0     C 7564   3.326   2.892   5.309 -0.0618  0.0606 -0.3883
   57MOL0     C 7565   3.440   2.949   5.247  0.1254  0.3344 -0.5431
   57MOL0     C 7566   3.562   2.935   5.311 -0.0949 -0.9187  0.9508
   57MOL0     C 7567   3.567   2.879   5.441 -0.5683  0.7742  0.4453
   57MOL0     O 7568   3.694   2.859   5.491 -0.6040  0.2263  0.0072
   57MOL0     C 7569   3.778   2.976   5.499 -0.0815  0.1807  0.4857
   57MOL0     C 7570   3.904   2.976   5.589 -0.4071  0.3293  0.4827
   57MOL0     C 7571   3.987   3.102   5.594  0.0172  0.9499  0.6365
   57MOL0     C 7572   4.059   3.129   5.461  0.4439 -0.3777  0.1866
   57MOL0     C 7573   4.107   3.272   5.464  0.3842  0.1098  0.0470
   57MOL0     C 7574   4.212   3.294   5.351 -0.3359 -0.6099 -0.7281
   57MOL0     C 7575   4.309   3.411   5.382 -1.2626  0.0664 -0.0536
   57MOL0     C 7576   4.430   3.339   5.457  0.0456 -0.1993  0.2835
   57MOL0     N 7577   4.503   3.433   5.545 -0.1194 -0.4590  0.1848
   57MOL0     C 7578   4.440   3.495   5.652 -0.1093 -0.5764 -0.0479
   57MOL0     C 7579   4.532   3.574   5.698 -0.3446 -0.5342 -0.2865
   57MOL0     C 7580   4.522   3.684   5.794  0.0900  0.0895 -0.3166
   57MOL0     C 7581   4.389   3.770   5.793  0.0866 -0.4815  1.0083
   57MOL0     C 7582   4.362   3.841   5.663  0.1574  0.4340 -0.0269
   57MOL0     C 7583   4.242   3.934   5.665 -1.1471  0.0943 -0.2089
   57MOL0     O 7584   4.176   3.930   5.537 -0.1012 -0.1228  0.4463
   57MOL0     C 7585   4.038   3.943   5.524 -0.8132  0.5607 -0.9985
   57MOL0     C 7586   3.992   3.920   5.398 -1.3903 -0.0230  1.1952
   57MOL0     C 7587   3.860   3.935   5.356 -0.4059 -0.1676  0.2906
   57MOL0     C 7588   3.823   3.897   5.224  0.0441  0.4031  0.7958
   57MOL0     C 7589   3.761   3.985   5.449  0.5015 -0.1033  0.0801
   57MOL0     C 7590   3.611   4.010   5.436  0.2736 -0.2379  0.5840
   57MOL0     O 7591   3.538   4.057   5.530 -0.2196  0.0409 -0.0661
   57MOL0     C 7592   3.405   4.073   5.507  0.8859 -0.4800 -0.9023
   57MOL0     C 7593   3.313   3.989   5.567  0.3412  0.7820  0.2530
   57MOL0     C 7594   3.173   4.015   5.566 -0.0844  0.9887  0.1715
   57MOL0     C 7595   3.126   4.124   5.494 -0.7290 -0.7209  1.0295
   57MOL0     O 7596   2.999   4.149   5.454  0.5545 -0.5754 -0.6350
   57MOL0     C 7597   2.891   4.059   5.489  0.1627 -1.0243  0.2451
   57MOL0     C 7598   2.753   4.098   5.428 -0.2880  0.3428 -0.3765
   57MOL0     C 7599   2.642   4.015   5.500 -0.5436  0.2572 -0.1607
   57MOL0     C 7600   2.518   4.012   5.406  0.1769 -0.2635  0.0712
   57MOL0     C 7601   2.406   3.930   5.481  0.1727 -0.1866 -1.0948
   57MOL0     C 7602   2.273   3.948   5.406 -0.2967  0.0065  0.8247
   57MOL0     C 7603   2.164   3.864   5.482 -0.6125  0.0715 -0.5553
   57MOL0     C 7604   2.027   3.876   5.424 -0.0889 -1.4110 -0.2721
   57MOL0    Cl 7605   2.025   3.831   5.245  0.1187  0.2899 -0.5343
   57MOL0     C 7606   3.217   4.208   5.429 -0.1676 -0.1325 -0.2218
   57MOL0     C 7607   3.352   4.186   5.444  0.1785  0.6714 -0.7290
   57MOL0     O 7608   3.563   3.965   5.325 -0.3435 -0.0637  0.5512
   57MOL0     C 7609   3.812   4.008   5.575 -0.8715 -0.0056  0.2976
   57MOL0     C 7610   3.942   3.980   5.616 -0.1674 -0.7391 -0.1036
   57MOL0     N 7611   4.650   3.553   5.624  0.2172 -0.3087 -0.1783
   57MOL0     N 7612   4.632   3.477   5.526  0.7749  0.0211 -0.2616
   57MOL0     C 7613   3.449   2.818   5.500 -0.4153 -0.3498  0.1391
   57MOL0     C 7614   3.327   2.831   5.439  0.4024 -0.3004  0.2218
   57MOL0     C 7615   3.015   3.027   5.145  0.5690 -0.1416 -0.6455
   57MOL0     C 7616   2.953   3.153   5.108 -0.1538 -0.1944 -0.0710
   57MOL0     C 7617   2.838   3.156   5.027  0.7008 -0.1586 -0.8069
   57MOL0     C 7618   2.785   3.035   4.971 -0.4663 -0.0180  0.6155
   57MOL0     O 7619   2.687   3.026   4.880  0.3083 -0.4671 -0.5003
   57MOL0     C 7620   2.610   3.150   4.849  0.0919  0.5139  0.1878
   57MOL0     C 7621   2.550   3.119   4.715  0.2858 -0.1628  0.4692
   57MOL0     C 7622   2.497   3.245   4.648  0.2274 -0.1963  0.2636
   57MOL0     C 7623   2.368   3.305   4.711  0.2402  0.0039 -0.2428
   57MOL0     C 7624   2.311   3.426   4.643  0.0442 -0.0769  0.4826
   57MOL0     C 7625   2.269   3.522   4.588 -0.3771 -0.7702 -0.5227
   57MOL0     C 7626   2.837   2.914   5.014  0.2959  0.3253  0.1725
   57MOL0     C 7627   2.953   2.910   5.088  0.6299  0.1108 -0.5297
   57MOL0     H 7628   3.447   2.989   5.147  2.5280  0.9162 -0.1961
   57MOL0     H 7629   3.642   2.984   5.257 -0.5627  0.0334  1.0997
   57MOL0     H 7630   3.823   2.981   5.399 -1.1333 -2.7494 -0.2589
   57MOL0     H 7631   3.712   3.059   5.522 -2.4285 -2.1997  3.0966
   57MOL0     H 7632   3.862   2.951   5.687 -0.1611 -5.6619 -0.5622
   57MOL0     H 7633   3.970   2.897   5.552  0.5339  1.2211  0.2035
   57MOL0     H 7634   3.918   3.182   5.622 -0.7809  0.0360  1.3677
   57MOL0     H 7635   4.056   3.108   5.678  1.1675  2.9662 -0.3676
   57MOL0     H 7636   4.146   3.062   5.454  0.2091 -0.9369  2.0609
   57MOL0     H 7637   3.992   3.129   5.375  1.3472  4.3403 -0.7774
   57MOL0     H 7638   4.017   3.332   5.446 -1.4732 -2.2376  0.9714
   57MOL0     H 7639   4.159   3.295   5.557  0.5941 -1.6584  0.4019
   57MOL0     H 7640   4.273   3.208   5.323 -1.3185 -1.8245  0.7148
   57MOL0     H 7641   4.152   3.314   5.262  0.1222  0.1138 -0.8821
   57MOL0     H 7642   4.348   3.459   5.292 -1.2656 -2.0846 -1.2624
   57MOL0     H 7643   4.268   3.489   5.446  0.1389 -0.8832  2.1310
   57MOL0     H 7644   4.498   3.293   5.385 -1.0270 -2.2918  0.5469
   57MOL0     H 7645   4.386   3.262   5.521 -4.3929  0.3476 -1.7738
   57MOL0     H 7646   4.336   3.490   5.683 -0.7221 -0.1563 -1.8699
   57MOL0     H 7647   4.545   3.643   5.892 -0.4932  1.7781  0.5772
   57MOL0     H 7648   4.607   3.748   5.770 -0.6573  1.4825  0.6073
   57MOL0     H 7649   4.423   3.849   5.862  0.6733 -0.4281  0.6643
   57MOL0     H 7650   4.308   3.701   5.817  1.4624 -2.2933  0.6521
   57MOL0     H 7651   4.339   3.768   5.585 -3.1239  0.7049  0.5425
   57MOL0     H 7652   4.452   3.899   5.643  0.3031  0.3416  0.3610
   57MOL0     H 7653   4.272   4.038   5.680  0.3244 -0.1924 -1.0050
   57MOL0     H 7654   4.169   3.900   5.739  0.3781  0.1557  1.3808
   57MOL0     H 7655   4.053   3.899   5.310 -2.8377  0.4687  0.0262
   57MOL0     H 7656   3.795   3.793   5.208  2.0442  0.1619 -1.7058
   57MOL0     H 7657   3.735   3.948   5.184  0.1197  0.0322  0.1564
   57MOL0     H 7658   3.905   3.921   5.156 -0.6847 -0.2119 -0.3371
   57MOL0     H 7659   3.364   3.916   5.629  4.2119  4.0300  1.3522
   57MOL0     H 7660   3.110   3.944   5.619  1.9161 -1.9339 -1.0998
   57MOL0     H 7661   2.911   3.954   5.467  1.4869 -0.6919 -0.2646
   57MOL0     H 7662   2.879   4.064   5.598 -4.7378 -1.5610 -0.0425
   57MOL0     H 7663   2.733   4.206   5.437 -0.5697  0.2188  0.6100
   57MOL0     H 7664   2.752   4.077   5.320 -0.8096  0.5529 -0.4176
   57MOL0     H 7665   2.621   4.076   5.588 -0.2218  0.4058 -0.1840
   57MOL0     H 7666   2.679   3.919   5.536 -2.4267 -0.1638  0.7269
   57MOL0     H 7667   2.495   4.118   5.395  2.8964  0.5877  1.7845
   57MOL0     H 7668   2.540   3.959   5.313  0.4231 -0.8121  0.4415
   57MOL0     H 7669   2.400   3.970   5.583 -0.2738 -2.0076 -0.3719
   57MOL0     H 7670   2.430   3.824   5.496  2.0184  0.5226  1.7981
   57MOL0     H 7671   2.249   4.053   5.392  2.5623  0.7930  1.2413
   57MOL0     H 7672   2.293   3.899   5.311 -3.0489  2.1291 -1.0205
   57MOL0     H 7673   2.158   3.898   5.586 -1.4681 -1.1923 -0.1635
   57MOL0     H 7674   2.197   3.759   5.484  1.0149  0.5530  1.5785
   57MOL0     H 7675   1.993   3.977   5.451  1.2739 -1.5744  2.3675
   57MOL0     H 7676   1.952   3.809   5.467  0.8694 -0.6214  2.9105
   57MOL0     H 7677   3.175   4.286   5.365  1.4030  0.5829 -0.4331
   57MOL0     H 7678   3.427   4.242   5.389 -0.0748 -0.3734 -2.2073
   57MOL0     H 7679   3.753   4.066   5.645 -1.9520 -0.9471  0.2042
   57MOL0     H 7680   3.974   4.006   5.717 -2.2123  0.8167  0.2133
   57MOL0     H 7681   3.441   2.762   5.593  1.6774 -1.7549 -0.4665
   57MOL0     H 7682   3.229   2.800   5.472 -0.0992  0.3157 -0.6340
   57MOL0     H 7683   2.998   3.250   5.130  2.1275 -0.7138 -2.0444
   57MOL0     H 7684   2.809   3.258   5.001  0.5742  1.3096  4.1648
   57MOL0     H 7685   2.539   3.165   4.930  2.2314  0.0964  2.2640
   57MOL0     H 7686   2.668   3.242   4.839 -0.1820  0.5188 -1.6002
   57MOL0     H 7687   2.464   3.051   4.722 -1.0357  1.0992 -2.0259
   57MOL0     H 7688   2.629   3.072   4.655 -0.1027 -0.1097 -0.0941
   57MOL0     H 7689   2.482   3.231   4.541  1.3947  0.5352 -0.0025
   57MOL0     H 7690   2.569   3.325   4.668 -0.2534 -0.0618  1.5812
   57MOL0     H 7691   2.380   3.322   4.819  0.5311  1.1372 -0.4393
   57MOL0     H 7692   2.296   3.225   4.691  1.9184 -2.7640  3.4864
   57MOL0     H 7693   2.233   3.610   4.538 -5.3525 -1.1800  1.6738
   57MOL0     H 7694   2.799   2.816   4.985  0.8857  0.4141 -0.9502
   57MOL0     H 7695   3.000   2.819   5.122  1.2839  1.3430  2.1873
   58MOL0     O 7696   0.815  10.515   6.218  0.5755  0.8073 -0.0714
   58MOL0     C 7697   0.853  10.622   6.264  1.1122  0.0943 -0.3728
   58MOL0     O 7698   0.778  10.738   6.265 -0.9582  0.0444 -0.2960
   58MOL0     C 7699   0.650  10.736   6.211  0.2972  0.3120  0.1512
   58MOL0     C 7700   0.550  10.673   6.289  0.2019  0.1439 -0.2334
   58MOL0     C 7701   0.422  10.659   6.238 -0.5918 -0.6574 -1.1776
   58MOL0     C 7702   0.385  10.710   6.111 -0.2562  0.0112 -0.1006
   58MOL0     O 7703   0.269  10.675   6.047 -0.3940 -0.0954  0.1238
   58MOL0     C 7704   0.163  10.640   6.133 -0.4802  1.2258  1.0992
   58MOL0     C 7705   0.175  10.483   6.130 -0.6519 -0.7193  0.5571
   58MOL0     C 7706   0.120  10.427   5.999 -0.2927 -0.4599 -0.2421
   58MOL0     C 7707   0.124  10.277   5.984  0.6372  0.3471  0.9298
   58MOL0     C 7708   0.107  10.215   5.848 -0.2338  0.2451  0.3031
   58MOL0     C 7709  -0.027  10.225   5.779 -0.1590  0.2050 -0.8201
   58MOL0     C 7710  -0.030  10.141   5.640  0.3122 -0.2822 -0.8077
   58MOL0     C 7711  -0.180  10.149   5.599 -0.0768  0.4449  0.0471
   58MOL0     N 7712  -0.186  10.134   5.449  0.3492 -0.6773  0.3519
   58MOL0     C 7713  -0.241  10.233   5.360  0.4895  0.5990 -0.0862
   58MOL0     C 7714  -0.252  10.167   5.247 -0.9569 -0.2370  0.1166
   58MOL0     C 7715  -0.327  10.215   5.128 -0.8477 -0.2626 -0.3985
   58MOL0     C 7716  -0.429  10.113   5.071  0.2312  0.0747 -0.2268
   58MOL0     C 7717  -0.467  10.161   4.923 -0.1150  0.3861 -0.7351
   58MOL0     C 7718  -0.570  10.071   4.860  0.9413 -0.4319 -0.5484
   58MOL0     O 7719  -0.577  10.104   4.724  0.4384 -0.1000 -0.2640
   58MOL0     C 7720  -0.686  10.061   4.659  0.6372  0.2815 -0.2922
   58MOL0     C 7721  -0.788   9.957   4.701 -0.0486 -0.4247  0.3652
   58MOL0     C 7722  -0.886   9.932   4.606 -0.6048 -0.4787 -0.3967
   58MOL0     C 7723  -0.981   9.815   4.643  0.1219 -0.4928 -0.6621
   58MOL0     C 7724  -0.907  10.009   4.491 -0.8148 -0.1897  0.1777
   58MOL0     C 7725  -1.022  10.002   4.402 -0.4911  0.2353  0.5270
   58MOL0     O 7726  -0.991  10.000   4.267 -0.1560 -0.4985 -0.1080
   58MOL0     C 7727  -1.086   9.957   4.178  0.2986 -0.5826 -0.1032
   58MOL0     C 7728  -1.185   9.855   4.197  0.8336 -0.3294  0.3094
   58MOL0     C 7729  -1.281   9.844   4.097  0.2276  0.6363 -0.2134
   58MOL0     C 7730  -1.301   9.939   3.998 -0.3848 -0.6006  0.6916
   58MOL0     O 7731  -1.417   9.936   3.924  0.9832  0.4998  0.6642
   58MOL0     C 7732  -1.473  10.044   3.849 -0.1543 -0.2760 -0.3614
   58MOL0     C 7733  -1.538  10.146   3.939 -0.9824  0.0125  0.0472
   58MOL0     C 7734  -1.664  10.101   4.016  0.2239 -0.4401  0.7304
   58MOL0     C 7735  -1.713  10.193   4.130 -0.0895  0.7994 -0.6995
   58MOL0     C 7736  -1.807  10.115   4.222 -0.4042  0.0467  0.8699
   58MOL0     C 7737  -1.857  10.207   4.337 -0.0993  0.5012 -0.0087
   58MOL0     C 7738  -1.973  10.132   4.421 -1.4755 -0.2085  0.1900
   58MOL0     C 7739  -1.912  10.074   4.547  0.4672  0.7812 -0.2389
   58MOL0    Cl 7740  -2.026   9.950   4.614  0.1406  0.1600  0.1399
   58MOL0     C 7741  -1.205  10.041   3.989 -0.2899 -0.3186  0.9138
   58MOL0     C 7742  -1.095  10.042   4.070 -0.8499 -0.0091  0.3075
   58MOL0     O 7743  -1.137   9.991   4.445 -0.4761 -0.4078  0.6414
   58MOL0     C 7744  -0.812  10.106   4.461 -0.3023 -0.3978  0.7835
   58MOL0     C 7745  -0.702  10.129   4.532 -0.3551 -0.6122  0.0010
   58MOL0     N 7746  -0.209  10.034   5.261  0.2225 -0.0966  0.0504
   58MOL0     N 7747  -0.169  10.019   5.381 -0.7515 -0.0011  0.3595
   58MOL0     C 7748   0.478  10.788   6.046  0.5277 -0.7451 -0.2598
   58MOL0     C 7749   0.613  10.801   6.097  0.2293  0.4335  0.4452
   58MOL0     C 7750   0.999  10.632   6.305 -0.2081  0.1105  0.1233
   58MOL0     C 7751   1.079  10.524   6.285 -0.0166  0.1643 -0.0601
   58MOL0     C 7752   1.217  10.527   6.304 -0.6282  0.5967  0.8834
   58MOL0     C 7753   1.280  10.644   6.346 -0.1409 -0.1043 -0.8456
   58MOL0     O 7754   1.416  10.646   6.335  0.3213 -0.7056 -0.2409
   58MOL0     C 7755   1.499  10.760   6.370  0.1435  0.2099 -0.1221
   58MOL0     C 7756   1.652  10.732   6.368 -0.7385 -0.3306 -1.3851
   58MOL0     C 7757   1.697  10.702   6.225  0.3704  0.9377 -0.7366
   58MOL0     C 7758   1.841  10.734   6.177 -1.0507  0.1226 -1.2286
   58MOL0     C 7759   1.931  10.627   6.219  0.6667 -0.4079 -0.5479
   58MOL0     C 7760   1.997  10.534   6.250 -0.2589  0.3403 -0.4100
   58MOL0     C 7761   1.195  10.754   6.379 -1.2726  0.5502 -0.0794
   58MOL0     C 7762   1.056  10.749   6.357  1.2001 -0.2400  0.4045
   58MOL0     H 7763   0.577  10.610   6.373 -2.2205  0.2091  0.6537
   58MOL0     H 7764   0.355  10.609   6.308 -1.4321  1.0514 -0.6871
   58MOL0     H 7765   0.165  10.682   6.234 -0.3668 -1.8765  2.5026
   58MOL0     H 7766   0.067  10.658   6.084  0.6978 -0.0360 -1.8726
   58MOL0     H 7767   0.283  10.468   6.128  0.1316  3.5973 -1.9831
   58MOL0     H 7768   0.121  10.442   6.216 -2.3440  0.4794  0.1269
   58MOL0     H 7769   0.015  10.454   5.986 -0.0137  0.5969 -0.3887
   58MOL0     H 7770   0.174  10.476   5.917 -1.9283 -1.6392 -2.1071
   58MOL0     H 7771   0.215  10.233   6.025  0.6071  0.5510  1.2138
   58MOL0     H 7772   0.047  10.224   6.040  0.3098 -1.2024 -0.8527
   58MOL0     H 7773   0.185  10.267   5.791  1.0367 -1.0783  0.7559
   58MOL0     H 7774   0.144  10.112   5.850 -0.1244  0.2909  0.8528
   58MOL0     H 7775  -0.112  10.188   5.837 -0.9368  2.0471 -0.7276
   58MOL0     H 7776  -0.042  10.331   5.754 -3.3001  0.3206  1.0667
   58MOL0     H 7777   0.042  10.195   5.577  0.7196  0.0424 -0.0718
   58MOL0     H 7778   0.017  10.042   5.650  1.5812  0.4723  1.2395
   58MOL0     H 7779  -0.228  10.234   5.647 -0.7373 -2.1814  4.6460
   58MOL0     H 7780  -0.246  10.072   5.641 -0.3876  0.9542  0.4908
   58MOL0     H 7781  -0.286  10.327   5.389  0.0189  0.4182 -0.2181
   58MOL0     H 7782  -0.368  10.312   5.159  1.8570  0.3608  1.7112
   58MOL0     H 7783  -0.241  10.231   5.062 -0.1267  2.2604  1.0123
   58MOL0     H 7784  -0.509  10.114   5.145 -0.2348  0.0498 -0.7231
   58MOL0     H 7785  -0.386  10.014   5.052 -1.1521 -0.2437 -2.0087
   58MOL0     H 7786  -0.376  10.154   4.863 -0.4742  0.2991 -1.2692
   58MOL0     H 7787  -0.498  10.266   4.924 -3.1182 -0.4328  0.3273
   58MOL0     H 7788  -0.666  10.097   4.906  0.8805 -1.4926 -0.0419
   58MOL0     H 7789  -0.554   9.963   4.855  1.7422 -0.2704 -3.6570
   58MOL0     H 7790  -0.786   9.907   4.798 -0.3187 -1.6942 -0.2604
   58MOL0     H 7791  -1.079   9.828   4.597 -0.0688 -2.4462 -0.8569
   58MOL0     H 7792  -0.940   9.716   4.624 -0.7522 -0.5579 -2.3536
   58MOL0     H 7793  -0.993   9.828   4.751 -0.9868 -1.9627 -0.5769
   58MOL0     H 7794  -1.195   9.797   4.288  0.3839 -1.6810 -0.5781
   58MOL0     H 7795  -1.361   9.774   4.116 -1.4324  1.8440 -2.2962
   58MOL0     H 7796  -1.403  10.084   3.776 -1.3866  2.6837 -0.0796
   58MOL0     H 7797  -1.546   9.992   3.787  0.6997  0.2330 -1.8337
   58MOL0     H 7798  -1.456  10.167   4.009  1.5195 -1.4966 -2.2098
   58MOL0     H 7799  -1.556  10.235   3.878 -1.4693  0.1388  0.3756
   58MOL0     H 7800  -1.650   9.999   4.054 -2.6000 -1.8984 -1.6763
   58MOL0     H 7801  -1.737  10.090   3.935  2.2634 -1.4941 -1.0708
   58MOL0     H 7802  -1.619  10.224   4.175  1.3646 -0.3458 -2.7682
   58MOL0     H 7803  -1.765  10.278   4.083  0.6749 -0.1027 -3.3887
   58MOL0     H 7804  -1.766  10.028   4.274  0.1282 -0.7086 -0.7788
   58MOL0     H 7805  -1.893  10.082   4.164  0.9364 -1.2603 -0.4447
   58MOL0     H 7806  -1.785  10.261   4.398  0.9324  0.4224 -1.1227
   58MOL0     H 7807  -1.914  10.289   4.292 -2.6491 -1.3850 -0.4959
   58MOL0     H 7808  -2.012  10.050   4.360  2.6069 -1.9321 -0.4698
   58MOL0     H 7809  -2.048  10.207   4.445  0.2114  2.6652 -2.7132
   58MOL0     H 7810  -1.905  10.147   4.629  1.4387 -0.1380  0.5211
   58MOL0     H 7811  -1.811  10.039   4.524  0.5028  1.5539 -1.3359
   58MOL0     H 7812  -1.224  10.114   3.911  3.8642 -1.0186 -1.0172
   58MOL0     H 7813  -1.017  10.116   4.054  2.1785 -2.6648  1.7052
   58MOL0     H 7814  -0.817  10.145   4.360 -2.0883 -2.9410 -0.2049
   58MOL0     H 7815  -0.619  10.192   4.503  0.5097 -1.4026  0.6993
   58MOL0     H 7816   0.467  10.847   5.956 -0.1327 -0.4937 -0.0171
   58MOL0     H 7817   0.686  10.863   6.046  0.0635  0.8999  0.7710
   58MOL0     H 7818   1.045  10.433   6.237 -0.0618  0.9299 -1.5356
   58MOL0     H 7819   1.257  10.430   6.275 -2.5815  0.3363 -1.2048
   58MOL0     H 7820   1.482  10.845   6.303 -0.2923  1.3503  1.3945
   58MOL0     H 7821   1.457  10.782   6.468 -1.9296 -4.3218  0.2885
   58MOL0     H 7822   1.672  10.644   6.429  1.7143  1.8583  1.2292
   58MOL0     H 7823   1.711  10.813   6.411 -1.1155  0.4501 -2.2900
   58MOL0     H 7824   1.641  10.763   6.155  0.8219  2.6764  0.3339
   58MOL0     H 7825   1.674  10.599   6.199 -4.4374  0.7477  2.9813
   58MOL0     H 7826   1.869  10.828   6.226  1.9359 -1.1128 -0.3598
   58MOL0     H 7827   1.843  10.751   6.069 -1.8651 -0.1390 -1.2968
   58MOL0     H 7828   2.050  10.451   6.291 -1.0181  0.6117  1.1650
   58MOL0     H 7829   1.231  10.850   6.415  0.8139  0.2577 -1.1859
   58MOL0     H 7830   0.987  10.830   6.375 -0.9931 -1.8947 -0.1468
   59MOL0     O 7831   0.058   4.192  11.274  0.1234  0.8848 -0.6749
   59MOL0     C 7832   0.130   4.289  11.249  0.0664  0.2147 -0.3230
   59MOL0     O 7833   0.099   4.403  11.175  0.0329 -0.3543  0.7990
   59MOL0     C 7834  -0.026   4.413  11.117 -1.2349 -0.1227  0.4192
   59MOL0     C 7835  -0.038   4.456  10.983  0.1206 -0.6548  0.1233
   59MOL0     C 7836  -0.168   4.486  10.941  0.2554 -0.9315 -0.2960
   59MOL0     C 7837  -0.282   4.472  11.023 -0.6209  0.4338 -0.9763
   59MOL0     O 7838  -0.415   4.498  10.984 -0.3510 -0.1631 -0.7048
   59MOL0     C 7839  -0.453   4.480  10.853  0.2978  0.4474  0.0464
   59MOL0     C 7840  -0.503   4.339  10.828  0.5760 -0.1601  1.0810
   59MOL0     C 7841  -0.391   4.239  10.837  0.9399 -0.5483  0.2370
   59MOL0     C 7842  -0.438   4.100  10.808 -0.2064 -0.0774 -0.8406
   59MOL0     C 7843  -0.320   4.005  10.783 -0.5351  0.0172  0.5604
   59MOL0     C 7844  -0.268   4.011  10.640  0.9640 -0.2302  0.7055
   59MOL0     C 7845  -0.369   3.930  10.545  0.1045  1.1848 -0.3226
   59MOL0     C 7846  -0.308   3.942  10.403 -0.1902 -0.9051  0.6232
   59MOL0     N 7847  -0.391   3.887  10.299  0.4723  0.4479  0.0389
   59MOL0     C 7848  -0.503   3.796  10.307 -0.7460 -0.5735  0.2190
   59MOL0     C 7849  -0.544   3.779  10.180 -0.1090  0.5965 -0.4317
   59MOL0     C 7850  -0.655   3.693  10.118 -0.3036  0.1418 -0.0299
   59MOL0     C 7851  -0.778   3.782  10.101 -0.4718  0.2848  0.3879
   59MOL0     C 7852  -0.861   3.801  10.226 -1.0498  0.3366  0.1999
   59MOL0     C 7853  -0.964   3.907  10.201  0.0392 -0.2722  0.4567
   59MOL0     O 7854  -1.024   3.947  10.328  0.2505 -0.5481 -0.0500
   59MOL0     C 7855  -1.158   3.979  10.327 -0.1709  0.3601  0.6000
   59MOL0     C 7856  -1.238   3.909  10.407  0.3534 -0.7084 -0.1616
   59MOL0     C 7857  -1.378   3.930  10.411 -0.2197  0.1933  0.6344
   59MOL0     C 7858  -1.461   3.846  10.505 -0.0541  0.0078  1.4629
   59MOL0     C 7859  -1.427   4.050  10.352 -0.1221 -0.2059 -0.0501
   59MOL0     C 7860  -1.567   4.095  10.347  0.7126 -0.2620  0.2382
   59MOL0     O 7861  -1.669   4.004  10.369 -0.5639  0.6532 -0.0578
   59MOL0     C 7862  -1.799   4.024  10.341  0.7092 -0.7052  0.2357
   59MOL0     C 7863  -1.862   4.141  10.398  0.4405  0.0598 -0.3705
   59MOL0     C 7864  -1.997   4.165  10.377 -0.2165  0.7503 -0.4046
   59MOL0     C 7865  -2.082   4.083  10.309 -0.2876  0.6751 -0.1152
   59MOL0     O 7866  -2.216   4.115  10.300  0.0661  0.4773  0.4731
   59MOL0     C 7867  -2.308   4.008  10.298  0.4993 -0.5985  1.2479
   59MOL0     C 7868  -2.452   4.077  10.303  0.2588 -0.1886 -0.0539
   59MOL0     C 7869  -2.559   3.973  10.307 -0.3521 -0.6634 -0.1820
   59MOL0     C 7870  -2.684   4.014  10.385  0.5808 -0.0851 -0.3749
   59MOL0     C 7871  -2.805   3.942  10.332 -0.5319 -0.0130  0.5659
   59MOL0     C 7872  -2.924   3.992  10.405  0.5683  0.0378 -0.0685
   59MOL0     C 7873  -3.054   3.917  10.370  0.2716 -0.7829  0.5661
   59MOL0     C 7874  -3.088   3.923  10.219  1.1502 -0.2411 -0.1436
   59MOL0    Cl 7875  -3.083   4.081  10.148 -0.1898 -0.0123  0.0777
   59MOL0     C 7876  -2.018   3.960  10.261  0.4068 -0.1623  0.1972
   59MOL0     C 7877  -1.880   3.932  10.274 -0.8191 -0.2096  0.3702
   59MOL0     O 7878  -1.583   4.217  10.316 -0.4088 -0.0130  0.3187
   59MOL0     C 7879  -1.328   4.130  10.279  0.2615 -0.0101 -0.6547
   59MOL0     C 7880  -1.196   4.085  10.260  0.9591 -0.0397  0.2788
   59MOL0     N 7881  -0.473   3.869  10.097 -0.1760  0.6138 -0.4203
   59MOL0     N 7882  -0.393   3.928  10.169 -0.8916  0.5096  0.6799
   59MOL0     C 7883  -0.267   4.403  11.141  0.5930  0.0131  0.7888
   59MOL0     C 7884  -0.138   4.392  11.192 -0.6529  0.8994  0.7329
   59MOL0     C 7885   0.260   4.274  11.318 -0.2890 -0.3983 -0.0998
   59MOL0     C 7886   0.280   4.170  11.407  0.3136  0.8220 -0.0418
   59MOL0     C 7887   0.406   4.151  11.468 -0.5792 -0.4830  0.1997
   59MOL0     C 7888   0.516   4.246  11.441  0.9264 -0.3542  0.0733
   59MOL0     O 7889   0.638   4.214  11.504 -1.0003 -0.1528  0.2519
   59MOL0     C 7890   0.746   4.314  11.498  1.1920 -0.4021  0.1836
   59MOL0     C 7891   0.865   4.279  11.583 -0.4614  1.1648 -1.0133
   59MOL0     C 7892   0.835   4.237  11.733 -0.4816  0.8485  0.3666
   59MOL0     C 7893   0.959   4.210  11.825  0.8262  0.1967  0.2407
   59MOL0     C 7894   0.916   4.173  11.963 -0.7982  0.4911 -0.1739
   59MOL0     C 7895   0.888   4.151  12.072  0.1278  0.4251 -0.4279
   59MOL0     C 7896   0.490   4.358  11.359 -0.3639  0.9256  0.4308
   59MOL0     C 7897   0.360   4.363  11.298 -0.8812 -0.3299 -0.6142
   59MOL0     H 7898   0.048   4.468  10.918 -0.1145 -1.3533 -0.3249
   59MOL0     H 7899  -0.161   4.545  10.850  3.2542  0.8825  0.9368
   59MOL0     H 7900  -0.540   4.544  10.836 -0.7310 -1.3453 -2.0276
   59MOL0     H 7901  -0.378   4.511  10.780 -0.8545  0.6707 -1.0749
   59MOL0     H 7902  -0.584   4.320  10.898 -0.9083  0.8128 -0.3150
   59MOL0     H 7903  -0.540   4.347  10.726 -0.0720  0.6950  1.3741
   59MOL0     H 7904  -0.309   4.276  10.775 -0.0110  2.0708  0.4070
   59MOL0     H 7905  -0.350   4.235  10.938 -1.2309 -1.6574  1.1431
   59MOL0     H 7906  -0.492   4.057  10.893 -2.1374  2.9801 -0.3889
   59MOL0     H 7907  -0.511   4.105  10.727 -1.1903  0.7294  0.0668
   59MOL0     H 7908  -0.239   4.022  10.854 -2.0421  0.8299  2.1386
   59MOL0     H 7909  -0.348   3.902  10.809 -0.3243 -0.0821  0.4018
   59MOL0     H 7910  -0.261   4.116  10.610  0.0340  0.2126  1.9484
   59MOL0     H 7911  -0.173   3.959  10.626  0.2300 -1.7324  1.1148
   59MOL0     H 7912  -0.365   3.825  10.577  1.8412  1.7724  1.5385
   59MOL0     H 7913  -0.472   3.967  10.548  0.1835  1.3080  1.2557
   59MOL0     H 7914  -0.208   3.902  10.387  0.0403  0.5755 -2.3510
   59MOL0     H 7915  -0.317   4.050  10.385 -0.1031 -1.0256 -0.1900
   59MOL0     H 7916  -0.526   3.739  10.396  2.7076  0.8584  2.2804
   59MOL0     H 7917  -0.606   3.669  10.023 -0.5525 -2.1026  0.3583
   59MOL0     H 7918  -0.683   3.602  10.172 -0.3735 -0.9747 -1.8816
   59MOL0     H 7919  -0.840   3.738  10.023 -1.7464  1.3904  0.7431
   59MOL0     H 7920  -0.743   3.879  10.065  0.2707  0.1441  0.7184
   59MOL0     H 7921  -0.793   3.843  10.302  3.0481 -0.1921 -2.8212
   59MOL0     H 7922  -0.893   3.707  10.272 -1.7638  0.7765  0.6153
   59MOL0     H 7923  -1.036   3.869  10.129 -1.0411  3.7792 -0.8825
   59MOL0     H 7924  -0.907   3.994  10.167  1.2433 -0.7688  1.1192
   59MOL0     H 7925  -1.182   3.839  10.469  2.3534 -0.7909 -1.9347
   59MOL0     H 7926  -1.481   3.907  10.594  1.8722  4.0884 -0.6376
   59MOL0     H 7927  -1.555   3.819  10.457  0.0003  1.9529  0.1455
   59MOL0     H 7928  -1.400   3.758  10.528  0.1025 -0.2078  0.2672
   59MOL0     H 7929  -1.824   4.207  10.475 -2.9726  0.2332  1.3283
   59MOL0     H 7930  -2.039   4.255  10.421 -0.6881  0.2014  0.3039
   59MOL0     H 7931  -2.296   3.952  10.205  1.2477 -0.7162  1.4078
   59MOL0     H 7932  -2.290   3.938  10.379  2.9480 -2.7977 -0.9942
   59MOL0     H 7933  -2.466   4.143  10.390 -0.6062 -1.6263  0.9303
   59MOL0     H 7934  -2.466   4.140  10.215  0.3354 -2.4082 -1.7474
   59MOL0     H 7935  -2.518   3.876  10.337  1.3527 -0.2819 -1.1825
   59MOL0     H 7936  -2.592   3.967  10.203  1.6761 -0.8312 -0.8525
   59MOL0     H 7937  -2.677   4.002  10.493  0.5433  0.2807 -0.3294
   59MOL0     H 7938  -2.691   4.123  10.379  0.2893 -0.1729 -3.4200
   59MOL0     H 7939  -2.796   3.834  10.345  1.1828  0.2712  1.9662
   59MOL0     H 7940  -2.816   3.974  10.228  0.4744  1.0256  0.7682
   59MOL0     H 7941  -2.914   3.977  10.513  1.8888  0.6212 -0.1011
   59MOL0     H 7942  -2.923   4.099  10.383  0.0286 -0.0400 -0.4831
   59MOL0     H 7943  -3.137   3.968  10.419  0.3592  2.0726 -1.9375
   59MOL0     H 7944  -3.043   3.812  10.399 -0.2121 -0.9511  0.1445
   59MOL0     H 7945  -3.189   3.883  10.220  1.9500 -2.3983  0.6646
   59MOL0     H 7946  -3.023   3.851  10.168  4.0917  0.8659  1.7961
   59MOL0     H 7947  -2.082   3.890  10.207 -3.1483  0.6526  2.9611
   59MOL0     H 7948  -1.835   3.843  10.231 -0.9314 -0.0358 -0.1139
   59MOL0     H 7949  -1.356   4.225  10.234  0.2945 -0.4227 -1.5663
   59MOL0     H 7950  -1.127   4.142  10.199  2.1354 -3.3370 -1.7187
   59MOL0     H 7951  -0.355   4.362  11.189  2.0394 -3.1892  1.0128
   59MOL0     H 7952  -0.126   4.355  11.293 -0.6257  1.5134  0.9563
   59MOL0     H 7953   0.191   4.112  11.431 -0.2147  1.8793  0.6524
   59MOL0     H 7954   0.422   4.066  11.534  1.0343 -1.0368 -0.8277
   59MOL0     H 7955   0.779   4.335  11.395 -1.4998  1.1188 -0.4668
   59MOL0     H 7956   0.704   4.408  11.534 -1.9436 -1.1872 -1.0879
   59MOL0     H 7957   0.928   4.367  11.598  0.2338  0.4241  0.6131
   59MOL0     H 7958   0.914   4.197  11.529 -3.9726 -2.8973  1.3929
   59MOL0     H 7959   0.775   4.147  11.726  1.7997 -0.6367 -3.0033
   59MOL0     H 7960   0.768   4.304  11.788 -0.3474  0.2557  1.2783
   59MOL0     H 7961   1.028   4.294  11.838 -1.0281  1.6680  0.9730
   59MOL0     H 7962   1.021   4.125  11.794 -0.1714  0.0322 -1.3612
   59MOL0     H 7963   0.883   4.107  12.169  3.2296 -0.3032 -0.5037
   59MOL0     H 7964   0.558   4.440  11.336 -0.1185  0.9251  1.1331
   59MOL0     H 7965   0.326   4.441  11.230  0.3702  0.1751 -0.6759
   60MOL0     O 7966   3.389   5.270   1.681 -0.3456 -0.0605  0.2233
   60MOL0     C 7967   3.348   5.318   1.790  0.1100  0.8139  0.4251
   60MOL0     O 7968   3.238   5.403   1.806  0.7861  0.3597 -0.1415
   60MOL0     C 7969   3.181   5.465   1.692  0.3760  0.4143  0.3475
   60MOL0     C 7970   3.250   5.538   1.596  0.2363 -0.1741  0.1715
   60MOL0     C 7971   3.186   5.608   1.492  0.1410 -0.3190 -0.6344
   60MOL0     C 7972   3.043   5.604   1.479 -0.2792  0.1620 -0.3268
   60MOL0     O 7973   2.997   5.666   1.371  0.7431 -0.8097  0.3137
   60MOL0     C 7974   2.860   5.620   1.326 -0.2702 -0.4536 -0.0847
   60MOL0     C 7975   2.824   5.671   1.183 -0.2674 -0.4786 -0.7074
   60MOL0     C 7976   2.682   5.638   1.138 -0.2383  0.0107  0.2818
   60MOL0     C 7977   2.651   5.716   1.014 -0.4608  0.0197 -1.2399
   60MOL0     C 7978   2.512   5.702   0.956  0.5925  0.2731  0.3387
   60MOL0     C 7979   2.463   5.554   0.934 -0.7092 -0.7104  0.0171
   60MOL0     C 7980   2.322   5.565   0.887 -0.0175  0.1919 -0.0777
   60MOL0     C 7981   2.283   5.420   0.854 -0.3358 -0.4478  0.8396
   60MOL0     N 7982   2.251   5.336   0.967 -0.8673 -0.3343  0.1153
   60MOL0     C 7983   2.130   5.326   1.033 -0.2769 -0.5914 -0.2599
   60MOL0     C 7984   2.146   5.245   1.140 -0.6723 -0.0441  0.9449
   60MOL0     C 7985   2.042   5.221   1.240  0.2861  0.2118  0.0995
   60MOL0     C 7986   1.980   5.081   1.244 -0.1642 -0.9160  0.0183
   60MOL0     C 7987   1.840   5.080   1.307  0.2426 -0.2931  0.5589
   60MOL0     C 7988   1.787   4.935   1.320  0.0733  0.2865 -0.2316
   60MOL0     O 7989   1.713   4.933   1.435  0.4069 -0.0021 -0.5412
   60MOL0     C 7990   1.579   4.952   1.411 -0.3979  0.3281 -0.8285
   60MOL0     C 7991   1.493   5.029   1.496 -0.0908 -0.3519 -0.3272
   60MOL0     C 7992   1.353   5.034   1.477  0.6640  0.3118 -0.5120
   60MOL0     C 7993   1.279   5.115   1.579 -1.1246  1.2422 -0.1464
   60MOL0     C 7994   1.295   4.965   1.365  0.5577  0.1545  0.2056
   60MOL0     C 7995   1.152   4.966   1.331  0.5934  0.4422  1.0187
   60MOL0     O 7996   1.109   4.867   1.239  0.5803 -0.5257 -0.2681
   60MOL0     C 7997   0.978   4.849   1.230 -0.2585  0.7258 -0.0034
   60MOL0     C 7998   0.886   4.946   1.204  1.2972  0.9720  0.2720
   60MOL0     C 7999   0.745   4.924   1.209 -0.4559  0.4568 -0.3398
   60MOL0     C 8000   0.695   4.792   1.230 -0.4670 -0.0202  0.1334
   60MOL0     O 8001   0.565   4.760   1.225  0.0130 -1.4471  0.4887
   60MOL0     C 8002   0.464   4.865   1.221  0.1872  0.0178  0.2623
   60MOL0     C 8003   0.326   4.801   1.210 -0.7344  0.5390  0.3594
   60MOL0     C 8004   0.290   4.720   1.337 -0.2988  0.0112  1.0455
   60MOL0     C 8005   0.317   4.803   1.467  0.7577 -0.0300  0.4375
   60MOL0     C 8006   0.286   4.709   1.587  0.6189  0.2095  1.0782
   60MOL0     C 8007   0.322   4.785   1.712 -0.9749  0.0450 -0.5551
   60MOL0     C 8008   0.194   4.856   1.768  1.2817  0.3450  0.0040
   60MOL0     C 8009   0.219   4.939   1.893 -0.1394  0.3743  0.1589
   60MOL0    Cl 8010   0.335   5.058   1.835  0.0167 -0.0194  0.0973
   60MOL0     C 8011   0.786   4.688   1.244  0.2470 -0.1003  0.3350
   60MOL0     C 8012   0.926   4.721   1.250  0.3357 -0.7900  0.1702
   60MOL0     O 8013   1.081   5.053   1.384  0.0238  0.1051 -0.0585
   60MOL0     C 8014   1.381   4.896   1.278 -0.1721  0.4405  0.4456
   60MOL0     C 8015   1.513   4.883   1.304  0.5212 -0.3677  0.5713
   60MOL0     N 8016   2.280   5.201   1.140  0.0915 -0.7718  0.0981
   60MOL0     N 8017   2.342   5.253   1.031 -0.7310  0.4120 -0.3509
   60MOL0     C 8018   2.974   5.521   1.572  0.2718 -0.7907 -1.3168
   60MOL0     C 8019   3.043   5.445   1.663  0.0312  0.7614 -0.2533
   60MOL0     C 8020   3.417   5.269   1.913 -0.1595 -0.5384  0.3617
   60MOL0     C 8021   3.547   5.222   1.913 -0.7441  0.2407  0.2345
   60MOL0     C 8022   3.601   5.170   2.031  0.1096 -0.3924 -0.2362
   60MOL0     C 8023   3.534   5.192   2.154  0.8075 -0.2945  1.0079
   60MOL0     O 8024   3.588   5.155   2.274  0.1087  0.3449 -0.7385
   60MOL0     C 8025   3.711   5.087   2.289 -0.7254  0.5707 -0.0206
   60MOL0     C 8026   3.709   5.029   2.433  0.1157  0.5513 -0.7592
   60MOL0     C 8027   3.786   4.901   2.450  0.2115 -0.3318  0.3539
   60MOL0     C 8028   3.783   4.864   2.598 -0.0283  0.7289  0.5724
   60MOL0     C 8029   3.889   4.938   2.664 -1.0638  0.3997  0.1856
   60MOL0     C 8030   3.951   5.024   2.710 -0.7713 -0.2027 -0.2907
   60MOL0     C 8031   3.403   5.244   2.158 -0.7329 -0.2595 -0.2000
   60MOL0     C 8032   3.344   5.276   2.034 -0.6720 -0.7330 -0.1742
   60MOL0     H 8033   3.357   5.526   1.594  0.1285 -1.5098  1.1914
   60MOL0     H 8034   3.252   5.657   1.422  2.3817 -0.8141  1.0364
   60MOL0     H 8035   2.843   5.513   1.340  0.8830 -0.4981  1.2475
   60MOL0     H 8036   2.779   5.669   1.380 -0.1157  1.1799 -1.2755
   60MOL0     H 8037   2.850   5.776   1.173  2.5457 -0.9526  0.6819
   60MOL0     H 8038   2.911   5.634   1.129  1.3865  0.8806  0.9027
   60MOL0     H 8039   2.684   5.530   1.118 -1.1579 -0.4362  2.3417
   60MOL0     H 8040   2.607   5.654   1.215 -0.5410  1.8865 -0.3531
   60MOL0     H 8041   2.655   5.821   1.047 -2.0159  0.1941 -1.5371
   60MOL0     H 8042   2.733   5.690   0.947  2.0747 -3.4848  2.6880
   60MOL0     H 8043   2.439   5.758   1.016  1.6630  1.8141  0.2517
   60MOL0     H 8044   2.516   5.759   0.863 -0.7735 -1.6622 -0.9638
   60MOL0     H 8045   2.527   5.509   0.857  0.3481 -0.1232  0.5254
   60MOL0     H 8046   2.473   5.498   1.027  0.2177  0.0382  0.3874
   60MOL0     H 8047   2.249   5.594   0.963 -1.2269 -0.9691 -0.7350
   60MOL0     H 8048   2.323   5.628   0.797 -1.8317  0.8345  0.3085
   60MOL0     H 8049   2.357   5.373   0.788 -1.0298 -0.8594  0.3350
   60MOL0     H 8050   2.191   5.426   0.794  1.1082 -0.6660 -1.5525
   60MOL0     H 8051   2.040   5.377   1.002  0.3470  0.5675 -0.2115
   60MOL0     H 8052   2.086   5.250   1.336  0.1645  1.1270 -0.1161
   60MOL0     H 8053   1.960   5.286   1.210  2.9715  2.5358 -2.8542
   60MOL0     H 8054   2.051   5.021   1.301  2.4425  0.7299 -1.3088
   60MOL0     H 8055   1.974   5.044   1.141 -0.0973  3.6305 -1.8725
   60MOL0     H 8056   1.766   5.139   1.253  0.1743 -2.5504 -2.0367
   60MOL0     H 8057   1.848   5.130   1.404  0.2908  2.3142 -0.7211
   60MOL0     H 8058   1.878   4.874   1.328 -0.0122  0.2662  0.7509
   60MOL0     H 8059   1.736   4.903   1.229  1.1576  1.0117 -1.1275
   60MOL0     H 8060   1.537   5.072   1.585 -2.6627  0.6036  0.5824
   60MOL0     H 8061   1.191   5.056   1.607 -1.2548  0.4811 -2.0320
   60MOL0     H 8062   1.347   5.129   1.663 -0.4507  0.2262 -0.4933
   60MOL0     H 8063   1.248   5.216   1.553 -0.3693  1.7069  0.6801
   60MOL0     H 8064   0.934   5.038   1.174  3.2619  1.1150  3.4095
   60MOL0     H 8065   0.684   5.013   1.192  0.1725  2.1271  4.5289
   60MOL0     H 8066   0.476   4.933   1.307 -0.0943  0.9729 -0.4283
   60MOL0     H 8067   0.474   4.923   1.129  0.5944  0.7725  0.7732
   60MOL0     H 8068   0.255   4.881   1.190 -0.2541  0.8525 -0.1315
   60MOL0     H 8069   0.324   4.740   1.119  0.7309 -2.0301  1.9059
   60MOL0     H 8070   0.345   4.625   1.335  1.6520  1.0269 -2.7409
   60MOL0     H 8071   0.188   4.681   1.322  1.0901 -3.9796  0.8136
   60MOL0     H 8072   0.421   4.832   1.482  1.5505 -2.6676  0.6111
   60MOL0     H 8073   0.253   4.891   1.459 -2.1425 -1.9643  0.5111
   60MOL0     H 8074   0.348   4.619   1.581  0.1044 -0.4321  4.1064
   60MOL0     H 8075   0.185   4.667   1.595 -0.4716  2.5971  0.8099
   60MOL0     H 8076   0.365   4.713   1.782 -1.6226  0.8117  0.6670
   60MOL0     H 8077   0.399   4.858   1.691 -1.4285  0.8663  0.5304
   60MOL0     H 8078   0.120   4.780   1.795  0.6711 -0.5214 -3.5816
   60MOL0     H 8079   0.138   4.910   1.691 -2.2416 -1.2043  1.2900
   60MOL0     H 8080   0.259   4.874   1.972 -0.2967 -0.3442 -0.3460
   60MOL0     H 8081   0.133   4.988   1.939 -2.7639 -1.8819 -2.0486
   60MOL0     H 8082   0.751   4.589   1.272  1.9426 -0.1195  2.7226
   60MOL0     H 8083   0.994   4.637   1.263 -1.0940 -1.7927  1.4293
   60MOL0     H 8084   1.341   4.835   1.198 -0.1542  2.0209 -0.8130
   60MOL0     H 8085   1.551   4.815   1.229 -2.9469 -1.3114 -0.5190
   60MOL0     H 8086   2.866   5.512   1.568  0.0051  1.1457 -0.0038
   60MOL0     H 8087   2.986   5.369   1.716  0.9359 -0.1568 -0.5699
   60MOL0     H 8088   3.610   5.228   1.825  2.2186 -2.5493  1.9225
   60MOL0     H 8089   3.704   5.136   2.029  1.3120  2.6770  1.8332
   60MOL0     H 8090   3.704   5.002   2.220 -3.5596 -1.3684  2.4058
   60MOL0     H 8091   3.809   5.135   2.283  0.9359 -2.5803 -0.5402
   60MOL0     H 8092   3.605   5.013   2.462  0.3831  2.4306  1.5538
   60MOL0     H 8093   3.748   5.107   2.500  0.4431 -1.1204  1.0761
   60MOL0     H 8094   3.888   4.902   2.410 -1.1394  0.0572 -3.5226
   60MOL0     H 8095   3.735   4.823   2.392 -0.8979 -0.6839  1.7627
   60MOL0     H 8096   3.794   4.757   2.618 -1.5278  0.3521 -0.4888
   60MOL0     H 8097   3.688   4.897   2.640 -0.8465 -0.3851 -0.3423
   60MOL0     H 8098   4.021   5.101   2.731 -0.6469  0.4695 -2.8736
   60MOL0     H 8099   3.341   5.247   2.247 -0.4185  1.2128 -0.0038
   60MOL0     H 8100   3.236   5.289   2.023 -0.4203  0.3646 -1.6239
   61MOL0     O 8101   5.157   8.496   0.501 -0.4685  0.0322 -0.0611
   61MOL0     C 8102   5.057   8.556   0.467  0.6839 -0.0630 -0.3789
   61MOL0     O 8103   5.041   8.685   0.488  0.4302  0.2826 -0.4886
   61MOL0     C 8104   5.140   8.762   0.531  0.3505 -0.1121  0.1685
   61MOL0     C 8105   5.258   8.774   0.447 -0.6742 -0.0209 -0.6891
   61MOL0     C 8106   5.359   8.872   0.479  0.7198  0.4777 -0.6876
   61MOL0     C 8107   5.339   8.946   0.595  0.2709  0.0514  0.0855
   61MOL0     O 8108   5.453   9.022   0.632  1.3447 -0.1539  0.3094
   61MOL0     C 8109   5.425   9.146   0.701  0.3428 -0.1074 -0.8980
   61MOL0     C 8110   5.449   9.139   0.849 -0.5426 -0.5275 -0.9743
   61MOL0     C 8111   5.591   9.164   0.902 -0.6557 -0.3602 -0.2567
   61MOL0     C 8112   5.590   9.142   1.051 -0.7995  0.9627 -0.6439
   61MOL0     C 8113   5.735   9.163   1.109 -0.0006  0.2215 -0.1907
   61MOL0     C 8114   5.750   9.116   1.258 -0.5510 -0.7412  0.8179
   61MOL0     C 8115   5.901   9.106   1.289  0.5270 -0.0697 -0.1441
   61MOL0     C 8116   5.942   9.052   1.434 -0.3271  1.0362  1.0443
   61MOL0     N 8117   5.883   8.922   1.462 -0.0990  0.8787 -0.2812
   61MOL0     C 8118   5.808   8.889   1.573 -0.5300 -0.2983  0.8097
   61MOL0     C 8119   5.789   8.754   1.570 -0.7657  0.3780  0.2179
   61MOL0     C 8120   5.713   8.669   1.666 -0.2817 -0.0653  0.0172
   61MOL0     C 8121   5.561   8.677   1.634  0.8342  0.4577 -0.2683
   61MOL0     C 8122   5.509   8.554   1.718 -0.4882  0.3743 -1.1316
   61MOL0     C 8123   5.358   8.589   1.736 -0.0705  0.6629 -0.2190
   61MOL0     O 8124   5.301   8.543   1.612 -0.0183 -0.2067  0.0058
   61MOL0     C 8125   5.165   8.573   1.580  0.4512 -0.5430  0.0373
   61MOL0     C 8126   5.118   8.579   1.447  0.0587  0.1757  0.5462
   61MOL0     C 8127   4.993   8.612   1.399  0.1582  0.0135 -0.0231
   61MOL0     C 8128   4.995   8.617   1.243  0.7420  0.3452  0.1904
   61MOL0     C 8129   4.903   8.648   1.500  0.3167 -0.3090  0.4716
   61MOL0     C 8130   4.763   8.686   1.459  0.4753 -0.9098 -0.6444
   61MOL0     O 8131   4.685   8.721   1.566 -0.1603 -0.3611 -0.1267
   61MOL0     C 8132   4.565   8.779   1.535  0.0946 -0.2667  0.0156
   61MOL0     C 8133   4.445   8.708   1.545  0.4154  0.4635  0.2576
   61MOL0     C 8134   4.321   8.779   1.532  0.4598 -0.5627 -0.2812
   61MOL0     C 8135   4.312   8.920   1.507 -0.5357  0.3782 -0.4737
   61MOL0     O 8136   4.184   8.971   1.497 -0.9158  0.0235  0.2572
   61MOL0     C 8137   4.172   9.079   1.391  0.2191  0.8557 -0.2738
   61MOL0     C 8138   4.033   9.138   1.412 -0.5674  0.0658  0.3149
   61MOL0     C 8139   4.032   9.211   1.552  0.6202 -0.4322  0.3880
   61MOL0     C 8140   3.903   9.295   1.560 -0.4177  0.9690  0.0700
   61MOL0     C 8141   3.885   9.374   1.694 -0.0952  1.5005  0.5832
   61MOL0     C 8142   3.749   9.444   1.717  0.1528  0.2467 -1.0402
   61MOL0     C 8143   3.754   9.466   1.875 -0.4524 -0.1735  0.5811
   61MOL0     C 8144   3.622   9.494   1.937 -0.8204  0.6306  0.4973
   61MOL0    Cl 8145   3.659   9.560   2.110 -0.0401 -0.3114 -0.0734
   61MOL0     C 8146   4.440   8.988   1.500 -0.1006 -0.1759 -0.8606
   61MOL0     C 8147   4.560   8.920   1.524 -0.5220 -0.2739 -0.2663
   61MOL0     O 8148   4.727   8.689   1.342  0.9257  0.1105 -0.7985
   61MOL0     C 8149   4.940   8.649   1.637 -0.3417  0.1682  0.1094
   61MOL0     C 8150   5.073   8.620   1.678 -0.4068 -0.3599 -0.7132
   61MOL0     N 8151   5.853   8.717   1.455  0.9518  0.1223  0.3316
   61MOL0     N 8152   5.908   8.813   1.390  0.3718  0.6287 -0.0545
   61MOL0     C 8153   5.219   8.944   0.658 -0.4074 -0.4182 -0.3773
   61MOL0     C 8154   5.117   8.855   0.630  0.2994 -0.2662  0.3205
   61MOL0     C 8155   4.938   8.471   0.420  0.5506 -0.0576 -1.2731
   61MOL0     C 8156   4.824   8.530   0.364  0.1976 -0.9067 -0.8489
   61MOL0     C 8157   4.720   8.440   0.327  0.9606 -0.6550  0.2783
   61MOL0     C 8158   4.731   8.299   0.338  0.0950 -0.1845 -0.2682
   61MOL0     O 8159   4.613   8.234   0.317  0.1904  0.1789 -0.0910
   61MOL0     C 8160   4.600   8.102   0.376 -0.9663 -0.3529 -0.8219
   61MOL0     C 8161   4.498   8.009   0.299 -0.0401  0.4681 -0.8672
   61MOL0     C 8162   4.463   7.887   0.390 -0.0504  0.1127 -0.0540
   61MOL0     C 8163   4.575   7.786   0.421 -0.9441 -0.0418  0.1444
   61MOL0     C 8164   4.515   7.667   0.484 -0.6306  0.4232 -0.0183
   61MOL0     C 8165   4.483   7.563   0.534  0.0643  0.7781  0.0615
   61MOL0     C 8166   4.846   8.248   0.382  0.7572 -0.3887 -0.4812
   61MOL0     C 8167   4.951   8.333   0.421 -0.2436  0.1669  0.4745
   61MOL0     H 8168   5.270   8.710   0.360  0.3573  1.2919 -1.5539
   61MOL0     H 8169   5.453   8.866   0.425  0.7900  0.7934 -0.5986
   61MOL0     H 8170   5.497   9.222   0.669  0.4183 -0.7063 -2.2043
   61MOL0     H 8171   5.325   9.181   0.676  0.0199 -0.4952 -0.1707
   61MOL0     H 8172   5.385   9.221   0.884 -2.0054 -1.6637 -0.8993
   61MOL0     H 8173   5.409   9.044   0.886 -1.3378 -0.0211 -0.5098
   61MOL0     H 8174   5.657   9.088   0.859 -0.2745 -0.9472  1.3238
   61MOL0     H 8175   5.628   9.264   0.881 -0.9580 -0.0899  0.4958
   61MOL0     H 8176   5.524   9.219   1.092 -1.1397  0.2078  0.2883
   61MOL0     H 8177   5.543   9.045   1.074 -0.9516  1.0925 -0.4026
   61MOL0     H 8178   5.804   9.108   1.045  0.2496 -2.1554  1.9556
   61MOL0     H 8179   5.772   9.266   1.100  1.7064 -0.3723 -0.2112
   61MOL0     H 8180   5.711   9.192   1.326  2.0945  0.2140  1.3718
   61MOL0     H 8181   5.697   9.021   1.274 -1.4116 -0.2355  1.0296
   61MOL0     H 8182   5.934   9.027   1.220  0.5893 -0.0195 -0.1708
   61MOL0     H 8183   5.941   9.206   1.277  0.1205  0.3143  1.4529
   61MOL0     H 8184   5.892   9.128   1.496  1.0344  2.3012  0.6462
   61MOL0     H 8185   6.049   9.052   1.454  0.3903  4.7833 -1.6659
   61MOL0     H 8186   5.767   8.955   1.648  0.1834 -0.5886  1.4657
   61MOL0     H 8187   5.732   8.563   1.644 -3.0114 -0.4514 -0.8631
   61MOL0     H 8188   5.750   8.694   1.765  1.7735  2.5105 -1.2821
   61MOL0     H 8189   5.531   8.663   1.529  0.5502 -1.1992  0.0051
   61MOL0     H 8190   5.507   8.764   1.673  1.5551 -1.1640  5.0115
   61MOL0     H 8191   5.561   8.556   1.814  0.0391 -0.8292 -1.3786
   61MOL0     H 8192   5.523   8.456   1.673  0.6421 -0.1898  0.3858
   61MOL0     H 8193   5.333   8.695   1.744  0.7777  0.8735 -0.2933
   61MOL0     H 8194   5.321   8.518   1.811  1.0665  0.2367 -0.0556
   61MOL0     H 8195   5.200   8.557   1.379 -1.3649  0.1869 -1.2489
   61MOL0     H 8196   4.901   8.660   1.206  0.9924  0.2014 -0.6345
   61MOL0     H 8197   5.080   8.678   1.211 -0.1145  3.2956  2.9846
   61MOL0     H 8198   5.001   8.520   1.193 -1.2593  1.0709 -1.6488
   61MOL0     H 8199   4.447   8.603   1.572  1.4520  0.5594  0.6053
   61MOL0     H 8200   4.228   8.724   1.541  0.0448  0.1283 -0.2449
   61MOL0     H 8201   4.253   9.152   1.401  0.2261  0.7406  0.6373
   61MOL0     H 8202   4.194   9.039   1.292  2.5307 -1.1127  0.9073
   61MOL0     H 8203   4.023   9.215   1.335 -2.6045  1.8998  2.2637
   61MOL0     H 8204   3.955   9.062   1.403 -0.1372 -0.1850 -1.8452
   61MOL0     H 8205   4.121   9.274   1.559  1.0291 -0.2912 -3.5382
   61MOL0     H 8206   4.025   9.138   1.633 -0.6506 -0.0748  0.6184
   61MOL0     H 8207   3.907   9.363   1.474  0.8047  0.8320 -0.0014
   61MOL0     H 8208   3.816   9.230   1.552 -1.8959  2.8982 -0.5236
   61MOL0     H 8209   3.963   9.451   1.700  2.7537 -0.7656 -3.0084
   61MOL0     H 8210   3.903   9.297   1.770 -1.0362 -1.0040 -1.5528
   61MOL0     H 8211   3.744   9.534   1.656  0.3232  0.3562 -0.8939
   61MOL0     H 8212   3.660   9.381   1.707 -1.5771  2.3407  0.4737
   61MOL0     H 8213   3.813   9.558   1.884 -0.2051 -0.3464  0.7359
   61MOL0     H 8214   3.805   9.386   1.929 -0.1697  1.8474  3.5878
   61MOL0     H 8215   3.557   9.407   1.949 -1.1661  0.8265  0.0713
   61MOL0     H 8216   3.571   9.578   1.888 -0.0194  2.4545  2.6198
   61MOL0     H 8217   4.449   9.095   1.487  2.1610  0.4409  3.8476
   61MOL0     H 8218   4.661   8.962   1.527 -0.0060 -1.5103  0.7129
   61MOL0     H 8219   4.873   8.675   1.718  0.8078 -1.0115  1.4951
   61MOL0     H 8220   5.112   8.634   1.778  1.6798 -2.2869 -1.1992
   61MOL0     H 8221   5.195   9.015   0.737  3.0160 -1.3657  1.7076
   61MOL0     H 8222   5.024   8.853   0.685 -0.0752  1.0443 -0.2303
   61MOL0     H 8223   4.818   8.638   0.360 -0.9029 -0.9454 -0.6394
   61MOL0     H 8224   4.632   8.487   0.284  0.6407  0.9431  2.4975
   61MOL0     H 8225   4.695   8.049   0.389 -0.9725  0.2942  2.9647
   61MOL0     H 8226   4.560   8.125   0.475 -1.2471 -3.0128 -0.2383
   61MOL0     H 8227   4.532   7.975   0.201  0.0061  0.9527 -1.0225
   61MOL0     H 8228   4.403   8.059   0.277 -1.2679 -1.0271  0.7351
   61MOL0     H 8229   4.392   7.828   0.332  0.9547 -0.9059 -0.2821
   61MOL0     H 8230   4.414   7.916   0.483  1.5871 -1.7833  1.4747
   61MOL0     H 8231   4.658   7.811   0.487 -0.0912 -0.9605 -0.5545
   61MOL0     H 8232   4.619   7.755   0.325 -2.9349 -0.3348 -0.7374
   61MOL0     H 8233   4.463   7.464   0.570  1.5029  0.5859  0.3780
   61MOL0     H 8234   4.861   8.141   0.383 -1.0670 -0.6645  0.1000
   61MOL0     H 8235   5.050   8.291   0.435  0.6145  1.5917 -1.0553
   62MOL0     O 8236   1.553   4.487   8.477 -0.7063 -0.3587 -0.1130
   62MOL0     C 8237   1.567   4.381   8.530 -0.4188 -0.4088  0.6760
   62MOL0     O 8238   1.477   4.277   8.508  0.5075  0.1545 -0.0204
   62MOL0     C 8239   1.363   4.290   8.436  0.7048 -0.2927 -0.4326
   62MOL0     C 8240   1.370   4.322   8.301  0.0793 -1.1117  0.2961
   62MOL0     C 8241   1.261   4.294   8.216 -0.1062  0.4197 -0.1004
   62MOL0     C 8242   1.137   4.240   8.255  0.2020 -0.5036 -0.5424
   62MOL0     O 8243   1.036   4.238   8.167  0.0590 -0.0788 -0.2759
   62MOL0     C 8244   0.917   4.293   8.218  0.0153  0.4308 -0.0982
   62MOL0     C 8245   0.801   4.209   8.169 -0.3217  0.9049  0.4387
   62MOL0     C 8246   0.667   4.273   8.197  0.9815  0.0675  0.8099
   62MOL0     C 8247   0.549   4.197   8.120  0.0149 -1.3654 -0.0860
   62MOL0     C 8248   0.524   4.062   8.191 -0.1934  0.3201  0.0482
   62MOL0     C 8249   0.413   3.981   8.124 -0.5001  0.2291  0.0614
   62MOL0     C 8250   0.402   3.835   8.180 -0.2065 -0.0344 -0.0463
   62MOL0     C 8251   0.296   3.830   8.293  0.1059 -1.0025 -0.6100
   62MOL0     N 8252   0.309   3.698   8.357 -0.0737  0.6158 -0.6021
   62MOL0     C 8253   0.236   3.587   8.326 -0.0607 -0.7551  0.0597
   62MOL0     C 8254   0.292   3.494   8.414  0.4342 -0.5167  0.1725
   62MOL0     C 8255   0.248   3.348   8.420 -0.7337 -0.2864 -0.6443
   62MOL0     C 8256   0.094   3.342   8.418 -0.2888 -0.3840  0.0811
   62MOL0     C 8257   0.037   3.375   8.556 -0.1160 -0.4803  0.3259
   62MOL0     C 8258  -0.111   3.344   8.553  0.0290 -0.7772 -0.3091
   62MOL0     O 8259  -0.176   3.425   8.650  0.3406  0.0070 -0.2047
   62MOL0     C 8260  -0.315   3.429   8.648  0.4659 -0.3331 -0.3985
   62MOL0     C 8261  -0.402   3.377   8.567  0.0290  0.5929  0.0800
   62MOL0     C 8262  -0.541   3.402   8.577 -0.1065  0.0250  0.1471
   62MOL0     C 8263  -0.631   3.326   8.476  0.1531  0.1550  0.3661
   62MOL0     C 8264  -0.599   3.488   8.679 -0.0919 -0.5666 -0.7025
   62MOL0     C 8265  -0.742   3.488   8.709  0.0621 -0.1943 -0.3234
   62MOL0     O 8266  -0.802   3.377   8.737 -0.5134 -0.2810  0.1602
   62MOL0     C 8267  -0.943   3.377   8.730 -0.2741 -0.0879  0.7726
   62MOL0     C 8268  -1.002   3.279   8.645  0.3203  0.7081  0.2014
   62MOL0     C 8269  -1.140   3.266   8.632 -0.0521 -0.0814  0.1672
   62MOL0     C 8270  -1.226   3.345   8.711  0.1107  0.1370 -0.3712
   62MOL0     O 8271  -1.359   3.319   8.714 -0.0161  0.2173 -0.8441
   62MOL0     C 8272  -1.450   3.394   8.801  0.1352 -0.1464 -0.4058
   62MOL0     C 8273  -1.588   3.326   8.796 -1.0314  0.1433 -0.2392
   62MOL0     C 8274  -1.703   3.394   8.874 -0.0014 -0.2145  0.3954
   62MOL0     C 8275  -1.685   3.408   9.024  0.1767 -0.7546 -0.6922
   62MOL0     C 8276  -1.685   3.291   9.110 -0.1134 -0.2257 -0.7912
   62MOL0     C 8277  -1.627   3.313   9.254  0.2301 -0.1871 -0.1085
   62MOL0     C 8278  -1.698   3.415   9.330 -0.0980 -0.6580 -0.0887
   62MOL0     C 8279  -1.625   3.424   9.463  0.4785 -0.2820  0.0082
   62MOL0    Cl 8280  -1.633   3.277   9.580 -0.0809  0.3507 -0.2673
   62MOL0     C 8281  -1.165   3.440   8.791 -0.2110 -0.5381  0.0639
   62MOL0     C 8282  -1.025   3.466   8.796  0.3859 -0.4154 -0.1275
   62MOL0     O 8283  -0.797   3.602   8.712  0.1376 -0.0278  0.7087
   62MOL0     C 8284  -0.497   3.536   8.771  0.4272 -0.0428  0.9489
   62MOL0     C 8285  -0.361   3.505   8.758  0.1183  0.4052 -0.1384
   62MOL0     N 8286   0.385   3.555   8.489  0.1386 -0.4800 -0.3027
   62MOL0     N 8287   0.396   3.677   8.458  0.4537  0.1351 -0.6893
   62MOL0     C 8288   1.134   4.212   8.397  0.7924 -0.2372 -0.6288
   62MOL0     C 8289   1.237   4.229   8.483 -0.2226  0.2622 -0.1739
   62MOL0     C 8290   1.679   4.370   8.619 -0.3671 -0.3453 -1.5941
   62MOL0     C 8291   1.719   4.238   8.655 -0.4486  0.1595 -0.7990
   62MOL0     C 8292   1.837   4.214   8.729  0.1396 -0.4783 -0.3642
   62MOL0     C 8293   1.914   4.325   8.775 -0.0507 -1.4287  0.2332
   62MOL0     O 8294   2.025   4.303   8.854  0.0102  0.4710 -0.2698
   62MOL0     C 8295   2.039   4.365   8.984  0.6388 -0.1754  0.6165
   62MOL0     C 8296   1.933   4.307   9.079 -0.1486 -0.3226  0.2980
   62MOL0     C 8297   1.986   4.339   9.224  0.3672 -0.4383 -0.1996
   62MOL0     C 8298   1.853   4.326   9.306  0.4923  0.9757 -0.2653
   62MOL0     C 8299   1.876   4.343   9.453 -0.0154  0.2226 -0.2580
   62MOL0     C 8300   1.894   4.349   9.571 -0.2077 -0.3871 -0.2801
   62MOL0     C 8301   1.875   4.460   8.734  0.6292  0.3160 -0.0302
   62MOL0     C 8302   1.755   4.476   8.662 -0.8490  0.1812  0.3048
   62MOL0     H 8303   1.455   4.377   8.263  0.5998 -0.9734  1.5792
   62MOL0     H 8304   1.274   4.336   8.116 -0.4398  2.0512  0.5194
   62MOL0     H 8305   0.907   4.301   8.327 -3.2762  0.9701 -0.3455
   62MOL0     H 8306   0.912   4.391   8.171 -1.0405 -0.7007 -2.5443
   62MOL0     H 8307   0.819   4.190   8.062  1.5192  0.1862  0.8389
   62MOL0     H 8308   0.812   4.110   8.212  3.3874  1.0731  0.2565
   62MOL0     H 8309   0.640   4.268   8.303 -0.3020  1.2598  0.5705
   62MOL0     H 8310   0.671   4.378   8.167  0.2759 -0.1683 -0.1700
   62MOL0     H 8311   0.461   4.262   8.125  1.9764  1.5485 -0.9742
   62MOL0     H 8312   0.579   4.193   8.015 -1.4596  2.1787 -0.7956
   62MOL0     H 8313   0.617   4.006   8.193 -1.1926 -1.4046  0.4880
   62MOL0     H 8314   0.491   4.078   8.294  0.3185  3.0250 -0.1249
   62MOL0     H 8315   0.313   4.022   8.109 -2.0270 -3.4071 -0.9186
   62MOL0     H 8316   0.453   3.976   8.023  2.0187  1.5464  0.9196
   62MOL0     H 8317   0.367   3.779   8.093  1.5042 -1.3650  0.0535
   62MOL0     H 8318   0.500   3.800   8.215 -0.7812 -2.1617 -0.4237
   62MOL0     H 8319   0.193   3.835   8.256 -0.2239 -0.6424  0.3366
   62MOL0     H 8320   0.319   3.917   8.355 -1.2523 -0.9141 -0.2123
   62MOL0     H 8321   0.158   3.578   8.251 -1.4271  3.4096  0.7116
   62MOL0     H 8322   0.290   3.289   8.338  3.7291 -0.6169  1.5890
   62MOL0     H 8323   0.286   3.299   8.510 -0.5357  1.0377  0.0329
   62MOL0     H 8324   0.068   3.237   8.399  0.9456 -1.4475  3.5033
   62MOL0     H 8325   0.057   3.414   8.345  0.1333  0.5909  0.8138
   62MOL0     H 8326   0.055   3.483   8.560  0.5720 -0.6146  1.6282
   62MOL0     H 8327   0.086   3.319   8.636 -0.0274 -0.1930  0.4769
   62MOL0     H 8328  -0.129   3.239   8.577  1.8577 -1.3636 -1.3283
   62MOL0     H 8329  -0.147   3.373   8.454  0.1474 -0.0736 -0.1491
   62MOL0     H 8330  -0.369   3.304   8.494 -0.6037 -0.9548  1.2988
   62MOL0     H 8331  -0.576   3.286   8.390 -2.3430 -1.4651 -0.5741
   62MOL0     H 8332  -0.678   3.234   8.514  0.9115 -0.3433  0.1315
   62MOL0     H 8333  -0.713   3.390   8.444  0.4384 -0.0491 -0.8006
   62MOL0     H 8334  -0.938   3.215   8.585  1.0065 -0.0661  1.6982
   62MOL0     H 8335  -1.183   3.193   8.564 -1.7931  0.7338  0.3431
   62MOL0     H 8336  -1.415   3.396   8.905  1.1913 -2.4048 -0.6431
   62MOL0     H 8337  -1.461   3.497   8.768 -1.8498  0.0307  0.6888
   62MOL0     H 8338  -1.612   3.304   8.692  1.5914  1.0049 -1.0876
   62MOL0     H 8339  -1.572   3.230   8.845 -1.4548 -0.0669 -0.5107
   62MOL0     H 8340  -1.798   3.343   8.852 -0.6801  1.5786 -1.0234
   62MOL0     H 8341  -1.719   3.494   8.835 -1.8067 -0.7220 -0.2653
   62MOL0     H 8342  -1.593   3.466   9.035 -1.6748  2.1941  0.6470
   62MOL0     H 8343  -1.768   3.472   9.057  1.0476  1.2340 -2.1655
   62MOL0     H 8344  -1.634   3.203   9.071  1.1928 -0.6569  1.6710
   62MOL0     H 8345  -1.791   3.266   9.123 -0.4792  1.2565 -0.6381
   62MOL0     H 8346  -1.631   3.215   9.302  0.5434  1.8436  4.5423
   62MOL0     H 8347  -1.522   3.344   9.245 -0.0753  1.3105  1.0739
   62MOL0     H 8348  -1.803   3.389   9.347 -0.3732  0.4861  0.0502
   62MOL0     H 8349  -1.695   3.515   9.286 -0.0263  0.1010  1.5589
   62MOL0     H 8350  -1.687   3.499   9.513 -0.8736 -1.8877  0.8439
   62MOL0     H 8351  -1.525   3.466   9.447 -0.0453  0.5334 -1.3174
   62MOL0     H 8352  -1.224   3.506   8.854  1.0069 -1.6313  2.4815
   62MOL0     H 8353  -0.985   3.543   8.862  0.7888 -1.2141  0.5796
   62MOL0     H 8354  -0.536   3.571   8.865  0.1113  1.0454  0.4238
   62MOL0     H 8355  -0.289   3.537   8.833  1.7999 -0.6490 -1.2445
   62MOL0     H 8356   1.044   4.187   8.452  1.7135  0.7542  1.4275
   62MOL0     H 8357   1.223   4.218   8.590 -1.6243 -0.2059 -0.3785
   62MOL0     H 8358   1.663   4.148   8.630  0.7982 -1.4496  1.7840
   62MOL0     H 8359   1.844   4.113   8.768 -1.5667 -0.4666  0.0690
   62MOL0     H 8360   2.142   4.355   9.019  0.5862  1.3944  1.3392
   62MOL0     H 8361   2.014   4.471   8.974  1.8793 -0.0994 -3.4462
   62MOL0     H 8362   1.940   4.199   9.063 -1.3715 -0.9154  3.2185
   62MOL0     H 8363   1.833   4.345   9.055 -0.4881 -0.4352  1.4988
   62MOL0     H 8364   2.017   4.443   9.227 -0.0518 -0.3128 -0.1757
   62MOL0     H 8365   2.069   4.278   9.261  1.8069  2.1250  1.0620
   62MOL0     H 8366   1.811   4.232   9.268  0.2922  1.5932 -1.6435
   62MOL0     H 8367   1.782   4.405   9.279 -2.1329 -1.1554 -0.0592
   62MOL0     H 8368   1.897   4.367   9.676 -0.5198 -0.5419 -0.2426
   62MOL0     H 8369   1.958   4.527   8.754  1.9226 -0.7620 -1.5315
   62MOL0     H 8370   1.725   4.578   8.641  2.1649  1.8481  3.1928
   63MOL0     O 8371  10.832   3.296   7.337  0.1677  0.3189 -0.2307
   63MOL0     C 8372  10.914   3.319   7.424  0.0147 -0.5625 -0.1966
   63MOL0     O 8373  10.899   3.405   7.526  0.3524 -0.0448  1.3379
   63MOL0     C 8374  10.779   3.423   7.581  0.0371 -0.1978  0.1776
   63MOL0     C 8375  10.757   3.542   7.651 -0.0344 -0.5605  0.8643
   63MOL0     C 8376  10.631   3.561   7.711 -0.7665 -0.5472 -0.3668
   63MOL0     C 8377  10.526   3.459   7.726  0.0225  0.1049 -0.3919
   63MOL0     O 8378  10.400   3.486   7.771 -0.6093 -0.0461 -0.3270
   63MOL0     C 8379  10.365   3.426   7.894  0.1161  0.7607 -0.3085
   63MOL0     C 8380  10.224   3.465   7.941 -0.4609  0.0967  0.2723
   63MOL0     C 8381  10.112   3.490   7.836 -0.2285  0.4970 -0.4507
   63MOL0     C 8382   9.997   3.556   7.905 -0.0257 -0.1765  0.1002
   63MOL0     C 8383   9.908   3.462   7.993  0.3172  0.6737 -1.0686
   63MOL0     C 8384   9.776   3.530   8.029 -1.8502  0.0629  0.2068
   63MOL0     C 8385   9.706   3.446   8.131  0.8274  0.0178 -0.4505
   63MOL0     C 8386   9.739   3.480   8.271 -0.2626  0.0713 -0.3454
   63MOL0     N 8387   9.685   3.382   8.359 -0.5674  0.5033  0.8110
   63MOL0     C 8388   9.546   3.388   8.395  1.5874  0.1292  0.6507
   63MOL0     C 8389   9.534   3.277   8.462  0.2136  1.2021  0.0279
   63MOL0     C 8390   9.409   3.224   8.535  0.1160 -0.6696  0.6063
   63MOL0     C 8391   9.282   3.260   8.438  0.4445 -0.3301 -0.6787
   63MOL0     C 8392   9.156   3.191   8.507 -0.2194  0.7129  0.4737
   63MOL0     C 8393   9.032   3.212   8.424 -0.3078 -0.2974 -1.1868
   63MOL0     O 8394   9.009   3.090   8.351 -0.0558 -0.2019 -0.4100
   63MOL0     C 8395   8.902   3.102   8.265  0.0976 -0.5119  0.4365
   63MOL0     C 8396   8.797   3.028   8.304  0.5926 -0.0982  0.6517
   63MOL0     C 8397   8.694   3.015   8.212  0.2725 -0.4838  0.0042
   63MOL0     C 8398   8.588   2.914   8.247  0.1585 -0.1687  0.0500
   63MOL0     C 8399   8.697   3.079   8.086  0.0904 -0.4666  0.8426
   63MOL0     C 8400   8.597   3.047   7.977  1.3806 -0.7111 -0.5039
   63MOL0     O 8401   8.461   3.024   8.014 -0.1771 -0.5828  0.8941
   63MOL0     C 8402   8.360   3.004   7.920 -0.1130  0.7889  1.3741
   63MOL0     C 8403   8.267   2.901   7.941  0.3449  0.8571  0.8814
   63MOL0     C 8404   8.165   2.876   7.845  0.2949 -0.1660  0.1019
   63MOL0     C 8405   8.159   2.957   7.729 -0.6911  0.2711  0.5645
   63MOL0     O 8406   8.067   2.936   7.617  0.4434  0.9506  0.1560
   63MOL0     C 8407   7.961   2.837   7.634 -0.4620 -0.8897 -0.0764
   63MOL0     C 8408   7.845   2.852   7.535  0.2437 -0.4681 -0.6585
   63MOL0     C 8409   7.729   2.742   7.545 -0.4498 -0.0806 -0.5778
   63MOL0     C 8410   7.651   2.770   7.674  0.5011 -0.7039  0.0622
   63MOL0     C 8411   7.524   2.692   7.684 -0.4731  0.0216  0.4549
   63MOL0     C 8412   7.477   2.712   7.831 -0.1977  0.3923 -1.0001
   63MOL0     C 8413   7.340   2.644   7.842 -0.6617 -0.0988 -0.9976
   63MOL0     C 8414   7.303   2.654   7.992 -0.0672 -0.1517  0.6660
   63MOL0    Cl 8415   7.401   2.562   8.103 -0.0381  0.2836  0.1681
   63MOL0     C 8416   8.252   3.059   7.713 -0.2824 -0.4360  0.2980
   63MOL0     C 8417   8.351   3.081   7.807 -0.8132  0.1783  0.1430
   63MOL0     O 8418   8.640   3.041   7.865 -0.2032  0.2335  0.1476
   63MOL0     C 8419   8.810   3.158   8.052 -0.2661 -0.7254 -0.8379
   63MOL0     C 8420   8.919   3.160   8.138 -0.0126 -0.0213  0.4309
   63MOL0     N 8421   9.651   3.201   8.461 -0.0073 -0.4464  0.5126
   63MOL0     N 8422   9.741   3.258   8.392 -0.0703 -0.0062  0.0706
   63MOL0     C 8423  10.552   3.338   7.661 -0.0909  0.9330  0.4375
   63MOL0     C 8424  10.675   3.322   7.591 -0.1739  0.1820 -0.4416
   63MOL0     C 8425  11.044   3.253   7.420 -1.4867  0.0981 -0.4035
   63MOL0     C 8426  11.116   3.256   7.542 -0.3858 -0.3024 -0.2065
   63MOL0     C 8427  11.234   3.187   7.554  0.0532  0.9135 -0.2179
   63MOL0     C 8428  11.297   3.116   7.446  0.2874 -1.0127 -0.0132
   63MOL0     O 8429  11.424   3.060   7.455 -0.0204 -0.6257 -0.3194
   63MOL0     C 8430  11.488   3.047   7.582 -0.7927  0.4542 -0.9392
   63MOL0     C 8431  11.626   2.984   7.558 -0.1087  0.4312 -0.2248
   63MOL0     C 8432  11.727   3.091   7.508  0.2892 -0.1992  0.8029
   63MOL0     C 8433  11.876   3.051   7.523  0.3455 -0.3056  0.2415
   63MOL0     C 8434  11.919   3.043   7.667  0.6997 -0.1716 -0.3088
   63MOL0     C 8435  11.967   3.037   7.779  1.0733 -0.4370 -0.2634
   63MOL0     C 8436  11.224   3.115   7.326 -0.3114  0.3498  0.2414
   63MOL0     C 8437  11.096   3.174   7.315  0.3417 -0.8037 -0.0474
   63MOL0     H 8438  10.826   3.626   7.645 -0.4484 -0.2988 -0.9304
   63MOL0     H 8439  10.608   3.658   7.754  0.9620  1.0684 -2.8250
   63MOL0     H 8440  10.378   3.317   7.894 -0.2492  0.6942  0.8828
   63MOL0     H 8441  10.434   3.448   7.976 -0.8996  0.3246  0.6923
   63MOL0     H 8442  10.184   3.394   8.014 -2.7190 -0.8279 -1.6993
   63MOL0     H 8443  10.244   3.562   7.988  1.8647  0.3222 -1.0402
   63MOL0     H 8444  10.143   3.560   7.758 -0.4905 -0.3886 -1.3814
   63MOL0     H 8445  10.069   3.400   7.791 -1.1897  1.1922 -0.9644
   63MOL0     H 8446  10.036   3.639   7.965 -2.5576  0.3760  1.0937
   63MOL0     H 8447   9.931   3.601   7.830  1.0141  1.9145  0.3519
   63MOL0     H 8448   9.895   3.366   7.943 -1.2028 -0.3479  1.1351
   63MOL0     H 8449   9.956   3.444   8.089 -0.4598 -0.5756 -0.8907
   63MOL0     H 8450   9.796   3.630   8.067  1.7415  0.7086 -2.7802
   63MOL0     H 8451   9.722   3.545   7.934 -1.6882  2.3252  0.4297
   63MOL0     H 8452   9.601   3.469   8.111  0.9182 -0.3784 -1.4131
   63MOL0     H 8453   9.734   3.341   8.126 -0.3573 -0.4132  1.1022
   63MOL0     H 8454   9.689   3.576   8.288 -2.9943 -1.4632  0.8728
   63MOL0     H 8455   9.847   3.482   8.285 -0.4089  0.4238  0.7980
   63MOL0     H 8456   9.471   3.464   8.376  0.6976 -1.0432 -0.7887
   63MOL0     H 8457   9.421   3.120   8.568 -0.5005 -0.7504  0.5927
   63MOL0     H 8458   9.406   3.287   8.624  1.1139 -0.9124  0.8302
   63MOL0     H 8459   9.311   3.223   8.339  1.8709  0.3679 -0.5629
   63MOL0     H 8460   9.256   3.366   8.426 -1.8314 -0.6022  1.1490
   63MOL0     H 8461   9.133   3.238   8.604 -0.6869 -0.0637  0.7527
   63MOL0     H 8462   9.178   3.084   8.516 -2.5339  0.1081 -0.3951
   63MOL0     H 8463   9.053   3.302   8.366  2.9904  0.7391  1.3182
   63MOL0     H 8464   8.946   3.228   8.490  0.1717 -3.4867  0.4587
   63MOL0     H 8465   8.797   2.971   8.397  1.4634  0.3859  0.9604
   63MOL0     H 8466   8.589   2.828   8.179  0.2756  0.6179 -0.9538
   63MOL0     H 8467   8.603   2.880   8.350 -0.4916 -0.2952  0.1117
   63MOL0     H 8468   8.488   2.958   8.246 -0.0424 -0.6201 -0.2701
   63MOL0     H 8469   8.286   2.851   8.036 -1.0819 -2.2792 -0.3158
   63MOL0     H 8470   8.099   2.801   7.887 -0.0985  0.1288  0.0184
   63MOL0     H 8471   8.005   2.738   7.630 -2.5184 -1.8680  0.1567
   63MOL0     H 8472   7.918   2.844   7.734 -0.4606  1.1500 -0.1639
   63MOL0     H 8473   7.806   2.953   7.552  1.6841 -0.0684  0.4489
   63MOL0     H 8474   7.893   2.832   7.439  0.3404 -0.3516 -0.6350
   63MOL0     H 8475   7.754   2.636   7.547 -0.2492 -0.0416  1.9871
   63MOL0     H 8476   7.667   2.749   7.456  0.0647  0.5655 -0.8939
   63MOL0     H 8477   7.710   2.753   7.764 -2.4184  0.5788  2.3862
   63MOL0     H 8478   7.615   2.873   7.666  0.2514 -0.8351 -0.5258
   63MOL0     H 8479   7.551   2.589   7.659 -0.3141 -0.1832  1.4224
   63MOL0     H 8480   7.445   2.734   7.622  1.2416  1.0351 -1.1679
   63MOL0     H 8481   7.548   2.665   7.900 -1.1911  0.5200  0.1319
   63MOL0     H 8482   7.472   2.816   7.864 -1.5917  0.9099 -2.6860
   63MOL0     H 8483   7.345   2.537   7.821  0.6822 -0.3411  0.3872
   63MOL0     H 8484   7.269   2.686   7.770  1.9202  0.0763 -3.6396
   63MOL0     H 8485   7.198   2.626   8.009  0.3648 -3.4585 -1.2917
   63MOL0     H 8486   7.306   2.762   8.013 -0.3073  0.2168 -1.0377
   63MOL0     H 8487   8.245   3.103   7.615  3.3341 -2.0291 -0.8577
   63MOL0     H 8488   8.415   3.168   7.798  0.1034 -0.6371 -1.4998
   63MOL0     H 8489   8.825   3.188   7.949  0.7827 -3.5509 -1.6234
   63MOL0     H 8490   9.013   3.210   8.117  0.8769 -0.0546  3.7108
   63MOL0     H 8491  10.481   3.257   7.675 -1.7255  1.9223 -1.5439
   63MOL0     H 8492  10.707   3.223   7.559 -2.5160 -0.6098 -0.5381
   63MOL0     H 8493  11.084   3.300   7.636  2.0312 -0.5450  0.7996
   63MOL0     H 8494  11.281   3.191   7.652  1.7622  2.4945 -1.0330
   63MOL0     H 8495  11.493   3.147   7.626 -5.8646  0.6697 -0.2670
   63MOL0     H 8496  11.428   2.982   7.646 -0.4183  1.8134  0.8623
   63MOL0     H 8497  11.627   2.894   7.496  3.3318  0.1039  0.1256
   63MOL0     H 8498  11.652   2.952   7.660 -3.0111 -1.9910 -0.1005
   63MOL0     H 8499  11.708   3.187   7.558 -1.4558 -0.6581  1.0806
   63MOL0     H 8500  11.717   3.109   7.401  0.3969 -0.5244  0.7388
   63MOL0     H 8501  11.950   3.119   7.479  1.2665 -0.6806  1.1638
   63MOL0     H 8502  11.883   2.951   7.480 -0.7870 -0.3950  0.2578
   63MOL0     H 8503  12.020   3.035   7.872  1.2481 -0.2378 -0.3561
   63MOL0     H 8504  11.281   3.072   7.244 -1.8130 -1.6990  0.1972
   63MOL0     H 8505  11.041   3.166   7.222  0.8879 -3.4623 -0.2393
   64MOL0     O 8506   2.352   7.072   6.408 -1.0225 -1.0212 -0.1511
   64MOL0     C 8507   2.324   7.002   6.312 -0.2009 -0.4857  0.6976
   64MOL0     O 8508   2.416   6.929   6.240  0.3412  0.1911 -0.6446
   64MOL0     C 8509   2.553   6.961   6.239  0.6033  0.7760  1.3140
   64MOL0     C 8510   2.608   6.991   6.110  0.2539  0.1679 -0.3696
   64MOL0     C 8511   2.737   7.044   6.105  0.2743 -0.1893 -0.8429
   64MOL0     C 8512   2.807   7.070   6.228 -0.1039 -0.0494  0.4387
   64MOL0     O 8513   2.930   7.123   6.238  0.3986 -0.1140  0.3309
   64MOL0     C 8514   2.981   7.204   6.129 -0.8081 -0.5862 -0.5475
   64MOL0     C 8515   3.137   7.211   6.150 -0.5213  0.1803  0.0887
   64MOL0     C 8516   3.157   7.311   6.263  0.7803  0.1881  0.7434
   64MOL0     C 8517   3.193   7.451   6.211 -0.1278  0.6643  0.4086
   64MOL0     C 8518   3.254   7.543   6.310 -0.5448  0.7569  0.3071
   64MOL0     C 8519   3.200   7.531   6.464 -0.5094 -0.7602 -0.4890
   64MOL0     C 8520   3.065   7.605   6.461 -0.2754  0.2000  0.0607
   64MOL0     C 8521   3.009   7.640   6.597 -0.4637  1.0716 -0.8070
   64MOL0     N 8522   2.897   7.740   6.587  0.6060  0.6223 -0.4736
   64MOL0     C 8523   2.903   7.871   6.560  0.5592  0.2067  0.6704
   64MOL0     C 8524   2.783   7.911   6.524 -0.0861  0.0072 -0.2595
   64MOL0     C 8525   2.742   8.053   6.505 -1.1180  0.6808 -0.0311
   64MOL0     C 8526   2.703   8.104   6.643  0.9371  0.7844  1.3501
   64MOL0     C 8527   2.650   8.255   6.636 -0.0216  0.4448 -1.3136
   64MOL0     C 8528   2.650   8.316   6.771  0.6582 -0.1282 -0.0713
   64MOL0     O 8529   2.654   8.453   6.755  0.1984 -0.0407  0.4504
   64MOL0     C 8530   2.625   8.524   6.861 -0.7523  0.5093  0.2811
   64MOL0     C 8531   2.589   8.659   6.852 -0.0145  1.1882 -0.0272
   64MOL0     C 8532   2.549   8.746   6.960 -0.4112 -0.9914 -0.2288
   64MOL0     C 8533   2.492   8.881   6.922 -0.2852 -0.4542 -0.1704
   64MOL0     C 8534   2.549   8.694   7.091  0.9198  0.3520 -0.3190
   64MOL0     C 8535   2.512   8.771   7.213 -0.6270  0.6153  0.4800
   64MOL0     O 8536   2.472   8.691   7.314 -0.3937 -0.0739 -0.1833
   64MOL0     C 8537   2.471   8.731   7.446  0.1081  0.0158  0.1285
   64MOL0     C 8538   2.588   8.772   7.517 -0.6020 -0.3072  0.1759
   64MOL0     C 8539   2.580   8.804   7.653  0.7523 -0.1012  0.1988
   64MOL0     C 8540   2.456   8.808   7.717  0.1848 -0.1565 -0.1954
   64MOL0     O 8541   2.461   8.852   7.843  0.3405 -0.1856 -0.4487
   64MOL0     C 8542   2.335   8.880   7.917 -0.0064  0.8407  0.6375
   64MOL0     C 8543   2.361   8.954   8.045  0.0824 -0.3977  0.3765
   64MOL0     C 8544   2.235   9.013   8.102 -0.1214 -0.2187 -0.3271
   64MOL0     C 8545   2.245   9.022   8.258  0.2215 -0.4032  0.4015
   64MOL0     C 8546   2.130   9.104   8.311  0.7419  0.2209  0.1346
   64MOL0     C 8547   2.133   9.252   8.272  0.4244 -0.1196 -0.4631
   64MOL0     C 8548   2.010   9.321   8.337  0.6109  0.6329 -0.5116
   64MOL0     C 8549   1.993   9.291   8.482 -0.2494  0.6707 -1.3608
   64MOL0    Cl 8550   1.899   9.418   8.545  0.2475 -0.1625 -0.3410
   64MOL0     C 8551   2.344   8.762   7.654  0.7206  0.3779  0.3960
   64MOL0     C 8552   2.349   8.724   7.517 -0.5803  0.7442 -0.1132
   64MOL0     O 8553   2.522   8.895   7.218 -0.6225  0.0386  0.0999
   64MOL0     C 8554   2.585   8.550   7.105  0.2666 -0.3564 -0.0866
   64MOL0     C 8555   2.626   8.476   6.992  0.7770  0.2228 -0.5085
   64MOL0     N 8556   2.696   7.801   6.550  0.5846 -0.7761 -0.0880
   64MOL0     N 8557   2.766   7.693   6.576 -1.1034 -0.5202 -0.4354
   64MOL0     C 8558   2.757   7.026   6.347 -0.3424 -0.2234  0.0609
   64MOL0     C 8559   2.627   6.968   6.353 -0.5777  0.6309  0.7015
   64MOL0     C 8560   2.181   6.963   6.299  0.3156 -0.2442  0.2000
   64MOL0     C 8561   2.082   6.987   6.395 -0.8338  0.1401 -0.6242
   64MOL0     C 8562   1.944   6.964   6.370  0.0921  1.1020  0.2216
   64MOL0     C 8563   1.905   6.896   6.253 -0.3356 -0.8123 -0.2125
   64MOL0     O 8564   1.778   6.860   6.225  0.2058 -0.6414 -0.0971
   64MOL0     C 8565   1.698   6.850   6.343  0.9527 -0.0829 -0.1458
   64MOL0     C 8566   1.551   6.820   6.312 -0.4901  0.2200 -0.6616
   64MOL0     C 8567   1.470   6.810   6.441  0.0503 -0.4069  0.8179
   64MOL0     C 8568   1.324   6.783   6.415  0.4221  0.2029  0.2033
   64MOL0     C 8569   1.306   6.650   6.347 -1.2263 -0.5461 -0.6594
   64MOL0     C 8570   1.302   6.552   6.283  0.3328  0.2001 -0.4851
   64MOL0     C 8571   2.003   6.865   6.153  0.0592 -0.0970 -0.5062
   64MOL0     C 8572   2.141   6.902   6.181 -0.3649 -0.5989  1.2661
   64MOL0     H 8573   2.553   6.981   6.016 -1.6067 -0.0635  0.6939
   64MOL0     H 8574   2.781   7.060   6.007  0.5795  1.4109 -0.4607
   64MOL0     H 8575   2.971   7.161   6.029  4.2101 -2.0068 -0.6795
   64MOL0     H 8576   2.945   7.308   6.125  3.7422  1.1889 -1.5938
   64MOL0     H 8577   3.168   7.112   6.184 -1.2315 -0.6395 -1.5040
   64MOL0     H 8578   3.200   7.233   6.063  2.4504  1.4708  2.4161
   64MOL0     H 8579   3.071   7.329   6.328  1.3558  1.4531  1.1958
   64MOL0     H 8580   3.231   7.265   6.328  2.3068 -0.0160 -1.0469
   64MOL0     H 8581   3.266   7.442   6.130  0.0017  0.6513  0.5269
   64MOL0     H 8582   3.101   7.491   6.168  0.1165  1.5134  0.6660
   64MOL0     H 8583   3.354   7.503   6.329  0.6545  2.0397 -2.8091
   64MOL0     H 8584   3.260   7.645   6.272  1.1606  0.6733  0.2787
   64MOL0     H 8585   3.196   7.428   6.499  0.4984 -0.3177  0.9935
   64MOL0     H 8586   3.273   7.589   6.521 -2.4516  0.1519  1.2099
   64MOL0     H 8587   3.076   7.699   6.406  3.8154  1.6035  2.8375
   64MOL0     H 8588   2.990   7.545   6.408 -1.1400  0.1244  1.3116
   64MOL0     H 8589   3.091   7.681   6.656  1.3403 -2.2638 -0.7710
   64MOL0     H 8590   2.982   7.546   6.645  0.9216 -0.1541 -2.2877
   64MOL0     H 8591   2.995   7.928   6.574  1.3130 -1.3160  2.2609
   64MOL0     H 8592   2.830   8.110   6.473  0.2311 -1.5750 -0.5455
   64MOL0     H 8593   2.667   8.064   6.426 -1.0617 -1.0875 -0.3554
   64MOL0     H 8594   2.787   8.100   6.713  2.2082 -2.2381 -0.1584
   64MOL0     H 8595   2.618   8.042   6.671 -1.7579  2.8154 -1.6114
   64MOL0     H 8596   2.554   8.259   6.584 -0.5066  2.3520 -0.3477
   64MOL0     H 8597   2.709   8.325   6.576 -1.3612  3.5228  0.7126
   64MOL0     H 8598   2.741   8.282   6.820  1.5591  2.4353  0.1978
   64MOL0     H 8599   2.561   8.275   6.820 -2.2702  1.0838 -3.8041
   64MOL0     H 8600   2.604   8.708   6.756  0.8344 -2.5483 -1.9941
   64MOL0     H 8601   2.502   8.888   6.813 -0.9753 -0.9952 -0.2771
   64MOL0     H 8602   2.388   8.908   6.945  0.4332  2.4789  0.0028
   64MOL0     H 8603   2.548   8.962   6.969 -0.8810 -1.0853  1.7054
   64MOL0     H 8604   2.686   8.793   7.474 -0.5693  1.6182  1.0763
   64MOL0     H 8605   2.668   8.818   7.713  0.2485 -0.1542  0.9582
   64MOL0     H 8606   2.276   8.935   7.843  2.8380  2.2637 -0.7248
   64MOL0     H 8607   2.294   8.781   7.940  0.7820  0.3413 -0.0820
   64MOL0     H 8608   2.402   8.887   8.121  1.5822 -1.2315 -1.0785
   64MOL0     H 8609   2.428   9.037   8.021 -1.9882  1.0511 -0.6366
   64MOL0     H 8610   2.144   8.959   8.076 -0.9924  1.2648 -0.5068
   64MOL0     H 8611   2.213   9.111   8.058  0.6755 -0.1977 -0.6969
   64MOL0     H 8612   2.240   8.921   8.301 -2.0452 -0.9508 -1.0181
   64MOL0     H 8613   2.345   9.064   8.276  0.2990 -0.6523  0.5634
   64MOL0     H 8614   2.137   9.100   8.420 -0.4098  0.5136  0.2275
   64MOL0     H 8615   2.031   9.066   8.285 -0.7359  3.6801  0.2106
   64MOL0     H 8616   2.222   9.297   8.316 -0.3474 -0.6973  1.8487
   64MOL0     H 8617   2.118   9.271   8.165 -0.3808 -0.7584 -0.4733
   64MOL0     H 8618   1.915   9.304   8.285  0.4459 -0.5860  0.1481
   64MOL0     H 8619   2.037   9.427   8.332  1.1375  0.5195 -0.2093
   64MOL0     H 8620   2.091   9.277   8.529 -1.8904 -2.8075  1.4819
   64MOL0     H 8621   1.937   9.198   8.490 -0.8005  0.9559 -1.8911
   64MOL0     H 8622   2.252   8.730   7.702 -0.0141  0.3867 -0.9510
   64MOL0     H 8623   2.263   8.690   7.461 -1.2030  2.7254 -0.4419
   64MOL0     H 8624   2.575   8.491   7.195  3.1021 -0.3399  0.3176
   64MOL0     H 8625   2.641   8.370   7.014  2.1439  0.0178 -2.1681
   64MOL0     H 8626   2.806   7.035   6.443 -0.7772 -0.2707  0.2875
   64MOL0     H 8627   2.590   6.937   6.450  1.0481  0.9382  1.4513
   64MOL0     H 8628   2.113   7.026   6.491 -2.1389 -1.1511  0.3531
   64MOL0     H 8629   1.876   6.983   6.453  1.5465 -0.4646  1.8515
   64MOL0     H 8630   1.738   6.773   6.410 -3.5970 -1.5643  1.2358
   64MOL0     H 8631   1.693   6.944   6.398 -2.0415 -0.6583  0.7709
   64MOL0     H 8632   1.552   6.730   6.250 -1.7825  1.5294 -2.6851
   64MOL0     H 8633   1.499   6.897   6.255 -0.4222  0.8294  0.0811
   64MOL0     H 8634   1.478   6.901   6.503  2.4712 -0.0547  0.0962
   64MOL0     H 8635   1.521   6.737   6.504  0.0774  0.6532  2.0925
   64MOL0     H 8636   1.272   6.864   6.363 -0.2390  0.0937  0.6832
   64MOL0     H 8637   1.269   6.776   6.510  1.7800  2.0992  1.1869
   64MOL0     H 8638   1.296   6.472   6.212  0.6411 -1.1364  0.9381
   64MOL0     H 8639   1.969   6.824   6.058  2.3418 -0.4932 -1.2063
   64MOL0     H 8640   2.207   6.853   6.110 -1.0595 -0.6686  0.6545
   65MOL0     O 8641   7.281   6.525   1.631  0.4480  0.0752  0.3269
   65MOL0     C 8642   7.261   6.438   1.550 -0.0762 -0.4849  0.0167
   65MOL0     O 8643   7.238   6.310   1.573 -0.2738  0.5816  0.2871
   65MOL0     C 8644   7.175   6.266   1.693 -0.8165  0.6096  0.4995
   65MOL0     C 8645   7.168   6.128   1.705 -0.4077  0.4747 -0.5110
   65MOL0     C 8646   7.096   6.070   1.810 -0.3273 -0.0993 -0.6852
   65MOL0     C 8647   7.034   6.148   1.909 -0.2094  0.1037 -0.1170
   65MOL0     O 8648   6.951   6.099   2.004  0.2964 -0.6541  0.4097
   65MOL0     C 8649   6.898   5.965   1.985  0.2660 -0.5722  0.1545
   65MOL0     C 8650   6.780   5.935   2.074  0.6248 -0.1663  0.5509
   65MOL0     C 8651   6.644   5.994   2.043 -0.0524  0.5561  0.1465
   65MOL0     C 8652   6.656   6.150   2.041  0.5734 -0.4568  0.4282
   65MOL0     C 8653   6.517   6.215   2.037  0.7228  0.0152 -0.7730
   65MOL0     C 8654   6.528   6.367   2.075 -0.1974  0.4359  0.7078
   65MOL0     C 8655   6.406   6.445   2.038 -0.2395  0.2869  0.0159
   65MOL0     C 8656   6.398   6.458   1.893  0.7353  0.1068 -0.7224
   65MOL0     N 8657   6.300   6.564   1.856 -0.1914 -0.7059 -0.0929
   65MOL0     C 8658   6.322   6.698   1.839 -0.3214  0.2449 -0.1779
   65MOL0     C 8659   6.205   6.745   1.800 -0.3573  0.0945 -0.1109
   65MOL0     C 8660   6.184   6.895   1.783  0.3055 -0.2272 -0.1766
   65MOL0     C 8661   6.084   6.963   1.885 -0.2818 -0.2539  0.6393
   65MOL0     C 8662   6.026   7.106   1.853 -0.3466  0.3532  0.1466
   65MOL0     C 8663   5.944   7.117   1.726 -0.2540 -0.0051  0.4441
   65MOL0     O 8664   5.814   7.071   1.753  0.3474  0.1462 -0.3859
   65MOL0     C 8665   5.708   7.115   1.682  0.1797  0.2365  0.4826
   65MOL0     C 8666   5.579   7.118   1.740 -0.3608  0.0175  0.3389
   65MOL0     C 8667   5.468   7.169   1.680  1.0250 -0.5805 -0.3265
   65MOL0     C 8668   5.341   7.148   1.762 -0.0440 -0.7741  0.4368
   65MOL0     C 8669   5.478   7.237   1.561  0.4732  0.7758  0.4324
   65MOL0     C 8670   5.354   7.294   1.491  1.2558 -0.1530 -0.4192
   65MOL0     O 8671   5.322   7.250   1.361  0.8511  0.1491 -0.2847
   65MOL0     C 8672   5.205   7.299   1.305  0.3642 -0.0677  0.0462
   65MOL0     C 8673   5.094   7.205   1.309  0.5373  0.0740 -0.4785
   65MOL0     C 8674   4.977   7.259   1.256  0.2675 -0.5425  0.1173
   65MOL0     C 8675   4.964   7.388   1.212 -0.6829 -0.8385  0.9109
   65MOL0     O 8676   4.843   7.448   1.178  0.2396 -0.0724 -0.4388
   65MOL0     C 8677   4.716   7.406   1.230  1.0878  0.0019  0.4835
   65MOL0     C 8678   4.622   7.519   1.181  0.0997 -0.3428 -0.2071
   65MOL0     C 8679   4.480   7.476   1.236  0.0565  0.0803 -0.6293
   65MOL0     C 8680   4.369   7.576   1.200 -0.4046  0.6618 -0.3470
   65MOL0     C 8681   4.330   7.546   1.055  0.4857  0.7722 -0.2137
   65MOL0     C 8682   4.229   7.649   1.004 -0.0131 -0.5427  0.1734
   65MOL0     C 8683   4.136   7.594   0.888  0.8610 -0.8089 -0.8103
   65MOL0     C 8684   4.230   7.553   0.774  0.1163 -0.4496  0.4748
   65MOL0    Cl 8685   4.137   7.533   0.614  0.3024  0.0443  0.1227
   65MOL0     C 8686   5.076   7.476   1.214 -1.2772  0.1886  0.3816
   65MOL0     C 8687   5.201   7.431   1.264  0.9587  0.7146 -0.3846
   65MOL0     O 8688   5.289   7.381   1.552  0.5426  0.2813 -0.7111
   65MOL0     C 8689   5.603   7.239   1.496 -0.4060  0.1994  0.2932
   65MOL0     C 8690   5.717   7.169   1.554  0.9505 -0.6752 -1.5062
   65MOL0     N 8691   6.109   6.647   1.795  0.1834  0.0339 -0.7202
   65MOL0     N 8692   6.171   6.540   1.823 -0.2344  0.0871 -0.0342
   65MOL0     C 8693   7.059   6.287   1.899  0.2359  0.2140 -0.0984
   65MOL0     C 8694   7.119   6.346   1.790  0.2963  0.7042  0.9345
   65MOL0     C 8695   7.268   6.471   1.412  0.3301  0.2240  1.3937
   65MOL0     C 8696   7.218   6.389   1.307  0.0589 -0.1612 -0.4712
   65MOL0     C 8697   7.238   6.419   1.178  0.2329 -0.1812  0.8049
   65MOL0     C 8698   7.299   6.535   1.138  0.1892 -0.9560 -1.0303
   65MOL0     O 8699   7.326   6.577   1.013 -0.2472  0.3295 -0.8438
   65MOL0     C 8700   7.277   6.502   0.897 -0.5053  0.7734  0.2641
   65MOL0     C 8701   7.358   6.544   0.774 -0.7639 -0.4153  0.1473
   65MOL0     C 8702   7.379   6.696   0.767 -0.1555 -0.0471 -0.2582
   65MOL0     C 8703   7.508   6.746   0.839 -1.1460  1.1625 -0.0811
   65MOL0     C 8704   7.633   6.694   0.770  0.4064  0.4391  0.0126
   65MOL0     C 8705   7.731   6.682   0.701  0.7039  0.1652  0.0108
   65MOL0     C 8706   7.344   6.623   1.243  0.3491  0.0925 -0.6928
   65MOL0     C 8707   7.341   6.586   1.373  0.8925  0.0445 -0.4222
   65MOL0     H 8708   7.214   6.065   1.630  1.0065  0.6781  0.1604
   65MOL0     H 8709   7.084   5.962   1.813  2.0440 -0.4356 -1.2265
   65MOL0     H 8710   6.856   5.952   1.885 -2.5401 -0.0024  1.1756
   65MOL0     H 8711   6.982   5.896   1.997  2.8374  2.2355 -0.3157
   65MOL0     H 8712   6.769   5.826   2.079 -1.4349 -0.0430 -0.3729
   65MOL0     H 8713   6.803   5.966   2.176  1.1460  1.0214  0.0797
   65MOL0     H 8714   6.608   5.956   1.947 -0.5494  0.6513  0.2919
   65MOL0     H 8715   6.572   5.961   2.119  2.0234  0.5314  2.2324
   65MOL0     H 8716   6.713   6.184   2.128 -0.2314  1.9570  0.0903
   65MOL0     H 8717   6.708   6.176   1.948  1.7029 -1.8343  0.6446
   65MOL0     H 8718   6.478   6.208   1.934  1.8506  2.0593 -1.3921
   65MOL0     H 8719   6.453   6.158   2.105  1.1357  0.4605 -0.0048
   65MOL0     H 8720   6.540   6.371   2.183  0.6951 -1.2992  0.7104
   65MOL0     H 8721   6.620   6.402   2.028  0.1629 -1.2787  0.0564
   65MOL0     H 8722   6.311   6.399   2.069  0.5235 -2.0542 -0.9283
   65MOL0     H 8723   6.417   6.550   2.069 -1.5229  0.0403  1.4247
   65MOL0     H 8724   6.359   6.366   1.849  0.0415 -0.3907  0.8646
   65MOL0     H 8725   6.499   6.475   1.855  2.1838  0.1815  2.7714
   65MOL0     H 8726   6.411   6.758   1.854 -1.1203  0.8950  2.4214
   65MOL0     H 8727   6.282   6.941   1.795  1.0419 -1.6030 -0.7290
   65MOL0     H 8728   6.165   6.923   1.679  0.7977 -1.4199 -0.6111
   65MOL0     H 8729   6.137   6.963   1.981  2.1652 -1.8702 -0.5913
   65MOL0     H 8730   6.000   6.893   1.894  1.9898 -3.4317 -0.8168
   65MOL0     H 8731   6.104   7.181   1.840 -0.6071  0.5596 -0.2481
   65MOL0     H 8732   5.984   7.143   1.946  1.7544  1.1376  0.8461
   65MOL0     H 8733   5.984   7.066   1.638 -0.6478  1.3501 -0.5508
   65MOL0     H 8734   5.935   7.224   1.704 -0.6590 -0.1472 -0.0922
   65MOL0     H 8735   5.568   7.087   1.843  1.4219 -0.6849  0.3591
   65MOL0     H 8736   5.255   7.131   1.697 -0.4847 -2.3055  1.3582
   65MOL0     H 8737   5.349   7.054   1.818  1.3124 -0.1200  1.4039
   65MOL0     H 8738   5.326   7.237   1.823 -2.4886  0.7923 -2.1841
   65MOL0     H 8739   5.108   7.102   1.340 -2.3531 -0.5361 -0.8469
   65MOL0     H 8740   4.897   7.186   1.256 -0.4629  0.1783  2.2249
   65MOL0     H 8741   4.697   7.302   1.200  1.1560  0.5874 -1.7271
   65MOL0     H 8742   4.725   7.414   1.339 -0.1299  3.6238  0.4329
   65MOL0     H 8743   4.666   7.611   1.222 -1.0383 -0.0400  0.3836
   65MOL0     H 8744   4.622   7.526   1.072  0.1128 -1.6538 -0.3010
   65MOL0     H 8745   4.485   7.469   1.345  0.5441 -2.1606 -0.7488
   65MOL0     H 8746   4.448   7.382   1.191  3.3990 -1.5812  0.1825
   65MOL0     H 8747   4.291   7.559   1.275 -0.6132 -1.2185 -0.9205
   65MOL0     H 8748   4.408   7.678   1.204 -2.1460  1.3741 -0.4333
   65MOL0     H 8749   4.291   7.446   1.038 -0.2100  0.7441  1.4088
   65MOL0     H 8750   4.414   7.557   0.985 -0.5743  1.5771 -1.4041
   65MOL0     H 8751   4.161   7.685   1.081 -3.0969  1.4641 -3.1479
   65MOL0     H 8752   4.287   7.734   0.968 -3.1093  1.4561 -0.4030
   65MOL0     H 8753   4.066   7.673   0.857  0.4321 -0.4292  1.0130
   65MOL0     H 8754   4.065   7.517   0.919 -2.1047  1.8871 -0.2931
   65MOL0     H 8755   4.274   7.454   0.792 -1.9407 -1.6512 -0.6575
   65MOL0     H 8756   4.312   7.624   0.768 -0.2798  0.4681  3.8771
   65MOL0     H 8757   5.064   7.576   1.174  0.3401 -0.6020 -2.3165
   65MOL0     H 8758   5.293   7.489   1.270  0.8362  0.7678  1.2445
   65MOL0     H 8759   5.608   7.301   1.407 -0.3628 -0.5823 -0.2485
   65MOL0     H 8760   5.813   7.167   1.504  2.3887  3.6492  0.5605
   65MOL0     H 8761   7.015   6.344   1.981 -2.8441 -1.9210 -0.0997
   65MOL0     H 8762   7.121   6.454   1.781 -0.1889  0.5888 -0.8151
   65MOL0     H 8763   7.170   6.296   1.334  0.9891 -0.5659 -0.1748
   65MOL0     H 8764   7.199   6.348   1.106 -0.7113  2.0769 -1.0289
   65MOL0     H 8765   7.292   6.394   0.909  2.0216  1.0089 -0.0800
   65MOL0     H 8766   7.174   6.516   0.865  0.0848  2.3555 -1.0655
   65MOL0     H 8767   7.294   6.524   0.687 -0.6727 -0.5951  0.1213
   65MOL0     H 8768   7.459   6.504   0.761  0.0454  1.3054  0.8786
   65MOL0     H 8769   7.287   6.745   0.801 -0.5136 -0.7149 -0.2429
   65MOL0     H 8770   7.374   6.729   0.663  0.9059 -1.4803 -0.7992
   65MOL0     H 8771   7.509   6.717   0.944 -1.8196  2.1083  0.1956
   65MOL0     H 8772   7.508   6.855   0.830  2.7939  1.3447  0.1000
   65MOL0     H 8773   7.812   6.686   0.631 -0.1468 -0.9536 -1.0816
   65MOL0     H 8774   7.387   6.722   1.228  0.0549  0.5956  1.4886
   65MOL0     H 8775   7.399   6.636   1.449  0.1797  0.6344 -0.2590
   66MOL0     O 8776  10.842   5.930   3.615 -0.0421 -0.3644 -0.0404
   66MOL0     C 8777  10.860   6.038   3.561  0.2903 -0.4965  0.3025
   66MOL0     O 8778  10.766   6.132   3.537 -0.5007 -0.2667  0.2681
   66MOL0     C 8779  10.635   6.090   3.555 -0.1240  1.0023  1.2621
   66MOL0     C 8780  10.551   6.056   3.445  0.1936 -0.7291  0.0884
   66MOL0     C 8781  10.412   6.031   3.474 -0.0699 -0.0500  0.1379
   66MOL0     C 8782  10.369   6.023   3.607 -0.1889 -0.3972  0.1186
   66MOL0     O 8783  10.247   5.985   3.658 -0.1209 -1.0346  0.5285
   66MOL0     C 8784  10.136   5.987   3.567  1.0927  0.4771 -0.4651
   66MOL0     C 8785  10.027   6.072   3.641  0.3249 -0.0351 -0.0778
   66MOL0     C 8786   9.902   6.065   3.556 -0.3359  0.5847 -0.4731
   66MOL0     C 8787   9.794   6.148   3.610  0.2160  0.8361  0.2863
   66MOL0     C 8788   9.662   6.143   3.534  0.1797  1.6676 -0.5755
   66MOL0     C 8789   9.581   6.001   3.520 -0.2266 -1.3482 -0.0950
   66MOL0     C 8790   9.449   6.027   3.459  0.1714  0.9486  0.4702
   66MOL0     C 8791   9.331   6.077   3.538 -0.0927 -0.1519 -1.2888
   66MOL0     N 8792   9.197   6.060   3.495 -0.3263  0.1038  0.2078
   66MOL0     C 8793   9.154   6.039   3.366 -0.0673 -0.3671  0.3338
   66MOL0     C 8794   9.021   6.032   3.376 -0.5145  0.4700 -0.0782
   66MOL0     C 8795   8.941   6.022   3.252  0.4263 -0.6031 -0.9292
   66MOL0     C 8796   8.970   5.902   3.174 -0.5935  0.0537 -0.2475
   66MOL0     C 8797   8.922   5.904   3.031 -0.7880  0.7433 -0.8658
   66MOL0     C 8798   8.769   5.878   3.042  0.2716 -0.3619 -0.7090
   66MOL0     O 8799   8.696   5.996   3.080  0.1554  0.1324 -0.5659
   66MOL0     C 8800   8.568   5.983   3.138 -0.1038  1.1674  0.6482
   66MOL0     C 8801   8.485   6.098   3.164  0.1655  0.1010  0.4432
   66MOL0     C 8802   8.361   6.090   3.224 -0.8721  0.0316  0.1410
   66MOL0     C 8803   8.299   6.218   3.261 -0.8004  0.0421 -0.0053
   66MOL0     C 8804   8.296   5.968   3.248  0.5536 -0.1076  0.1773
   66MOL0     C 8805   8.167   5.946   3.318  0.8183  0.6079 -0.4017
   66MOL0     O 8806   8.064   6.037   3.311 -0.4208 -0.4061  0.7659
   66MOL0     C 8807   7.968   6.017   3.407  1.3970  0.0477 -0.5328
   66MOL0     C 8808   7.975   6.040   3.544  0.0435 -0.0822 -0.5822
   66MOL0     C 8809   7.865   6.032   3.630 -0.1131 -0.1052 -0.6398
   66MOL0     C 8810   7.739   5.991   3.585 -0.3470 -0.4746 -0.5723
   66MOL0     O 8811   7.643   5.964   3.671  0.6373 -0.2314  0.4665
   66MOL0     C 8812   7.552   6.073   3.703  0.9784 -0.4792  0.5731
   66MOL0     C 8813   7.426   6.095   3.614 -0.0129  1.0953  0.2125
   66MOL0     C 8814   7.340   5.963   3.582  0.0978  0.2453 -0.2649
   66MOL0     C 8815   7.207   5.997   3.519  0.1649 -0.3173 -0.1522
   66MOL0     C 8816   7.125   5.860   3.515  0.2950  0.5735  0.0049
   66MOL0     C 8817   7.015   5.850   3.628  0.1645 -0.4593 -0.1154
   66MOL0     C 8818   6.934   5.716   3.608  0.1953  1.3400 -0.5040
   66MOL0     C 8819   6.894   5.665   3.739  0.3789 -0.2456  0.4582
   66MOL0    Cl 8820   6.775   5.537   3.733 -0.0579  0.2855  0.1133
   66MOL0     C 8821   7.728   5.966   3.451 -0.1915  0.3171 -0.0841
   66MOL0     C 8822   7.832   5.977   3.364 -0.6433  0.6559 -0.2137
   66MOL0     O 8823   8.160   5.842   3.388 -0.0378  0.2089  0.2354
   66MOL0     C 8824   8.367   5.857   3.200  0.3573 -0.1599 -1.0459
   66MOL0     C 8825   8.502   5.863   3.168 -0.7297  0.1966  0.1546
   66MOL0     N 8826   8.975   6.044   3.504  0.2238 -0.9059 -0.2895
   66MOL0     N 8827   9.080   6.065   3.578  0.2659 -0.4611  0.1051
   66MOL0     C 8828  10.454   6.075   3.705 -0.0889  0.1194  0.1202
   66MOL0     C 8829  10.580   6.094   3.680  0.4361  0.9304  0.9563
   66MOL0     C 8830  11.000   6.047   3.498  0.2348  0.2777  0.7307
   66MOL0     C 8831  11.012   6.153   3.410 -0.5735 -0.5136  1.0635
   66MOL0     C 8832  11.141   6.176   3.351  0.4313 -0.4265 -0.6452
   66MOL0     C 8833  11.254   6.097   3.388 -0.6426  0.4057  0.2389
   66MOL0     O 8834  11.363   6.115   3.307 -0.4399 -0.3024 -0.8031
   66MOL0     C 8835  11.438   6.005   3.248 -0.2235 -0.1578 -0.5721
   66MOL0     C 8836  11.360   5.891   3.178 -0.0968  0.5202  0.6980
   66MOL0     C 8837  11.463   5.805   3.103 -0.4412  0.2363 -0.0022
   66MOL0     C 8838  11.507   5.869   2.958  0.2153 -0.1598  0.0730
   66MOL0     C 8839  11.630   5.798   2.915 -0.1929 -0.3184  0.6989
   66MOL0     C 8840  11.746   5.752   2.905  0.7903 -0.0057 -0.3740
   66MOL0     C 8841  11.231   5.988   3.471  0.0422  0.3044 -0.3353
   66MOL0     C 8842  11.111   5.974   3.534  0.0944 -0.0479  0.1829
   66MOL0     H 8843  10.588   6.074   3.344 -1.0050  1.1549 -0.0477
   66MOL0     H 8844  10.339   6.024   3.393  0.6170  3.0631 -0.8875
   66MOL0     H 8845  10.157   6.032   3.470 -2.4989 -1.8132 -2.5221
   66MOL0     H 8846  10.106   5.883   3.548 -0.5655  0.9266 -0.4384
   66MOL0     H 8847  10.002   6.019   3.734 -4.5315  0.8752 -0.5723
   66MOL0     H 8848  10.053   6.176   3.664 -0.9770  0.1680  0.6245
   66MOL0     H 8849   9.917   6.090   3.450  3.3354 -1.9700 -0.7520
   66MOL0     H 8850   9.871   5.960   3.560 -0.8394  0.7813  1.1050
   66MOL0     H 8851   9.786   6.117   3.715  0.0822 -2.4138 -0.5826
   66MOL0     H 8852   9.829   6.252   3.611  1.2858  0.5522 -1.8063
   66MOL0     H 8853   9.597   6.225   3.567 -2.8954 -1.5779  2.3340
   66MOL0     H 8854   9.693   6.156   3.430  0.9777 -2.2959 -0.9988
   66MOL0     H 8855   9.634   5.930   3.456  2.5988  1.0189 -0.6313
   66MOL0     H 8856   9.575   5.945   3.613  4.1504 -2.0510 -0.0329
   66MOL0     H 8857   9.447   6.098   3.375 -1.9818 -0.4712 -0.7508
   66MOL0     H 8858   9.415   5.931   3.419  0.6289  0.7191  0.6160
   66MOL0     H 8859   9.344   6.185   3.554 -1.7098 -0.2148  1.1049
   66MOL0     H 8860   9.342   6.025   3.634 -1.6924 -0.8928 -1.4737
   66MOL0     H 8861   9.209   6.010   3.277  0.1008 -4.3409  1.5480
   66MOL0     H 8862   8.835   6.022   3.280  0.6507  2.8093  0.4039
   66MOL0     H 8863   8.951   6.114   3.193 -0.5861  1.5751  2.0259
   66MOL0     H 8864   8.940   5.810   3.225  3.2930 -1.0063  0.5181
   66MOL0     H 8865   9.079   5.891   3.162 -0.6363 -0.0771 -0.5287
   66MOL0     H 8866   8.955   5.814   2.978  0.4435 -0.6414  2.0219
   66MOL0     H 8867   8.950   5.997   2.981 -1.0995  1.8068  0.8496
   66MOL0     H 8868   8.753   5.798   3.115 -1.9583 -0.4083 -1.1807
   66MOL0     H 8869   8.722   5.849   2.948 -0.8462  0.0001 -0.2773
   66MOL0     H 8870   8.528   6.197   3.151 -2.2362  1.0984 -0.3877
   66MOL0     H 8871   8.372   6.298   3.251 -2.0377  1.4655  1.7435
   66MOL0     H 8872   8.218   6.245   3.192  2.0834  0.8072 -3.4094
   66MOL0     H 8873   8.262   6.209   3.363  0.5383 -2.3803  0.3333
   66MOL0     H 8874   8.067   6.076   3.589  1.8106 -2.1080 -2.3462
   66MOL0     H 8875   7.897   6.037   3.733  1.6818  0.6050 -1.1969
   66MOL0     H 8876   7.522   6.030   3.798  1.0812  0.3913  1.0088
   66MOL0     H 8877   7.596   6.172   3.721  0.1509  0.1440 -0.6625
   66MOL0     H 8878   7.362   6.171   3.660  0.0370  1.5210 -0.4227
   66MOL0     H 8879   7.462   6.140   3.522 -0.6542 -2.0184 -1.6990
   66MOL0     H 8880   7.334   5.892   3.665 -3.5340 -2.4379 -2.4964
   66MOL0     H 8881   7.393   5.907   3.504 -0.2088 -0.1215 -0.2180
   66MOL0     H 8882   7.143   6.065   3.577  1.9541 -0.2029  1.8067
   66MOL0     H 8883   7.219   6.044   3.421 -2.8897 -2.1778 -1.5634
   66MOL0     H 8884   7.194   5.776   3.524 -0.8354 -0.1501  3.8009
   66MOL0     H 8885   7.076   5.852   3.418  0.3201 -1.2388  0.1204
   66MOL0     H 8886   7.048   5.858   3.732 -2.9643 -0.5255  0.9859
   66MOL0     H 8887   6.949   5.935   3.608  0.1597 -1.0276 -2.9205
   66MOL0     H 8888   6.997   5.645   3.553  0.7315 -0.0732  1.8049
   66MOL0     H 8889   6.836   5.733   3.562 -0.4031  0.1651  0.3086
   66MOL0     H 8890   6.855   5.744   3.803 -0.4383 -0.3973  0.1561
   66MOL0     H 8891   6.987   5.629   3.784  0.5243  1.8738  1.9634
   66MOL0     H 8892   7.631   5.925   3.424 -0.8815  2.1637 -0.5763
   66MOL0     H 8893   7.806   5.946   3.264 -2.4347 -2.2008  0.9824
   66MOL0     H 8894   8.310   5.766   3.220 -2.4651  1.7569  0.2453
   66MOL0     H 8895   8.541   5.765   3.143 -2.3485 -0.0333 -1.7275
   66MOL0     H 8896  10.418   6.085   3.807 -1.4944 -0.2687 -0.3103
   66MOL0     H 8897  10.655   6.126   3.752  2.3497 -2.5130  0.7346
   66MOL0     H 8898  10.933   6.223   3.385  2.3332  1.6221 -3.3644
   66MOL0     H 8899  11.160   6.263   3.289 -1.1068  0.1268 -0.3666
   66MOL0     H 8900  11.509   6.057   3.183  0.6162  1.8560  1.7852
   66MOL0     H 8901  11.500   5.958   3.325 -0.6431  1.2942  0.6984
   66MOL0     H 8902  11.305   5.944   3.099  1.2185  0.3606 -0.3624
   66MOL0     H 8903  11.295   5.834   3.245  0.8625 -1.3748  0.0855
   66MOL0     H 8904  11.417   5.708   3.081  0.0823 -0.2424  0.9901
   66MOL0     H 8905  11.548   5.794   3.171 -0.9680  1.0008  0.7970
   66MOL0     H 8906  11.519   5.977   2.966 -0.3408 -0.1639  1.0627
   66MOL0     H 8907  11.426   5.844   2.890  0.7982 -1.1180 -0.2874
   66MOL0     H 8908  11.837   5.696   2.893  1.4770  1.4683 -3.1275
   66MOL0     H 8909  11.304   5.913   3.501 -2.4571 -1.3845  2.0656
   66MOL0     H 8910  11.102   5.897   3.610  0.7214  1.3311  1.7111
   67MOL0     O 8911   7.789   2.525   5.656  0.2410  0.3122 -0.1631
   67MOL0     C 8912   7.820   2.409   5.654 -0.6765 -0.6029 -0.8978
   67MOL0     O 8913   7.746   2.304   5.630  0.3449  0.4462  0.2481
   67MOL0     C 8914   7.611   2.317   5.640  0.3092  0.1880  0.3167
   67MOL0     C 8915   7.546   2.378   5.533 -0.4506 -0.5443  0.3286
   67MOL0     C 8916   7.412   2.413   5.545 -0.4853  0.1357 -0.0420
   67MOL0     C 8917   7.343   2.379   5.663 -0.1257  0.0503  0.6008
   67MOL0     O 8918   7.207   2.401   5.654 -0.0400  0.0443  0.2557
   67MOL0     C 8919   7.128   2.354   5.763  1.3895 -0.1607  0.7709
   67MOL0     C 8920   6.982   2.378   5.720  0.3494  0.1777  0.3315
   67MOL0     C 8921   6.880   2.293   5.805 -0.6822 -0.0423  0.9322
   67MOL0     C 8922   6.846   2.166   5.715  0.2957 -0.0100 -0.8659
   67MOL0     C 8923   6.750   2.064   5.776 -0.0453  0.0002 -0.1220
   67MOL0     C 8924   6.788   1.920   5.737  0.3436 -0.0567 -0.4124
   67MOL0     C 8925   6.728   1.811   5.832 -0.1788 -0.7152 -0.6168
   67MOL0     C 8926   6.570   1.815   5.831  0.7006  1.0131 -0.4365
   67MOL0     N 8927   6.513   1.685   5.865  0.1985 -0.7385  0.1158
   67MOL0     C 8928   6.452   1.606   5.781 -0.4257 -0.8970 -0.7510
   67MOL0     C 8929   6.417   1.498   5.856  0.0156 -1.2850  0.8039
   67MOL0     C 8930   6.343   1.378   5.811 -0.0775  0.3569 -0.0482
   67MOL0     C 8931   6.228   1.400   5.709 -0.3205 -0.4336  0.1890
   67MOL0     C 8932   6.124   1.498   5.756 -0.0142 -0.0208  0.2150
   67MOL0     C 8933   6.046   1.559   5.630 -0.0579 -0.3865 -0.3857
   67MOL0     O 8934   5.969   1.463   5.559 -0.2771  0.3484  0.6739
   67MOL0     C 8935   5.826   1.480   5.557 -1.0134 -0.3312  0.0810
   67MOL0     C 8936   5.763   1.516   5.440  0.8042  0.3956  0.0402
   67MOL0     C 8937   5.617   1.516   5.425 -0.4356 -0.3595 -0.1238
   67MOL0     C 8938   5.572   1.571   5.289  0.3958 -0.8518 -1.0594
   67MOL0     C 8939   5.542   1.480   5.544 -0.5710 -0.2986 -0.7835
   67MOL0     C 8940   5.403   1.477   5.540  0.4824 -0.6341 -0.0946
   67MOL0     O 8941   5.340   1.475   5.662 -0.2976  0.7307  0.3900
   67MOL0     C 8942   5.201   1.464   5.656 -0.3838  0.3533  0.9895
   67MOL0     C 8943   5.128   1.354   5.612 -1.7554  0.2487 -0.1915
   67MOL0     C 8944   4.993   1.347   5.632  0.2763 -0.1264 -0.1526
   67MOL0     C 8945   4.915   1.442   5.691 -0.2890  0.6220  0.2677
   67MOL0     O 8946   4.784   1.416   5.705 -0.1345 -0.5425  0.0041
   67MOL0     C 8947   4.716   1.510   5.795  0.1261  0.4563 -0.1979
   67MOL0     C 8948   4.573   1.503   5.746  0.2129 -0.9823 -0.4062
   67MOL0     C 8949   4.494   1.611   5.813  0.2044  0.1914  0.1435
   67MOL0     C 8950   4.354   1.618   5.752  0.8677 -0.4380 -0.2002
   67MOL0     C 8951   4.242   1.680   5.838 -0.0299  0.2309  0.2603
   67MOL0     C 8952   4.103   1.682   5.770 -0.3218 -0.6256 -0.1016
   67MOL0     C 8953   4.000   1.765   5.846 -0.1594  0.9629 -0.0686
   67MOL0     C 8954   3.874   1.795   5.774  0.6507 -0.6343  0.4518
   67MOL0    Cl 8955   3.898   1.900   5.639  0.0808 -0.3659 -0.0708
   67MOL0     C 8956   4.988   1.556   5.730  0.4758  0.1942  0.0715
   67MOL0     C 8957   5.128   1.568   5.719 -1.2061 -0.3178  0.3629
   67MOL0     O 8958   5.352   1.471   5.432 -0.6443 -0.4003 -0.2610
   67MOL0     C 8959   5.610   1.429   5.653 -0.5512 -0.6928  1.1840
   67MOL0     C 8960   5.746   1.435   5.658  0.4498 -0.2556 -0.8205
   67MOL0     N 8961   6.453   1.517   5.987 -0.2387 -0.2280  0.3809
   67MOL0     N 8962   6.508   1.638   5.996  0.6214  0.6255  0.2532
   67MOL0     C 8963   7.409   2.319   5.771  0.6644 -0.1752 -0.0608
   67MOL0     C 8964   7.541   2.287   5.763 -0.8608  0.1864 -0.1703
   67MOL0     C 8965   7.968   2.387   5.679 -0.5350 -0.1419  0.8429
   67MOL0     C 8966   8.050   2.504   5.669 -0.3451 -1.2141  0.8503
   67MOL0     C 8967   8.190   2.495   5.667 -0.2685 -0.0009  0.4524
   67MOL0     C 8968   8.253   2.374   5.696 -0.2345  0.7124  0.6276
   67MOL0     O 8969   8.389   2.372   5.723 -0.3213  0.5135 -0.3262
   67MOL0     C 8970   8.468   2.250   5.743 -0.5693  0.1922  0.4151
   67MOL0     C 8971   8.613   2.268   5.710 -0.2892  0.4005 -0.2974
   67MOL0     C 8972   8.694   2.152   5.761  0.0252 -0.0656  0.3752
   67MOL0     C 8973   8.846   2.153   5.713  0.4277 -0.1091  0.4487
   67MOL0     C 8974   8.867   2.131   5.569  0.0568  0.4093 -0.4128
   67MOL0     C 8975   8.888   2.112   5.446  0.2158  0.4387 -0.6157
   67MOL0     C 8976   8.171   2.261   5.695 -0.0857 -0.5815  0.2009
   67MOL0     C 8977   8.034   2.267   5.689 -0.4500 -0.8700 -0.4262
   67MOL0     H 8978   7.597   2.400   5.439  0.7441 -2.3000  0.5095
   67MOL0     H 8979   7.374   2.460   5.456  0.2856 -1.6037 -1.3443
   67MOL0     H 8980   7.140   2.247   5.785 -0.3294 -0.0746  2.3380
   67MOL0     H 8981   7.152   2.417   5.850 -1.1379  0.7917  0.8419
   67MOL0     H 8982   6.952   2.483   5.718 -0.7165 -0.1180 -0.1049
   67MOL0     H 8983   6.981   2.343   5.616 -1.1521 -0.0397  0.3909
   67MOL0     H 8984   6.914   2.264   5.905  1.4071  0.7202  0.4959
   67MOL0     H 8985   6.792   2.356   5.819 -4.1670 -4.4257  0.8321
   67MOL0     H 8986   6.796   2.210   5.629 -3.6448  0.0813  1.2408
   67MOL0     H 8987   6.941   2.117   5.692  1.1666  0.4558  1.3884
   67MOL0     H 8988   6.741   2.096   5.880 -0.2111 -0.5347  0.0275
   67MOL0     H 8989   6.654   2.088   5.728 -1.4650  0.6944  2.8475
   67MOL0     H 8990   6.744   1.897   5.639 -0.9103 -1.3978  0.4153
   67MOL0     H 8991   6.896   1.911   5.727  0.6757 -1.2642  3.0367
   67MOL0     H 8992   6.762   1.713   5.798  2.4739 -0.6681  1.5490
   67MOL0     H 8993   6.771   1.826   5.932 -1.0822 -0.6082 -0.2373
   67MOL0     H 8994   6.554   1.846   5.727  3.8553  2.6160 -0.5824
   67MOL0     H 8995   6.534   1.894   5.898  0.8232 -0.2205  1.1242
   67MOL0     H 8996   6.430   1.631   5.677 -0.6012 -0.8287 -0.6963
   67MOL0     H 8997   6.407   1.295   5.778 -0.5778  0.7611 -2.2181
   67MOL0     H 8998   6.293   1.336   5.898  0.5475  0.5607  0.4119
   67MOL0     H 8999   6.180   1.307   5.678 -0.2911 -0.5970  0.6291
   67MOL0     H 9000   6.278   1.444   5.623  0.4205  3.0868  2.2339
   67MOL0     H 9001   6.175   1.581   5.806  1.7422 -0.6467 -0.4534
   67MOL0     H 9002   6.054   1.442   5.818 -1.2841 -1.4826 -2.3397
   67MOL0     H 9003   6.109   1.606   5.554 -0.2597  0.5932  0.0460
   67MOL0     H 9004   5.987   1.634   5.683  0.8687 -0.5484  0.9275
   67MOL0     H 9005   5.829   1.544   5.358  0.2923  0.2126 -0.4444
   67MOL0     H 9006   5.540   1.490   5.223  0.1569 -1.0723 -0.6764
   67MOL0     H 9007   5.480   1.627   5.308  0.3542 -0.4398 -2.3821
   67MOL0     H 9008   5.639   1.642   5.239 -0.0476 -1.5133 -2.6590
   67MOL0     H 9009   5.170   1.269   5.560 -4.0670 -1.3455  0.3853
   67MOL0     H 9010   4.939   1.257   5.601  2.2074 -1.0907 -0.8580
   67MOL0     H 9011   4.728   1.478   5.899 -0.1217 -0.6515 -0.5034
   67MOL0     H 9012   4.750   1.614   5.789 -1.4785  0.9228 -2.5706
   67MOL0     H 9013   4.561   1.503   5.637 -2.6142  0.4246 -0.1765
   67MOL0     H 9014   4.538   1.403   5.772  2.3786 -1.1201  2.4818
   67MOL0     H 9015   4.537   1.708   5.786  0.6115 -0.4820 -1.8171
   67MOL0     H 9016   4.480   1.590   5.919  0.3590  0.6824  0.2637
   67MOL0     H 9017   4.354   1.691   5.670  0.6087  1.2647  1.2636
   67MOL0     H 9018   4.321   1.520   5.717  0.2507  0.1186 -1.2049
   67MOL0     H 9019   4.274   1.774   5.885 -0.4864  1.2202 -1.3177
   67MOL0     H 9020   4.225   1.613   5.923  2.3230 -1.3480 -0.4170
   67MOL0     H 9021   4.116   1.732   5.674 -2.9205  0.8298  0.2042
   67MOL0     H 9022   4.074   1.576   5.764  0.5356 -0.8203 -0.9319
   67MOL0     H 9023   4.045   1.858   5.879 -1.6857  0.7791  2.8393
   67MOL0     H 9024   3.977   1.706   5.935  0.1093  2.1448  0.7929
   67MOL0     H 9025   3.812   1.845   5.850  3.3676  1.4285  1.4926
   67MOL0     H 9026   3.824   1.701   5.751  1.3029 -1.2980  1.6104
   67MOL0     H 9027   4.942   1.637   5.785 -1.6265 -3.2318  3.8166
   67MOL0     H 9028   5.178   1.653   5.766  1.8845 -1.7999 -0.0168
   67MOL0     H 9029   5.560   1.376   5.733  0.2881 -0.8613  1.5943
   67MOL0     H 9030   5.798   1.402   5.747  1.9361  0.7781 -1.2683
   67MOL0     H 9031   7.355   2.301   5.864 -1.1042  2.3745 -0.4937
   67MOL0     H 9032   7.604   2.255   5.845 -0.4370 -0.0791 -0.5910
   67MOL0     H 9033   8.014   2.605   5.651  2.2200 -0.3523  0.0670
   67MOL0     H 9034   8.254   2.584   5.667 -0.4994  0.2068  2.1695
   67MOL0     H 9035   8.456   2.214   5.846  3.5563  1.3624  1.5033
   67MOL0     H 9036   8.436   2.162   5.687  1.8891 -3.2877  3.9318
   67MOL0     H 9037   8.646   2.358   5.764  0.1732  0.7781 -1.1846
   67MOL0     H 9038   8.624   2.292   5.604  0.4394 -1.5065 -0.6830
   67MOL0     H 9039   8.648   2.057   5.734  0.2861 -0.8330  2.4610
   67MOL0     H 9040   8.716   2.162   5.867  0.0698  1.4247  0.2419
   67MOL0     H 9041   8.900   2.071   5.762  0.8038  0.4491  0.9804
   67MOL0     H 9042   8.895   2.244   5.748 -1.8512  0.4921  2.3726
   67MOL0     H 9043   8.900   2.103   5.340 -1.1032 -3.3866 -0.6005
   67MOL0     H 9044   8.224   2.166   5.692  1.5623  0.2064 -4.4035
   67MOL0     H 9045   7.968   2.181   5.693 -1.0139 -0.4523 -0.5657
   68MOL0     O 9046   9.620  10.907   0.372 -0.1524 -0.0361  0.4819
   68MOL0     C 9047   9.616  11.024   0.417  0.3833 -0.9666  0.3205
   68MOL0     O 9048   9.506  11.096   0.458 -0.1113  0.3117 -0.4432
   68MOL0     C 9049   9.379  11.040   0.432  0.5757  0.3609 -1.1871
   68MOL0     C 9050   9.283  11.113   0.366  0.1578  0.4383  0.1050
   68MOL0     C 9051   9.155  11.065   0.334 -0.0233  0.2912  0.1431
   68MOL0     C 9052   9.114  10.932   0.355  0.4948  0.2555 -0.7842
   68MOL0     O 9053   8.994  10.892   0.310  0.5618 -0.4200  0.1057
   68MOL0     C 9054   8.988  10.755   0.261 -1.0738  0.3489 -0.1296
   68MOL0     C 9055   8.839  10.730   0.246 -0.7898 -0.1035 -1.4463
   68MOL0     C 9056   8.774  10.711   0.382 -0.2579 -0.2277 -0.6437
   68MOL0     C 9057   8.684  10.580   0.394  0.5886  0.1378  0.2906
   68MOL0     C 9058   8.565  10.596   0.498  0.1068  0.1656  0.8028
   68MOL0     C 9059   8.484  10.469   0.536  0.0711  0.3400  0.3945
   68MOL0     C 9060   8.383  10.430   0.417  1.0326  0.5356  0.2639
   68MOL0     C 9061   8.279  10.308   0.442  0.6096 -0.1810 -0.1972
   68MOL0     N 9062   8.169  10.288   0.347  0.0322  0.3948  1.0071
   68MOL0     C 9063   8.162  10.218   0.229 -0.2219 -0.2066  0.3969
   68MOL0     C 9064   8.038  10.251   0.177 -0.4722 -0.7807  0.0424
   68MOL0     C 9065   7.994  10.205   0.047  0.0631 -0.5234  0.0724
   68MOL0     C 9066   8.023  10.285  -0.080 -1.1726 -0.2111 -1.2499
   68MOL0     C 9067   8.173  10.308  -0.089 -1.3932  0.4366 -0.1989
   68MOL0     C 9068   8.214  10.422  -0.185 -0.0749 -0.1574 -0.4306
   68MOL0     O 9069   8.341  10.481  -0.160  0.2130 -0.0029  0.1445
   68MOL0     C 9070   8.349  10.573  -0.053  0.9183  0.0209 -1.1282
   68MOL0     C 9071   8.255  10.599   0.042 -1.0645 -0.1203 -0.0022
   68MOL0     C 9072   8.275  10.701   0.137  0.3536 -0.1006 -0.0335
   68MOL0     C 9073   8.156  10.738   0.209 -0.4177  0.2768 -0.4681
   68MOL0     C 9074   8.400  10.774   0.146  0.2823  0.4865 -0.1439
   68MOL0     C 9075   8.444  10.872   0.245 -0.5868 -1.1100  0.0133
   68MOL0     O 9076   8.540  10.964   0.214  0.0152  0.6117  0.0743
   68MOL0     C 9077   8.600  11.048   0.309  0.0298 -0.1816  1.1257
   68MOL0     C 9078   8.585  11.034   0.445  0.1966 -0.9603  0.5861
   68MOL0     C 9079   8.680  11.092   0.530 -0.5639  0.1186  0.3077
   68MOL0     C 9080   8.797  11.150   0.479 -0.1554 -0.3822 -0.1004
   68MOL0     O 9081   8.902  11.193   0.556 -0.1621 -0.1454  0.0390
   68MOL0     C 9082   8.932  11.135   0.679 -0.4525 -0.4549 -0.2843
   68MOL0     C 9083   9.088  11.134   0.711 -0.2529 -0.1793  0.1720
   68MOL0     C 9084   9.164  11.258   0.671  0.1391  0.0588  0.4012
   68MOL0     C 9085   9.301  11.271   0.742 -0.8704  0.6013 -0.4278
   68MOL0     C 9086   9.337  11.423   0.732 -0.0814  0.2115 -0.3586
   68MOL0     C 9087   9.481  11.442   0.751 -0.7760 -0.3594 -0.1885
   68MOL0     C 9088   9.530  11.583   0.705  0.3083  0.4817 -0.6878
   68MOL0     C 9089   9.673  11.563   0.653  0.6958  0.3841  0.0591
   68MOL0    Cl 9090   9.772  11.555   0.807  0.2590 -0.4307 -0.0586
   68MOL0     C 9091   8.810  11.163   0.341  0.4772  0.8136 -0.1676
   68MOL0     C 9092   8.724  11.107   0.256 -0.0265  0.3794 -0.2236
   68MOL0     O 9093   8.373  10.873   0.347  0.2078 -0.3728 -0.4917
   68MOL0     C 9094   8.491  10.753   0.034 -0.0211 -0.3672 -0.7665
   68MOL0     C 9095   8.465  10.650  -0.058 -0.4874 -0.1653 -0.7387
   68MOL0     N 9096   7.968  10.312   0.275  0.0565 -0.3739  0.4532
   68MOL0     N 9097   8.044  10.330   0.376 -0.1532  0.2288 -0.4943
   68MOL0     C 9098   9.218  10.857   0.408  0.4576  0.3308  1.3369
   68MOL0     C 9099   9.347  10.900   0.441  0.1070 -0.1790  0.9280
   68MOL0     C 9100   9.739  11.101   0.388  0.5365 -0.3825 -0.1535
   68MOL0     C 9101   9.860  11.032   0.357 -0.4749  0.1149  0.2709
   68MOL0     C 9102   9.981  11.098   0.340  0.0269  0.4201  0.5097
   68MOL0     C 9103   9.989  11.235   0.377  0.1222 -0.0207 -0.6889
   68MOL0     O 9104  10.105  11.314   0.376  0.0728  0.2732  0.5270
   68MOL0     C 9105  10.222  11.253   0.317  1.0176  0.4013  0.5542
   68MOL0     C 9106  10.230  11.303   0.172  1.7729 -0.4212  0.0935
   68MOL0     C 9107  10.321  11.225   0.084 -0.2135 -0.1377 -0.4995
   68MOL0     C 9108  10.459  11.210   0.151  0.0424 -0.0824 -0.4574
   68MOL0     C 9109  10.541  11.128   0.062 -1.3547 -0.8815 -0.3955
   68MOL0     C 9110  10.610  11.057  -0.012  0.8094  0.7960 -0.9694
   68MOL0     C 9111   9.868  11.300   0.423 -0.4176 -1.0947  1.2206
   68MOL0     C 9112   9.746  11.239   0.417 -0.1871 -0.4990 -0.2199
   68MOL0     H 9113   9.307  11.215   0.338  0.9000  0.3666  0.4661
   68MOL0     H 9114   9.086  11.127   0.279  0.3244 -0.6382 -1.4125
   68MOL0     H 9115   9.027  10.753   0.159 -3.8571  1.7042 -1.3211
   68MOL0     H 9116   9.025  10.681   0.332 -1.0519 -1.5234 -2.0180
   68MOL0     H 9117   8.781  10.814   0.207  0.5170 -0.0478 -3.4067
   68MOL0     H 9118   8.827  10.643   0.180  0.7208 -3.3891  2.2461
   68MOL0     H 9119   8.852  10.702   0.459 -1.1869  1.0093  0.4960
   68MOL0     H 9120   8.716  10.798   0.413 -0.2569 -0.9352  1.5308
   68MOL0     H 9121   8.651  10.559   0.292  2.9022  0.6891 -0.6170
   68MOL0     H 9122   8.754  10.504   0.428  1.8136  0.7416 -0.7805
   68MOL0     H 9123   8.610  10.632   0.591  2.2466  1.2117 -0.5699
   68MOL0     H 9124   8.500  10.677   0.464  1.4203  0.7748 -0.3463
   68MOL0     H 9125   8.552  10.385   0.556 -0.0610  0.1758  0.1689
   68MOL0     H 9126   8.419  10.485   0.622 -0.8105  2.3589 -0.5706
   68MOL0     H 9127   8.329  10.524   0.404  0.7533  0.3542  0.1096
   68MOL0     H 9128   8.443  10.424   0.326  1.8892  0.6857  0.8155
   68MOL0     H 9129   8.238  10.315   0.543 -0.6512 -0.3729 -0.6769
   68MOL0     H 9130   8.338  10.217   0.456  0.1941 -0.3382  0.5898
   68MOL0     H 9131   8.239  10.177   0.164 -0.9356 -0.1293 -0.5157
   68MOL0     H 9132   8.028  10.103   0.028  1.3301  0.1776 -1.6553
   68MOL0     H 9133   7.885  10.189   0.051  0.1257 -0.7078  1.2612
   68MOL0     H 9134   7.966  10.379  -0.084  0.6738  1.0018 -0.3531
   68MOL0     H 9135   8.001  10.219  -0.164  0.2711 -1.8926 -0.3785
   68MOL0     H 9136   8.222  10.216  -0.122 -2.8204 -1.0679  1.6375
   68MOL0     H 9137   8.220  10.332   0.006 -0.3418  0.6630 -0.7645
   68MOL0     H 9138   8.131  10.494  -0.181  0.0245  0.0217 -1.4013
   68MOL0     H 9139   8.221  10.380  -0.286 -2.4608  3.8119 -2.4853
   68MOL0     H 9140   8.161  10.546   0.053 -1.1818 -1.1551 -4.3854
   68MOL0     H 9141   8.143  10.656   0.280 -3.4037 -0.9110 -2.1981
   68MOL0     H 9142   8.162  10.832   0.264 -2.3605 -0.1069  0.4963
   68MOL0     H 9143   8.064  10.738   0.150  0.4800 -0.8858 -1.9468
   68MOL0     H 9144   8.494  10.997   0.492 -1.5495  1.4112 -0.6944
   68MOL0     H 9145   8.645  11.094   0.633 -2.1433 -0.6200 -0.1887
   68MOL0     H 9146   8.883  11.180   0.766 -0.3327 -2.6773  1.0230
   68MOL0     H 9147   8.896  11.032   0.690 -0.7156 -0.6257 -2.3657
   68MOL0     H 9148   9.097  11.120   0.819 -3.4157  1.2994  0.7558
   68MOL0     H 9149   9.131  11.047   0.660  0.8939 -0.4341  1.5279
   68MOL0     H 9150   9.095  11.338   0.698  0.1691  0.0685  0.4472
   68MOL0     H 9151   9.177  11.260   0.562  0.6676  3.5026  0.4367
   68MOL0     H 9152   9.290  11.242   0.848  0.9928  0.0509 -0.3554
   68MOL0     H 9153   9.370  11.201   0.695 -2.8493 -2.5744  1.0177
   68MOL0     H 9154   9.300  11.480   0.818  3.1713 -2.7236  3.4204
   68MOL0     H 9155   9.303  11.459   0.634 -0.2538 -0.1951 -0.4481
   68MOL0     H 9156   9.515  11.415   0.851 -1.6344 -0.5286  0.0692
   68MOL0     H 9157   9.521  11.367   0.681  1.8041  1.2639 -0.5913
   68MOL0     H 9158   9.541  11.644   0.796  1.3524  1.3040 -1.3403
   68MOL0     H 9159   9.466  11.647   0.644 -0.3089  0.7016  0.1675
   68MOL0     H 9160   9.691  11.649   0.588  1.0191 -0.6040 -1.2070
   68MOL0     H 9161   9.677  11.475   0.588  0.3807 -0.0800  0.6544
   68MOL0     H 9162   8.890  11.215   0.290  1.2029  0.7218  0.8559
   68MOL0     H 9163   8.738  11.112   0.149  0.2030  1.1007 -0.1624
   68MOL0     H 9164   8.589  10.799   0.027 -1.1363  2.2974 -0.1483
   68MOL0     H 9165   8.542  10.629  -0.133 -0.7516 -1.5954 -0.6367
   68MOL0     H 9166   9.207  10.750   0.421  0.0156  0.4975  2.4294
   68MOL0     H 9167   9.420  10.824   0.469 -1.1008 -1.7697 -0.0734
   68MOL0     H 9168   9.865  10.933   0.314  1.3638  0.5646 -0.6143
   68MOL0     H 9169  10.070  11.044   0.309  0.8332  2.4691 -0.9898
   68MOL0     H 9170  10.311  11.273   0.377 -1.2620  1.9573  3.7334
   68MOL0     H 9171  10.226  11.144   0.315  0.8194  0.4025 -0.0594
   68MOL0     H 9172  10.256  11.409   0.175 -0.7779  0.3073 -0.8907
   68MOL0     H 9173  10.128  11.301   0.133  2.9046  0.2915 -3.1843
   68MOL0     H 9174  10.331  11.268  -0.016  1.1589 -0.0628 -0.3445
   68MOL0     H 9175  10.269  11.130   0.071  0.0813 -0.4950  0.7713
   68MOL0     H 9176  10.451  11.160   0.248  2.3558  0.1377 -0.1053
   68MOL0     H 9177  10.515  11.302   0.166  1.5401 -1.1868  1.1693
   68MOL0     H 9178  10.682  11.012  -0.077  1.7502  1.1061 -0.1694
   68MOL0     H 9179   9.882  11.401   0.461  2.3113 -0.8431 -0.1463
   68MOL0     H 9180   9.658  11.296   0.448  1.2603  2.0406 -0.5041
   69MOL0     O 9181   8.444   1.294   2.497 -0.0701 -0.2596 -0.1011
   69MOL0     C 9182   8.478   1.328   2.380  0.4473  0.5323 -0.7186
   69MOL0     O 9183   8.399   1.418   2.301 -0.1933 -0.6908  0.3595
   69MOL0     C 9184   8.280   1.459   2.357  0.1997 -0.5003 -0.1034
   69MOL0     C 9185   8.278   1.580   2.426  0.0488 -0.2179  0.3874
   69MOL0     C 9186   8.163   1.628   2.483 -0.4811 -0.4316 -0.0547
   69MOL0     C 9187   8.045   1.543   2.488 -0.2319 -0.7059 -0.1995
   69MOL0     O 9188   7.928   1.583   2.545  0.0232  0.2444 -0.1604
   69MOL0     C 9189   7.955   1.630   2.679 -0.1109 -0.1744  0.2202
   69MOL0     C 9190   7.822   1.611   2.767 -0.9009 -0.6087  0.7210
   69MOL0     C 9191   7.700   1.701   2.727 -0.3248 -0.4584  0.8581
   69MOL0     C 9192   7.589   1.685   2.821 -1.1003 -0.3422  0.0005
   69MOL0     C 9193   7.471   1.773   2.803 -0.5084 -0.9891  1.1165
   69MOL0     C 9194   7.373   1.780   2.925  0.4400 -0.1672  0.8961
   69MOL0     C 9195   7.263   1.881   2.910  0.8586 -0.2490 -0.6849
   69MOL0     C 9196   7.169   1.887   3.033 -0.0269  0.5421 -0.6096
   69MOL0     N 9197   7.047   1.969   3.008  0.7420 -0.9106 -0.2139
   69MOL0     C 9198   7.013   2.100   3.039 -0.1683 -0.9569 -0.7703
   69MOL0     C 9199   6.878   2.103   3.060  0.0264 -0.3782  0.3174
   69MOL0     C 9200   6.817   2.235   3.090  0.6215  0.7924 -0.1897
   69MOL0     C 9201   6.667   2.230   3.074  1.2567 -0.4187  0.7663
   69MOL0     C 9202   6.591   2.224   2.936 -1.0507  0.0184 -0.1992
   69MOL0     C 9203   6.453   2.160   2.963  0.3535 -0.1268 -0.1528
   69MOL0     O 9204   6.389   2.126   2.837  0.4228 -0.3328  0.0373
   69MOL0     C 9205   6.249   2.132   2.830 -0.2357  0.5731  0.3383
   69MOL0     C 9206   6.189   2.108   2.701  0.0657  0.6937  0.8640
   69MOL0     C 9207   6.049   2.083   2.683 -0.0346 -1.0606  0.1597
   69MOL0     C 9208   6.006   2.048   2.543 -0.8868  0.5447  0.9180
   69MOL0     C 9209   5.959   2.104   2.793  0.0771  1.1442 -0.1032
   69MOL0     C 9210   5.812   2.074   2.782 -0.5104 -0.6633 -1.1958
   69MOL0     O 9211   5.742   2.050   2.901 -0.2491  0.2126 -0.5526
   69MOL0     C 9212   5.614   2.087   2.894  0.1044 -0.3239  0.1383
   69MOL0     C 9213   5.590   2.225   2.891 -0.2684 -0.3175 -0.3832
   69MOL0     C 9214   5.458   2.274   2.862 -0.6379  0.0519  0.3331
   69MOL0     C 9215   5.355   2.188   2.833 -0.6702  0.1405  0.2963
   69MOL0     O 9216   5.235   2.252   2.830  0.5129  0.0604  0.5190
   69MOL0     C 9217   5.118   2.170   2.813  0.7554  0.0344  0.8717
   69MOL0     C 9218   4.994   2.238   2.838  0.1249  0.2181 -0.1349
   69MOL0     C 9219   4.877   2.137   2.865 -0.3160 -0.2661 -0.5091
   69MOL0     C 9220   4.736   2.160   2.836  0.0403  0.5330 -0.8552
   69MOL0     C 9221   4.652   2.031   2.850  1.0362 -0.5922  0.0957
   69MOL0     C 9222   4.503   2.073   2.820  0.2769 -0.4685 -0.0143
   69MOL0     C 9223   4.398   1.959   2.836 -0.0697  0.5907  0.4978
   69MOL0     C 9224   4.378   1.874   2.715 -0.7465  0.9553 -0.4141
   69MOL0    Cl 9225   4.303   1.970   2.587 -0.5581  0.5630 -0.5173
   69MOL0     C 9226   5.374   2.049   2.853 -0.2307 -0.7219  0.0322
   69MOL0     C 9227   5.508   2.007   2.867 -1.0888  0.2045 -0.0426
   69MOL0     O 9228   5.756   2.075   2.672 -0.3235 -0.3159  0.0644
   69MOL0     C 9229   6.021   2.122   2.920  0.5803 -1.0032 -0.9982
   69MOL0     C 9230   6.158   2.140   2.940 -0.4188  1.0055  0.0560
   69MOL0     N 9231   6.829   1.972   3.046  0.0378 -0.1836  0.2287
   69MOL0     N 9232   6.930   1.902   3.011  0.0414  0.3723 -0.3777
   69MOL0     C 9233   8.051   1.415   2.431 -0.7430  0.2159 -0.3083
   69MOL0     C 9234   8.166   1.377   2.358 -0.4297 -0.6615 -0.1024
   69MOL0     C 9235   8.598   1.268   2.320  0.1464  0.0324  0.8594
   69MOL0     C 9236   8.628   1.129   2.338 -0.2936 -0.4847  0.1972
   69MOL0     C 9237   8.724   1.063   2.260  1.0001 -1.0918  0.9703
   69MOL0     C 9238   8.802   1.136   2.167  0.2275  0.2855  0.6688
   69MOL0     O 9239   8.902   1.075   2.093  0.0469 -0.4187  0.1280
   69MOL0     C 9240   8.936   0.942   2.114  0.0336 -0.0944  0.1990
   69MOL0     C 9241   9.052   0.903   2.026  0.8001  0.1661 -0.5130
   69MOL0     C 9242   9.180   0.979   2.082  0.4845 -0.8059 -0.2753
   69MOL0     C 9243   9.297   0.965   1.990  0.4827 -0.3436 -0.0988
   69MOL0     C 9244   9.408   1.052   2.032  0.5935  0.1540  0.1862
   69MOL0     C 9245   9.500   1.118   2.053 -0.4545  0.3465 -1.5316
   69MOL0     C 9246   8.784   1.273   2.150 -0.4353 -0.0877 -0.2253
   69MOL0     C 9247   8.687   1.336   2.228  0.2222 -0.6677  0.1810
   69MOL0     H 9248   8.373   1.633   2.421  0.9590 -1.8728 -0.6620
   69MOL0     H 9249   8.155   1.720   2.541  3.1082 -0.9469  1.5193
   69MOL0     H 9250   8.036   1.580   2.734  1.1281  0.7955 -0.6583
   69MOL0     H 9251   7.978   1.736   2.666  1.2667 -0.5315 -0.5333
   69MOL0     H 9252   7.796   1.505   2.774 -0.6738 -0.7267 -0.0572
   69MOL0     H 9253   7.859   1.638   2.866  4.1406 -1.6216 -0.5831
   69MOL0     H 9254   7.728   1.806   2.725 -0.6829 -0.3732  0.1563
   69MOL0     H 9255   7.671   1.672   2.626  1.8035  2.2417 -0.6447
   69MOL0     H 9256   7.567   1.579   2.803  0.2484 -0.6142 -0.1607
   69MOL0     H 9257   7.612   1.699   2.927 -1.1135  0.0445 -0.0474
   69MOL0     H 9258   7.510   1.873   2.782  5.4744 -2.5990  2.7635
   69MOL0     H 9259   7.411   1.741   2.717 -0.0440 -1.6272  1.0202
   69MOL0     H 9260   7.325   1.681   2.920  3.3713 -1.6200 -1.2176
   69MOL0     H 9261   7.445   1.813   3.000  2.9773  1.7406 -2.1516
   69MOL0     H 9262   7.301   1.982   2.890 -0.8365  0.5166 -0.2475
   69MOL0     H 9263   7.203   1.871   2.819  1.6994  1.6810 -1.5074
   69MOL0     H 9264   7.223   1.909   3.126 -1.3952 -1.8661  0.8568
   69MOL0     H 9265   7.145   1.780   3.032 -0.0674  0.5140 -3.1457
   69MOL0     H 9266   7.087   2.180   3.039 -0.5773 -0.5385  1.1388
   69MOL0     H 9267   6.851   2.263   3.191 -1.1445  1.1748  0.3331
   69MOL0     H 9268   6.860   2.305   3.019  1.3586 -0.0834 -0.6262
   69MOL0     H 9269   6.654   2.331   3.112  1.8239 -0.3358  0.7499
   69MOL0     H 9270   6.629   2.151   3.140  2.4827 -2.2358 -0.6177
   69MOL0     H 9271   6.645   2.176   2.854 -0.0466  0.3432  0.2545
   69MOL0     H 9272   6.565   2.326   2.908 -3.9099 -0.5998 -0.1093
   69MOL0     H 9273   6.385   2.218   3.025  2.2828  1.3160  0.7259
   69MOL0     H 9274   6.468   2.060   3.007 -3.8620 -0.3610  1.1776
   69MOL0     H 9275   6.261   2.092   2.621  0.1350  0.6432  0.9372
   69MOL0     H 9276   5.969   1.945   2.557 -1.8812  1.1368  3.1179
   69MOL0     H 9277   5.936   2.115   2.492 -0.3973  1.0603  0.9178
   69MOL0     H 9278   6.092   2.046   2.475 -1.1578  1.1196  0.5563
   69MOL0     H 9279   5.684   2.278   2.899 -0.0934 -0.5942 -0.5844
   69MOL0     H 9280   5.439   2.380   2.845 -0.1292 -0.0828 -1.1399
   69MOL0     H 9281   5.121   2.116   2.718 -0.2679  1.3349  0.0737
   69MOL0     H 9282   5.121   2.096   2.894  1.4202 -2.8955 -1.6345
   69MOL0     H 9283   4.989   2.303   2.926  1.5571  0.0682  0.0873
   69MOL0     H 9284   4.979   2.299   2.749  0.9073  0.9040  0.1941
   69MOL0     H 9285   4.887   2.109   2.971  1.7556  0.1412 -0.5547
   69MOL0     H 9286   4.895   2.046   2.807 -0.3713 -1.8946  1.8413
   69MOL0     H 9287   4.696   2.234   2.906  0.2535 -0.1295 -0.0138
   69MOL0     H 9288   4.731   2.206   2.737  0.0737 -0.4371 -1.3207
   69MOL0     H 9289   4.656   1.990   2.951 -1.3341 -0.7680  0.1937
   69MOL0     H 9290   4.684   1.952   2.782 -2.1378 -0.2218 -2.1010
   69MOL0     H 9291   4.478   2.138   2.904  0.0677  1.4740 -1.5115
   69MOL0     H 9292   4.483   2.126   2.726  1.4766  0.9754  0.5122
   69MOL0     H 9293   4.296   1.999   2.842 -1.3207 -2.0040 -1.5983
   69MOL0     H 9294   4.421   1.915   2.933 -0.6334 -0.2187  0.2696
   69MOL0     H 9295   4.317   1.787   2.738  3.7291 -2.0753  1.3809
   69MOL0     H 9296   4.469   1.827   2.676 -1.0186  1.2514 -1.4492
   69MOL0     H 9297   5.299   1.973   2.837 -0.5058 -0.6865  1.1300
   69MOL0     H 9298   5.530   1.901   2.857  2.8796  0.5910  2.3066
   69MOL0     H 9299   5.951   2.127   3.003  0.4860 -0.4751 -1.1062
   69MOL0     H 9300   6.199   2.151   3.040  0.0822  0.8253 -0.1250
   69MOL0     H 9301   7.958   1.359   2.430  0.5605 -2.0943  0.2892
   69MOL0     H 9302   8.168   1.289   2.295 -2.5530 -0.7868 -0.0670
   69MOL0     H 9303   8.561   1.080   2.408 -1.7602  1.8990  0.5667
   69MOL0     H 9304   8.735   0.956   2.273  2.8770 -1.0260  0.1771
   69MOL0     H 9305   8.965   0.941   2.219 -0.0911  2.7465  0.3436
   69MOL0     H 9306   8.849   0.875   2.116 -2.0159  2.4231  0.6240
   69MOL0     H 9307   9.028   0.924   1.921 -3.6003  0.8150  0.4203
   69MOL0     H 9308   9.055   0.795   2.043 -2.6109  0.2353  1.4068
   69MOL0     H 9309   9.196   0.931   2.179 -2.8815 -3.8657 -1.0084
   69MOL0     H 9310   9.166   1.086   2.102 -2.1239 -1.0445 -0.4700
   69MOL0     H 9311   9.261   0.986   1.888 -2.3866  0.3359  0.9622
   69MOL0     H 9312   9.325   0.860   1.997 -0.4554 -0.5741  0.3552
   69MOL0     H 9313   9.575   1.190   2.081 -1.0749  1.2201 -2.0360
   69MOL0     H 9314   8.835   1.330   2.073 -0.1968 -0.9135 -0.6977
   69MOL0     H 9315   8.668   1.439   2.197 -3.7012 -1.8042 -1.8910
   70MOL0     O 9316   9.012   5.881   0.544 -0.6710 -0.1865 -0.1569
   70MOL0     C 9317   8.995   5.907   0.426 -0.3059 -0.3486  0.3644
   70MOL0     O 9318   8.874   5.955   0.364 -0.1136 -0.4812  0.1555
   70MOL0     C 9319   8.765   5.969   0.444  0.1591  0.8069 -1.6868
   70MOL0     C 9320   8.714   5.853   0.516  1.1593 -1.1252 -0.1184
   70MOL0     C 9321   8.600   5.863   0.595 -0.6750 -0.7068  0.1976
   70MOL0     C 9322   8.541   5.993   0.610 -0.0370 -0.4982  0.5719
   70MOL0     O 9323   8.433   5.985   0.690  0.8919 -0.2087 -0.0999
   70MOL0     C 9324   8.365   6.101   0.733 -0.4713 -0.1034  0.8240
   70MOL0     C 9325   8.248   6.082   0.836 -0.7114  0.2137  0.1114
   70MOL0     C 9326   8.141   5.985   0.787 -0.1399  0.2751 -0.8949
   70MOL0     C 9327   8.038   5.973   0.898  0.0173  0.8038  0.5338
   70MOL0     C 9328   7.909   5.895   0.849  0.1708  0.0473  0.5808
   70MOL0     C 9329   7.789   5.910   0.934  0.3390 -0.0387 -0.2223
   70MOL0     C 9330   7.807   5.880   1.081  0.4219  0.6712 -0.6734
   70MOL0     C 9331   7.687   5.877   1.164 -0.0015 -0.6400  0.3974
   70MOL0     N 9332   7.583   5.781   1.140 -0.5209  0.1064 -0.4850
   70MOL0     C 9333   7.571   5.648   1.196 -0.3863  0.0746  0.3306
   70MOL0     C 9334   7.457   5.594   1.149 -0.6826  0.1952 -0.8913
   70MOL0     C 9335   7.391   5.465   1.187 -0.4118  1.2702 -0.2731
   70MOL0     C 9336   7.479   5.344   1.241  0.8819  0.2122 -0.4454
   70MOL0     C 9337   7.501   5.244   1.119 -0.3497  0.0996 -1.1781
   70MOL0     C 9338   7.567   5.114   1.169  0.4678 -0.3050  0.0720
   70MOL0     O 9339   7.472   5.049   1.257  0.2818  0.1179  0.6275
   70MOL0     C 9340   7.494   4.925   1.316  0.1532  0.1962  0.3141
   70MOL0     C 9341   7.614   4.842   1.287  0.0480 -0.1684  0.5342
   70MOL0     C 9342   7.641   4.718   1.335 -0.6540 -0.3946  0.5133
   70MOL0     C 9343   7.771   4.649   1.298  0.1486 -0.9740  0.0056
   70MOL0     C 9344   7.543   4.660   1.420  0.4887  0.4681 -0.2943
   70MOL0     C 9345   7.553   4.521   1.477  0.7066  0.6488  0.0196
   70MOL0     O 9346   7.676   4.478   1.494 -0.8334  0.7640 -0.2684
   70MOL0     C 9347   7.702   4.377   1.590  0.2638 -0.6208 -0.1208
   70MOL0     C 9348   7.663   4.403   1.727 -0.4685 -0.5230  0.0104
   70MOL0     C 9349   7.695   4.309   1.826 -0.3547 -0.0242 -0.0115
   70MOL0     C 9350   7.777   4.194   1.800  0.0658 -0.8671  0.0756
   70MOL0     O 9351   7.798   4.116   1.912  0.1139 -0.0332 -0.7203
   70MOL0     C 9352   7.933   4.060   1.912  0.1924 -0.0277  0.4431
   70MOL0     C 9353   7.951   3.962   2.029  0.1772 -0.6368  1.3248
   70MOL0     C 9354   7.872   3.829   2.015  0.6298  0.3398  0.0427
   70MOL0     C 9355   7.888   3.724   2.130 -0.0851 -0.1352 -0.3191
   70MOL0     C 9356   7.857   3.576   2.085  0.3209 -0.0740  1.0066
   70MOL0     C 9357   7.855   3.478   2.197 -0.1076  0.2068  0.0416
   70MOL0     C 9358   7.974   3.487   2.293 -0.2655  0.1253  0.0816
   70MOL0     C 9359   8.108   3.429   2.226  1.0830  0.0366  0.0829
   70MOL0    Cl 9360   8.251   3.413   2.339  0.0772  0.3565  0.2430
   70MOL0     C 9361   7.817   4.180   1.667 -0.6054  0.4933  0.0878
   70MOL0     C 9362   7.785   4.274   1.564 -0.1780  0.7098  0.3669
   70MOL0     O 9363   7.454   4.462   1.515  0.3208 -0.0742 -0.5119
   70MOL0     C 9364   7.430   4.743   1.463  0.2142  0.0808 -0.1132
   70MOL0     C 9365   7.409   4.869   1.408  0.0018  0.8569  0.3281
   70MOL0     N 9366   7.392   5.701   1.084  0.0835 -0.6067 -1.1127
   70MOL0     N 9367   7.470   5.802   1.060  0.3096  0.3674  0.1598
   70MOL0     C 9368   8.598   6.103   0.546  0.5681  0.0436  0.0173
   70MOL0     C 9369   8.696   6.083   0.459 -0.2324 -0.3720  0.1357
   70MOL0     C 9370   9.108   5.930   0.338  0.9149  0.7593 -0.1202
   70MOL0     C 9371   9.232   5.900   0.382  0.3454 -0.3346 -0.4070
   70MOL0     C 9372   9.343   5.932   0.305  0.1024  1.0345  0.7309
   70MOL0     C 9373   9.341   6.003   0.183  0.4458 -0.3948  0.8735
   70MOL0     O 9374   9.453   6.044   0.116  0.3865  0.1437 -0.3802
   70MOL0     C 9375   9.589   6.043   0.184  0.4156 -0.0961 -0.1210
   70MOL0     C 9376   9.602   6.159   0.295 -0.3453 -0.3227 -0.6294
   70MOL0     C 9377   9.739   6.146   0.369  0.3186  0.7299  1.0208
   70MOL0     C 9378   9.767   6.252   0.473  0.3452  0.7837  0.2525
   70MOL0     C 9379   9.689   6.242   0.595  0.6437 -0.2254 -0.7699
   70MOL0     C 9380   9.624   6.226   0.698  1.1751  0.0879  0.3148
   70MOL0     C 9381   9.214   6.032   0.134  0.1681  0.3725  1.0072
   70MOL0     C 9382   9.106   5.998   0.212 -0.8573  0.2486 -0.5651
   70MOL0     H 9383   8.761   5.761   0.482 -0.2322 -1.8324 -0.1867
   70MOL0     H 9384   8.554   5.784   0.653 -0.0115  0.6847  2.7932
   70MOL0     H 9385   8.445   6.167   0.768  2.1524 -2.1111 -0.9952
   70MOL0     H 9386   8.321   6.145   0.643  3.3646  1.6095 -0.4128
   70MOL0     H 9387   8.281   6.052   0.936 -2.4278 -0.0011  0.6469
   70MOL0     H 9388   8.208   6.183   0.842 -1.9917 -0.1958 -0.9905
   70MOL0     H 9389   8.103   6.007   0.686 -1.8358  3.1185  0.2439
   70MOL0     H 9390   8.195   5.890   0.784  0.4366  0.5610  0.1851
   70MOL0     H 9391   8.083   5.921   0.983  1.0458  0.1323 -0.4075
   70MOL0     H 9392   8.009   6.075   0.928 -1.2038  1.0159 -1.2238
   70MOL0     H 9393   7.885   5.930   0.748  2.0632  0.9347  0.3966
   70MOL0     H 9394   7.926   5.787   0.838 -0.7389  0.0030 -0.5044
   70MOL0     H 9395   7.757   6.013   0.917  2.7431  0.6360 -0.9107
   70MOL0     H 9396   7.717   5.834   0.900  0.3523 -0.3845  0.5005
   70MOL0     H 9397   7.848   5.781   1.102 -0.6210 -0.3415 -3.0964
   70MOL0     H 9398   7.862   5.963   1.128 -1.9532  0.7210  2.3203
   70MOL0     H 9399   7.641   5.975   1.178  0.4372 -0.5702  1.4215
   70MOL0     H 9400   7.727   5.854   1.263 -0.5237 -3.0574  0.1116
   70MOL0     H 9401   7.650   5.602   1.254  0.3915 -1.2016 -1.6221
   70MOL0     H 9402   7.309   5.486   1.257 -1.4038 -0.8193 -0.7452
   70MOL0     H 9403   7.334   5.432   1.100 -0.0693  1.2025 -0.4758
   70MOL0     H 9404   7.413   5.294   1.312 -0.6349 -0.5273 -2.2630
   70MOL0     H 9405   7.573   5.371   1.289  2.2074 -1.4625 -1.9541
   70MOL0     H 9406   7.579   5.301   1.067 -0.5637  3.9844  2.2819
   70MOL0     H 9407   7.408   5.230   1.064  0.1337 -0.3498 -1.9002
   70MOL0     H 9408   7.657   5.143   1.223 -0.8028  3.5075  0.4826
   70MOL0     H 9409   7.600   5.050   1.087 -2.5079 -3.0039  0.8048
   70MOL0     H 9410   7.680   4.894   1.217 -0.0614  0.0054  0.5594
   70MOL0     H 9411   7.833   4.709   1.231  0.8208 -2.3587 -0.6731
   70MOL0     H 9412   7.833   4.644   1.387 -1.4656 -1.0175  1.1762
   70MOL0     H 9413   7.763   4.555   1.242 -3.6979 -0.9108  0.1429
   70MOL0     H 9414   7.614   4.489   1.771 -2.0667 -1.9136  1.0324
   70MOL0     H 9415   7.666   4.339   1.927 -0.7073 -0.1507 -0.0730
   70MOL0     H 9416   7.955   4.011   1.817 -0.9839  0.3043 -0.0236
   70MOL0     H 9417   8.005   4.141   1.927 -1.6680  2.2384 -1.8935
   70MOL0     H 9418   8.058   3.942   2.034  1.0464  1.9668 -2.5199
   70MOL0     H 9419   7.913   4.010   2.120  1.1057  1.6430  0.5758
   70MOL0     H 9420   7.901   3.791   1.917  0.0646  2.3510 -0.9694
   70MOL0     H 9421   7.764   3.848   2.013  1.0005  3.3342  1.9935
   70MOL0     H 9422   7.995   3.723   2.153 -0.8011 -1.3936  3.9060
   70MOL0     H 9423   7.824   3.755   2.214  1.5972 -2.2015  1.8789
   70MOL0     H 9424   7.927   3.546   2.006  0.4604 -2.7925  2.0633
   70MOL0     H 9425   7.755   3.573   2.045  0.9143  0.6030 -0.6207
   70MOL0     H 9426   7.777   3.497   2.272  0.2022 -0.4782  0.5448
   70MOL0     H 9427   7.849   3.375   2.161 -1.8843 -0.3765  1.8007
   70MOL0     H 9428   7.945   3.434   2.384  0.8415 -1.3575 -0.3740
   70MOL0     H 9429   7.981   3.592   2.319 -2.1840  0.4004 -0.3544
   70MOL0     H 9430   8.138   3.496   2.145 -2.4152  1.7582 -0.0035
   70MOL0     H 9431   8.075   3.332   2.187 -0.2347 -0.0176  1.2373
   70MOL0     H 9432   7.873   4.088   1.652  1.5593  1.3931  2.0471
   70MOL0     H 9433   7.821   4.256   1.463  0.2681 -4.0670  1.1308
   70MOL0     H 9434   7.359   4.689   1.525  2.1659  0.5019  2.6700
   70MOL0     H 9435   7.319   4.917   1.445 -0.8313  0.2584 -0.8604
   70MOL0     H 9436   8.543   6.197   0.550 -0.6859 -0.4247 -2.9117
   70MOL0     H 9437   8.739   6.165   0.402 -0.4307  0.0131  0.5406
   70MOL0     H 9438   9.244   5.858   0.482 -0.2951 -0.0254 -0.1989
   70MOL0     H 9439   9.429   5.903   0.363  0.9864  1.2043 -0.4602
   70MOL0     H 9440   9.599   5.948   0.237 -2.8516 -0.3452  0.2864
   70MOL0     H 9441   9.666   6.042   0.107 -0.7211  3.2189 -1.5037
   70MOL0     H 9442   9.520   6.143   0.365 -2.2955 -2.4187 -3.1762
   70MOL0     H 9443   9.594   6.258   0.249 -0.7118  0.3890  0.9231
   70MOL0     H 9444   9.816   6.158   0.292  1.3314 -1.9724  1.5046
   70MOL0     H 9445   9.747   6.051   0.422  2.2323  0.5458  0.5102
   70MOL0     H 9446   9.744   6.347   0.424  1.0560  0.9255  0.1946
   70MOL0     H 9447   9.872   6.244   0.502  1.4518  0.9357 -3.2995
   70MOL0     H 9448   9.573   6.202   0.789  3.2316 -2.0225  1.0188
   70MOL0     H 9449   9.202   6.091   0.043  1.0827 -0.1333  0.5470
   70MOL0     H 9450   9.009   6.027   0.173 -1.9556 -2.8867 -0.4709
   71MOL0     O 9451   4.446  11.142   5.484 -1.3044  0.4148  0.0206
   71MOL0     C 9452   4.478  11.057   5.399  0.2072  0.1342 -0.2160
   71MOL0     O 9453   4.389  10.994   5.314  0.2123  0.5981  0.4718
   71MOL0     C 9454   4.256  11.013   5.332 -0.2718  0.5572  0.3368
   71MOL0     C 9455   4.178  11.021   5.216  0.0002  0.4235  0.5057
   71MOL0     C 9456   4.039  11.043   5.234  0.4091 -0.2556  1.2164
   71MOL0     C 9457   3.978  11.032   5.363 -0.1066  0.2871  0.1667
   71MOL0     O 9458   3.848  11.070   5.365 -0.8150  0.4841 -0.1187
   71MOL0     C 9459   3.754  11.025   5.462  0.3342 -0.1206  0.1577
   71MOL0     C 9460   3.607  11.035   5.413 -0.2991 -0.4004 -0.4936
   71MOL0     C 9461   3.526  10.933   5.493  0.1188  0.2407  0.1533
   71MOL0     C 9462   3.486  10.984   5.631 -0.7401 -0.5833  0.0345
   71MOL0     C 9463   3.348  10.931   5.686 -0.1158 -0.5916  0.2298
   71MOL0     C 9464   3.323  10.990   5.827 -0.7567 -0.3559  0.1194
   71MOL0     C 9465   3.205  10.926   5.895  0.8839  0.5243 -0.2486
   71MOL0     C 9466   3.177  10.977   6.037  0.0524  0.0820 -0.1542
   71MOL0     N 9467   3.047  11.036   6.034 -0.4220 -0.2980  0.4002
   71MOL0     C 9468   2.919  10.978   6.046 -0.4218  0.5698  0.1918
   71MOL0     C 9469   2.832  11.080   6.014  0.6577 -0.0337 -0.2593
   71MOL0     C 9470   2.684  11.080   6.041  0.4054  0.4399  0.7344
   71MOL0     C 9471   2.606  11.003   5.935  0.6022 -0.8781 -0.3108
   71MOL0     C 9472   2.459  11.010   5.974  0.2248  0.5290 -0.3078
   71MOL0     C 9473   2.366  10.971   5.858 -0.8133 -0.8057 -0.1034
   71MOL0     O 9474   2.235  10.977   5.918 -0.1181  0.5685 -0.1582
   71MOL0     C 9475   2.132  10.928   5.847 -0.1567 -0.0113  0.5231
   71MOL0     C 9476   2.004  10.970   5.884  0.3025  0.1085 -0.5748
   71MOL0     C 9477   1.894  10.910   5.822 -0.0834 -0.8081 -0.0335
   71MOL0     C 9478   1.759  10.983   5.847  0.0767 -0.1119 -0.4475
   71MOL0     C 9479   1.911  10.806   5.726 -0.2378 -0.8182  0.5279
   71MOL0     C 9480   1.787  10.740   5.671  0.3104 -0.4129 -1.1186
   71MOL0     O 9481   1.813  10.666   5.570  0.9253 -0.1883  0.2564
   71MOL0     C 9482   1.707  10.594   5.526  0.0020  0.0764 -0.1744
   71MOL0     C 9483   1.642  10.610   5.394  0.4164 -0.6329 -0.0439
   71MOL0     C 9484   1.535  10.535   5.356  0.4189 -0.4265 -0.6370
   71MOL0     C 9485   1.480  10.440   5.444  0.4694  0.3097 -0.4339
   71MOL0     O 9486   1.364  10.370   5.426  0.3032 -0.2670 -0.1968
   71MOL0     C 9487   1.297  10.377   5.301 -0.0602  0.0235 -0.6754
   71MOL0     C 9488   1.180  10.283   5.282  0.3738 -0.4642 -0.0263
   71MOL0     C 9489   1.051  10.317   5.350 -0.4594 -0.8918 -0.0939
   71MOL0     C 9490   0.938  10.202   5.324 -0.3873 -1.0474  0.0537
   71MOL0     C 9491   0.943  10.117   5.447 -0.0421 -0.2908 -0.0955
   71MOL0     C 9492   0.879   9.980   5.451  0.6721 -0.0589  0.0278
   71MOL0     C 9493   0.905   9.892   5.325 -0.9311 -0.5548 -0.8593
   71MOL0     C 9494   1.051   9.831   5.314  0.4472  0.5051  0.4923
   71MOL0    Cl 9495   1.124   9.780   5.475 -0.3148  0.2775  0.0395
   71MOL0     C 9496   1.541  10.413   5.561  0.2136  0.2585 -0.4529
   71MOL0     C 9497   1.659  10.480   5.603  0.3408 -0.1102 -0.9584
   71MOL0     O 9498   1.675  10.750   5.724 -0.5117 -0.5554  0.5564
   71MOL0     C 9499   2.041  10.777   5.677 -0.1891  0.7465  0.2371
   71MOL0     C 9500   2.144  10.836   5.737  0.2802  0.8445  0.2799
   71MOL0     N 9501   2.901  11.195   5.982 -0.1668  0.6760  0.1379
   71MOL0     N 9502   3.028  11.172   6.002 -0.0716 -0.5676 -0.0484
   71MOL0     C 9503   4.052  10.993   5.476 -0.6461 -0.1029 -0.4131
   71MOL0     C 9504   4.194  10.987   5.462 -0.3443 -0.1359  0.1421
   71MOL0     C 9505   4.618  11.012   5.391  0.3356  0.6961  0.3367
   71MOL0     C 9506   4.660  10.917   5.296  0.2954 -0.1829  0.7617
   71MOL0     C 9507   4.800  10.896   5.288  1.0515  0.3143  0.1838
   71MOL0     C 9508   4.887  10.941   5.382 -0.6664 -1.2444 -0.1732
   71MOL0     O 9509   5.018  10.888   5.376  0.4760 -0.1007  1.2774
   71MOL0     C 9510   5.126  10.951   5.452 -0.2149  0.7041  0.2106
   71MOL0     C 9511   5.257  10.882   5.426 -0.7895  0.8986  0.6068
   71MOL0     C 9512   5.299  10.894   5.283  0.5478  0.2808 -0.0096
   71MOL0     C 9513   5.421  10.812   5.267  0.0931 -0.7970  0.3361
   71MOL0     C 9514   5.474  10.830   5.130  0.1151 -0.3421 -0.2519
   71MOL0     C 9515   5.510  10.837   5.016 -0.1345 -1.1598  0.1445
   71MOL0     C 9516   4.847  11.046   5.470  0.7542 -0.2799  0.0733
   71MOL0     C 9517   4.711  11.060   5.482 -0.2912  0.2280 -0.7304
   71MOL0     H 9518   4.218  11.035   5.117 -1.3746  1.1114  0.0098
   71MOL0     H 9519   3.982  11.081   5.150  1.1650  0.2945  0.9399
   71MOL0     H 9520   3.778  10.923   5.497 -2.4288 -0.8890  0.0069
   71MOL0     H 9521   3.757  11.088   5.552  0.6202  2.1999 -1.4083
   71MOL0     H 9522   3.569  11.137   5.408  1.6529  0.4430  0.8338
   71MOL0     H 9523   3.623  11.002   5.309  2.4425 -2.6853  0.5139
   71MOL0     H 9524   3.428  10.919   5.447 -0.3601  2.8456  0.2153
   71MOL0     H 9525   3.575  10.835   5.482 -0.3636  0.1641 -1.6177
   71MOL0     H 9526   3.569  10.961   5.699  1.4765  1.2216 -1.8907
   71MOL0     H 9527   3.482  11.093   5.641  1.7038 -0.4373  0.1608
   71MOL0     H 9528   3.268  10.972   5.624 -0.2034 -3.1116 -1.4805
   71MOL0     H 9529   3.346  10.821   5.687  1.0288 -0.6243  0.6153
   71MOL0     H 9530   3.414  10.984   5.888  0.2147  1.1881 -1.1114
   71MOL0     H 9531   3.299  11.097   5.822  0.3063 -0.1001  0.1119
   71MOL0     H 9532   3.117  10.942   5.832  1.8000 -1.2120 -2.0622
   71MOL0     H 9533   3.235  10.822   5.907  1.6589  0.8606  0.9497
   71MOL0     H 9534   3.245  11.060   6.060  3.1376 -2.2610 -0.2026
   71MOL0     H 9535   3.187  10.906   6.119  1.2582  1.7988  1.2881
   71MOL0     H 9536   2.888  10.885   6.093 -0.1543  0.4893  0.2145
   71MOL0     H 9537   2.665  11.041   6.142  0.4330  1.0737  0.9916
   71MOL0     H 9538   2.650  11.184   6.045  1.1539  0.6675  1.4142
   71MOL0     H 9539   2.634  10.898   5.926  0.3580 -0.7885 -2.6939
   71MOL0     H 9540   2.614  11.059   5.842  0.7716 -0.1822  0.1128
   71MOL0     H 9541   2.437  11.116   5.995 -3.1547 -0.1022 -0.0502
   71MOL0     H 9542   2.443  10.939   6.056 -1.4408  0.6610 -0.4913
   71MOL0     H 9543   2.387  10.868   5.831  0.9795 -0.2247 -1.0711
   71MOL0     H 9544   2.382  11.030   5.767  1.4183 -1.3498 -0.1170
   71MOL0     H 9545   1.990  11.051   5.954 -1.0270 -0.8377  0.2938
   71MOL0     H 9546   1.776  11.084   5.885 -0.3725 -0.2096  0.0223
   71MOL0     H 9547   1.695  10.994   5.758  1.5010  0.6352 -1.4239
   71MOL0     H 9548   1.702  10.926   5.920  0.5740  1.8516  1.5886
   71MOL0     H 9549   1.679  10.695   5.337  2.9169 -0.0021  2.3235
   71MOL0     H 9550   1.490  10.545   5.258 -2.0828 -0.0306  0.4773
   71MOL0     H 9551   1.278  10.481   5.275 -1.5928  0.3739  1.5852
   71MOL0     H 9552   1.359  10.344   5.217 -0.3331  2.5801 -1.9747
   71MOL0     H 9553   1.152  10.274   5.176  0.1981 -2.0458  0.1267
   71MOL0     H 9554   1.218  10.185   5.314  0.4778  0.5017  3.1504
   71MOL0     H 9555   1.022  10.414   5.310  1.3406 -0.2031  0.1806
   71MOL0     H 9556   1.059  10.340   5.457  0.0012 -0.5642 -0.1990
   71MOL0     H 9557   0.844  10.256   5.312  0.1501 -0.6990 -3.7378
   71MOL0     H 9558   0.971  10.144   5.238 -0.1900 -2.3356  0.9718
   71MOL0     H 9559   0.905  10.169   5.535 -2.1528 -2.6232  0.4974
   71MOL0     H 9560   1.045  10.095   5.477  0.2664 -1.3614 -1.8002
   71MOL0     H 9561   0.910   9.926   5.541  0.8124 -3.0351 -1.6636
   71MOL0     H 9562   0.773  10.005   5.463  0.7851 -0.0935  1.2233
   71MOL0     H 9563   0.872   9.940   5.232  0.8011  1.2277 -0.6157
   71MOL0     H 9564   0.839   9.805   5.337  1.4982 -2.9753 -3.3623
   71MOL0     H 9565   1.112   9.910   5.270  0.9764  0.9592  1.9542
   71MOL0     H 9566   1.052   9.739   5.254 -1.9964  0.7784 -0.0908
   71MOL0     H 9567   1.502  10.340   5.632 -0.8428  0.4640 -0.7953
   71MOL0     H 9568   1.706  10.472   5.700 -2.5212  1.9445  0.7715
   71MOL0     H 9569   2.048  10.710   5.592 -2.3826 -0.0612  0.6335
   71MOL0     H 9570   2.244  10.806   5.706 -0.0106  0.5831 -0.4369
   71MOL0     H 9571   4.014  10.976   5.576  2.1524  1.4319  1.0065
   71MOL0     H 9572   4.258  10.952   5.542  0.9490  3.7171  0.9703
   71MOL0     H 9573   4.601  10.876   5.215  1.8442  0.1875 -0.6107
   71MOL0     H 9574   4.839  10.826   5.215  0.6751 -1.3703  1.5302
   71MOL0     H 9575   5.138  11.056   5.425 -2.0105  0.4110 -2.0543
   71MOL0     H 9576   5.112  10.945   5.560 -1.6543  0.0418  0.0141
   71MOL0     H 9577   5.243  10.778   5.454  2.9214  0.4068  1.1602
   71MOL0     H 9578   5.334  10.931   5.486 -1.4958  2.9630 -0.0824
   71MOL0     H 9579   5.320  10.998   5.255  2.0012  0.1667  0.6001
   71MOL0     H 9580   5.217  10.853   5.223  1.6653 -1.2078 -0.5951
   71MOL0     H 9581   5.402  10.705   5.276  1.1494 -0.9340  1.1361
   71MOL0     H 9582   5.490  10.842   5.347 -0.4335  1.9736 -0.1312
   71MOL0     H 9583   5.537  10.838   4.912  0.2370  0.3536  0.2414
   71MOL0     H 9584   4.908  11.094   5.546  0.3356 -0.6671  0.6737
   71MOL0     H 9585   4.678  11.124   5.563 -0.6191  0.0645 -0.7316
   72MOL0     O 9586   1.059   9.342   3.945 -0.0258  0.2590 -0.4736
   72MOL0     C 9587   1.077   9.331   3.821  0.4739  0.2838 -0.4188
   72MOL0     O 9588   0.991   9.305   3.725  0.6810  0.7677 -0.0020
   72MOL0     C 9589   0.860   9.277   3.763 -0.7758 -0.1710  0.0612
   72MOL0     C 9590   0.760   9.345   3.692  0.1713 -0.4847  0.3584
   72MOL0     C 9591   0.627   9.324   3.736 -0.0239 -0.1652  0.4502
   72MOL0     C 9592   0.595   9.225   3.829  0.1005 -0.0124 -0.1612
   72MOL0     O 9593   0.462   9.210   3.870  0.5348 -0.2301 -0.5669
   72MOL0     C 9594   0.362   9.177   3.764  0.0403  0.5490 -0.5606
   72MOL0     C 9595   0.309   9.033   3.788  0.2681 -0.4171 -1.2131
   72MOL0     C 9596   0.256   9.010   3.928 -0.8009  0.5666 -0.1532
   72MOL0     C 9597   0.249   8.866   3.983 -0.0143  0.0506  0.2805
   72MOL0     C 9598   0.161   8.862   4.113  0.6136  0.1441  0.1875
   72MOL0     C 9599   0.017   8.853   4.066  0.0115 -0.7479  1.0314
   72MOL0     C 9600  -0.083   8.842   4.188 -0.4155 -0.3133  0.3297
   72MOL0     C 9601  -0.082   8.965   4.278  0.5251 -0.2351 -1.3421
   72MOL0     N 9602  -0.169   8.949   4.392  0.0982  0.2529  0.7313
   72MOL0     C 9603  -0.294   9.010   4.391  0.3654  0.6653 -0.5835
   72MOL0     C 9604  -0.342   8.979   4.513  0.5585 -0.3095  0.1539
   72MOL0     C 9605  -0.473   9.017   4.582  1.1637 -0.3741 -0.3836
   72MOL0     C 9606  -0.566   8.900   4.576 -0.1745  1.1581  0.2893
   72MOL0     C 9607  -0.706   8.946   4.559 -0.7129  0.3139  0.0933
   72MOL0     C 9608  -0.790   8.822   4.574  0.8444 -0.4665  0.1836
   72MOL0     O 9609  -0.922   8.865   4.544  0.5186 -0.5744  0.0348
   72MOL0     C 9610  -1.033   8.795   4.587 -0.2637 -0.2919  1.0466
   72MOL0     C 9611  -1.038   8.676   4.658  0.4775  0.2764 -0.3458
   72MOL0     C 9612  -1.158   8.609   4.667  0.2061  0.6151 -0.1504
   72MOL0     C 9613  -1.161   8.471   4.721 -0.1893 -0.4179 -0.6155
   72MOL0     C 9614  -1.279   8.669   4.629 -0.3181 -0.6325  0.0500
   72MOL0     C 9615  -1.413   8.616   4.660 -0.8275  0.3619  0.4504
   72MOL0     O 9616  -1.438   8.492   4.617  0.0079  0.5724 -0.0847
   72MOL0     C 9617  -1.570   8.450   4.610 -0.2370  0.7653 -0.0399
   72MOL0     C 9618  -1.638   8.454   4.495 -0.5915 -0.3811  0.2577
   72MOL0     C 9619  -1.775   8.438   4.489  0.4699  0.0419  0.4546
   72MOL0     C 9620  -1.859   8.432   4.602 -0.9881 -0.4765 -0.3959
   72MOL0     O 9621  -2.002   8.409   4.605 -0.4178  0.2396 -0.4318
   72MOL0     C 9622  -2.069   8.409   4.487  0.0663 -0.4503  0.1900
   72MOL0     C 9623  -2.215   8.415   4.520  0.0726  0.0582 -0.4710
   72MOL0     C 9624  -2.270   8.293   4.605 -0.1782  0.9217  0.0816
   72MOL0     C 9625  -2.415   8.307   4.639  0.2481  0.4073  0.1562
   72MOL0     C 9626  -2.472   8.193   4.718 -0.4599 -0.6190  0.4124
   72MOL0     C 9627  -2.418   8.199   4.858  0.0482  0.3576  0.4090
   72MOL0     C 9628  -2.406   8.054   4.916  0.4257 -0.5890  0.0811
   72MOL0     C 9629  -2.378   8.054   5.068  0.3984  0.3504 -0.6138
   72MOL0    Cl 9630  -2.232   8.146   5.102  0.3348  0.1205 -0.1851
   72MOL0     C 9631  -1.784   8.405   4.720 -0.6822  0.3285  0.4402
   72MOL0     C 9632  -1.646   8.413   4.725 -0.7575  0.1417  0.5623
   72MOL0     O 9633  -1.491   8.682   4.729  0.5655  0.1984  0.3326
   72MOL0     C 9634  -1.274   8.792   4.561 -0.4373  0.0196 -0.1454
   72MOL0     C 9635  -1.151   8.850   4.538 -0.0351  0.1292 -0.8202
   72MOL0     N 9636  -0.254   8.891   4.576 -0.2846 -0.4566 -0.7839
   72MOL0     N 9637  -0.147   8.886   4.507 -0.7202 -0.1575  0.5739
   72MOL0     C 9638   0.697   9.157   3.887  0.2521 -0.1079 -1.0558
   72MOL0     C 9639   0.829   9.186   3.865  0.0054 -0.0374 -0.2286
   72MOL0     C 9640   1.211   9.352   3.761  0.6185 -0.1250 -0.0883
   72MOL0     C 9641   1.240   9.359   3.626 -0.6761  0.0784 -0.0022
   72MOL0     C 9642   1.371   9.361   3.575 -0.1115 -0.2702  0.2360
   72MOL0     C 9643   1.481   9.353   3.665  0.8010  1.0178  0.7359
   72MOL0     O 9644   1.608   9.335   3.610  1.0798  0.2955  0.4682
   72MOL0     C 9645   1.717   9.325   3.699  0.0282 -0.8545 -0.2941
   72MOL0     C 9646   1.848   9.301   3.625  0.6169  0.8584  0.5384
   72MOL0     C 9647   1.849   9.165   3.557 -0.6416 -0.0814  0.4128
   72MOL0     C 9648   1.988   9.125   3.509 -0.4865 -0.9089 -0.3634
   72MOL0     C 9649   2.042   9.210   3.410 -0.8341 -0.6352  0.0032
   72MOL0     C 9650   2.113   9.286   3.345  0.2335  0.1868 -0.3394
   72MOL0     C 9651   1.451   9.367   3.801 -0.4539 -0.1811  0.1858
   72MOL0     C 9652   1.317   9.360   3.848  0.5368 -0.6865  0.2565
   72MOL0     H 9653   0.792   9.423   3.623  2.7134 -1.0586  0.8120
   72MOL0     H 9654   0.547   9.382   3.692  0.9293  1.1542  0.4097
   72MOL0     H 9655   0.276   9.242   3.784 -1.5257 -1.4037 -0.6080
   72MOL0     H 9656   0.398   9.182   3.661 -2.9979  0.5824 -1.7281
   72MOL0     H 9657   0.231   9.003   3.716 -0.5214  0.7847 -0.8901
   72MOL0     H 9658   0.392   8.967   3.763 -0.4201 -1.5385 -0.6017
   72MOL0     H 9659   0.322   9.071   3.991 -1.8051  2.0225 -0.4906
   72MOL0     H 9660   0.158   9.058   3.926 -0.3184  1.6871  1.2750
   72MOL0     H 9661   0.212   8.796   3.908 -1.1316  0.3959  0.5045
   72MOL0     H 9662   0.346   8.825   4.015 -0.3420 -1.5647 -0.7041
   72MOL0     H 9663   0.169   8.765   4.162  0.9083  0.8609  1.6286
   72MOL0     H 9664   0.182   8.946   4.181  2.1447  0.0564 -0.1505
   72MOL0     H 9665   0.010   8.951   4.018  2.8222  0.3517  2.6581
   72MOL0     H 9666   0.002   8.771   3.995  0.9250 -0.9625  1.0749
   72MOL0     H 9667  -0.182   8.831   4.143  0.9042  0.3449 -3.0845
   72MOL0     H 9668  -0.058   8.751   4.244  1.1166  1.5822  2.9650
   72MOL0     H 9669  -0.098   9.056   4.220 -0.3292  0.5730  0.0814
   72MOL0     H 9670   0.018   8.985   4.317  0.4661  0.0122 -1.3197
   72MOL0     H 9671  -0.353   9.065   4.318  0.2557 -1.4030 -2.1498
   72MOL0     H 9672  -0.456   9.043   4.687 -1.0832  2.6387 -0.5866
   72MOL0     H 9673  -0.521   9.108   4.543 -2.2755 -0.7383  2.4975
   72MOL0     H 9674  -0.573   8.848   4.672 -0.0271 -0.7978 -0.7146
   72MOL0     H 9675  -0.545   8.821   4.503  0.8288  0.5407  1.2137
   72MOL0     H 9676  -0.716   8.991   4.460 -0.5011  0.9625  0.3634
   72MOL0     H 9677  -0.739   9.012   4.639  2.6763  1.4125  0.7473
   72MOL0     H 9678  -0.776   8.790   4.678 -0.1266 -1.3836  0.0464
   72MOL0     H 9679  -0.758   8.737   4.513  1.0256  0.0638 -0.4743
   72MOL0     H 9680  -0.944   8.635   4.693  0.1266 -0.5700 -0.3710
   72MOL0     H 9681  -1.238   8.454   4.796 -0.6500  1.9375 -0.4652
   72MOL0     H 9682  -1.179   8.393   4.646  2.9713 -0.2100 -1.7459
   72MOL0     H 9683  -1.060   8.455   4.761 -0.3256  1.4081  0.5778
   72MOL0     H 9684  -1.586   8.463   4.400 -0.9024 -0.4205  0.0800
   72MOL0     H 9685  -1.817   8.448   4.389  0.4818  2.7482  0.6604
   72MOL0     H 9686  -2.043   8.492   4.420  1.3423 -1.2493 -0.3507
   72MOL0     H 9687  -2.039   8.321   4.428 -2.1717 -1.8685  1.0494
   72MOL0     H 9688  -2.226   8.509   4.577 -1.0145 -0.6215  0.4799
   72MOL0     H 9689  -2.276   8.418   4.430  0.3709 -1.3931 -0.7409
   72MOL0     H 9690  -2.212   8.283   4.698  2.6007  3.1944 -1.2310
   72MOL0     H 9691  -2.259   8.200   4.548 -2.3698  0.4202  0.3977
   72MOL0     H 9692  -2.436   8.402   4.688 -3.1438  0.2391 -0.7514
   72MOL0     H 9693  -2.471   8.301   4.545  2.0688 -1.8334 -0.8916
   72MOL0     H 9694  -2.436   8.105   4.663  2.8203  1.0353 -0.3418
   72MOL0     H 9695  -2.581   8.194   4.716 -0.5552  2.6071 -2.7388
   72MOL0     H 9696  -2.329   8.262   4.860 -0.7685  1.8954 -3.3139
   72MOL0     H 9697  -2.492   8.247   4.923 -0.8828  0.1411 -0.4631
   72MOL0     H 9698  -2.316   8.007   4.875  1.4425  0.7134  0.7378
   72MOL0     H 9699  -2.495   7.996   4.889 -1.3064  1.1155  1.7625
   72MOL0     H 9700  -2.376   7.956   5.116 -1.0000 -0.3906 -1.9835
   72MOL0     H 9701  -2.465   8.102   5.114 -0.2554 -0.3863 -1.0597
   72MOL0     H 9702  -1.839   8.372   4.807  1.7174  0.0592  1.9600
   72MOL0     H 9703  -1.611   8.405   4.827 -2.6049  2.7679  1.4868
   72MOL0     H 9704  -1.361   8.846   4.527  0.6672  2.7012  0.9092
   72MOL0     H 9705  -1.133   8.940   4.481  1.2951  0.9327  0.7877
   72MOL0     H 9706   0.672   9.079   3.958  2.3892  0.4112  0.3813
   72MOL0     H 9707   0.908   9.136   3.919  1.2873  0.3850 -1.6524
   72MOL0     H 9708   1.157   9.349   3.557 -0.4375  0.2446 -0.3149
   72MOL0     H 9709   1.394   9.365   3.469  1.0023  2.4715  0.5019
   72MOL0     H 9710   1.724   9.410   3.767  0.9992 -0.7273 -0.5415
   72MOL0     H 9711   1.715   9.231   3.755 -1.3041 -1.6231 -1.5818
   72MOL0     H 9712   1.934   9.301   3.693  4.6812 -1.7349 -4.0076
   72MOL0     H 9713   1.867   9.382   3.554  1.4755 -0.0986 -0.3552
   72MOL0     H 9714   1.782   9.169   3.470 -0.3327 -1.2983  0.0950
   72MOL0     H 9715   1.805   9.093   3.627 -0.7260  0.8513  1.3378
   72MOL0     H 9716   1.988   9.027   3.460  3.9219 -0.2719 -2.0435
   72MOL0     H 9717   2.057   9.128   3.594 -1.8938  1.1289  0.8023
   72MOL0     H 9718   2.141   9.364   3.277 -2.0156  0.5893 -0.9140
   72MOL0     H 9719   1.536   9.388   3.865  0.1581 -1.0506 -0.3086
   72MOL0     H 9720   1.282   9.369   3.950  2.0466 -0.1752  0.7630
   73MOL0     O 9721   1.862  10.061   2.060 -1.0285 -0.1480 -0.3375
   73MOL0     C 9722   1.918   9.954   2.049 -0.2662 -0.5023 -0.6977
   73MOL0     O 9723   1.860   9.841   2.015  0.6469 -0.7158  0.2459
   73MOL0     C 9724   1.732   9.857   1.958  0.5039  0.3271  0.2815
   73MOL0     C 9725   1.626   9.763   1.992 -0.1681 -0.7286 -1.2370
   73MOL0     C 9726   1.498   9.772   1.944 -0.1690 -0.2879 -0.2704
   73MOL0     C 9727   1.471   9.865   1.840  0.3325  0.3041 -0.7073
   73MOL0     O 9728   1.350   9.855   1.783  0.4941  0.5614  0.4414
   73MOL0     C 9729   1.306   9.942   1.680 -0.4260  0.6768  1.2325
   73MOL0     C 9730   1.195   9.870   1.596 -0.4626  0.0330 -0.5576
   73MOL0     C 9731   1.080   9.827   1.691 -0.2318 -0.8405  0.0656
   73MOL0     C 9732   0.987   9.952   1.731  0.1740  0.6001 -0.6636
   73MOL0     C 9733   0.847   9.912   1.768  0.3033 -0.2344 -0.3245
   73MOL0     C 9734   0.818   9.796   1.856  0.0966  0.0741  0.0442
   73MOL0     C 9735   0.682   9.727   1.820 -0.3663  0.6289  0.4352
   73MOL0     C 9736   0.671   9.607   1.928  0.7353 -0.2639  0.8374
   73MOL0     N 9737   0.759   9.489   1.907 -0.0345 -0.4205 -0.1794
   73MOL0     C 9738   0.775   9.439   1.776 -0.1855  0.3036  0.0605
   73MOL0     C 9739   0.860   9.330   1.797  0.4769 -0.3911  0.0030
   73MOL0     C 9740   0.925   9.233   1.692 -0.1527 -0.4147  0.4267
   73MOL0     C 9741   0.845   9.102   1.686 -0.6437  0.6692  0.0232
   73MOL0     C 9742   0.927   8.993   1.619  0.3376 -0.5371 -0.3118
   73MOL0     C 9743   0.827   8.878   1.577 -0.0209 -0.8220 -0.6516
   73MOL0     O 9744   0.786   8.805   1.692 -0.4621 -0.3476 -0.6450
   73MOL0     C 9745   0.706   8.697   1.681 -0.1292  0.5720  0.4358
   73MOL0     C 9746   0.721   8.594   1.768 -0.4014 -0.0485 -0.1704
   73MOL0     C 9747   0.645   8.472   1.767  1.5227  0.3921 -0.1725
   73MOL0     C 9748   0.658   8.370   1.877  0.7299 -0.4514 -0.4921
   73MOL0     C 9749   0.550   8.470   1.660  0.0433  0.2799 -0.2065
   73MOL0     C 9750   0.457   8.356   1.646 -0.2820  0.2615  0.0226
   73MOL0     O 9751   0.359   8.372   1.555  0.1224  0.1329 -0.9003
   73MOL0     C 9752   0.262   8.271   1.545 -0.0717  0.4213 -1.2568
   73MOL0     C 9753   0.219   8.235   1.411  0.2725  0.4600  0.3019
   73MOL0     C 9754   0.125   8.135   1.397  0.1940  0.3320  0.5580
   73MOL0     C 9755   0.066   8.060   1.503 -0.1819  0.1957  0.4113
   73MOL0     O 9756  -0.030   7.961   1.491  0.4341 -0.6775  0.3195
   73MOL0     C 9757  -0.064   7.935   1.348 -0.3242 -0.5949 -0.4489
   73MOL0     C 9758  -0.173   7.837   1.360  0.0406  0.2510 -0.1505
   73MOL0     C 9759  -0.298   7.894   1.439  0.0639 -0.5381  0.8069
   73MOL0     C 9760  -0.399   7.792   1.476 -0.7477  0.5758 -0.3151
   73MOL0     C 9761  -0.542   7.845   1.448  0.5576  0.3295  0.3382
   73MOL0     C 9762  -0.640   7.751   1.511  0.9329  0.5747  0.8444
   73MOL0     C 9763  -0.781   7.821   1.505 -0.8054 -0.1836 -0.5914
   73MOL0     C 9764  -0.889   7.722   1.503  0.2970  0.7042 -0.8345
   73MOL0    Cl 9765  -1.037   7.800   1.452  0.5390 -0.3088 -0.0573
   73MOL0     C 9766   0.107   8.095   1.629 -0.5739 -0.3642 -0.8857
   73MOL0     C 9767   0.201   8.207   1.654  1.1435 -0.2051  0.9692
   73MOL0     O 9768   0.488   8.249   1.696 -0.4551  1.1326  0.4034
   73MOL0     C 9769   0.535   8.576   1.566 -0.4165 -0.3911 -0.2510
   73MOL0     C 9770   0.609   8.695   1.579  0.1631  1.2944  0.3130
   73MOL0     N 9771   0.874   9.308   1.936 -0.3124  1.3632 -0.1924
   73MOL0     N 9772   0.811   9.402   1.998 -0.0619  0.2596  0.5433
   73MOL0     C 9773   1.566   9.956   1.812 -0.6342  0.0894  0.1020
   73MOL0     C 9774   1.699   9.959   1.867  0.7948  0.0855  0.3763
   73MOL0     C 9775   2.064   9.944   2.054 -0.4177  0.3963 -0.4916
   73MOL0     C 9776   2.142  10.048   2.110  0.6069 -0.7875 -0.7347
   73MOL0     C 9777   2.286  10.034   2.130  0.6279  0.3090  0.4079
   73MOL0     C 9778   2.345   9.914   2.126 -0.2114 -0.2283  0.9264
   73MOL0     O 9779   2.468   9.881   2.168 -0.8527  0.0861 -0.8167
   73MOL0     C 9780   2.557   9.976   2.240  0.4121 -0.3853 -0.8348
   73MOL0     C 9781   2.677   9.914   2.298  0.3528 -0.3917  0.2287
   73MOL0     C 9782   2.775   9.884   2.181 -0.3358  0.5338 -0.2667
   73MOL0     C 9783   2.919   9.852   2.240  0.1316  0.0921 -0.3063
   73MOL0     C 9784   2.916   9.723   2.302  0.1676 -0.0963 -0.2526
   73MOL0     C 9785   2.908   9.608   2.354 -0.0411 -0.1361 -0.7764
   73MOL0     C 9786   2.273   9.812   2.078 -0.6172 -0.3513  0.8191
   73MOL0     C 9787   2.143   9.819   2.033  0.3935 -0.5442 -0.2361
   73MOL0     H 9788   1.651   9.679   2.056 -1.8056 -0.4372 -0.1511
   73MOL0     H 9789   1.421   9.702   1.976 -0.8194  1.0535  1.3137
   73MOL0     H 9790   1.280  10.039   1.723  0.5884  1.3505  0.3811
   73MOL0     H 9791   1.387   9.952   1.607 -1.0944 -0.3065  0.3225
   73MOL0     H 9792   1.159   9.934   1.515  0.4225  1.7869  0.3677
   73MOL0     H 9793   1.239   9.777   1.560  0.8205  0.1587  0.6061
   73MOL0     H 9794   1.024   9.756   1.630  0.3761 -0.1124 -1.3918
   73MOL0     H 9795   1.118   9.782   1.783  0.3780 -1.7052 -0.5971
   73MOL0     H 9796   1.026  10.003   1.819  3.4323  0.8023 -2.0829
   73MOL0     H 9797   0.995  10.023   1.648 -0.3775  2.1377  0.5517
   73MOL0     H 9798   0.784   9.996   1.798 -0.3789 -1.8955  3.4104
   73MOL0     H 9799   0.801   9.885   1.673  0.8269  1.8357 -1.2349
   73MOL0     H 9800   0.881   9.710   1.829 -3.2829 -2.4945 -0.3920
   73MOL0     H 9801   0.831   9.816   1.963 -2.1069 -1.1219  0.5963
   73MOL0     H 9802   0.599   9.798   1.827  0.6489  2.0282 -0.9865
   73MOL0     H 9803   0.686   9.693   1.716  1.2161  1.2413  0.2734
   73MOL0     H 9804   0.570   9.569   1.946  0.8213 -1.3925 -0.9092
   73MOL0     H 9805   0.704   9.646   2.025  1.5435 -0.4458  0.6418
   73MOL0     H 9806   0.733   9.476   1.683 -1.8133 -3.8721 -1.0490
   73MOL0     H 9807   0.910   9.283   1.596 -3.2308 -0.3904  0.7974
   73MOL0     H 9808   1.030   9.209   1.706  0.1834  0.7043 -0.0656
   73MOL0     H 9809   0.751   9.113   1.631 -0.3648 -0.7900 -0.7941
   73MOL0     H 9810   0.824   9.057   1.783  0.6181 -1.1337 -0.4930
   73MOL0     H 9811   1.019   8.972   1.673  0.3852  1.7896  0.6186
   73MOL0     H 9812   0.972   9.027   1.526  3.8637 -2.5460  0.4748
   73MOL0     H 9813   0.883   8.811   1.511  4.8264  0.1795  1.9658
   73MOL0     H 9814   0.747   8.924   1.518 -2.9550 -0.4850  3.2126
   73MOL0     H 9815   0.802   8.600   1.840  1.0907 -1.2049 -1.6617
   73MOL0     H 9816   0.560   8.366   1.926  0.5700  0.7368 -0.6935
   73MOL0     H 9817   0.688   8.269   1.846  0.7259 -1.2656  1.9298
   73MOL0     H 9818   0.729   8.387   1.958  0.1613 -2.6699  0.5669
   73MOL0     H 9819   0.263   8.287   1.327 -1.0324  6.0707  2.6010
   73MOL0     H 9820   0.100   8.106   1.295 -1.8113  0.4057  0.9760
   73MOL0     H 9821  -0.106   8.024   1.300  1.1166  0.4991  0.2359
   73MOL0     H 9822   0.021   7.896   1.290  0.5031 -1.3274  1.2024
   73MOL0     H 9823  -0.201   7.804   1.259  1.6382  2.0078 -1.2412
   73MOL0     H 9824  -0.143   7.750   1.419 -2.0803  0.7360  1.8165
   73MOL0     H 9825  -0.343   7.955   1.360 -0.4150 -0.6731  0.9722
   73MOL0     H 9826  -0.268   7.968   1.514  0.4535  0.4810 -0.3192
   73MOL0     H 9827  -0.390   7.716   1.397 -1.6125 -0.2681  0.3770
   73MOL0     H 9828  -0.385   7.756   1.578 -1.2455 -0.5536 -0.6296
   73MOL0     H 9829  -0.574   7.837   1.343 -1.4916  0.7989  0.8776
   73MOL0     H 9830  -0.558   7.945   1.489  1.5368  1.4823 -1.9271
   73MOL0     H 9831  -0.643   7.650   1.470  3.3643  0.5056  0.6874
   73MOL0     H 9832  -0.619   7.741   1.618 -0.5676 -1.4559  1.0123
   73MOL0     H 9833  -0.796   7.883   1.415 -2.0300 -0.1998 -0.4245
   73MOL0     H 9834  -0.802   7.891   1.586  0.6097 -3.4802  2.9067
   73MOL0     H 9835  -0.905   7.675   1.600 -2.9599 -2.3186 -2.5681
   73MOL0     H 9836  -0.860   7.642   1.435  0.7718  1.1976 -1.2177
   73MOL0     H 9837   0.067   8.041   1.714 -0.5842 -1.3533 -1.5058
   73MOL0     H 9838   0.200   8.241   1.757 -1.1636 -0.8341  1.2178
   73MOL0     H 9839   0.460   8.567   1.488 -0.1158 -1.0645 -0.4719
   73MOL0     H 9840   0.586   8.766   1.500  2.0340 -1.4722 -2.9827
   73MOL0     H 9841   1.549  10.035   1.739  1.4605 -0.6962 -1.3404
   73MOL0     H 9842   1.776  10.031   1.841  1.2852 -0.2074  0.9853
   73MOL0     H 9843   2.107  10.150   2.122  0.3051 -0.6819 -2.2613
   73MOL0     H 9844   2.338  10.120   2.170  2.0524 -0.7864  0.9898
   73MOL0     H 9845   2.586  10.064   2.182  4.2945 -0.1517  1.1173
   73MOL0     H 9846   2.501  10.011   2.328  3.9028 -0.3594  1.6063
   73MOL0     H 9847   2.646   9.819   2.345 -0.5667 -0.6251 -0.8212
   73MOL0     H 9848   2.726   9.986   2.364 -0.9892  2.3919 -1.6188
   73MOL0     H 9849   2.789   9.961   2.105 -2.0385  0.0587 -1.1139
   73MOL0     H 9850   2.729   9.804   2.121 -0.7348  0.3011  0.3434
   73MOL0     H 9851   2.945   9.929   2.313 -1.2386  0.9934 -0.7242
   73MOL0     H 9852   2.994   9.861   2.161  0.3708  1.0505  0.0208
   73MOL0     H 9853   2.920   9.514   2.404 -0.0186  1.1065  1.7112
   73MOL0     H 9854   2.319   9.714   2.073 -3.0964 -1.7118  2.6221
   73MOL0     H 9855   2.096   9.724   2.008  1.8350 -1.9490  1.9674
   74MOL0     O 9856  11.296  11.270   9.446  0.6790 -0.0646 -0.0487
   74MOL0     C 9857  11.262  11.260   9.328 -0.8938 -0.0650  0.2791
   74MOL0     O 9858  11.189  11.353   9.249  0.5111 -0.0650 -0.4617
   74MOL0     C 9859  11.095  11.432   9.304 -1.1303 -1.3017 -0.0136
   74MOL0     C 9860  10.998  11.380   9.394 -0.2137 -0.0683  1.0385
   74MOL0     C 9861  10.909  11.462   9.463  0.1400  0.1077  0.2664
   74MOL0     C 9862  10.904  11.594   9.426 -0.0463 -0.2309 -0.1632
   74MOL0     O 9863  10.802  11.674   9.468 -0.6975 -0.6376  0.2027
   74MOL0     C 9864  10.765  11.670   9.610  0.1271  0.3153  0.8669
   74MOL0     C 9865  10.659  11.773   9.641 -0.2055  0.1958 -0.3942
   74MOL0     C 9866  10.609  11.762   9.786  0.6009  0.1399  0.0318
   74MOL0     C 9867  10.502  11.866   9.822 -0.1489  0.4892 -0.2352
   74MOL0     C 9868  10.456  11.867   9.971  0.3803  0.2709  0.0639
   74MOL0     C 9869  10.377  11.997  10.003 -0.2810  0.1577 -0.8082
   74MOL0     C 9870  10.364  12.017  10.156  0.1368  0.5675  0.3418
   74MOL0     C 9871  10.259  12.111  10.214 -1.1224 -0.7546  0.4378
   74MOL0     N 9872  10.278  12.145  10.348  0.1331 -0.0702 -0.4773
   74MOL0     C 9873  10.300  12.043  10.442 -0.3569 -0.6605  1.1073
   74MOL0     C 9874  10.288  12.097  10.562 -0.9319 -0.6490 -0.4762
   74MOL0     C 9875  10.294  12.022  10.693 -0.7090 -0.1790  1.0733
   74MOL0     C 9876  10.210  12.100  10.800 -0.8679  0.8893 -0.2242
   74MOL0     C 9877  10.064  12.133  10.758 -0.8733 -0.2137 -0.1498
   74MOL0     C 9878   9.986  12.213  10.867 -0.2449  0.4475 -0.2690
   74MOL0     O 9879   9.850  12.205  10.823 -0.0700  0.7906 -0.2617
   74MOL0     C 9880   9.776  12.319  10.854  0.7764 -0.3298 -0.9540
   74MOL0     C 9881   9.809  12.404  10.965  0.7014  0.2879  0.0651
   74MOL0     C 9882   9.753  12.524  10.992 -0.4018 -0.5904  0.0532
   74MOL0     C 9883   9.779  12.586  11.126 -0.2116  0.1543 -0.0125
   74MOL0     C 9884   9.630  12.553  10.922  0.3695 -0.1019 -0.0668
   74MOL0     C 9885   9.550  12.675  10.952  0.2027  0.2078  0.3013
   74MOL0     O 9886   9.415  12.666  10.936 -0.2269  0.9210 -0.8812
   74MOL0     C 9887   9.331  12.766  10.951 -0.9303 -0.5960 -1.0986
   74MOL0     C 9888   9.243  12.783  10.842 -0.2976 -0.4985 -0.1488
   74MOL0     C 9889   9.156  12.892  10.846 -0.5660 -0.4069  0.4035
   74MOL0     C 9890   9.138  12.974  10.964 -0.4114  0.6867  0.3469
   74MOL0     O 9891   9.047  13.081  10.950  0.4419 -0.1234 -0.3614
   74MOL0     C 9892   8.996  13.128  11.074 -0.3713 -0.1862 -0.3633
   74MOL0     C 9893   8.888  13.234  11.062  0.1591  0.0007 -0.5569
   74MOL0     C 9894   8.907  13.336  10.949 -0.0442 -0.6256 -0.8144
   74MOL0     C 9895   8.779  13.406  10.918  0.3717 -0.5572  0.3474
   74MOL0     C 9896   8.819  13.546  10.869 -0.2002  0.5016 -0.3394
   74MOL0     C 9897   8.708  13.617  10.804  0.4153 -0.5099  0.2743
   74MOL0     C 9898   8.597  13.658  10.905 -0.9768  0.6362  0.9310
   74MOL0     C 9899   8.483  13.725  10.831 -0.9535 -0.4686  0.3254
   74MOL0    Cl 9900   8.364  13.779  10.955 -0.1897 -0.1066  0.0061
   74MOL0     C 9901   9.226  12.957  11.073  0.1617  0.1434 -0.1967
   74MOL0     C 9902   9.321  12.849  11.071 -0.2895  0.5849  0.2264
   74MOL0     O 9903   9.611  12.782  10.957 -0.8728 -0.0939 -0.1670
   74MOL0     C 9904   9.583  12.459  10.822 -0.3121 -0.0244 -1.0031
   74MOL0     C 9905   9.654  12.352  10.787 -0.1077 -0.3502 -0.3563
   74MOL0     N 9906  10.280  12.238  10.550  0.0216  0.2100  0.4951
   74MOL0     N 9907  10.261  12.266  10.415 -0.8820  0.0324 -0.8741
   74MOL0     C 9908  10.992  11.643   9.325  0.5686 -0.3807  0.2806
   74MOL0     C 9909  11.081  11.564   9.268 -0.0874  0.2279  1.1094
   74MOL0     C 9910  11.284  11.128   9.257 -0.1929  0.8823  0.3290
   74MOL0     C 9911  11.365  11.030   9.320  0.2297 -1.0495 -1.1781
   74MOL0     C 9912  11.395  10.911   9.256 -0.3601 -0.9977  0.3432
   74MOL0     C 9913  11.344  10.879   9.127 -0.4857 -0.8038 -0.0856
   74MOL0     O 9914  11.361  10.757   9.056  0.2689 -0.2728 -0.3518
   74MOL0     C 9915  11.459  10.662   9.103 -0.3945 -0.3235  0.5369
   74MOL0     C 9916  11.602  10.705   9.060  0.5550 -0.2624 -0.6132
   74MOL0     C 9917  11.628  10.718   8.905  0.2929  0.3389  0.0444
   74MOL0     C 9918  11.764  10.778   8.877  0.2412  0.1405  0.1860
   74MOL0     C 9919  11.869  10.687   8.930  0.0984 -0.5502 -0.0149
   74MOL0     C 9920  11.960  10.615   8.971  0.1351 -0.5868 -0.4540
   74MOL0     C 9921  11.268  10.980   9.064 -0.2556 -0.5604 -0.3489
   74MOL0     C 9922  11.232  11.095   9.131 -0.6569  0.4049 -0.3316
   74MOL0     H 9923  10.986  11.276   9.422 -0.7863 -0.5888 -1.0087
   74MOL0     H 9924  10.840  11.408   9.526  0.2666  1.0613  1.2589
   74MOL0     H 9925  10.735  11.570   9.643 -0.4703  0.6503  1.3562
   74MOL0     H 9926  10.857  11.697   9.663 -0.8660  0.0221  2.8676
   74MOL0     H 9927  10.687  11.876   9.620  0.9358 -0.0058  0.0945
   74MOL0     H 9928  10.584  11.742   9.567  0.3730 -4.0346  0.5686
   74MOL0     H 9929  10.553  11.671   9.810  1.9824 -0.4526  1.1776
   74MOL0     H 9930  10.700  11.762   9.846  0.5383  1.6312  0.1529
   74MOL0     H 9931  10.551  11.964   9.812 -2.2235  2.3223  4.4069
   74MOL0     H 9932  10.417  11.848   9.756 -0.1092 -0.3662 -0.0648
   74MOL0     H 9933  10.395  11.778   9.990  0.7410 -0.0273 -0.1654
   74MOL0     H 9934  10.554  11.856  10.017  1.5359  2.0958 -1.7938
   74MOL0     H 9935  10.441  12.079   9.968  0.1741 -0.1941 -0.8085
   74MOL0     H 9936  10.279  12.014   9.957  1.6653  0.2432 -5.4936
   74MOL0     H 9937  10.351  11.919  10.202 -0.2252  0.6201  0.3575
   74MOL0     H 9938  10.461  12.049  10.195 -0.1815  1.8918  0.0955
   74MOL0     H 9939  10.162  12.061  10.215 -1.8515  0.6051  0.4032
   74MOL0     H 9940  10.254  12.210  10.167 -2.4139  1.2310  4.3476
   74MOL0     H 9941  10.307  11.935  10.426  1.2928 -0.7104  1.9771
   74MOL0     H 9942  10.242  11.927  10.676 -0.5026 -0.2097  0.6010
   74MOL0     H 9943  10.394  11.996  10.730  0.2476  3.2291  1.2289
   74MOL0     H 9944  10.263  12.194  10.818  0.1388  0.3681 -0.3710
   74MOL0     H 9945  10.221  12.045  10.894  1.3324 -0.5530 -1.2361
   74MOL0     H 9946  10.007  12.047  10.722 -3.0219  0.3036  1.8258
   74MOL0     H 9947  10.063  12.206  10.676 -0.0724 -1.0105 -0.9029
   74MOL0     H 9948  10.024  12.315  10.873 -1.6042  0.9857 -0.5034
   74MOL0     H 9949   9.992  12.173  10.969  2.6739  1.9191  0.2463
   74MOL0     H 9950   9.887  12.368  11.032  0.1979  1.2544  1.1937
   74MOL0     H 9951   9.814  12.689  11.110 -3.3057  1.3963  0.4949
   74MOL0     H 9952   9.694  12.578  11.195 -0.2526  1.0516  0.0570
   74MOL0     H 9953   9.862  12.532  11.172 -0.5238  0.7953  1.3582
   74MOL0     H 9954   9.253  12.716  10.757 -4.8154 -1.4108 -0.2057
   74MOL0     H 9955   9.097  12.925  10.761 -0.0171 -0.8907 -0.1833
   74MOL0     H 9956   8.955  13.045  11.132  1.5499 -0.1211  1.2038
   74MOL0     H 9957   9.071  13.180  11.136 -0.7715  0.4002 -0.3585
   74MOL0     H 9958   8.793  13.182  11.044  1.4892 -2.4361 -0.8769
   74MOL0     H 9959   8.861  13.285  11.155 -2.4608  2.2332 -2.3811
   74MOL0     H 9960   8.944  13.299  10.854 -0.2598 -1.0488 -0.7391
   74MOL0     H 9961   8.982  13.405  10.989  1.1740 -1.5798 -1.4036
   74MOL0     H 9962   8.732  13.348  10.838  1.2472  0.3023 -0.8318
   74MOL0     H 9963   8.711  13.406  11.004 -0.1544 -2.1788 -0.0287
   74MOL0     H 9964   8.896  13.545  10.792 -0.1128  0.6855 -0.2564
   74MOL0     H 9965   8.853  13.602  10.957  1.1862 -0.6865 -0.0856
   74MOL0     H 9966   8.761  13.702  10.759  0.8967 -1.2632 -0.6162
   74MOL0     H 9967   8.668  13.564  10.717  2.6459  0.3694 -1.3739
   74MOL0     H 9968   8.641  13.722  10.982 -0.8601 -0.1839  1.5536
   74MOL0     H 9969   8.553  13.566  10.944 -2.1207 -0.3808 -2.4076
   74MOL0     H 9970   8.445  13.648  10.762 -0.8719  3.2174 -4.3754
   74MOL0     H 9971   8.520  13.812  10.776  2.5753 -0.7662  1.9768
   74MOL0     H 9972   9.223  13.022  11.160  2.0006  0.4924 -0.3412
   74MOL0     H 9973   9.381  12.830  11.159 -1.8738  2.1171  1.7353
   74MOL0     H 9974   9.506  12.491  10.753 -2.6467  0.2728  1.5303
   74MOL0     H 9975   9.620  12.300  10.697 -0.1870  0.1330 -0.6082
   74MOL0     H 9976  10.991  11.744   9.284  3.0685 -1.1916 -2.0557
   74MOL0     H 9977  11.149  11.600   9.192 -3.6091  0.1024 -2.4455
   74MOL0     H 9978  11.397  11.037   9.424 -0.2319  1.7817 -1.1343
   74MOL0     H 9979  11.452  10.832   9.303 -0.4119 -0.0629  2.0460
   74MOL0     H 9980  11.452  10.647   9.211 -2.7045  3.0190  1.0061
   74MOL0     H 9981  11.436  10.564   9.059  0.9130 -0.0997 -0.7149
   74MOL0     H 9982  11.679  10.637   9.096  0.1765 -1.7088 -2.3878
   74MOL0     H 9983  11.618  10.806   9.099  0.8997 -1.1404  1.6488
   74MOL0     H 9984  11.548  10.778   8.861  1.9404 -0.0949 -4.0213
   74MOL0     H 9985  11.610  10.619   8.862  0.8195 -0.2181  1.0686
   74MOL0     H 9986  11.777  10.880   8.914  1.8533  0.1490 -0.3011
   74MOL0     H 9987  11.780  10.782   8.769 -0.9242  0.6288  0.0216
   74MOL0     H 9988  12.038  10.544   8.991 -0.8167 -1.5628 -0.1552
   74MOL0     H 9989  11.226  10.970   8.964  0.7930  1.2404 -1.0147
   74MOL0     H 9990  11.154  11.157   9.089 -2.8747 -1.9654 -0.0014
   75MOL0     O 9991   9.333   4.304   2.229 -0.0164  0.7175 -0.3117
   75MOL0     C 9992   9.312   4.209   2.297 -0.2349 -0.0534 -0.5451
   75MOL0     O 9993   9.221   4.194   2.404  0.2083 -0.1529 -0.0380
   75MOL0     C 9994   9.116   4.281   2.424 -0.5284  1.0593  0.4177
   75MOL0     C 9995   9.039   4.332   2.318 -0.2332  0.0831 -0.3211
   75MOL0     C 9996   8.934   4.421   2.353 -0.0247 -0.3178 -0.4605
   75MOL0     C 9997   8.907   4.452   2.487 -0.7026 -0.5007 -0.1524
   75MOL0     O 9998   8.809   4.539   2.522  0.5683 -0.0252 -0.4457
   75MOL0     C 9999   8.699   4.567   2.448  0.6476  0.0519  0.7448
   75MOL0     C10000   8.613   4.649   2.545  0.6844 -0.4766  0.1704
   75MOL0     C10001   8.528   4.757   2.472  0.2698  0.6375  0.7686
   75MOL0     C10002   8.454   4.844   2.558  0.8291 -0.0836  0.1312
   75MOL0     C10003   8.420   4.978   2.482  0.5485  0.2345 -0.0811
   75MOL0     C10004   8.311   5.057   2.561  0.8884  0.2288 -0.0037
   75MOL0     C10005   8.348   5.085   2.713  0.4598 -0.1314 -0.1734
   75MOL0     C10006   8.255   5.193   2.776  0.3441 -0.7933 -0.3103
   75MOL0     N10007   8.109   5.176   2.757  0.0107 -0.3471  0.1350
   75MOL0     C10008   8.042   5.063   2.784  0.8291 -0.9181  1.5432
   75MOL0     C10009   7.930   5.085   2.713 -0.5639  0.0272 -0.2179
   75MOL0     C10010   7.809   4.994   2.711 -0.4676  0.7386 -0.1379
   75MOL0     C10011   7.711   5.034   2.822 -0.3306 -1.3880  0.6293
   75MOL0     C10012   7.586   4.955   2.803  0.3112 -0.1654 -0.3315
   75MOL0     C10013   7.473   4.986   2.908 -0.0568  0.1648  0.7829
   75MOL0     O10014   7.357   4.907   2.869 -0.7716  0.3073 -0.2919
   75MOL0     C10015   7.262   4.966   2.792  0.0552  1.1217 -1.0917
   75MOL0     C10016   7.279   5.067   2.702 -0.7093 -0.5056 -0.2788
   75MOL0     C10017   7.182   5.125   2.625 -0.8274 -0.5492  0.1897
   75MOL0     C10018   7.219   5.252   2.542  0.2617  0.7203  0.5058
   75MOL0     C10019   7.051   5.067   2.630 -1.0044  0.2836  0.3250
   75MOL0     C10020   6.934   5.099   2.541  0.2425 -0.0343  0.6930
   75MOL0     O10021   6.828   5.011   2.545 -0.4404  0.8024 -0.1221
   75MOL0     C10022   6.712   5.032   2.467 -0.1019  0.7597 -0.1347
   75MOL0     C10023   6.618   5.132   2.485  0.4944 -0.2599  0.3411
   75MOL0     C10024   6.502   5.137   2.416 -0.6070 -0.0631 -0.0878
   75MOL0     C10025   6.470   5.038   2.321 -1.0472  0.3841  0.2307
   75MOL0     O10026   6.351   5.042   2.262  0.5924 -0.5736  0.1548
   75MOL0     C10027   6.362   5.038   2.114  0.2398 -0.2898 -0.9226
   75MOL0     C10028   6.267   5.130   2.044 -0.1618 -1.2253  0.0078
   75MOL0     C10029   6.131   5.124   2.103  1.2601 -0.4972  0.0296
   75MOL0     C10030   6.015   5.150   2.006  0.0007  0.9876  0.4778
   75MOL0     C10031   5.881   5.140   2.084  0.4811 -0.3438 -0.4768
   75MOL0     C10032   5.760   5.194   2.017  0.1001 -0.4192 -0.0364
   75MOL0     C10033   5.723   5.337   2.062  0.6179 -0.2256  0.2488
   75MOL0     C10034   5.833   5.438   2.055 -0.2465 -0.0147 -0.2201
   75MOL0    Cl10035   5.861   5.492   1.889  0.2398  0.1261 -0.6708
   75MOL0     C10036   6.569   4.947   2.294  0.0478  0.8339 -0.2404
   75MOL0     C10037   6.681   4.937   2.369  0.9470  0.2591 -0.4657
   75MOL0     O10038   6.941   5.205   2.476 -0.5991  0.0692 -0.5204
   75MOL0     C10039   7.030   4.958   2.722 -0.2621 -0.1386  0.0932
   75MOL0     C10040   7.139   4.908   2.805  0.0922 -0.7759  1.3196
   75MOL0     N10041   7.931   5.204   2.653 -0.1557 -0.3647 -0.2419
   75MOL0     N10042   8.038   5.264   2.676  0.3230 -0.1230 -0.5539
   75MOL0     C10043   8.989   4.400   2.589 -0.4411  0.2019 -0.0160
   75MOL0     C10044   9.091   4.316   2.558  0.2296 -0.3537  0.4489
   75MOL0     C10045   9.408   4.095   2.286  0.4471  0.5199  0.0075
   75MOL0     C10046   9.541   4.107   2.228  0.3684  0.3287 -0.1804
   75MOL0     C10047   9.620   3.992   2.197  0.2636  0.4266 -0.1733
   75MOL0     C10048   9.577   3.859   2.230 -0.6896  0.4629  0.0973
   75MOL0     O10049   9.641   3.739   2.197 -0.0195  0.0011  0.3832
   75MOL0     C10050   9.770   3.751   2.130  0.9408 -0.8880 -0.5698
   75MOL0     C10051   9.884   3.755   2.227 -1.5981  0.2216  0.8764
   75MOL0     C10052  10.019   3.729   2.160 -0.2220 -0.0427  0.1706
   75MOL0     C10053  10.131   3.777   2.254 -0.4753  0.7149 -0.3182
   75MOL0     C10054  10.265   3.765   2.183  0.8622  0.2083 -0.0440
   75MOL0     C10055  10.371   3.765   2.136 -0.7787  0.2602  0.0783
   75MOL0     C10056   9.442   3.850   2.285  0.7354 -0.7189  0.0900
   75MOL0     C10057   9.365   3.962   2.314 -0.4081 -0.3423 -0.1454
   75MOL0     H10058   9.062   4.306   2.215 -0.8001  1.3306 -0.7805
   75MOL0     H10059   8.881   4.457   2.265 -0.3227  0.0539 -0.1311
   75MOL0     H10060   8.725   4.627   2.360 -0.6113  0.7536  0.8273
   75MOL0     H10061   8.643   4.478   2.420  0.9633  0.6968 -2.2543
   75MOL0     H10062   8.542   4.583   2.596 -0.6498  0.2669 -0.6703
   75MOL0     H10063   8.658   4.711   2.623 -0.5962 -0.3672  0.8512
   75MOL0     H10064   8.595   4.818   2.412  1.9188 -0.0844  1.8128
   75MOL0     H10065   8.458   4.707   2.404  0.3075  0.7568  0.6428
   75MOL0     H10066   8.365   4.794   2.597  0.5722 -1.1028 -1.6731
   75MOL0     H10067   8.519   4.877   2.640  0.8893  0.0756  0.0202
   75MOL0     H10068   8.508   5.041   2.468 -1.6275  3.3934 -0.6678
   75MOL0     H10069   8.384   4.972   2.379 -2.5781  1.6939  0.8002
   75MOL0     H10070   8.276   5.149   2.514 -0.2540 -2.0337 -3.9965
   75MOL0     H10071   8.216   5.004   2.550  0.4623  0.9448  0.1473
   75MOL0     H10072   8.345   4.993   2.772 -1.3041 -0.5242 -0.8313
   75MOL0     H10073   8.451   5.123   2.713  0.1105  0.8550  0.6993
   75MOL0     H10074   8.277   5.286   2.724 -2.1289 -0.0154 -0.0750
   75MOL0     H10075   8.294   5.196   2.879  1.6898  0.8649 -0.8185
   75MOL0     H10076   8.064   4.974   2.843 -1.5544 -2.4416  0.2985
   75MOL0     H10077   7.771   5.006   2.610  2.9047 -0.3023 -1.6906
   75MOL0     H10078   7.848   4.892   2.718  1.3244  1.4493  0.9183
   75MOL0     H10079   7.686   5.140   2.810 -0.2554 -1.5205 -0.8816
   75MOL0     H10080   7.765   5.019   2.916  2.4982 -0.7975 -0.7864
   75MOL0     H10081   7.611   4.848   2.811  0.6764 -0.0126  0.8431
   75MOL0     H10082   7.548   4.981   2.704  0.0670  0.7573  0.0015
   75MOL0     H10083   7.452   5.093   2.918  0.3176  0.3616 -0.3685
   75MOL0     H10084   7.516   4.949   3.001 -1.7093 -0.2184  1.4377
   75MOL0     H10085   7.376   5.116   2.705 -1.5153  1.1293  0.4210
   75MOL0     H10086   7.165   5.262   2.447 -1.2426  3.0724  1.5034
   75MOL0     H10087   7.217   5.350   2.591 -0.1813  1.1436 -0.3329
   75MOL0     H10088   7.324   5.238   2.515 -0.1577 -0.9195 -0.4421
   75MOL0     H10089   6.629   5.200   2.569 -2.8030  1.3303 -0.3772
   75MOL0     H10090   6.417   5.199   2.445  0.1212 -0.1835  2.5489
   75MOL0     H10091   6.457   5.071   2.072  0.4141 -1.0324 -1.1236
   75MOL0     H10092   6.332   4.943   2.069  1.0707 -1.2463  0.4680
   75MOL0     H10093   6.296   5.234   2.062 -1.9374 -0.6460 -0.2416
   75MOL0     H10094   6.267   5.094   1.941 -0.6253  0.4001 -0.5923
   75MOL0     H10095   6.115   5.205   2.175  2.2503 -1.0837  0.9238
   75MOL0     H10096   6.108   5.033   2.159  1.4855 -1.0870 -0.8078
   75MOL0     H10097   6.039   5.250   1.969  0.4209  0.2780 -1.2976
   75MOL0     H10098   6.020   5.081   1.921  2.0580  2.3771 -0.6261
   75MOL0     H10099   5.894   5.192   2.180 -0.0282 -0.5981 -0.2632
   75MOL0     H10100   5.869   5.036   2.114 -2.2894 -0.2302 -0.9030
   75MOL0     H10101   5.774   5.196   1.908 -1.5390 -0.3126 -0.2759
   75MOL0     H10102   5.676   5.129   2.043 -0.1661 -0.2876 -0.5524
   75MOL0     H10103   5.685   5.338   2.165  0.2227  1.0098  0.1068
   75MOL0     H10104   5.642   5.353   1.990  2.8930 -0.8323 -2.6464
   75MOL0     H10105   5.930   5.407   2.095 -0.3656  0.1645  0.2182
   75MOL0     H10106   5.805   5.528   2.111 -1.4511 -1.7806  2.2014
   75MOL0     H10107   6.544   4.865   2.227 -0.4389 -0.1438  1.0898
   75MOL0     H10108   6.747   4.853   2.352  1.6383  0.0930  2.4869
   75MOL0     H10109   6.940   4.898   2.719 -0.2836 -0.1682  0.9944
   75MOL0     H10110   7.125   4.814   2.857 -0.8581 -0.5490  1.4944
   75MOL0     H10111   8.959   4.439   2.686  1.6047  2.9090 -0.3673
   75MOL0     H10112   9.144   4.268   2.639 -1.2631 -2.1061  0.4685
   75MOL0     H10113   9.580   4.201   2.190  0.1717 -1.2460 -4.8711
   75MOL0     H10114   9.722   4.008   2.165  0.0838 -0.8883 -1.4944
   75MOL0     H10115   9.777   3.669   2.058 -1.8893  0.1946 -2.2478
   75MOL0     H10116   9.774   3.841   2.069 -0.1279 -1.2017 -1.1421
   75MOL0     H10117   9.859   3.671   2.293 -4.7600 -0.2418 -0.6871
   75MOL0     H10118   9.886   3.846   2.287 -0.5532  1.6085 -1.1357
   75MOL0     H10119  10.036   3.785   2.067 -2.1052  2.1696  1.0580
   75MOL0     H10120  10.034   3.622   2.146  0.9355  0.0977  0.2670
   75MOL0     H10121  10.128   3.730   2.353 -0.7470  1.4194  0.0171
   75MOL0     H10122  10.106   3.883   2.261 -0.5046  0.9470 -2.9125
   75MOL0     H10123  10.470   3.770   2.098 -1.2905  0.3523 -1.2855
   75MOL0     H10124   9.398   3.755   2.311  2.1832 -1.4516  0.0150
   75MOL0     H10125   9.266   3.941   2.353  0.5665 -1.3764  1.9282
   76MOL0     O10126   0.002   7.618   1.264  0.6962  0.3920  0.9994
   76MOL0     C10127   0.018   7.527   1.344  0.4469  0.4689 -0.1725
   76MOL0     O10128   0.130   7.495   1.395 -0.0712  0.9781 -0.4285
   76MOL0     C10129   0.229   7.588   1.404  0.3469 -0.4188 -0.1550
   76MOL0     C10130   0.208   7.710   1.470  0.9193 -0.3726  0.1403
   76MOL0     C10131   0.313   7.805   1.481 -0.2909 -0.4081  0.2458
   76MOL0     C10132   0.428   7.788   1.396 -0.4963 -0.7459 -0.6074
   76MOL0     O10133   0.541   7.875   1.377  0.4512  0.3963 -0.4661
   76MOL0     C10134   0.530   8.012   1.402 -1.6987  0.1833  0.7178
   76MOL0     C10135   0.668   8.065   1.407 -0.0287  0.0372 -0.5849
   76MOL0     C10136   0.678   8.220   1.401  0.4555 -0.0630 -0.1209
   76MOL0     C10137   0.828   8.252   1.392 -1.0633  0.0637  0.5658
   76MOL0     C10138   0.855   8.399   1.354  0.4268 -0.6527  0.8862
   76MOL0     C10139   1.003   8.446   1.369  0.1514  0.0490  0.9768
   76MOL0     C10140   1.014   8.595   1.374 -1.4801 -0.4596  0.1655
   76MOL0     C10141   1.160   8.648   1.367  0.1407  0.5996 -0.2750
   76MOL0     N10142   1.251   8.586   1.460 -0.2244  0.2482 -0.4777
   76MOL0     C10143   1.301   8.650   1.568 -0.5529  0.4427  0.2429
   76MOL0     C10144   1.393   8.571   1.616 -0.0823 -0.2160  0.3622
   76MOL0     C10145   1.470   8.606   1.734  0.6681 -1.1126  0.1981
   76MOL0     C10146   1.590   8.524   1.784 -0.7052 -0.4399 -0.4740
   76MOL0     C10147   1.543   8.392   1.856  0.0732 -1.6285  0.9298
   76MOL0     C10148   1.647   8.283   1.836  0.5855  0.8962 -0.6174
   76MOL0     O10149   1.619   8.241   1.700  0.0926  0.3171  0.5939
   76MOL0     C10150   1.726   8.181   1.635 -0.0386 -0.4280  0.1012
   76MOL0     C10151   1.750   8.222   1.507  0.3449 -0.0783 -0.2990
   76MOL0     C10152   1.853   8.161   1.432 -0.4081 -0.5286  0.3040
   76MOL0     C10153   1.896   8.243   1.312 -0.5181  0.2816 -0.3457
   76MOL0     C10154   1.917   8.052   1.487 -0.0611  0.5426  0.8305
   76MOL0     C10155   2.038   7.988   1.429 -0.1435  0.2911  0.1947
   76MOL0     O10156   2.117   7.901   1.498 -0.7965  0.3309 -0.7665
   76MOL0     C10157   2.241   7.862   1.442  0.1470  0.2228  0.0783
   76MOL0     C10158   2.363   7.931   1.476 -0.0197 -0.9733  0.0474
   76MOL0     C10159   2.484   7.888   1.422 -0.5189  0.4004  0.6736
   76MOL0     C10160   2.488   7.768   1.344 -0.5027  0.6827  0.9277
   76MOL0     O10161   2.600   7.732   1.275 -0.3803 -0.3196 -0.1718
   76MOL0     C10162   2.728   7.761   1.329 -0.0722 -0.4621 -0.9095
   76MOL0     C10163   2.810   7.837   1.232 -0.4437 -0.7957  0.1195
   76MOL0     C10164   2.861   7.742   1.123  0.5010 -0.2391 -0.2430
   76MOL0     C10165   2.957   7.788   1.013  1.0220  0.5401  0.5157
   76MOL0     C10166   3.103   7.793   1.048 -0.3390  0.7918 -0.6373
   76MOL0     C10167   3.168   7.658   1.084  0.7361 -0.9999 -0.7745
   76MOL0     C10168   3.304   7.668   1.148 -0.1706 -0.9383  0.3030
   76MOL0     C10169   3.315   7.710   1.288 -0.3440  0.0090  0.2605
   76MOL0    Cl10170   3.308   7.588   1.418 -0.0236  0.0702  0.1067
   76MOL0     C10171   2.374   7.699   1.311 -0.3934 -0.1379  0.2895
   76MOL0     C10172   2.245   7.753   1.356  0.2737  1.0453  0.7264
   76MOL0     O10173   2.060   8.020   1.312  1.2317  0.6085 -0.3736
   76MOL0     C10174   1.888   8.007   1.619  0.0365  0.1351 -0.0322
   76MOL0     C10175   1.788   8.067   1.692 -0.2593 -0.3234 -0.0415
   76MOL0     N10176   1.415   8.469   1.530  0.5030  0.1725  0.1866
   76MOL0     N10177   1.325   8.472   1.441 -0.0373  0.3333 -0.9934
   76MOL0     C10178   0.438   7.669   1.319  0.0892 -0.6067  0.8682
   76MOL0     C10179   0.340   7.574   1.329  0.3710 -0.4045  0.4911
   76MOL0     C10180  -0.107   7.452   1.379 -0.2605 -0.5428 -0.0598
   76MOL0     C10181  -0.240   7.481   1.331 -0.1828  0.2345  0.1236
   76MOL0     C10182  -0.345   7.409   1.385  0.3537 -0.3531  0.2963
   76MOL0     C10183  -0.324   7.304   1.475  0.4573  0.2030  0.1413
   76MOL0     O10184  -0.442   7.240   1.509  0.3407  0.2736  0.5788
   76MOL0     C10185  -0.432   7.157   1.622  0.3914  0.6115 -0.1085
   76MOL0     C10186  -0.553   7.070   1.620 -0.3416  0.2271  0.2344
   76MOL0     C10187  -0.679   7.159   1.645 -0.4223  0.9327  0.4252
   76MOL0     C10188  -0.805   7.076   1.601 -0.3660  0.0259  0.0306
   76MOL0     C10189  -0.930   7.143   1.645 -0.5638  0.2273  0.5542
   76MOL0     C10190  -1.038   7.193   1.677 -0.0289 -0.0167 -0.1820
   76MOL0     C10191  -0.191   7.269   1.511  0.3895 -0.6785 -0.9955
   76MOL0     C10192  -0.084   7.343   1.463  1.0400 -0.1379  0.0110
   76MOL0     H10193   0.108   7.713   1.512  1.3279 -1.0463  1.1910
   76MOL0     H10194   0.305   7.897   1.538  2.3728  1.0518 -1.4995
   76MOL0     H10195   0.473   8.045   1.314 -1.2305 -0.4388  0.1752
   76MOL0     H10196   0.476   8.038   1.494 -0.0674 -0.5228  1.9123
   76MOL0     H10197   0.718   8.017   1.491 -3.2604 -0.3386  1.2447
   76MOL0     H10198   0.710   8.028   1.312 -0.5388  1.8688 -1.5831
   76MOL0     H10199   0.624   8.262   1.316  0.2807  1.4635  0.7150
   76MOL0     H10200   0.634   8.264   1.491  1.1403 -0.4673  0.4280
   76MOL0     H10201   0.880   8.230   1.486  4.2654  2.7190 -1.4073
   76MOL0     H10202   0.867   8.190   1.310 -0.4894 -0.7872  1.4562
   76MOL0     H10203   0.804   8.429   1.262 -0.6950 -1.9346  1.0640
   76MOL0     H10204   0.805   8.452   1.435  0.6577 -0.7247  1.0759
   76MOL0     H10205   1.050   8.401   1.457  1.0339  1.2682  1.1655
   76MOL0     H10206   1.072   8.408   1.292 -1.2548  3.0050 -1.9630
   76MOL0     H10207   0.950   8.646   1.302 -0.1891  2.1340  0.7572
   76MOL0     H10208   0.976   8.623   1.473 -2.7059 -1.0775 -0.1088
   76MOL0     H10209   1.163   8.757   1.380 -0.5899  0.5209  0.7023
   76MOL0     H10210   1.201   8.621   1.269 -1.9852 -0.3739 -0.9537
   76MOL0     H10211   1.273   8.746   1.610  2.1120  0.3694  2.4973
   76MOL0     H10212   1.512   8.700   1.698  2.5269 -2.2919 -0.9323
   76MOL0     H10213   1.406   8.630   1.819  0.5240  2.0028 -0.6689
   76MOL0     H10214   1.654   8.579   1.853  1.2643 -1.5386 -1.3182
   76MOL0     H10215   1.653   8.506   1.696 -0.6849  1.0445 -0.7748
   76MOL0     H10216   1.446   8.371   1.809  0.9140  0.2201 -1.9315
   76MOL0     H10217   1.535   8.414   1.963  1.7664  3.3924  0.3111
   76MOL0     H10218   1.640   8.196   1.902  1.6348  0.0741 -1.5421
   76MOL0     H10219   1.747   8.324   1.848  0.3877  0.7802  1.9285
   76MOL0     H10220   1.687   8.306   1.480  1.8142  0.7697 -1.2760
   76MOL0     H10221   1.837   8.334   1.301 -0.3478  1.1618  4.1611
   76MOL0     H10222   1.996   8.281   1.335 -0.7656  1.1173 -0.6074
   76MOL0     H10223   1.909   8.186   1.219  0.7283  1.7216 -1.0902
   76MOL0     H10224   2.343   8.019   1.537 -0.2692 -0.1895 -1.1468
   76MOL0     H10225   2.569   7.954   1.439 -0.5749  0.6513  0.0149
   76MOL0     H10226   2.738   7.814   1.424  1.7608 -0.7425 -0.9218
   76MOL0     H10227   2.779   7.665   1.338  1.6445  0.4245 -0.8683
   76MOL0     H10228   2.744   7.913   1.190  0.1789 -0.8480 -0.9929
   76MOL0     H10229   2.884   7.885   1.297  0.6791  2.0819 -3.0202
   76MOL0     H10230   2.776   7.719   1.060  0.0487 -0.0744  0.2974
   76MOL0     H10231   2.887   7.644   1.165  2.7188  0.5176  0.3211
   76MOL0     H10232   2.945   7.719   0.929 -3.1986 -2.8184  3.4485
   76MOL0     H10233   2.934   7.891   0.987  2.4801  1.4619  2.5535
   76MOL0     H10234   3.112   7.856   1.138 -1.0354 -0.1500  0.1084
   76MOL0     H10235   3.163   7.838   0.968 -0.0272  0.3793 -0.6385
   76MOL0     H10236   3.100   7.615   1.158 -1.3410  0.7817 -1.5390
   76MOL0     H10237   3.183   7.600   0.993  0.1980 -0.9474 -0.8992
   76MOL0     H10238   3.357   7.741   1.087 -2.3609  0.6792  0.2336
   76MOL0     H10239   3.356   7.572   1.142 -0.3203 -1.1900  2.2295
   76MOL0     H10240   3.240   7.790   1.298 -2.2495 -1.4645 -1.4245
   76MOL0     H10241   3.419   7.745   1.285 -1.3333  3.6759  2.2210
   76MOL0     H10242   2.403   7.624   1.238 -0.8667 -2.5449  2.4283
   76MOL0     H10243   2.147   7.712   1.332 -0.0863  3.0042 -1.5903
   76MOL0     H10244   1.935   7.922   1.667 -1.1194 -0.2773  0.3923
   76MOL0     H10245   1.752   8.029   1.787  0.6416 -1.0240  0.0395
   76MOL0     H10246   0.527   7.650   1.259  0.0459  0.7811  0.3215
   76MOL0     H10247   0.351   7.478   1.281  0.6260 -1.1014  1.8812
   76MOL0     H10248  -0.256   7.562   1.261  3.0905 -0.7707 -2.0392
   76MOL0     H10249  -0.443   7.438   1.350 -0.5232 -0.0510  2.8018
   76MOL0     H10250  -0.341   7.096   1.624  1.3609  2.0078  1.3284
   76MOL0     H10251  -0.425   7.222   1.710  2.0367  1.2196 -0.6366
   76MOL0     H10252  -0.549   7.000   1.704  1.1377  0.4768  0.4018
   76MOL0     H10253  -0.553   7.016   1.525  0.0581  1.4573 -0.4841
   76MOL0     H10254  -0.689   7.253   1.591 -3.1308  0.7732  0.5010
   76MOL0     H10255  -0.689   7.176   1.753 -3.6745  3.5309 -0.0970
   76MOL0     H10256  -0.806   6.971   1.631 -0.5549 -1.1822 -3.7618
   76MOL0     H10257  -0.803   7.072   1.492  0.6268  0.6471  0.0119
   76MOL0     H10258  -1.130   7.245   1.694 -0.9020 -0.9232 -1.9115
   76MOL0     H10259  -0.160   7.186   1.573 -1.0614  0.1252  0.9135
   76MOL0     H10260   0.014   7.311   1.497  1.6878 -0.6531 -2.1912
   77MOL0     O10261   6.344   9.836   3.238 -0.5446  0.2415  0.4602
   77MOL0     C10262   6.426   9.808   3.151 -0.1844  0.5037 -0.4903
   77MOL0     O10263   6.390   9.760   3.025 -0.2040 -0.4228 -0.4233
   77MOL0     C10264   6.261   9.765   2.983 -0.2665  0.3138  0.8882
   77MOL0     C10265   6.139   9.740   3.058 -0.1334 -0.0165  0.2687
   77MOL0     C10266   6.019   9.748   3.001  0.4727  0.3370 -0.5765
   77MOL0     C10267   6.002   9.780   2.872  0.2060 -0.3883  0.0402
   77MOL0     O10268   5.869   9.777   2.822  0.0222 -0.2281  0.3906
   77MOL0     C10269   5.846   9.716   2.691 -0.1160  0.1075 -0.5338
   77MOL0     C10270   5.719   9.650   2.691 -0.5854 -0.7347  1.1301
   77MOL0     C10271   5.690   9.556   2.814  0.3761 -0.4488 -0.2440
   77MOL0     C10272   5.555   9.483   2.805  0.1724 -0.7418 -0.8455
   77MOL0     C10273   5.427   9.562   2.836 -0.4181  0.5047 -0.2358
   77MOL0     C10274   5.306   9.518   2.758  0.0116 -0.0827 -0.1274
   77MOL0     C10275   5.210   9.635   2.741  0.0876 -1.5461 -0.8344
   77MOL0     C10276   5.115   9.637   2.856  0.0953  0.2300  0.2507
   77MOL0     N10277   5.168   9.674   2.989 -0.8648  0.8278  0.3201
   77MOL0     C10278   5.205   9.801   3.030 -0.0005 -0.6595  0.3129
   77MOL0     C10279   5.228   9.789   3.164 -0.5639 -0.1968  0.0372
   77MOL0     C10280   5.264   9.892   3.269  0.0551  0.6029 -0.2405
   77MOL0     C10281   5.312  10.034   3.215  0.7647  0.4473 -0.2510
   77MOL0     C10282   5.389  10.116   3.306  0.4645 -0.2504  0.6054
   77MOL0     C10283   5.530  10.070   3.321  0.5036  0.1398  0.5959
   77MOL0     O10284   5.578  10.109   3.447 -0.1570 -0.3307 -0.0506
   77MOL0     C10285   5.712  10.080   3.486  0.8317  0.4512 -0.4493
   77MOL0     C10286   5.815  10.041   3.403  0.3503  0.9859 -0.0857
   77MOL0     C10287   5.947  10.006   3.460  1.3642 -0.0528 -0.5624
   77MOL0     C10288   6.055   9.947   3.374 -0.7978 -0.0624 -0.0419
   77MOL0     C10289   5.971  10.029   3.597 -0.3411 -0.9762 -0.1910
   77MOL0     C10290   6.103  10.018   3.662  0.0418  0.5229 -0.5114
   77MOL0     O10291   6.178   9.910   3.630  0.5717 -0.2355 -0.0058
   77MOL0     C10292   6.316   9.920   3.633 -0.2397 -0.1629  0.3985
   77MOL0     C10293   6.381  10.044   3.629 -0.0805  0.0791  0.2808
   77MOL0     C10294   6.527  10.039   3.619 -0.1643 -0.5379 -0.3738
   77MOL0     C10295   6.590   9.915   3.615 -0.0199 -0.4552  0.6281
   77MOL0     O10296   6.727   9.928   3.611  0.2744  0.1548  0.1378
   77MOL0     C10297   6.804   9.811   3.632 -0.5166 -1.1931 -0.0968
   77MOL0     C10298   6.958   9.843   3.637 -0.0032  0.0204  0.1406
   77MOL0     C10299   7.032   9.712   3.666 -0.6809  0.7011  0.4120
   77MOL0     C10300   7.174   9.722   3.694 -0.5646  0.2761 -0.0052
   77MOL0     C10301   7.225   9.591   3.749  0.6249  0.1817 -0.2299
   77MOL0     C10302   7.366   9.606   3.813  0.0737 -0.4008 -0.5413
   77MOL0     C10303   7.385   9.492   3.910  0.3420 -0.8755 -0.4370
   77MOL0     C10304   7.392   9.356   3.844  1.0925 -0.3189 -0.1773
   77MOL0    Cl10305   7.548   9.322   3.782  0.0855  1.0021  0.3348
   77MOL0     C10306   6.515   9.802   3.615  0.4441  0.0359 -0.4034
   77MOL0     C10307   6.379   9.801   3.627  0.0020  0.1323  0.1194
   77MOL0     O10308   6.136  10.099   3.752 -0.1801 -0.5307  0.0675
   77MOL0     C10309   5.862  10.076   3.675 -0.1126 -1.1674  0.0872
   77MOL0     C10310   5.739  10.108   3.613 -0.3094  0.6373 -0.5354
   77MOL0     N10311   5.204   9.654   3.193  0.8330  0.0746 -0.1950
   77MOL0     N10312   5.172   9.589   3.091  0.4545  0.9325  0.3910
   77MOL0     C10313   6.114   9.799   2.789 -0.3622 -0.6571  0.1540
   77MOL0     C10314   6.245   9.795   2.843 -0.3419  0.1574 -0.8548
   77MOL0     C10315   6.570   9.823   3.167 -0.7226  0.1114 -0.3275
   77MOL0     C10316   6.624   9.891   3.281 -0.6598  0.6818  0.3716
   77MOL0     C10317   6.757   9.920   3.283  0.1087 -0.6688 -0.0748
   77MOL0     C10318   6.841   9.885   3.180 -0.1553  0.4205 -0.3010
   77MOL0     O10319   6.972   9.914   3.202 -0.6962 -0.1069 -0.1196
   77MOL0     C10320   7.075   9.817   3.199  0.4134  0.3710  0.9427
   77MOL0     C10321   7.164   9.837   3.080  0.2362  0.2800 -0.0229
   77MOL0     C10322   7.290   9.741   3.087  0.4119 -0.2514  0.0480
   77MOL0     C10323   7.378   9.776   2.970 -1.0726  0.5885  0.1152
   77MOL0     C10324   7.521   9.737   2.979  0.2905 -0.1114  0.5042
   77MOL0     C10325   7.639   9.698   2.962  0.2874  0.1583 -0.6268
   77MOL0     C10326   6.792   9.809   3.071 -0.0473  0.8801  0.1796
   77MOL0     C10327   6.657   9.795   3.059 -0.0492 -0.2139 -0.5545
   77MOL0     H10328   6.149   9.729   3.166 -1.8660  0.6370  0.5219
   77MOL0     H10329   5.925   9.742   3.054 -0.5977  3.9696 -1.7419
   77MOL0     H10330   5.844   9.798   2.618  0.7052  1.4299  0.8554
   77MOL0     H10331   5.922   9.644   2.663  0.6871  1.8654 -3.2793
   77MOL0     H10332   5.651   9.734   2.705  1.4457  0.6490  3.4780
   77MOL0     H10333   5.701   9.599   2.596 -0.0219 -0.2603  0.7614
   77MOL0     H10334   5.771   9.485   2.831 -1.3741 -2.5578 -0.2682
   77MOL0     H10335   5.681   9.616   2.905 -0.8613  2.0936 -1.9101
   77MOL0     H10336   5.552   9.444   2.703 -2.6363 -1.2430 -0.6459
   77MOL0     H10337   5.551   9.399   2.875 -1.7889  1.0189  1.3084
   77MOL0     H10338   5.405   9.560   2.943  2.9509 -3.9291  0.6909
   77MOL0     H10339   5.454   9.664   2.805  1.2490  0.7043  1.6664
   77MOL0     H10340   5.333   9.485   2.657  0.9049  2.1132 -0.6691
   77MOL0     H10341   5.253   9.433   2.801 -1.6930 -0.7422 -3.2030
   77MOL0     H10342   5.264   9.730   2.744  0.1463 -1.5786  1.9379
   77MOL0     H10343   5.154   9.616   2.649 -2.2769 -1.5256  0.5375
   77MOL0     H10344   5.059   9.543   2.862  1.0041 -1.0089 -5.4804
   77MOL0     H10345   5.045   9.719   2.840  1.3594  1.2647 -0.1006
   77MOL0     H10346   5.218   9.884   2.961 -1.9353 -0.9587 -0.4618
   77MOL0     H10347   5.174   9.903   3.331 -0.1179  0.9790 -0.5552
   77MOL0     H10348   5.346   9.845   3.324 -3.0054 -4.1606  0.8987
   77MOL0     H10349   5.220  10.090   3.199  0.2937 -0.6542 -1.5395
   77MOL0     H10350   5.366  10.027   3.120 -0.8256 -1.8787 -1.0519
   77MOL0     H10351   5.335  10.121   3.401 -3.1135 -1.7553 -1.1690
   77MOL0     H10352   5.395  10.218   3.266  2.2505  0.6248  2.8693
   77MOL0     H10353   5.597  10.115   3.248 -2.1973  2.0534 -0.8832
   77MOL0     H10354   5.529   9.961   3.320 -0.9783  0.0930 -2.3541
   77MOL0     H10355   5.791  10.014   3.301 -2.6367  0.6023  0.6423
   77MOL0     H10356   6.144   9.998   3.411 -1.1097 -1.3523  2.7684
   77MOL0     H10357   6.088   9.843   3.378 -1.1432 -0.2834 -2.0772
   77MOL0     H10358   6.028   9.976   3.272 -0.3101 -1.3920 -0.5596
   77MOL0     H10359   6.336  10.141   3.608 -2.4651 -1.1246 -0.6155
   77MOL0     H10360   6.583  10.130   3.603  0.2239 -0.4625  1.2428
   77MOL0     H10361   6.776   9.772   3.731 -1.2943  1.8003  0.9858
   77MOL0     H10362   6.791   9.734   3.556 -0.6794 -0.6388 -0.6374
   77MOL0     H10363   7.000   9.887   3.546 -1.0801 -0.3392 -0.5522
   77MOL0     H10364   6.971   9.916   3.718 -2.0687 -0.6995  1.1962
   77MOL0     H10365   7.018   9.662   3.570 -0.1500  1.6247 -0.1629
   77MOL0     H10366   6.977   9.667   3.749  0.5282  3.4760  2.8964
   77MOL0     H10367   7.228   9.738   3.600 -1.8865  0.1297 -0.8175
   77MOL0     H10368   7.203   9.796   3.769  2.2981 -0.2237 -0.5170
   77MOL0     H10369   7.226   9.517   3.669  3.0998 -0.4519  0.3281
   77MOL0     H10370   7.155   9.561   3.828  0.6593  1.1493  0.1808
   77MOL0     H10371   7.450   9.616   3.744  0.6541  2.9463  0.5015
   77MOL0     H10372   7.376   9.696   3.874  0.4339 -1.5107  1.1153
   77MOL0     H10373   7.298   9.488   3.976  0.3808  2.3468 -0.0194
   77MOL0     H10374   7.474   9.503   3.973  2.3905  1.8998 -3.4491
   77MOL0     H10375   7.317   9.335   3.766  0.1661 -2.3547  1.1729
   77MOL0     H10376   7.361   9.285   3.921 -1.0957  1.4389  0.6754
   77MOL0     H10377   6.560   9.704   3.603 -1.7981 -1.0256 -0.7441
   77MOL0     H10378   6.305   9.723   3.620 -1.3621  1.3089  0.8981
   77MOL0     H10379   5.888  10.087   3.779  2.3466 -1.0272 -0.4938
   77MOL0     H10380   5.650  10.124   3.673  0.8194 -1.7565  1.9840
   77MOL0     H10381   6.111   9.828   2.684  2.7279 -0.3215  0.0823
   77MOL0     H10382   6.335   9.802   2.783  0.4707 -3.8294 -0.3268
   77MOL0     H10383   6.551   9.921   3.355 -0.6976 -0.3490  0.7599
   77MOL0     H10384   6.795   9.987   3.360 -1.4183  0.5969 -0.3710
   77MOL0     H10385   7.137   9.837   3.286  0.2392  2.7409  0.5736
   77MOL0     H10386   7.029   9.718   3.200 -1.1890  1.0098 -1.2889
   77MOL0     H10387   7.187   9.943   3.074  1.7986  0.0114  0.6609
   77MOL0     H10388   7.116   9.815   2.984  2.7086  3.3891 -2.1687
   77MOL0     H10389   7.254   9.638   3.083 -2.0684  0.4704  1.7106
   77MOL0     H10390   7.335   9.763   3.185  1.2308  0.6023 -0.5051
   77MOL0     H10391   7.383   9.885   2.959 -0.2747  0.3115 -3.2541
   77MOL0     H10392   7.330   9.745   2.877 -0.7681 -0.2686  0.2366
   77MOL0     H10393   7.745   9.679   2.964  0.2623  0.0182 -0.6282
   77MOL0     H10394   6.859   9.770   2.994 -0.4198  1.2104 -0.3213
   77MOL0     H10395   6.618   9.744   2.972 -0.2735  2.2772 -2.0098
   78MOL0     O10396   8.380   8.755   1.003  0.0349 -0.2374 -0.4088
   78MOL0     C10397   8.298   8.791   1.088  0.8991  0.4262 -0.6436
   78MOL0     O10398   8.316   8.784   1.219  0.0825  0.8650 -0.3552
   78MOL0     C10399   8.444   8.752   1.264 -0.6749 -0.2516 -0.2615
   78MOL0     C10400   8.507   8.850   1.343  0.7336  0.1225  0.1073
   78MOL0     C10401   8.638   8.814   1.408  1.1753  0.8081 -0.6936
   78MOL0     C10402   8.694   8.688   1.377 -0.7539 -1.0552 -0.1292
   78MOL0     O10403   8.812   8.658   1.443 -0.2968 -0.2557  0.1602
   78MOL0     C10404   8.856   8.522   1.470  0.2083  0.0518 -0.7015
   78MOL0     C10405   8.966   8.520   1.580 -0.5770  0.9351 -0.0240
   78MOL0     C10406   9.085   8.622   1.551 -0.0865 -0.1966  0.1504
   78MOL0     C10407   9.126   8.625   1.403  0.3859  0.5505 -0.3278
   78MOL0     C10408   9.249   8.709   1.365 -0.2727 -0.9142  0.2965
   78MOL0     C10409   9.252   8.853   1.415 -0.8857  0.6115  0.2590
   78MOL0     C10410   9.130   8.941   1.384 -1.1013 -0.1683 -0.3666
   78MOL0     C10411   9.125   9.057   1.484 -0.2809 -0.6515  0.4896
   78MOL0     N10412   9.237   9.150   1.461  0.5665  0.2399  0.7506
   78MOL0     C10413   9.352   9.127   1.530 -0.2728 -0.3860 -0.8109
   78MOL0     C10414   9.445   9.214   1.479  0.1255  0.1149  0.1835
   78MOL0     C10415   9.593   9.225   1.517  0.3696  0.0416 -0.4206
   78MOL0     C10416   9.678   9.134   1.430 -0.2146  0.3210 -0.2123
   78MOL0     C10417   9.710   8.997   1.496  0.8080 -0.6183  1.0935
   78MOL0     C10418   9.806   8.907   1.410  0.2111  0.3969 -0.2984
   78MOL0     O10419   9.906   8.854   1.511  0.0125  0.5828 -0.7818
   78MOL0     C10420  10.016   8.782   1.462 -0.1763 -0.5167  0.3058
   78MOL0     C10421  10.100   8.721   1.556 -0.3284 -0.0343 -0.1575
   78MOL0     C10422  10.214   8.651   1.525  0.0260  0.5648 -0.2868
   78MOL0     C10423  10.298   8.590   1.644 -0.0960  0.5299  0.2374
   78MOL0     C10424  10.246   8.639   1.383  0.0528  0.4502 -0.1642
   78MOL0     C10425  10.373   8.560   1.346  0.0788 -0.2386 -0.6254
   78MOL0     O10426  10.468   8.628   1.278  0.4243  0.0038 -0.5274
   78MOL0     C10427  10.585   8.561   1.242 -0.0645 -0.5979 -0.7511
   78MOL0     C10428  10.596   8.485   1.123  0.3325 -0.0258 -0.4938
   78MOL0     C10429  10.721   8.425   1.090  0.4201 -0.7996  0.4568
   78MOL0     C10430  10.832   8.457   1.167 -0.3219 -1.1382  0.6548
   78MOL0     O10431  10.960   8.394   1.132  0.4453 -0.6244 -1.0169
   78MOL0     C10432  11.049   8.478   1.060 -0.1650  1.1784  0.2448
   78MOL0     C10433  11.158   8.386   0.998 -0.1661 -0.7207  0.3605
   78MOL0     C10434  11.274   8.464   0.947 -0.4804 -0.2026  0.6105
   78MOL0     C10435  11.390   8.369   0.919  0.0846  0.7461  0.0744
   78MOL0     C10436  11.509   8.455   0.862  0.3583 -0.3195  0.4119
   78MOL0     C10437  11.634   8.379   0.825  0.2902 -0.7950 -0.3671
   78MOL0     C10438  11.692   8.303   0.950  0.3796 -0.2453  0.2402
   78MOL0     C10439  11.834   8.253   0.931  0.3361 -0.1728 -0.0679
   78MOL0    Cl10440  11.952   8.384   0.914  0.1780  0.1851  0.1101
   78MOL0     C10441  10.836   8.539   1.277  0.0819 -0.3834  0.8132
   78MOL0     C10442  10.707   8.587   1.316 -0.2274 -0.0307  0.5689
   78MOL0     O10443  10.378   8.435   1.367 -0.6952  0.4065 -0.3925
   78MOL0     C10444  10.162   8.694   1.286 -0.4484  0.1589  0.2431
   78MOL0     C10445  10.042   8.764   1.323  0.3725 -0.3243 -0.1173
   78MOL0     N10446   9.384   9.295   1.383  0.0737 -0.1678  0.6725
   78MOL0     N10447   9.258   9.251   1.369 -0.4986  0.1879  0.4466
   78MOL0     C10448   8.630   8.602   1.289  0.4699 -0.5676  0.4547
   78MOL0     C10449   8.502   8.628   1.240  0.0259 -0.4864  0.2644
   78MOL0     C10450   8.162   8.829   1.041 -0.0063  1.0253  0.4342
   78MOL0     C10451   8.066   8.871   1.127 -0.0654  0.3666  0.4739
   78MOL0     C10452   7.938   8.910   1.084  1.0312  0.5854  0.0168
   78MOL0     C10453   7.907   8.897   0.952  0.3501  0.3170  0.2100
   78MOL0     O10454   7.774   8.914   0.920 -0.3591  0.4985  0.3872
   78MOL0     C10455   7.733   8.905   0.778 -0.0309 -0.5638 -0.0343
   78MOL0     C10456   7.673   8.768   0.740  0.8507  0.6520  0.6560
   78MOL0     C10457   7.614   8.672   0.845 -0.3585  0.2347 -0.3591
   78MOL0     C10458   7.714   8.573   0.895  0.2525  0.1622 -0.1855
   78MOL0     C10459   7.661   8.471   0.980  1.0902 -0.4204 -0.3374
   78MOL0     C10460   7.609   8.394   1.061 -0.6690  0.6149  0.5458
   78MOL0     C10461   8.005   8.860   0.857 -1.1490 -0.1740  0.3504
   78MOL0     C10462   8.131   8.831   0.905 -0.2596 -0.9210 -0.2975
   78MOL0     H10463   8.460   8.944   1.372 -0.9988 -0.1115 -1.7508
   78MOL0     H10464   8.679   8.887   1.477 -3.7702  1.6977  1.7546
   78MOL0     H10465   8.766   8.473   1.507  1.5757  0.3455  3.4424
   78MOL0     H10466   8.891   8.467   1.382 -0.1991  0.1015 -0.8952
   78MOL0     H10467   8.916   8.540   1.675 -0.3950  0.8464  0.0913
   78MOL0     H10468   9.014   8.422   1.590 -0.3178  0.8920 -1.4646
   78MOL0     H10469   9.055   8.722   1.584 -0.3269  0.0280 -0.7219
   78MOL0     H10470   9.177   8.589   1.600  0.9667 -0.9130 -2.1630
   78MOL0     H10471   9.138   8.523   1.365  0.7403  0.4561  0.0308
   78MOL0     H10472   9.048   8.671   1.341 -2.4431 -1.6876  1.3208
   78MOL0     H10473   9.340   8.656   1.397 -0.8026 -2.5403 -0.7341
   78MOL0     H10474   9.265   8.725   1.258  1.0313 -0.4017  0.5483
   78MOL0     H10475   9.270   8.836   1.522  2.6967  1.2573 -0.1403
   78MOL0     H10476   9.343   8.908   1.392 -0.6721 -0.4699 -1.6498
   78MOL0     H10477   9.123   8.968   1.278 -0.7851 -1.2988 -0.6911
   78MOL0     H10478   9.034   8.888   1.391  0.9569 -4.0575  1.2562
   78MOL0     H10479   9.145   9.014   1.582  3.0464 -1.8478 -0.5955
   78MOL0     H10480   9.032   9.114   1.482 -1.2190 -2.1222 -0.9099
   78MOL0     H10481   9.374   9.052   1.605  2.1227 -0.0737 -1.1520
   78MOL0     H10482   9.630   9.324   1.490 -1.7796  1.1459  0.4011
   78MOL0     H10483   9.605   9.199   1.622  1.0089 -2.4910 -1.0552
   78MOL0     H10484   9.775   9.181   1.411 -1.1328  1.9824 -1.0290
   78MOL0     H10485   9.631   9.120   1.332  1.3457 -0.0669 -0.9343
   78MOL0     H10486   9.615   8.944   1.506  0.5574  0.0703  2.7220
   78MOL0     H10487   9.745   9.025   1.595  1.8664 -1.9459  1.1243
   78MOL0     H10488   9.846   8.967   1.329 -0.5503 -1.5430 -2.2147
   78MOL0     H10489   9.751   8.816   1.383 -0.7802  1.0050 -0.3810
   78MOL0     H10490  10.079   8.722   1.663 -0.1663 -0.1702 -0.1242
   78MOL0     H10491  10.287   8.482   1.656 -0.3069  0.6568  1.2514
   78MOL0     H10492  10.404   8.609   1.625  0.4361  1.0285  3.2551
   78MOL0     H10493  10.281   8.636   1.742  0.5818 -1.1549  1.1968
   78MOL0     H10494  10.513   8.475   1.053 -1.3814  0.5573  1.3544
   78MOL0     H10495  10.713   8.363   1.002 -3.6212  0.8937 -0.5821
   78MOL0     H10496  10.998   8.519   0.973 -2.3404 -1.1261  0.3144
   78MOL0     H10497  11.087   8.556   1.127  1.1229 -0.6484  1.7486
   78MOL0     H10498  11.189   8.337   1.090 -2.9171 -0.9468  1.2523
   78MOL0     H10499  11.131   8.313   0.920  0.4405 -0.5253 -0.0436
   78MOL0     H10500  11.298   8.530   1.031 -1.9298 -0.1879  1.0399
   78MOL0     H10501  11.250   8.522   0.857  0.5201  1.1980  1.2214
   78MOL0     H10502  11.410   8.310   1.008 -0.1576  2.1359  1.0801
   78MOL0     H10503  11.356   8.302   0.839 -1.6600  0.5213  0.9513
   78MOL0     H10504  11.533   8.530   0.938  2.1885 -1.2923  0.8491
   78MOL0     H10505  11.464   8.510   0.778 -1.9963 -0.6695  1.3710
   78MOL0     H10506  11.607   8.315   0.741  0.0840 -0.6522 -0.4107
   78MOL0     H10507  11.709   8.454   0.800  1.3826 -1.1052  1.7524
   78MOL0     H10508  11.633   8.212   0.959  2.6355 -2.3973 -3.8288
   78MOL0     H10509  11.684   8.371   1.035 -0.9560  0.9281 -0.7704
   78MOL0     H10510  11.829   8.179   0.851 -1.6984 -0.2073  0.0235
   78MOL0     H10511  11.866   8.197   1.019 -0.8200 -0.3658  0.2451
   78MOL0     H10512  10.934   8.548   1.323  1.0048 -0.6422 -1.0302
   78MOL0     H10513  10.681   8.660   1.392 -0.5643 -0.9910  1.4034
   78MOL0     H10514  10.197   8.687   1.184 -0.9698  2.9578 -0.2099
   78MOL0     H10515   9.968   8.810   1.258 -0.3841 -0.7961  0.3817
   78MOL0     H10516   8.668   8.501   1.275 -1.5602 -1.3785  0.4756
   78MOL0     H10517   8.449   8.554   1.182 -3.8873  0.5986  2.1222
   78MOL0     H10518   8.086   8.871   1.234  2.4281  0.7809  0.0591
   78MOL0     H10519   7.858   8.919   1.157 -3.1495 -1.9676 -3.7534
   78MOL0     H10520   7.648   8.974   0.784  0.8974  0.5111  1.5867
   78MOL0     H10521   7.809   8.946   0.711  3.6300 -2.9013  2.3117
   78MOL0     H10522   7.752   8.712   0.691 -1.4595  0.3068 -3.0043
   78MOL0     H10523   7.609   8.775   0.652 -0.7263 -1.1761  1.5867
   78MOL0     H10524   7.533   8.610   0.805 -1.4954 -1.9982  4.6391
   78MOL0     H10525   7.579   8.726   0.933 -0.6343  1.6084 -1.2683
   78MOL0     H10526   7.779   8.642   0.949  0.5274 -0.5579  0.4219
   78MOL0     H10527   7.773   8.525   0.816 -0.2346  1.6671 -1.5357
   78MOL0     H10528   7.562   8.344   1.143  1.0116 -1.0510  0.5505
   78MOL0     H10529   7.982   8.861   0.751 -3.2885 -1.0820  0.7565
   78MOL0     H10530   8.214   8.797   0.843 -0.4664 -1.2542 -0.3980
   79MOL0     O10531   1.478   2.622   3.029  0.0647 -0.2355  0.3095
   79MOL0     C10532   1.461   2.740   3.051 -0.1985  0.2463  0.0091
   79MOL0     O10533   1.504   2.812   3.155  0.0794  0.3008  0.1233
   79MOL0     C10534   1.560   2.739   3.256 -0.8564 -0.2056  0.6954
   79MOL0     C10535   1.696   2.715   3.262 -1.0001  0.1804  0.2774
   79MOL0     C10536   1.741   2.648   3.372 -0.7132 -0.1104  0.0925
   79MOL0     C10537   1.651   2.585   3.465 -1.2843 -0.2593 -0.4949
   79MOL0     O10538   1.683   2.500   3.570 -0.0441 -0.3281 -0.4496
   79MOL0     C10539   1.817   2.464   3.595 -0.8355 -0.1940 -0.0142
   79MOL0     C10540   1.824   2.369   3.714 -0.7511  0.1468  0.3423
   79MOL0     C10541   1.962   2.316   3.753  0.5932  0.5629  0.5202
   79MOL0     C10542   2.070   2.307   3.634  0.7877 -0.0176 -0.3397
   79MOL0     C10543   2.203   2.251   3.673 -0.3380  0.8580 -0.2616
   79MOL0     C10544   2.187   2.099   3.730 -0.3266 -0.1881 -0.0457
   79MOL0     C10545   2.320   2.032   3.741 -0.0103 -0.4421  0.2418
   79MOL0     C10546   2.309   1.899   3.815  0.4677  0.2706 -0.1699
   79MOL0     N10547   2.254   1.787   3.728  0.4215 -0.4043  0.3738
   79MOL0     C10548   2.334   1.723   3.633  0.1879  0.0686  0.0755
   79MOL0     C10549   2.252   1.633   3.568 -0.7462 -0.6173  0.1731
   79MOL0     C10550   2.288   1.517   3.473 -0.0340 -0.5455  0.3338
   79MOL0     C10551   2.383   1.569   3.367  0.4237  0.0521  0.4536
   79MOL0     C10552   2.394   1.458   3.264  0.3379 -0.4367 -0.6350
   79MOL0     C10553   2.517   1.468   3.177 -0.3751  0.3640  0.8731
   79MOL0     O10554   2.541   1.338   3.123 -0.0511 -0.0936 -0.4520
   79MOL0     C10555   2.457   1.292   3.017 -0.3051  0.2259  0.5854
   79MOL0     C10556   2.472   1.162   2.972  0.4527  0.0784  0.0795
   79MOL0     C10557   2.404   1.107   2.863  0.4215 -0.0578 -0.4335
   79MOL0     C10558   2.428   0.955   2.834  0.1531 -0.0302 -0.0214
   79MOL0     C10559   2.312   1.182   2.790 -0.0517 -0.0777  1.2773
   79MOL0     C10560   2.237   1.139   2.663 -0.0957  0.1461 -0.0215
   79MOL0     O10561   2.136   1.222   2.628  0.2033  0.5263  0.1172
   79MOL0     C10562   2.021   1.189   2.557  0.5810  1.1288  0.9968
   79MOL0     C10563   1.981   1.064   2.512  0.0386 -0.2731  0.4353
   79MOL0     C10564   1.877   1.043   2.415 -0.4762 -0.8364  0.0292
   79MOL0     C10565   1.799   1.156   2.371 -0.3699  0.6071 -0.0351
   79MOL0     O10566   1.679   1.144   2.295 -0.1813  0.3818  0.0326
   79MOL0     C10567   1.632   1.012   2.257 -0.6887  0.1295 -0.2083
   79MOL0     C10568   1.499   1.024   2.180  0.6588  0.2139 -0.0556
   79MOL0     C10569   1.525   1.084   2.040  0.0432 -0.7740  0.0373
   79MOL0     C10570   1.399   1.077   1.954  1.5287  0.0650  0.0666
   79MOL0     C10571   1.417   0.986   1.834  0.2129  1.1102  1.3214
   79MOL0     C10572   1.508   1.052   1.733  0.2888 -0.8652  0.7737
   79MOL0     C10573   1.619   0.966   1.691  0.6807  0.4289  0.8758
   79MOL0     C10574   1.737   1.044   1.621  0.4445  0.1411  0.7951
   79MOL0    Cl10575   1.667   1.163   1.497  0.0810 -0.2272  0.1365
   79MOL0     C10576   1.836   1.281   2.411  0.4521  1.2005 -0.2525
   79MOL0     C10577   1.944   1.293   2.504 -0.5885 -0.5247  0.7932
   79MOL0     O10578   2.279   1.035   2.603 -0.1587 -0.8915  0.2799
   79MOL0     C10579   2.303   1.317   2.835 -0.0555 -0.0872  0.3750
   79MOL0     C10580   2.361   1.368   2.953 -0.0162 -0.3179 -0.0442
   79MOL0     N10581   2.128   1.644   3.635  0.0542 -0.0911  0.3417
   79MOL0     N10582   2.125   1.739   3.721 -0.2224 -0.5003  0.2131
   79MOL0     C10583   1.520   2.598   3.440 -0.5619 -1.0434  0.6189
   79MOL0     C10584   1.469   2.683   3.344 -0.2749  0.4139  0.6280
   79MOL0     C10585   1.387   2.810   2.940 -1.1201  0.1118 -0.1503
   79MOL0     C10586   1.307   2.922   2.964 -0.3507 -0.4043  0.2730
   79MOL0     C10587   1.238   2.983   2.856  0.1701 -0.2752  0.4356
   79MOL0     C10588   1.239   2.933   2.727  0.1275  0.0565  0.0295
   79MOL0     O10589   1.171   2.998   2.627 -0.7467 -0.2579 -0.0821
   79MOL0     C10590   1.177   3.140   2.616 -0.3232 -1.1089  0.4279
   79MOL0     C10591   1.158   3.185   2.466 -0.0938  0.0043  0.2469
   79MOL0     C10592   1.271   3.113   2.387  1.1056  0.1276  0.0151
   79MOL0     C10593   1.293   3.180   2.250  0.1413 -0.1125  0.2432
   79MOL0     C10594   1.174   3.171   2.166 -0.2590 -0.0488 -0.1678
   79MOL0     C10595   1.079   3.160   2.088  0.0512  0.8506 -0.1681
   79MOL0     C10596   1.341   2.838   2.700 -0.8622 -0.5612 -0.5501
   79MOL0     C10597   1.405   2.773   2.801 -0.9323  0.4044 -0.2365
   79MOL0     H10598   1.764   2.750   3.185 -1.9302  0.1060 -0.5994
   79MOL0     H10599   1.849   2.651   3.386 -0.3597 -2.1409 -1.6566
   79MOL0     H10600   1.856   2.418   3.504  0.6217 -1.2978  1.1317
   79MOL0     H10601   1.877   2.553   3.612 -0.1009 -0.5073 -0.8851
   79MOL0     H10602   1.787   2.423   3.801  1.3646  2.0996  0.1264
   79MOL0     H10603   1.758   2.284   3.695 -0.5055  0.5179 -2.7909
   79MOL0     H10604   2.010   2.383   3.824  0.8060  0.9592  0.0133
   79MOL0     H10605   1.954   2.215   3.794  0.5407 -0.3315 -1.5340
   79MOL0     H10606   2.026   2.247   3.553 -0.3000  0.8301 -0.3927
   79MOL0     H10607   2.091   2.409   3.602  0.8623  1.1118  2.9442
   79MOL0     H10608   2.271   2.249   3.588  1.5112 -2.1374  1.1375
   79MOL0     H10609   2.245   2.295   3.764 -0.9429 -0.8332  0.8957
   79MOL0     H10610   2.131   2.098   3.824 -0.0618  2.3479  0.1916
   79MOL0     H10611   2.123   2.046   3.659 -0.8625  0.8504 -0.3499
   79MOL0     H10612   2.363   2.012   3.642  0.8702 -1.2083  0.7645
   79MOL0     H10613   2.395   2.094   3.791 -0.0874  1.2648 -1.6428
   79MOL0     H10614   2.245   1.910   3.903 -2.1283 -1.9950 -1.6374
   79MOL0     H10615   2.408   1.873   3.854 -0.2698  2.8332  4.0782
   79MOL0     H10616   2.440   1.726   3.611 -0.0050  2.5081 -0.8303
   79MOL0     H10617   2.325   1.433   3.532 -0.1119  0.0376  1.2420
   79MOL0     H10618   2.197   1.493   3.417 -0.4899  0.4139  0.6400
   79MOL0     H10619   2.479   1.594   3.413  2.4125 -0.4168 -3.0449
   79MOL0     H10620   2.337   1.658   3.322 -1.1843 -2.1454 -2.7051
   79MOL0     H10621   2.294   1.452   3.219 -0.2055  2.6968 -0.0268
   79MOL0     H10622   2.407   1.361   3.313  2.6404 -0.4215 -1.0944
   79MOL0     H10623   2.602   1.486   3.244  0.2754 -1.2077  0.5025
   79MOL0     H10624   2.494   1.551   3.109 -1.8400 -0.4058  0.3786
   79MOL0     H10625   2.531   1.096   3.035  2.3493  2.7652  1.3182
   79MOL0     H10626   2.495   0.955   2.748  0.2189 -2.9472 -0.0778
   79MOL0     H10627   2.484   0.906   2.915 -0.0452  1.6295  1.1781
   79MOL0     H10628   2.335   0.912   2.797  1.2801 -1.8127 -0.9446
   79MOL0     H10629   2.018   0.965   2.538  0.2578 -1.3154 -3.2456
   79MOL0     H10630   1.868   0.941   2.382  3.5949 -1.9558  1.7060
   79MOL0     H10631   1.709   0.964   2.196  0.1065 -0.7236  1.3936
   79MOL0     H10632   1.628   0.943   2.341 -1.8439  0.7355  0.2611
   79MOL0     H10633   1.458   0.923   2.169 -0.1121  0.6917 -2.0597
   79MOL0     H10634   1.424   1.081   2.235 -1.7028 -0.6360 -2.2239
   79MOL0     H10635   1.614   1.040   1.995 -0.1313 -0.7376 -0.3495
   79MOL0     H10636   1.537   1.191   2.057 -0.9754 -0.9666  2.2967
   79MOL0     H10637   1.315   1.036   2.012  2.5247  1.1289  2.3706
   79MOL0     H10638   1.362   1.174   1.920 -2.9957 -0.4694  2.5924
   79MOL0     H10639   1.320   0.968   1.786  0.9028 -1.1091  0.6225
   79MOL0     H10640   1.445   0.885   1.866  0.0358  0.7382  0.3436
   79MOL0     H10641   1.447   1.090   1.650  0.3805 -0.4626  0.8888
   79MOL0     H10642   1.567   1.135   1.773  2.9305 -1.9103 -0.6951
   79MOL0     H10643   1.578   0.879   1.639 -2.0890  0.3605  2.9622
   79MOL0     H10644   1.662   0.918   1.779  0.6590  0.5000  0.9252
   79MOL0     H10645   1.802   0.977   1.564 -1.5012 -0.2822 -1.0637
   79MOL0     H10646   1.779   1.098   1.706  0.5256 -1.1858  1.6355
   79MOL0     H10647   1.775   1.368   2.388 -0.7981  0.6766  0.9329
   79MOL0     H10648   1.978   1.389   2.541  0.8333  0.3402 -2.4045
   79MOL0     H10649   2.251   1.389   2.773 -0.2022 -1.2183 -0.8859
   79MOL0     H10650   2.330   1.466   2.990 -2.5233 -0.5107 -1.4210
   79MOL0     H10651   1.449   2.535   3.494  0.8632 -2.0820  1.3444
   79MOL0     H10652   1.362   2.703   3.339  0.1591  2.7849 -1.9406
   79MOL0     H10653   1.311   2.950   3.068  3.9943  2.7638 -0.4845
   79MOL0     H10654   1.181   3.075   2.871  2.9186  1.6600 -0.3046
   79MOL0     H10655   1.096   3.185   2.675 -0.2917 -2.3842  1.4934
   79MOL0     H10656   1.274   3.170   2.657  0.2945 -1.7834 -0.5194
   79MOL0     H10657   1.183   3.291   2.463  0.3196 -0.1000 -0.1105
   79MOL0     H10658   1.054   3.168   2.436 -0.8544  0.0437  2.6406
   79MOL0     H10659   1.241   3.011   2.361 -1.6445  0.5670  1.1085
   79MOL0     H10660   1.363   3.114   2.446  0.4925  1.0738  0.9841
   79MOL0     H10661   1.377   3.126   2.206  1.5518  0.0326  2.5774
   79MOL0     H10662   1.321   3.285   2.264 -0.4183 -0.0019  0.5681
   79MOL0     H10663   1.004   3.153   2.012 -0.4531  1.1433  0.2994
   79MOL0     H10664   1.368   2.803   2.601  1.9721  0.5110 -0.2258
   79MOL0     H10665   1.467   2.690   2.769 -2.0503 -0.7345  0.4518
   80MOL0     O10666   6.043   2.989   5.969 -0.1015 -0.3828 -0.3263
   80MOL0     C10667   6.153   3.018   6.012 -0.0827 -1.0903 -0.4171
   80MOL0     O10668   6.177   3.088   6.127 -0.3435  0.0679 -0.4841
   80MOL0     C10669   6.087   3.136   6.216 -0.0241  0.2367 -0.4731
   80MOL0     C10670   5.963   3.076   6.251 -0.4917 -0.3853  0.8553
   80MOL0     C10671   5.891   3.138   6.351  1.0543 -0.1493 -0.2050
   80MOL0     C10672   5.920   3.249   6.421 -0.7104  0.7370  0.1859
   80MOL0     O10673   5.834   3.299   6.513  0.1616 -0.5507 -0.6725
   80MOL0     C10674   5.697   3.311   6.473 -0.0966 -0.0795 -0.1309
   80MOL0     C10675   5.622   3.415   6.566 -0.7033  0.1011 -0.0872
   80MOL0     C10676   5.516   3.496   6.493  0.3210 -0.5973 -0.4165
   80MOL0     C10677   5.387   3.425   6.521  1.0645  0.3445  0.3077
   80MOL0     C10678   5.263   3.498   6.460 -0.1040 -0.3872 -0.5331
   80MOL0     C10679   5.115   3.490   6.519 -0.5591 -0.5936  0.4558
   80MOL0     C10680   5.046   3.359   6.505  0.1359  0.7245  0.4134
   80MOL0     C10681   4.895   3.371   6.481  0.0298 -0.4922 -0.5702
   80MOL0     N10682   4.845   3.384   6.341  0.2151  0.8665  0.2749
   80MOL0     C10683   4.902   3.461   6.240  0.7765  0.0743 -1.5213
   80MOL0     C10684   4.830   3.442   6.133  0.3134  0.8302 -0.4469
   80MOL0     C10685   4.829   3.507   6.007  0.3069  0.4864  0.2357
   80MOL0     C10686   4.960   3.560   5.968  0.3201  0.5840  0.1178
   80MOL0     C10687   4.956   3.628   5.833  0.5834  0.0650  0.5587
   80MOL0     C10688   5.102   3.672   5.785  0.2626 -0.3766 -0.8739
   80MOL0     O10689   5.173   3.549   5.768 -0.6439  0.0078  0.6545
   80MOL0     C10690   5.309   3.569   5.740  0.4115 -0.9047 -0.2474
   80MOL0     C10691   5.371   3.695   5.748 -0.5579 -0.2740  0.0016
   80MOL0     C10692   5.507   3.719   5.701 -0.5383 -0.6612  0.3183
   80MOL0     C10693   5.559   3.862   5.696 -0.4908  0.0569 -0.5463
   80MOL0     C10694   5.583   3.602   5.664 -0.0655 -0.9763 -0.1135
   80MOL0     C10695   5.729   3.600   5.642 -0.5922  0.5325 -0.5223
   80MOL0     O10696   5.804   3.704   5.689 -0.1111 -0.5156  0.0733
   80MOL0     C10697   5.941   3.709   5.684 -0.9114  0.0798 -0.6712
   80MOL0     C10698   6.034   3.676   5.583 -0.2489  0.6215 -0.1697
   80MOL0     C10699   6.171   3.692   5.597  0.9573 -0.7353  1.0193
   80MOL0     C10700   6.221   3.742   5.718 -0.5850 -0.8220  0.2818
   80MOL0     O10701   6.361   3.760   5.739 -0.5734  0.9485 -0.8292
   80MOL0     C10702   6.451   3.696   5.654  0.1833 -0.0628  0.8553
   80MOL0     C10703   6.592   3.713   5.693  0.0567  0.4748  0.2281
   80MOL0     C10704   6.603   3.657   5.835  0.2127 -0.7807 -0.4010
   80MOL0     C10705   6.756   3.622   5.861 -1.0592 -0.5008  0.1139
   80MOL0     C10706   6.776   3.610   6.015 -0.8362 -0.4542  0.3203
   80MOL0     C10707   6.706   3.489   6.085 -0.1403  0.6583  1.0904
   80MOL0     C10708   6.786   3.450   6.208 -0.0385  1.3436  0.6628
   80MOL0     C10709   6.717   3.345   6.294  0.2066  0.5788  0.3722
   80MOL0    Cl10710   6.710   3.206   6.192 -0.0699  0.1097  0.4350
   80MOL0     C10711   6.133   3.776   5.825 -0.5278 -0.0575  0.3348
   80MOL0     C10712   6.000   3.758   5.803 -0.2849  0.5131  0.7111
   80MOL0     O10713   5.778   3.494   5.602  0.2394  0.8389 -0.4363
   80MOL0     C10714   5.514   3.481   5.674 -0.2896  0.0445  0.4566
   80MOL0     C10715   5.378   3.466   5.693 -0.3053  0.1761 -0.3498
   80MOL0     N10716   4.742   3.343   6.167  0.0883  0.1398  0.3899
   80MOL0     N10717   4.756   3.301   6.284 -0.4667  0.3191 -0.5734
   80MOL0     C10718   6.046   3.308   6.401 -0.0356  0.7270 -0.2346
   80MOL0     C10719   6.125   3.244   6.300  0.4939 -0.0670 -0.0498
   80MOL0     C10720   6.270   2.984   5.941  1.0438 -0.0251 -0.3393
   80MOL0     C10721   6.378   2.907   6.001 -0.0001  0.8396  0.0380
   80MOL0     C10722   6.502   2.880   5.931 -0.2585 -0.7871 -1.2643
   80MOL0     C10723   6.518   2.945   5.811  0.1266 -0.4879  0.8325
   80MOL0     O10724   6.631   2.939   5.730 -1.1186 -0.1772 -0.3374
   80MOL0     C10725   6.771   2.914   5.782  0.6471  0.4783 -0.4308
   80MOL0     C10726   6.853   3.010   5.704 -0.2917  0.6523 -0.2590
   80MOL0     C10727   6.914   3.118   5.792  0.3069 -1.0897 -0.5245
   80MOL0     C10728   7.036   3.183   5.724  0.0145  0.5254 -0.3321
   80MOL0     C10729   7.069   3.313   5.785  0.9653 -0.3727  1.0358
   80MOL0     C10730   7.104   3.418   5.830 -0.1538 -0.4963  1.0678
   80MOL0     C10731   6.415   3.028   5.754 -0.0081 -0.1544 -1.2351
   80MOL0     C10732   6.291   3.043   5.811  0.7039  0.0483 -0.1387
   80MOL0     H10733   5.922   2.987   6.205 -1.6768 -0.7646  2.5127
   80MOL0     H10734   5.798   3.091   6.383  0.2752  0.4328 -1.4818
   80MOL0     H10735   5.689   3.338   6.367  1.7459 -0.5135 -0.4104
   80MOL0     H10736   5.648   3.214   6.489  0.3335  0.0797  2.6130
   80MOL0     H10737   5.584   3.361   6.653  3.1547 -4.2984 -0.7662
   80MOL0     H10738   5.697   3.486   6.602 -0.0963 -0.0804 -0.9541
   80MOL0     H10739   5.505   3.598   6.531 -4.5410 -0.2745 -2.0446
   80MOL0     H10740   5.527   3.519   6.386 -3.6543  0.1446 -0.8090
   80MOL0     H10741   5.393   3.327   6.472 -1.1501  0.0174  0.5795
   80MOL0     H10742   5.360   3.424   6.627  1.6256  1.8488  0.4793
   80MOL0     H10743   5.291   3.604   6.460  0.4568 -0.5310  0.0195
   80MOL0     H10744   5.253   3.483   6.352 -1.4261  0.4973 -0.5597
   80MOL0     H10745   5.109   3.512   6.627 -0.6379  1.2750  0.1129
   80MOL0     H10746   5.049   3.566   6.476 -0.3129 -0.6155  0.0374
   80MOL0     H10747   5.086   3.293   6.428  0.1836  0.0271  1.0127
   80MOL0     H10748   5.039   3.296   6.595 -4.1094  0.2582 -0.0806
   80MOL0     H10749   4.839   3.444   6.539  0.4165 -1.1740  0.6960
   80MOL0     H10750   4.857   3.276   6.521  0.6936 -0.4207  0.2461
   80MOL0     H10751   4.990   3.524   6.251 -0.5179  1.5367  2.4777
   80MOL0     H10752   4.793   3.433   5.935  3.4070 -0.8681 -0.1049
   80MOL0     H10753   4.760   3.590   6.026 -0.5574  0.1206 -1.1704
   80MOL0     H10754   5.030   3.476   5.973 -1.5253 -0.9833  2.5933
   80MOL0     H10755   5.002   3.625   6.045 -2.0532  1.4594  0.7485
   80MOL0     H10756   4.898   3.719   5.848 -2.3984 -2.0305  2.8003
   80MOL0     H10757   4.904   3.575   5.753 -1.4888 -1.1201  2.5725
   80MOL0     H10758   5.148   3.726   5.868 -0.8820 -0.2196 -0.3310
   80MOL0     H10759   5.090   3.732   5.695  1.0994  1.8967  0.4596
   80MOL0     H10760   5.335   3.792   5.781 -0.7590 -0.6384  0.8725
   80MOL0     H10761   5.625   3.886   5.780  1.1851 -1.1069 -1.4626
   80MOL0     H10762   5.621   3.889   5.610 -0.4281  0.6361 -0.3209
   80MOL0     H10763   5.472   3.927   5.692  0.4645  1.3914 -0.2256
   80MOL0     H10764   5.996   3.632   5.491 -1.6117  1.8678 -0.2350
   80MOL0     H10765   6.230   3.653   5.515 -1.4834 -1.6474 -0.3834
   80MOL0     H10766   6.430   3.590   5.643 -0.1185 -0.0217  1.0511
   80MOL0     H10767   6.442   3.745   5.557 -0.0506 -2.3443 -0.3274
   80MOL0     H10768   6.654   3.651   5.628 -0.0885  0.3230  0.2357
   80MOL0     H10769   6.640   3.812   5.686  0.8921  0.2041  1.7254
   80MOL0     H10770   6.543   3.566   5.847 -0.7043 -0.0239  1.0961
   80MOL0     H10771   6.565   3.723   5.913  4.0019 -1.1448  2.0337
   80MOL0     H10772   6.795   3.535   5.809  0.7634  1.7195 -2.4962
   80MOL0     H10773   6.828   3.696   5.825  0.2314 -1.0243  1.5121
   80MOL0     H10774   6.754   3.705   6.064 -1.2645 -0.4273  0.0845
   80MOL0     H10775   6.883   3.592   6.026 -1.0039 -2.1730 -0.5402
   80MOL0     H10776   6.603   3.515   6.111 -1.4139 -0.2185 -2.6084
   80MOL0     H10777   6.706   3.410   6.010 -0.3723  1.4368  0.2578
   80MOL0     H10778   6.809   3.537   6.270  2.6901  0.9012  0.4157
   80MOL0     H10779   6.883   3.405   6.185 -0.8394 -1.4598  2.2556
   80MOL0     H10780   6.621   3.378   6.335  0.5678  2.0958  0.0352
   80MOL0     H10781   6.784   3.328   6.379 -0.7609  1.6581  1.3764
   80MOL0     H10782   6.162   3.801   5.926  1.7336 -1.5253  0.1317
   80MOL0     H10783   5.934   3.765   5.889 -4.2789 -0.9577 -1.9444
   80MOL0     H10784   5.572   3.394   5.646 -0.8360 -0.0550 -0.3965
   80MOL0     H10785   5.342   3.366   5.669  0.9184  0.1215 -2.1181
   80MOL0     H10786   6.063   3.397   6.461 -1.3400  0.1202  1.1170
   80MOL0     H10787   6.220   3.292   6.276  0.1949 -0.5613 -2.5475
   80MOL0     H10788   6.376   2.861   6.099 -1.7237  0.8909  0.0568
   80MOL0     H10789   6.577   2.815   5.973  3.1249  1.8279 -2.8146
   80MOL0     H10790   6.777   2.944   5.887 -0.9812 -0.9727  0.1259
   80MOL0     H10791   6.813   2.814   5.780 -0.8019 -0.1501 -0.5497
   80MOL0     H10792   6.800   3.036   5.612  0.8894 -1.2466 -1.5554
   80MOL0     H10793   6.937   2.946   5.678 -0.3646 -0.3402  1.7710
   80MOL0     H10794   6.950   3.069   5.883  3.1120  1.8382  0.1577
   80MOL0     H10795   6.839   3.193   5.817  3.6416  1.5090  2.9411
   80MOL0     H10796   7.017   3.181   5.616 -0.6323 -1.7507 -0.2164
   80MOL0     H10797   7.120   3.115   5.739 -1.0886 -1.3875 -2.1363
   80MOL0     H10798   7.152   3.510   5.858 -0.5199  0.4824 -1.3186
   80MOL0     H10799   6.440   3.084   5.665  1.2874  2.1103  0.4306
   80MOL0     H10800   6.204   3.095   5.772 -2.0546 -2.6172  1.9158
   81MOL0     O10801   3.877   7.846   4.164  0.6702 -1.4383 -0.1833
   81MOL0     C10802   3.924   7.858   4.049  0.4016  0.0998 -0.4256
   81MOL0     O10803   3.871   7.818   3.928  0.0821  0.2830 -0.2174
   81MOL0     C10804   3.754   7.759   3.939  0.3310 -0.8793 -0.1569
   81MOL0     C10805   3.723   7.632   3.889 -0.0044  0.1684  0.2750
   81MOL0     C10806   3.607   7.560   3.916  0.6681 -0.7196  0.0712
   81MOL0     C10807   3.501   7.629   3.974  0.5306  1.2649  0.2382
   81MOL0     O10808   3.377   7.557   3.990 -0.6720 -1.0798  0.0209
   81MOL0     C10809   3.338   7.462   3.887 -0.3380 -0.0690  0.3235
   81MOL0     C10810   3.201   7.479   3.851 -0.4914 -0.3099  0.0844
   81MOL0     C10811   3.103   7.391   3.931  0.5900  0.1411 -0.6633
   81MOL0     C10812   2.966   7.392   3.868  0.4641 -0.0820  0.3925
   81MOL0     C10813   2.888   7.266   3.917 -0.9470  0.9798 -0.1902
   81MOL0     C10814   2.747   7.265   3.862 -0.2182 -1.0005  0.3337
   81MOL0     C10815   2.675   7.140   3.909 -0.2458  0.4056 -0.9690
   81MOL0     C10816   2.524   7.150   3.883 -0.2510  0.5342  0.2622
   81MOL0     N10817   2.450   7.057   3.974  0.3817  0.0374  0.2301
   81MOL0     C10818   2.454   7.070   4.113  0.7387  0.6875  0.2545
   81MOL0     C10819   2.387   6.954   4.155  0.2033 -0.8253  0.2635
   81MOL0     C10820   2.333   6.905   4.290 -0.2258  0.4653 -1.0579
   81MOL0     C10821   2.196   6.830   4.288  0.5788 -0.3776  0.4222
   81MOL0     C10822   2.174   6.774   4.428  0.0068  0.5339 -0.1204
   81MOL0     C10823   2.057   6.669   4.438  0.1359 -0.0524 -0.3705
   81MOL0     O10824   1.939   6.748   4.436 -1.1194 -0.1184  0.2000
   81MOL0     C10825   1.819   6.691   4.461  0.0479 -0.0077  0.2739
   81MOL0     C10826   1.701   6.767   4.456  0.3862 -0.2474 -1.6923
   81MOL0     C10827   1.574   6.725   4.503  0.5204  0.4548  0.1474
   81MOL0     C10828   1.459   6.822   4.489  0.4994 -0.1165 -0.9203
   81MOL0     C10829   1.565   6.590   4.536 -0.1923  1.1370 -0.5246
   81MOL0     C10830   1.443   6.535   4.589  0.6833 -0.1249 -0.2364
   81MOL0     O10831   1.374   6.615   4.671 -0.3656  0.0115 -1.0642
   81MOL0     C10832   1.250   6.572   4.717 -0.0692  0.1440  1.1323
   81MOL0     C10833   1.241   6.521   4.840  0.3130  1.1483 -0.2768
   81MOL0     C10834   1.120   6.473   4.887  0.6474  0.1219 -0.1783
   81MOL0     C10835   1.005   6.478   4.803 -0.3643  0.2376 -0.7499
   81MOL0     O10836   0.887   6.436   4.867 -0.3283  0.0514 -0.1327
   81MOL0     C10837   0.762   6.429   4.791 -0.1648  0.1064 -0.1887
   81MOL0     C10838   0.648   6.407   4.887  0.3098  0.3670 -0.5795
   81MOL0     C10839   0.631   6.265   4.935 -0.6599  0.0295 -0.7605
   81MOL0     C10840   0.540   6.268   5.063  0.5183 -0.2750  0.1573
   81MOL0     C10841   0.521   6.125   5.138 -0.8585  0.1911  0.5205
   81MOL0     C10842   0.455   6.019   5.043 -0.5615  0.2467  0.3345
   81MOL0     C10843   0.319   6.077   4.990  0.0872  0.4918  0.2964
   81MOL0     C10844   0.228   5.965   4.938  0.2849  0.2783 -0.8610
   81MOL0    Cl10845   0.309   5.824   4.871 -0.2046 -0.2004  0.0704
   81MOL0     C10846   1.014   6.526   4.675  0.4467 -0.4076 -0.5157
   81MOL0     C10847   1.141   6.570   4.629 -0.2923 -0.3732  0.8422
   81MOL0     O10848   1.405   6.424   4.562  0.4961  0.1354  0.7968
   81MOL0     C10849   1.674   6.505   4.518 -0.3940  0.7443 -0.5607
   81MOL0     C10850   1.799   6.560   4.491 -0.2267 -0.2497  0.2302
   81MOL0     N10851   2.349   6.884   4.046  0.4398 -0.4795  0.0483
   81MOL0     N10852   2.401   6.937   3.931 -0.4656 -0.1638 -0.0085
   81MOL0     C10853   3.520   7.761   4.021  0.0302 -0.5263 -0.2817
   81MOL0     C10854   3.645   7.830   4.007  0.3422 -0.2823  0.0383
   81MOL0     C10855   4.053   7.922   4.033 -0.1057  0.0099  0.6620
   81MOL0     C10856   4.129   7.960   4.140 -0.1533  0.0402  0.3699
   81MOL0     C10857   4.254   8.015   4.123 -0.5158  1.2790  0.0687
   81MOL0     C10858   4.310   8.019   3.992 -0.4125  0.0006 -0.3374
   81MOL0     O10859   4.443   8.049   3.962  0.2595 -0.5236  0.4795
   81MOL0     C10860   4.527   8.068   4.073  0.4169  0.8489 -0.0100
   81MOL0     C10861   4.591   7.939   4.123 -0.8362  0.6459 -0.6890
   81MOL0     C10862   4.706   7.880   4.036  0.2356  0.5061 -0.2361
   81MOL0     C10863   4.753   7.746   4.085  0.0839 -0.8683 -0.0563
   81MOL0     C10864   4.809   7.746   4.226  0.8139  0.1900 -0.2626
   81MOL0     C10865   4.848   7.737   4.336 -0.2073 -0.5922 -0.5637
   81MOL0     C10866   4.218   8.003   3.887 -0.5060 -0.3067 -0.0752
   81MOL0     C10867   4.095   7.954   3.907  0.5810 -0.1620 -0.4888
   81MOL0     H10868   3.793   7.585   3.821 -1.0080  1.0384 -1.4339
   81MOL0     H10869   3.597   7.454   3.894 -0.1350 -1.5295  3.7712
   81MOL0     H10870   3.405   7.472   3.801 -0.0191  0.3627  0.6155
   81MOL0     H10871   3.347   7.358   3.917 -1.1028 -0.6080 -1.1829
   81MOL0     H10872   3.168   7.583   3.866  1.2775  0.4169 -0.8081
   81MOL0     H10873   3.189   7.446   3.747 -0.7411 -0.0533  0.0312
   81MOL0     H10874   3.129   7.285   3.930 -2.8098 -0.8340  0.5544
   81MOL0     H10875   3.096   7.426   4.034 -1.4322 -1.5814 -0.1488
   81MOL0     H10876   2.911   7.486   3.881 -1.2572 -0.1745 -4.2867
   81MOL0     H10877   2.977   7.389   3.760  1.0595 -0.8099  0.4675
   81MOL0     H10878   2.944   7.175   3.899  1.1550  1.9064  1.2441
   81MOL0     H10879   2.873   7.270   4.025 -1.3603  0.3927 -0.2243
   81MOL0     H10880   2.696   7.354   3.900  2.3352  0.4113  0.6866
   81MOL0     H10881   2.751   7.264   3.753 -0.0124  0.0563  0.3227
   81MOL0     H10882   2.703   7.050   3.853 -3.2928 -0.1824 -1.7270
   81MOL0     H10883   2.692   7.129   4.017 -0.9988  0.0996 -0.8725
   81MOL0     H10884   2.505   7.120   3.779  0.2909 -1.7707  0.7610
   81MOL0     H10885   2.483   7.251   3.893 -1.9716  0.0496 -1.2741
   81MOL0     H10886   2.501   7.145   4.176  0.4443 -0.9535  2.5749
   81MOL0     H10887   2.404   6.832   4.331 -3.1914 -1.1249  1.7956
   81MOL0     H10888   2.336   6.989   4.360  0.9686  0.1294 -0.6761
   81MOL0     H10889   2.186   6.749   4.216  1.1652  0.5940 -0.7993
   81MOL0     H10890   2.121   6.905   4.261  3.0696  1.6331 -1.4552
   81MOL0     H10891   2.156   6.850   4.505 -1.0622 -0.9693  1.1923
   81MOL0     H10892   2.263   6.722   4.465 -0.6155 -2.4206 -2.4338
   81MOL0     H10893   2.072   6.615   4.532 -0.9395 -1.8048 -1.1373
   81MOL0     H10894   2.060   6.596   4.357 -1.4914 -0.0079 -0.5138
   81MOL0     H10895   1.702   6.869   4.417  2.1621  1.2156  1.6603
   81MOL0     H10896   1.443   6.875   4.584 -0.4226 -0.9577 -0.5808
   81MOL0     H10897   1.482   6.901   4.417 -3.0193  2.4100  0.4485
   81MOL0     H10898   1.372   6.777   4.440  0.3768  0.3851 -1.1621
   81MOL0     H10899   1.325   6.518   4.909  0.7554  2.9183 -0.6823
   81MOL0     H10900   1.114   6.463   4.995  3.9760  1.1998  0.2305
   81MOL0     H10901   0.729   6.518   4.737 -1.6348  0.7324  1.6444
   81MOL0     H10902   0.765   6.339   4.729  0.6758 -1.2719  1.7509
   81MOL0     H10903   0.668   6.473   4.972  1.7609 -1.8626  0.9461
   81MOL0     H10904   0.561   6.446   4.834  0.4011  0.5224 -0.6136
   81MOL0     H10905   0.733   6.237   4.962  0.0323  1.3086 -1.9547
   81MOL0     H10906   0.597   6.207   4.848  0.4926  0.3663 -1.4506
   81MOL0     H10907   0.586   6.331   5.140  0.0809  2.2540 -1.5334
   81MOL0     H10908   0.443   6.308   5.032  0.4354  1.2132  2.1398
   81MOL0     H10909   0.457   6.135   5.226  2.0191 -1.2764  2.9305
   81MOL0     H10910   0.614   6.093   5.184  0.2987  1.2441 -0.9635
   81MOL0     H10911   0.513   5.993   4.954 -2.6924 -2.3069 -0.4268
   81MOL0     H10912   0.443   5.929   5.102  0.0992 -1.4112 -1.9154
   81MOL0     H10913   0.326   6.150   4.909 -3.3502 -2.7608 -3.3509
   81MOL0     H10914   0.263   6.130   5.068  0.8021 -0.0090  1.1684
   81MOL0     H10915   0.164   6.014   4.863 -0.6889 -0.2816 -0.4097
   81MOL0     H10916   0.164   5.927   5.018 -0.4274 -0.4824 -1.7751
   81MOL0     H10917   0.926   6.522   4.612 -1.9305  0.6876  2.4743
   81MOL0     H10918   1.153   6.606   4.527 -0.7332 -2.2741  0.0791
   81MOL0     H10919   1.684   6.399   4.543  0.8583  1.2092  1.1334
   81MOL0     H10920   1.882   6.490   4.479  1.8886  2.4080 -1.9045
   81MOL0     H10921   3.447   7.811   4.084  0.9728 -0.0623  0.4660
   81MOL0     H10922   3.650   7.933   4.041 -0.4113 -0.1934 -0.0834
   81MOL0     H10923   4.091   7.948   4.241  0.5434  1.3743  0.8152
   81MOL0     H10924   4.300   8.062   4.209 -0.0391  3.6281 -1.3683
   81MOL0     H10925   4.608   8.133   4.039  0.7608  1.2726  1.5106
   81MOL0     H10926   4.484   8.125   4.156 -2.8389  0.7309 -1.4358
   81MOL0     H10927   4.516   7.862   4.138 -1.6810  1.8518  1.8680
   81MOL0     H10928   4.633   7.953   4.223 -2.8664 -2.3793  0.7395
   81MOL0     H10929   4.787   7.954   4.041  1.2164  0.2071 -5.7903
   81MOL0     H10930   4.667   7.870   3.934 -1.1315 -0.0882  0.3247
   81MOL0     H10931   4.838   7.716   4.022  2.1759  1.1064  1.6282
   81MOL0     H10932   4.681   7.664   4.083 -2.3497  1.1302  1.2303
   81MOL0     H10933   4.872   7.712   4.437  0.4913  1.0483 -0.3014
   81MOL0     H10934   4.254   8.045   3.793  5.5727  0.9619  2.3320
   81MOL0     H10935   4.033   7.932   3.821  0.0176 -0.6424  0.0403
   82MOL0     O10936   6.089   4.441   9.471  0.3051 -0.4257  0.0631
   82MOL0     C10937   6.159   4.442   9.368 -0.1695 -0.5068  0.4001
   82MOL0     O10938   6.126   4.384   9.251  0.6530  0.0298  0.3922
   82MOL0     C10939   6.001   4.328   9.234 -0.4637  0.0011 -0.1633
   82MOL0     C10940   5.990   4.220   9.148  0.1748  0.3320 -0.1225
   82MOL0     C10941   5.867   4.164   9.106  0.0964 -0.1484  0.5206
   82MOL0     C10942   5.752   4.226   9.157 -0.4166  0.4391  0.0148
   82MOL0     O10943   5.622   4.182   9.152  0.1927  0.1686 -0.2733
   82MOL0     C10944   5.592   4.088   9.050 -0.6488 -0.6659  0.4570
   82MOL0     C10945   5.438   4.064   9.043 -1.1891 -0.3787  0.3758
   82MOL0     C10946   5.392   3.979   9.157 -0.6018  0.2079 -0.1915
   82MOL0     C10947   5.271   3.885   9.120 -0.0892 -0.0497 -0.4357
   82MOL0     C10948   5.145   3.963   9.134  0.9754 -0.2195  0.9014
   82MOL0     C10949   5.022   3.894   9.076 -0.0235  0.1832 -0.0924
   82MOL0     C10950   4.895   3.938   9.151  0.0151 -0.0769 -0.0365
   82MOL0     C10951   4.780   3.860   9.114  0.0821  0.0067 -0.0309
   82MOL0     N10952   4.747   3.860   8.973 -0.6899  0.1988 -0.0634
   82MOL0     C10953   4.781   3.766   8.876 -0.3468  0.2166 -0.7089
   82MOL0     C10954   4.730   3.811   8.758 -0.3923 -0.3690 -0.3319
   82MOL0     C10955   4.715   3.724   8.639  0.2322 -1.0196 -0.6922
   82MOL0     C10956   4.691   3.575   8.663  0.1179 -0.6200  0.3482
   82MOL0     C10957   4.678   3.499   8.535  0.2504 -0.2184 -0.1077
   82MOL0     C10958   4.648   3.346   8.569 -0.0435 -0.7633  0.6097
   82MOL0     O10959   4.521   3.311   8.629 -0.0003 -0.0218  0.6322
   82MOL0     C10960   4.418   3.303   8.543 -0.2352 -0.0195  0.5262
   82MOL0     C10961   4.291   3.294   8.601 -0.3270 -0.2538  0.2682
   82MOL0     C10962   4.176   3.276   8.531 -1.3074  0.3727  0.0691
   82MOL0     C10963   4.054   3.258   8.613  0.0799 -0.0317  0.5683
   82MOL0     C10964   4.181   3.285   8.386  0.9292  0.0239 -0.1278
   82MOL0     C10965   4.060   3.298   8.310  0.1186 -0.8284 -0.0978
   82MOL0     O10966   4.046   3.215   8.200 -0.1672  0.3596 -0.2883
   82MOL0     C10967   3.924   3.187   8.151 -0.8102  0.4660  0.2881
   82MOL0     C10968   3.822   3.144   8.243 -0.2034 -0.6110  0.4201
   82MOL0     C10969   3.700   3.100   8.204  0.0614 -0.5879  0.4848
   82MOL0     C10970   3.668   3.108   8.065  0.3275  0.6304  0.0748
   82MOL0     O10971   3.539   3.063   8.042 -0.8162  0.8604 -0.5070
   82MOL0     C10972   3.484   3.083   7.912 -0.1363 -0.0392 -0.4306
   82MOL0     C10973   3.340   3.036   7.917 -0.9665 -0.2102 -0.7955
   82MOL0     C10974   3.236   3.115   7.843  1.0387 -0.6585 -0.4750
   82MOL0     C10975   3.105   3.041   7.808  0.3223 -0.3602 -0.4102
   82MOL0     C10976   3.010   3.153   7.755  0.6748 -0.9577  1.1335
   82MOL0     C10977   2.874   3.120   7.758 -0.1802  0.7685 -0.9131
   82MOL0     C10978   2.772   3.220   7.710  0.4370  0.2401 -0.0677
   82MOL0     C10979   2.641   3.166   7.649  1.1140  0.1136  0.8699
   82MOL0    Cl10980   2.592   3.027   7.741 -0.4918 -0.2844  0.4745
   82MOL0     C10981   3.769   3.132   7.972  0.0345 -0.2621  0.0962
   82MOL0     C10982   3.896   3.170   8.014  0.6551  0.0263  0.0680
   82MOL0     O10983   3.984   3.392   8.340  0.4005  0.1876 -0.0746
   82MOL0     C10984   4.304   3.300   8.329 -0.6477 -0.1965  0.5264
   82MOL0     C10985   4.424   3.306   8.399 -0.4657  0.6678  0.1331
   82MOL0     N10986   4.688   3.941   8.777 -0.0350 -0.5189  1.1339
   82MOL0     N10987   4.694   3.958   8.902  0.8358  0.1304  0.9322
   82MOL0     C10988   5.756   4.335   9.249 -0.2407 -0.0062  0.9909
   82MOL0     C10989   5.880   4.386   9.278  0.2710  0.1557  0.5531
   82MOL0     C10990   6.292   4.504   9.378 -0.8554 -0.2685  0.2474
   82MOL0     C10991   6.335   4.553   9.505  0.1878  0.2927  0.4415
   82MOL0     C10992   6.444   4.631   9.523  0.4076  0.0852  0.5965
   82MOL0     C10993   6.531   4.643   9.412 -0.4840 -0.1423  0.6818
   82MOL0     O10994   6.644   4.720   9.417  0.0803  0.6020  0.1980
   82MOL0     C10995   6.682   4.803   9.303 -0.4030  0.2453  0.2715
   82MOL0     C10996   6.777   4.914   9.350 -0.7614  0.0154  0.6647
   82MOL0     C10997   6.926   4.875   9.342 -0.1995 -0.1860  0.4237
   82MOL0     C10998   6.948   4.745   9.421  0.5442  0.9921  0.7169
   82MOL0     C10999   7.096   4.727   9.435 -0.6889 -0.0430  0.2619
   82MOL0     C11000   7.212   4.694   9.447 -0.1729 -0.4297 -0.0130
   82MOL0     C11001   6.491   4.580   9.294  0.9758 -0.7202  0.2058
   82MOL0     C11002   6.376   4.513   9.274  0.6129  0.2892 -0.3779
   82MOL0     H11003   6.083   4.168   9.126 -0.1981 -0.6161  0.4644
   82MOL0     H11004   5.866   4.066   9.059  0.4224  0.3512 -0.5659
   82MOL0     H11005   5.635   4.113   8.953 -2.5137 -0.5474 -0.3813
   82MOL0     H11006   5.642   3.993   9.072  2.3370  0.2613 -1.6740
   82MOL0     H11007   5.377   4.153   9.027 -1.8406 -0.7273  0.8940
   82MOL0     H11008   5.413   4.015   8.949  0.6745  0.2811 -0.5258
   82MOL0     H11009   5.484   3.928   9.187 -0.8268 -0.4195 -0.5678
   82MOL0     H11010   5.368   4.054   9.233  3.6651  1.8791 -0.2110
   82MOL0     H11011   5.279   3.848   9.018 -0.6230  1.6244 -1.1201
   82MOL0     H11012   5.273   3.803   9.192  0.1140 -0.0145 -0.4010
   82MOL0     H11013   5.112   3.986   9.235 -1.8642  0.2497 -0.0363
   82MOL0     H11014   5.151   4.064   9.093 -0.2948  1.6331  4.8408
   82MOL0     H11015   5.014   3.924   8.972  0.6892  2.0576  0.3544
   82MOL0     H11016   5.020   3.785   9.084 -0.4742  0.0820 -1.4294
   82MOL0     H11017   4.910   3.940   9.259 -3.0547  3.1417  0.5021
   82MOL0     H11018   4.871   4.042   9.128 -0.6235  0.5430  3.0468
   82MOL0     H11019   4.684   3.893   9.155  0.8002  0.4990  1.2899
   82MOL0     H11020   4.778   3.756   9.148 -1.2450  0.2163  0.6203
   82MOL0     H11021   4.835   3.672   8.883  1.7890  1.3669 -1.1848
   82MOL0     H11022   4.631   3.772   8.588 -0.2709 -0.1850  0.8340
   82MOL0     H11023   4.808   3.746   8.587 -1.2101  0.9268 -2.6281
   82MOL0     H11024   4.602   3.566   8.726 -0.5151 -0.4400 -0.5096
   82MOL0     H11025   4.780   3.533   8.711  0.9874  0.0048 -0.6876
   82MOL0     H11026   4.769   3.504   8.474  0.2520 -2.2675 -0.3382
   82MOL0     H11027   4.595   3.542   8.478  0.4004  0.0690 -0.1091
   82MOL0     H11028   4.722   3.317   8.645  0.3204  4.0286  2.4498
   82MOL0     H11029   4.665   3.290   8.477 -0.6774 -0.7977  0.5096
   82MOL0     H11030   4.288   3.283   8.709 -2.1693 -0.6948  0.2071
   82MOL0     H11031   4.031   3.151   8.626  0.5544 -0.1819  0.2168
   82MOL0     H11032   4.058   3.302   8.713 -1.0147  1.6101 -0.0873
   82MOL0     H11033   3.976   3.308   8.555  0.6425 -0.9003 -0.9875
   82MOL0     H11034   3.826   3.143   8.351  0.1101  2.9703  0.5857
   82MOL0     H11035   3.626   3.086   8.282 -1.6878  0.6596 -0.8492
   82MOL0     H11036   3.484   3.192   7.905  1.2677  0.1989  2.2189
   82MOL0     H11037   3.545   3.033   7.837  3.1116  0.4818  1.6717
   82MOL0     H11038   3.316   2.933   7.886 -2.6952 -0.1083  0.1265
   82MOL0     H11039   3.305   3.040   8.020 -2.8491 -2.0500 -1.2841
   82MOL0     H11040   3.281   3.150   7.750  0.4680 -1.6519 -1.1441
   82MOL0     H11041   3.224   3.207   7.901  2.3439 -1.7528  1.6702
   82MOL0     H11042   3.109   2.959   7.735 -0.5136 -0.6655 -0.1285
   82MOL0     H11043   3.068   2.997   7.901 -1.0208 -0.0760 -0.7822
   82MOL0     H11044   3.041   3.174   7.653 -0.7777  0.6002  0.9677
   82MOL0     H11045   3.018   3.246   7.812 -1.2223 -1.2398  1.9691
   82MOL0     H11046   2.859   3.029   7.700 -0.0009  1.4280 -2.0046
   82MOL0     H11047   2.851   3.099   7.863  2.1754 -1.7417 -0.8139
   82MOL0     H11048   2.814   3.279   7.628 -0.0984 -2.4048 -2.4012
   82MOL0     H11049   2.746   3.291   7.789  0.3809 -2.1037  2.1785
   82MOL0     H11050   2.648   3.133   7.545 -2.9246 -0.6021  0.6294
   82MOL0     H11051   2.567   3.247   7.654  0.3512  0.0348 -3.9376
   82MOL0     H11052   3.752   3.117   7.866  3.3106 -0.7994 -0.4769
   82MOL0     H11053   3.965   3.183   7.931 -0.3162 -1.5125 -1.0339
   82MOL0     H11054   4.306   3.301   8.221 -1.4127 -2.5699  0.4265
   82MOL0     H11055   4.516   3.308   8.342 -1.2534 -2.4473 -1.4699
   82MOL0     H11056   5.658   4.368   9.284 -1.7446 -1.6432 -1.3625
   82MOL0     H11057   5.890   4.476   9.338  1.2106 -0.2829  1.0873
   82MOL0     H11058   6.282   4.536   9.598 -0.7305  0.5532 -0.0213
   82MOL0     H11059   6.487   4.688   9.605 -0.0688 -0.0367  0.9343
   82MOL0     H11060   6.739   4.741   9.232  1.0454  0.3106  1.3132
   82MOL0     H11061   6.596   4.841   9.248  0.4166  2.4107  0.3806
   82MOL0     H11062   6.756   4.933   9.456 -2.5234  1.5638  0.0772
   82MOL0     H11063   6.759   5.005   9.294  1.5454  0.8721  1.1861
   82MOL0     H11064   6.985   4.956   9.385  2.4578 -2.1279  0.7150
   82MOL0     H11065   6.957   4.868   9.237  1.5457 -1.3215  0.9642
   82MOL0     H11066   6.904   4.662   9.365  0.5462  1.8424 -0.5646
   82MOL0     H11067   6.897   4.757   9.517  0.4509  3.6967  0.4035
   82MOL0     H11068   7.318   4.681   9.437 -0.3138 -0.3616 -1.8619
   82MOL0     H11069   6.561   4.578   9.211  0.8970 -0.6018  0.1383
   82MOL0     H11070   6.345   4.483   9.174 -0.3777  1.4370 -0.4413
   83MOL0     O11071  10.660  11.214   9.624 -0.4211 -0.4470  0.5638
   83MOL0     C11072  10.635  11.144   9.724  1.5137  0.1657  0.7692
   83MOL0     O11073  10.509  11.133   9.785  0.3308 -0.4764  0.0435
   83MOL0     C11074  10.412  11.214   9.723 -0.5876  0.6063 -0.6303
   83MOL0     C11075  10.287  11.151   9.688 -0.1013  0.5545  0.4432
   83MOL0     C11076  10.180  11.231   9.645 -0.3043 -0.6729  0.5253
   83MOL0     C11077  10.201  11.370   9.601 -0.2085  0.4595 -0.7834
   83MOL0     O11078  10.093  11.435   9.547  0.3683 -0.1496  0.8195
   83MOL0     C11079  10.126  11.550   9.473  0.3933 -0.7684  0.6883
   83MOL0     C11080  10.027  11.589   9.359  0.0456 -0.4745  0.0395
   83MOL0     C11081   9.890  11.598   9.411  0.9024  0.9823 -0.5784
   83MOL0     C11082   9.875  11.730   9.496  0.1731  0.3892  0.0985
   83MOL0     C11083   9.749  11.752   9.564  0.5089 -0.0406  0.0478
   83MOL0     C11084   9.737  11.877   9.652 -0.6626  0.6149  0.3519
   83MOL0     C11085   9.605  11.892   9.725  0.7834 -0.1712  0.0826
   83MOL0     C11086   9.587  12.022   9.812  0.0793  0.0536 -0.1860
   83MOL0     N11087   9.473  12.098   9.754  0.3206 -0.5233  0.8167
   83MOL0     C11088   9.491  12.194   9.660  0.7261  0.1823 -0.1484
   83MOL0     C11089   9.373  12.274   9.675 -0.3503  0.7090 -0.5372
   83MOL0     C11090   9.319  12.395   9.611  0.1144  0.3592 -0.2312
   83MOL0     C11091   9.422  12.500   9.568 -0.4394  0.4161 -0.6581
   83MOL0     C11092   9.435  12.505   9.417 -0.0829  0.0063  0.4438
   83MOL0     C11093   9.546  12.590   9.361 -0.3550  0.0340 -0.0448
   83MOL0     O11094   9.547  12.583   9.212 -0.0226 -0.0149 -0.1507
   83MOL0     C11095   9.659  12.528   9.162  0.0880  0.1279  0.4340
   83MOL0     C11096   9.667  12.389   9.147  0.5164 -1.0317  1.4573
   83MOL0     C11097   9.775  12.338   9.073 -0.5218  0.4686  0.0818
   83MOL0     C11098   9.774  12.183   9.055  0.0435  0.7994 -0.9584
   83MOL0     C11099   9.885  12.417   9.038 -0.8565  0.6663 -0.5099
   83MOL0     C11100  10.022  12.370   8.991  0.3605 -0.0748 -0.1550
   83MOL0     O11101  10.120  12.464   8.983 -0.4948 -0.1206  0.6305
   83MOL0     C11102  10.246  12.425   8.930  0.2344 -0.8044  0.4100
   83MOL0     C11103  10.297  12.526   8.847 -0.1274 -0.0031 -0.5989
   83MOL0     C11104  10.422  12.514   8.780  0.2691  1.4971 -0.1861
   83MOL0     C11105  10.498  12.398   8.807 -1.1085  0.1575  0.1126
   83MOL0     O11106  10.626  12.404   8.745  0.9493  0.1091  0.3381
   83MOL0     C11107  10.723  12.342   8.830  0.2558  0.6484  0.6336
   83MOL0     C11108  10.859  12.392   8.783  0.8982 -0.6445  0.0271
   83MOL0     C11109  10.878  12.383   8.628  0.6192 -1.0624 -1.2497
   83MOL0     C11110  11.025  12.363   8.573 -0.0295 -0.4269 -1.6705
   83MOL0     C11111  11.130  12.383   8.682 -0.0429 -0.5726 -0.1077
   83MOL0     C11112  11.278  12.402   8.626 -0.3949 -0.0412 -0.2473
   83MOL0     C11113  11.288  12.471   8.496 -0.3899 -0.3287  0.2011
   83MOL0     C11114  11.437  12.486   8.458  0.1608  0.4273 -0.5204
   83MOL0    Cl11115  11.523  12.614   8.568 -0.3987  0.3817  0.1717
   83MOL0     C11116  10.449  12.301   8.898 -0.7545  0.4541 -0.1469
   83MOL0     C11117  10.324  12.310   8.963 -0.2933 -0.1153 -0.5705
   83MOL0     O11118  10.036  12.256   8.954  0.5635  0.8242 -0.2795
   83MOL0     C11119   9.879  12.555   9.065 -0.3126  0.0912  0.4288
   83MOL0     C11120   9.764  12.607   9.125 -0.2930  0.2316  0.1894
   83MOL0     N11121   9.296  12.216   9.772  0.3218  0.6031 -0.9934
   83MOL0     N11122   9.353  12.111   9.819 -0.5521 -0.8372  0.0560
   83MOL0     C11123  10.328  11.427   9.634  0.9722  0.4970 -0.0378
   83MOL0     C11124  10.426  11.352   9.699  0.2640 -0.1776  0.0924
   83MOL0     C11125  10.747  11.064   9.776  0.5145 -0.0969 -0.5524
   83MOL0     C11126  10.717  10.951   9.855  0.8053 -0.7046  0.5033
   83MOL0     C11127  10.813  10.869   9.907 -0.9437 -0.4716 -0.9227
   83MOL0     C11128  10.948  10.893   9.884  0.6949  0.0103  0.3012
   83MOL0     O11129  11.040  10.814   9.958  0.2748 -0.3550  0.2409
   83MOL0     C11130  11.142  10.740   9.877  0.6879 -0.4406  0.3048
   83MOL0     C11131  11.184  10.602   9.924 -0.1054  0.2379 -0.5251
   83MOL0     C11132  11.067  10.504   9.913 -0.8496  0.2603  0.5804
   83MOL0     C11133  11.117  10.362   9.945  0.1618  0.4254 -0.1181
   83MOL0     C11134  10.993  10.279   9.942 -0.4776 -0.7411  0.2918
   83MOL0     C11135  10.903  10.203   9.954  0.4143 -0.4932  0.2848
   83MOL0     C11136  10.979  10.996   9.797  0.3166  0.6311  0.1701
   83MOL0     C11137  10.879  11.078   9.741 -0.4877  0.1895 -0.5442
   83MOL0     H11138  10.279  11.044   9.708 -0.0203  0.2282 -1.1199
   83MOL0     H11139  10.085  11.181   9.628 -0.6759  0.4594 -0.9851
   83MOL0     H11140  10.145  11.637   9.538 -0.6533  2.2995 -2.7642
   83MOL0     H11141  10.218  11.530   9.417  1.0973 -1.1077  1.9312
   83MOL0     H11142  10.054  11.684   9.312 -1.8218  1.2750  2.2892
   83MOL0     H11143  10.029  11.508   9.285 -2.1197 -0.6407  0.0925
   83MOL0     H11144   9.824  11.595   9.324  1.2433  1.1451 -0.8473
   83MOL0     H11145   9.874  11.513   9.478  1.6879  0.4218 -1.0791
   83MOL0     H11146   9.953  11.723   9.573  0.4111  1.4824 -0.0272
   83MOL0     H11147   9.888  11.810   9.423 -3.3894  2.1075  1.1081
   83MOL0     H11148   9.675  11.744   9.484  0.3661  0.8130  0.0799
   83MOL0     H11149   9.733  11.666   9.629  0.5538 -1.8860 -2.2396
   83MOL0     H11150   9.810  11.859   9.731 -1.6610 -2.6201  0.6937
   83MOL0     H11151   9.757  11.964   9.589  1.7609 -0.4752 -0.5142
   83MOL0     H11152   9.518  11.880   9.659  0.3268  3.3102 -0.1505
   83MOL0     H11153   9.594  11.810   9.796 -2.2862  1.0107  1.1656
   83MOL0     H11154   9.680  12.078   9.807  0.3709 -0.2611  1.2097
   83MOL0     H11155   9.565  11.996   9.916  0.7349 -1.8610 -0.4941
   83MOL0     H11156   9.570  12.206   9.587  0.7936  2.1020  0.1787
   83MOL0     H11157   9.258  12.362   9.526  0.4756 -0.7682 -0.0750
   83MOL0     H11158   9.251  12.434   9.687  3.1309  0.0687  2.8402
   83MOL0     H11159   9.519  12.474   9.610  0.3585  0.7767 -2.2014
   83MOL0     H11160   9.390  12.600   9.596  0.1073  0.1082  1.1955
   83MOL0     H11161   9.342  12.547   9.379  0.6543  1.8251  0.5328
   83MOL0     H11162   9.458  12.407   9.374  1.7770  0.8831 -0.6913
   83MOL0     H11163   9.641  12.559   9.405 -1.1376  1.0477  2.5518
   83MOL0     H11164   9.527  12.694   9.391  1.7793  1.1502 -2.1842
   83MOL0     H11165   9.584  12.330   9.186 -0.6064  0.5166  1.5067
   83MOL0     H11166   9.782  12.156   8.949  1.4658  1.4457 -1.0439
   83MOL0     H11167   9.856  12.131   9.106 -1.8168 -0.3334  1.0499
   83MOL0     H11168   9.680  12.140   9.092 -0.9043  0.9871 -2.9894
   83MOL0     H11169  10.243  12.617   8.826  1.3843  0.7324 -1.4446
   83MOL0     H11170  10.454  12.604   8.728 -0.6092  2.0907  0.2859
   83MOL0     H11171  10.702  12.353   8.937 -3.2459 -3.1376  0.5983
   83MOL0     H11172  10.724  12.234   8.818 -0.1975  0.2375  3.5173
   83MOL0     H11173  10.863  12.498   8.813  0.5064 -0.6298  0.0320
   83MOL0     H11174  10.938  12.338   8.835  2.2951  0.3398 -1.0049
   83MOL0     H11175  10.855  12.486   8.599  3.5919  0.7193  1.9322
   83MOL0     H11176  10.807  12.312   8.585 -1.2994 -0.8887  1.3547
   83MOL0     H11177  11.037  12.259   8.541 -0.4737 -1.3481  0.8765
   83MOL0     H11178  11.041  12.431   8.489 -0.2463  2.3313  0.3918
   83MOL0     H11179  11.130  12.300   8.753 -0.1411 -1.0613 -0.6804
   83MOL0     H11180  11.105  12.477   8.732  0.9215  0.1125 -0.8644
   83MOL0     H11181  11.340  12.452   8.700  2.8089 -1.1169 -1.9776
   83MOL0     H11182  11.330  12.307   8.610  0.9247  0.8883 -1.8029
   83MOL0     H11183  11.233  12.565   8.505 -0.8071 -0.6596  1.2397
   83MOL0     H11184  11.248  12.409   8.415  2.5639 -0.0850 -1.5560
   83MOL0     H11185  11.439  12.516   8.353 -0.4304 -0.2301 -0.7297
   83MOL0     H11186  11.499  12.396   8.463 -0.0017  0.2278 -1.7607
   83MOL0     H11187  10.518  12.219   8.915 -0.0473  0.8545 -1.0381
   83MOL0     H11188  10.285  12.237   9.033  0.7728 -1.0215 -0.8917
   83MOL0     H11189   9.960  12.610   9.019 -1.0978 -1.0337 -2.5709
   83MOL0     H11190   9.745  12.713   9.138 -2.2434 -0.2094  1.2428
   83MOL0     H11191  10.353  11.531   9.613  2.4678 -0.6245 -4.8349
   83MOL0     H11192  10.524  11.391   9.723  0.7230 -1.5105  0.4660
   83MOL0     H11193  10.616  10.917   9.871  0.4630 -0.1355 -0.3612
   83MOL0     H11194  10.786  10.782   9.967 -2.3410  1.1063  0.8516
   83MOL0     H11195  11.112  10.725   9.772 -0.6556  2.3511  0.2013
   83MOL0     H11196  11.219  10.817   9.871  1.4450 -1.2365 -0.6077
   83MOL0     H11197  11.230  10.616  10.023 -0.1620 -0.8670 -0.3196
   83MOL0     H11198  11.265  10.563   9.861 -2.1517  0.0764 -3.2092
   83MOL0     H11199  11.021  10.506   9.814 -0.5529  0.3460  0.4434
   83MOL0     H11200  10.982  10.535   9.974 -3.5970 -2.1346 -1.6801
   83MOL0     H11201  11.156  10.355  10.047  0.0946 -0.1497 -0.1304
   83MOL0     H11202  11.197  10.324   9.880  1.0541 -0.5968  1.5095
   83MOL0     H11203  10.820  10.139   9.975  0.2144 -0.6538 -0.9235
   83MOL0     H11204  11.081  11.029   9.784  0.2069  0.9423  0.0948
   83MOL0     H11205  10.894  11.158   9.669  1.9394  1.5706  1.3475
   84MOL0     O11206   7.487   1.460  10.221  0.2277  0.2989  0.2777
   84MOL0     C11207   7.478   1.571  10.182 -0.8428  0.1107  0.2110
   84MOL0     O11208   7.593   1.644  10.162 -0.6322 -0.6977 -0.2126
   84MOL0     C11209   7.709   1.600  10.209 -0.9199  0.1237 -0.0255
   84MOL0     C11210   7.761   1.680  10.312 -0.0474  0.7412 -0.4983
   84MOL0     C11211   7.896   1.668  10.339 -0.3175 -0.6104 -0.5756
   84MOL0     C11212   7.975   1.573  10.280 -0.8269  0.9439  0.3752
   84MOL0     O11213   8.109   1.571  10.320  0.5286 -0.0033 -0.9915
   84MOL0     C11214   8.207   1.468  10.271  0.2603  0.0464 -0.4156
   84MOL0     C11215   8.268   1.520  10.137  1.0544 -0.5339 -0.5983
   84MOL0     C11216   8.377   1.428  10.075 -0.4222 -0.0518  0.3361
   84MOL0     C11217   8.326   1.279  10.067  0.0151 -1.3721  0.4669
   84MOL0     C11218   8.454   1.201  10.030  0.6446  0.3267 -0.1153
   84MOL0     C11219   8.427   1.053  10.059  0.0252  0.1831 -0.0380
   84MOL0     C11220   8.554   0.983  10.042 -0.0967 -1.1333 -0.3240
   84MOL0     C11221   8.537   0.839  10.068  0.2271  0.2557 -0.5200
   84MOL0     N11222   8.507   0.758   9.951  0.3450  0.1029  0.2880
   84MOL0     C11223   8.590   0.745   9.841 -0.4179 -0.8946  0.8049
   84MOL0     C11224   8.512   0.684   9.750 -0.2817  0.9584  0.2659
   84MOL0     C11225   8.558   0.645   9.612 -0.4616  0.1398 -0.3948
   84MOL0     C11226   8.476   0.734   9.520  0.3009  0.1329  0.1274
   84MOL0     C11227   8.508   0.695   9.372 -0.2415 -0.2239  0.1839
   84MOL0     C11228   8.403   0.763   9.284  0.1497  0.7867  0.4127
   84MOL0     O11229   8.275   0.708   9.330  0.4090  0.0045  0.2843
   84MOL0     C11230   8.172   0.749   9.252  0.9858  0.1443 -0.1155
   84MOL0     C11231   8.060   0.668   9.262 -0.1991  0.5530  0.2364
   84MOL0     C11232   7.939   0.683   9.185 -0.0821  0.3580  0.1924
   84MOL0     C11233   7.837   0.585   9.220 -0.5602 -0.3254 -0.3484
   84MOL0     C11234   7.943   0.784   9.081  0.3932  0.3326  0.2733
   84MOL0     C11235   7.819   0.798   9.004 -0.0992 -0.3655 -0.9101
   84MOL0     O11236   7.803   0.924   8.940 -0.5603 -0.5972  1.1476
   84MOL0     C11237   7.675   0.970   8.911  0.4648  0.1817 -0.2950
   84MOL0     C11238   7.557   0.919   8.977  0.0448  0.3276 -0.2122
   84MOL0     C11239   7.430   0.965   8.945 -0.1263  0.0897  0.7958
   84MOL0     C11240   7.416   1.065   8.846  0.2122 -0.3106  0.0794
   84MOL0     O11241   7.303   1.137   8.809  0.0802 -0.5699 -0.5285
   84MOL0     C11242   7.184   1.082   8.870  0.0605  0.1357 -0.8230
   84MOL0     C11243   7.069   1.166   8.833 -0.8032 -0.3576  0.0556
   84MOL0     C11244   7.054   1.224   8.682  0.0626 -0.2089  0.0417
   84MOL0     C11245   6.920   1.277   8.660  0.7766 -0.5749  0.2280
   84MOL0     C11246   6.913   1.329   8.511 -0.0887 -0.3156 -0.4480
   84MOL0     C11247   7.014   1.445   8.496  0.6594  0.3968  0.8678
   84MOL0     C11248   7.135   1.424   8.418  0.5167 -0.7150  0.8670
   84MOL0     C11249   7.236   1.547   8.415  0.4651  1.2105 -0.2945
   84MOL0    Cl11250   7.161   1.702   8.398 -0.0039 -0.1430  0.2264
   84MOL0     C11251   7.527   1.126   8.797  0.1226  1.4875 -0.1810
   84MOL0     C11252   7.657   1.074   8.826  0.6992 -0.5486  0.0419
   84MOL0     O11253   7.748   0.699   8.988  0.1283  0.2903  0.7740
   84MOL0     C11254   8.059   0.868   9.061 -0.3381  0.4190  0.5151
   84MOL0     C11255   8.161   0.856   9.157 -0.6566  0.6310  0.7911
   84MOL0     N11256   8.400   0.638   9.810  0.0132  0.7548 -0.7713
   84MOL0     N11257   8.397   0.679   9.938 -0.3546  0.2319  0.2767
   84MOL0     C11258   7.907   1.478  10.194 -0.6072 -0.5680  0.5894
   84MOL0     C11259   7.776   1.499  10.147  0.3045  0.4675  0.3574
   84MOL0     C11260   7.354   1.644  10.180 -0.4546  0.4927  0.0545
   84MOL0     C11261   7.338   1.777  10.140  0.3395 -0.7030  1.3362
   84MOL0     C11262   7.212   1.833  10.129  0.8536 -0.0202  0.6679
   84MOL0     C11263   7.092   1.762  10.150  0.3800  0.2503  0.1265
   84MOL0     O11264   6.977   1.820  10.114  0.1260 -0.9030  0.3843
   84MOL0     C11265   6.861   1.739  10.139 -0.8191  0.5206 -0.7847
   84MOL0     C11266   6.759   1.849  10.142  0.4011 -0.6000  0.0908
   84MOL0     C11267   6.750   1.928  10.003  0.3593  0.3860 -0.3233
   84MOL0     C11268   6.638   2.033  10.005  0.0182 -0.8677  0.3570
   84MOL0     C11269   6.505   1.983   9.969  0.7387  0.6005  0.1548
   84MOL0     C11270   6.394   1.953   9.927 -0.2506 -0.3808  0.5768
   84MOL0     C11271   7.110   1.628  10.197 -0.4489  0.3397 -0.4939
   84MOL0     C11272   7.234   1.575  10.218  0.1974  0.5995  0.5892
   84MOL0     H11273   7.700   1.754  10.363 -1.6220 -1.8934  1.7084
   84MOL0     H11274   7.938   1.719  10.425 -2.9715  1.2800 -0.2833
   84MOL0     H11275   8.287   1.455  10.344 -1.4447 -2.3694  1.1608
   84MOL0     H11276   8.148   1.378  10.254 -3.4392  1.8685  1.6066
   84MOL0     H11277   8.187   1.531  10.065 -0.0593  0.1703  0.7269
   84MOL0     H11278   8.313   1.616  10.165 -0.9881 -0.3212  2.3532
   84MOL0     H11279   8.403   1.470   9.977 -1.7255  2.6605  1.0765
   84MOL0     H11280   8.462   1.441  10.143  1.0589  1.9143 -1.7283
   84MOL0     H11281   8.293   1.243  10.165  2.5359  0.4192  2.0868
   84MOL0     H11282   8.247   1.273   9.992  0.9156  1.5925 -0.8589
   84MOL0     H11283   8.480   1.219   9.925  2.6715  1.9115  0.5881
   84MOL0     H11284   8.546   1.231  10.081  0.7084  0.6789 -0.4307
   84MOL0     H11285   8.382   1.036  10.158 -0.8240 -1.8281 -0.7029
   84MOL0     H11286   8.366   1.004   9.982  1.5131 -1.7112 -0.0928
   84MOL0     H11287   8.608   1.001   9.949 -1.6537  1.6537 -0.7901
   84MOL0     H11288   8.632   1.018  10.109  3.1196 -2.2729 -3.1846
   84MOL0     H11289   8.474   0.814  10.154  0.6877 -2.4622 -0.8850
   84MOL0     H11290   8.637   0.804  10.093  0.4434  0.5998 -0.8933
   84MOL0     H11291   8.684   0.797   9.823 -1.4998  0.5202 -1.2303
   84MOL0     H11292   8.662   0.673   9.594 -0.4531 -1.1658 -2.8537
   84MOL0     H11293   8.539   0.539   9.592  0.4293  0.0529 -0.8386
   84MOL0     H11294   8.491   0.840   9.543  0.2171  0.0752  0.4543
   84MOL0     H11295   8.373   0.701   9.539  0.0863  0.0371 -1.0832
   84MOL0     H11296   8.520   0.586   9.363 -1.1901 -0.2817 -0.5111
   84MOL0     H11297   8.603   0.743   9.350 -1.4766  2.4210  0.2638
   84MOL0     H11298   8.425   0.740   9.180 -0.7759 -1.0931  0.5718
   84MOL0     H11299   8.407   0.870   9.303  2.6226  0.7857  0.1595
   84MOL0     H11300   8.059   0.598   9.346 -0.6993 -0.5984 -0.6908
   84MOL0     H11301   7.857   0.553   9.323 -0.3195  2.7821  0.6559
   84MOL0     H11302   7.733   0.618   9.217 -0.5706 -0.3882 -3.1164
   84MOL0     H11303   7.832   0.494   9.160  1.1034 -0.6841 -0.0091
   84MOL0     H11304   7.567   0.832   9.041 -2.8329  1.3505  1.8215
   84MOL0     H11305   7.339   0.933   8.996 -0.3372  3.3504  2.7136
   84MOL0     H11306   7.171   0.983   8.825  0.2999 -0.0889 -0.4092
   84MOL0     H11307   7.188   1.057   8.977 -0.2593  0.4017 -0.7452
   84MOL0     H11308   6.979   1.106   8.853 -0.9560 -0.3098 -0.4601
   84MOL0     H11309   7.050   1.254   8.895 -0.9905  0.1080 -0.6469
   84MOL0     H11310   7.071   1.152   8.602 -0.6342  0.0808 -0.3747
   84MOL0     H11311   7.128   1.301   8.658  2.2262 -3.0468 -3.3068
   84MOL0     H11312   6.835   1.209   8.668  1.4474 -1.2605  2.0544
   84MOL0     H11313   6.887   1.358   8.726 -1.7890  0.8937 -2.5719
   84MOL0     H11314   6.821   1.383   8.486  0.2849  0.2310 -0.6757
   84MOL0     H11315   6.930   1.241   8.448  2.3645 -0.6726  0.5722
   84MOL0     H11316   6.968   1.520   8.432  0.9697 -1.0437 -1.1537
   84MOL0     H11317   7.029   1.493   8.593  1.5449  3.6514 -0.7467
   84MOL0     H11318   7.102   1.401   8.316  3.2479  0.0026 -0.2673
   84MOL0     H11319   7.192   1.341   8.462  0.2585  0.5168  3.7699
   84MOL0     H11320   7.316   1.531   8.343 -0.5393 -0.2591 -1.1467
   84MOL0     H11321   7.290   1.547   8.511  0.8953 -0.9830 -0.4867
   84MOL0     H11322   7.521   1.216   8.738  0.5895  1.9850  0.5064
   84MOL0     H11323   7.744   1.121   8.781 -0.3523  0.3064 -1.1670
   84MOL0     H11324   8.074   0.937   8.979 -0.6184  0.9863  0.9340
   84MOL0     H11325   8.247   0.920   9.138  0.6925 -1.5670 -1.0053
   84MOL0     H11326   7.972   1.412  10.138  1.3652  1.7722 -0.0414
   84MOL0     H11327   7.735   1.437  10.067  0.1084 -1.6445  2.0100
   84MOL0     H11328   7.424   1.830  10.101  1.4433 -3.6412 -0.5517
   84MOL0     H11329   7.188   1.931  10.090  1.4438  0.9111  2.5596
   84MOL0     H11330   6.850   1.668  10.056  0.6334  1.7953 -2.1498
   84MOL0     H11331   6.853   1.699  10.240 -1.9917  2.9186  0.1275
   84MOL0     H11332   6.779   1.911  10.229  2.6473  1.8902 -2.0267
   84MOL0     H11333   6.660   1.812  10.169 -0.4986  0.1419 -1.9418
   84MOL0     H11334   6.753   1.867   9.912 -2.5134  0.7710 -0.7692
   84MOL0     H11335   6.844   1.983   9.990 -0.7424  2.8974  1.6096
   84MOL0     H11336   6.656   2.113   9.933  0.8335 -2.1695 -0.9511
   84MOL0     H11337   6.628   2.089  10.098  0.5231  1.9669 -1.1959
   84MOL0     H11338   6.309   1.912   9.877  0.3705 -1.6418  0.5099
   84MOL0     H11339   7.027   1.560  10.215  1.0467 -0.5035  5.1764
   84MOL0     H11340   7.241   1.473  10.255 -1.7073  0.1570 -0.1622
   85MOL0     O11341   7.790   1.341   1.208 -0.1457  1.0721  0.4203
   85MOL0     C11342   7.745   1.392   1.305  0.6267  0.4974 -0.5727
   85MOL0     O11343   7.643   1.328   1.370  0.0666  0.4064 -0.0114
   85MOL0     C11344   7.620   1.195   1.356  0.5694  0.3074 -0.0335
   85MOL0     C11345   7.493   1.145   1.343 -0.6453 -0.2678 -0.6259
   85MOL0     C11346   7.476   1.006   1.327  0.2506 -0.3184  0.4578
   85MOL0     C11347   7.574   0.908   1.334 -0.6151 -0.0024 -0.0129
   85MOL0     O11348   7.561   0.774   1.314  0.0269  0.3974 -0.3474
   85MOL0     C11349   7.438   0.735   1.250  0.9340  0.5671 -0.0053
   85MOL0     C11350   7.441   0.592   1.221 -0.0497 -0.3887 -0.2573
   85MOL0     C11351   7.308   0.544   1.168  0.0647 -0.5905 -0.2285
   85MOL0     C11352   7.190   0.574   1.258 -0.0452  0.1129 -0.0802
   85MOL0     C11353   7.099   0.687   1.213  0.4326  0.1787  0.0458
   85MOL0     C11354   6.984   0.690   1.316 -0.1687 -0.3716  0.3826
   85MOL0     C11355   6.878   0.577   1.287 -0.7193 -1.2698 -0.0612
   85MOL0     C11356   6.737   0.609   1.342  0.8056 -0.6449  0.1352
   85MOL0     N11357   6.663   0.713   1.271  0.5137 -0.4697  0.6415
   85MOL0     C11358   6.682   0.753   1.144  0.0208  0.0031  0.7058
   85MOL0     C11359   6.574   0.835   1.125 -0.5763  0.7954  0.1101
   85MOL0     C11360   6.542   0.889   0.987 -0.9914 -0.9962  0.6937
   85MOL0     C11361   6.646   0.991   0.931  0.2404  0.5159  0.0497
   85MOL0     C11362   6.708   1.074   1.036  0.0056 -0.3420 -1.1211
   85MOL0     C11363   6.618   1.177   1.107  0.3630 -0.2922 -0.1252
   85MOL0     O11364   6.592   1.284   1.016  0.0099  0.2939  0.4376
   85MOL0     C11365   6.496   1.381   1.044 -0.5334 -0.1091 -0.7285
   85MOL0     C11366   6.443   1.401   1.167  0.1157  0.1807  0.0210
   85MOL0     C11367   6.333   1.483   1.197  0.1769  0.3214  0.7332
   85MOL0     C11368   6.268   1.476   1.330  0.1922 -0.2011 -0.0256
   85MOL0     C11369   6.284   1.558   1.081  0.4701  0.1221  0.2572
   85MOL0     C11370   6.163   1.654   1.098 -0.5712 -0.3242  0.2301
   85MOL0     O11371   6.105   1.691   0.983  0.9890 -0.2463 -0.0827
   85MOL0     C11372   6.003   1.781   1.000 -0.5637 -0.2681 -0.4995
   85MOL0     C11373   5.873   1.733   0.995  0.2928  0.4198 -0.1829
   85MOL0     C11374   5.756   1.819   1.012  0.4441  0.4807  0.7131
   85MOL0     C11375   5.779   1.955   1.037  0.0430  0.3928  0.3243
   85MOL0     O11376   5.691   2.057   1.039  0.3000 -0.2682 -0.1914
   85MOL0     C11377   5.553   2.019   1.049  0.4332 -0.0846 -0.3306
   85MOL0     C11378   5.484   2.140   1.115  0.1797  0.1723  0.3403
   85MOL0     C11379   5.328   2.146   1.096 -0.5339 -0.7455  0.3885
   85MOL0     C11380   5.264   2.039   1.183  0.4156  0.2534 -0.7665
   85MOL0     C11381   5.107   2.048   1.165 -0.0212 -0.4780 -0.0564
   85MOL0     C11382   5.040   1.966   1.282 -0.5639  0.1801 -0.5983
   85MOL0     C11383   4.886   1.965   1.263 -0.1878  0.7576 -0.3099
   85MOL0     C11384   4.825   1.878   1.376 -0.5509 -0.1836  0.2442
   85MOL0    Cl11385   4.645   1.922   1.381 -0.3805  0.5470 -0.0116
   85MOL0     C11386   5.916   2.001   1.049 -0.2501 -0.7699  0.3436
   85MOL0     C11387   6.020   1.917   1.017  0.4333 -0.2164 -0.5573
   85MOL0     O11388   6.137   1.693   1.211  0.0901  0.0718  0.1607
   85MOL0     C11389   6.335   1.547   0.954  0.2733 -0.4204 -0.4305
   85MOL0     C11390   6.436   1.459   0.940  0.1302 -0.4029  0.1450
   85MOL0     N11391   6.491   0.844   1.232 -0.7391 -0.7673 -0.9352
   85MOL0     N11392   6.546   0.765   1.322 -0.0930 -0.0930 -0.2983
   85MOL0     C11393   7.700   0.961   1.348  0.7094 -0.3693  0.1521
   85MOL0     C11394   7.720   1.098   1.356  0.5498 -0.0264 -0.0484
   85MOL0     C11395   7.801   1.514   1.357  0.1642 -0.8591 -0.6364
   85MOL0     C11396   7.771   1.554   1.486  0.2044 -0.8568  0.6001
   85MOL0     C11397   7.821   1.676   1.524  0.0449 -1.2494  0.1291
   85MOL0     C11398   7.927   1.746   1.468  0.3818  0.6429 -0.5796
   85MOL0     O11399   7.998   1.825   1.552 -0.1684  0.8946 -0.6498
   85MOL0     C11400   8.078   1.745   1.644  0.2692  0.2439 -0.1589
   85MOL0     C11401   8.208   1.700   1.575  0.0494  0.2396  0.3494
   85MOL0     C11402   8.291   1.823   1.531  0.2724 -0.2338  0.0612
   85MOL0     C11403   8.347   1.901   1.647 -0.0475  0.7499 -0.2653
   85MOL0     C11404   8.458   1.981   1.606 -0.4664  0.6149 -0.2186
   85MOL0     C11405   8.544   2.048   1.556 -0.1780  0.1778 -0.3783
   85MOL0     C11406   7.960   1.703   1.334  0.7449 -1.1510 -0.2419
   85MOL0     C11407   7.890   1.595   1.278  0.6080  0.2704 -0.9290
   85MOL0     H11408   7.414   1.219   1.343  0.3334  0.8021 -0.6932
   85MOL0     H11409   7.378   0.969   1.299 -0.2432  1.1532  0.1164
   85MOL0     H11410   7.351   0.753   1.314 -0.0281 -0.3204 -1.0242
   85MOL0     H11411   7.425   0.789   1.155  0.7810 -0.8475 -0.8149
   85MOL0     H11412   7.517   0.551   1.153 -1.3763 -3.5903 -0.0045
   85MOL0     H11413   7.457   0.546   1.319  1.8313  0.5551 -0.0672
   85MOL0     H11414   7.288   0.584   1.068 -0.0096  0.5758  0.2387
   85MOL0     H11415   7.320   0.439   1.141 -1.6307 -0.2843 -2.4789
   85MOL0     H11416   7.126   0.486   1.245  0.7690 -0.2740 -1.7850
   85MOL0     H11417   7.239   0.584   1.355 -1.1520 -2.5146  0.8362
   85MOL0     H11418   7.152   0.783   1.216 -2.2419  1.7589  1.9253
   85MOL0     H11419   7.055   0.688   1.112  0.4962  2.2111 -0.0058
   85MOL0     H11420   7.019   0.692   1.420  0.6604  2.6569  0.1331
   85MOL0     H11421   6.938   0.787   1.296 -1.3044 -0.2562  3.0641
   85MOL0     H11422   6.867   0.569   1.178 -3.1728  1.1674 -0.1010
   85MOL0     H11423   6.916   0.486   1.335  1.1439 -0.6376 -0.2758
   85MOL0     H11424   6.753   0.647   1.443  2.2826 -0.2063 -0.2254
   85MOL0     H11425   6.673   0.521   1.345  0.5365 -0.4300  2.3543
   85MOL0     H11426   6.748   0.726   1.061 -0.2833  0.8131  0.1974
   85MOL0     H11427   6.541   0.802   0.920  1.7100  0.3551 -1.2892
   85MOL0     H11428   6.439   0.927   0.985 -0.1343  1.4802  0.4336
   85MOL0     H11429   6.598   1.060   0.861 -0.4558  0.6637  0.6611
   85MOL0     H11430   6.723   0.939   0.875  1.7046  2.3810  0.2410
   85MOL0     H11431   6.791   1.136   1.002  0.8313  1.4484  3.3897
   85MOL0     H11432   6.756   1.009   1.109  0.0153 -0.3697 -1.1526
   85MOL0     H11433   6.667   1.226   1.192  0.9362  0.6221 -0.9569
   85MOL0     H11434   6.527   1.133   1.148  0.3961 -1.4795 -1.2685
   85MOL0     H11435   6.481   1.336   1.246  0.7229 -0.4686 -0.7849
   85MOL0     H11436   6.162   1.454   1.311  0.6268 -0.3692 -2.5018
   85MOL0     H11437   6.296   1.394   1.398 -2.1571 -1.3126 -0.2836
   85MOL0     H11438   6.268   1.575   1.376 -1.9972  0.1944 -0.7654
   85MOL0     H11439   5.865   1.627   0.972  2.7039  0.1181  0.1398
   85MOL0     H11440   5.664   1.764   1.000  2.7781 -3.6515 -0.2328
   85MOL0     H11441   5.517   1.996   0.949 -0.1029 -0.4836 -0.0534
   85MOL0     H11442   5.536   1.936   1.119 -1.1362  0.2402 -0.2872
   85MOL0     H11443   5.516   2.142   1.220  0.3120 -1.8054  0.3667
   85MOL0     H11444   5.524   2.228   1.063  1.8791  1.0957  2.9501
   85MOL0     H11445   5.292   2.119   0.997  0.2428 -0.7125  0.0970
   85MOL0     H11446   5.293   2.249   1.111 -1.2631 -0.6968 -1.4765
   85MOL0     H11447   5.300   1.941   1.149 -0.3656 -0.5745  0.6642
   85MOL0     H11448   5.299   2.060   1.285  0.9598  1.5566 -1.2099
   85MOL0     H11449   5.075   2.010   1.067  0.4561  0.0055 -0.3977
   85MOL0     H11450   5.082   2.153   1.181  0.9088  0.1145 -2.2013
   85MOL0     H11451   5.065   1.860   1.272 -2.5377 -0.3050 -0.8043
   85MOL0     H11452   5.080   2.007   1.375  2.6667  0.3940 -1.9626
   85MOL0     H11453   4.850   1.953   1.161  1.5249 -3.8440 -0.6434
   85MOL0     H11454   4.856   2.069   1.280 -0.0016  1.0894 -1.9287
   85MOL0     H11455   4.875   1.900   1.470 -0.2200 -0.9474  0.2508
   85MOL0     H11456   4.843   1.772   1.356  4.0798 -0.2192  3.2901
   85MOL0     H11457   5.947   2.103   1.068 -1.2637 -0.0713 -1.5529
   85MOL0     H11458   6.121   1.957   1.017  0.4032 -0.1416 -0.9305
   85MOL0     H11459   6.292   1.614   0.880  1.2367  1.3091  0.5026
   85MOL0     H11460   6.469   1.447   0.837 -1.1660 -0.5834 -0.2746
   85MOL0     H11461   7.778   0.885   1.343  1.1800 -0.0140  1.6777
   85MOL0     H11462   7.825   1.119   1.374  1.0572 -1.3099 -1.3188
   85MOL0     H11463   7.705   1.488   1.541 -0.6137 -0.1287  0.5070
   85MOL0     H11464   7.796   1.711   1.624 -1.4970 -1.9274  0.0075
   85MOL0     H11465   8.102   1.793   1.739 -0.0400 -1.4189  0.7888
   85MOL0     H11466   8.027   1.652   1.671 -1.4009  0.8464 -1.0666
   85MOL0     H11467   8.183   1.633   1.492  1.0193  0.4349 -0.1131
   85MOL0     H11468   8.257   1.633   1.646 -2.1684  0.9246  2.6797
   85MOL0     H11469   8.243   1.901   1.471  0.4346  0.0092  0.2445
   85MOL0     H11470   8.375   1.778   1.478  1.3145 -1.0281  2.2395
   85MOL0     H11471   8.368   1.838   1.734  0.8416  4.3211  2.3097
   85MOL0     H11472   8.269   1.970   1.680 -0.9016  0.1392 -0.9584
   85MOL0     H11473   8.617   2.107   1.504  0.2425 -0.1267 -0.1491
   85MOL0     H11474   8.021   1.769   1.273 -1.7224  1.5719  0.0096
   85MOL0     H11475   7.929   1.559   1.183  4.9066 -2.4078  1.5222
   86MOL0     O11476   8.632   1.447   9.295  0.5278  1.0482  0.4923
   86MOL0     C11477   8.748   1.441   9.269 -0.7823 -0.1851 -0.7159
   86MOL0     O11478   8.806   1.528   9.183  0.0456  1.0030 -0.9479
   86MOL0     C11479   8.911   1.475   9.105  0.2301  0.2714 -0.0185
   86MOL0     C11480   9.034   1.548   9.122 -0.0210 -0.4929 -0.0965
   86MOL0     C11481   9.160   1.506   9.071  0.2630 -0.2212  0.3032
   86MOL0     C11482   9.157   1.399   8.981 -0.8237 -0.8679  0.2751
   86MOL0     O11483   9.271   1.376   8.903 -0.7150  0.5717  0.1020
   86MOL0     C11484   9.382   1.327   8.979 -0.0409 -0.4177 -0.7591
   86MOL0     C11485   9.489   1.288   8.883 -0.8503 -0.7102  0.3534
   86MOL0     C11486   9.432   1.176   8.794  0.3416 -0.2540 -0.7936
   86MOL0     C11487   9.538   1.078   8.741 -0.1319 -1.2314 -0.2803
   86MOL0     C11488   9.480   0.959   8.665  0.0400 -0.3877  0.5610
   86MOL0     C11489   9.469   0.988   8.514 -0.0747  0.6051  0.7672
   86MOL0     C11490   9.594   1.040   8.438 -0.6611 -0.5081  0.0064
   86MOL0     C11491   9.570   1.010   8.290  0.4397  1.1839 -0.2989
   86MOL0     N11492   9.441   1.065   8.234  0.0307 -0.3644 -0.0979
   86MOL0     C11493   9.403   1.196   8.255 -0.3246 -0.7368  0.2009
   86MOL0     C11494   9.279   1.204   8.206  0.9484 -0.0950 -0.3609
   86MOL0     C11495   9.202   1.326   8.217  0.0719 -1.2342  0.2744
   86MOL0     C11496   9.062   1.312   8.278 -0.3576 -0.0292  1.1959
   86MOL0     C11497   9.072   1.248   8.421  0.5962  0.5201  0.1009
   86MOL0     C11498   8.931   1.267   8.489  0.0921  0.3327 -0.1409
   86MOL0     O11499   8.949   1.236   8.629 -0.9026  0.8498  0.3027
   86MOL0     C11500   8.840   1.230   8.714 -0.1400 -0.7909 -0.0362
   86MOL0     C11501   8.826   1.128   8.809 -0.1063  1.0298  0.3663
   86MOL0     C11502   8.716   1.100   8.890 -0.2831 -0.0756 -0.1196
   86MOL0     C11503   8.737   0.995   8.989  0.0952  0.0392 -0.4919
   86MOL0     C11504   8.605   1.194   8.882 -0.2530  0.2970  0.7022
   86MOL0     C11505   8.480   1.185   8.964  0.1585  0.0618  0.4392
   86MOL0     O11506   8.390   1.288   8.956  0.0394 -0.2706 -0.1110
   86MOL0     C11507   8.298   1.293   9.046  0.0610 -0.1236 -0.0460
   86MOL0     C11508   8.293   1.368   9.161 -0.3191  0.2241 -0.4127
   86MOL0     C11509   8.173   1.396   9.230 -0.6132 -0.2335 -0.4373
   86MOL0     C11510   8.056   1.331   9.191  0.5216 -0.6774  1.2332
   86MOL0     O11511   7.942   1.367   9.260 -0.2399 -0.1420  0.4870
   86MOL0     C11512   7.815   1.310   9.215 -0.2623  0.0717  1.0307
   86MOL0     C11513   7.750   1.401   9.110 -0.1847 -0.1241  0.4534
   86MOL0     C11514   7.599   1.365   9.109  0.1571 -0.8889 -0.3976
   86MOL0     C11515   7.509   1.443   9.211 -0.6072  0.6657  0.8362
   86MOL0     C11516   7.363   1.429   9.201  0.3094  0.0910  0.4945
   86MOL0     C11517   7.321   1.284   9.213 -0.2702  1.2194  0.6122
   86MOL0     C11518   7.170   1.275   9.263 -0.6936  0.6326 -0.1493
   86MOL0     C11519   7.064   1.339   9.171  0.1584 -0.1083 -0.1700
   86MOL0    Cl11520   6.899   1.291   9.173  0.2038  0.2656 -0.7688
   86MOL0     C11521   8.063   1.240   9.077  0.3000  0.0143 -0.5792
   86MOL0     C11522   8.185   1.224   9.011  0.3759 -0.0891  0.3983
   86MOL0     O11523   8.468   1.090   9.040  0.4238  0.4353  0.3260
   86MOL0     C11524   8.609   1.292   8.783 -1.3303  0.4036  0.9998
   86MOL0     C11525   8.728   1.314   8.702  0.6933 -0.7333 -0.7412
   86MOL0     N11526   9.239   1.082   8.157 -0.8418 -0.0520 -0.1350
   86MOL0     N11527   9.334   1.000   8.169  0.1185 -0.0846 -0.2827
   86MOL0     C11528   9.037   1.332   8.951  0.3940 -0.0994  0.3580
   86MOL0     C11529   8.909   1.365   9.019 -0.4297  0.7785  0.2300
   86MOL0     C11530   8.823   1.318   9.305 -0.0575  0.7385  0.1129
   86MOL0     C11531   8.767   1.190   9.289 -0.5319 -0.4868  0.5671
   86MOL0     C11532   8.831   1.072   9.314  0.3509  0.4791 -0.3448
   86MOL0     C11533   8.964   1.075   9.363  0.6825  0.3816 -0.3692
   86MOL0     O11534   9.024   0.965   9.397 -0.0686  0.1156 -0.2798
   86MOL0     C11535   8.951   0.833   9.407  0.6905  0.8957  0.2295
   86MOL0     C11536   9.047   0.727   9.460 -0.2734  0.1818 -0.1132
   86MOL0     C11537   9.146   0.681   9.358  0.6455 -0.5104  0.3578
   86MOL0     C11538   9.259   0.588   9.418  0.6477 -0.1750 -0.1498
   86MOL0     C11539   9.391   0.620   9.362  0.9822  0.1847  0.2168
   86MOL0     C11540   9.507   0.656   9.331 -1.0271  0.3014 -1.0158
   86MOL0     C11541   9.024   1.203   9.381  0.4146  0.3624 -0.3332
   86MOL0     C11542   8.952   1.321   9.359 -0.0538 -0.3362  0.8538
   86MOL0     H11543   9.031   1.634   9.188 -1.2279 -0.2191 -0.4726
   86MOL0     H11544   9.255   1.556   9.082  1.6448 -3.0787  2.4336
   86MOL0     H11545   9.432   1.407   9.035 -1.3879 -0.1559  0.1005
   86MOL0     H11546   9.358   1.252   9.054  2.9643  0.4425  1.2431
   86MOL0     H11547   9.527   1.363   8.813 -0.9076 -1.5264 -0.5794
   86MOL0     H11548   9.569   1.241   8.942 -2.4998 -0.8790  2.6003
   86MOL0     H11549   9.356   1.120   8.848  0.8734  0.5835  0.8774
   86MOL0     H11550   9.386   1.229   8.710  0.1370 -0.0850 -0.5766
   86MOL0     H11551   9.611   1.135   8.682  0.8516 -1.8798  0.3040
   86MOL0     H11552   9.593   1.038   8.826  1.1856 -2.1193 -1.4954
   86MOL0     H11553   9.544   0.872   8.684 -0.9791 -1.4276 -0.5174
   86MOL0     H11554   9.382   0.928   8.704 -0.1966  1.3660  1.4563
   86MOL0     H11555   9.441   0.892   8.470  0.5058 -0.4243  2.5390
   86MOL0     H11556   9.389   1.058   8.486 -0.0826  0.0874 -0.5699
   86MOL0     H11557   9.610   1.147   8.454 -1.4348 -0.6431  2.0408
   86MOL0     H11558   9.684   0.979   8.457 -0.0330 -0.4014 -2.3683
   86MOL0     H11559   9.579   0.904   8.266  1.6281  1.0860  0.4936
   86MOL0     H11560   9.651   1.040   8.223  0.5843  0.8378 -0.2791
   86MOL0     H11561   9.436   1.284   8.309 -3.3177  0.1011  0.8461
   86MOL0     H11562   9.252   1.409   8.270 -3.1157  1.1430 -0.1257
   86MOL0     H11563   9.184   1.367   8.118  1.2929 -1.6793 -0.1513
   86MOL0     H11564   9.005   1.240   8.218  2.7733 -1.3311 -0.5108
   86MOL0     H11565   9.018   1.412   8.276  1.6616  0.9328 -1.0415
   86MOL0     H11566   9.145   1.294   8.488 -0.9886  2.1766  0.7631
   86MOL0     H11567   9.095   1.141   8.419 -1.0067  0.1597 -1.1765
   86MOL0     H11568   8.856   1.197   8.450  2.5668 -2.8519  0.4003
   86MOL0     H11569   8.906   1.373   8.483  2.0808  0.8360 -0.2119
   86MOL0     H11570   8.916   1.067   8.811  0.6871  2.1309 -0.4134
   86MOL0     H11571   8.819   1.024   9.056 -0.9452  1.6540  0.1583
   86MOL0     H11572   8.657   0.976   9.062  0.5619  1.5324  0.4499
   86MOL0     H11573   8.746   0.902   8.933  0.2351  1.6313 -3.2910
   86MOL0     H11574   8.386   1.402   9.205 -1.0461  1.2965  0.3500
   86MOL0     H11575   8.175   1.457   9.320  0.2549  1.6779 -1.6834
   86MOL0     H11576   7.827   1.210   9.172  2.6537  0.6594  0.2603
   86MOL0     H11577   7.749   1.301   9.301 -1.6486  0.5838  0.0661
   86MOL0     H11578   7.764   1.507   9.133  3.7018 -0.5710  0.7483
   86MOL0     H11579   7.794   1.378   9.013 -1.4585 -2.2234  0.3167
   86MOL0     H11580   7.592   1.256   9.119  2.5866 -1.2927 -2.0501
   86MOL0     H11581   7.562   1.393   9.010 -1.0306  0.8907  0.5112
   86MOL0     H11582   7.534   1.416   9.314  2.3308  1.2671  0.3782
   86MOL0     H11583   7.506   1.552   9.197 -3.9070  0.4546 -1.2059
   86MOL0     H11584   7.324   1.457   9.103 -0.2142 -0.7373  0.4505
   86MOL0     H11585   7.314   1.495   9.273 -0.6294  3.5768 -3.0071
   86MOL0     H11586   7.337   1.223   9.123 -0.8731  0.7271  0.8356
   86MOL0     H11587   7.386   1.230   9.282 -0.2233 -3.2648 -2.4850
   86MOL0     H11588   7.150   1.314   9.363 -1.8308 -0.1990 -0.0275
   86MOL0     H11589   7.144   1.168   9.268 -2.7267  1.1246  2.9965
   86MOL0     H11590   7.104   1.327   9.070 -0.3558  0.8520 -0.4945
   86MOL0     H11591   7.058   1.448   9.177 -0.0399  0.2274 -4.0627
   86MOL0     H11592   7.972   1.201   9.032 -0.8704  3.2636 -1.3192
   86MOL0     H11593   8.182   1.171   8.916 -2.5364 -3.7420  2.2480
   86MOL0     H11594   8.534   1.368   8.767 -1.1213  0.6334  1.1097
   86MOL0     H11595   8.740   1.389   8.625  3.1320  0.5452  0.7731
   86MOL0     H11596   9.041   1.246   8.886  1.2882  0.3606 -0.2198
   86MOL0     H11597   8.814   1.314   9.003  0.8675 -2.1088  0.9503
   86MOL0     H11598   8.664   1.197   9.256 -0.2814  3.6425  0.0462
   86MOL0     H11599   8.780   0.977   9.301  1.2775 -0.6507  3.1640
   86MOL0     H11600   8.871   0.842   9.481 -0.7679 -0.1244 -1.1719
   86MOL0     H11601   8.906   0.800   9.313 -2.2169  0.4452  1.6808
   86MOL0     H11602   8.987   0.637   9.478 -1.2619  0.6088 -1.1466
   86MOL0     H11603   9.104   0.765   9.545 -1.5308  1.6119  0.1500
   86MOL0     H11604   9.189   0.768   9.307 -2.2570  1.6137  1.2525
   86MOL0     H11605   9.094   0.619   9.284 -2.4668 -1.2266  2.9222
   86MOL0     H11606   9.233   0.485   9.395  1.0975 -1.5454  4.5602
   86MOL0     H11607   9.257   0.593   9.527 -0.9331 -1.0872 -0.1123
   86MOL0     H11608   9.602   0.702   9.312 -1.9040  3.7419  1.9841
   86MOL0     H11609   9.130   1.206   9.405  1.2099 -2.7816 -2.8028
   86MOL0     H11610   9.006   1.411   9.386  1.0760 -0.9095  0.5521
   87MOL0     O11611   9.228   7.979   7.246 -0.4755  0.7446 -0.0564
   87MOL0     C11612   9.112   7.983   7.291  0.4485  0.3037 -0.0315
   87MOL0     O11613   9.077   7.927   7.412  0.0519 -0.2990 -0.0028
   87MOL0     C11614   9.160   7.887   7.504 -0.1586  0.1354 -0.0411
   87MOL0     C11615   9.114   7.797   7.604  1.4683 -0.1634 -0.0286
   87MOL0     C11616   9.190   7.742   7.704  0.3029  0.0717 -0.7171
   87MOL0     C11617   9.329   7.771   7.717 -0.1066  0.6758  0.3037
   87MOL0     O11618   9.423   7.729   7.810 -0.2984  0.6998  0.4173
   87MOL0     C11619   9.389   7.615   7.897  0.0045 -0.0299 -0.4161
   87MOL0     C11620   9.512   7.552   7.964 -0.3652  0.5750 -0.2750
   87MOL0     C11621   9.473   7.454   8.079 -0.1200  0.1281  0.2603
   87MOL0     C11622   9.598   7.377   8.116  0.2840  0.3764  0.5945
   87MOL0     C11623   9.560   7.271   8.217  0.3726  0.8179 -0.9212
   87MOL0     C11624   9.683   7.192   8.266  0.4574  1.1802 -0.6873
   87MOL0     C11625   9.629   7.092   8.377  0.4155 -0.4585 -0.2855
   87MOL0     C11626   9.554   6.975   8.316 -0.1091  0.0170  0.4677
   87MOL0     N11627   9.508   6.865   8.403 -0.0479 -0.4814 -1.2992
   87MOL0     C11628   9.572   6.814   8.513 -0.4724 -0.6349 -0.0558
   87MOL0     C11629   9.505   6.707   8.551  0.4318 -0.2514  0.0334
   87MOL0     C11630   9.532   6.608   8.666  0.8713  0.6336  0.6683
   87MOL0     C11631   9.632   6.498   8.619  0.4318 -0.1938  0.5617
   87MOL0     C11632   9.590   6.354   8.645  0.4681  0.0407 -0.1048
   87MOL0     C11633   9.693   6.244   8.610 -0.3453  0.1421  0.1934
   87MOL0     O11634   9.756   6.251   8.479  0.1809  0.0000  0.3016
   87MOL0     C11635   9.820   6.150   8.419  0.2148 -0.1121 -0.5658
   87MOL0     C11636   9.872   6.176   8.293 -0.0985  0.1798 -0.1835
   87MOL0     C11637   9.912   6.075   8.208  0.6983  0.6118 -0.2660
   87MOL0     C11638   9.958   6.100   8.062  0.1615 -0.0710  0.0878
   87MOL0     C11639   9.929   5.942   8.267 -1.5264  0.4119 -0.6477
   87MOL0     C11640   9.988   5.817   8.200 -0.6631 -0.6264  1.1960
   87MOL0     O11641  10.044   5.728   8.281  0.0996 -0.3629  0.4120
   87MOL0     C11642  10.137   5.635   8.243  1.0190  0.3388 -0.6403
   87MOL0     C11643  10.130   5.567   8.114 -0.1266 -0.3864 -0.5827
   87MOL0     C11644  10.232   5.474   8.088 -0.7490 -0.7046 -0.4892
   87MOL0     C11645  10.329   5.440   8.182 -1.0177 -0.7251 -0.1235
   87MOL0     O11646  10.436   5.351   8.156 -0.1998 -0.0724 -0.0234
   87MOL0     C11647  10.497   5.355   8.025 -0.6639  0.5961  0.7992
   87MOL0     C11648  10.627   5.275   8.046 -0.4500 -1.5311 -0.0374
   87MOL0     C11649  10.600   5.132   8.027  0.0254 -0.0010  0.1389
   87MOL0     C11650  10.715   5.057   8.096  0.0881 -0.0258  0.8939
   87MOL0     C11651  10.690   4.901   8.096 -0.4550  0.3366  1.1985
   87MOL0     C11652  10.583   4.821   8.183  0.4856  0.0483 -0.1805
   87MOL0     C11653  10.592   4.848   8.335 -0.1255 -0.2911  0.3417
   87MOL0     C11654  10.662   4.733   8.414 -0.5368  0.3052  0.5770
   87MOL0    Cl11655  10.835   4.725   8.362 -0.4589 -0.1323 -0.1966
   87MOL0     C11656  10.328   5.507   8.304  0.0069 -0.2456  0.1222
   87MOL0     C11657  10.245   5.613   8.329 -0.0408  0.8903  0.1280
   87MOL0     O11658   9.974   5.801   8.078  0.2325 -0.1332  0.4693
   87MOL0     C11659   9.878   5.917   8.397  0.1957 -0.6853  0.5184
   87MOL0     C11660   9.823   6.022   8.472  0.7401 -0.3683  0.3309
   87MOL0     N11661   9.394   6.695   8.466 -0.7019  0.3184  0.1447
   87MOL0     N11662   9.403   6.785   8.382 -0.9243  0.2217  0.0741
   87MOL0     C11663   9.381   7.867   7.627 -0.5987  0.6101 -0.1950
   87MOL0     C11664   9.304   7.926   7.523  0.2444 -0.0526  0.2297
   87MOL0     C11665   9.010   8.039   7.205 -0.3098 -0.0225  0.1747
   87MOL0     C11666   9.039   8.060   7.070 -0.2336  0.7490  0.4815
   87MOL0     C11667   8.941   8.099   6.979 -0.1666 -0.2207 -0.1730
   87MOL0     C11668   8.820   8.136   7.032  0.2300  0.6459  0.7499
   87MOL0     O11669   8.723   8.162   6.946 -0.6326  0.0345  0.4111
   87MOL0     C11670   8.638   8.051   6.913  0.1546  0.1859 -0.2784
   87MOL0     C11671   8.500   8.099   6.876 -0.1534 -1.2927 -0.5421
   87MOL0     C11672   8.395   7.986   6.859  0.0605 -0.5157 -0.7301
   87MOL0     C11673   8.262   8.051   6.831 -0.2148 -0.2926 -0.4176
   87MOL0     C11674   8.150   7.968   6.866 -0.6016  0.3948 -0.6088
   87MOL0     C11675   8.062   7.900   6.911 -0.0317  0.3332  0.0168
   87MOL0     C11676   8.796   8.124   7.161  0.5616  0.4160  0.2296
   87MOL0     C11677   8.883   8.074   7.250 -0.4196  0.2880 -0.0226
   87MOL0     H11678   9.009   7.770   7.593  1.4464 -0.7638  1.3942
   87MOL0     H11679   9.142   7.684   7.782 -2.2940  1.5312 -1.1333
   87MOL0     H11680   9.333   7.661   7.978  1.4289  0.0796  0.5446
   87MOL0     H11681   9.334   7.534   7.847 -1.7680 -1.7810  3.8895
   87MOL0     H11682   9.585   7.508   7.895  0.4408  0.8441  0.3793
   87MOL0     H11683   9.561   7.646   7.994  1.5404 -0.7094  0.8440
   87MOL0     H11684   9.438   7.509   8.166 -2.5699 -0.7032 -0.1305
   87MOL0     H11685   9.397   7.379   8.058  2.1162 -2.0482 -0.5179
   87MOL0     H11686   9.651   7.324   8.037 -1.3664 -0.3593 -0.0715
   87MOL0     H11687   9.668   7.449   8.157  0.7210  1.1770 -1.4139
   87MOL0     H11688   9.517   7.311   8.309 -1.7830  0.3956 -1.7064
   87MOL0     H11689   9.487   7.202   8.175 -0.7415  1.2293  0.3114
   87MOL0     H11690   9.727   7.123   8.194 -1.4964 -2.3336  1.2391
   87MOL0     H11691   9.758   7.252   8.319  0.3928 -0.0511  0.8675
   87MOL0     H11692   9.706   7.052   8.444  1.2442 -0.5963 -1.2864
   87MOL0     H11693   9.564   7.148   8.445 -1.4704 -0.8804 -1.6478
   87MOL0     H11694   9.610   6.937   8.231  2.9019  1.3583  1.7188
   87MOL0     H11695   9.463   7.009   8.266 -0.4975 -2.1732 -0.4254
   87MOL0     H11696   9.664   6.854   8.556  0.7464  0.2228 -3.1798
   87MOL0     H11697   9.573   6.662   8.752  0.9140  0.6026  0.6675
   87MOL0     H11698   9.441   6.555   8.698 -0.2152  0.8449 -1.8700
   87MOL0     H11699   9.725   6.512   8.675  1.5909 -0.0962 -1.3108
   87MOL0     H11700   9.650   6.508   8.512 -1.6077  0.4398  0.2473
   87MOL0     H11701   9.500   6.334   8.586  2.6125 -1.6964 -3.0822
   87MOL0     H11702   9.556   6.341   8.748  1.3486  1.2828  0.3806
   87MOL0     H11703   9.660   6.143   8.634 -1.6830  0.3496 -0.6644
   87MOL0     H11704   9.779   6.261   8.676 -1.4455 -2.2315  2.4212
   87MOL0     H11705   9.870   6.280   8.264 -0.2127  1.0106  2.5787
   87MOL0     H11706  10.065   6.083   8.043  0.2087  0.7225 -0.4158
   87MOL0     H11707   9.901   6.024   8.008  0.3046 -0.8351  0.9918
   87MOL0     H11708   9.931   6.204   8.039  3.1525  1.4037  2.4412
   87MOL0     H11709  10.070   5.597   8.029 -1.0365 -2.6395 -0.8125
   87MOL0     H11710  10.220   5.431   7.989  1.0313 -3.4917  0.3788
   87MOL0     H11711  10.438   5.309   7.946  0.2990 -0.3274  0.5901
   87MOL0     H11712  10.534   5.455   8.000  0.8655  0.4573  2.3303
   87MOL0     H11713  10.702   5.308   7.973  0.7130 -2.1370  0.8610
   87MOL0     H11714  10.657   5.300   8.148  0.1388 -2.1807 -0.0466
   87MOL0     H11715  10.596   5.112   7.920 -1.9682 -2.4108  0.5539
   87MOL0     H11716  10.499   5.102   8.059 -0.1470  0.5305  0.0942
   87MOL0     H11717  10.801   5.082   8.034 -1.1779 -0.6703 -1.2419
   87MOL0     H11718  10.742   5.085   8.199  3.1028 -3.3612  1.1887
   87MOL0     H11719  10.792   4.867   8.116  0.8316  2.4641 -1.1951
   87MOL0     H11720  10.664   4.868   7.996  1.4875 -0.8656  1.0304
   87MOL0     H11721  10.482   4.848   8.149  0.0727 -1.7400 -0.4664
   87MOL0     H11722  10.592   4.714   8.162  0.6335 -0.0704  0.4600
   87MOL0     H11723  10.488   4.843   8.369  0.1408 -2.4612  1.0198
   87MOL0     H11724  10.635   4.945   8.359  0.8530 -0.1148 -1.9346
   87MOL0     H11725  10.609   4.642   8.386 -0.6531  1.2312 -2.5376
   87MOL0     H11726  10.652   4.752   8.522 -0.9056  1.0390  0.4204
   87MOL0     H11727  10.425   5.502   8.353  0.0307 -2.1804 -0.0227
   87MOL0     H11728  10.260   5.679   8.414 -0.6147  2.7336 -1.1269
   87MOL0     H11729   9.903   5.822   8.443  0.5077 -0.2600  1.2385
   87MOL0     H11730   9.785   6.008   8.573 -1.9844  1.5041 -0.3060
   87MOL0     H11731   9.484   7.901   7.631 -0.4930  0.4935 -1.5919
   87MOL0     H11732   9.343   7.998   7.452 -2.4360  3.0204  1.5738
   87MOL0     H11733   9.137   8.044   7.025 -0.1557 -0.5083  1.0643
   87MOL0     H11734   8.952   8.110   6.872  1.8352  0.9251  0.0978
   87MOL0     H11735   8.670   7.985   6.832  0.6523 -1.9980  1.5875
   87MOL0     H11736   8.632   7.985   7.000  0.1022 -1.0197 -1.1805
   87MOL0     H11737   8.509   8.144   6.777  3.7222 -0.5235  0.0141
   87MOL0     H11738   8.485   8.180   6.948  0.4694 -0.7882 -0.9694
   87MOL0     H11739   8.382   7.933   6.954 -0.9743  0.7746 -0.1155
   87MOL0     H11740   8.430   7.899   6.802 -0.5786 -2.1906  1.3181
   87MOL0     H11741   8.245   8.071   6.725 -1.7179  0.4797 -0.0721
   87MOL0     H11742   8.251   8.143   6.889 -2.7449 -1.4736  1.1992
   87MOL0     H11743   7.981   7.844   6.952  1.9262 -0.9062  2.4812
   87MOL0     H11744   8.696   8.161   7.184  0.9868  1.3562  0.6305
   87MOL0     H11745   8.874   8.061   7.357  3.3510 -1.1347  0.2884
   88MOL0     O11746  11.233   1.646   9.044  0.6342 -0.1901 -0.0737
   88MOL0     C11747  11.289   1.572   9.116 -0.1709  0.4773 -0.6781
   88MOL0     O11748  11.238   1.468   9.189 -0.0747 -0.4819  0.0375
   88MOL0     C11749  11.098   1.462   9.190  0.6977  0.8619 -0.4942
   88MOL0     C11750  11.024   1.495   9.304  1.2719 -0.2423  0.6376
   88MOL0     C11751  10.885   1.473   9.297 -0.3739  0.7083 -0.7682
   88MOL0     C11752  10.827   1.411   9.184  0.0514  0.4904  0.7113
   88MOL0     O11753  10.695   1.376   9.208 -0.2431  0.2764 -0.7600
   88MOL0     C11754  10.626   1.281   9.129  0.0897 -0.3813  0.0429
   88MOL0     C11755  10.500   1.226   9.189  0.5509 -0.2462 -0.3647
   88MOL0     C11756  10.396   1.344   9.224  0.6098  0.6322  0.1659
   88MOL0     C11757  10.320   1.382   9.095 -1.5214 -0.1854 -0.3327
   88MOL0     C11758  10.216   1.485   9.131 -0.2028  0.1065  0.5540
   88MOL0     C11759  10.098   1.430   9.210  0.1134  0.3299  0.1147
   88MOL0     C11760  10.005   1.533   9.262  0.6780  0.2860  0.0146
   88MOL0     C11761   9.888   1.473   9.338 -0.0469 -0.2219  0.5099
   88MOL0     N11762   9.766   1.552   9.334  0.4599 -0.1349  0.0628
   88MOL0     C11763   9.730   1.644   9.430 -0.6364  0.3928 -0.5600
   88MOL0     C11764   9.589   1.650   9.422 -0.2284 -0.0141 -0.4803
   88MOL0     C11765   9.507   1.752   9.501  0.3720  0.1725  0.1021
   88MOL0     C11766   9.368   1.694   9.533 -0.4917 -0.2152  0.6510
   88MOL0     C11767   9.298   1.767   9.652  0.3610 -0.1310 -0.1082
   88MOL0     C11768   9.138   1.768   9.642  0.5677  0.1356  0.3522
   88MOL0     O11769   9.072   1.820   9.756 -0.0328 -0.1888 -0.1921
   88MOL0     C11770   8.936   1.804   9.755 -0.0544 -0.0694  0.3096
   88MOL0     C11771   8.863   1.747   9.646  0.7992  0.1329  0.0257
   88MOL0     C11772   8.725   1.731   9.657 -0.2099 -0.3628 -0.3466
   88MOL0     C11773   8.660   1.663   9.536  0.4824  0.5442 -0.7419
   88MOL0     C11774   8.654   1.768   9.774  0.6851 -0.1926 -0.1327
   88MOL0     C11775   8.511   1.751   9.788  0.3056  0.3417 -0.2953
   88MOL0     O11776   8.441   1.691   9.693  0.4161  0.3029 -0.3381
   88MOL0     C11777   8.320   1.640   9.720 -0.1531 -0.3881 -0.1467
   88MOL0     C11778   8.307   1.503   9.692  0.0949 -0.6813 -0.8161
   88MOL0     C11779   8.185   1.433   9.711  0.1265  0.0548  0.0668
   88MOL0     C11780   8.069   1.498   9.761  0.1261  0.0377 -0.7746
   88MOL0     O11781   7.959   1.435   9.801 -0.0416  0.4419 -0.4263
   88MOL0     C11782   7.913   1.324   9.718 -0.5185 -0.5965 -0.3459
   88MOL0     C11783   7.780   1.270   9.764  0.5233  0.1998 -0.1121
   88MOL0     C11784   7.672   1.371   9.723 -0.2544 -0.1010 -0.4549
   88MOL0     C11785   7.537   1.353   9.793  0.4572  0.7556  0.2180
   88MOL0     C11786   7.437   1.475   9.771 -0.0390 -0.5916  0.7334
   88MOL0     C11787   7.300   1.442   9.824  0.4214  0.0244 -0.0859
   88MOL0     C11788   7.209   1.554   9.785  0.6150  0.1422 -0.0506
   88MOL0     C11789   7.072   1.511   9.744 -0.6061 -0.0449 -0.1167
   88MOL0    Cl11790   6.952   1.629   9.774  0.4793 -0.2867 -0.2983
   88MOL0     C11791   8.086   1.633   9.797  0.2244 -0.0253  0.3341
   88MOL0     C11792   8.207   1.701   9.770 -0.0778  0.1916 -1.2687
   88MOL0     O11793   8.459   1.789   9.897  0.5391  0.0562 -0.0046
   88MOL0     C11794   8.727   1.826   9.876  0.0669 -1.1894  0.0507
   88MOL0     C11795   8.864   1.846   9.868  0.0060 -0.2771 -0.2022
   88MOL0     N11796   9.551   1.570   9.317 -0.4502  0.3018 -0.0236
   88MOL0     N11797   9.652   1.522   9.260 -0.0871 -0.3138  0.1956
   88MOL0     C11798  10.897   1.392   9.068  0.1449 -0.1874 -0.5487
   88MOL0     C11799  11.033   1.408   9.073 -0.6094 -0.8994  0.8365
   88MOL0     C11800  11.437   1.590   9.123 -0.4453  0.0046 -0.6429
   88MOL0     C11801  11.499   1.688   9.043  0.3942  1.0141 -0.4245
   88MOL0     C11802  11.636   1.702   9.051 -0.1429 -0.1377  0.5944
   88MOL0     C11803  11.719   1.623   9.142 -0.4772 -0.2765  0.3404
   88MOL0     O11804  11.856   1.640   9.151 -0.4454 -0.1852 -0.6476
   88MOL0     C11805  11.937   1.689   9.038  0.6047 -0.2574  0.1165
   88MOL0     C11806  12.064   1.611   9.037 -0.8936 -0.5144 -0.2810
   88MOL0     C11807  12.170   1.647   9.139  0.6657 -0.2159 -0.4703
   88MOL0     C11808  12.309   1.586   9.112  0.4194 -0.3353 -0.2855
   88MOL0     C11809  12.307   1.435   9.135  0.8704  0.0149  0.3535
   88MOL0     C11810  12.305   1.319   9.160 -0.5264  0.8785  0.2456
   88MOL0     C11811  11.652   1.530   9.220 -0.0952  0.3031 -0.4094
   88MOL0     C11812  11.515   1.522   9.218 -0.0827 -0.3308  0.3067
   88MOL0     H11813  11.071   1.544   9.389  0.6654  0.6987  0.4479
   88MOL0     H11814  10.817   1.495   9.378 -1.6821  2.6200 -2.2944
   88MOL0     H11815  10.600   1.328   9.033 -0.5407 -1.7299 -0.4756
   88MOL0     H11816  10.688   1.195   9.102  2.0929  0.7064  0.9485
   88MOL0     H11817  10.475   1.147   9.119  0.7581  0.3660 -1.1449
   88MOL0     H11818  10.523   1.179   9.285  1.0022 -0.6995 -0.6938
   88MOL0     H11819  10.324   1.304   9.297 -1.7197  2.0468 -1.2511
   88MOL0     H11820  10.440   1.438   9.257  0.6931  1.0296 -1.0385
   88MOL0     H11821  10.393   1.419   9.023  1.9353  0.2782  3.1165
   88MOL0     H11822  10.269   1.296   9.050 -1.8354  0.4699 -1.2558
   88MOL0     H11823  10.270   1.564   9.183  0.9973 -0.5450  0.3293
   88MOL0     H11824  10.178   1.524   9.036  1.2855  1.0254  0.3149
   88MOL0     H11825  10.046   1.361   9.144  0.2598  1.0632 -0.7785
   88MOL0     H11826  10.138   1.382   9.300 -0.6926 -0.3356  0.1321
   88MOL0     H11827  10.067   1.589   9.332 -1.9262  2.3616  0.8285
   88MOL0     H11828   9.975   1.605   9.186  0.9788  1.4121  0.9472
   88MOL0     H11829   9.920   1.459   9.442 -1.7317 -3.5214  0.7112
   88MOL0     H11830   9.873   1.372   9.300  0.5542  0.0866 -0.5794
   88MOL0     H11831   9.789   1.694   9.505  2.7889 -1.8015 -1.5735
   88MOL0     H11832   9.563   1.780   9.590 -1.5427 -0.9292  1.7546
   88MOL0     H11833   9.504   1.842   9.440  0.9711  1.7250  2.2703
   88MOL0     H11834   9.378   1.590   9.563 -1.1395 -0.1292  1.1746
   88MOL0     H11835   9.311   1.691   9.439  2.0490 -2.2613 -0.9646
   88MOL0     H11836   9.323   1.874   9.650 -0.1073 -0.0178 -2.3340
   88MOL0     H11837   9.324   1.732   9.752  1.1153 -1.0666 -0.6223
   88MOL0     H11838   9.109   1.664   9.628 -1.4006  0.8920 -1.9824
   88MOL0     H11839   9.126   1.825   9.549  3.6058  0.4182  0.0158
   88MOL0     H11840   8.902   1.722   9.547 -0.6215  0.6527 -0.6923
   88MOL0     H11841   8.727   1.630   9.456  0.7023  0.5661 -0.5704
   88MOL0     H11842   8.605   1.574   9.566  2.9402 -0.6466  0.5480
   88MOL0     H11843   8.591   1.735   9.490 -2.8812 -1.1384  1.3453
   88MOL0     H11844   8.391   1.455   9.644  0.3925 -1.1103  0.1078
   88MOL0     H11845   8.186   1.334   9.668  1.6771  0.2213 -0.3635
   88MOL0     H11846   7.891   1.354   9.616 -2.9906  0.7254  0.5038
   88MOL0     H11847   7.986   1.243   9.723  1.2707  0.7930 -2.2606
   88MOL0     H11848   7.767   1.172   9.717  0.0096  0.6398 -0.9075
   88MOL0     H11849   7.781   1.240   9.869  0.4941 -2.9853 -0.9189
   88MOL0     H11850   7.658   1.380   9.614 -1.7582 -0.3189 -0.3097
   88MOL0     H11851   7.713   1.470   9.744 -1.4732  0.7434 -1.7995
   88MOL0     H11852   7.491   1.271   9.738  0.6966  0.7237  0.0648
   88MOL0     H11853   7.541   1.322   9.898 -0.3591  0.7552  0.2509
   88MOL0     H11854   7.429   1.509   9.667 -0.4745  2.7882  1.7255
   88MOL0     H11855   7.476   1.556   9.834 -0.0383  0.2524 -0.3310
   88MOL0     H11856   7.265   1.344   9.789  1.3370 -0.5881  0.6692
   88MOL0     H11857   7.316   1.417   9.929  2.3270 -3.2935 -1.0037
   88MOL0     H11858   7.252   1.630   9.719  0.4660  0.6113  0.3853
   88MOL0     H11859   7.186   1.603   9.880  0.6211 -0.5481  0.3155
   88MOL0     H11860   7.043   1.416   9.789 -1.4886  1.1495  1.9979
   88MOL0     H11861   7.075   1.503   9.635  0.2636 -0.5308 -0.0658
   88MOL0     H11862   8.000   1.686   9.835  0.3577  1.7188 -1.6244
   88MOL0     H11863   8.207   1.807   9.796  0.4672 -0.4867  1.9874
   88MOL0     H11864   8.682   1.842   9.974 -2.0703 -0.5021 -0.9762
   88MOL0     H11865   8.926   1.879   9.951  0.6942 -0.0564 -0.7859
   88MOL0     H11866  10.843   1.345   8.986 -0.2066 -1.2592  0.2815
   88MOL0     H11867  11.095   1.372   8.991 -0.1982 -1.4513  1.3774
   88MOL0     H11868  11.446   1.752   8.973 -1.0199 -1.0389 -1.3004
   88MOL0     H11869  11.684   1.790   9.007 -0.6322  1.4971  3.0970
   88MOL0     H11870  11.882   1.674   8.945  4.0359 -2.0139 -1.8558
   88MOL0     H11871  11.957   1.796   9.037  0.0174 -0.1490 -0.6622
   88MOL0     H11872  12.112   1.620   8.939  0.2053  1.9799  0.4023
   88MOL0     H11873  12.035   1.506   9.043  2.5774 -1.6596 -0.9561
   88MOL0     H11874  12.131   1.624   9.239  1.6423  0.0432 -0.0146
   88MOL0     H11875  12.180   1.756   9.140 -0.3380 -0.1214 -0.0649
   88MOL0     H11876  12.385   1.631   9.176  0.9098 -0.4260 -0.8022
   88MOL0     H11877  12.351   1.608   9.013  0.0522  0.2313 -0.3206
   88MOL0     H11878  12.286   1.218   9.192  0.3085  0.3075 -1.0036
   88MOL0     H11879  11.710   1.459   9.278 -2.1487 -1.2102 -0.1084
   88MOL0     H11880  11.455   1.466   9.288 -1.5953  2.1081  1.0871
   89MOL0     O11881   6.853   3.472   4.709 -0.5672  0.1994  0.4760
   89MOL0     C11882   6.864   3.458   4.830  0.0242  0.0495  0.2320
   89MOL0     O11883   6.767   3.492   4.921  0.1987 -0.3448 -0.1115
   89MOL0     C11884   6.635   3.506   4.881 -0.1966 -0.7013 -0.6612
   89MOL0     C11885   6.547   3.410   4.933 -0.4608 -0.5263  1.4806
   89MOL0     C11886   6.410   3.421   4.901 -0.0258  0.5957 -0.2152
   89MOL0     C11887   6.359   3.525   4.821 -0.0439  0.0870 -0.0100
   89MOL0     O11888   6.219   3.528   4.824  0.3881 -0.0422  0.8141
   89MOL0     C11889   6.152   3.643   4.759  0.3387 -0.2925  0.0973
   89MOL0     C11890   6.013   3.602   4.700 -0.0089 -0.7763  0.4625
   89MOL0     C11891   6.028   3.529   4.576 -0.0298  0.3152 -0.1174
   89MOL0     C11892   5.889   3.470   4.542 -0.0741  0.1602  0.3932
   89MOL0     C11893   5.913   3.359   4.428  0.7528 -0.2675 -1.1524
   89MOL0     C11894   5.786   3.322   4.351 -0.4176  0.2822  0.0752
   89MOL0     C11895   5.664   3.245   4.416  0.1139 -0.2192  0.4251
   89MOL0     C11896   5.548   3.240   4.304  0.7329  0.6478 -0.3064
   89MOL0     N11897   5.438   3.163   4.353  0.8419  0.7772 -0.0087
   89MOL0     C11898   5.433   3.041   4.426  0.4081  0.1024  0.0897
   89MOL0     C11899   5.307   3.022   4.467  0.2741 -0.1009  0.6274
   89MOL0     C11900   5.243   2.901   4.533  0.5064 -0.1684 -0.4757
   89MOL0     C11901   5.141   2.933   4.637  0.3426 -0.5959  0.6392
   89MOL0     C11902   5.121   2.811   4.734 -0.1336  0.9846  1.2697
   89MOL0     C11903   5.069   2.842   4.867  0.6266  0.5329 -0.0246
   89MOL0     O11904   4.930   2.864   4.836  0.8509 -0.1991 -0.0478
   89MOL0     C11905   4.846   2.896   4.941 -0.0882  0.4452 -0.8177
   89MOL0     C11906   4.706   2.885   4.925 -0.5794 -0.0620 -0.1456
   89MOL0     C11907   4.620   2.890   5.037 -0.3437 -0.4216 -0.1522
   89MOL0     C11908   4.473   2.881   5.000 -0.2012 -0.1252  0.0245
   89MOL0     C11909   4.678   2.912   5.166  0.3680 -0.2204 -0.1796
   89MOL0     C11910   4.587   2.920   5.288  0.2039  0.2853  0.0121
   89MOL0     O11911   4.662   2.929   5.403 -1.6722  0.7762 -0.3477
   89MOL0     C11912   4.604   2.979   5.514 -0.2791  0.3156  0.5002
   89MOL0     C11913   4.516   2.900   5.594  0.0991 -0.7641  0.7106
   89MOL0     C11914   4.469   2.955   5.716 -1.3902  0.6690  0.1876
   89MOL0     C11915   4.510   3.087   5.757  0.0673 -0.0592  0.0456
   89MOL0     O11916   4.455   3.133   5.876  0.5695  0.6344  0.7247
   89MOL0     C11917   4.496   3.248   5.937 -0.3468 -0.4973  0.1543
   89MOL0     C11918   4.386   3.317   6.024  0.8803  0.4180  0.2256
   89MOL0     C11919   4.270   3.366   5.933  0.4672 -0.6679 -0.1014
   89MOL0     C11920   4.135   3.379   6.012  0.1393 -0.0474  0.1696
   89MOL0     C11921   4.004   3.388   5.919 -0.6170 -0.7524 -0.5292
   89MOL0     C11922   4.011   3.520   5.846 -0.5731  0.3111  0.3426
   89MOL0     C11923   3.909   3.542   5.735  1.6641 -0.2157 -0.7346
   89MOL0     C11924   3.783   3.595   5.810  0.2503  0.0327 -0.4596
   89MOL0    Cl11925   3.672   3.665   5.695 -0.1047  0.5039 -0.3197
   89MOL0     C11926   4.600   3.152   5.679 -0.5103  0.2061  0.6213
   89MOL0     C11927   4.651   3.101   5.562 -0.0690 -0.6487  0.0355
   89MOL0     O11928   4.465   2.925   5.293  0.1034  0.0263 -0.6070
   89MOL0     C11929   4.816   2.936   5.182 -0.4378 -0.3183  0.2052
   89MOL0     C11930   4.896   2.933   5.068 -0.4575  0.1966 -0.1061
   89MOL0     N11931   5.232   3.129   4.424 -0.2241 -0.6935 -0.0004
   89MOL0     N11932   5.309   3.215   4.361 -0.2033  0.1794 -0.0233
   89MOL0     C11933   6.448   3.606   4.757 -0.6499  0.3181  0.6430
   89MOL0     C11934   6.582   3.598   4.790 -0.9799  0.6027  0.6990
   89MOL0     C11935   6.999   3.429   4.881 -0.8791  0.2651  1.3208
   89MOL0     C11936   7.114   3.422   4.793 -0.7456 -0.6841 -0.0202
   89MOL0     C11937   7.244   3.401   4.836  0.8034 -0.4938 -0.4194
   89MOL0     C11938   7.275   3.393   4.976 -0.3726 -0.8019 -0.9229
   89MOL0     O11939   7.403   3.383   5.034  0.5186  0.8647  0.7652
   89MOL0     C11940   7.501   3.324   4.946 -0.5107  0.4966 -0.0021
   89MOL0     C11941   7.596   3.420   4.884 -0.0926  0.1770 -1.1018
   89MOL0     C11942   7.694   3.344   4.784  1.0792  0.0235 -0.2271
   89MOL0     C11943   7.778   3.449   4.704 -0.1264  0.3087  0.3762
   89MOL0     C11944   7.699   3.535   4.612  0.6416  0.2110 -0.5694
   89MOL0     C11945   7.621   3.604   4.551  0.7775 -0.5624 -1.4157
   89MOL0     C11946   7.167   3.396   5.069 -0.3323 -1.2856 -0.3154
   89MOL0     C11947   7.034   3.419   5.019 -0.0027 -0.0366  0.1955
   89MOL0     H11948   6.579   3.333   5.003  0.5817 -1.1457  0.3688
   89MOL0     H11949   6.338   3.354   4.947  1.2229 -0.7656 -0.1820
   89MOL0     H11950   6.132   3.724   4.830  0.7815  0.0516 -0.1606
   89MOL0     H11951   6.203   3.679   4.669 -1.2882 -3.0674 -2.1136
   89MOL0     H11952   5.980   3.531   4.776 -0.8388  0.0349  0.8649
   89MOL0     H11953   5.947   3.689   4.700  0.4106 -0.4447  1.9868
   89MOL0     H11954   6.074   3.586   4.495 -1.7794  1.3361 -0.4517
   89MOL0     H11955   6.085   3.442   4.608 -0.2289 -0.1683 -1.0556
   89MOL0     H11956   5.846   3.417   4.627 -0.8819  0.1851  0.0038
   89MOL0     H11957   5.822   3.546   4.503  0.2466 -0.6454 -1.8602
   89MOL0     H11958   5.986   3.399   4.357 -0.7191  3.8747 -0.6240
   89MOL0     H11959   5.956   3.272   4.478 -0.0515 -0.7746 -1.3433
   89MOL0     H11960   5.747   3.416   4.309 -0.1688  0.2068 -0.3305
   89MOL0     H11961   5.814   3.260   4.266 -1.9462  0.9355 -0.9596
   89MOL0     H11962   5.688   3.148   4.459 -2.2594 -2.6104 -3.1440
   89MOL0     H11963   5.620   3.309   4.493  0.1118 -1.4031  1.4245
   89MOL0     H11964   5.594   3.176   4.229 -0.6604 -1.8928  0.8976
   89MOL0     H11965   5.512   3.336   4.266  1.1081  0.3032 -1.5755
   89MOL0     H11966   5.520   2.979   4.444 -0.1208 -0.3773  1.0806
   89MOL0     H11967   5.190   2.839   4.460 -1.5762 -1.7944  2.2601
   89MOL0     H11968   5.319   2.845   4.589 -1.6444 -0.0133  2.8419
   89MOL0     H11969   5.048   2.977   4.601 -1.6344 -1.8964  3.7436
   89MOL0     H11970   5.185   3.015   4.695  0.5508  0.2709 -0.6925
   89MOL0     H11971   5.206   2.747   4.758 -1.4985 -0.8849  1.2999
   89MOL0     H11972   5.041   2.751   4.689 -0.6650  1.1064  2.0411
   89MOL0     H11973   5.112   2.934   4.907 -2.1002  0.9720  2.2242
   89MOL0     H11974   5.077   2.752   4.930  2.4821  0.3526 -0.4534
   89MOL0     H11975   4.665   2.848   4.832 -1.6199 -1.7566  0.9427
   89MOL0     H11976   4.442   2.776   4.987  0.4658  0.0107 -3.5138
   89MOL0     H11977   4.400   2.936   5.060  1.4504 -0.6099  2.6741
   89MOL0     H11978   4.461   2.920   4.899  0.4063  1.3125  0.4888
   89MOL0     H11979   4.477   2.802   5.568  1.4267 -0.6630 -1.9983
   89MOL0     H11980   4.401   2.904   5.783 -0.8257  0.3288  0.5097
   89MOL0     H11981   4.578   3.225   6.005  0.5622  0.8108 -0.4568
   89MOL0     H11982   4.535   3.316   5.861  0.1043  0.0364  0.8540
   89MOL0     H11983   4.345   3.243   6.094  0.2763  2.6650  2.4107
   89MOL0     H11984   4.413   3.402   6.088  0.4622 -0.0655  1.0661
   89MOL0     H11985   4.253   3.298   5.849  1.3707 -1.1158  0.0674
   89MOL0     H11986   4.297   3.455   5.875 -0.6710 -2.1078 -3.0760
   89MOL0     H11987   4.136   3.296   6.083  1.3696 -0.7273 -0.5966
   89MOL0     H11988   4.130   3.468   6.075  1.4524 -0.0991  0.3827
   89MOL0     H11989   3.911   3.388   5.975 -0.0863 -0.5898  0.3724
   89MOL0     H11990   4.010   3.294   5.863 -1.2991 -0.7803 -0.5539
   89MOL0     H11991   3.987   3.592   5.925 -1.3915 -0.1951  0.5631
   89MOL0     H11992   4.106   3.549   5.801 -1.4661  2.4114 -0.3045
   89MOL0     H11993   3.883   3.454   5.674 -1.8019  0.9955 -1.2574
   89MOL0     H11994   3.951   3.621   5.673  1.2706  0.7299  0.1848
   89MOL0     H11995   3.809   3.667   5.888 -1.1883 -1.2521  1.2910
   89MOL0     H11996   3.726   3.519   5.865  1.1375 -0.0606  0.3518
   89MOL0     H11997   4.642   3.250   5.694 -1.2737  1.1818 -2.8225
   89MOL0     H11998   4.721   3.153   5.497  0.1734  0.6035  1.2402
   89MOL0     H11999   4.866   2.963   5.274 -1.5825 -0.3929  0.8694
   89MOL0     H12000   5.001   2.958   5.085 -0.5847  0.5694  0.1643
   89MOL0     H12001   6.430   3.698   4.703  2.0830  1.0855  0.8753
   89MOL0     H12002   6.650   3.669   4.744  0.5477 -0.4977  1.1721
   89MOL0     H12003   7.103   3.420   4.685  2.9923 -1.5208 -0.5138
   89MOL0     H12004   7.319   3.394   4.758  1.5870 -0.0881  0.2686
   89MOL0     H12005   7.564   3.258   5.007 -2.2192 -1.6701 -0.4369
   89MOL0     H12006   7.459   3.257   4.870 -0.4733 -0.4415  0.7823
   89MOL0     H12007   7.655   3.462   4.966  2.9671 -1.9376 -2.0851
   89MOL0     H12008   7.532   3.494   4.835 -0.4291  0.6374 -0.0100
   89MOL0     H12009   7.635   3.279   4.718 -1.0323  0.6810  0.9299
   89MOL0     H12010   7.757   3.278   4.845 -0.3480 -0.1027  1.2069
   89MOL0     H12011   7.852   3.397   4.642 -1.1040  1.2024 -1.6461
   89MOL0     H12012   7.830   3.512   4.777  1.3562  0.0561 -0.4043
   89MOL0     H12013   7.560   3.679   4.503  0.7287  0.7650  0.6093
   89MOL0     H12014   7.183   3.385   5.176 -1.9059 -0.3270  0.0544
   89MOL0     H12015   6.959   3.438   5.095  0.6929 -0.3695  0.9816
   90MOL0     O12016   4.950   0.828   9.113 -0.0693  0.4947  0.3265
   90MOL0     C12017   5.052   0.781   9.064  0.1565 -0.4630 -0.0940
   90MOL0     O12018   5.056   0.656   9.000 -0.1570 -0.2691 -0.4307
   90MOL0     C12019   4.943   0.585   8.989  1.6073 -0.0589 -0.3609
   90MOL0     C12020   4.937   0.469   9.062  0.3911 -0.1457 -0.2497
   90MOL0     C12021   4.819   0.392   9.068  0.9255  0.0680  0.0009
   90MOL0     C12022   4.707   0.422   8.991  0.3023  0.6133  0.0760
   90MOL0     O12023   4.603   0.339   9.000 -0.2568  0.8210  0.3222
   90MOL0     C12024   4.532   0.333   9.126  0.2665 -1.0193  0.7005
   90MOL0     C12025   4.414   0.246   9.115 -1.0018 -1.1674  0.0747
   90MOL0     C12026   4.458   0.102   9.133 -0.0322 -0.6680  0.4292
   90MOL0     C12027   4.348  -0.007   9.116 -0.5485  0.3505  0.2809
   90MOL0     C12028   4.278  -0.013   8.977 -0.8192 -1.1376 -0.8637
   90MOL0     C12029   4.204  -0.146   8.965 -0.0081  0.5595 -0.0854
   90MOL0     C12030   4.121  -0.137   8.836 -0.4363 -0.5662 -0.4114
   90MOL0     C12031   4.059  -0.269   8.783 -1.4370  1.0111 -0.2839
   90MOL0     N12032   3.967  -0.244   8.672 -0.6013 -0.4035 -0.1684
   90MOL0     C12033   3.971  -0.303   8.551  0.5292  0.2680  0.4401
   90MOL0     C12034   3.856  -0.257   8.495  0.9616  1.2106 -0.2911
   90MOL0     C12035   3.810  -0.287   8.353 -0.5374 -0.2527 -0.0183
   90MOL0     C12036   3.724  -0.413   8.365 -0.6363  0.5841 -0.9226
   90MOL0     C12037   3.672  -0.455   8.226 -0.7177 -0.2767 -1.0623
   90MOL0     C12038   3.616  -0.594   8.232  0.1439  0.6817  0.5329
   90MOL0     O12039   3.540  -0.624   8.119  0.9154  0.2408  0.5648
   90MOL0     C12040   3.403  -0.608   8.120  0.3215 -0.5640  0.1868
   90MOL0     C12041   3.340  -0.516   8.209  0.3440  0.5013  0.3016
   90MOL0     C12042   3.201  -0.498   8.200  1.0342  0.0576 -0.1160
   90MOL0     C12043   3.156  -0.380   8.291  0.6223 -0.3943 -0.2369
   90MOL0     C12044   3.112  -0.578   8.112  0.7077  0.6426 -0.0301
   90MOL0     C12045   2.959  -0.563   8.090 -0.0640 -0.4129  0.6253
   90MOL0     O12046   2.896  -0.652   8.008  0.4722 -0.5318  0.0871
   90MOL0     C12047   2.767  -0.631   7.971  0.2093  0.3317 -0.8988
   90MOL0     C12048   2.658  -0.675   8.054 -0.0699 -0.4705 -0.1692
   90MOL0     C12049   2.527  -0.666   8.016  0.2172 -0.0757  0.8135
   90MOL0     C12050   2.501  -0.597   7.893  0.2829 -0.5860  0.5529
   90MOL0     O12051   2.378  -0.551   7.843  0.3692 -0.4755  0.2410
   90MOL0     C12052   2.271  -0.533   7.942 -0.0076 -0.2398  0.2876
   90MOL0     C12053   2.300  -0.409   8.030 -0.0341  0.4832  0.6277
   90MOL0     C12054   2.193  -0.368   8.124 -0.0029  0.2106 -0.7063
   90MOL0     C12055   2.240  -0.242   8.208  0.6503 -0.7705 -0.2034
   90MOL0     C12056   2.128  -0.141   8.221  0.9706  0.9175 -0.7663
   90MOL0     C12057   2.019  -0.194   8.322 -0.2140  0.0301 -0.1937
   90MOL0     C12058   1.889  -0.109   8.327 -0.6035  0.1362 -0.4975
   90MOL0     C12059   1.915   0.046   8.341  0.6583 -0.2201  0.2829
   90MOL0    Cl12060   1.768   0.140   8.374 -0.2159  0.0497 -0.2118
   90MOL0     C12061   2.612  -0.572   7.801  0.6358 -0.4784 -0.0096
   90MOL0     C12062   2.742  -0.579   7.840  0.2313  0.5798 -0.6129
   90MOL0     O12063   2.901  -0.471   8.151  0.1670 -0.2108  0.8037
   90MOL0     C12064   3.180  -0.663   8.022  0.4061 -0.7051 -0.3329
   90MOL0     C12065   3.318  -0.682   8.029  0.0602  0.1898 -0.5648
   90MOL0     N12066   3.790  -0.170   8.580 -0.4916  0.1365 -0.2133
   90MOL0     N12067   3.854  -0.170   8.696  0.0261 -0.2675 -0.4377
   90MOL0     C12068   4.716   0.530   8.912 -0.4223 -0.0213 -0.1333
   90MOL0     C12069   4.834   0.613   8.910 -0.7688 -0.6990 -0.7180
   90MOL0     C12070   5.177   0.859   9.075 -0.0296  0.0022  0.0992
   90MOL0     C12071   5.284   0.804   9.009 -0.1947 -0.5187 -0.2697
   90MOL0     C12072   5.405   0.869   9.014 -0.5245 -0.1403  0.2176
   90MOL0     C12073   5.425   0.987   9.078 -0.3718 -0.0953  0.7397
   90MOL0     O12074   5.541   1.058   9.066 -0.1857  0.5406 -0.1405
   90MOL0     C12075   5.629   1.040   9.179  0.7150 -0.0519 -0.1918
   90MOL0     C12076   5.603   1.130   9.298 -0.4651 -0.9177 -0.8721
   90MOL0     C12077   5.621   1.281   9.257  0.1553 -0.7859 -0.0759
   90MOL0     C12078   5.767   1.313   9.256  0.1802 -0.4173  0.2116
   90MOL0     C12079   5.805   1.393   9.143 -1.2365  0.0004  0.2409
   90MOL0     C12080   5.859   1.446   9.039  0.4841 -0.3074 -0.7417
   90MOL0     C12081   5.319   1.035   9.144  1.3589  0.0996 -0.4867
   90MOL0     C12082   5.194   0.966   9.157  0.1352 -0.3918  0.2718
   90MOL0     H12083   5.017   0.429   9.122 -1.6112 -1.2807  1.8325
   90MOL0     H12084   4.827   0.297   9.120 -3.0959  0.6533  2.0667
   90MOL0     H12085   4.587   0.312   9.218  2.3696 -1.2147 -0.5268
   90MOL0     H12086   4.490   0.433   9.135 -0.4813 -1.3477  0.9123
   90MOL0     H12087   4.359   0.275   9.205 -0.9658 -0.0691 -0.2386
   90MOL0     H12088   4.357   0.258   9.022  0.2398 -2.8453 -0.9530
   90MOL0     H12089   4.537   0.072   9.063 -0.7330 -0.8541 -0.2844
   90MOL0     H12090   4.496   0.099   9.236  0.8325  0.6703  0.1740
   90MOL0     H12091   4.385  -0.110   9.129 -1.7484  0.0244  1.2865
   90MOL0     H12092   4.265   0.005   9.186 -1.6361 -0.1619 -0.8787
   90MOL0     H12093   4.204   0.067   8.977 -0.2117 -0.5670 -0.8176
   90MOL0     H12094   4.354  -0.003   8.899 -2.6128  1.1353 -2.4596
   90MOL0     H12095   4.276  -0.228   8.951 -0.4816 -0.2823  2.0190
   90MOL0     H12096   4.137  -0.173   9.047 -1.1869  2.0479 -0.5195
   90MOL0     H12097   4.037  -0.072   8.862  3.6265  4.2798  2.5455
   90MOL0     H12098   4.174  -0.079   8.761 -0.6930  0.3749  0.1213
   90MOL0     H12099   4.016  -0.320   8.869  2.9993  0.6012  1.9966
   90MOL0     H12100   4.142  -0.333   8.753 -1.9736 -0.5561  1.4087
   90MOL0     H12101   4.042  -0.375   8.512 -0.1361 -1.0169  1.5181
   90MOL0     H12102   3.755  -0.207   8.302  0.2084 -0.3563 -1.0154
   90MOL0     H12103   3.903  -0.304   8.300 -0.8613  0.9051 -0.9880
   90MOL0     H12104   3.641  -0.405   8.436 -0.3025 -0.3186 -0.4107
   90MOL0     H12105   3.799  -0.489   8.386 -0.6403  1.2169  1.6632
   90MOL0     H12106   3.746  -0.449   8.146 -0.6409 -1.5079 -1.1026
   90MOL0     H12107   3.583  -0.396   8.204 -0.9233 -0.3733 -0.5266
   90MOL0     H12108   3.558  -0.599   8.325 -1.1250  0.0309 -0.2657
   90MOL0     H12109   3.702  -0.662   8.228 -0.7323 -0.4352  0.1944
   90MOL0     H12110   3.403  -0.454   8.271 -0.7389  2.9975 -0.9399
   90MOL0     H12111   3.064  -0.338   8.249  0.9792  1.4036  0.6704
   90MOL0     H12112   3.149  -0.408   8.397  0.2292 -0.4307 -0.2704
   90MOL0     H12113   3.224  -0.294   8.292 -0.6304  0.6613  2.0188
   90MOL0     H12114   2.685  -0.726   8.146 -0.2759  0.9839  0.7278
   90MOL0     H12115   2.454  -0.712   8.082 -2.1899 -0.9280 -2.2150
   90MOL0     H12116   2.174  -0.520   7.893  0.7921  0.9278 -1.0582
   90MOL0     H12117   2.260  -0.612   8.016  0.9588 -0.8950 -0.2507
   90MOL0     H12118   2.389  -0.421   8.092  0.0436  0.7009  0.5574
   90MOL0     H12119   2.303  -0.332   7.953 -2.4444  0.9177  0.8664
   90MOL0     H12120   2.186  -0.454   8.191  1.7571  1.1334  0.7672
   90MOL0     H12121   2.097  -0.352   8.074 -0.3726 -0.0949 -0.1052
   90MOL0     H12122   2.284  -0.269   8.304  3.2685  2.3424 -0.3561
   90MOL0     H12123   2.312  -0.184   8.151 -1.8219  1.3226 -1.4203
   90MOL0     H12124   2.080  -0.130   8.123  1.1854 -1.5741 -1.2294
   90MOL0     H12125   2.166  -0.045   8.257  2.5243 -0.2260  0.7755
   90MOL0     H12126   1.999  -0.301   8.313 -0.2030 -0.0744  0.8337
   90MOL0     H12127   2.069  -0.200   8.420  0.8943  0.8586 -0.6798
   90MOL0     H12128   1.832  -0.146   8.412 -1.7086  1.8421 -0.4547
   90MOL0     H12129   1.838  -0.135   8.234 -2.2090 -2.0744  0.9095
   90MOL0     H12130   1.962   0.068   8.245  0.2907 -2.9800 -0.6323
   90MOL0     H12131   1.988   0.068   8.419  0.3663  3.8418 -0.3921
   90MOL0     H12132   2.585  -0.535   7.702 -0.0836 -0.7069  0.0968
   90MOL0     H12133   2.820  -0.550   7.771  0.8007 -1.2962 -0.8221
   90MOL0     H12134   3.117  -0.710   7.946 -2.0629  1.0232  0.5222
   90MOL0     H12135   3.361  -0.753   7.958  4.0774  2.3565 -0.5890
   90MOL0     H12136   4.626   0.558   8.860 -0.8919  4.1104  2.4056
   90MOL0     H12137   4.842   0.705   8.852 -2.5805 -1.0598 -1.5781
   90MOL0     H12138   5.270   0.715   8.950 -3.1892  1.1929 -2.4085
   90MOL0     H12139   5.482   0.826   8.951  0.8870  1.3755  0.8106
   90MOL0     H12140   5.612   0.936   9.208 -1.1012 -0.9149 -3.7893
   90MOL0     H12141   5.732   1.051   9.143  0.9282 -2.5794 -0.5455
   90MOL0     H12142   5.664   1.114   9.388 -2.2962 -0.0922  0.5825
   90MOL0     H12143   5.499   1.108   9.325  0.6231 -2.4036  2.6273
   90MOL0     H12144   5.577   1.343   9.336  0.8856 -1.7664  1.1240
   90MOL0     H12145   5.569   1.297   9.162  1.1064 -1.5044 -0.7434
   90MOL0     H12146   5.826   1.221   9.249 -0.9475 -1.2636  1.2999
   90MOL0     H12147   5.798   1.368   9.346  0.2304  0.1358 -0.1403
   90MOL0     H12148   5.911   1.496   8.960  1.4338  2.9569  1.7170
   90MOL0     H12149   5.318   1.130   9.196 -1.7147  1.0842 -2.1080
   90MOL0     H12150   5.108   1.006   9.209 -1.2051  1.1949 -2.8797
   91MOL0     O12151   6.798   5.643  10.820 -0.7006 -0.4693 -0.4273
   91MOL0     C12152   6.762   5.646  10.700 -0.1557 -0.1721 -0.4189
   91MOL0     O12153   6.797   5.740  10.620 -0.8426 -0.4862  0.2212
   91MOL0     C12154   6.892   5.830  10.654 -0.1362  0.7297 -0.2738
   91MOL0     C12155   7.030   5.793  10.645 -0.0259 -0.8088  0.4771
   91MOL0     C12156   7.131   5.878  10.701 -0.2417  0.2049 -0.8191
   91MOL0     C12157   7.090   5.994  10.756  0.0822  0.1466  0.3825
   91MOL0     O12158   7.201   6.068  10.801  0.0643  1.0045 -0.1914
   91MOL0     C12159   7.187   6.208  10.841 -0.4365  0.1875 -0.3940
   91MOL0     C12160   7.322   6.261  10.889  0.5396 -0.3860 -0.3599
   91MOL0     C12161   7.341   6.406  10.934  0.5730 -0.0809  0.9614
   91MOL0     C12162   7.488   6.439  10.966 -0.0151 -0.2842  0.3551
   91MOL0     C12163   7.576   6.467  10.841  0.2297 -0.2360 -0.2509
   91MOL0     C12164   7.712   6.499  10.882  0.3785  0.3178 -0.3267
   91MOL0     C12165   7.780   6.556  10.759  0.2451  0.6687 -0.1877
   91MOL0     C12166   7.938   6.565  10.769  0.0298  0.0339 -0.5527
   91MOL0     N12167   7.988   6.597  10.638 -0.2340 -0.1757 -0.7171
   91MOL0     C12168   8.004   6.503  10.537  1.0125 -0.4361 -0.2264
   91MOL0     C12169   8.059   6.577  10.431  0.0049  0.8139  0.1538
   91MOL0     C12170   8.106   6.523  10.300  0.2463  0.3070 -0.4000
   91MOL0     C12171   8.240   6.599  10.255 -0.0793  0.0542 -0.1506
   91MOL0     C12172   8.363   6.536  10.334 -0.3916 -0.6038  0.0028
   91MOL0     C12173   8.492   6.584  10.277 -0.8084 -0.2894  0.0784
   91MOL0     O12174   8.590   6.476  10.309 -0.0564 -0.4705  0.3262
   91MOL0     C12175   8.722   6.495  10.279 -0.1042  0.7671 -0.6314
   91MOL0     C12176   8.816   6.398  10.318 -0.0663 -0.8307 -0.8609
   91MOL0     C12177   8.960   6.422  10.301  1.0807  0.1273  0.7057
   91MOL0     C12178   9.050   6.308  10.331 -0.4895  0.3192  0.3388
   91MOL0     C12179   9.008   6.540  10.241  0.1657  0.2747 -0.2640
   91MOL0     C12180   9.152   6.580  10.212  0.6122  0.2969 -0.1405
   91MOL0     O12181   9.254   6.486  10.247  0.0077  0.4012  0.4361
   91MOL0     C12182   9.389   6.529  10.241  0.5476  0.3022  0.1065
   91MOL0     C12183   9.454   6.542  10.119 -0.3566 -0.2130 -0.3613
   91MOL0     C12184   9.587   6.558  10.121  0.3755  0.0769  0.1054
   91MOL0     C12185   9.658   6.572  10.237  0.3880  0.1975  0.5530
   91MOL0     O12186   9.796   6.594  10.226  0.2727 -0.7255 -0.4215
   91MOL0     C12187   9.871   6.634  10.350 -0.7300  0.2810 -0.3536
   91MOL0     C12188  10.021   6.637  10.327 -0.9675  0.3364 -0.2303
   91MOL0     C12189  10.072   6.501  10.313 -0.5857 -0.0966 -0.8714
   91MOL0     C12190  10.219   6.505  10.278 -0.1328 -0.0404 -0.2290
   91MOL0     C12191  10.308   6.550  10.393  0.5579 -0.3721  0.9509
   91MOL0     C12192  10.453   6.519  10.384 -0.4629 -0.4276  0.2555
   91MOL0     C12193  10.546   6.552  10.504  0.4411 -0.2379  0.3803
   91MOL0     C12194  10.687   6.581  10.445 -0.3884  1.2627 -0.2652
   91MOL0    Cl12195  10.737   6.408  10.403 -0.3446  0.3918  0.4392
   91MOL0     C12196   9.599   6.566  10.361  0.5180  0.0141  0.5532
   91MOL0     C12197   9.462   6.542  10.358 -1.3213 -0.6781 -0.6290
   91MOL0     O12198   9.170   6.692  10.181  0.5614  0.1846  0.3515
   91MOL0     C12199   8.908   6.629  10.201  0.3155 -0.4741  0.4517
   91MOL0     C12200   8.774   6.604  10.215 -0.2327 -0.0871 -0.2087
   91MOL0     N12201   8.076   6.707  10.474 -0.4953  0.7284  0.2674
   91MOL0     N12202   8.029   6.715  10.592 -0.2623  0.4439 -0.7590
   91MOL0     C12203   6.955   6.034  10.764 -0.3928  0.1230  0.3140
   91MOL0     C12204   6.850   5.959  10.707  0.1050 -0.1960  0.2215
   91MOL0     C12205   6.672   5.535  10.658 -1.1463 -0.6238  0.6608
   91MOL0     C12206   6.624   5.445  10.757  0.1393  0.5549 -0.8885
   91MOL0     C12207   6.540   5.347  10.720  0.1966  0.3109  0.5791
   91MOL0     C12208   6.499   5.335  10.586 -0.1076  0.4446  0.1777
   91MOL0     O12209   6.416   5.235  10.557 -0.0546 -0.4320 -0.0718
   91MOL0     C12210   6.353   5.227  10.431  0.8165  0.6182  0.0610
   91MOL0     C12211   6.240   5.121  10.425 -0.2819  0.4728  0.2414
   91MOL0     C12212   6.200   5.087  10.280 -0.1461  0.8267 -0.6452
   91MOL0     C12213   6.065   5.005  10.271 -0.2490 -0.5006  0.1313
   91MOL0     C12214   5.967   5.109  10.276 -0.2179 -0.5329  0.0690
   91MOL0     C12215   5.889   5.200  10.299  1.0145 -0.2028  0.0973
   91MOL0     C12216   6.539   5.429  10.495 -0.2698  0.4784 -0.0464
   91MOL0     C12217   6.624   5.536  10.528  0.0912  0.4350  0.8617
   91MOL0     H12218   7.060   5.696  10.607  1.4537  0.1192 -0.8760
   91MOL0     H12219   7.236   5.854  10.689 -0.2176 -1.7546  2.2562
   91MOL0     H12220   7.150   6.272  10.760 -1.7840  0.9909  0.7963
   91MOL0     H12221   7.114   6.213  10.923 -2.1300 -0.4605 -1.7942
   91MOL0     H12222   7.356   6.189  10.965 -0.9497  1.1128  1.8369
   91MOL0     H12223   7.388   6.238  10.805  1.7666  0.2843  0.3849
   91MOL0     H12224   7.306   6.485  10.867  4.2126  1.0292  0.1274
   91MOL0     H12225   7.278   6.416  11.023  0.0261 -0.6807  0.6482
   91MOL0     H12226   7.489   6.520  11.041  0.6169  0.4551 -0.4291
   91MOL0     H12227   7.534   6.351  11.013  2.0241 -0.3092 -1.5377
   91MOL0     H12228   7.577   6.390  10.764  3.3296  1.0657 -1.6847
   91MOL0     H12229   7.527   6.557  10.803 -1.6101 -2.0664 -2.4872
   91MOL0     H12230   7.721   6.585  10.949  0.7706 -0.2347  0.3429
   91MOL0     H12231   7.758   6.409  10.923  0.9390  1.8000  2.5604
   91MOL0     H12232   7.768   6.484  10.677  3.8472 -0.3088  0.0200
   91MOL0     H12233   7.735   6.653  10.737  0.5881  1.5745  2.7267
   91MOL0     H12234   7.986   6.470  10.794 -3.3307 -1.4094  1.0931
   91MOL0     H12235   7.957   6.638  10.847 -1.3905 -1.7655  1.6019
   91MOL0     H12236   7.982   6.397  10.549 -1.4409  0.3358  4.2886
   91MOL0     H12237   8.130   6.417  10.290  0.5269  0.5479 -2.9528
   91MOL0     H12238   8.031   6.545  10.223 -1.2842  2.9448  1.6492
   91MOL0     H12239   8.243   6.708  10.266  2.5320  0.1005 -0.5843
   91MOL0     H12240   8.255   6.582  10.148 -2.5615  1.6138 -0.8467
   91MOL0     H12241   8.354   6.432  10.302 -1.2625  0.5551 -4.1271
   91MOL0     H12242   8.365   6.559  10.441  2.3933  0.3198 -0.1703
   91MOL0     H12243   8.506   6.684  10.319 -1.9617  1.4225 -3.2422
   91MOL0     H12244   8.479   6.598  10.170  0.6931  3.9535  0.2562
   91MOL0     H12245   8.785   6.305  10.365 -0.5298  0.3454  1.2893
   91MOL0     H12246   9.007   6.217  10.375  2.3083 -2.3730 -2.0028
   91MOL0     H12247   9.113   6.270  10.249  0.6479  0.8805  0.9354
   91MOL0     H12248   9.113   6.351  10.409 -2.0972  1.0101  1.3073
   91MOL0     H12249   9.400   6.531  10.025 -0.2716  1.5202 -0.6444
   91MOL0     H12250   9.624   6.565  10.019 -1.7332 -2.0531 -0.9001
   91MOL0     H12251   9.837   6.734  10.378  1.0942  0.4536  1.5188
   91MOL0     H12252   9.848   6.558  10.425  0.7446 -0.5080 -0.6619
   91MOL0     H12253  10.039   6.693  10.234 -0.4383 -3.3920 -2.5989
   91MOL0     H12254  10.067   6.674  10.419  0.8926 -1.8357 -0.2063
   91MOL0     H12255  10.021   6.451  10.230 -1.8250 -2.1780  1.0257
   91MOL0     H12256  10.050   6.447  10.405 -2.9365  3.0079  0.5808
   91MOL0     H12257  10.234   6.407  10.233 -3.2035 -0.1180 -1.2962
   91MOL0     H12258  10.227   6.578  10.197 -0.3298  0.0927 -0.1303
   91MOL0     H12259  10.274   6.497  10.482  1.3561 -3.1502 -0.3061
   91MOL0     H12260  10.294   6.658  10.405 -0.6097 -0.5359  1.1456
   91MOL0     H12261  10.460   6.410  10.376 -0.9485 -0.6805  2.4738
   91MOL0     H12262  10.486   6.571  10.294  1.0408 -0.3639  0.8179
   91MOL0     H12263  10.555   6.457  10.558  1.8496  0.2616  1.0641
   91MOL0     H12264  10.511   6.631  10.571  2.1517  1.6434 -0.8349
   91MOL0     H12265  10.753   6.627  10.519 -1.4883  1.3657  0.6887
   91MOL0     H12266  10.683   6.635  10.350  0.0421 -0.7063 -1.4688
   91MOL0     H12267   9.639   6.569  10.462  0.5160  0.6907  0.5351
   91MOL0     H12268   9.422   6.516  10.456 -0.7180 -0.1983 -0.2495
   91MOL0     H12269   8.929   6.729  10.165 -2.7029  0.4017  0.8360
   91MOL0     H12270   8.720   6.690  10.176  1.7349 -0.0419 -3.1786
   91MOL0     H12271   6.939   6.124  10.824  3.3240 -1.2863  3.8796
   91MOL0     H12272   6.754   6.002  10.734  0.0434 -0.6084  0.6789
   91MOL0     H12273   6.657   5.441  10.861  0.6137  0.3292 -1.0439
   91MOL0     H12274   6.483   5.284  10.787  1.0296 -2.4640 -1.1682
   91MOL0     H12275   6.303   5.322  10.409 -0.8923  0.2965  2.1613
   91MOL0     H12276   6.436   5.206  10.364  0.3309 -1.4442  0.0344
   91MOL0     H12277   6.157   5.165  10.481 -0.9142 -0.2020 -0.1507
   91MOL0     H12278   6.255   5.030  10.484  0.2204  0.7151  0.4918
   91MOL0     H12279   6.278   5.023  10.237 -0.2868 -2.6514  3.5292
   91MOL0     H12280   6.186   5.175  10.216 -2.8907 -0.1141 -1.4646
   91MOL0     H12281   6.053   4.959  10.370  2.8231 -1.4066  0.1826
   91MOL0     H12282   6.040   4.939  10.188 -1.7456  1.5022 -1.1004
   91MOL0     H12283   5.837   5.291  10.319 -1.1986 -1.3823 -0.0553
   91MOL0     H12284   6.514   5.411  10.391 -1.0096 -1.2341  0.3747
   91MOL0     H12285   6.658   5.606  10.453 -0.2495 -0.5400 -0.2223
   92MOL0     O12286   7.040   1.803   8.657  0.1265 -1.1290 -0.2669
   92MOL0     C12287   6.984   1.898   8.595  0.1956 -0.2477 -1.0447
   92MOL0     O12288   6.855   1.911   8.576  0.8756 -0.9594  0.0828
   92MOL0     C12289   6.760   1.815   8.620  0.0392 -0.7115  0.6564
   92MOL0     C12290   6.676   1.843   8.735  0.1274  0.4890  0.7991
   92MOL0     C12291   6.578   1.754   8.772 -1.0970 -1.2566 -0.6908
   92MOL0     C12292   6.546   1.640   8.704 -0.0455 -1.0096  0.0770
   92MOL0     O12293   6.447   1.545   8.725  0.8964 -0.1687 -0.6452
   92MOL0     C12294   6.391   1.546   8.860  0.1590 -0.6033 -0.1719
   92MOL0     C12295   6.475   1.455   8.936  0.4608  0.2781  0.4914
   92MOL0     C12296   6.462   1.310   8.890  0.0603 -0.2445 -0.2168
   92MOL0     C12297   6.531   1.209   8.981 -0.4994  0.1390  0.0623
   92MOL0     C12298   6.452   1.194   9.110 -0.1159  0.1868 -0.6165
   92MOL0     C12299   6.490   1.066   9.198  0.9964 -0.2580 -0.5203
   92MOL0     C12300   6.632   1.047   9.228 -0.2300 -1.2318  0.5250
   92MOL0     C12301   6.666   0.901   9.248  0.2315  1.0647 -0.5395
   92MOL0     N12302   6.813   0.869   9.272  0.5103  0.2318  0.5498
   92MOL0     C12303   6.845   0.736   9.312  0.2529  0.1106  0.0068
   92MOL0     C12304   6.978   0.734   9.298  0.6613 -0.0622  0.3994
   92MOL0     C12305   7.067   0.625   9.338 -0.5603  0.3934 -0.3539
   92MOL0     C12306   7.154   0.654   9.463  0.1546 -0.2942 -0.0913
   92MOL0     C12307   7.117   0.555   9.578  1.0538 -0.4534  0.5383
   92MOL0     C12308   6.977   0.574   9.633 -0.2686 -0.3219  0.9552
   92MOL0     O12309   6.940   0.708   9.662 -0.2804 -0.0987 -1.4253
   92MOL0     C12310   6.798   0.743   9.674  0.2842  0.6156  1.5403
   92MOL0     C12311   6.764   0.870   9.718 -0.5936  0.9418 -1.0691
   92MOL0     C12312   6.635   0.910   9.742 -0.1384 -0.1903  0.3187
   92MOL0     C12313   6.616   1.049   9.795 -0.7235 -0.3727 -0.8966
   92MOL0     C12314   6.530   0.821   9.710  0.3660  0.5549 -0.3093
   92MOL0     C12315   6.392   0.860   9.722 -0.6332 -1.0774  0.0067
   92MOL0     O12316   6.362   0.976   9.643 -0.5029 -0.0208 -0.2523
   92MOL0     C12317   6.241   1.043   9.646  0.7372 -0.1843  0.0003
   92MOL0     C12318   6.187   1.104   9.764 -0.1058  0.4208 -0.5267
   92MOL0     C12319   6.068   1.177   9.752 -0.2349 -0.6268 -0.0996
   92MOL0     C12320   5.993   1.177   9.631  0.1286  0.0167 -0.9015
   92MOL0     O12321   5.870   1.238   9.617 -0.8887 -0.4402  0.6963
   92MOL0     C12322   5.789   1.278   9.726  0.5689 -0.2414 -0.1931
   92MOL0     C12323   5.637   1.266   9.693 -0.4960  0.3867 -0.0332
   92MOL0     C12324   5.537   1.318   9.800 -0.2394 -0.7027  0.1637
   92MOL0     C12325   5.398   1.351   9.739 -0.2592  0.4999 -0.5582
   92MOL0     C12326   5.295   1.351   9.846 -0.6355  0.4000 -0.0912
   92MOL0     C12327   5.167   1.425   9.817  0.4576 -0.1995  0.0054
   92MOL0     C12328   5.075   1.359   9.724 -0.4688  0.2137  0.4667
   92MOL0     C12329   4.957   1.450   9.685  0.9128  0.3383  0.3104
   92MOL0    Cl12330   4.867   1.510   9.825 -0.3829 -0.2155  0.3153
   92MOL0     C12331   6.047   1.114   9.514  0.0157  0.3900 -0.1399
   92MOL0     C12332   6.169   1.046   9.519 -0.3803  0.1962  0.3912
   92MOL0     O12333   6.304   0.803   9.790  0.2228  0.3579  0.1574
   92MOL0     C12334   6.555   0.694   9.666  0.7346  0.3677  0.1754
   92MOL0     C12335   6.688   0.657   9.637  0.1437  0.2881 -0.5240
   92MOL0     N12336   7.017   0.857   9.249  0.0385 -0.6228 -0.0546
   92MOL0     N12337   6.926   0.937   9.241  0.9251  0.5561  0.1556
   92MOL0     C12338   6.627   1.606   8.599 -0.1907  0.4504 -0.1701
   92MOL0     C12339   6.727   1.698   8.552 -0.1218 -0.4639  0.6980
   92MOL0     C12340   7.074   2.010   8.560 -0.0258 -0.4230 -1.1238
   92MOL0     C12341   7.214   2.014   8.590  0.2719  0.6117  0.6881
   92MOL0     C12342   7.302   2.122   8.561  0.5125  0.9823  0.3218
   92MOL0     C12343   7.252   2.226   8.477  0.0857  0.2464  0.3994
   92MOL0     O12344   7.326   2.335   8.436  0.1450  0.2732  0.1712
   92MOL0     C12345   7.458   2.315   8.423  0.2041 -0.0692 -0.2697
   92MOL0     C12346   7.498   2.236   8.299  0.0806 -0.0708 -0.8102
   92MOL0     C12347   7.655   2.231   8.275 -0.0985  0.7218  0.1170
   92MOL0     C12348   7.731   2.179   8.395 -0.8133  0.2996 -0.0997
   92MOL0     C12349   7.871   2.167   8.367 -0.0559 -0.7807 -0.5281
   92MOL0     C12350   7.995   2.151   8.346 -0.2502  0.6835 -1.0881
   92MOL0     C12351   7.110   2.235   8.467 -0.1486 -0.5336 -0.0904
   92MOL0     C12352   7.031   2.126   8.499 -0.1103 -0.5785  1.4500
   92MOL0     H12353   6.700   1.938   8.783 -1.4429  1.6646 -0.6403
   92MOL0     H12354   6.522   1.791   8.856 -1.4506 -1.3042 -0.9020
   92MOL0     H12355   6.389   1.648   8.901  5.2402 -0.8521  1.3250
   92MOL0     H12356   6.294   1.497   8.871  0.4251 -0.8267  1.3526
   92MOL0     H12357   6.578   1.492   8.948  0.4696  0.0684  1.0848
   92MOL0     H12358   6.430   1.467   9.035 -1.0865  2.7966 -0.4160
   92MOL0     H12359   6.359   1.273   8.885  0.9518 -2.7734 -1.6823
   92MOL0     H12360   6.501   1.304   8.789  0.2593 -0.8747 -0.1063
   92MOL0     H12361   6.540   1.119   8.919 -1.5934  0.8419 -1.1879
   92MOL0     H12362   6.632   1.239   9.008 -0.4461 -2.5566  3.4568
   92MOL0     H12363   6.453   1.287   9.167 -0.0137 -0.9624  1.3232
   92MOL0     H12364   6.349   1.169   9.080 -0.7333 -0.2183  1.6941
   92MOL0     H12365   6.424   1.068   9.286 -4.1424 -0.1704 -3.9625
   92MOL0     H12366   6.460   0.975   9.146  0.0572 -0.1413 -0.2133
   92MOL0     H12367   6.692   1.095   9.151 -1.1212 -1.0144 -0.0447
   92MOL0     H12368   6.656   1.102   9.320  0.0216 -2.4841  1.2327
   92MOL0     H12369   6.658   0.838   9.159  1.9659  0.8030 -0.5357
   92MOL0     H12370   6.593   0.882   9.327  0.0466 -1.8806 -1.3208
   92MOL0     H12371   6.784   0.650   9.336  2.1735 -0.7469  2.1763
   92MOL0     H12372   7.004   0.537   9.355  1.0054 -1.2046 -2.3628
   92MOL0     H12373   7.133   0.595   9.256 -0.3501 -1.3153  0.3850
   92MOL0     H12374   7.153   0.759   9.494  1.3148  0.0309 -1.0653
   92MOL0     H12375   7.258   0.639   9.433  0.3995  1.8678 -0.5102
   92MOL0     H12376   7.191   0.574   9.656 -0.3004 -1.6941  2.2106
   92MOL0     H12377   7.132   0.454   9.541  0.4982  0.1196 -1.3563
   92MOL0     H12378   6.954   0.510   9.718 -1.6882  1.9979  2.4250
   92MOL0     H12379   6.908   0.545   9.553 -2.0925 -0.6447  2.5901
   92MOL0     H12380   6.839   0.947   9.736  1.0876 -0.5076 -1.4977
   92MOL0     H12381   6.610   1.128   9.720  2.0948 -1.5774 -2.5560
   92MOL0     H12382   6.520   1.038   9.846  0.7349  0.5890  2.2672
   92MOL0     H12383   6.695   1.070   9.867  0.0225 -1.4773 -1.3755
   92MOL0     H12384   6.255   1.110   9.849 -0.3419  0.2053 -0.3208
   92MOL0     H12385   6.027   1.215   9.845  1.1886 -0.9111  0.6797
   92MOL0     H12386   5.806   1.215   9.815 -1.8443  1.5761  1.7135
   92MOL0     H12387   5.815   1.378   9.761  2.7555 -1.4532  1.9417
   92MOL0     H12388   5.626   1.321   9.600 -2.6865  0.7551  0.4066
   92MOL0     H12389   5.622   1.160   9.670 -0.5967  0.0609  1.4113
   92MOL0     H12390   5.586   1.397   9.859  0.7175 -1.3958  0.3132
   92MOL0     H12391   5.526   1.232   9.866  0.4213 -0.5457  0.4954
   92MOL0     H12392   5.403   1.450   9.693  2.9690  0.0044 -1.5667
   92MOL0     H12393   5.374   1.273   9.667  0.3677 -0.5976  0.3732
   92MOL0     H12394   5.342   1.393   9.935  0.8242 -1.4697  0.0792
   92MOL0     H12395   5.261   1.250   9.871 -1.3326  0.9315  1.2158
   92MOL0     H12396   5.108   1.429   9.909 -1.3151  0.2422 -1.1126
   92MOL0     H12397   5.199   1.524   9.783  1.4642 -0.6909 -0.5347
   92MOL0     H12398   5.050   1.268   9.778 -1.4525 -0.6574 -1.3502
   92MOL0     H12399   5.126   1.338   9.629  0.1848 -1.0312  1.0763
   92MOL0     H12400   4.899   1.384   9.621  0.5537 -1.8365  2.7080
   92MOL0     H12401   4.990   1.533   9.621 -0.4998  0.2672 -0.5404
   92MOL0     H12402   5.987   1.125   9.424  0.7097 -2.2648 -1.0175
   92MOL0     H12403   6.200   0.999   9.426 -1.9092  2.0469 -1.1406
   92MOL0     H12404   6.463   0.647   9.634 -0.6944  3.5002 -0.6361
   92MOL0     H12405   6.706   0.560   9.591  0.3332  0.4657 -0.8204
   92MOL0     H12406   6.599   1.519   8.541 -1.4821  1.1887 -0.7025
   92MOL0     H12407   6.784   1.676   8.463 -0.3956 -0.6641  0.5699
   92MOL0     H12408   7.256   1.932   8.648 -0.7445 -0.1345  0.3968
   92MOL0     H12409   7.403   2.094   8.589  0.6038 -1.7421 -2.1826
   92MOL0     H12410   7.502   2.415   8.415  0.2268  0.0073  0.7259
   92MOL0     H12411   7.497   2.271   8.515 -1.3827  0.8627  0.9018
   92MOL0     H12412   7.445   2.276   8.212 -0.4811  0.2418 -0.3327
   92MOL0     H12413   7.449   2.138   8.303 -1.8143  0.8184 -1.2193
   92MOL0     H12414   7.688   2.331   8.245 -1.0609  0.7965 -0.7403
   92MOL0     H12415   7.687   2.173   8.188  0.0185  0.7938  0.1111
   92MOL0     H12416   7.697   2.076   8.404  2.5833 -0.8022  2.7297
   92MOL0     H12417   7.714   2.236   8.487 -0.6962 -1.0691  0.8041
   92MOL0     H12418   8.102   2.144   8.341 -0.3828 -2.8495 -1.5711
   92MOL0     H12419   7.067   2.317   8.410  0.9979  0.4289  0.3896
   92MOL0     H12420   6.924   2.131   8.481  0.1430 -0.1660 -0.1241
   93MOL0     O12421  11.200  11.124   8.761  0.7915  0.3100  0.0840
   93MOL0     C12422  11.251  11.019   8.728  0.4280 -0.7046 -1.1439
   93MOL0     O12423  11.181  10.905   8.712 -0.3407  0.0115  0.4423
   93MOL0     C12424  11.055  10.887   8.749 -0.2188 -0.0557  0.8142
   93MOL0     C12425  10.994  10.955   8.856  0.4377 -0.1077  0.2994
   93MOL0     C12426  10.865  10.915   8.885 -1.2679  0.9290  0.3995
   93MOL0     C12427  10.793  10.806   8.828 -0.3360 -0.3703 -0.1516
   93MOL0     O12428  10.677  10.759   8.873 -0.5075 -0.0223 -0.1934
   93MOL0     C12429  10.581  10.840   8.942  0.4537 -0.0917 -0.1412
   93MOL0     C12430  10.455  10.760   8.943 -0.2091 -1.2564 -0.1079
   93MOL0     C12431  10.339  10.854   9.001 -0.0538  0.1871  0.6200
   93MOL0     C12432  10.212  10.771   9.018 -0.2738  0.3356 -0.8205
   93MOL0     C12433  10.100  10.852   9.086  0.3114 -0.1757 -0.0067
   93MOL0     C12434   9.997  10.743   9.126  0.3725  0.0001  0.1081
   93MOL0     C12435   9.884  10.808   9.204  0.0033  0.1364  0.3313
   93MOL0     C12436   9.765  10.720   9.247 -1.1998 -0.4510  0.2599
   93MOL0     N12437   9.682  10.792   9.350 -0.3277  0.2002  0.3815
   93MOL0     C12438   9.702  10.906   9.425  0.1765  0.7513  0.0618
   93MOL0     C12439   9.583  10.951   9.471 -0.1834  0.5017  0.9714
   93MOL0     C12440   9.555  11.066   9.559 -0.3643  0.9159  1.3726
   93MOL0     C12441   9.673  11.157   9.575  0.1990  0.5735 -0.7232
   93MOL0     C12442   9.619  11.266   9.673  0.2267 -0.4847  0.5239
   93MOL0     C12443   9.725  11.365   9.715 -1.7907  1.1129 -0.6601
   93MOL0     O12444   9.668  11.445   9.814 -0.1242  0.2690 -0.8743
   93MOL0     C12445   9.748  11.541   9.875  0.1479  0.0284  0.0607
   93MOL0     C12446   9.880  11.578   9.844  0.6528  0.4380 -0.2812
   93MOL0     C12447   9.945  11.688   9.910  0.7733  0.5996  0.4275
   93MOL0     C12448  10.081  11.727   9.860  0.2777 -0.2326  0.1057
   93MOL0     C12449   9.876  11.760  10.011  0.4578 -0.3505  0.4581
   93MOL0     C12450   9.923  11.886  10.076  0.1103 -0.1063 -1.1132
   93MOL0     O12451   9.853  11.942  10.172  0.9051 -0.2668 -1.1964
   93MOL0     C12452   9.877  12.066  10.222  0.6930 -0.0480  0.0750
   93MOL0     C12453   9.849  12.094  10.351 -0.1907 -0.4074 -0.7488
   93MOL0     C12454   9.867  12.228  10.403 -0.7156 -0.2544 -0.9884
   93MOL0     C12455   9.911  12.332  10.318  0.6314 -0.9140 -0.6920
   93MOL0     O12456   9.947  12.457  10.364  0.3739 -0.3820 -0.1765
   93MOL0     C12457   9.915  12.502  10.495  0.5529 -0.2845 -0.0318
   93MOL0     C12458   9.940  12.653  10.506 -0.1371  0.4821 -0.6855
   93MOL0     C12459   9.918  12.710  10.646 -0.3543  0.7599  0.0734
   93MOL0     C12460   9.935  12.863  10.645 -0.3725 -0.3298 -1.4225
   93MOL0     C12461   9.918  12.905  10.796 -1.0209 -0.0321  0.1994
   93MOL0     C12462   9.910  13.053  10.809 -0.3255  0.8078 -0.0594
   93MOL0     C12463   9.905  13.103  10.956 -0.2155  0.9001  0.4093
   93MOL0     C12464   9.844  13.241  10.969 -0.0686  0.6208  0.6353
   93MOL0    Cl12465   9.935  13.365  10.881 -0.0249  0.1126 -0.1622
   93MOL0     C12466   9.932  12.300  10.189 -0.3509  0.4045 -1.2594
   93MOL0     C12467   9.915  12.171  10.138 -0.0644 -0.4403 -0.7049
   93MOL0     O12468  10.040  11.921  10.048  0.5967 -0.0882 -0.2456
   93MOL0     C12469   9.762  11.698  10.065 -0.5776  0.2714 -0.7993
   93MOL0     C12470   9.690  11.598   9.996 -0.5075 -0.5392  0.0686
   93MOL0     N12471   9.486  10.868   9.421 -0.3319 -0.3915  0.1470
   93MOL0     N12472   9.546  10.780   9.350 -0.3944  0.6499  0.3195
   93MOL0     C12473  10.864  10.736   8.726  0.6735  0.3491 -0.3954
   93MOL0     C12474  10.984  10.792   8.673  0.0831  1.3226  0.0549
   93MOL0     C12475  11.395  11.020   8.670 -0.4726 -0.4694 -0.3550
   93MOL0     C12476  11.484  11.121   8.690 -0.9470 -0.0827  0.1735
   93MOL0     C12477  11.617  11.123   8.631  0.5487  0.5879  0.0306
   93MOL0     C12478  11.652  11.015   8.551  0.3974 -0.4789  0.8154
   93MOL0     O12479  11.777  10.999   8.503  0.7280 -0.0876  0.9218
   93MOL0     C12480  11.839  11.112   8.436  0.1172  1.5231  0.2077
   93MOL0     C12481  11.762  11.115   8.297 -0.3179 -0.7274  0.8071
   93MOL0     C12482  11.799  11.234   8.212  0.1300 -0.9343  0.1050
   93MOL0     C12483  11.749  11.378   8.224  0.8617  0.2339  0.0540
   93MOL0     C12484  11.725  11.443   8.098  0.1293 -0.7526  1.0086
   93MOL0     C12485  11.707  11.498   7.989 -0.6623  0.2141  0.0635
   93MOL0     C12486  11.558  10.914   8.521  0.5819 -0.2989  0.4577
   93MOL0     C12487  11.437  10.915   8.585  1.1574  0.2113 -0.0681
   93MOL0     H12488  11.045  11.041   8.897 -0.3900 -0.1853  1.5440
   93MOL0     H12489  10.822  10.971   8.968 -0.5911  1.6836  0.2548
   93MOL0     H12490  10.620  10.855   9.043 -0.4921 -2.9197  0.7211
   93MOL0     H12491  10.561  10.939   8.900  1.7400 -0.1165 -0.8557
   93MOL0     H12492  10.433  10.730   8.840 -1.6612 -1.9882  0.3855
   93MOL0     H12493  10.464  10.671   9.005 -1.3788 -1.3968 -0.1104
   93MOL0     H12494  10.367  10.903   9.094  0.0286  0.6386  0.3587
   93MOL0     H12495  10.314  10.934   8.931 -1.3527 -0.4274  0.3433
   93MOL0     H12496  10.183  10.729   8.921  3.1761  0.8529 -2.2150
   93MOL0     H12497  10.232  10.689   9.088  2.2370  1.0462 -0.6326
   93MOL0     H12498  10.146  10.900   9.173  2.2598 -1.8576 -0.0352
   93MOL0     H12499  10.057  10.917   9.010 -0.1250  0.1891  0.5467
   93MOL0     H12500   9.961  10.694   9.035  0.0991  0.4465 -0.0283
   93MOL0     H12501  10.054  10.671   9.185  0.0468 -0.1539  0.2381
   93MOL0     H12502   9.927  10.854   9.293 -1.4344 -0.2332  1.2467
   93MOL0     H12503   9.836  10.884   9.142 -0.9423 -1.7240 -1.3351
   93MOL0     H12504   9.807  10.630   9.293  3.2720  0.6123 -1.1773
   93MOL0     H12505   9.706  10.694   9.159  2.8058 -2.0560 -2.2480
   93MOL0     H12506   9.793  10.964   9.435 -0.0224  0.7166  2.6782
   93MOL0     H12507   9.465  11.114   9.519  0.0389  0.6983  0.1835
   93MOL0     H12508   9.535  11.019   9.656  2.5944 -1.0456  1.1273
   93MOL0     H12509   9.701  11.196   9.477 -0.0054 -1.2619 -1.5504
   93MOL0     H12510   9.751  11.094   9.618  3.8180  4.2122 -1.3931
   93MOL0     H12511   9.594  11.211   9.764  2.2180 -3.9001 -0.7839
   93MOL0     H12512   9.535  11.323   9.634  0.3231 -2.0713 -2.2225
   93MOL0     H12513   9.764  11.427   9.634  1.1375  1.2589  0.7502
   93MOL0     H12514   9.806  11.302   9.752  1.5123  4.5075 -1.4580
   93MOL0     H12515   9.923  11.541   9.751  1.1368  1.5002 -0.4956
   93MOL0     H12516  10.083  11.818   9.800 -3.5450 -0.7472 -1.0635
   93MOL0     H12517  10.142  11.724   9.951 -0.7831 -3.2404  0.8278
   93MOL0     H12518  10.106  11.653   9.784 -1.2875 -0.2265 -0.4534
   93MOL0     H12519   9.822  12.016  10.421  1.4483  0.5455  1.0629
   93MOL0     H12520   9.852  12.250  10.508  1.8681 -0.7205 -0.4535
   93MOL0     H12521   9.811  12.482  10.521  1.3805 -0.7680  3.4507
   93MOL0     H12522   9.976  12.458  10.575  0.0169 -1.0494 -0.0312
   93MOL0     H12523  10.044  12.672  10.477  1.7959 -0.6674  4.4134
   93MOL0     H12524   9.874  12.696  10.431 -1.5966 -3.9108 -2.2723
   93MOL0     H12525   9.975  12.663  10.727 -2.2138  0.0841  1.0501
   93MOL0     H12526   9.819  12.672  10.674  0.0620 -0.5747 -0.1785
   93MOL0     H12527  10.032  12.894  10.604 -0.8022  3.1270 -0.0969
   93MOL0     H12528   9.855  12.912  10.589 -2.0941  0.3768  1.4698
   93MOL0     H12529  10.006  12.867  10.850 -2.5935 -2.6588  1.1192
   93MOL0     H12530   9.834  12.854  10.843  0.0930 -0.3759  1.9128
   93MOL0     H12531   9.992  13.091  10.747 -1.0510 -0.0064 -1.5620
   93MOL0     H12532   9.810  13.074  10.770 -0.8597 -1.6281 -0.1765
   93MOL0     H12533  10.004  13.100  11.003  1.1064  2.4843 -2.0440
   93MOL0     H12534   9.838  13.034  11.007  0.2243  0.3618  0.2642
   93MOL0     H12535   9.848  13.262  11.076 -1.7561 -2.9937  1.5701
   93MOL0     H12536   9.741  13.249  10.931 -0.0868  0.1252  0.5741
   93MOL0     H12537   9.972  12.376  10.123 -2.5389  0.6047 -2.4659
   93MOL0     H12538   9.935  12.143  10.036 -1.6578 -1.7049 -0.7280
   93MOL0     H12539   9.725  11.742  10.157 -0.0848 -2.5696  0.8842
   93MOL0     H12540   9.600  11.551  10.033 -0.5455  0.0154  0.6840
   93MOL0     H12541  10.823  10.649   8.677  1.0993  0.7081 -1.4295
   93MOL0     H12542  11.030  10.754   8.583  0.0501  1.0881  0.1351
   93MOL0     H12543  11.462  11.203   8.757 -0.3864 -0.5838  0.9850
   93MOL0     H12544  11.679  11.208   8.658  0.6588 -0.0560  1.9183
   93MOL0     H12545  11.821  11.202   8.495  0.5123 -0.3906  3.5757
   93MOL0     H12546  11.947  11.096   8.427  0.1143  2.6193 -2.5573
   93MOL0     H12547  11.652  11.119   8.301 -0.3269  2.9645  0.3378
   93MOL0     H12548  11.789  11.028   8.237  1.4131  0.6224 -0.4758
   93MOL0     H12549  11.768  11.198   8.114 -0.3860  1.7554 -0.7974
   93MOL0     H12550  11.908  11.240   8.200  0.2325  1.4930  1.5869
   93MOL0     H12551  11.831  11.440   8.260  0.7448  2.2632 -2.7847
   93MOL0     H12552  11.664  11.392   8.291  0.4705 -0.4133 -0.3026
   93MOL0     H12553  11.696  11.539   7.891 -4.9438  0.6994  0.5356
   93MOL0     H12554  11.592  10.833   8.457  0.6623  0.6687 -0.7561
   93MOL0     H12555  11.367  10.841   8.547  0.5158  0.6574  0.2414
   94MOL0     O12556   8.683   6.416   6.794  0.1147 -0.3152 -0.7801
   94MOL0     C12557   8.698   6.357   6.900 -0.0077 -0.4735 -0.8475
   94MOL0     O12558   8.596   6.318   6.995  0.6101 -0.0224 -0.0529
   94MOL0     C12559   8.473   6.377   6.985  0.0032  0.6232  0.2197
   94MOL0     C12560   8.393   6.366   6.872 -1.0835  0.0532 -0.3793
   94MOL0     C12561   8.263   6.422   6.880  0.2227  0.1768  0.2768
   94MOL0     C12562   8.218   6.482   7.000  0.0354 -0.7885  0.6376
   94MOL0     O12563   8.095   6.542   7.010  0.5786  0.1790 -0.2955
   94MOL0     C12564   8.001   6.527   6.895  0.5634  0.7578 -0.2772
   94MOL0     C12565   7.873   6.613   6.913 -0.5151 -0.0813  0.5639
   94MOL0     C12566   7.785   6.549   7.011 -0.2730  0.0851 -0.1640
   94MOL0     C12567   7.641   6.603   6.993 -0.1425 -1.1263 -0.9271
   94MOL0     C12568   7.538   6.494   7.040  0.2731  0.2930 -0.1939
   94MOL0     C12569   7.420   6.537   7.128  0.3973 -0.6599 -0.2401
   94MOL0     C12570   7.456   6.593   7.267 -0.0039 -1.0544 -0.3511
   94MOL0     C12571   7.433   6.477   7.370  0.5367 -0.9016 -0.0047
   94MOL0     N12572   7.293   6.445   7.383 -0.1510  0.7157 -0.4611
   94MOL0     C12573   7.185   6.534   7.384 -0.5309  0.0121  0.1163
   94MOL0     C12574   7.085   6.473   7.316  0.9370 -1.0137 -0.2144
   94MOL0     C12575   6.960   6.540   7.264  0.3589  0.7385  0.5546
   94MOL0     C12576   6.961   6.561   7.106 -0.4852 -0.9959 -0.8166
   94MOL0     C12577   6.860   6.663   7.057 -0.5407 -0.1159  0.2977
   94MOL0     C12578   6.715   6.642   7.092  0.6847  1.0484  0.2647
   94MOL0     O12579   6.639   6.703   6.988  0.3058 -0.1395 -0.0128
   94MOL0     C12580   6.510   6.738   7.009 -0.6097 -0.0572 -0.5602
   94MOL0     C12581   6.436   6.762   6.899 -0.8731 -0.1966 -0.5031
   94MOL0     C12582   6.301   6.797   6.905  1.0194 -0.2864  0.0576
   94MOL0     C12583   6.227   6.821   6.778 -0.2283  0.2579  0.5620
   94MOL0     C12584   6.230   6.806   7.028  0.8654  0.0940  0.5595
   94MOL0     C12585   6.081   6.794   7.038 -0.0973 -0.0728  0.1645
   94MOL0     O12586   6.019   6.867   7.133 -0.0033  0.2870 -0.4840
   94MOL0     C12587   5.899   6.829   7.187 -0.5354 -0.0673  0.2092
   94MOL0     C12588   5.819   6.916   7.258 -1.1681 -0.0695  0.2827
   94MOL0     C12589   5.694   6.873   7.309  0.5476 -0.0703 -0.2025
   94MOL0     C12590   5.641   6.742   7.291  0.1293  0.7301  0.4342
   94MOL0     O12591   5.521   6.710   7.353  0.3616 -0.3128  0.9854
   94MOL0     C12592   5.417   6.669   7.276  0.2906 -0.2218 -0.2295
   94MOL0     C12593   5.359   6.543   7.355  0.3420  0.1317  0.0940
   94MOL0     C12594   5.243   6.488   7.278  0.1381  0.6971  0.2595
   94MOL0     C12595   5.108   6.557   7.331 -0.3166 -0.9136 -0.6342
   94MOL0     C12596   4.991   6.489   7.264 -0.6011 -0.1896 -0.5859
   94MOL0     C12597   4.855   6.566   7.291 -0.3270 -0.2827 -1.1744
   94MOL0     C12598   4.747   6.480   7.231  0.1186  0.3452 -0.1567
   94MOL0     C12599   4.623   6.563   7.234 -0.4208  0.4354  0.3075
   94MOL0    Cl12600   4.486   6.463   7.200 -0.1974  0.4259 -0.4200
   94MOL0     C12601   5.712   6.656   7.208 -0.0879  0.6623  0.3933
   94MOL0     C12602   5.843   6.697   7.168 -0.0445  0.3678 -0.2713
   94MOL0     O12603   6.028   6.729   6.950  0.2452  0.7949 -0.2032
   94MOL0     C12604   6.309   6.791   7.141 -0.0829 -0.2501  1.0101
   94MOL0     C12605   6.445   6.753   7.131 -0.7597  0.6951 -0.0036
   94MOL0     N12606   7.125   6.344   7.287  0.1532  0.3951 -0.2263
   94MOL0     N12607   7.245   6.327   7.340 -0.0482 -0.0978  0.4942
   94MOL0     C12608   8.300   6.484   7.109 -1.4904 -0.5898 -0.1942
   94MOL0     C12609   8.430   6.444   7.101 -0.6610 -0.0743 -0.3117
   94MOL0     C12610   8.829   6.318   6.934 -0.0044  0.0040  0.5410
   94MOL0     C12611   8.941   6.357   6.854 -0.1136  0.1031 -0.5569
   94MOL0     C12612   9.069   6.328   6.899  0.4008  0.7094 -0.1245
   94MOL0     C12613   9.087   6.247   7.004 -0.8227 -0.4100 -0.3188
   94MOL0     O12614   9.222   6.226   7.034 -0.6398 -0.0166 -0.2608
   94MOL0     C12615   9.251   6.146   7.154 -0.6411  0.7785  0.1776
   94MOL0     C12616   9.391   6.108   7.145 -0.8194  0.6635  0.0415
   94MOL0     C12617   9.476   6.227   7.121  0.3179 -0.3139  0.6227
   94MOL0     C12618   9.624   6.179   7.113 -0.8046 -1.1325 -0.0956
   94MOL0     C12619   9.656   6.118   6.990  0.5379 -0.2347  0.1101
   94MOL0     C12620   9.677   6.089   6.875  1.2463  0.4710  0.9384
   94MOL0     C12621   8.980   6.192   7.079 -0.1930  0.5268  0.3756
   94MOL0     C12622   8.857   6.240   7.044  0.4510  0.3428 -0.1853
   94MOL0     H12623   8.430   6.306   6.789  0.8363 -1.9258  1.7677
   94MOL0     H12624   8.190   6.415   6.800  0.8838  0.4670 -0.3640
   94MOL0     H12625   8.050   6.571   6.807  3.0420 -2.1018 -0.4862
   94MOL0     H12626   7.989   6.421   6.873  0.9995  0.6060  0.2105
   94MOL0     H12627   7.910   6.710   6.951  0.9009 -1.7648  4.0122
   94MOL0     H12628   7.817   6.626   6.821 -2.0134 -1.8274  1.1856
   94MOL0     H12629   7.780   6.443   6.985 -1.1573  0.6385 -2.4823
   94MOL0     H12630   7.816   6.574   7.113  0.0052  1.5430 -0.5925
   94MOL0     H12631   7.638   6.690   7.059 -2.1980 -1.4652 -0.5277
   94MOL0     H12632   7.622   6.639   6.892 -0.0413  0.9887 -0.2360
   94MOL0     H12633   7.504   6.439   6.952  3.0175 -1.5844 -0.2220
   94MOL0     H12634   7.579   6.410   7.098 -1.0953 -0.0278  0.3502
   94MOL0     H12635   7.349   6.603   7.077 -0.4412 -0.9007  0.5684
   94MOL0     H12636   7.365   6.442   7.135  1.7876 -1.4631  0.0546
   94MOL0     H12637   7.561   6.625   7.271 -0.8758  2.1881 -1.0474
   94MOL0     H12638   7.397   6.683   7.282 -0.7618 -1.3949 -1.2252
   94MOL0     H12639   7.466   6.515   7.466 -0.2955 -1.3723  0.4824
   94MOL0     H12640   7.488   6.390   7.333  0.2325 -0.2193 -2.1992
   94MOL0     H12641   7.186   6.640   7.407  2.4074 -0.0898  0.9391
   94MOL0     H12642   6.878   6.472   7.288  0.6288  0.2134 -0.0058
   94MOL0     H12643   6.953   6.634   7.319 -0.6604 -0.1014  1.9058
   94MOL0     H12644   6.942   6.468   7.053  0.3297 -3.1153  2.3489
   94MOL0     H12645   7.059   6.597   7.075 -0.9279 -1.0583 -2.3625
   94MOL0     H12646   6.865   6.669   6.947 -1.1337 -2.8143  0.0428
   94MOL0     H12647   6.886   6.765   7.087 -3.6956  0.4449  1.4955
   94MOL0     H12648   6.688   6.696   7.183  1.9059  4.1601 -1.0730
   94MOL0     H12649   6.674   6.541   7.090  0.8833  0.9721 -0.0517
   94MOL0     H12650   6.481   6.759   6.801 -0.0460  3.0432 -0.3175
   94MOL0     H12651   6.193   6.730   6.729 -0.4952  0.7283 -0.1422
   94MOL0     H12652   6.139   6.885   6.789 -0.7447 -0.5202  1.0236
   94MOL0     H12653   6.303   6.877   6.723  1.3766 -0.5803  1.8570
   94MOL0     H12654   5.850   7.017   7.281  1.0860 -0.5791 -0.2380
   94MOL0     H12655   5.637   6.947   7.365 -2.3868 -0.8214 -1.9519
   94MOL0     H12656   5.346   6.752   7.282  2.6839  1.8564  3.5572
   94MOL0     H12657   5.447   6.636   7.176  0.0715 -0.3321 -0.2584
   94MOL0     H12658   5.427   6.458   7.366  0.5097 -0.0658 -1.9688
   94MOL0     H12659   5.334   6.589   7.451 -1.1138 -0.0041 -0.1978
   94MOL0     H12660   5.248   6.379   7.279  2.9068  0.6927 -2.1702
   94MOL0     H12661   5.253   6.510   7.171 -2.3261  1.2747  0.0784
   94MOL0     H12662   5.095   6.563   7.439  0.4985  0.3087 -0.5830
   94MOL0     H12663   5.107   6.658   7.291 -2.8063 -0.6959 -0.1610
   94MOL0     H12664   4.982   6.391   7.312 -0.2469 -0.8983 -1.9160
   94MOL0     H12665   5.023   6.479   7.160  2.1241  1.3001  0.0012
   94MOL0     H12666   4.839   6.578   7.399  2.6835  1.1915 -0.8050
   94MOL0     H12667   4.849   6.670   7.258  0.5489  1.2286  2.7992
   94MOL0     H12668   4.748   6.392   7.296  0.6296  0.0045 -0.6149
   94MOL0     H12669   4.783   6.450   7.132 -1.7147 -0.7786 -0.5316
   94MOL0     H12670   4.626   6.649   7.166 -0.2877 -1.1533 -1.7852
   94MOL0     H12671   4.611   6.600   7.336  1.0527 -0.4827  0.8406
   94MOL0     H12672   5.668   6.559   7.190 -1.7220  1.3541  0.5511
   94MOL0     H12673   5.901   6.618   7.121 -0.2093 -0.8893  1.5466
   94MOL0     H12674   6.263   6.805   7.238  0.2242  0.6781  1.0263
   94MOL0     H12675   6.484   6.731   7.230  0.6004  0.7604 -0.5149
   94MOL0     H12676   8.285   6.536   7.203 -0.5771  0.8080 -0.7829
   94MOL0     H12677   8.501   6.464   7.180 -1.7478  1.2021  0.3747
   94MOL0     H12678   8.928   6.421   6.768 -1.0472  0.7466  0.0466
   94MOL0     H12679   9.156   6.362   6.843  1.9680  1.1836  2.4356
   94MOL0     H12680   9.231   6.207   7.242  2.1878 -0.1470  1.5799
   94MOL0     H12681   9.200   6.049   7.160  1.0210 -0.1880 -0.3696
   94MOL0     H12682   9.391   6.034   7.064 -1.8227 -0.4370  1.0089
   94MOL0     H12683   9.424   6.068   7.240 -0.1030  5.5589  2.1530
   94MOL0     H12684   9.466   6.298   7.203  2.0667 -1.2825  1.7392
   94MOL0     H12685   9.456   6.272   7.023 -0.0385  2.6814  1.9732
   94MOL0     H12686   9.657   6.118   7.198  5.3749  0.2521 -1.0731
   94MOL0     H12687   9.688   6.267   7.120 -0.1042 -1.5594 -0.9490
   94MOL0     H12688   9.695   6.068   6.771  3.1876  1.1865  1.0825
   94MOL0     H12689   9.000   6.128   7.164 -1.1331  0.0001  0.2095
   94MOL0     H12690   8.779   6.213   7.114  1.2903  0.7235  0.9440
   95MOL0     O12691   7.198   1.905   3.430  0.1113 -0.1151 -0.8492
   95MOL0     C12692   7.160   2.009   3.490  0.3872  0.8991 -0.2439
   95MOL0     O12693   7.239   2.074   3.565  0.1055 -0.9238 -0.7501
   95MOL0     C12694   7.374   2.053   3.581  0.0467  0.0055 -0.0060
   95MOL0     C12695   7.443   1.929   3.595  0.2696 -0.1308  0.0102
   95MOL0     C12696   7.580   1.924   3.603 -0.6158  0.2105 -0.5175
   95MOL0     C12697   7.667   2.034   3.600  1.1257 -0.2315  1.5529
   95MOL0     O12698   7.810   2.027   3.582  0.1562 -0.5281 -0.0898
   95MOL0     C12699   7.887   2.146   3.609  0.5109  0.2313 -0.3157
   95MOL0     C12700   8.038   2.121   3.613 -0.0174 -0.0347 -0.8925
   95MOL0     C12701   8.132   2.234   3.644 -0.4764 -0.9571  0.0329
   95MOL0     C12702   8.272   2.169   3.642 -0.7145  0.3424 -0.4444
   95MOL0     C12703   8.383   2.271   3.684  0.1884  0.1621  0.0829
   95MOL0     C12704   8.528   2.221   3.665 -0.1339  0.7795  0.5065
   95MOL0     C12705   8.633   2.331   3.683 -0.0146 -0.2425 -0.5935
   95MOL0     C12706   8.620   2.389   3.823 -0.2113  0.0845  0.2347
   95MOL0     N12707   8.751   2.419   3.886  0.0129 -0.6848  1.1289
   95MOL0     C12708   8.809   2.543   3.863 -0.0258 -0.1605 -0.6558
   95MOL0     C12709   8.940   2.529   3.909  0.8521  0.0018  0.5903
   95MOL0     C12710   9.055   2.627   3.885 -0.6304  0.5191  0.4512
   95MOL0     C12711   9.192   2.564   3.860  0.3182 -0.2628 -0.0852
   95MOL0     C12712   9.284   2.658   3.776  0.5363  0.5976  0.1519
   95MOL0     C12713   9.413   2.589   3.729 -0.6851  0.4240 -1.1396
   95MOL0     O12714   9.485   2.517   3.833 -0.4686 -0.3221 -0.0520
   95MOL0     C12715   9.582   2.434   3.793 -0.1728  1.0415 -0.4617
   95MOL0     C12716   9.622   2.328   3.881 -0.3287 -0.4342 -0.0292
   95MOL0     C12717   9.729   2.238   3.856  0.3697 -0.0772  0.6543
   95MOL0     C12718   9.736   2.125   3.954  0.4268 -0.1776 -0.2637
   95MOL0     C12719   9.817   2.265   3.747  0.3070 -0.1786  0.7336
   95MOL0     C12720   9.949   2.200   3.733  0.1780  0.3816  0.2899
   95MOL0     O12721   9.992   2.195   3.597 -0.0607  0.4436 -0.6779
   95MOL0     C12722  10.123   2.171   3.570 -0.6549 -0.5451 -0.3155
   95MOL0     C12723  10.203   2.078   3.636  0.0358 -0.2642 -0.4153
   95MOL0     C12724  10.337   2.049   3.594 -0.1331 -0.1457  0.9689
   95MOL0     C12725  10.392   2.118   3.490  0.0139  0.6942 -0.7437
   95MOL0     O12726  10.519   2.086   3.454  0.8364  0.4112  0.3322
   95MOL0     C12727  10.602   2.171   3.378  0.1385 -1.6446  0.2080
   95MOL0     C12728  10.599   2.122   3.237 -0.0377 -0.2555  0.0388
   95MOL0     C12729  10.701   2.177   3.135  0.2003 -0.6230  0.0408
   95MOL0     C12730  10.663   2.311   3.076 -0.3523  0.8825  0.6653
   95MOL0     C12731  10.598   2.297   2.944 -0.0584  0.1524 -0.4622
   95MOL0     C12732  10.571   2.433   2.878 -0.7076  0.4759 -0.0877
   95MOL0     C12733  10.564   2.420   2.720 -0.3241 -0.6670  0.0076
   95MOL0     C12734  10.518   2.549   2.662  0.2045  0.3961  0.6056
   95MOL0    Cl12735  10.657   2.665   2.683  0.0157 -0.0369 -0.4163
   95MOL0     C12736  10.317   2.218   3.420 -0.2940 -0.3139 -0.0486
   95MOL0     C12737  10.183   2.243   3.463 -0.1052  0.3890  0.1100
   95MOL0     O12738  10.007   2.152   3.831 -0.7279 -0.5377  0.3181
   95MOL0     C12739   9.782   2.380   3.667  0.7315 -0.2839  0.0906
   95MOL0     C12740   9.658   2.446   3.678 -1.2045  0.0069 -0.1103
   95MOL0     N12741   8.956   2.400   3.955 -0.0180 -0.8608 -0.7356
   95MOL0     N12742   8.852   2.338   3.930 -0.2827  0.1767  0.2841
   95MOL0     C12743   7.595   2.155   3.607  0.1327 -0.5375 -0.5929
   95MOL0     C12744   7.451   2.166   3.595 -0.9892  0.6732 -0.3189
   95MOL0     C12745   7.016   2.058   3.471 -0.2456 -0.0422 -0.8255
   95MOL0     C12746   6.923   1.980   3.405 -0.1373  0.3384  0.4404
   95MOL0     C12747   6.794   2.020   3.392  0.0823  0.3998 -0.0864
   95MOL0     C12748   6.755   2.139   3.440 -0.2810 -0.1976 -0.0170
   95MOL0     O12749   6.619   2.169   3.431  0.3760  0.8817  0.2769
   95MOL0     C12750   6.564   2.305   3.467 -0.2064  0.6520 -0.1106
   95MOL0     C12751   6.414   2.294   3.497 -0.1383 -0.6062 -0.3261
   95MOL0     C12752   6.328   2.246   3.377  0.0163 -0.6298  0.4593
   95MOL0     C12753   6.182   2.284   3.385  0.2583 -0.6982 -0.2660
   95MOL0     C12754   6.148   2.428   3.392 -0.3498 -0.0847  0.0216
   95MOL0     C12755   6.123   2.549   3.362 -0.0583 -0.0148 -1.0760
   95MOL0     C12756   6.847   2.230   3.498 -0.7647  0.1070 -0.6382
   95MOL0     C12757   6.983   2.194   3.508  0.7722  0.0787 -1.0286
   95MOL0     H12758   7.380   1.841   3.601  0.6659 -0.3793  0.6437
   95MOL0     H12759   7.632   1.829   3.613  0.1381  0.6113 -0.5404
   95MOL0     H12760   7.868   2.227   3.537 -0.2657  2.3752  2.1450
   95MOL0     H12761   7.866   2.182   3.710 -1.5612  1.6714 -1.1808
   95MOL0     H12762   8.057   2.042   3.685  2.4995 -1.2827 -2.7891
   95MOL0     H12763   8.063   2.070   3.520  0.6577  0.5278 -1.0290
   95MOL0     H12764   8.133   2.310   3.565 -0.5294  1.4103  2.1670
   95MOL0     H12765   8.108   2.280   3.740 -1.2729 -0.2479 -0.4934
   95MOL0     H12766   8.273   2.081   3.706  3.0938  0.6799  0.2126
   95MOL0     H12767   8.286   2.133   3.540 -0.8197  1.0229 -0.7063
   95MOL0     H12768   8.386   2.365   3.628 -1.7041  1.7105  2.3818
   95MOL0     H12769   8.385   2.300   3.790  1.2624  1.3931 -0.2547
   95MOL0     H12770   8.543   2.131   3.724 -4.7158 -0.8547 -0.3638
   95MOL0     H12771   8.539   2.189   3.561 -1.3383 -0.8124  0.8184
   95MOL0     H12772   8.731   2.287   3.664 -0.3854 -0.5813 -1.8165
   95MOL0     H12773   8.628   2.412   3.611  1.6145  2.2573  1.8771
   95MOL0     H12774   8.582   2.307   3.884  2.9415 -0.8712  1.1081
   95MOL0     H12775   8.540   2.464   3.814 -0.9120 -0.9091 -3.6293
   95MOL0     H12776   8.765   2.631   3.817  2.8838  1.1033 -1.2415
   95MOL0     H12777   9.023   2.670   3.790 -1.8864  2.5987  1.7320
   95MOL0     H12778   9.059   2.702   3.965  3.7520  0.2173  0.8039
   95MOL0     H12779   9.177   2.469   3.808 -0.5795  0.9966 -2.2538
   95MOL0     H12780   9.238   2.555   3.959 -0.1852  2.1850  0.4333
   95MOL0     H12781   9.313   2.751   3.825  1.2752  1.2122 -1.3992
   95MOL0     H12782   9.232   2.691   3.686 -0.2264  0.2242  0.4499
   95MOL0     H12783   9.480   2.669   3.696 -0.3445  0.4103 -0.5113
   95MOL0     H12784   9.373   2.515   3.660 -1.8781  0.5275 -0.5819
   95MOL0     H12785   9.551   2.303   3.959 -2.3603 -4.3092 -2.7812
   95MOL0     H12786   9.818   2.149   4.022  0.7295 -1.1852 -0.2569
   95MOL0     H12787   9.653   2.113   4.024  3.0956 -4.1094  2.6023
   95MOL0     H12788   9.755   2.024   3.915 -1.1246 -0.2047 -1.0162
   95MOL0     H12789  10.172   2.026   3.725  0.9900  1.5172  1.0353
   95MOL0     H12790  10.398   1.975   3.646 -0.4273 -1.4697 -0.4939
   95MOL0     H12791  10.565   2.274   3.374 -0.6037 -1.9045  0.1707
   95MOL0     H12792  10.704   2.177   3.416  1.0149 -0.7600 -2.0904
   95MOL0     H12793  10.632   2.018   3.248  0.7505  0.1210  1.5685
   95MOL0     H12794  10.497   2.111   3.200 -1.2732 -2.3467  3.5968
   95MOL0     H12795  10.695   2.116   3.045  0.3081  1.2964 -1.3030
   95MOL0     H12796  10.803   2.175   3.176  0.5273 -1.7587 -0.7736
   95MOL0     H12797  10.593   2.369   3.137 -2.8297  1.0582 -2.1241
   95MOL0     H12798  10.763   2.352   3.056 -0.0576  0.5839  1.4750
   95MOL0     H12799  10.506   2.238   2.952  1.0545 -1.3343  4.0720
   95MOL0     H12800  10.673   2.250   2.879  0.6868  0.0959  0.4343
   95MOL0     H12801  10.475   2.466   2.918 -1.3945 -0.5016 -0.8804
   95MOL0     H12802  10.651   2.507   2.888  3.1420 -2.1192 -5.7372
   95MOL0     H12803  10.502   2.341   2.676  0.3401 -0.9184 -0.4927
   95MOL0     H12804  10.664   2.398   2.682  0.2929  1.3950  0.3381
   95MOL0     H12805  10.425   2.577   2.712 -0.0142 -1.6964  1.4668
   95MOL0     H12806  10.505   2.527   2.555 -0.9916  1.9087  0.4186
   95MOL0     H12807  10.357   2.283   3.343 -0.2954  1.4193  1.3482
   95MOL0     H12808  10.124   2.313   3.406 -0.5042 -0.8591 -1.0397
   95MOL0     H12809   9.854   2.404   3.589  1.6133  3.0582  1.7785
   95MOL0     H12810   9.636   2.510   3.593 -1.8826 -1.5542 -1.1648
   95MOL0     H12811   7.651   2.247   3.598 -2.2854  0.8898 -2.2937
   95MOL0     H12812   7.415   2.268   3.591  1.3701  1.5970  0.3992
   95MOL0     H12813   6.960   1.894   3.349 -0.2891 -0.0014  0.8558
   95MOL0     H12814   6.727   1.949   3.346  1.6069 -2.4345  1.7972
   95MOL0     H12815   6.614   2.344   3.556  1.9966  0.1627 -1.0940
   95MOL0     H12816   6.573   2.378   3.387 -1.2312 -1.3169 -2.1577
   95MOL0     H12817   6.396   2.399   3.521 -0.3333 -0.9084  0.9178
   95MOL0     H12818   6.403   2.228   3.584 -0.8301 -0.9678 -0.6801
   95MOL0     H12819   6.335   2.138   3.360  2.2969 -0.2265 -1.6960
   95MOL0     H12820   6.368   2.291   3.286 -0.4161  0.0288  0.5859
   95MOL0     H12821   6.152   2.232   3.477 -3.1799 -3.3592 -2.6103
   95MOL0     H12822   6.125   2.228   3.310  0.3466 -2.8112  1.1387
   95MOL0     H12823   6.112   2.651   3.333 -2.8461  0.0956  0.0409
   95MOL0     H12824   6.826   2.332   3.529  1.1001  0.9729 -1.9813
   95MOL0     H12825   7.056   2.264   3.547  0.4911  0.0934 -0.5209
   96MOL0     O12826   4.366  10.283  10.345  0.2404 -0.3664  1.1064
   96MOL0     C12827   4.336  10.181  10.402 -0.5839  0.3413 -0.0749
   96MOL0     O12828   4.404  10.130  10.515  0.0706 -0.1595 -0.3385
   96MOL0     C12829   4.509  10.207  10.546 -0.5201  0.1648 -0.5174
   96MOL0     C12830   4.643  10.171  10.521 -0.4061 -0.2928 -0.1407
   96MOL0     C12831   4.751  10.261  10.549  0.1089  0.1684 -0.2703
   96MOL0     C12832   4.720  10.383  10.625  0.2750 -0.0026  0.3776
   96MOL0     O12833   4.808  10.479  10.672 -0.6847  0.7323 -0.0703
   96MOL0     C12834   4.947  10.443  10.689  0.7776  0.3588  0.2338
   96MOL0     C12835   4.967  10.378  10.822 -0.9915 -0.0595 -1.5036
   96MOL0     C12836   5.110  10.313  10.838 -0.3116 -0.1834 -0.2134
   96MOL0     C12837   5.122  10.171  10.779 -0.4829  0.0283 -0.0148
   96MOL0     C12838   5.268  10.118  10.746  0.4377 -0.2093 -0.5792
   96MOL0     C12839   5.364  10.142  10.859 -0.2255 -0.2357  0.1014
   96MOL0     C12840   5.506  10.090  10.818 -0.4362 -0.4567 -0.6245
   96MOL0     C12841   5.606  10.118  10.932  0.4134  0.3891 -0.1965
   96MOL0     N12842   5.677  10.249  10.931  0.0999 -0.0977  0.2150
   96MOL0     C12843   5.793  10.265  10.857  0.3321 -0.2348  0.0747
   96MOL0     C12844   5.836  10.389  10.873  0.3878 -0.2022  0.8938
   96MOL0     C12845   5.946  10.466  10.807 -1.0254 -0.0042  1.0872
   96MOL0     C12846   6.089  10.392  10.821  0.3407  0.6429 -0.6497
   96MOL0     C12847   6.133  10.424  10.965 -0.1143  0.6187 -1.1003
   96MOL0     C12848   6.268  10.355  10.994 -0.3409 -0.7598 -0.1686
   96MOL0     O12849   6.264  10.213  10.994 -0.0805 -0.3754  0.0029
   96MOL0     C12850   6.377  10.145  11.028 -1.1431  0.2713 -0.1803
   96MOL0     C12851   6.360  10.020  11.082 -0.1317 -0.5444  0.6120
   96MOL0     C12852   6.466   9.947  11.126  0.0744  0.6290  0.5261
   96MOL0     C12853   6.416   9.820  11.194  0.3225  0.0189 -0.1134
   96MOL0     C12854   6.597  10.000  11.122 -0.2736  0.3374 -1.1779
   96MOL0     C12855   6.708   9.927  11.184  0.3644 -0.6443 -0.8900
   96MOL0     O12856   6.818  10.004  11.214  0.2098  0.3459  0.5423
   96MOL0     C12857   6.938   9.953  11.248 -0.0204  0.6166  0.4933
   96MOL0     C12858   7.047   9.952  11.155  0.4869  0.2962  0.6123
   96MOL0     C12859   7.172   9.897  11.188 -0.7469  0.3412  0.2476
   96MOL0     C12860   7.195   9.852  11.320  1.0090 -0.2166  0.9174
   96MOL0     O12861   7.322   9.820  11.345  0.0721 -0.6461 -0.1817
   96MOL0     C12862   7.410   9.910  11.421 -0.4187  0.6804 -0.2261
   96MOL0     C12863   7.550   9.863  11.399 -0.7890 -0.6616  0.1612
   96MOL0     C12864   7.641   9.944  11.485 -0.7026 -0.1323  0.3506
   96MOL0     C12865   7.775   9.864  11.523  0.3472  0.2739  0.2643
   96MOL0     C12866   7.837   9.915  11.654 -0.2702  0.7344  0.3080
   96MOL0     C12867   7.963   9.844  11.691  0.3063  0.7792  0.0218
   96MOL0     C12868   8.001   9.865  11.838 -0.0456  0.4055  0.8853
   96MOL0     C12869   8.149   9.851  11.864 -0.3918 -0.4817 -0.0916
   96MOL0    Cl12870   8.183   9.688  11.886 -0.1636  0.4802 -0.3922
   96MOL0     C12871   7.091   9.867  11.416 -0.6627  0.6226  0.2357
   96MOL0     C12872   6.964   9.916  11.378  0.1459  0.1336 -0.6587
   96MOL0     O12873   6.693   9.813  11.201 -0.6364  0.5809 -0.7843
   96MOL0     C12874   6.622  10.126  11.068  0.0864 -0.1079 -0.4893
   96MOL0     C12875   6.510  10.199  11.017  0.3081  0.1877 -0.0509
   96MOL0     N12876   5.738  10.447  10.958  0.0278 -0.3056 -0.5009
   96MOL0     N12877   5.651  10.360  10.993 -0.3105 -0.4212 -0.0693
   96MOL0     C12878   4.585  10.408  10.665 -0.6133  0.2575 -0.6547
   96MOL0     C12879   4.487  10.325  10.621 -0.1418  0.1943 -0.0598
   96MOL0     C12880   4.222  10.113  10.348 -0.2857 -0.5052 -0.0146
   96MOL0     C12881   4.140  10.045  10.443 -0.8698 -0.0567 -0.2227
   96MOL0     C12882   4.009   9.994  10.408 -0.2356  0.6327  0.7558
   96MOL0     C12883   3.957  10.017  10.276 -0.6277  0.2005  0.2583
   96MOL0     O12884   3.831   9.972  10.257 -1.0917  0.6812 -0.3347
   96MOL0     C12885   3.781  10.002  10.127  0.2350  0.3495 -0.0739
   96MOL0     C12886   3.641   9.938  10.130  0.4433  0.1415 -0.3013
   96MOL0     C12887   3.578   9.933   9.994  0.0748  0.3617  0.5698
   96MOL0     C12888   3.432   9.881   9.998  0.6320  0.4584 -0.0853
   96MOL0     C12889   3.386   9.893   9.858 -0.5731 -0.0860  0.0883
   96MOL0     C12890   3.357   9.900   9.739  0.3191 -0.3775  0.4472
   96MOL0     C12891   4.046  10.086  10.189  0.0687 -0.0420 -0.6007
   96MOL0     C12892   4.171  10.132  10.222 -0.7305  0.2873 -0.1676
   96MOL0     H12893   4.669  10.080  10.468 -0.7286  0.5160 -1.7589
   96MOL0     H12894   4.850  10.226  10.521 -0.2843 -0.7842 -0.5047
   96MOL0     H12895   4.981  10.372  10.612  0.3516 -3.2674  3.1352
   96MOL0     H12896   5.009  10.533  10.697 -0.2166  1.0434  0.3583
   96MOL0     H12897   4.964  10.449  10.905 -1.4849 -0.5313 -1.1108
   96MOL0     H12898   4.888  10.304  10.841  1.6438 -2.2044  2.3049
   96MOL0     H12899   5.186  10.378  10.796  1.8695 -1.8108  1.0015
   96MOL0     H12900   5.125  10.310  10.946 -3.0360  0.0279  0.2316
   96MOL0     H12901   5.075  10.110  10.857 -2.5251  3.4241  1.6219
   96MOL0     H12902   5.054  10.154  10.695 -1.2081 -3.2250  1.0575
   96MOL0     H12903   5.272  10.017  10.706  1.8409  0.0547 -1.1589
   96MOL0     H12904   5.297  10.189  10.667  2.0459  0.9269  0.9530
   96MOL0     H12905   5.379  10.250  10.866 -0.5302 -0.0940 -1.2044
   96MOL0     H12906   5.329  10.087  10.947  1.1444  1.2263  1.6181
   96MOL0     H12907   5.494   9.982  10.814  2.1764 -1.0399  2.9846
   96MOL0     H12908   5.533  10.139  10.724 -0.2966  3.0453  1.0584
   96MOL0     H12909   5.680  10.038  10.933 -0.4642 -0.4283  0.8783
   96MOL0     H12910   5.555  10.110  11.028  0.8882 -1.0886 -0.0369
   96MOL0     H12911   5.841  10.192  10.793 -0.4350  0.9635 -1.9610
   96MOL0     H12912   5.917  10.476  10.702 -1.2958 -1.6794  0.9692
   96MOL0     H12913   5.957  10.567  10.846  0.3756  0.3041 -0.0229
   96MOL0     H12914   6.161  10.424  10.745  0.2185  1.9445 -0.2480
   96MOL0     H12915   6.078  10.284  10.812 -0.5091  0.6071  0.5157
   96MOL0     H12916   6.067  10.389  11.044  1.0268 -1.5324 -1.0023
   96MOL0     H12917   6.146  10.530  10.985 -1.2944  0.2317  2.2796
   96MOL0     H12918   6.293  10.399  11.091 -2.3266  1.0655 -0.4328
   96MOL0     H12919   6.345  10.390  10.924 -1.1306  0.8266 -0.2642
   96MOL0     H12920   6.258   9.986  11.098  0.0916 -1.2803  0.4897
   96MOL0     H12921   6.416   9.831  11.303  1.3656  1.1077 -0.1987
   96MOL0     H12922   6.321   9.794  11.147  1.3336 -0.0017 -2.2167
   96MOL0     H12923   6.478   9.732  11.178  1.0133 -0.2056  2.9872
   96MOL0     H12924   7.026  10.005  11.062 -1.3473 -0.1729  0.7297
   96MOL0     H12925   7.253   9.896  11.116 -0.3495 -0.3548  0.6971
   96MOL0     H12926   7.391  10.015  11.399 -1.5618  0.8299  1.2958
   96MOL0     H12927   7.397   9.897  11.529  1.9885 -0.4247 -0.0107
   96MOL0     H12928   7.552   9.758  11.428 -0.0222 -1.0011 -1.0557
   96MOL0     H12929   7.568   9.874  11.291  3.6863  0.1899  0.7910
   96MOL0     H12930   7.596   9.968  11.581  0.4081  1.2694  0.5510
   96MOL0     H12931   7.658  10.044  11.444  1.6540  0.0772  1.6977
   96MOL0     H12932   7.754   9.757  11.534  1.5246  0.0030  0.0385
   96MOL0     H12933   7.847   9.874  11.441 -0.0716 -1.3108 -0.3278
   96MOL0     H12934   7.760   9.902  11.731 -1.9546  1.1948 -1.2579
   96MOL0     H12935   7.875  10.015  11.633 -0.4841  0.4628 -1.5468
   96MOL0     H12936   7.958   9.735  11.676  4.2621  0.3252  0.9342
   96MOL0     H12937   8.042   9.877  11.624 -0.5282 -1.5303 -2.2691
   96MOL0     H12938   7.944   9.802  11.908  1.1480  1.3511  2.8028
   96MOL0     H12939   7.974   9.970  11.857  1.4173  1.3038 -1.5529
   96MOL0     H12940   8.184   9.914  11.946  2.2117 -1.7504 -0.1482
   96MOL0     H12941   8.210   9.888  11.780 -0.4434  3.0784  1.2397
   96MOL0     H12942   7.113   9.841  11.519  0.3110 -1.3692 -0.4082
   96MOL0     H12943   6.884   9.923  11.451  0.7108  0.5434 -0.0628
   96MOL0     H12944   6.722  10.169  11.073  0.3255 -0.7863  0.8876
   96MOL0     H12945   6.518  10.289  10.957 -0.1209  1.0171  1.0989
   96MOL0     H12946   4.559  10.483  10.739  0.7408 -1.1699  1.3869
   96MOL0     H12947   4.385  10.358  10.641 -0.3760  1.4325 -2.9102
   96MOL0     H12948   4.180  10.029  10.542  0.0478  0.1188 -0.5516
   96MOL0     H12949   3.938   9.947  10.475 -1.1526 -2.1883 -1.9489
   96MOL0     H12950   3.776  10.111  10.114 -0.4823  0.1762 -1.4086
   96MOL0     H12951   3.843   9.967  10.044  0.9921  1.1886  0.1231
   96MOL0     H12952   3.575   9.986  10.203 -1.1629 -1.0242 -0.9151
   96MOL0     H12953   3.659   9.834  10.157  2.8384 -0.0965 -2.4524
   96MOL0     H12954   3.636   9.870   9.926 -1.1284  1.4030 -1.5438
   96MOL0     H12955   3.582  10.037   9.959  3.3127  0.6937  1.6262
   96MOL0     H12956   3.368   9.942  10.062  1.7335 -0.9234  2.4460
   96MOL0     H12957   3.433   9.776  10.028  1.2739  0.2795 -0.7049
   96MOL0     H12958   3.335   9.900   9.634  0.5463 -1.9116  0.3874
   96MOL0     H12959   4.016  10.105  10.087  1.1844  1.7724 -0.6384
   96MOL0     H12960   4.234  10.182  10.149 -2.2708  0.4540 -1.4452
   97MOL0     O12961   3.466   5.188   5.558  0.4584  0.4780  0.2763
   97MOL0     C12962   3.549   5.148   5.470  0.5087  1.0975 -0.1657
   97MOL0     O12963   3.679   5.192   5.451 -0.0395  0.5169 -0.1285
   97MOL0     C12964   3.734   5.281   5.543 -0.6180 -0.7247 -1.2457
   97MOL0     C12965   3.814   5.384   5.503 -0.5320  0.2597 -0.1804
   97MOL0     C12966   3.875   5.474   5.590 -0.1779  0.8632 -0.4481
   97MOL0     C12967   3.849   5.455   5.735 -0.8762  0.5069 -0.3018
   97MOL0     O12968   3.921   5.533   5.824 -0.2748  0.1793 -0.0100
   97MOL0     C12969   3.843   5.606   5.910  0.2155 -0.8180 -0.2500
   97MOL0     C12970   3.891   5.757   5.906  0.2060  0.1542 -0.2772
   97MOL0     C12971   3.845   5.827   5.778  0.5951  0.0888  1.2836
   97MOL0     C12972   3.951   5.920   5.722 -0.4403  0.4874  0.1568
   97MOL0     C12973   3.892   6.036   5.637  0.0914 -0.4571  0.5834
   97MOL0     C12974   3.784   6.132   5.687  1.2562 -0.5199 -0.4937
   97MOL0     C12975   3.835   6.193   5.823  0.3680 -0.3670  0.7314
   97MOL0     C12976   3.739   6.288   5.881 -0.2541 -0.4299  0.2357
   97MOL0     N12977   3.618   6.229   5.920  0.4651  0.1956 -0.4972
   97MOL0     C12978   3.511   6.178   5.852 -0.5203  0.4770  0.1264
   97MOL0     C12979   3.420   6.149   5.952  0.2959  0.1359  0.2710
   97MOL0     C12980   3.287   6.075   5.940 -0.0128  0.9130  0.1767
   97MOL0     C12981   3.324   5.931   5.906 -0.0933 -0.8424 -0.2804
   97MOL0     C12982   3.385   5.860   6.021  0.6842  0.1002 -0.1073
   97MOL0     C12983   3.300   5.866   6.147 -0.8464  0.0470  0.0029
   97MOL0     O12984   3.313   5.738   6.206 -0.0349 -0.1559  0.0317
   97MOL0     C12985   3.218   5.644   6.199 -0.5796 -0.0519  0.0746
   97MOL0     C12986   3.123   5.635   6.094  0.9436  0.4147 -0.1344
   97MOL0     C12987   3.022   5.525   6.089 -0.5434 -0.7559 -1.0117
   97MOL0     C12988   2.923   5.524   5.974 -0.0970 -0.1308 -1.1748
   97MOL0     C12989   3.018   5.432   6.192 -0.3861 -0.2217 -0.2235
   97MOL0     C12990   2.918   5.320   6.188  0.5614 -0.3781 -0.9421
   97MOL0     O12991   2.848   5.297   6.300 -0.3448 -0.1160 -0.4834
   97MOL0     C12992   2.756   5.194   6.312 -0.0465 -0.9583 -0.9364
   97MOL0     C12993   2.660   5.152   6.209 -0.6771  0.6289 -0.7580
   97MOL0     C12994   2.567   5.047   6.238 -0.7447  1.0263  0.6821
   97MOL0     C12995   2.566   4.984   6.361  0.3310 -0.9459  0.0789
   97MOL0     O12996   2.491   4.868   6.398 -0.4013  0.0195  0.1079
   97MOL0     C12997   2.437   4.793   6.295 -0.3921 -0.5382 -0.7678
   97MOL0     C12998   2.378   4.659   6.348 -1.1112 -0.3723  0.1512
   97MOL0     C12999   2.280   4.675   6.466 -0.7475 -0.5974  0.1444
   97MOL0     C13000   2.146   4.742   6.405 -0.1038  0.0899  0.0944
   97MOL0     C13001   2.044   4.760   6.522  0.0878  0.6835  0.1609
   97MOL0     C13002   2.001   4.628   6.570  0.4857  0.2266  0.0454
   97MOL0     C13003   1.862   4.652   6.632 -0.1260 -0.3322 -0.4743
   97MOL0     C13004   1.775   4.537   6.613  0.4286  0.2504  0.0884
   97MOL0    Cl13005   1.678   4.495   6.756  0.1422  0.3108  0.2306
   97MOL0     C13006   2.668   5.017   6.452  0.4618 -0.0756  0.2665
   97MOL0     C13007   2.755   5.125   6.434 -0.3888 -0.2599  0.1282
   97MOL0     O13008   2.912   5.255   6.084 -0.1612  0.1393  0.0556
   97MOL0     C13009   3.112   5.441   6.295 -0.0582 -0.1906 -0.4684
   97MOL0     C13010   3.212   5.547   6.298 -0.0652 -0.5179 -0.5512
   97MOL0     N13011   3.474   6.181   6.076  0.6016  0.3274  1.1234
   97MOL0     N13012   3.590   6.218   6.053 -0.5145 -0.0149 -0.1439
   97MOL0     C13013   3.779   5.343   5.778  0.7704  1.0834 -0.0455
   97MOL0     C13014   3.724   5.254   5.684 -0.6133  0.5526  0.3083
   97MOL0     C13015   3.525   5.019   5.405  0.4149 -1.5363  0.6284
   97MOL0     C13016   3.397   4.975   5.396 -0.3242  0.2972 -0.0619
   97MOL0     C13017   3.367   4.852   5.340  0.8264  0.2024 -0.6406
   97MOL0     C13018   3.471   4.781   5.269 -0.3432 -0.1643  0.3188
   97MOL0     O13019   3.465   4.665   5.200  1.0384 -0.5831 -0.5867
   97MOL0     C13020   3.350   4.580   5.216  0.1273 -0.5505 -0.5092
   97MOL0     C13021   3.359   4.446   5.143  0.0141  0.2891  0.1670
   97MOL0     C13022   3.502   4.380   5.119  0.1726 -0.2492  0.9226
   97MOL0     C13023   3.498   4.240   5.059  0.4833  0.4698  0.8525
   97MOL0     C13024   3.632   4.194   5.012 -0.2659 -0.0381 -0.6981
   97MOL0     C13025   3.741   4.173   4.959 -0.1488  0.7091 -0.8183
   97MOL0     C13026   3.600   4.836   5.263  0.6285  0.5540  0.2551
   97MOL0     C13027   3.619   4.950   5.326 -0.4956 -0.3674 -0.7669
   97MOL0     H13028   3.823   5.401   5.396 -1.9796 -0.9742 -0.5394
   97MOL0     H13029   3.924   5.564   5.554  0.4540  0.1021 -1.5175
   97MOL0     H13030   3.736   5.597   5.887  0.6755 -1.8671 -2.1935
   97MOL0     H13031   3.872   5.569   6.008  1.5094  1.9637  0.5110
   97MOL0     H13032   3.857   5.808   5.996  0.0396  0.0100 -0.2584
   97MOL0     H13033   4.000   5.757   5.909  0.1863  1.2415  2.1576
   97MOL0     H13034   3.815   5.756   5.700 -4.2406  2.0225  1.0058
   97MOL0     H13035   3.748   5.873   5.800 -1.3552 -3.3394  0.6350
   97MOL0     H13036   4.005   5.966   5.805  0.4627  1.5522 -0.9766
   97MOL0     H13037   4.020   5.855   5.667 -1.6051 -2.8650  2.3640
   97MOL0     H13038   3.975   6.101   5.609  0.8164 -0.6099  2.2819
   97MOL0     H13039   3.843   5.998   5.546  0.3955  0.4789  0.0085
   97MOL0     H13040   3.773   6.206   5.607  2.3982  2.5441  1.9700
   97MOL0     H13041   3.697   6.070   5.710  1.9496 -1.1251  0.5978
   97MOL0     H13042   3.856   6.111   5.893  3.3845 -0.9395 -0.7163
   97MOL0     H13043   3.931   6.244   5.813  0.5586 -0.5165  1.6858
   97MOL0     H13044   3.722   6.370   5.810  0.9689 -0.8998 -0.6401
   97MOL0     H13045   3.788   6.327   5.971 -2.8582  2.4394  0.6088
   97MOL0     H13046   3.506   6.158   5.745 -1.0927 -0.3102  0.2827
   97MOL0     H13047   3.237   6.081   6.037 -2.1171 -1.3621 -0.6573
   97MOL0     H13048   3.229   6.122   5.861  1.5066  0.1996 -1.4357
   97MOL0     H13049   3.391   5.919   5.820  0.3498 -0.6838  0.0464
   97MOL0     H13050   3.231   5.883   5.873 -1.0883  1.4875 -1.0377
   97MOL0     H13051   3.486   5.902   6.028  1.3567 -1.3321 -0.6428
   97MOL0     H13052   3.401   5.757   5.986 -2.0207  0.8524 -4.1296
   97MOL0     H13053   3.192   5.875   6.132 -1.1502 -0.3244  1.8144
   97MOL0     H13054   3.335   5.948   6.211  1.3676 -1.8602  1.4249
   97MOL0     H13055   3.125   5.707   6.013  0.0259 -2.1151 -2.5737
   97MOL0     H13056   2.946   5.438   5.911 -1.5338 -1.5785  0.1901
   97MOL0     H13057   2.820   5.519   6.013  1.2480  0.4271  2.9188
   97MOL0     H13058   2.933   5.612   5.910  0.2719  0.9469  0.3061
   97MOL0     H13059   2.676   5.184   6.107  1.5818  1.0304 -0.3318
   97MOL0     H13060   2.494   5.030   6.160 -0.8811  0.5579  0.9118
   97MOL0     H13061   2.360   4.847   6.240 -1.3115 -1.5685 -0.5261
   97MOL0     H13062   2.520   4.774   6.226  0.5787 -2.0407  0.7095
   97MOL0     H13063   2.333   4.613   6.260 -3.2618  0.9798  0.4615
   97MOL0     H13064   2.464   4.606   6.389 -0.3571  0.3641 -0.4497
   97MOL0     H13065   2.316   4.746   6.540  0.1268  1.4469 -2.0895
   97MOL0     H13066   2.258   4.581   6.516  0.9231 -0.9575  0.2557
   97MOL0     H13067   2.167   4.844   6.370  0.2949  0.4647  1.3644
   97MOL0     H13068   2.103   4.687   6.321  2.5574  0.5227 -1.7135
   97MOL0     H13069   1.959   4.823   6.491  0.6211  3.2355  3.3105
   97MOL0     H13070   2.094   4.822   6.597  0.8611 -0.2745  0.4467
   97MOL0     H13071   1.984   4.560   6.486 -1.7881  1.3174 -0.4715
   97MOL0     H13072   2.077   4.579   6.631 -0.6137 -2.7824 -0.7990
   97MOL0     H13073   1.802   4.738   6.598  2.0720  0.9873 -1.2104
   97MOL0     H13074   1.878   4.665   6.739 -1.9777  0.4153 -0.2337
   97MOL0     H13075   1.829   4.445   6.586 -1.9151 -0.8902 -1.0992
   97MOL0     H13076   1.704   4.551   6.531  2.8622 -1.5180 -2.4839
   97MOL0     H13077   2.675   4.966   6.548  2.9725  0.4892  0.4720
   97MOL0     H13078   2.809   5.163   6.519  1.6865  0.3286 -1.3742
   97MOL0     H13079   3.104   5.374   6.380 -1.2519  1.5095  0.8441
   97MOL0     H13080   3.286   5.544   6.378  0.7107  1.9185 -1.1099
   97MOL0     H13081   3.770   5.316   5.883 -0.8589  0.7489 -0.2332
   97MOL0     H13082   3.662   5.176   5.727 -2.4003  2.5679  1.5882
   97MOL0     H13083   3.316   5.042   5.424  0.1667  1.9542 -2.2940
   97MOL0     H13084   3.266   4.813   5.334  1.3106 -1.8145  2.2683
   97MOL0     H13085   3.330   4.572   5.323  1.8796  0.5860 -0.0508
   97MOL0     H13086   3.261   4.631   5.179 -0.5834 -1.5046 -0.1516
   97MOL0     H13087   3.340   4.464   5.037  3.6746  0.1012 -0.6669
   97MOL0     H13088   3.280   4.377   5.172 -0.7244 -0.4504 -3.1632
   97MOL0     H13089   3.552   4.368   5.215 -1.4219 -2.1075  1.5746
   97MOL0     H13090   3.555   4.447   5.050  0.1963 -0.8537  0.3517
   97MOL0     H13091   3.421   4.236   4.982  1.1355  3.3390 -0.0602
   97MOL0     H13092   3.473   4.165   5.135  1.5467  1.9063  2.7072
   97MOL0     H13093   3.833   4.156   4.907 -0.2647  1.9459 -1.4507
   97MOL0     H13094   3.678   4.776   5.218  1.2716  1.3825  0.2308
   97MOL0     H13095   3.717   4.995   5.334 -1.1698  0.8603  1.4763
   98MOL0     O13096   3.742   3.182   4.181  0.3304 -0.2373 -0.0932
   98MOL0     C13097   3.645   3.105   4.175 -0.7954 -0.1792  0.3788
   98MOL0     O13098   3.646   2.984   4.242 -0.4330  0.2561  0.9048
   98MOL0     C13099   3.764   2.947   4.316  0.2804  0.2025  0.2165
   98MOL0     C13100   3.888   2.937   4.249  0.1749 -0.0552 -0.4009
   98MOL0     C13101   4.004   2.909   4.322  0.1849 -0.2870 -0.0097
   98MOL0     C13102   3.995   2.901   4.469  0.2534  0.1250  0.3958
   98MOL0     O13103   4.094   2.866   4.555  0.7160  0.2956 -0.8303
   98MOL0     C13104   4.232   2.846   4.510  0.7552 -0.3896  0.7854
   98MOL0     C13105   4.318   2.790   4.623  0.9343 -0.3920 -0.0423
   98MOL0     C13106   4.460   2.773   4.584  0.4468 -1.1546  0.0067
   98MOL0     C13107   4.527   2.908   4.543  0.9215 -0.2141 -0.1630
   98MOL0     C13108   4.669   2.890   4.521 -0.7029 -0.9017  0.0955
   98MOL0     C13109   4.692   2.839   4.369  0.8033  0.9782  0.4091
   98MOL0     C13110   4.839   2.840   4.333 -0.9085  0.1724 -0.7276
   98MOL0     C13111   4.867   2.800   4.182 -0.0269 -0.0484 -0.5016
   98MOL0     N13112   5.005   2.763   4.172 -0.2404  0.5212  0.1181
   98MOL0     C13113   5.106   2.858   4.173  0.3189  0.4142  0.7143
   98MOL0     C13114   5.218   2.794   4.126  0.2890 -0.3854 -0.5579
   98MOL0     C13115   5.352   2.854   4.106  0.0652 -0.2615 -0.7136
   98MOL0     C13116   5.388   2.892   3.957  0.4754  0.1599  0.1156
   98MOL0     C13117   5.519   2.969   3.933  0.3406  0.0569  0.3549
   98MOL0     C13118   5.641   2.884   3.974 -0.9404  0.2664  0.5373
   98MOL0     O13119   5.683   2.914   4.100 -0.4620 -0.0542 -0.1391
   98MOL0     C13120   5.807   2.868   4.143  0.7489 -0.5443 -0.0382
   98MOL0     C13121   5.832   2.870   4.280 -0.1582  0.4044 -0.2030
   98MOL0     C13122   5.942   2.812   4.338 -0.0153  0.0491 -0.4476
   98MOL0     C13123   5.965   2.801   4.482  0.2444  0.1847  0.1196
   98MOL0     C13124   6.037   2.761   4.247 -0.6239 -0.5500  0.5853
   98MOL0     C13125   6.155   2.680   4.284 -0.9816  0.5104 -0.4817
   98MOL0     O13126   6.274   2.724   4.245 -0.2092 -0.9740 -0.1602
   98MOL0     C13127   6.397   2.660   4.275  0.0264  0.5786 -0.3584
   98MOL0     C13128   6.434   2.573   4.380  0.3809  0.7158  0.4272
   98MOL0     C13129   6.553   2.515   4.394 -1.1743 -0.0498  1.0036
   98MOL0     C13130   6.645   2.527   4.287 -0.4022 -1.1903  0.4221
   98MOL0     O13131   6.760   2.449   4.290  0.2978 -0.2247  1.1768
   98MOL0     C13132   6.873   2.490   4.218  0.2673  0.2148  1.1486
   98MOL0     C13133   6.983   2.414   4.275 -0.0671  0.0926  0.7017
   98MOL0     C13134   6.945   2.261   4.273 -1.0920 -0.5068  1.0946
   98MOL0     C13135   7.062   2.172   4.325  0.3635 -0.1343 -0.7310
   98MOL0     C13136   7.010   2.038   4.366  0.6111  0.3903 -0.4147
   98MOL0     C13137   7.117   1.931   4.361  0.6907 -0.7410 -0.3607
   98MOL0     C13138   7.078   1.798   4.424  0.3522  0.0835 -0.2424
   98MOL0     C13139   7.108   1.768   4.567 -0.6181 -0.8396 -1.4818
   98MOL0    Cl13140   7.266   1.814   4.640  0.3085 -0.2587  0.0824
   98MOL0     C13141   6.628   2.625   4.185 -0.1169  0.3636 -0.5844
   98MOL0     C13142   6.501   2.687   4.183 -1.2264 -0.7121 -0.7911
   98MOL0     O13143   6.137   2.578   4.353  0.4800  0.2021  0.4085
   98MOL0     C13144   6.021   2.764   4.108 -1.1366 -0.1453 -0.2263
   98MOL0     C13145   5.906   2.817   4.053 -0.5167  0.5614 -0.5483
   98MOL0     N13146   5.177   2.663   4.106 -0.1640  0.3534  0.3129
   98MOL0     N13147   5.055   2.645   4.124  0.0304 -1.2165  0.2739
   98MOL0     C13148   3.873   2.931   4.525  0.5390  0.7142  0.2155
   98MOL0     C13149   3.755   2.942   4.458 -0.0096  0.3213  0.6219
   98MOL0     C13150   3.521   3.163   4.116  0.9794  0.1963 -0.0634
   98MOL0     C13151   3.425   3.072   4.064 -1.1529 -0.8198 -0.7709
   98MOL0     C13152   3.300   3.121   4.020 -0.2304  1.0816 -0.0581
   98MOL0     C13153   3.273   3.252   4.007 -0.2106 -1.2106 -0.4391
   98MOL0     O13154   3.151   3.298   3.966 -0.1254 -0.2428 -0.1769
   98MOL0     C13155   3.041   3.238   4.032  0.6786 -0.8013 -0.1350
   98MOL0     C13156   2.918   3.320   4.036  0.1938 -0.6569  0.2744
   98MOL0     C13157   2.933   3.448   4.111  0.1016 -0.9028  0.9138
   98MOL0     C13158   2.808   3.533   4.110  0.6135 -1.1119  0.4025
   98MOL0     C13159   2.826   3.665   4.173 -0.5288  0.4643 -0.2972
   98MOL0     C13160   2.839   3.777   4.233  0.1364 -0.4757 -0.1040
   98MOL0     C13161   3.368   3.344   4.059  0.7845  0.1697 -1.2812
   98MOL0     C13162   3.494   3.300   4.107 -0.1607  0.2968  0.5687
   98MOL0     H13163   3.886   2.928   4.141 -0.2179 -0.9181 -0.3339
   98MOL0     H13164   4.101   2.900   4.275  0.5162  0.1030  0.5804
   98MOL0     H13165   4.231   2.782   4.422 -0.0220 -2.6834  2.3760
   98MOL0     H13166   4.272   2.944   4.481  0.2775  0.1434  1.8692
   98MOL0     H13167   4.317   2.855   4.711 -0.1617  2.9853 -2.3481
   98MOL0     H13168   4.274   2.698   4.664 -2.3543  0.2824 -1.7260
   98MOL0     H13169   4.506   2.741   4.677  0.8470  1.8372  0.9194
   98MOL0     H13170   4.456   2.699   4.503  3.0708 -2.6965  1.1712
   98MOL0     H13171   4.477   2.939   4.451  0.5431  0.1214  0.1491
   98MOL0     H13172   4.509   2.986   4.618 -1.4140 -1.4372  0.6560
   98MOL0     H13173   4.723   2.983   4.540  1.3557 -1.7198 -1.3571
   98MOL0     H13174   4.712   2.815   4.589 -0.3670 -0.1147  0.7725
   98MOL0     H13175   4.665   2.733   4.364  1.1440  0.9032  0.0904
   98MOL0     H13176   4.624   2.897   4.305  0.8512  2.2568  1.4633
   98MOL0     H13177   4.885   2.937   4.354  1.7748 -1.0537 -0.5084
   98MOL0     H13178   4.893   2.765   4.392 -0.2327  2.6348  2.0223
   98MOL0     H13179   4.843   2.889   4.123 -4.0495  2.4004  4.0658
   98MOL0     H13180   4.800   2.721   4.150 -0.8324 -0.4442  1.9760
   98MOL0     H13181   5.102   2.965   4.195 -0.3907 -0.1583  3.9682
   98MOL0     H13182   5.355   2.948   4.161 -2.5548 -1.0368  0.9511
   98MOL0     H13183   5.433   2.791   4.144  0.7369  0.9819 -0.0004
   98MOL0     H13184   5.308   2.954   3.917 -2.2241 -3.7514 -1.1425
   98MOL0     H13185   5.385   2.797   3.903  0.6442  0.5439 -0.5772
   98MOL0     H13186   5.504   3.057   3.996 -0.4941  0.4696 -0.3855
   98MOL0     H13187   5.534   3.008   3.832 -1.0635  1.4540  0.6428
   98MOL0     H13188   5.718   2.923   3.907  0.7160  1.2160  2.9006
   98MOL0     H13189   5.629   2.778   3.948  0.1242  0.4192 -0.6504
   98MOL0     H13190   5.762   2.910   4.353  0.7183  3.6787 -0.9816
   98MOL0     H13191   6.068   2.799   4.522  0.3139 -1.6988 -0.0764
   98MOL0     H13192   5.922   2.888   4.532  0.7770 -0.7682  2.3811
   98MOL0     H13193   5.923   2.711   4.528 -0.7136  1.4163  1.7577
   98MOL0     H13194   6.364   2.544   4.458 -1.1169  2.0447 -0.3853
   98MOL0     H13195   6.569   2.450   4.480 -1.7870  1.1756  2.0918
   98MOL0     H13196   6.875   2.474   4.110 -0.4930 -0.5876  1.2469
   98MOL0     H13197   6.881   2.599   4.229  1.4092  0.6048 -2.4025
   98MOL0     H13198   7.080   2.421   4.225  0.7006  0.4264  2.1917
   98MOL0     H13199   6.995   2.455   4.375 -1.0176 -2.3715  1.8883
   98MOL0     H13200   6.918   2.237   4.169 -0.3577 -1.0917  1.0328
   98MOL0     H13201   6.864   2.250   4.346 -0.6152 -1.3349  1.5216
   98MOL0     H13202   7.142   2.166   4.250  2.1243 -2.3594  1.1855
   98MOL0     H13203   7.101   2.208   4.421 -2.5513 -2.9477  1.7315
   98MOL0     H13204   6.939   2.010   4.287  2.1790  2.7322 -2.8180
   98MOL0     H13205   6.975   2.056   4.468  2.5034 -0.6717  0.4658
   98MOL0     H13206   7.155   1.928   4.258 -1.7221  3.0055 -1.5798
   98MOL0     H13207   7.196   1.979   4.420  0.3965  0.1284 -0.6584
   98MOL0     H13208   7.130   1.716   4.374 -1.3102 -0.8059 -0.5774
   98MOL0     H13209   6.970   1.783   4.411  0.6483  0.6285 -4.7962
   98MOL0     H13210   7.084   1.667   4.600  1.3165 -0.9102 -0.1379
   98MOL0     H13211   7.045   1.836   4.626 -1.0855 -0.8442 -1.9714
   98MOL0     H13212   6.698   2.651   4.106 -1.4965  4.8402 -0.6054
   98MOL0     H13213   6.470   2.758   4.107 -0.0612  0.4700 -0.2054
   98MOL0     H13214   6.093   2.726   4.036 -1.0240  1.0147 -0.7434
   98MOL0     H13215   5.892   2.821   3.946 -1.2722  4.9982 -0.4997
   98MOL0     H13216   3.874   2.920   4.633 -4.1659 -0.7552  0.3359
   98MOL0     H13217   3.658   2.958   4.503  0.6201 -0.3342  2.2723
   98MOL0     H13218   3.454   2.968   4.065 -0.1360 -0.5425 -0.4065
   98MOL0     H13219   3.225   3.054   3.979 -0.7663  0.3638  2.0133
   98MOL0     H13220   3.012   3.145   3.982  2.1751 -2.0865  1.2851
   98MOL0     H13221   3.067   3.211   4.134 -1.8271  1.6369  1.2660
   98MOL0     H13222   2.830   3.266   4.069 -0.7607 -0.3441 -1.6129
   98MOL0     H13223   2.906   3.348   3.931 -2.4731 -0.5682  0.5330
   98MOL0     H13224   3.016   3.499   4.063 -0.9563  0.2009  0.2171
   98MOL0     H13225   2.963   3.415   4.211 -1.3886 -3.0479  0.7392
   98MOL0     H13226   2.727   3.476   4.155 -1.9337 -0.2889 -2.7988
   98MOL0     H13227   2.776   3.572   4.013 -2.1612  0.9815  1.9883
   98MOL0     H13228   2.863   3.865   4.289  1.9093 -1.4897  0.8177
   98MOL0     H13229   3.353   3.452   4.055  1.3711  0.3287  0.2745
   98MOL0     H13230   3.568   3.374   4.136  0.2685  0.9253 -1.9233
   99MOL0     O13231  10.848   4.960  10.573  0.2886  0.0946 -0.0773
   99MOL0     C13232  10.852   4.894  10.469 -0.3292 -0.7261 -0.1095
   99MOL0     O13233  10.771   4.789  10.437 -0.4787 -0.0754 -0.1212
   99MOL0     C13234  10.669   4.759  10.529  0.3391 -0.5460  0.4399
   99MOL0     C13235  10.673   4.748  10.670 -0.0769 -0.2146  0.2626
   99MOL0     C13236  10.564   4.722  10.748  0.0373  0.2859  0.7270
   99MOL0     C13237  10.432   4.725  10.680 -0.0127  0.5576 -0.0345
   99MOL0     O13238  10.323   4.720  10.762 -0.4267  0.5342 -0.9046
   99MOL0     C13239  10.188   4.714  10.708  0.1083 -0.0716 -0.5252
   99MOL0     C13240  10.084   4.726  10.822 -0.6190 -0.6799  0.1131
   99MOL0     C13241   9.945   4.746  10.754 -0.9860  0.1147  0.8237
   99MOL0     C13242   9.837   4.785  10.862  0.3212  0.0030 -0.1603
   99MOL0     C13243   9.700   4.771  10.806  0.5809  0.7883  0.4212
   99MOL0     C13244   9.605   4.787  10.926  0.1049  0.3362 -0.3562
   99MOL0     C13245   9.464   4.746  10.883 -0.5178 -0.6929  0.9169
   99MOL0     C13246   9.362   4.743  11.005  0.6108  1.1945  0.2387
   99MOL0     N13247   9.226   4.734  10.943  0.4332  0.0498 -0.4905
   99MOL0     C13248   9.175   4.645  10.857 -0.8480 -0.7095 -0.9310
   99MOL0     C13249   9.060   4.700  10.815 -0.1167  0.1897  0.3409
   99MOL0     C13250   8.971   4.631  10.717 -0.7447 -0.5242 -0.9899
   99MOL0     C13251   8.835   4.616  10.781  0.0789 -0.4555  0.7604
   99MOL0     C13252   8.740   4.541  10.684 -0.2497 -0.2025  0.0297
   99MOL0     C13253   8.596   4.567  10.729 -0.0519 -0.7671 -0.3352
   99MOL0     O13254   8.510   4.499  10.632  0.0740 -0.2585 -0.8409
   99MOL0     C13255   8.378   4.494  10.656  0.4935 -0.3817 -0.1278
   99MOL0     C13256   8.310   4.389  10.601 -0.0076  0.7268 -0.4349
   99MOL0     C13257   8.172   4.372  10.615  0.1838  0.3965 -0.5142
   99MOL0     C13258   8.121   4.256  10.536  0.2070  0.1593 -0.5507
   99MOL0     C13259   8.088   4.471  10.671 -0.2148 -0.5446 -0.2611
   99MOL0     C13260   7.944   4.471  10.688  0.7712 -0.5514 -0.4125
   99MOL0     O13261   7.882   4.583  10.743 -1.0436 -0.6655 -0.0523
   99MOL0     C13262   7.751   4.594  10.768 -0.0523 -0.1842 -0.4876
   99MOL0     C13263   7.705   4.725  10.800 -0.2348  0.1204 -0.3737
   99MOL0     C13264   7.584   4.736  10.869 -0.4332  0.0565 -0.4515
   99MOL0     C13265   7.495   4.630  10.891 -0.6080  0.6378 -0.5984
   99MOL0     O13266   7.379   4.637  10.970  0.0867 -0.2925 -0.2498
   99MOL0     C13267   7.409   4.648  11.111  0.6407 -0.0932  0.2339
   99MOL0     C13268   7.287   4.613  11.198  0.4089  0.1437 -0.0818
   99MOL0     C13269   7.316   4.600  11.350  0.3650 -0.4530  0.8273
   99MOL0     C13270   7.187   4.591  11.435  0.0699  0.0652 -0.0329
   99MOL0     C13271   7.233   4.524  11.572  0.6362 -0.0553 -0.9984
   99MOL0     C13272   7.111   4.517  11.661 -0.6101 -0.2219  0.9124
   99MOL0     C13273   7.159   4.443  11.790  0.5246 -0.4210  0.1562
   99MOL0     C13274   7.043   4.414  11.887  0.6773 -0.2087 -0.6240
   99MOL0    Cl13275   7.000   4.566  11.983 -0.2991  0.1289 -0.0524
   99MOL0     C13276   7.534   4.504  10.837 -0.7249  0.9129 -0.2370
   99MOL0     C13277   7.662   4.483  10.788  0.5564  0.0843  0.2720
   99MOL0     O13278   7.890   4.381  10.632  0.5739 -0.2512 -0.2318
   99MOL0     C13279   8.164   4.579  10.732  0.6680 -0.2181  0.0678
   99MOL0     C13280   8.302   4.589  10.726 -0.3214  0.0273 -0.3991
   99MOL0     N13281   9.043   4.819  10.881 -0.6112 -0.2719  0.5427
   99MOL0     N13282   9.139   4.834  10.959  0.4159 -0.4046 -0.7292
   99MOL0     C13283  10.424   4.744  10.543 -0.8697  0.0218 -0.0598
   99MOL0     C13284  10.543   4.755  10.460  0.5901 -0.5974  0.3510
   99MOL0     C13285  10.969   4.930  10.387  0.7391 -0.3335 -0.1802
   99MOL0     C13286  11.065   5.033  10.428  0.3576 -0.3231 -0.0255
   99MOL0     C13287  11.164   5.072  10.333  0.7109  0.1168 -0.2289
   99MOL0     C13288  11.181   5.011  10.212 -0.7423  0.5251  0.3083
   99MOL0     O13289  11.274   5.068  10.124 -0.2669  0.3897 -0.0633
   99MOL0     C13290  11.394   5.113  10.179  0.6472  0.4548 -0.2543
   99MOL0     C13291  11.510   5.094  10.083 -0.2985 -0.7029 -0.0424
   99MOL0     C13292  11.642   5.143  10.132 -0.0621  0.7056 -0.0897
   99MOL0     C13293  11.664   5.296  10.123  0.0709 -0.3636 -0.6852
   99MOL0     C13294  11.803   5.336  10.145 -0.2187  0.2343  0.2423
   99MOL0     C13295  11.914   5.354  10.183 -0.0413  0.1947 -1.3291
   99MOL0     C13296  11.084   4.913  10.175 -0.2247  0.4409  0.3706
   99MOL0     C13297  10.981   4.872  10.256 -0.5086  0.4402 -0.0582
   99MOL0     H13298  10.771   4.761  10.715 -0.2701 -0.8716  0.8899
   99MOL0     H13299  10.562   4.712  10.856  1.4618  0.5970  0.8121
   99MOL0     H13300  10.170   4.799  10.642  0.4137 -1.0006 -1.8512
   99MOL0     H13301  10.174   4.623  10.650  5.1056 -2.8866  1.9890
   99MOL0     H13302  10.088   4.637  10.885 -0.9918 -0.4021  0.5393
   99MOL0     H13303  10.115   4.801  10.895  0.0446 -2.5512  1.8529
   99MOL0     H13304   9.957   4.826  10.681  0.5890  1.2626  2.2657
   99MOL0     H13305   9.912   4.654  10.704 -0.8318  0.0581  0.8245
   99MOL0     H13306   9.858   4.721  10.948  0.8950  0.0053 -0.2931
   99MOL0     H13307   9.857   4.887  10.896 -0.3015  1.0207 -2.6157
   99MOL0     H13308   9.684   4.845  10.727  2.5663  3.0294  1.9745
   99MOL0     H13309   9.682   4.671  10.763 -0.7856  1.0982  0.2218
   99MOL0     H13310   9.630   4.722  11.010  0.4644  0.7498 -0.1347
   99MOL0     H13311   9.603   4.889  10.966 -0.3234 -0.0989  0.7573
   99MOL0     H13312   9.431   4.830  10.821  2.6393 -1.1373 -1.6825
   99MOL0     H13313   9.464   4.651  10.827 -0.1739 -2.5128  3.8080
   99MOL0     H13314   9.366   4.832  11.068  3.5821  2.3333 -1.3483
   99MOL0     H13315   9.381   4.656  11.069 -1.2260  0.6072  0.0531
   99MOL0     H13316   9.217   4.548  10.833 -1.0867 -0.7964 -1.0020
   99MOL0     H13317   8.967   4.692  10.627  1.4291 -0.3278 -1.0000
   99MOL0     H13318   9.012   4.531  10.701 -2.8220 -1.2387 -2.2376
   99MOL0     H13319   8.800   4.719  10.793  3.0596  0.8473 -0.6637
   99MOL0     H13320   8.853   4.578  10.881  2.7613  1.7043  1.2362
   99MOL0     H13321   8.759   4.433  10.677  0.0628 -0.1819  0.5171
   99MOL0     H13322   8.749   4.590  10.587 -0.4852 -0.1644  0.0276
   99MOL0     H13323   8.577   4.673  10.712 -0.0309 -0.8843 -1.0956
   99MOL0     H13324   8.571   4.520  10.825  0.4518 -1.9164 -0.7550
   99MOL0     H13325   8.383   4.330  10.545  1.0867  0.3001  1.3509
   99MOL0     H13326   8.057   4.292  10.455  1.4756  0.9115 -1.2423
   99MOL0     H13327   8.201   4.190  10.504  3.7129  2.5429  2.4563
   99MOL0     H13328   8.059   4.194  10.602  0.1949 -0.4626 -1.1392
   99MOL0     H13329   7.773   4.809  10.791 -0.7802  0.5752 -0.3252
   99MOL0     H13330   7.559   4.827  10.923 -0.1241  0.4358 -0.9423
   99MOL0     H13331   7.487   4.575  11.134  0.6494  0.5781  2.5630
   99MOL0     H13332   7.453   4.742  11.144 -1.5989  1.3049 -0.5075
   99MOL0     H13333   7.209   4.690  11.185  1.5510  1.3345 -0.1258
   99MOL0     H13334   7.233   4.532  11.147 -0.2138  0.6837 -0.2966
   99MOL0     H13335   7.375   4.683  11.389 -1.7622  1.1393  0.7774
   99MOL0     H13336   7.373   4.507  11.362  0.8296 -0.4508 -1.0709
   99MOL0     H13337   7.150   4.693  11.449 -0.5890 -0.0644 -0.7495
   99MOL0     H13338   7.105   4.534  11.390 -0.8063  2.9898 -2.4418
   99MOL0     H13339   7.312   4.585  11.617 -0.3970 -0.1592  1.0435
   99MOL0     H13340   7.268   4.424  11.546 -2.8300 -0.7890 -3.5087
   99MOL0     H13341   7.060   4.612  11.678  0.0810  0.8431 -2.1607
   99MOL0     H13342   7.046   4.446  11.609  2.3331 -2.5468  0.1145
   99MOL0     H13343   7.235   4.500  11.844  1.7415 -2.1748  0.3696
   99MOL0     H13344   7.195   4.344  11.763  0.3311 -0.3841 -0.2480
   99MOL0     H13345   7.056   4.342  11.968 -4.8781  0.5259  1.3600
   99MOL0     H13346   6.966   4.366  11.827  1.7926 -1.0511 -1.4248
   99MOL0     H13347   7.470   4.418  10.853  1.9108 -1.6384 -2.2680
   99MOL0     H13348   7.690   4.378  10.778  3.8169  0.5793  2.6513
   99MOL0     H13349   8.118   4.658  10.790  3.0957  3.0874 -2.0618
   99MOL0     H13350   8.352   4.678  10.762 -0.2865 -0.7843  1.6784
   99MOL0     H13351  10.327   4.762  10.498 -1.5515  1.7637  1.9401
   99MOL0     H13352  10.542   4.784  10.356 -1.3642  2.0446  0.9763
   99MOL0     H13353  11.074   5.076  10.527  1.2474 -1.7689  0.5617
   99MOL0     H13354  11.228   5.156  10.357  0.3651  0.0847  0.8685
   99MOL0     H13355  11.382   5.217  10.212  0.6185  0.4786 -0.3421
   99MOL0     H13356  11.412   5.057  10.272 -3.5051  0.6558  0.8526
   99MOL0     H13357  11.480   5.147   9.992 -0.2399 -1.1274 -0.3130
   99MOL0     H13358  11.516   4.987  10.063 -0.1582 -1.1189  2.0106
   99MOL0     H13359  11.720   5.095  10.072 -0.3786  0.5266 -0.3599
   99MOL0     H13360  11.659   5.112  10.236  0.2758  1.1926 -0.0006
   99MOL0     H13361  11.609   5.353  10.199 -1.1879  0.2473 -1.9961
   99MOL0     H13362  11.639   5.337  10.024  2.1660  3.9810  0.3452
   99MOL0     H13363  12.009   5.384  10.223 -0.0545 -1.4410  0.0197
   99MOL0     H13364  11.106   4.869  10.079 -2.1804 -2.8323  1.2727
   99MOL0     H13365  10.918   4.792  10.221  0.4062 -0.7658  0.9585
  100MOL0     O13366   4.356   7.253   0.284 -0.0611  0.0701  0.5447
  100MOL0     C13367   4.384   7.213   0.173 -0.0454  0.7239  0.1731
  100MOL0     O13368   4.290   7.203   0.071 -0.2842 -0.4362  0.5119
  100MOL0     C13369   4.158   7.207   0.099 -0.3234 -0.3426 -0.5056
  100MOL0     C13370   4.097   7.120   0.198 -0.2640  1.6333  0.8543
  100MOL0     C13371   3.967   7.140   0.246  0.0159  1.0420  0.0519
  100MOL0     C13372   3.885   7.206   0.160  0.4194 -0.0810 -0.1509
  100MOL0     O13373   3.757   7.213   0.207  1.1306  0.6923 -0.5624
  100MOL0     C13374   3.698   7.079   0.172  0.1283 -0.9185 -0.4058
  100MOL0     C13375   3.662   7.023   0.303 -0.2165 -0.2986  0.1655
  100MOL0     C13376   3.583   6.890   0.297  0.4673 -0.0929  0.9434
  100MOL0     C13377   3.435   6.914   0.273 -0.6879 -0.2132 -0.7088
  100MOL0     C13378   3.347   6.790   0.293 -1.1729  0.6665  0.3145
  100MOL0     C13379   3.386   6.672   0.204 -0.9604 -0.2366  0.0925
  100MOL0     C13380   3.298   6.550   0.215  0.1480  0.2470 -0.4695
  100MOL0     C13381   3.189   6.554   0.114 -0.0975  0.4972  0.2227
  100MOL0     N13382   3.101   6.435   0.140 -0.9469  0.1614  0.2005
  100MOL0     C13383   3.127   6.310   0.092  0.1162 -0.0629 -1.0514
  100MOL0     C13384   3.037   6.234   0.164 -0.6833  0.1108  1.2331
  100MOL0     C13385   3.013   6.081   0.137 -0.6792  0.3277 -0.3169
  100MOL0     C13386   2.867   6.036   0.099 -0.2747 -0.0812 -0.2493
  100MOL0     C13387   2.877   5.899   0.033  0.6393 -0.4405  0.4925
  100MOL0     C13388   2.745   5.824   0.047  0.4128 -0.4688  0.3941
  100MOL0     O13389   2.641   5.908  -0.008 -0.3127  0.2800  0.4515
  100MOL0     C13390   2.521   5.848  -0.041 -0.3543 -1.0352 -0.4222
  100MOL0     C13391   2.494   5.713  -0.014  0.3047  0.7275  0.0952
  100MOL0     C13392   2.361   5.664  -0.039 -0.9038 -0.0921 -0.2585
  100MOL0     C13393   2.337   5.527   0.002  0.1150  0.4688 -0.4143
  100MOL0     C13394   2.263   5.743  -0.103 -0.5896 -0.3612  0.8985
  100MOL0     C13395   2.126   5.707  -0.138  0.6044  1.0012  0.1177
  100MOL0     O13396   2.072   5.604  -0.069 -0.1706 -0.2914 -0.0092
  100MOL0     C13397   1.949   5.557  -0.110 -0.6059 -0.2387 -0.2333
  100MOL0     C13398   1.827   5.615  -0.077  0.0657 -1.1080  0.2335
  100MOL0     C13399   1.699   5.571  -0.125  0.1854 -1.0231  0.8673
  100MOL0     C13400   1.689   5.469  -0.217 -0.3232  0.2800  0.0718
  100MOL0     O13401   1.589   5.408  -0.281 -0.1083 -0.5371  0.1460
  100MOL0     C13402   1.447   5.439  -0.267  0.3532  0.2033  0.5855
  100MOL0     C13403   1.345   5.380  -0.369  0.1986  0.4916 -0.3682
  100MOL0     C13404   1.373   5.232  -0.401  0.9029 -0.0280 -0.4006
  100MOL0     C13405   1.340   5.203  -0.555 -0.5868 -0.1586 -0.3819
  100MOL0     C13406   1.395   5.066  -0.597 -0.5266  0.3533 -0.2090
  100MOL0     C13407   1.333   4.939  -0.548 -0.7488 -0.0312 -0.2393
  100MOL0     C13408   1.178   4.932  -0.563 -0.2484  0.0321 -0.7147
  100MOL0     C13409   1.140   4.971  -0.708  0.3800 -0.7725  0.1121
  100MOL0    Cl13410   1.223   4.869  -0.828 -0.0531  0.0898  0.3456
  100MOL0     C13411   1.808   5.411  -0.249  0.0662  0.1114  0.0062
  100MOL0     C13412   1.936   5.450  -0.195  1.1572  1.6826 -0.5358
  100MOL0     O13413   2.064   5.774  -0.224  0.3209  0.1232 -0.8914
  100MOL0     C13414   2.299   5.877  -0.130 -0.9969  0.3987 -0.3630
  100MOL0     C13415   2.413   5.933  -0.086 -0.1712  0.2601  0.3648
  100MOL0     N13416   2.970   6.313   0.252 -0.3519 -0.9486  0.3950
  100MOL0     N13417   3.009   6.436   0.244 -0.1811  1.1821  0.0287
  100MOL0     C13418   3.940   7.292   0.054 -0.0479 -0.0574 -0.4674
  100MOL0     C13419   4.076   7.287   0.027  1.1437  1.5593 -0.2391
  100MOL0     C13420   4.516   7.158   0.153  0.4861  0.0513  0.3850
  100MOL0     C13421   4.593   7.105   0.253 -0.3389 -0.5591 -0.0972
  100MOL0     C13422   4.720   7.050   0.234  0.5105 -0.6998  0.8437
  100MOL0     C13423   4.769   7.057   0.103 -0.0654  0.5957  0.4094
  100MOL0     O13424   4.891   7.007   0.089  0.0918 -0.0117  0.2961
  100MOL0     C13425   4.965   7.039  -0.034 -0.1791 -0.6341 -0.3049
  100MOL0     C13426   5.100   6.971  -0.033 -0.1976  0.1653 -0.5698
  100MOL0     C13427   5.205   7.036  -0.127 -0.7143 -0.5074  0.5683
  100MOL0     C13428   5.344   6.969  -0.105 -0.1042 -0.8912 -0.1377
  100MOL0     C13429   5.455   7.007  -0.197 -0.0575 -0.4448 -1.0573
  100MOL0     C13430   5.544   7.025  -0.277 -1.1376  0.2275 -0.4079
  100MOL0     C13431   4.695   7.094  -0.002  0.5012 -0.3272  0.0983
  100MOL0     C13432   4.568   7.147   0.024 -0.0458 -0.2155  0.0552
  100MOL0     H13433   4.154   7.044   0.250 -1.4003  0.2624  0.1798
  100MOL0     H13434   3.929   7.089   0.333  0.7582  0.8599  0.2759
  100MOL0     H13435   3.611   7.116   0.117  2.5807  1.2982 -3.1982
  100MOL0     H13436   3.758   7.011   0.111 -0.0806 -1.8033  0.3552
  100MOL0     H13437   3.749   7.006   0.367 -2.0478 -2.0133  2.3662
  100MOL0     H13438   3.607   7.103   0.354 -0.9775  0.4634 -1.7403
  100MOL0     H13439   3.636   6.836   0.218  0.6494  4.2485 -2.2961
  100MOL0     H13440   3.597   6.845   0.395  0.4535  0.9084  1.4192
  100MOL0     H13441   3.403   6.989   0.346  0.9049  2.9430 -2.9874
  100MOL0     H13442   3.419   6.951   0.171 -3.0153  1.7587  0.2769
  100MOL0     H13443   3.344   6.749   0.395 -0.6067  0.3894  0.2216
  100MOL0     H13444   3.244   6.816   0.266 -0.9119  0.7951 -0.5723
  100MOL0     H13445   3.382   6.706   0.100 -0.1168  0.9794  0.4336
  100MOL0     H13446   3.488   6.649   0.235 -0.9881  0.8184  1.0352
  100MOL0     H13447   3.357   6.461   0.192 -2.3388 -1.6136 -0.0522
  100MOL0     H13448   3.260   6.549   0.317 -0.7333 -0.0101 -0.7964
  100MOL0     H13449   3.234   6.552   0.014 -0.8011  1.7558 -0.1387
  100MOL0     H13450   3.141   6.652   0.122  1.6852  1.3472  1.1151
  100MOL0     H13451   3.199   6.273   0.020  0.4966 -1.8116  0.1588
  100MOL0     H13452   3.072   6.052   0.049 -1.6106  1.8322 -1.4750
  100MOL0     H13453   3.039   6.022   0.225  0.1720 -0.3917 -1.0204
  100MOL0     H13454   2.813   6.106   0.035 -0.3839 -1.2653 -1.4774
  100MOL0     H13455   2.815   6.014   0.193  0.8103 -3.5342 -0.3168
  100MOL0     H13456   2.957   5.835   0.073  2.3413  1.0974 -0.2881
  100MOL0     H13457   2.896   5.925  -0.072  1.2902  1.1892  0.9918
  100MOL0     H13458   2.741   5.809   0.155  2.5761 -0.4724  0.5047
  100MOL0     H13459   2.745   5.733  -0.014 -0.8479 -1.5254  1.8930
  100MOL0     H13460   2.568   5.647   0.031 -2.8408 -1.1634  3.0110
  100MOL0     H13461   2.277   5.465  -0.066 -2.5355  0.8525  1.4130
  100MOL0     H13462   2.426   5.476   0.039  0.5407  2.2125  1.1135
  100MOL0     H13463   2.274   5.538   0.091  0.5175  0.5278 -0.1376
  100MOL0     H13464   1.849   5.704  -0.019  0.3370  1.3617 -3.2993
  100MOL0     H13465   1.604   5.620  -0.108  0.6515  0.3531 -0.2800
  100MOL0     H13466   1.403   5.408  -0.172 -2.3778  0.7779 -0.3901
  100MOL0     H13467   1.441   5.548  -0.271 -1.8661  0.1132 -0.0523
  100MOL0     H13468   1.239   5.388  -0.344  0.2146  0.8871 -0.4251
  100MOL0     H13469   1.353   5.434  -0.464 -1.8499 -2.6631 -2.5698
  100MOL0     H13470   1.307   5.175  -0.334 -1.4226  0.1553 -2.3834
  100MOL0     H13471   1.474   5.195  -0.384  0.9380 -0.3056 -1.1699
  100MOL0     H13472   1.236   5.217  -0.587  0.2652 -0.5356 -3.6459
  100MOL0     H13473   1.408   5.265  -0.614  0.5377 -1.6059 -0.6503
  100MOL0     H13474   1.500   5.061  -0.566 -0.0166  4.2698 -0.7628
  100MOL0     H13475   1.393   5.066  -0.707  0.7166 -0.2765 -0.2455
  100MOL0     H13476   1.382   4.858  -0.602 -1.3619  1.0664 -2.5491
  100MOL0     H13477   1.357   4.933  -0.441 -3.0048  3.2236  0.5961
  100MOL0     H13478   1.130   5.003  -0.496  0.7387  0.2477 -0.2212
  100MOL0     H13479   1.144   4.830  -0.541 -1.0526  0.4699  0.1369
  100MOL0     H13480   1.162   5.075  -0.734  1.9503 -0.8192  1.1129
  100MOL0     H13481   1.033   4.955  -0.725 -0.1199  1.5307  0.6910
  100MOL0     H13482   1.819   5.339  -0.329  0.3677 -2.0514  1.8958
  100MOL0     H13483   2.028   5.401  -0.225  1.7188  2.6238 -0.3584
  100MOL0     H13484   2.225   5.942  -0.175 -2.5487 -2.0727 -1.6486
  100MOL0     H13485   2.431   6.040  -0.086 -2.1578  0.6237  1.1801
  100MOL0     H13486   3.881   7.357  -0.010  2.2634  1.6205 -1.0052
  100MOL0     H13487   4.126   7.348  -0.048  0.8559  3.7087  1.2353
  100MOL0     H13488   4.534   7.093   0.343 -0.3829  0.8683  0.0913
  100MOL0     H13489   4.777   6.996   0.309  0.2515 -0.7591  0.9996
  100MOL0     H13490   4.916   7.006  -0.126 -2.3242 -1.7973  1.1682
  100MOL0     H13491   4.967   7.147  -0.055 -0.7288 -0.7229 -0.8701
  100MOL0     H13492   5.093   6.868  -0.070 -4.7732  1.2115 -3.4305
  100MOL0     H13493   5.139   6.964   0.069  0.7384  0.0997 -0.9189
  100MOL0     H13494   5.216   7.143  -0.112  0.2653 -0.7351  1.6334
  100MOL0     H13495   5.166   7.019  -0.228 -4.0729  2.7276  1.1231
  100MOL0     H13496   5.325   6.861  -0.112 -1.2121 -0.6875 -0.5498
  100MOL0     H13497   5.389   7.007  -0.013 -1.3056 -1.8914  0.9049
  100MOL0     H13498   5.602   7.051  -0.364  0.3203 -2.2472 -0.2675
  100MOL0     H13499   4.723   7.086  -0.107 -0.1879 -0.7158 -0.0693
  100MOL0     H13500   4.516   7.176  -0.066  1.0439 -1.5371 -1.0466
  101MOL0     O13501   2.880   2.193  10.777 -0.8377  0.2322 -0.1306
  101MOL0     C13502   2.830   2.174  10.669  0.1614 -0.2902 -0.4016
  101MOL0     O13503   2.881   2.220  10.543  0.9372  0.0771  0.1006
  101MOL0     C13504   2.982   2.312  10.528 -0.0941  0.1728  0.1592
  101MOL0     C13505   3.039   2.326  10.399 -0.4264  0.0553  0.9891
  101MOL0     C13506   3.138   2.424  10.373  0.5640  0.5314  0.4595
  101MOL0     C13507   3.167   2.518  10.467 -1.2423  0.1661 -0.7211
  101MOL0     O13508   3.251   2.617  10.419 -0.2177  0.2659  0.3049
  101MOL0     C13509   3.270   2.718  10.518  0.4497  0.6067  0.2705
  101MOL0     C13510   3.326   2.839  10.440 -0.4400  0.8501  0.1088
  101MOL0     C13511   3.461   2.809  10.390  1.2106  0.4298 -0.1727
  101MOL0     C13512   3.548   2.932  10.384  0.1072 -0.4119  0.2293
  101MOL0     C13513   3.677   2.911  10.291  0.0921 -0.0510 -0.8380
  101MOL0     C13514   3.761   3.043  10.296 -0.2570  0.4101  0.0995
  101MOL0     C13515   3.888   3.016  10.210  0.4883 -0.5881  0.2804
  101MOL0     C13516   3.927   3.143  10.128 -0.5691 -0.5633  0.2026
  101MOL0     N13517   4.001   3.237  10.214  0.1876  0.1760  0.4528
  101MOL0     C13518   3.951   3.286  10.336 -0.4006  0.2104 -0.1656
  101MOL0     C13519   4.039   3.379  10.374  0.4782 -0.1643  0.0961
  101MOL0     C13520   4.030   3.474  10.481  0.2168  0.7356 -0.4300
  101MOL0     C13521   4.091   3.400  10.602 -0.0747  0.3939 -0.3999
  101MOL0     C13522   4.105   3.500  10.724 -0.7476  0.0602 -0.0701
  101MOL0     C13523   4.145   3.422  10.856 -0.8425 -0.2165  0.3173
  101MOL0     O13524   4.144   3.529  10.946 -0.2809 -0.7966  0.3590
  101MOL0     C13525   4.261   3.579  10.995  0.0160  0.2867  0.4111
  101MOL0     C13526   4.374   3.607  10.912  0.0227  0.4504  1.3591
  101MOL0     C13527   4.485   3.681  10.964 -0.5036  1.5135  0.9312
  101MOL0     C13528   4.601   3.688  10.869  0.8701 -0.5585  0.1170
  101MOL0     C13529   4.484   3.738  11.090 -0.4539  0.9846  0.2795
  101MOL0     C13530   4.582   3.839  11.133 -0.4899  1.0258  0.1037
  101MOL0     O13531   4.629   3.837  11.263  0.4825 -0.6488 -0.1956
  101MOL0     C13532   4.731   3.936  11.294  0.1656 -0.2982  0.4807
  101MOL0     C13533   4.707   4.031  11.389  0.7644 -0.1886  0.7624
  101MOL0     C13534   4.807   4.124  11.425  0.5245 -0.3192 -0.2612
  101MOL0     C13535   4.925   4.131  11.348  0.4516 -0.0151 -0.1437
  101MOL0     O13536   5.024   4.224  11.345  0.4647  0.7392 -0.3723
  101MOL0     C13537   5.004   4.337  11.433  0.4746 -1.0207  0.4119
  101MOL0     C13538   5.100   4.441  11.400 -0.7118 -0.7284  0.1432
  101MOL0     C13539   5.076   4.487  11.254  0.3158 -0.2545 -0.5490
  101MOL0     C13540   5.175   4.603  11.206 -0.4416 -0.1775 -0.2474
  101MOL0     C13541   5.142   4.651  11.070 -0.1643  0.3378 -0.1996
  101MOL0     C13542   5.007   4.726  11.060 -0.6617  0.0297  1.0476
  101MOL0     C13543   4.903   4.652  10.961 -0.3422 -0.6625 -0.1159
  101MOL0     C13544   4.773   4.716  10.971  0.3143 -0.0655  0.5388
  101MOL0    Cl13545   4.778   4.865  10.867  0.2114  0.6669 -0.0700
  101MOL0     C13546   4.948   4.025  11.263 -0.6102 -0.3171  0.2439
  101MOL0     C13547   4.853   3.932  11.233  0.5538  0.3145 -0.3818
  101MOL0     O13548   4.624   3.907  11.040 -0.6701 -0.0570 -0.1994
  101MOL0     C13549   4.364   3.719  11.165  0.2812 -0.7765 -0.5100
  101MOL0     C13550   4.260   3.637  11.124  0.5759 -0.4378 -0.6249
  101MOL0     N13551   4.144   3.372  10.288 -0.1311 -0.2834 -0.0133
  101MOL0     N13552   4.119   3.295  10.195 -0.3087  0.3094 -0.0190
  101MOL0     C13553   3.099   2.512  10.593  0.0832 -0.4758  0.1599
  101MOL0     C13554   3.004   2.411  10.625 -0.6787  0.6563 -0.2345
  101MOL0     C13555   2.711   2.086  10.662  0.0442 -0.0846 -0.4403
  101MOL0     C13556   2.630   2.041  10.770  1.0742  0.0827  0.0068
  101MOL0     C13557   2.534   1.942  10.762 -0.6813  0.8664  0.1895
  101MOL0     C13558   2.494   1.893  10.636 -1.3424  0.4371 -0.1235
  101MOL0     O13559   2.399   1.793  10.646  0.5114 -1.1616  0.5820
  101MOL0     C13560   2.343   1.734  10.524  1.2161 -0.0495  0.1611
  101MOL0     C13561   2.252   1.822  10.441  0.1282  0.4049  0.0655
  101MOL0     C13562   2.225   1.760  10.301  0.3192  0.1007 -0.3009
  101MOL0     C13563   2.172   1.850  10.193 -0.9631 -0.1931 -0.3073
  101MOL0     C13564   2.286   1.921  10.133  0.3505 -0.1515  0.1447
  101MOL0     C13565   2.373   1.982  10.082 -0.2202  0.1629  0.3360
  101MOL0     C13566   2.566   1.936  10.525  0.3564  0.0928 -0.5147
  101MOL0     C13567   2.677   2.025  10.550 -0.1325  0.5474  0.9521
  101MOL0     H13568   3.007   2.252  10.326  4.4609 -2.0295  0.5689
  101MOL0     H13569   3.176   2.423  10.272 -0.5947 -0.1378  0.0025
  101MOL0     H13570   3.174   2.751  10.558  1.1495  0.9589  1.7416
  101MOL0     H13571   3.328   2.686  10.605 -2.2696  0.8086  2.2466
  101MOL0     H13572   3.257   2.853  10.357  0.4997  0.9353 -0.6698
  101MOL0     H13573   3.323   2.924  10.510 -0.1602  0.4072  0.6726
  101MOL0     H13574   3.509   2.745  10.464 -1.8330 -0.4036  1.2656
  101MOL0     H13575   3.447   2.750  10.298 -0.7051 -0.4196  0.6107
  101MOL0     H13576   3.486   3.014  10.345  1.7148  0.1921 -1.2295
  101MOL0     H13577   3.575   2.962  10.485  0.3209  1.3825 -0.3131
  101MOL0     H13578   3.732   2.827  10.332 -0.4085  1.1940  2.7467
  101MOL0     H13579   3.635   2.897  10.190  2.1606  1.4469 -1.9957
  101MOL0     H13580   3.712   3.130  10.251 -0.9871  0.1570  0.3765
  101MOL0     H13581   3.781   3.085  10.395 -2.0876  1.2686  0.1444
  101MOL0     H13582   3.967   2.978  10.275 -1.7350 -1.7721  2.4385
  101MOL0     H13583   3.876   2.949  10.124  0.6883  0.1786 -0.3597
  101MOL0     H13584   3.840   3.187  10.079 -0.2892 -2.4406 -2.1641
  101MOL0     H13585   3.991   3.118  10.043  1.1651  2.7543  0.3649
  101MOL0     H13586   3.855   3.262  10.379  0.4125  0.3532  1.8582
  101MOL0     H13587   4.083   3.568  10.461 -0.5870  2.3960  4.0940
  101MOL0     H13588   3.925   3.504  10.496  0.4634  1.1383  0.5970
  101MOL0     H13589   4.190   3.356  10.589 -0.0472 -1.2681  3.8485
  101MOL0     H13590   4.027   3.314  10.624 -1.4536  2.0010  2.6290
  101MOL0     H13591   4.017   3.565  10.731  1.8872  4.6965 -4.0335
  101MOL0     H13592   4.179   3.575  10.695 -1.2039  0.0188 -1.3868
  101MOL0     H13593   4.237   3.364  10.850 -2.3731 -2.6667 -0.5975
  101MOL0     H13594   4.064   3.362  10.899 -1.7487  0.3273 -0.5971
  101MOL0     H13595   4.384   3.568  10.811 -2.7964  2.2973  0.2347
  101MOL0     H13596   4.603   3.775  10.802  0.8481 -0.2438  0.5211
  101MOL0     H13597   4.692   3.678  10.928 -0.0861 -3.1506  1.3175
  101MOL0     H13598   4.609   3.599  10.806  1.6447  0.1162 -0.7654
  101MOL0     H13599   4.615   4.043  11.446 -0.3679 -0.8130 -0.8574
  101MOL0     H13600   4.793   4.189  11.510  2.3640 -2.3201  1.7140
  101MOL0     H13601   4.903   4.379  11.428 -0.1794 -2.5307  0.2875
  101MOL0     H13602   5.014   4.313  11.540 -0.3836  2.2143  1.3285
  101MOL0     H13603   5.095   4.533  11.459  1.9558  1.3184 -2.5187
  101MOL0     H13604   5.202   4.404  11.420 -0.3186  0.8412  1.2205
  101MOL0     H13605   4.971   4.518  11.252 -0.4938 -2.5987  1.0049
  101MOL0     H13606   5.093   4.398  11.193  0.3560 -2.0799  1.9824
  101MOL0     H13607   5.171   4.696  11.263  2.6567  0.8488 -1.5028
  101MOL0     H13608   5.277   4.566  11.217 -0.7492 -0.2080  4.1015
  101MOL0     H13609   5.146   4.571  10.995  1.3585 -0.1950  0.4002
  101MOL0     H13610   5.220   4.720  11.038  0.4281 -0.0402  0.3988
  101MOL0     H13611   4.960   4.751  11.155  3.2716  2.5159  2.6393
  101MOL0     H13612   5.024   4.824  11.013 -0.3009 -0.3725  0.3198
  101MOL0     H13613   4.889   4.555  11.009  0.5783  1.3698  4.8782
  101MOL0     H13614   4.938   4.647  10.858  1.3694  0.3941  0.3655
  101MOL0     H13615   4.752   4.740  11.076 -1.5668  2.0957 -0.2458
  101MOL0     H13616   4.693   4.647  10.943 -0.9541  0.5478  2.4201
  101MOL0     H13617   5.040   4.027  11.205 -1.0670 -2.2344 -0.6344
  101MOL0     H13618   4.870   3.867  11.148  0.0500  0.7831 -0.8478
  101MOL0     H13619   4.340   3.763  11.262 -0.8912 -2.3232 -0.0630
  101MOL0     H13620   4.173   3.622  11.187  1.9453 -0.6022  1.3240
  101MOL0     H13621   3.131   2.580  10.672  0.1140  2.8858 -2.5407
  101MOL0     H13622   2.955   2.413  10.722  2.0185 -3.0028  1.4722
  101MOL0     H13623   2.661   2.077  10.868  1.0666 -0.8516  0.3654
  101MOL0     H13624   2.473   1.909  10.845  1.5824 -1.0522  1.2177
  101MOL0     H13625   2.428   1.702  10.462 -0.1830 -1.5705 -1.0456
  101MOL0     H13626   2.291   1.643  10.556  0.9540 -0.5892 -1.6977
  101MOL0     H13627   2.299   1.919  10.426  0.7292  0.1508  0.2607
  101MOL0     H13628   2.161   1.846  10.497  0.9027  1.2509  0.9832
  101MOL0     H13629   2.151   1.684  10.328 -0.8210  0.5739 -1.9400
  101MOL0     H13630   2.310   1.708  10.256 -1.9710 -1.5955 -3.0000
  101MOL0     H13631   2.096   1.919  10.229  1.5063  1.1774  2.7014
  101MOL0     H13632   2.121   1.782  10.123 -0.2378 -1.5078  0.4043
  101MOL0     H13633   2.444   2.038  10.024  0.9814  0.0323  1.6118
  101MOL0     H13634   2.542   1.899  10.426 -2.5700 -2.0682  0.8312
  101MOL0     H13635   2.732   2.041  10.458 -2.7667 -0.1555 -0.8546
  102MOL0     O13636   2.989   3.978   4.989  1.3144 -0.4509  0.2603
  102MOL0     C13637   3.090   3.990   5.055  0.0874  0.3536 -0.0922
  102MOL0     O13638   3.180   4.100   5.044  0.3249 -0.3103  0.2283
  102MOL0     C13639   3.143   4.201   4.961 -0.5817 -0.5220  0.0278
  102MOL0     C13640   3.062   4.304   4.996 -0.0109 -0.6348  0.1530
  102MOL0     C13641   3.049   4.416   4.911 -0.4979  0.1383 -0.9464
  102MOL0     C13642   3.099   4.417   4.781  0.4715 -0.7386  1.2588
  102MOL0     O13643   3.061   4.501   4.684 -0.1264 -0.1164  0.4323
  102MOL0     C13644   3.089   4.639   4.700  0.2425 -0.0759  0.5477
  102MOL0     C13645   2.976   4.730   4.637 -0.5771  0.2232  0.3251
  102MOL0     C13646   2.954   4.856   4.717  0.6884 -0.1721 -1.4715
  102MOL0     C13647   2.855   4.956   4.647  0.1660  0.0892 -0.3758
  102MOL0     C13648   2.845   5.087   4.723  0.4976  0.9276  0.0931
  102MOL0     C13649   2.777   5.064   4.861 -0.2910  0.7259  0.4486
  102MOL0     C13650   2.626   5.021   4.845  0.1734 -0.6969 -0.1471
  102MOL0     C13651   2.537   5.019   4.974  0.0629 -0.1766  0.2153
  102MOL0     N13652   2.506   5.142   5.034 -0.9762 -0.4811  0.4974
  102MOL0     C13653   2.381   5.179   5.069  0.1431 -0.2465 -0.0640
  102MOL0     C13654   2.392   5.255   5.179 -0.0255  0.2741 -0.3940
  102MOL0     C13655   2.277   5.278   5.266  0.0356 -0.4242 -0.4281
  102MOL0     C13656   2.189   5.396   5.213 -0.0247  0.2386 -0.1047
  102MOL0     C13657   2.061   5.410   5.297 -0.5463  0.3935  0.0183
  102MOL0     C13658   1.945   5.469   5.219 -0.4478  1.0988 -0.0322
  102MOL0     O13659   1.819   5.421   5.290  0.0412 -0.2008 -0.4610
  102MOL0     C13660   1.712   5.505   5.275 -0.1479  0.3883 -0.6194
  102MOL0     C13661   1.701   5.612   5.189 -0.2203 -0.2830 -0.2217
  102MOL0     C13662   1.571   5.682   5.170 -0.4852 -0.2235  0.1318
  102MOL0     C13663   1.568   5.800   5.072 -0.0844 -0.1510  0.1897
  102MOL0     C13664   1.455   5.630   5.239 -0.7395 -0.2613 -0.5834
  102MOL0     C13665   1.317   5.675   5.215  0.1588 -0.6315  0.8388
  102MOL0     O13666   1.230   5.626   5.306  0.3256 -0.3543 -0.2287
  102MOL0     C13667   1.095   5.637   5.280  0.7300 -0.5990 -0.0093
  102MOL0     C13668   1.033   5.765   5.295  0.4033  0.5109  0.0258
  102MOL0     C13669   0.895   5.777   5.255 -0.1003  0.2759 -0.2203
  102MOL0     C13670   0.822   5.668   5.203 -0.4324 -0.1539 -0.4996
  102MOL0     O13671   0.697   5.695   5.169 -0.0117 -0.2674 -0.0256
  102MOL0     C13672   0.605   5.585   5.173 -0.6753  0.4528  0.1465
  102MOL0     C13673   0.495   5.635   5.262  0.5328  0.7131  0.7741
  102MOL0     C13674   0.362   5.542   5.258 -0.3464  0.6270  0.4313
  102MOL0     C13675   0.250   5.593   5.343 -0.5181 -0.4555  1.4547
  102MOL0     C13676   0.108   5.554   5.291 -0.0479 -0.2665 -0.2510
  102MOL0     C13677   0.077   5.407   5.309 -0.3476 -0.0117 -0.0513
  102MOL0     C13678  -0.042   5.356   5.224  0.3391 -0.1492  0.3026
  102MOL0     C13679  -0.177   5.378   5.297 -0.2985  0.3083 -0.0265
  102MOL0    Cl13680  -0.188   5.247   5.430  0.3290  0.1804 -0.5112
  102MOL0     C13681   0.893   5.542   5.188  1.6839 -0.4380  1.3266
  102MOL0     C13682   1.028   5.532   5.230 -0.7178  0.9850 -0.2847
  102MOL0     O13683   1.294   5.742   5.112 -0.2239  1.6416 -0.6289
  102MOL0     C13684   1.479   5.528   5.328 -0.3835  0.5599 -0.0456
  102MOL0     C13685   1.599   5.465   5.349 -1.3043  0.1100 -0.4466
  102MOL0     N13686   2.521   5.281   5.196 -0.2830  0.3070 -0.1186
  102MOL0     N13687   2.592   5.212   5.113 -0.9017  0.4146  0.2589
  102MOL0     C13688   3.167   4.308   4.738  0.3608 -0.2648 -0.1978
  102MOL0     C13689   3.200   4.206   4.833  0.1777 -0.1550  0.7048
  102MOL0     C13690   3.131   3.893   5.152  0.0651 -0.0280 -0.6523
  102MOL0     C13691   3.042   3.794   5.197  1.4062  0.2275  0.5678
  102MOL0     C13692   3.082   3.698   5.286 -0.5701 -0.0556 -0.6429
  102MOL0     C13693   3.214   3.677   5.320  0.6021  0.2922  0.1678
  102MOL0     O13694   3.248   3.573   5.406  0.1134  0.5780  0.2199
  102MOL0     C13695   3.191   3.441   5.402 -0.1589 -0.7699 -0.9108
  102MOL0     C13696   3.280   3.363   5.489 -0.2549  0.7457 -0.7698
  102MOL0     C13697   3.426   3.391   5.444 -0.1527  0.1049 -0.8299
  102MOL0     C13698   3.502   3.264   5.489  0.5718 -0.5984  0.6797
  102MOL0     C13699   3.563   3.272   5.621 -0.1293  0.5075 -0.1139
  102MOL0     C13700   3.640   3.284   5.712  0.2030  0.3447 -0.2529
  102MOL0     C13701   3.304   3.765   5.262 -0.4198 -0.3356  0.6867
  102MOL0     C13702   3.264   3.868   5.176 -0.3775 -0.4558 -1.0608
  102MOL0     H13703   3.018   4.298   5.095 -2.2593 -0.6484 -0.7876
  102MOL0     H13704   2.979   4.495   4.938 -2.0911 -2.4577  3.4040
  102MOL0     H13705   3.094   4.661   4.807 -1.3857 -1.1366  0.8842
  102MOL0     H13706   3.186   4.653   4.652 -0.7575 -1.0163 -1.9039
  102MOL0     H13707   2.999   4.762   4.535  0.0153 -0.9087  0.0868
  102MOL0     H13708   2.889   4.663   4.629 -0.4195 -0.2724  2.3826
  102MOL0     H13709   2.919   4.836   4.818 -0.9659  2.2727 -1.4888
  102MOL0     H13710   3.048   4.910   4.735  0.4022  0.0113 -0.4943
  102MOL0     H13711   2.900   4.974   4.549 -0.1783  1.4210 -0.3083
  102MOL0     H13712   2.759   4.904   4.641  0.3989 -0.8151  2.2668
  102MOL0     H13713   2.944   5.131   4.737 -0.1923  2.5296  0.1667
  102MOL0     H13714   2.785   5.147   4.654 -0.8386 -4.0183 -3.5293
  102MOL0     H13715   2.827   4.985   4.919 -1.3144 -2.0998 -2.2028
  102MOL0     H13716   2.775   5.162   4.908  0.5362  1.8627 -1.7425
  102MOL0     H13717   2.582   5.089   4.771 -1.2904  0.5898  1.8048
  102MOL0     H13718   2.632   4.919   4.807  5.3075 -0.9149  0.5318
  102MOL0     H13719   2.588   4.958   5.049  1.8455 -0.0079 -0.8220
  102MOL0     H13720   2.442   4.977   4.941  1.9046 -0.6185 -5.5481
  102MOL0     H13721   2.286   5.142   5.034  0.3660  0.3729 -1.4188
  102MOL0     H13722   2.214   5.188   5.264 -4.1308  2.2143 -2.5347
  102MOL0     H13723   2.305   5.304   5.368 -1.8872 -2.1859  0.6362
  102MOL0     H13724   2.171   5.391   5.105 -1.0665  1.9682 -0.0502
  102MOL0     H13725   2.250   5.485   5.227 -0.4168  0.3827  0.7063
  102MOL0     H13726   2.080   5.464   5.390 -1.3789 -0.0027  0.4258
  102MOL0     H13727   2.030   5.315   5.343 -0.3711  1.6436  2.9256
  102MOL0     H13728   1.933   5.431   5.117 -1.6493  1.8201 -0.1807
  102MOL0     H13729   1.952   5.578   5.220  1.1159  1.0462  2.5772
  102MOL0     H13730   1.784   5.653   5.133  1.9875  0.5504  3.3545
  102MOL0     H13731   1.494   5.874   5.105 -1.7536 -0.6529 -2.1231
  102MOL0     H13732   1.661   5.851   5.047 -0.3658 -0.3062 -1.2899
  102MOL0     H13733   1.533   5.766   4.974  3.3812 -0.7889 -0.9590
  102MOL0     H13734   1.095   5.852   5.314 -0.5733  1.2114  0.0964
  102MOL0     H13735   0.842   5.871   5.269 -0.9929 -0.5368  2.6008
  102MOL0     H13736   0.565   5.567   5.073 -1.7460 -1.8581  0.9132
  102MOL0     H13737   0.654   5.497   5.216  0.4631 -0.0972 -2.1138
  102MOL0     H13738   0.537   5.639   5.363  3.2762 -0.1997 -0.2463
  102MOL0     H13739   0.461   5.734   5.230 -0.5602 -0.6568 -2.7754
  102MOL0     H13740   0.393   5.440   5.279 -2.8269 -1.2143 -3.6882
  102MOL0     H13741   0.324   5.528   5.157  0.2584 -0.3515  0.3327
  102MOL0     H13742   0.259   5.561   5.447  1.4631 -0.4079  1.3433
  102MOL0     H13743   0.260   5.702   5.342  1.7480 -0.3659 -4.2930
  102MOL0     H13744   0.095   5.564   5.183 -2.4823 -1.3610 -0.1284
  102MOL0     H13745   0.038   5.618   5.345  1.1061  1.3631 -0.6115
  102MOL0     H13746   0.159   5.343   5.276  0.0406 -0.2817  1.3648
  102MOL0     H13747   0.055   5.379   5.413  1.1846 -1.3981 -0.0559
  102MOL0     H13748  -0.040   5.247   5.210  2.0435 -0.1087  0.0616
  102MOL0     H13749  -0.046   5.401   5.124  4.1521 -0.6969 -0.2398
  102MOL0     H13750  -0.261   5.367   5.228 -2.3622 -1.6644  2.5659
  102MOL0     H13751  -0.176   5.475   5.347  0.4488 -0.1412  0.8714
  102MOL0     H13752   0.859   5.452   5.138  2.0364  0.0591  0.1418
  102MOL0     H13753   1.085   5.442   5.211 -1.5032  0.9622 -2.8201
  102MOL0     H13754   1.405   5.485   5.396  1.6909  0.5541  2.3406
  102MOL0     H13755   1.602   5.377   5.411  4.0775 -0.5376 -1.0841
  102MOL0     H13756   3.210   4.300   4.639  2.4237  0.2934  0.5896
  102MOL0     H13757   3.255   4.120   4.797 -2.1790 -0.7424 -1.7890
  102MOL0     H13758   2.943   3.798   5.152  2.7975  0.4575 -2.7909
  102MOL0     H13759   3.009   3.632   5.332 -0.7027  1.1934  1.0244
  102MOL0     H13760   3.090   3.447   5.444 -1.4059  1.0299 -3.8138
  102MOL0     H13761   3.180   3.394   5.304  1.1682 -3.9453  0.3221
  102MOL0     H13762   3.245   3.260   5.487  1.9431 -0.0482 -1.9846
  102MOL0     H13763   3.271   3.401   5.591  1.2524  1.2732 -0.8064
  102MOL0     H13764   3.479   3.480   5.480 -3.5283  2.2297 -0.6161
  102MOL0     H13765   3.427   3.395   5.335  0.0407  0.4780 -0.8161
  102MOL0     H13766   3.582   3.257   5.415 -1.2349  3.3829 -1.9943
  102MOL0     H13767   3.445   3.171   5.493  1.1349 -0.9633  4.8161
  102MOL0     H13768   3.705   3.295   5.796 -1.0442  0.6312  0.7011
  102MOL0     H13769   3.409   3.756   5.285  0.4347 -0.5304 -2.8501
  102MOL0     H13770   3.346   3.923   5.131  2.6358 -0.1728  4.1140
  103MOL0     O13771   0.498   5.921   7.362 -0.3554  0.3447  0.1174
  103MOL0     C13772   0.539   5.850   7.269  0.4844  0.7642 -0.2481
  103MOL0     O13773   0.667   5.850   7.223  0.4019 -0.3412  0.7089
  103MOL0     C13774   0.756   5.934   7.277 -0.5840  0.3829  0.0044
  103MOL0     C13775   0.856   5.984   7.188 -0.5723 -0.1679  0.1951
  103MOL0     C13776   0.970   6.049   7.237 -0.4793  0.5601 -0.1617
  103MOL0     C13777   0.986   6.067   7.372 -0.5336  0.1928  0.4890
  103MOL0     O13778   1.108   6.118   7.421  0.6328 -0.3790 -0.1137
  103MOL0     C13779   1.163   6.032   7.525 -0.5075  0.6653  0.3319
  103MOL0     C13780   1.309   6.059   7.543  0.1594  0.0699  0.7491
  103MOL0     C13781   1.357   6.207   7.568  0.0884  0.7535 -0.1215
  103MOL0     C13782   1.285   6.268   7.694 -0.5134  0.1889 -0.6458
  103MOL0     C13783   1.376   6.369   7.759 -0.3685 -0.4067  0.1154
  103MOL0     C13784   1.331   6.408   7.896  0.1419 -0.4687 -0.3715
  103MOL0     C13785   1.410   6.520   7.954  0.3209 -0.2619 -0.2327
  103MOL0     C13786   1.384   6.528   8.100 -0.1851 -1.1895  0.1897
  103MOL0     N13787   1.449   6.649   8.160 -0.6524 -0.1281  0.5485
  103MOL0     C13788   1.589   6.669   8.164 -0.5020 -0.0066 -0.6088
  103MOL0     C13789   1.602   6.787   8.234 -0.4018 -0.4923 -0.1904
  103MOL0     C13790   1.726   6.874   8.267  0.9436  0.2457  0.1585
  103MOL0     C13791   1.737   7.013   8.207 -0.3293 -0.3522 -1.0429
  103MOL0     C13792   1.691   7.026   8.055 -1.2416 -0.5861 -0.5914
  103MOL0     C13793   1.702   7.172   7.999 -0.0401  1.0745 -0.0191
  103MOL0     O13794   1.580   7.228   8.047  0.0760  0.5136 -0.0867
  103MOL0     C13795   1.559   7.357   8.028  0.5477  0.5405 -0.3416
  103MOL0     C13796   1.628   7.437   7.936 -0.2500  0.3460  0.0707
  103MOL0     C13797   1.587   7.565   7.904  0.7030 -0.3819  0.0141
  103MOL0     C13798   1.683   7.636   7.819  0.3442  0.3109  0.8511
  103MOL0     C13799   1.462   7.623   7.955 -0.1964  0.5800  0.4167
  103MOL0     C13800   1.397   7.755   7.921  0.8723  0.1411  0.3178
  103MOL0     O13801   1.260   7.740   7.892 -0.4789  0.2645 -0.3022
  103MOL0     C13802   1.201   7.838   7.820  0.5838  0.5219 -0.3092
  103MOL0     C13803   1.203   7.972   7.858  0.0571  0.3454  0.6335
  103MOL0     C13804   1.129   8.058   7.774  0.1213 -1.2008  0.3049
  103MOL0     C13805   1.063   8.017   7.658 -0.2956  0.1634 -0.8250
  103MOL0     O13806   0.984   8.103   7.578 -0.3926 -0.4022  0.7429
  103MOL0     C13807   1.043   8.141   7.452  0.4168 -1.0945  0.4376
  103MOL0     C13808   0.949   8.242   7.393  0.3673  0.3628  0.7003
  103MOL0     C13809   1.016   8.327   7.284  0.6670 -0.2431  0.2047
  103MOL0     C13810   0.908   8.408   7.197  0.1885 -0.2690 -0.3632
  103MOL0     C13811   0.978   8.491   7.079 -0.8711 -0.0150  0.1369
  103MOL0     C13812   1.074   8.592   7.147 -0.6337 -0.3222 -0.4057
  103MOL0     C13813   1.110   8.697   7.048 -0.5869  0.2866 -0.8040
  103MOL0     C13814   1.213   8.790   7.109  0.6045  0.0267  0.2825
  103MOL0    Cl13815   1.355   8.698   7.151  0.2599  0.1112  0.3514
  103MOL0     C13816   1.074   7.885   7.623 -0.4704  0.6839  0.4424
  103MOL0     C13817   1.142   7.790   7.698 -0.3048  0.1695  0.0949
  103MOL0     O13818   1.456   7.861   7.922 -0.5828  0.1889 -0.7950
  103MOL0     C13819   1.392   7.529   8.024  0.2279 -0.8990 -1.1141
  103MOL0     C13820   1.436   7.407   8.073 -1.0885 -0.0613  0.4192
  103MOL0     N13821   1.474   6.828   8.268 -1.0708  0.1900  0.7976
  103MOL0     N13822   1.383   6.749   8.220  0.1382 -0.5275  0.8992
  103MOL0     C13823   0.881   6.026   7.459  0.0213  0.1614 -0.2038
  103MOL0     C13824   0.768   5.957   7.411  0.5497 -0.1816  0.1474
  103MOL0     C13825   0.439   5.772   7.192 -0.7733  0.0283  0.1648
  103MOL0     C13826   0.489   5.695   7.081  0.1288 -0.0327  1.1031
  103MOL0     C13827   0.405   5.614   7.005  0.4065 -0.2831  0.0568
  103MOL0     C13828   0.264   5.607   7.036 -0.8126 -0.4151 -0.1580
  103MOL0     O13829   0.193   5.523   6.954 -0.3599 -0.3348 -0.2179
  103MOL0     C13830   0.053   5.528   6.975  0.0515 -0.7612 -1.1720
  103MOL0     C13831  -0.000   5.445   6.859 -0.5780 -0.3981 -0.9332
  103MOL0     C13832  -0.022   5.543   6.739  0.2270 -0.4632  0.8047
  103MOL0     C13833  -0.119   5.467   6.639 -0.5567 -0.6594 -0.5225
  103MOL0     C13834  -0.072   5.327   6.600 -0.3859 -0.6273 -0.6687
  103MOL0     C13835  -0.038   5.210   6.571 -0.6134  0.3382  0.2782
  103MOL0     C13836   0.220   5.685   7.149  0.1636 -0.4886 -0.3847
  103MOL0     C13837   0.309   5.756   7.238 -0.2358  0.4360 -0.4551
  103MOL0     H13838   0.847   5.956   7.084 -2.7827  0.8152  0.0688
  103MOL0     H13839   1.058   6.081   7.182  0.4124  1.3247  1.6310
  103MOL0     H13840   1.108   6.063   7.615  0.6544 -0.8680  1.6168
  103MOL0     H13841   1.132   5.930   7.499 -1.8952  1.1272  0.0785
  103MOL0     H13842   1.336   5.991   7.625 -0.4290 -0.1532  0.7642
  103MOL0     H13843   1.369   6.013   7.464 -3.0449  0.1381 -1.9629
  103MOL0     H13844   1.464   6.195   7.588  0.2929  0.7593 -1.1563
  103MOL0     H13845   1.342   6.267   7.478 -0.0107  1.1441  0.1500
  103MOL0     H13846   1.179   6.280   7.669 -0.3239 -0.3826 -1.8092
  103MOL0     H13847   1.289   6.175   7.752 -0.4313  0.4694 -0.1939
  103MOL0     H13848   1.478   6.330   7.764 -1.1604 -2.8178 -0.9213
  103MOL0     H13849   1.374   6.457   7.694  2.0898  0.7142  1.4122
  103MOL0     H13850   1.228   6.443   7.887 -0.2780 -1.0846  1.5955
  103MOL0     H13851   1.335   6.320   7.961  1.5850 -0.3998 -0.3310
  103MOL0     H13852   1.516   6.508   7.929  0.3125 -0.9021  0.0110
  103MOL0     H13853   1.374   6.611   7.905  0.1863  2.5634  4.5095
  103MOL0     H13854   1.423   6.434   8.141  0.3081 -2.1927 -2.4337
  103MOL0     H13855   1.277   6.534   8.122  0.0716 -0.6940  1.4012
  103MOL0     H13856   1.666   6.604   8.124  0.4857 -0.4787  1.8370
  103MOL0     H13857   1.735   6.878   8.376  1.4996  0.4062  0.1129
  103MOL0     H13858   1.817   6.820   8.236  1.2831  1.7251 -1.5549
  103MOL0     H13859   1.837   7.052   8.226 -1.0171  1.3361 -0.7419
  103MOL0     H13860   1.674   7.075   8.271  1.7096 -0.4574  1.1706
  103MOL0     H13861   1.589   6.990   8.034 -0.8230 -2.1509 -0.0486
  103MOL0     H13862   1.757   6.964   7.994  1.0968  0.9593  0.2362
  103MOL0     H13863   1.710   7.171   7.890  2.0550  0.2605  0.0953
  103MOL0     H13864   1.794   7.211   8.045  2.3308 -1.6995 -2.0506
  103MOL0     H13865   1.716   7.397   7.888 -0.5284  0.1858 -0.3140
  103MOL0     H13866   1.651   7.632   7.715  2.8311 -1.8785  0.0641
  103MOL0     H13867   1.679   7.741   7.851 -2.3024  1.2201 -2.0110
  103MOL0     H13868   1.789   7.610   7.819  0.5397  0.8541  3.2155
  103MOL0     H13869   1.249   8.013   7.947 -0.7389  2.8175  0.0065
  103MOL0     H13870   1.132   8.166   7.781 -2.8508 -0.9999 -0.2255
  103MOL0     H13871   1.144   8.181   7.466  0.5293  0.3250 -3.3161
  103MOL0     H13872   1.036   8.054   7.386 -0.6004 -0.0513 -0.8745
  103MOL0     H13873   0.859   8.195   7.352  2.6791 -1.2414 -3.0299
  103MOL0     H13874   0.917   8.320   7.464 -2.1389  1.7552 -1.7565
  103MOL0     H13875   1.070   8.265   7.212 -2.5840 -1.8438 -1.0691
  103MOL0     H13876   1.081   8.401   7.331 -1.4842  1.2486  1.0157
  103MOL0     H13877   0.827   8.350   7.151 -2.0903 -0.4567  3.4151
  103MOL0     H13878   0.870   8.488   7.261  0.4253 -1.0085  0.7308
  103MOL0     H13879   0.905   8.550   7.023 -0.6179  0.3728  0.2185
  103MOL0     H13880   1.038   8.425   7.016  1.1701  2.5275 -0.7610
  103MOL0     H13881   1.019   8.636   7.230 -0.4067 -1.2668  0.2613
  103MOL0     H13882   1.159   8.532   7.180 -0.9231 -2.3499 -3.0125
  103MOL0     H13883   1.030   8.767   7.020 -1.9427 -1.9033 -2.7270
  103MOL0     H13884   1.145   8.644   6.959  2.1698  0.1449  0.3000
  103MOL0     H13885   1.176   8.855   7.189 -0.3468 -2.2291  1.7554
  103MOL0     H13886   1.245   8.851   7.024 -0.6135 -1.3346 -1.2119
  103MOL0     H13887   1.033   7.847   7.530  2.6855  2.8929 -2.1063
  103MOL0     H13888   1.156   7.688   7.663  1.0524  0.1043  0.7311
  103MOL0     H13889   1.290   7.550   8.055  1.3577  4.1221 -0.0290
  103MOL0     H13890   1.380   7.343   8.142 -0.1694 -0.8546  0.4610
  103MOL0     H13891   0.881   6.038   7.567 -3.6373 -1.0582  0.0762
  103MOL0     H13892   0.699   5.911   7.481 -0.2414 -1.2248 -1.2580
  103MOL0     H13893   0.593   5.693   7.050  0.7701  1.1767  2.9707
  103MOL0     H13894   0.441   5.553   6.922 -1.0557  0.8158 -1.4606
  103MOL0     H13895   0.026   5.487   7.073  2.6296  0.6843  0.2317
  103MOL0     H13896   0.004   5.625   6.980  2.0778  0.3315 -1.5404
  103MOL0     H13897  -0.102   5.407   6.871 -0.0824 -1.1180  1.5563
  103MOL0     H13898   0.066   5.362   6.832 -3.4947 -2.6782 -1.6726
  103MOL0     H13899   0.075   5.573   6.697  0.9818 -3.6663 -0.0565
  103MOL0     H13900  -0.072   5.633   6.775 -0.1771 -1.2576  2.2731
  103MOL0     H13901  -0.135   5.534   6.554  0.3806  1.4708  0.9117
  103MOL0     H13902  -0.214   5.441   6.687 -0.4157 -3.3321 -1.5131
  103MOL0     H13903  -0.013   5.114   6.530 -0.1702 -0.0936  1.5296
  103MOL0     H13904   0.121   5.667   7.192  0.9729 -0.1327  1.7464
  103MOL0     H13905   0.264   5.800   7.327 -2.3677 -0.6066 -0.9431
  104MOL0     O13906   1.787   4.396  11.002 -0.7113  0.6334  0.1662
  104MOL0     C13907   1.860   4.366  10.911  1.0449 -0.1172 -0.5932
  104MOL0     O13908   1.813   4.335  10.782 -0.0294 -0.7404 -0.4631
  104MOL0     C13909   1.681   4.362  10.749  0.5850  0.0858 -0.1752
  104MOL0     C13910   1.591   4.259  10.745  0.1028 -0.2291  0.2529
  104MOL0     C13911   1.455   4.270  10.707  0.6233 -0.1126 -0.3447
  104MOL0     C13912   1.407   4.399  10.665  0.7813  0.4439 -0.6685
  104MOL0     O13913   1.277   4.424  10.643 -0.1016 -0.6633 -0.7847
  104MOL0     C13914   1.183   4.331  10.692 -0.8929  0.1613 -0.0522
  104MOL0     C13915   1.048   4.391  10.659 -0.5816  0.4393 -0.2754
  104MOL0     C13916   1.011   4.521  10.729 -0.2423 -0.7921 -0.4814
  104MOL0     C13917   0.961   4.491  10.871 -0.1176 -0.1173 -0.6062
  104MOL0     C13918   0.948   4.610  10.954 -0.0825  0.0757 -0.1460
  104MOL0     C13919   0.827   4.688  10.911  0.0943  0.6042  0.9675
  104MOL0     C13920   0.806   4.812  10.995  0.2784 -0.4450  0.0332
  104MOL0     C13921   0.717   4.807  11.125 -0.1456 -1.1351 -0.6863
  104MOL0     N13922   0.581   4.776  11.099 -0.1526 -0.1903 -0.9483
  104MOL0     C13923   0.480   4.861  11.063  0.4192  0.3081 -0.3161
  104MOL0     C13924   0.383   4.783  11.009  0.0955  0.3722  0.2410
  104MOL0     C13925   0.258   4.829  10.938  0.3365 -0.8702 -0.9919
  104MOL0     C13926   0.145   4.875  11.032  0.7095  0.7886  0.2527
  104MOL0     C13927   0.099   4.756  11.112 -0.9831 -0.0732  0.8911
  104MOL0     C13928  -0.060   4.755  11.142 -0.0449  0.8676 -0.5849
  104MOL0     O13929  -0.101   4.870  11.224 -0.0219 -0.2909  0.5655
  104MOL0     C13930  -0.233   4.872  11.265  0.1501 -0.1059  0.8968
  104MOL0     C13931  -0.344   4.807  11.211  0.4126  0.7203 -0.3351
  104MOL0     C13932  -0.471   4.812  11.275  1.0837  0.1720  0.3706
  104MOL0     C13933  -0.586   4.734  11.215  0.9600  0.0480  0.1552
  104MOL0     C13934  -0.484   4.876  11.402  1.0960  0.0132 -0.3208
  104MOL0     C13935  -0.610   4.880  11.488  0.7415  0.0044 -0.2826
  104MOL0     O13936  -0.729   4.842  11.438  0.3174 -0.5625  0.6648
  104MOL0     C13937  -0.839   4.799  11.505 -0.4555 -0.7623 -0.2640
  104MOL0     C13938  -0.834   4.730  11.629  0.3181 -0.0959  0.3856
  104MOL0     C13939  -0.947   4.666  11.684 -0.8346  0.0576 -0.9330
  104MOL0     C13940  -1.065   4.687  11.620  0.6719 -0.9181 -0.4387
  104MOL0     O13941  -1.176   4.629  11.690  0.0379 -0.1330  0.3303
  104MOL0     C13942  -1.272   4.577  11.597 -0.2836 -0.0035  0.6081
  104MOL0     C13943  -1.372   4.496  11.675  0.6269  0.2750 -0.6470
  104MOL0     C13944  -1.491   4.454  11.593 -0.7000 -1.0005  0.5305
  104MOL0     C13945  -1.598   4.378  11.667 -0.6030 -0.2752  0.2699
  104MOL0     C13946  -1.696   4.299  11.581  0.4288 -0.3724 -0.0033
  104MOL0     C13947  -1.776   4.213  11.682  1.2327  0.3020 -0.5987
  104MOL0     C13948  -1.896   4.144  11.619  0.6558  0.6392  0.5804
  104MOL0     C13949  -1.863   4.034  11.527  0.5109  0.1250 -0.1872
  104MOL0    Cl13950  -2.009   3.943  11.468  0.3021  0.7746  0.0754
  104MOL0     C13951  -1.071   4.753  11.500 -0.0844  0.5794  0.5877
  104MOL0     C13952  -0.958   4.802  11.445  0.5013  0.2498 -0.1004
  104MOL0     O13953  -0.601   4.936  11.596  0.0115  0.4000 -0.2078
  104MOL0     C13954  -0.371   4.943  11.448 -0.6559 -0.6735  0.6369
  104MOL0     C13955  -0.243   4.937  11.386  0.2347 -0.1060 -0.3013
  104MOL0     N13956   0.421   4.652  11.011  0.3566 -0.1125 -0.0448
  104MOL0     N13957   0.540   4.647  11.068  0.3260  0.6116 -0.1884
  104MOL0     C13958   1.494   4.506  10.684 -0.1931 -0.4253 -0.7138
  104MOL0     C13959   1.630   4.489  10.721 -0.0142 -0.2141 -0.6212
  104MOL0     C13960   2.003   4.355  10.936 -0.3603  0.0027  0.2656
  104MOL0     C13961   2.058   4.382  11.062  0.0608 -0.1796  0.2951
  104MOL0     C13962   2.199   4.382  11.072  0.2979 -0.7623  0.1622
  104MOL0     C13963   2.285   4.357  10.967 -0.0803  0.0957 -0.1183
  104MOL0     O13964   2.420   4.351  10.990  0.4802  0.4668  0.8909
  104MOL0     C13965   2.515   4.355  10.882 -1.2739 -0.0885  0.9525
  104MOL0     C13966   2.657   4.375  10.935  0.6264 -1.2485  0.1179
  104MOL0     C13967   2.754   4.402  10.828 -0.6701  1.3359  0.5165
  104MOL0     C13968   2.891   4.407  10.889  0.1037  0.5294  0.6661
  104MOL0     C13969   2.926   4.544  10.931 -0.6339  0.1227 -0.7771
  104MOL0     C13970   2.965   4.654  10.969  0.2402 -0.5898 -0.7486
  104MOL0     C13971   2.226   4.324  10.840  0.0391  0.1022  0.3065
  104MOL0     C13972   2.089   4.314  10.826  0.5817  0.7081 -0.6849
  104MOL0     H13973   1.621   4.158  10.770  1.0834  0.2414  1.0211
  104MOL0     H13974   1.386   4.186  10.711  0.5971 -0.0499  1.1075
  104MOL0     H13975   1.193   4.233  10.644  1.2235 -0.4044  1.3906
  104MOL0     H13976   1.192   4.318  10.800  1.4170 -0.8241 -0.2965
  104MOL0     H13977   1.037   4.418  10.553 -3.3535  4.7819  0.8619
  104MOL0     H13978   0.975   4.309  10.668  1.4086 -1.4711 -0.6079
  104MOL0     H13979   1.092   4.594  10.736 -0.0043 -1.0621 -0.4049
  104MOL0     H13980   0.937   4.578  10.672  0.4400  3.6991  2.5940
  104MOL0     H13981   0.867   4.435  10.865 -2.6902  3.1559  3.3737
  104MOL0     H13982   1.030   4.427  10.925  0.4936  1.5102  0.6385
  104MOL0     H13983   0.938   4.580  11.058  0.2213 -5.1838 -1.3532
  104MOL0     H13984   1.036   4.675  10.953  0.9712 -1.2563  1.6113
  104MOL0     H13985   0.842   4.734  10.813 -1.7848  0.0122  0.3637
  104MOL0     H13986   0.741   4.622  10.899  2.2487 -1.9198 -2.8455
  104MOL0     H13987   0.902   4.852  11.027  1.6505 -3.9839  0.8105
  104MOL0     H13988   0.754   4.890  10.939  1.8545  0.4502 -0.2350
  104MOL0     H13989   0.728   4.907  11.168  0.4512 -1.2180 -0.6343
  104MOL0     H13990   0.761   4.736  11.196  2.2922 -1.0667 -2.0241
  104MOL0     H13991   0.481   4.968  11.077 -0.2232  0.2091  0.6064
  104MOL0     H13992   0.276   4.911  10.869 -2.3933  0.6983  0.0182
  104MOL0     H13993   0.228   4.746  10.873 -1.0148 -0.9849 -0.2531
  104MOL0     H13994   0.067   4.914  10.966 -0.0943  4.6167  3.0803
  104MOL0     H13995   0.185   4.947  11.104  0.7967  0.3908  0.6021
  104MOL0     H13996   0.158   4.744  11.203 -2.0633 -1.6316  1.4159
  104MOL0     H13997   0.121   4.667  11.053 -0.1699  0.4854  0.3247
  104MOL0     H13998  -0.084   4.667  11.202 -3.3352  2.0712  0.0625
  104MOL0     H13999  -0.114   4.749  11.047  1.7410 -2.8655 -1.5714
  104MOL0     H14000  -0.323   4.744  11.125  1.8299  0.9079 -0.1539
  104MOL0     H14001  -0.565   4.679  11.123  0.0849  0.8145 -0.5252
  104MOL0     H14002  -0.626   4.658  11.282  2.6365 -1.2228 -0.2107
  104MOL0     H14003  -0.663   4.804  11.182  0.1250 -1.6117 -1.5407
  104MOL0     H14004  -0.746   4.708  11.689 -1.0039 -2.2613  1.7105
  104MOL0     H14005  -0.931   4.619  11.780  0.7168 -0.2460 -1.3110
  104MOL0     H14006  -1.325   4.655  11.542 -0.4007 -1.3744 -1.2992
  104MOL0     H14007  -1.217   4.515  11.526 -1.4046 -1.0818  0.6517
  104MOL0     H14008  -1.317   4.410  11.713  2.7078  0.9623 -1.9095
  104MOL0     H14009  -1.418   4.560  11.751  2.9453  0.2786  0.8259
  104MOL0     H14010  -1.466   4.390  11.508  3.2336  1.1368 -0.1431
  104MOL0     H14011  -1.533   4.548  11.557  0.4757 -0.8816 -0.5671
  104MOL0     H14012  -1.538   4.307  11.725 -0.9192 -0.3553  0.5053
  104MOL0     H14013  -1.657   4.440  11.736  0.5968 -1.0406  2.0691
  104MOL0     H14014  -1.651   4.219  11.521 -0.9788 -1.9547  0.9514
  104MOL0     H14015  -1.751   4.372  11.521  1.3146  1.8664  1.7398
  104MOL0     H14016  -1.705   4.143  11.727  0.2029 -0.8267 -0.6727
  104MOL0     H14017  -1.806   4.280  11.763 -0.6212 -1.4786  0.2827
  104MOL0     H14018  -1.963   4.212  11.567 -0.6392 -2.5224 -2.2806
  104MOL0     H14019  -1.952   4.109  11.707 -0.9874  1.4900 -0.0817
  104MOL0     H14020  -1.801   3.965  11.585  1.4772 -2.0664 -3.5484
  104MOL0     H14021  -1.795   4.065  11.447 -0.0038 -0.7800 -1.0109
  104MOL0     H14022  -1.160   4.796  11.456  0.6287  2.3491  0.7911
  104MOL0     H14023  -0.956   4.849  11.347 -0.7222  0.7564  0.1144
  104MOL0     H14024  -0.391   5.009  11.532  0.0353 -1.8329  1.7488
  104MOL0     H14025  -0.159   4.990  11.429  0.6492 -0.0815 -1.1154
  104MOL0     H14026   1.453   4.605  10.673 -0.3362 -0.1270  2.0153
  104MOL0     H14027   1.690   4.579  10.712 -0.6481  0.3475  0.5266
  104MOL0     H14028   2.001   4.406  11.151  0.8469  1.5900  0.3740
  104MOL0     H14029   2.238   4.403  11.172 -0.3958 -2.7527  0.9032
  104MOL0     H14030   2.510   4.272  10.811  3.2757 -0.2576  0.5862
  104MOL0     H14031   2.485   4.439  10.818  2.1632 -0.8287 -1.9068
  104MOL0     H14032   2.690   4.295  11.003 -3.3275 -0.4931  3.2734
  104MOL0     H14033   2.658   4.469  10.992  0.9477  0.5204 -2.6351
  104MOL0     H14034   2.736   4.498  10.780  2.7360  0.9648 -1.8047
  104MOL0     H14035   2.740   4.322  10.755  4.9114  0.7092 -0.2487
  104MOL0     H14036   2.959   4.374  10.810 -1.8005 -1.1592 -0.3420
  104MOL0     H14037   2.908   4.341  10.975  1.3539  0.1669  0.1614
  104MOL0     H14038   3.011   4.745  11.002  1.5188 -1.5894  0.3296
  104MOL0     H14039   2.300   4.295  10.766 -1.8698 -2.3642 -0.7870
  104MOL0     H14040   2.043   4.277  10.735  0.2384 -2.2694  0.5793
  105MOL0     O14041   6.350   0.862   7.195 -0.5220 -0.0133  1.0594
  105MOL0     C14042   6.370   0.768   7.124 -0.2141 -0.0703  0.0278
  105MOL0     O14043   6.281   0.729   7.027 -0.3380  0.4011  0.1157
  105MOL0     C14044   6.166   0.794   7.022 -1.3399 -0.7535  0.8299
  105MOL0     C14045   6.058   0.707   7.015  0.1986 -0.6964 -0.2042
  105MOL0     C14046   5.929   0.749   6.989 -0.4182  0.2220  0.4310
  105MOL0     C14047   5.905   0.886   6.965 -0.9786  0.5228  0.4291
  105MOL0     O14048   5.774   0.901   6.948  0.3769 -0.5589 -0.8691
  105MOL0     C14049   5.723   1.036   6.935  0.5068  0.3678  0.1677
  105MOL0     C14050   5.577   1.010   6.941 -0.1230 -0.2835 -0.1036
  105MOL0     C14051   5.495   0.999   7.074 -0.2272  0.0811 -0.1510
  105MOL0     C14052   5.564   0.905   7.170 -0.3593  0.4166  0.2128
  105MOL0     C14053   5.482   0.886   7.293  0.3126 -0.1174 -0.8408
  105MOL0     C14054   5.483   1.005   7.400 -0.2120  0.0197 -0.2641
  105MOL0     C14055   5.349   1.018   7.456 -0.5388 -0.1132  0.1247
  105MOL0     C14056   5.354   1.123   7.560 -0.5541 -0.2658 -0.4046
  105MOL0     N14057   5.231   1.151   7.635  0.5469 -0.3752 -0.1611
  105MOL0     C14058   5.121   1.218   7.583 -0.1209 -1.0560 -0.7270
  105MOL0     C14059   5.024   1.195   7.681  0.2161  0.5010  0.5990
  105MOL0     C14060   4.879   1.239   7.688  0.6969  0.0395  0.3330
  105MOL0     C14061   4.878   1.362   7.763  0.3244  0.0923 -0.1252
  105MOL0     C14062   4.756   1.454   7.737  0.2661 -0.0928 -0.8865
  105MOL0     C14063   4.619   1.381   7.756 -0.7341  0.3903 -0.6143
  105MOL0     O14064   4.616   1.311   7.887  0.7713  0.2573  0.1009
  105MOL0     C14065   4.543   1.371   7.989 -0.1700 -0.2761 -0.2864
  105MOL0     C14066   4.624   1.441   8.080 -1.5061 -0.3489 -1.0092
  105MOL0     C14067   4.577   1.520   8.188 -0.2117  0.3753 -0.0484
  105MOL0     C14068   4.684   1.592   8.264  0.1656 -0.5788  0.5081
  105MOL0     C14069   4.437   1.522   8.209 -0.6232  0.5704 -0.6189
  105MOL0     C14070   4.359   1.598   8.306  0.3580 -0.0053 -0.4732
  105MOL0     O14071   4.238   1.542   8.359  0.5199 -0.4832  0.2983
  105MOL0     C14072   4.148   1.601   8.443  0.2231  0.5951  0.0405
  105MOL0     C14073   4.016   1.572   8.411 -0.2090 -0.1019 -0.0582
  105MOL0     C14074   3.912   1.637   8.465  0.6243 -0.4786 -0.1245
  105MOL0     C14075   3.937   1.719   8.574 -1.0626 -0.2181 -0.2970
  105MOL0     O14076   3.831   1.783   8.631 -0.2296 -0.1007  0.3609
  105MOL0     C14077   3.844   1.850   8.753  0.3339 -0.5638 -0.3172
  105MOL0     C14078   3.704   1.906   8.782  0.4519 -0.2911 -0.1209
  105MOL0     C14079   3.590   1.805   8.786 -0.5144  0.0840 -0.5389
  105MOL0     C14080   3.450   1.852   8.762  0.1435 -0.6317 -0.1488
  105MOL0     C14081   3.407   1.958   8.868  1.1800 -0.7241 -0.1216
  105MOL0     C14082   3.248   1.966   8.877  0.0982  0.0145  0.6231
  105MOL0     C14083   3.217   2.063   8.992 -0.2667 -0.0982  0.2396
  105MOL0     C14084   3.065   2.093   9.005 -0.2275 -0.2203  0.3222
  105MOL0    Cl14085   2.960   1.946   9.035  0.3963  0.2736 -0.1012
  105MOL0     C14086   4.068   1.764   8.603  0.2151  0.2218 -0.1688
  105MOL0     C14087   4.178   1.695   8.544 -0.0661  0.4035 -0.1996
  105MOL0     O14088   4.401   1.712   8.330 -0.4099 -0.3648 -0.0822
  105MOL0     C14089   4.346   1.447   8.119 -0.2070 -0.7555  0.4479
  105MOL0     C14090   4.405   1.382   8.007  0.4451 -0.0190  0.8273
  105MOL0     N14091   5.080   1.121   7.785  0.4111 -0.3081  0.6324
  105MOL0     N14092   5.204   1.100   7.757  1.0098  0.3485  0.1279
  105MOL0     C14093   6.014   0.981   6.973  0.0042  0.7336 -0.8605
  105MOL0     C14094   6.144   0.931   6.993 -0.1547 -0.0034  0.2024
  105MOL0     C14095   6.485   0.684   7.137 -0.1072  0.1385  0.0833
  105MOL0     C14096   6.521   0.595   7.034 -0.0789 -0.1910  0.2364
  105MOL0     C14097   6.642   0.522   7.042 -0.5380 -0.2404 -0.5382
  105MOL0     C14098   6.732   0.544   7.160  0.8327  0.7880 -0.2546
  105MOL0     O14099   6.855   0.481   7.174  0.1396  0.0618 -0.5441
  105MOL0     C14100   6.900   0.382   7.081 -0.1761 -0.5137 -0.2381
  105MOL0     C14101   7.051   0.366   7.087 -0.2885  0.2599 -0.4035
  105MOL0     C14102   7.134   0.494   7.068 -0.5363  0.7457  0.6155
  105MOL0     C14103   7.284   0.460   7.112  0.0142  0.1589  0.8823
  105MOL0     C14104   7.355   0.572   7.175  0.9602  0.5397 -0.6834
  105MOL0     C14105   7.419   0.665   7.223  0.1166 -0.3930 -0.1622
  105MOL0     C14106   6.684   0.621   7.264  0.0148 -0.2666 -0.3134
  105MOL0     C14107   6.571   0.699   7.251 -0.2019 -0.7367  0.1980
  105MOL0     H14108   6.071   0.600   7.022 -0.6944 -0.8198 -0.2695
  105MOL0     H14109   5.850   0.675   6.990 -0.4981  0.2729 -0.7779
  105MOL0     H14110   5.744   1.101   7.021 -2.6269 -0.0494  1.3493
  105MOL0     H14111   5.746   1.081   6.838  0.1667  3.0406  1.2200
  105MOL0     H14112   5.528   1.094   6.890  2.4900  0.9029 -0.8273
  105MOL0     H14113   5.557   0.923   6.877 -0.3741 -1.0413  0.9712
  105MOL0     H14114   5.485   1.093   7.129 -1.9920 -1.3467  2.1915
  105MOL0     H14115   5.396   0.956   7.054  1.1961 -3.4596 -0.3424
  105MOL0     H14116   5.578   0.814   7.110  2.7215  1.1598 -0.3898
  105MOL0     H14117   5.662   0.947   7.196 -0.0734  0.1777 -0.4455
  105MOL0     H14118   5.381   0.856   7.266  0.3189 -0.4734 -0.4719
  105MOL0     H14119   5.520   0.798   7.346  1.1471  0.0996 -1.0515
  105MOL0     H14120   5.552   0.969   7.477 -1.6578 -0.2873  0.9359
  105MOL0     H14121   5.513   1.103   7.363  0.2362 -0.6644 -1.7810
  105MOL0     H14122   5.278   1.039   7.375 -1.1794 -0.7680  0.5022
  105MOL0     H14123   5.321   0.923   7.501  2.2250 -1.7818 -1.3815
  105MOL0     H14124   5.393   1.215   7.516 -0.9956  0.2661  0.2928
  105MOL0     H14125   5.434   1.110   7.634  0.1822  0.9432 -0.9539
  105MOL0     H14126   5.096   1.260   7.487  3.4363 -0.9338 -1.7129
  105MOL0     H14127   4.851   1.248   7.583  0.9514  0.2653  0.2823
  105MOL0     H14128   4.815   1.166   7.738  0.1362 -0.2889 -0.8319
  105MOL0     H14129   4.965   1.423   7.734 -0.2780  0.3141 -1.5356
  105MOL0     H14130   4.883   1.342   7.871  4.6028  1.0211  0.0589
  105MOL0     H14131   4.765   1.497   7.637  3.6965  0.1890 -0.5990
  105MOL0     H14132   4.764   1.547   7.795 -0.6505 -0.4157 -0.2150
  105MOL0     H14133   4.610   1.302   7.681  2.7176  0.5120 -1.3065
  105MOL0     H14134   4.546   1.461   7.738 -0.5210  1.8762  3.9240
  105MOL0     H14135   4.731   1.424   8.078 -1.2737  0.5690  1.0326
  105MOL0     H14136   4.656   1.662   8.343  2.1648 -1.3268  1.9457
  105MOL0     H14137   4.745   1.514   8.309  0.7116 -1.7851 -2.1322
  105MOL0     H14138   4.743   1.647   8.190  0.7654  0.6450  1.8687
  105MOL0     H14139   3.994   1.502   8.331  0.9254 -1.0786  0.4574
  105MOL0     H14140   3.808   1.633   8.432  1.4797 -1.0921 -3.0843
  105MOL0     H14141   3.883   1.782   8.829 -1.1827  0.5664  1.5739
  105MOL0     H14142   3.918   1.931   8.754 -0.0932 -0.1685  0.5367
  105MOL0     H14143   3.711   1.953   8.881  3.5128 -0.2676 -0.2550
  105MOL0     H14144   3.684   1.979   8.703 -2.9131 -0.2416  0.6383
  105MOL0     H14145   3.606   1.761   8.885  0.0136  0.6469 -0.3605
  105MOL0     H14146   3.601   1.734   8.704  1.3036 -2.0443  1.4103
  105MOL0     H14147   3.435   1.907   8.668 -0.7137  2.6353  1.7625
  105MOL0     H14148   3.383   1.767   8.755 -1.1489  0.4601 -4.0350
  105MOL0     H14149   3.450   2.057   8.851  1.2539 -0.6060  0.6868
  105MOL0     H14150   3.439   1.929   8.969 -0.1253 -0.4298  0.3907
  105MOL0     H14151   3.189   2.002   8.792  0.0148 -2.8563 -0.6785
  105MOL0     H14152   3.215   1.863   8.895  2.4300 -0.9175 -0.0251
  105MOL0     H14153   3.273   2.154   8.967  0.8018 -1.1551 -1.3013
  105MOL0     H14154   3.239   2.019   9.089  0.8362 -1.5644 -0.6506
  105MOL0     H14155   3.023   2.140   8.915 -0.7544  0.3180  0.8422
  105MOL0     H14156   3.050   2.161   9.089 -0.2103 -2.5974  2.3418
  105MOL0     H14157   4.097   1.836   8.678  1.7153 -0.1891 -0.3283
  105MOL0     H14158   4.280   1.717   8.573 -0.4164 -0.9438  2.4409
  105MOL0     H14159   4.239   1.465   8.114 -0.5179 -2.3044  0.8465
  105MOL0     H14160   4.332   1.346   7.936  1.1992  0.2114 -0.0949
  105MOL0     H14161   6.002   1.085   6.944 -2.5719  0.6628 -0.2189
  105MOL0     H14162   6.228   0.998   7.008  1.1716 -1.1643 -1.6477
  105MOL0     H14163   6.463   0.570   6.945  0.5502 -1.5620  0.1784
  105MOL0     H14164   6.677   0.463   6.958 -0.2207 -3.1033  1.4602
  105MOL0     H14165   6.849   0.287   7.096 -0.0443 -0.6854 -0.8334
  105MOL0     H14166   6.886   0.419   6.979 -1.2811  0.3312  0.2002
  105MOL0     H14167   7.088   0.291   7.017  0.4578 -1.6230  1.8750
  105MOL0     H14168   7.073   0.323   7.185  4.4924 -1.4871 -1.9504
  105MOL0     H14169   7.099   0.561   7.147  1.0493 -0.2671  2.2477
  105MOL0     H14170   7.139   0.542   6.970  1.5997  0.4910  0.5401
  105MOL0     H14171   7.348   0.445   7.024 -0.1858 -0.1676  0.7863
  105MOL0     H14172   7.293   0.379   7.185  3.4141 -0.1918  0.2339
  105MOL0     H14173   7.477   0.750   7.253 -2.1783  1.7636 -1.5016
  105MOL0     H14174   6.743   0.636   7.354  0.1386 -0.4096 -0.3709
  105MOL0     H14175   6.539   0.759   7.336 -0.1179 -0.8779  0.3288
  106MOL0     O14176   5.242  11.140   0.206  0.5823 -0.1195 -0.3846
  106MOL0     C14177   5.215  11.235   0.283 -0.6733 -0.5209  0.0847
  106MOL0     O14178   5.264  11.252   0.415 -0.0119  0.8063  0.2300
  106MOL0     C14179   5.333  11.147   0.469 -0.6212 -0.3851  0.0886
  106MOL0     C14180   5.462  11.120   0.422 -0.3687 -0.5248  0.1599
  106MOL0     C14181   5.539  11.014   0.480 -0.2795 -0.8512  0.0997
  106MOL0     C14182   5.484  10.936   0.583  0.2249 -0.0566 -0.1946
  106MOL0     O14183   5.547  10.824   0.631 -0.2373 -0.4320  0.3613
  106MOL0     C14184   5.476  10.714   0.583  0.5308  0.4960 -0.2977
  106MOL0     C14185   5.573  10.585   0.601 -0.4075  0.7289 -0.0814
  106MOL0     C14186   5.600  10.537   0.744  0.0149 -0.0970  0.2769
  106MOL0     C14187   5.480  10.555   0.830  0.2515 -0.5834  0.2543
  106MOL0     C14188   5.488  10.480   0.964 -0.1781 -0.0468 -0.0435
  106MOL0     C14189   5.504  10.328   0.950  0.5088  0.4155 -0.3440
  106MOL0     C14190   5.424  10.245   0.855  0.2646  0.0419  0.4771
  106MOL0     C14191   5.276  10.231   0.895 -0.4862 -0.0990  0.4356
  106MOL0     N14192   5.200  10.348   0.869 -0.1453  0.1682 -0.3896
  106MOL0     C14193   5.180  10.409   0.747  0.1277 -0.1968  0.4955
  106MOL0     C14194   5.119  10.520   0.781  0.3332 -0.5047  0.0650
  106MOL0     C14195   5.081  10.637   0.690 -0.8950 -0.1569 -0.0335
  106MOL0     C14196   4.981  10.730   0.745 -0.1391 -0.1976 -1.0590
  106MOL0     C14197   5.058  10.828   0.841  0.1173 -1.5771  0.5808
  106MOL0     C14198   4.957  10.939   0.853 -0.3494 -0.6244 -0.1597
  106MOL0     O14199   4.941  11.033   0.743  0.6276 -0.0154 -0.7761
  106MOL0     C14200   4.851  11.134   0.754  0.5607  0.5037 -0.5044
  106MOL0     C14201   4.837  11.215   0.642 -0.2907  1.5605 -0.3477
  106MOL0     C14202   4.745  11.314   0.640 -0.2812 -0.4935 -0.4585
  106MOL0     C14203   4.737  11.401   0.523 -0.0537 -0.1044 -0.9475
  106MOL0     C14204   4.663  11.339   0.756  0.0763 -0.9620 -0.4061
  106MOL0     C14205   4.555  11.444   0.764  1.0479 -1.1753  0.3712
  106MOL0     O14206   4.442  11.417   0.841 -0.1144 -0.0331  0.3568
  106MOL0     C14207   4.361  11.523   0.873 -0.0071 -0.1269 -0.6087
  106MOL0     C14208   4.387  11.602   0.987 -0.3261 -1.3626 -0.0492
  106MOL0     C14209   4.297  11.706   1.017 -1.0275 -0.6834  0.1738
  106MOL0     C14210   4.178  11.733   0.941 -0.8951  0.3348 -0.2543
  106MOL0     O14211   4.097  11.833   0.944  0.7940  0.1397 -0.3484
  106MOL0     C14212   4.104  11.927   1.049 -0.0104 -0.0781  0.5322
  106MOL0     C14213   4.001  12.022   1.019  0.0905 -0.1213  0.5038
  106MOL0     C14214   3.862  11.958   1.030  0.2162  0.6376  0.2932
  106MOL0     C14215   3.768  12.078   1.001 -0.4257  0.7550  0.3019
  106MOL0     C14216   3.626  12.022   0.985  0.1607  0.0044 -0.8712
  106MOL0     C14217   3.526  12.136   0.956  0.5174 -0.3556  0.4389
  106MOL0     C14218   3.389  12.068   0.920 -0.1360 -0.6818  0.9595
  106MOL0     C14219   3.285  12.170   0.867 -0.0963  0.4918  0.0284
  106MOL0    Cl14220   3.300  12.321   0.961  0.5474  0.1224 -0.2794
  106MOL0     C14221   4.161  11.652   0.829  0.6695  0.5076  0.5160
  106MOL0     C14222   4.248  11.548   0.795  0.0682  0.3933 -0.2800
  106MOL0     O14223   4.582  11.557   0.709  0.3826  0.0889 -0.0162
  106MOL0     C14224   4.670  11.251   0.862 -0.0075 -0.2976 -1.9878
  106MOL0     C14225   4.766  11.152   0.867  0.1782 -0.8469 -0.7590
  106MOL0     N14226   5.113  10.535   0.915 -0.3240  0.8345 -0.0291
  106MOL0     N14227   5.143  10.419   0.971  0.6105  0.0209 -0.4955
  106MOL0     C14228   5.361  10.979   0.625 -0.1749  0.7424 -0.0391
  106MOL0     C14229   5.282  11.087   0.574 -0.0358  0.0507 -0.0548
  106MOL0     C14230   5.116  11.334   0.241 -0.0063  0.2145 -0.2962
  106MOL0     C14231   5.075  11.344   0.106  0.7581 -0.3129 -0.2000
  106MOL0     C14232   4.983  11.439   0.065  1.4886 -0.5590  0.9656
  106MOL0     C14233   4.913  11.526   0.156 -0.3591  0.1263 -0.8751
  106MOL0     O14234   4.814  11.618   0.118 -0.4407  0.3361  0.0473
  106MOL0     C14235   4.825  11.749   0.175 -0.1327  0.7316 -0.3870
  106MOL0     C14236   4.743  11.846   0.077  0.1707  0.8016  0.5865
  106MOL0     C14237   4.591  11.798   0.068 -0.2456  0.3238 -0.2524
  106MOL0     C14238   4.525  11.867  -0.054  0.1007 -0.0830 -0.1433
  106MOL0     C14239   4.527  12.013  -0.034 -0.5405 -0.0231 -0.7782
  106MOL0     C14240   4.538  12.130  -0.018 -0.6583  0.2523 -0.2941
  106MOL0     C14241   4.962  11.519   0.287 -0.3717  0.0869 -0.9768
  106MOL0     C14242   5.063  11.426   0.331  0.4328 -0.5341 -0.4163
  106MOL0     H14243   5.493  11.189   0.344 -5.6447  1.6338 -0.4484
  106MOL0     H14244   5.639  11.001   0.440 -0.1080 -2.9686  1.0673
  106MOL0     H14245   5.381  10.698   0.634  1.1795  0.4818  0.9424
  106MOL0     H14246   5.457  10.717   0.476  1.0333 -0.7586 -0.4375
  106MOL0     H14247   5.525  10.506   0.542  0.6851  0.2777 -0.3840
  106MOL0     H14248   5.667  10.607   0.551  0.4066  1.8338  1.8253
  106MOL0     H14249   5.637  10.434   0.746  2.7170  0.8077  1.4863
  106MOL0     H14250   5.677  10.609   0.774 -1.3459  2.6039 -2.2775
  106MOL0     H14251   5.464  10.660   0.858  2.5832  0.1112 -0.7476
  106MOL0     H14252   5.387  10.530   0.779 -0.8559  1.8251  0.9144
  106MOL0     H14253   5.572  10.515   1.025  0.4464  0.8691 -1.3715
  106MOL0     H14254   5.400  10.504   1.023 -0.0605 -3.0585  1.5312
  106MOL0     H14255   5.609  10.308   0.924  0.1256 -1.9268 -0.3731
  106MOL0     H14256   5.494  10.276   1.046  0.5705  2.5880  0.8941
  106MOL0     H14257   5.436  10.287   0.754  0.2860 -0.8095  0.1144
  106MOL0     H14258   5.470  10.146   0.848  2.9011  1.2413 -0.1936
  106MOL0     H14259   5.270  10.199   1.000 -3.8091 -1.7716 -0.1151
  106MOL0     H14260   5.228  10.153   0.835  2.2354 -1.4023 -0.2286
  106MOL0     H14261   5.221  10.376   0.652 -1.3162 -3.0303  0.7350
  106MOL0     H14262   5.174  10.686   0.662 -0.4268 -0.0566  1.6523
  106MOL0     H14263   5.038  10.585   0.604 -1.3208  2.4830 -1.5224
  106MOL0     H14264   4.911  10.677   0.811  1.1051 -2.4974 -1.4797
  106MOL0     H14265   4.932  10.795   0.673 -1.2337  2.0734  1.5665
  106MOL0     H14266   5.145  10.872   0.792 -0.7314  0.8600  1.0998
  106MOL0     H14267   5.075  10.786   0.940  2.0724  1.0676  1.4673
  106MOL0     H14268   4.981  10.997   0.943 -1.8880  0.1519 -0.2152
  106MOL0     H14269   4.861  10.893   0.877 -0.0482 -1.4916 -0.5575
  106MOL0     H14270   4.899  11.193   0.556  1.0741  1.2313  0.6917
  106MOL0     H14271   4.791  11.495   0.539  0.0336  0.0205 -1.9246
  106MOL0     H14272   4.793  11.366   0.436  3.0232  3.5474 -0.7173
  106MOL0     H14273   4.630  11.421   0.511 -0.7990 -2.2631  1.3425
  106MOL0     H14274   4.466  11.579   1.057  0.9955 -0.3204 -1.1278
  106MOL0     H14275   4.307  11.771   1.103 -0.4426  2.5862 -2.1784
  106MOL0     H14276   4.086  11.882   1.147 -1.0487 -1.3488 -0.2062
  106MOL0     H14277   4.203  11.974   1.048 -0.0112  0.0412 -2.1352
  106MOL0     H14278   4.000  12.105   1.090  2.9353  1.9068 -1.6088
  106MOL0     H14279   4.021  12.080   0.929  0.2769  2.4899  2.1375
  106MOL0     H14280   3.833  11.910   1.124  0.6933 -2.1624 -0.8878
  106MOL0     H14281   3.852  11.878   0.956  2.6704  0.0951  0.4768
  106MOL0     H14282   3.764  12.149   1.084 -0.0461 -0.0662  1.0346
  106MOL0     H14283   3.798  12.127   0.908 -2.2697  0.7562 -0.3367
  106MOL0     H14284   3.602  11.986   1.085 -1.4997  2.4558 -0.3152
  106MOL0     H14285   3.621  11.945   0.907  1.1928 -3.4871  2.2269
  106MOL0     H14286   3.505  12.198   1.044 -0.3436 -1.5725  1.1221
  106MOL0     H14287   3.561  12.209   0.882 -0.7471  1.9352  1.9743
  106MOL0     H14288   3.346  12.038   1.016 -1.2119  1.4101  1.1977
  106MOL0     H14289   3.393  11.993   0.840 -1.8015 -0.1915  0.3782
  106MOL0     H14290   3.183  12.136   0.884 -0.4154  0.6974 -1.3369
  106MOL0     H14291   3.303  12.184   0.760 -0.5841  2.3858  0.1566
  106MOL0     H14292   4.083  11.666   0.755  2.0709  0.6254 -1.0122
  106MOL0     H14293   4.239  11.482   0.709 -0.2413 -1.0690  0.8325
  106MOL0     H14294   4.614  11.270   0.953  3.9996 -4.4859  1.9129
  106MOL0     H14295   4.791  11.098   0.957  2.0515 -0.4587 -0.9934
  106MOL0     H14296   5.320  10.927   0.711  0.7895  0.8916  0.5339
  106MOL0     H14297   5.185  11.123   0.609  0.4404  0.5246  0.8045
  106MOL0     H14298   5.095  11.271   0.028 -1.1856 -0.3227 -0.7426
  106MOL0     H14299   4.952  11.426  -0.038  2.3803 -0.6803  0.7055
  106MOL0     H14300   4.785  11.749   0.277  1.7898  0.5168  0.4086
  106MOL0     H14301   4.925  11.790   0.191  0.1257  0.5815 -1.5678
  106MOL0     H14302   4.797  11.837  -0.018 -1.3792  1.1388 -0.3740
  106MOL0     H14303   4.743  11.951   0.107 -2.7177  0.5899  1.6705
  106MOL0     H14304   4.535  11.831   0.155  0.4977 -0.3208  0.4808
  106MOL0     H14305   4.592  11.689   0.061  1.1355  0.3111 -0.1407
  106MOL0     H14306   4.420  11.838  -0.064 -0.3395  0.3215  2.5172
  106MOL0     H14307   4.577  11.836  -0.145 -3.5233 -2.6023 -1.5833
  106MOL0     H14308   4.565  12.232  -0.001  2.1639 -0.5015  0.2266
  106MOL0     H14309   4.910  11.581   0.360 -0.4431 -0.7815 -0.2683
  106MOL0     H14310   5.085  11.430   0.437  0.8872 -1.1372 -0.4796
  107MOL0     O14311  11.041   5.724   6.061 -0.7027  0.0255  1.0636
  107MOL0     C14312  10.956   5.718   6.150 -0.5544  0.2456 -0.0169
  107MOL0     O14313  10.932   5.609   6.230  0.0130 -0.1615 -0.4323
  107MOL0     C14314  10.976   5.482   6.212  0.2683 -0.4727 -0.6929
  107MOL0     C14315  10.961   5.390   6.320  0.1258 -0.5447  0.5311
  107MOL0     C14316  10.975   5.252   6.313 -0.3476  0.1395 -0.6648
  107MOL0     C14317  11.043   5.202   6.206  0.2916  0.0275 -0.3882
  107MOL0     O14318  11.093   5.075   6.199 -0.1780  0.5911 -0.1027
  107MOL0     C14319  11.136   5.002   6.319  0.5825  0.0375  0.7077
  107MOL0     C14320  11.219   4.879   6.281  0.7104  0.1668  0.1591
  107MOL0     C14321  11.272   4.794   6.394 -0.4044  0.0078  0.1221
  107MOL0     C14322  11.316   4.664   6.334  0.0694  1.0120 -0.2906
  107MOL0     C14323  11.442   4.606   6.393  0.5989  0.1473 -0.1247
  107MOL0     C14324  11.478   4.468   6.343 -0.0894 -0.8545  0.5418
  107MOL0     C14325  11.617   4.412   6.380 -0.0637 -0.2434 -0.2773
  107MOL0     C14326  11.633   4.372   6.518 -0.9903 -0.8731 -0.2820
  107MOL0     N14327  11.523   4.288   6.567 -0.1549  0.1297 -0.1710
  107MOL0     C14328  11.502   4.154   6.534 -0.9704  0.4198  0.5244
  107MOL0     C14329  11.377   4.123   6.586  0.0612 -0.8751 -0.7433
  107MOL0     C14330  11.316   3.984   6.582 -0.1881 -0.6992 -0.0454
  107MOL0     C14331  11.285   3.935   6.437 -0.0103 -0.0602 -0.3856
  107MOL0     C14332  11.183   4.021   6.355 -0.8013  0.2124  0.0146
  107MOL0     C14333  11.048   4.003   6.407  0.0017 -0.2050 -0.2741
  107MOL0     O14334  10.941   4.087   6.348 -0.0493 -0.0671 -0.3628
  107MOL0     C14335  10.931   4.221   6.394 -0.5688 -0.0155  1.2811
  107MOL0     C14336  10.842   4.303   6.316  0.2469  0.3958 -0.5299
  107MOL0     C14337  10.835   4.445   6.325  1.2136  0.6992  0.0375
  107MOL0     C14338  10.725   4.522   6.245 -0.2836 -0.8553  0.2063
  107MOL0     C14339  10.912   4.508   6.424 -0.2944  0.5008  0.4230
  107MOL0     C14340  10.909   4.651   6.452  0.4834 -0.0407  0.1660
  107MOL0     O14341  10.893   4.696   6.578 -0.7821  0.0914  0.2869
  107MOL0     C14342  10.918   4.832   6.599  0.0674 -0.1349  0.0982
  107MOL0     C14343  11.019   4.861   6.689 -0.6029  0.9994 -0.3023
  107MOL0     C14344  11.037   4.994   6.736  0.5922  0.0424  0.3896
  107MOL0     C14345  10.952   5.101   6.695 -0.2106 -0.5920 -0.1777
  107MOL0     O14346  10.966   5.231   6.748 -0.4243 -0.4262  0.1616
  107MOL0     C14347  10.849   5.311   6.748 -0.2715 -0.5745  1.2865
  107MOL0     C14348  10.849   5.411   6.863 -0.1748  0.2219  0.5499
  107MOL0     C14349  10.752   5.524   6.827 -0.7080  0.7546  0.1676
  107MOL0     C14350  10.823   5.652   6.785 -0.2480  1.0740 -1.1225
  107MOL0     C14351  10.870   5.671   6.641  0.3361 -0.7064  0.7857
  107MOL0     C14352  10.912   5.821   6.623 -0.1457  0.4272 -0.2113
  107MOL0     C14353  11.048   5.852   6.677  0.2046 -0.1099 -0.2297
  107MOL0     C14354  11.096   5.980   6.607 -0.8363  0.1700  0.2731
  107MOL0    Cl14355  11.261   5.998   6.671 -0.4215  0.1590  0.3255
  107MOL0     C14356  10.849   5.065   6.600  0.2941  0.4394  0.1758
  107MOL0     C14357  10.835   4.935   6.552  0.1521 -0.3017  0.3908
  107MOL0     O14358  10.919   4.720   6.354  0.0256  0.1139  0.5510
  107MOL0     C14359  11.008   4.430   6.503  0.3883  0.6804 -0.1264
  107MOL0     C14360  11.014   4.285   6.486 -0.4738  0.0107 -0.3541
  107MOL0     N14361  11.334   4.235   6.646  0.4171 -0.2138  0.0208
  107MOL0     N14362  11.421   4.333   6.636 -0.1902  0.3965  0.1587
  107MOL0     C14363  11.066   5.289   6.103  0.6081 -0.0825 -0.2633
  107MOL0     C14364  11.027   5.421   6.094  0.4847  0.1767  0.1749
  107MOL0     C14365  10.884   5.835   6.193  0.5113 -0.6597 -0.8481
  107MOL0     C14366  10.782   5.817   6.289 -0.1057 -0.6816 -0.1797
  107MOL0     C14367  10.719   5.941   6.331 -0.0557 -0.1723  0.1085
  107MOL0     C14368  10.755   6.066   6.285 -0.0520 -0.1782 -0.2003
  107MOL0     O14369  10.712   6.193   6.333  0.0084 -0.0100 -1.0745
  107MOL0     C14370  10.660   6.197   6.470  0.5455  0.5592 -0.6466
  107MOL0     C14371  10.642   6.346   6.511 -1.0095 -0.5222 -0.1775
  107MOL0     C14372  10.776   6.419   6.518 -0.7993 -0.1493  0.7765
  107MOL0     C14373  10.885   6.349   6.596 -0.0763  1.2544  0.8505
  107MOL0     C14374  11.004   6.433   6.611 -0.4512  0.5094 -0.1713
  107MOL0     C14375  11.101   6.505   6.619  0.5541  0.3665  0.7884
  107MOL0     C14376  10.856   6.076   6.186  0.4971 -0.1077 -0.8859
  107MOL0     C14377  10.921   5.964   6.141 -0.1523  0.3810  0.3740
  107MOL0     H14378  10.922   5.439   6.409 -1.5160 -0.3764 -0.2341
  107MOL0     H14379  10.957   5.187   6.398 -0.7868 -0.9801 -1.5803
  107MOL0     H14380  11.196   5.064   6.386  0.0812  2.8034 -1.2423
  107MOL0     H14381  11.042   4.970   6.366  0.0575 -0.9799 -0.9327
  107MOL0     H14382  11.150   4.817   6.224 -0.7393  1.3969  0.5134
  107MOL0     H14383  11.299   4.931   6.227 -0.4846  3.9098  1.6830
  107MOL0     H14384  11.349   4.840   6.456 -1.0333  0.1716  0.7928
  107MOL0     H14385  11.199   4.768   6.471 -1.0520 -3.3684 -1.4313
  107MOL0     H14386  11.235   4.593   6.351  2.7487 -2.2336 -0.1023
  107MOL0     H14387  11.326   4.673   6.226  4.6276 -3.4672 -0.6149
  107MOL0     H14388  11.526   4.674   6.377  1.6013 -1.5413 -2.7524
  107MOL0     H14389  11.432   4.593   6.501  0.6501  1.8445  0.1121
  107MOL0     H14390  11.396   4.398   6.363 -1.5105  0.1124 -1.4803
  107MOL0     H14391  11.478   4.478   6.234 -1.5033  1.3224  0.6809
  107MOL0     H14392  11.629   4.322   6.320  0.9819 -0.1985 -0.1469
  107MOL0     H14393  11.692   4.483   6.345 -0.0041 -0.4668 -0.6127
  107MOL0     H14394  11.634   4.462   6.580 -1.7615 -2.0579  1.5454
  107MOL0     H14395  11.723   4.313   6.539 -1.5426 -1.4833  0.4547
  107MOL0     H14396  11.572   4.092   6.478 -0.3363  2.6096 -1.2552
  107MOL0     H14397  11.385   3.916   6.633 -0.0191 -0.5087 -0.0175
  107MOL0     H14398  11.221   3.999   6.633 -1.3264 -0.1806 -2.1802
  107MOL0     H14399  11.249   3.832   6.444 -2.5751  0.5284 -2.9383
  107MOL0     H14400  11.383   3.934   6.389 -0.1930 -1.6435 -0.7736
  107MOL0     H14401  11.184   3.972   6.257  1.3633 -2.1291  1.0769
  107MOL0     H14402  11.210   4.127   6.353 -3.4691  0.9701 -0.3946
  107MOL0     H14403  11.049   4.020   6.515  2.0820 -0.0608 -0.2698
  107MOL0     H14404  11.009   3.902   6.393  1.0448 -0.3932 -2.2527
  107MOL0     H14405  10.769   4.267   6.244 -0.3281 -0.3325  0.3884
  107MOL0     H14406  10.678   4.605   6.298  0.2029  0.5277 -1.4756
  107MOL0     H14407  10.766   4.565   6.154 -1.6750  0.6124  0.2305
  107MOL0     H14408  10.644   4.450   6.224 -1.4032  0.1169  1.0177
  107MOL0     H14409  11.091   4.788   6.724  1.3164  3.3487  0.9578
  107MOL0     H14410  11.117   5.012   6.807  2.5330 -3.6484 -0.5783
  107MOL0     H14411  10.853   5.373   6.657  0.1883  1.4188  2.6095
  107MOL0     H14412  10.756   5.254   6.753  0.7515 -2.9906 -2.5399
  107MOL0     H14413  10.829   5.360   6.958  0.2955 -0.2218  0.4167
  107MOL0     H14414  10.950   5.450   6.879  0.6216 -1.4921 -0.0261
  107MOL0     H14415  10.695   5.538   6.919  0.5595 -1.5924  1.4164
  107MOL0     H14416  10.680   5.493   6.750 -0.3653  2.3916 -0.8647
  107MOL0     H14417  10.748   5.726   6.813 -1.0188 -0.7056  1.9281
  107MOL0     H14418  10.912   5.666   6.847  0.5258 -3.5137 -0.8136
  107MOL0     H14419  10.784   5.665   6.574  0.0319  3.9443  0.4328
  107MOL0     H14420  10.941   5.596   6.606 -2.7086 -2.8477 -1.3933
  107MOL0     H14421  10.906   5.857   6.520  0.6138 -0.2139 -0.4862
  107MOL0     H14422  10.838   5.878   6.681  1.4624 -0.0615  2.4803
  107MOL0     H14423  11.118   5.771   6.648  1.1945  0.2502  1.0683
  107MOL0     H14424  11.043   5.861   6.786  0.6527 -0.2986 -0.1889
  107MOL0     H14425  11.035   6.062   6.645 -0.2492 -0.2915  2.3337
  107MOL0     H14426  11.096   5.976   6.497  1.3382 -3.9216  0.1859
  107MOL0     H14427  10.776   5.136   6.564  0.2241  1.2793  1.8765
  107MOL0     H14428  10.761   4.910   6.477  1.6009 -2.2778 -0.4586
  107MOL0     H14429  11.067   4.475   6.582  2.8204 -2.0092 -0.2519
  107MOL0     H14430  11.079   4.230   6.553  0.9428 -0.0524 -1.7322
  107MOL0     H14431  11.127   5.260   6.018  2.3475 -0.4546  1.0647
  107MOL0     H14432  11.017   5.475   6.001  0.3296  0.2800  0.2503
  107MOL0     H14433  10.755   5.726   6.342  0.9177 -0.8059  0.1639
  107MOL0     H14434  10.641   5.939   6.407 -0.1187  4.3090  0.4472
  107MOL0     H14435  10.560   6.151   6.464  0.5743  0.6697 -3.7026
  107MOL0     H14436  10.726   6.145   6.540  0.5171 -0.9642 -1.6794
  107MOL0     H14437  10.595   6.354   6.609  2.5441 -0.9870  1.7273
  107MOL0     H14438  10.574   6.398   6.443 -2.3993 -0.4209  1.2241
  107MOL0     H14439  10.741   6.514   6.560 -2.3095 -1.1977  2.0633
  107MOL0     H14440  10.817   6.435   6.419 -0.0407 -0.4075  1.0438
  107MOL0     H14441  10.925   6.253   6.563 -1.0924  0.2733  2.3741
  107MOL0     H14442  10.841   6.329   6.694  1.5446 -1.1274  1.1966
  107MOL0     H14443  11.193   6.561   6.617  0.0333  1.3021  1.9999
  107MOL0     H14444  10.892   6.171   6.149  2.9543 -0.3561  0.6282
  107MOL0     H14445  11.002   5.978   6.070 -0.9442  0.6446 -0.4960
  108MOL0     O14446   3.678   7.103  10.054  0.7030  0.6156  0.3897
  108MOL0     C14447   3.742   7.017   9.994 -0.6451  0.6228 -0.4951
  108MOL0     O14448   3.715   6.886   9.980  0.3239 -0.4362 -0.2855
  108MOL0     C14449   3.591   6.843  10.032 -0.4114  0.0371 -0.6945
  108MOL0     C14450   3.466   6.868   9.971 -0.4741 -0.4466  0.0834
  108MOL0     C14451   3.359   6.819  10.033  1.0757 -0.3106 -0.9305
  108MOL0     C14452   3.354   6.724  10.132 -0.2379  0.4700  0.0111
  108MOL0     O14453   3.239   6.664  10.169  0.9572 -0.1016 -1.0666
  108MOL0     C14454   3.239   6.525  10.173 -0.1517  0.3486  0.1760
  108MOL0     C14455   3.098   6.490  10.213 -0.3805 -0.2575  0.1532
  108MOL0     C14456   3.072   6.521  10.361  0.0470  1.1179 -0.7200
  108MOL0     C14457   3.142   6.642  10.434  0.8970 -0.7077  0.1292
  108MOL0     C14458   3.096   6.659  10.572 -0.3903 -0.1342 -0.5790
  108MOL0     C14459   2.939   6.683  10.591 -1.8649 -0.8978 -0.7362
  108MOL0     C14460   2.896   6.747  10.721  0.0301  0.2299 -0.6821
  108MOL0     C14461   2.752   6.796  10.702  1.0727 -0.2327  0.1106
  108MOL0     N14462   2.691   6.804  10.835 -0.1604 -0.5470  0.0718
  108MOL0     C14463   2.576   6.735  10.874 -0.1030 -0.0199  0.3745
  108MOL0     C14464   2.560   6.762  11.009 -0.3296 -0.1471  0.3371
  108MOL0     C14465   2.465   6.719  11.118 -0.6997  0.6342 -0.5721
  108MOL0     C14466   2.326   6.777  11.094  0.0798  0.1564  0.1022
  108MOL0     C14467   2.228   6.718  11.195  0.3301  0.1712 -0.2524
  108MOL0     C14468   2.118   6.827  11.206 -0.7274 -0.2367 -0.4847
  108MOL0     O14469   2.060   6.842  11.075  0.3372  0.2755  0.5122
  108MOL0     C14470   1.929   6.796  11.070 -0.3543 -0.6277  0.1966
  108MOL0     C14471   1.899   6.662  11.043  0.0104 -0.2037  0.8068
  108MOL0     C14472   1.762   6.619  11.060 -0.5419  0.9110  0.6561
  108MOL0     C14473   1.745   6.470  11.056 -0.1193  0.1407 -0.0275
  108MOL0     C14474   1.655   6.712  11.076 -0.4376 -0.7746 -0.6635
  108MOL0     C14475   1.514   6.672  11.092  0.8770  1.4212  0.1484
  108MOL0     O14476   1.415   6.775  11.101 -0.3518  0.2062  0.5584
  108MOL0     C14477   1.289   6.759  11.154  0.5374 -1.2507 -0.9537
  108MOL0     C14478   1.198   6.864  11.127 -0.5401  0.1072  0.3061
  108MOL0     C14479   1.067   6.868  11.165 -0.2821 -0.4291  1.4030
  108MOL0     C14480   1.012   6.751  11.221  0.1520  0.6926 -0.4263
  108MOL0     O14481   0.886   6.733  11.260  0.7118 -0.2611  0.0420
  108MOL0     C14482   0.793   6.843  11.271 -0.0775 -0.3930 -0.6081
  108MOL0     C14483   0.656   6.804  11.241  1.1805 -0.3170  0.4220
  108MOL0     C14484   0.632   6.770  11.095 -0.3044 -0.4470 -0.6704
  108MOL0     C14485   0.485   6.747  11.063 -0.6723  0.0975  0.8318
  108MOL0     C14486   0.493   6.696  10.915  0.3895 -0.3382 -0.5137
  108MOL0     C14487   0.353   6.712  10.838  0.4984  0.9086  0.3409
  108MOL0     C14488   0.261   6.601  10.883 -0.3348  0.0195 -0.7123
  108MOL0     C14489   0.136   6.609  10.790 -0.6957  0.1863 -0.9253
  108MOL0    Cl14490   0.026   6.735  10.830  0.1837 -0.0713  0.2418
  108MOL0     C14491   1.095   6.640  11.251 -1.2288  0.0187 -0.5171
  108MOL0     C14492   1.234   6.648  11.223  0.2850 -0.2477 -0.0474
  108MOL0     O14493   1.478   6.553  11.089  0.5923 -0.5484  0.1269
  108MOL0     C14494   1.693   6.849  11.095  0.3510  0.0999  0.5274
  108MOL0     C14495   1.831   6.888  11.105  0.2591 -0.1859 -0.8917
  108MOL0     N14496   2.674   6.829  11.047  0.2583 -0.0430  0.2334
  108MOL0     N14497   2.751   6.849  10.948 -0.6479  0.3251  0.0628
  108MOL0     C14498   3.481   6.693  10.187 -0.3943  0.2318  0.0748
  108MOL0     C14499   3.597   6.758  10.145  0.2945 -1.6280  0.6475
  108MOL0     C14500   3.875   7.066   9.933  0.3813  1.0482 -0.3437
  108MOL0     C14501   3.909   7.195   9.949  0.9414 -0.0221  0.7402
  108MOL0     C14502   4.036   7.239   9.899 -0.6816 -0.3024 -0.3101
  108MOL0     C14503   4.123   7.149   9.832 -0.0684 -0.7251 -1.0221
  108MOL0     O14504   4.245   7.183   9.791 -0.0424  0.1729 -0.3782
  108MOL0     C14505   4.326   7.264   9.874 -0.4590 -0.2031 -0.5374
  108MOL0     C14506   4.464   7.205   9.856  0.3214 -0.6319  0.5773
  108MOL0     C14507   4.555   7.278   9.963  0.0658 -0.3476 -0.1274
  108MOL0     C14508   4.690   7.216   9.960 -0.3851  0.5132  0.0571
  108MOL0     C14509   4.759   7.274  10.076 -0.2642 -0.5409  0.2576
  108MOL0     C14510   4.834   7.315  10.167  0.7405 -0.2485  0.6738
  108MOL0     C14511   4.072   7.022   9.811 -0.7582 -0.0113 -0.5270
  108MOL0     C14512   3.954   6.978   9.860 -0.2025 -0.0557  0.5275
  108MOL0     H14513   3.478   6.942   9.893  2.3776 -0.1402  0.7127
  108MOL0     H14514   3.265   6.855   9.991  1.0277  1.8818  0.8508
  108MOL0     H14515   3.266   6.501  10.069  1.2502  0.9257  0.3828
  108MOL0     H14516   3.316   6.493  10.244 -1.2069 -0.9665  0.7791
  108MOL0     H14517   3.034   6.554  10.152  1.7175  1.3329 -0.4881
  108MOL0     H14518   3.073   6.385  10.194  1.0103 -0.5930  0.0920
  108MOL0     H14519   2.966   6.529  10.388 -0.4052 -1.7144 -1.3242
  108MOL0     H14520   3.096   6.430  10.417  2.5836  0.4340 -2.7439
  108MOL0     H14521   3.251   6.632  10.432  0.9008 -0.5887 -0.5912
  108MOL0     H14522   3.113   6.732  10.379 -1.3031 -0.4334  1.6214
  108MOL0     H14523   3.134   6.572  10.628 -1.0511  0.3840  0.7328
  108MOL0     H14524   3.132   6.751  10.620 -3.6119  0.7475  0.3702
  108MOL0     H14525   2.919   6.758  10.514  2.8923  1.8578  0.2817
  108MOL0     H14526   2.888   6.588  10.571 -1.6656 -1.0009 -0.7619
  108MOL0     H14527   2.904   6.667  10.795  1.1361 -0.4241 -1.4774
  108MOL0     H14528   2.964   6.830  10.740  1.9090 -1.2620 -0.6123
  108MOL0     H14529   2.699   6.736  10.628 -0.8132 -0.5842  1.6630
  108MOL0     H14530   2.744   6.895  10.656  1.3930  1.4256  3.3107
  108MOL0     H14531   2.505   6.671  10.822 -1.0105  1.9385 -0.9074
  108MOL0     H14532   2.472   6.610  11.113 -0.9877  0.5374  0.6590
  108MOL0     H14533   2.506   6.758  11.212 -0.4593  0.6226 -0.6701
  108MOL0     H14534   2.287   6.752  10.996 -2.8651  1.5501  0.8247
  108MOL0     H14535   2.322   6.886  11.085 -4.3000  0.1395 -0.2497
  108MOL0     H14536   2.270   6.699  11.294 -1.0147  0.7545  0.4483
  108MOL0     H14537   2.179   6.627  11.160 -0.2820  0.6231 -0.5853
  108MOL0     H14538   2.156   6.924  11.241 -0.8610 -0.8378  1.4503
  108MOL0     H14539   2.048   6.797  11.284 -0.5225  2.0012  0.6535
  108MOL0     H14540   1.967   6.582  11.015 -0.0544  0.5522 -1.7259
  108MOL0     H14541   1.839   6.415  11.057 -0.6353 -0.7711  0.4342
  108MOL0     H14542   1.702   6.425  11.146  0.7165 -2.3090 -0.7741
  108MOL0     H14543   1.681   6.431  10.975 -0.6170 -4.7210  2.3021
  108MOL0     H14544   1.241   6.938  11.059 -1.7468  1.3262  0.8192
  108MOL0     H14545   0.998   6.948  11.141 -1.3348 -1.0846  2.1213
  108MOL0     H14546   0.813   6.888  11.369 -0.5071  2.7251 -1.8566
  108MOL0     H14547   0.818   6.930  11.211  0.0225 -0.5054 -0.7306
  108MOL0     H14548   0.609   6.719  11.291 -2.1799  0.0762 -1.6932
  108MOL0     H14549   0.584   6.883  11.268  0.4222 -0.2936 -1.5313
  108MOL0     H14550   0.688   6.680  11.068 -1.2841 -1.0668 -0.6796
  108MOL0     H14551   0.673   6.859  11.046 -2.0214  0.9156  0.2276
  108MOL0     H14552   0.439   6.673  11.130 -1.4052 -1.5770 -1.3802
  108MOL0     H14553   0.427   6.839  11.072  1.0860  1.3338  0.1639
  108MOL0     H14554   0.526   6.592  10.911 -0.3939 -0.8010  2.5659
  108MOL0     H14555   0.575   6.749  10.866  2.3996 -0.6781  2.2519
  108MOL0     H14556   0.302   6.808  10.852  0.5625  0.7972  1.3786
  108MOL0     H14557   0.379   6.696  10.733 -0.5711  0.0470  0.1904
  108MOL0     H14558   0.228   6.612  10.986  0.8755 -1.0481 -0.1796
  108MOL0     H14559   0.305   6.501  10.874 -0.9610 -0.2359 -1.0155
  108MOL0     H14560   0.089   6.512  10.812  1.3467 -0.5444  0.4900
  108MOL0     H14561   0.174   6.609  10.688 -1.5089 -2.8288 -1.3247
  108MOL0     H14562   1.055   6.545  11.285  1.3973 -0.7521  0.6613
  108MOL0     H14563   1.297   6.565  11.253  0.5903  0.0828  0.2340
  108MOL0     H14564   1.611   6.916  11.121  1.8762  2.3601 -0.1370
  108MOL0     H14565   1.851   6.992  11.130 -0.5769 -0.3899  0.8000
  108MOL0     H14566   3.493   6.623  10.269 -2.1224  0.2633  0.3933
  108MOL0     H14567   3.695   6.717  10.169  2.6270  2.6426 -0.5706
  108MOL0     H14568   3.836   7.258   9.999 -0.7854 -0.4405 -1.1158
  108MOL0     H14569   4.056   7.345   9.913 -3.7451  0.9766 -3.9240
  108MOL0     H14570   4.318   7.371   9.853  0.0293 -0.3403 -1.4628
  108MOL0     H14571   4.298   7.250   9.978  0.3634 -2.2335 -0.5630
  108MOL0     H14572   4.502   7.219   9.755  1.5950  0.8634  1.2287
  108MOL0     H14573   4.452   7.103   9.895 -0.2873 -1.4896 -1.6711
  108MOL0     H14574   4.512   7.267  10.063 -1.9112  0.8469 -0.7862
  108MOL0     H14575   4.558   7.385   9.940  1.7755 -0.6240 -1.4682
  108MOL0     H14576   4.754   7.252   9.879 -0.2844  1.0803  0.3810
  108MOL0     H14577   4.694   7.107   9.966  2.4634  0.5261  0.0016
  108MOL0     H14578   4.909   7.332  10.242  2.5486  0.0827 -1.1300
  108MOL0     H14579   4.131   6.962   9.742 -1.9505  0.4878 -2.0262
  108MOL0     H14580   3.938   6.871   9.852  2.2922 -0.4091 -0.4514
  109MOL0     O14581   3.849   2.021  10.399 -0.6333  0.5158  0.4684
  109MOL0     C14582   3.971   2.016  10.434  0.6202  0.3519  1.5362
  109MOL0     O14583   4.018   1.939  10.538  0.7273 -0.7058  0.0691
  109MOL0     C14584   3.932   1.876  10.621  0.1476  0.6012 -0.4250
  109MOL0     C14585   3.955   1.740  10.650  0.2225 -0.7443  0.4571
  109MOL0     C14586   3.875   1.670  10.733 -0.0731  0.1219 -0.2518
  109MOL0     C14587   3.766   1.733  10.796  0.3818  0.1320 -0.6107
  109MOL0     O14588   3.690   1.664  10.890 -0.7218 -0.2924 -0.0380
  109MOL0     C14589   3.549   1.689  10.891  0.0588  0.2365 -0.6167
  109MOL0     C14590   3.483   1.564  10.941 -0.4750  1.0725 -0.1882
  109MOL0     C14591   3.330   1.567  10.935  0.5918  0.0101 -0.5463
  109MOL0     C14592   3.272   1.425  10.960  0.2893  0.0393  0.6484
  109MOL0     C14593   3.119   1.422  10.954 -0.2922  0.4994  0.2388
  109MOL0     C14594   3.097   1.267  10.965 -0.0462 -0.0742 -0.3967
  109MOL0     C14595   2.949   1.238  10.974 -0.4249 -0.2874  0.0469
  109MOL0     C14596   2.911   1.106  11.039  0.0869 -0.0252 -0.0375
  109MOL0     N14597   2.775   1.106  11.108  0.0602  0.0996  0.3702
  109MOL0     C14598   2.656   1.094  11.029 -0.1415 -1.7998 -0.7156
  109MOL0     C14599   2.559   1.090  11.128 -0.5856 -0.9674  0.1307
  109MOL0     C14600   2.418   1.074  11.111 -0.2071  1.0712  0.0673
  109MOL0     C14601   2.376   1.046  10.965 -0.3617 -0.0087 -1.3419
  109MOL0     C14602   2.231   1.100  10.953 -0.4556  1.3874 -0.1794
  109MOL0     C14603   2.122   1.062  11.063 -0.5278  0.2580  0.2630
  109MOL0     O14604   2.111   0.921  11.085  0.1754  0.3715 -0.3473
  109MOL0     C14605   1.983   0.875  11.081 -0.4871  0.9978  0.3103
  109MOL0     C14606   1.916   0.839  11.205 -0.6409 -0.5015  1.0161
  109MOL0     C14607   1.790   0.770  11.199  0.3346 -0.2520  0.4946
  109MOL0     C14608   1.723   0.771  11.337  0.1388 -0.3037  0.5719
  109MOL0     C14609   1.730   0.743  11.071 -0.4443 -1.0519 -0.4907
  109MOL0     C14610   1.589   0.689  11.061 -0.5271  0.3154  0.5126
  109MOL0     O14611   1.536   0.699  10.935  0.0260 -0.9786 -0.1953
  109MOL0     C14612   1.425   0.619  10.926  0.6793 -0.2834 -0.4506
  109MOL0     C14613   1.295   0.668  10.938 -0.5495 -0.1520 -0.8934
  109MOL0     C14614   1.189   0.584  10.898  0.0799  0.0839 -0.1187
  109MOL0     C14615   1.208   0.457  10.843 -0.4668  0.1564  0.2750
  109MOL0     O14616   1.093   0.394  10.805  0.0449 -1.1136 -0.3677
  109MOL0     C14617   1.094   0.260  10.763  0.6718  0.2402  0.6030
  109MOL0     C14618   0.952   0.219  10.720  0.1763  0.3650 -0.1365
  109MOL0     C14619   0.850   0.165  10.836 -0.2411 -0.2241  0.5085
  109MOL0     C14620   0.780   0.299  10.872 -0.4203 -0.6905  1.2452
  109MOL0     C14621   0.686   0.285  10.995 -0.6191 -0.0291  0.6464
  109MOL0     C14622   0.562   0.230  10.936  0.9103  0.0838  0.5150
  109MOL0     C14623   0.472   0.175  11.061 -0.5272 -0.2420 -0.0168
  109MOL0     C14624   0.417   0.033  11.034  0.4151  0.4770  0.6151
  109MOL0    Cl14625   0.289   0.029  10.928  0.4965  0.0707  0.0982
  109MOL0     C14626   1.341   0.411  10.824  0.0680 -0.9104  0.0374
  109MOL0     C14627   1.446   0.484  10.880  0.1939 -0.2061 -0.0814
  109MOL0     O14628   1.530   0.654  11.158 -0.3845 -0.5443 -0.2032
  109MOL0     C14629   1.798   0.784  10.958  0.2476  0.0534 -0.2465
  109MOL0     C14630   1.919   0.841  10.959 -1.3175  0.8433 -0.1469
  109MOL0     N14631   2.621   1.122  11.250  0.1308  0.5385 -0.4061
  109MOL0     N14632   2.750   1.131  11.236  0.2342 -1.1775 -0.2999
  109MOL0     C14633   3.738   1.872  10.768 -0.0988 -0.0193 -0.3176
  109MOL0     C14634   3.815   1.936  10.673 -0.2402  1.1123  0.1704
  109MOL0     C14635   4.066   2.108  10.368  0.3130 -0.5382  0.4601
  109MOL0     C14636   4.018   2.227  10.311 -0.0439  0.3196  0.8327
  109MOL0     C14637   4.107   2.313  10.241 -0.1693 -0.6853  0.1629
  109MOL0     C14638   4.247   2.295  10.249 -0.7427  0.1207 -0.6843
  109MOL0     O14639   4.330   2.387  10.187 -0.2336  0.2073 -0.3341
  109MOL0     C14640   4.462   2.403  10.241  0.1306  0.4174 -0.5778
  109MOL0     C14641   4.504   2.538  10.186 -0.0639 -0.4408 -0.7791
  109MOL0     C14642   4.523   2.531  10.035  0.0520  0.1089 -0.5131
  109MOL0     C14643   4.541   2.665   9.973  0.0790  0.4333 -0.2767
  109MOL0     C14644   4.660   2.730  10.017 -0.7854  0.9944 -0.2547
  109MOL0     C14645   4.755   2.795  10.057  0.0554  0.5236  0.6456
  109MOL0     C14646   4.288   2.180  10.312 -0.3426 -0.2225  0.8334
  109MOL0     C14647   4.197   2.087  10.370  1.3918  0.1768  0.5452
  109MOL0     H14648   4.030   1.690  10.589 -1.2462 -0.6647 -1.5323
  109MOL0     H14649   3.889   1.565  10.754 -3.7948 -1.1846 -3.1806
  109MOL0     H14650   3.520   1.772  10.957 -0.5635  0.5801 -1.3075
  109MOL0     H14651   3.512   1.708  10.790 -0.9079 -1.0647 -0.5329
  109MOL0     H14652   3.515   1.486  10.871 -2.2843 -0.1931  0.3151
  109MOL0     H14653   3.530   1.528  11.034  0.3154  0.2107 -0.9034
  109MOL0     H14654   3.281   1.635  11.006 -0.6866 -1.8776  0.4771
  109MOL0     H14655   3.303   1.614  10.840 -1.0933  3.6410  1.5156
  109MOL0     H14656   3.312   1.364  10.879  0.4967  1.5722 -0.4471
  109MOL0     H14657   3.302   1.380  11.055  0.6563 -0.5732  0.2487
  109MOL0     H14658   3.084   1.465  11.048 -2.0214 -1.2552  0.4619
  109MOL0     H14659   3.074   1.476  10.870  0.9788  1.9100  0.4178
  109MOL0     H14660   3.138   1.216  10.878 -1.2645 -0.7474 -0.6088
  109MOL0     H14661   3.144   1.226  11.055  1.6031  0.4757 -0.9880
  109MOL0     H14662   2.908   1.321  11.032  2.4584  1.6958 -0.5036
  109MOL0     H14663   2.907   1.253  10.874  0.3012  3.4687  0.1600
  109MOL0     H14664   2.983   1.078  11.116 -1.8000  2.9359  3.0748
  109MOL0     H14665   2.914   1.029  10.961 -1.4228 -1.1291  0.9658
  109MOL0     H14666   2.653   1.092  10.921  0.9213  2.7238 -1.0193
  109MOL0     H14667   2.385   0.990  11.172  0.4435  0.1791 -0.7788
  109MOL0     H14668   2.378   1.168  11.150  4.9117  2.6404  2.4352
  109MOL0     H14669   2.371   0.940  10.939  0.2635  0.3436 -3.0084
  109MOL0     H14670   2.433   1.099  10.888 -3.1259  1.5222 -2.4788
  109MOL0     H14671   2.203   1.063  10.853 -3.0523 -0.1163  0.9974
  109MOL0     H14672   2.229   1.209  10.949 -0.8955  1.3517 -1.4676
  109MOL0     H14673   2.028   1.105  11.026 -1.1216  0.0781  1.5058
  109MOL0     H14674   2.130   1.121  11.155  1.1320 -0.2170  0.4581
  109MOL0     H14675   1.971   0.853  11.297 -1.2005 -0.1814  1.3082
  109MOL0     H14676   1.677   0.674  11.354 -0.0523 -0.2931  0.1117
  109MOL0     H14677   1.793   0.779  11.421  2.3815 -3.9884 -0.7304
  109MOL0     H14678   1.646   0.846  11.360 -0.7448 -1.7807  2.7955
  109MOL0     H14679   1.277   0.768  10.976 -0.0806  0.7785 -2.9590
  109MOL0     H14680   1.087   0.621  10.904 -0.8449 -2.1388 -0.9950
  109MOL0     H14681   1.146   0.270  10.667  0.0778  0.5798  0.3127
  109MOL0     H14682   1.142   0.193  10.835 -1.1610  0.5177  2.1473
  109MOL0     H14683   0.902   0.299  10.665  1.7880  2.6175  1.4612
  109MOL0     H14684   0.972   0.132  10.656 -0.2762  0.6056 -0.6113
  109MOL0     H14685   0.908   0.120  10.918  2.0471 -0.2561 -1.0420
  109MOL0     H14686   0.786   0.082  10.805  2.8548 -3.4868  2.0951
  109MOL0     H14687   0.859   0.369  10.901  0.9298 -2.0401  0.9609
  109MOL0     H14688   0.730   0.331  10.780  2.4274 -0.6746 -0.4259
  109MOL0     H14689   0.669   0.384  11.040 -0.1962  0.0975  0.5318
  109MOL0     H14690   0.734   0.234  11.079  1.3051  1.6823  0.6683
  109MOL0     H14691   0.516   0.304  10.870  0.2329  0.0663  0.9584
  109MOL0     H14692   0.575   0.147  10.865 -1.4404  0.1710 -0.0913
  109MOL0     H14693   0.389   0.244  11.078  1.3210  2.4408 -1.2219
  109MOL0     H14694   0.543   0.179  11.144  0.0520  0.6240 -0.5386
  109MOL0     H14695   0.378   0.000  11.131 -0.5604  2.0760  0.7862
  109MOL0     H14696   0.499  -0.031  10.998 -0.9832  0.0495 -2.0257
  109MOL0     H14697   1.358   0.309  10.789  2.3997 -0.0112 -1.7359
  109MOL0     H14698   1.546   0.453  10.853  1.1373  2.5975 -0.0694
  109MOL0     H14699   1.749   0.765  10.863 -0.9658  0.7858  0.2045
  109MOL0     H14700   1.966   0.863  10.864  1.3815  1.2733  1.1896
  109MOL0     H14701   3.663   1.923  10.827 -0.8309 -1.6224  0.1766
  109MOL0     H14702   3.797   2.040  10.648 -0.4760  0.8652 -0.6998
  109MOL0     H14703   3.919   2.265  10.288  1.4124  1.8003 -4.5951
  109MOL0     H14704   4.079   2.394  10.174 -2.5128 -1.4917  0.0877
  109MOL0     H14705   4.467   2.409  10.350  0.1162 -0.2683 -0.5408
  109MOL0     H14706   4.529   2.325  10.204 -1.0870 -1.0108  0.1241
  109MOL0     H14707   4.588   2.576  10.245  0.1744 -3.0223  0.6413
  109MOL0     H14708   4.422   2.609  10.201  0.3947 -0.3938  1.8523
  109MOL0     H14709   4.442   2.476   9.986  0.5033  1.5028 -3.0019
  109MOL0     H14710   4.611   2.472  10.009 -1.2939 -2.4230  0.3780
  109MOL0     H14711   4.463   2.737   9.998  0.9162  1.8383 -1.5352
  109MOL0     H14712   4.544   2.661   9.864 -0.4522 -0.5562 -0.2651
  109MOL0     H14713   4.832   2.853  10.104  0.0566  2.7973 -1.9135
  109MOL0     H14714   4.392   2.148  10.305  0.3207  1.6786  1.3905
  109MOL0     H14715   4.229   1.994  10.416 -0.2189 -1.5136 -1.6046
  110MOL0     O14716   4.837   8.796   6.910 -0.3917 -0.0428  0.3007
  110MOL0     C14717   4.737   8.745   6.955  0.6042  0.2208 -0.3830
  110MOL0     O14718   4.623   8.806   6.999 -0.7698 -0.4671 -0.3064
  110MOL0     C14719   4.621   8.945   6.993  0.2400  0.1737 -0.4109
  110MOL0     C14720   4.675   9.022   7.092 -0.6016  0.1798 -0.1220
  110MOL0     C14721   4.715   9.157   7.072 -0.7879 -0.1750 -0.5415
  110MOL0     C14722   4.691   9.221   6.961 -0.1849  0.1050  0.5708
  110MOL0     O14723   4.734   9.352   6.955  0.1344  0.1720 -0.6521
  110MOL0     C14724   4.799   9.394   6.837  0.0019 -0.4787  0.0580
  110MOL0     C14725   4.867   9.532   6.846 -0.2657  0.5859 -0.2433
  110MOL0     C14726   4.958   9.569   6.728  0.1599 -0.2762 -0.0584
  110MOL0     C14727   5.068   9.464   6.707  0.0215  0.1075  0.7158
  110MOL0     C14728   5.132   9.482   6.571 -0.0489  0.3473  0.0071
  110MOL0     C14729   5.239   9.602   6.582 -0.6311 -0.1059 -0.1898
  110MOL0     C14730   5.332   9.631   6.465  0.0068 -0.1009  0.2126
  110MOL0     C14731   5.258   9.688   6.342 -0.2164 -0.3893  0.4398
  110MOL0     N14732   5.229   9.822   6.369 -0.0492  0.1411  0.0325
  110MOL0     C14733   5.107   9.875   6.380  0.0898  0.0218  0.8499
  110MOL0     C14734   5.118   9.994   6.435  0.2378 -0.7678  0.5046
  110MOL0     C14735   5.011  10.087   6.465 -0.2205 -0.7028  0.2943
  110MOL0     C14736   4.937  10.065   6.604  0.0080 -0.9839  0.4987
  110MOL0     C14737   4.837   9.955   6.599 -0.3364  1.3340  0.6533
  110MOL0     C14738   4.725   9.961   6.487 -0.6987  0.0899  0.4392
  110MOL0     O14739   4.659  10.085   6.517  0.1683 -0.0501 -0.2889
  110MOL0     C14740   4.522  10.099   6.494 -0.5744  0.5031 -0.3510
  110MOL0     C14741   4.425  10.003   6.467 -1.1600 -1.0206 -1.0745
  110MOL0     C14742   4.286  10.029   6.470 -0.0661  0.5453 -0.8385
  110MOL0     C14743   4.194   9.902   6.452  0.6540  0.8283 -0.1918
  110MOL0     C14744   4.240  10.164   6.493  0.5039 -0.4132 -0.6679
  110MOL0     C14745   4.100  10.215   6.500  0.0104  0.9736 -0.0033
  110MOL0     O14746   4.080  10.345   6.537  0.3560 -0.3589  0.3362
  110MOL0     C14747   3.952  10.391   6.550  0.2559  0.6670 -0.2231
  110MOL0     C14748   3.931  10.472   6.665  0.1423 -0.3595  0.7996
  110MOL0     C14749   3.801  10.522   6.698  0.1272  0.5939  0.8476
  110MOL0     C14750   3.689  10.501   6.610  0.1071 -0.2823 -0.1143
  110MOL0     O14751   3.560  10.536   6.635  1.2878  0.1306  0.5963
  110MOL0     C14752   3.542  10.629   6.747  0.3912 -0.2643  0.2023
  110MOL0     C14753   3.397  10.678   6.756  0.0245  0.4173  0.0015
  110MOL0     C14754   3.296  10.578   6.826 -1.2432  0.7438  1.1250
  110MOL0     C14755   3.312  10.429   6.786 -1.2602 -0.8523 -0.1367
  110MOL0     C14756   3.196  10.345   6.858  0.4398  0.5734 -0.2136
  110MOL0     C14757   3.237  10.301   7.002  0.0752 -0.3319 -0.0572
  110MOL0     C14758   3.133  10.207   7.079 -0.3951 -0.3719  0.2083
  110MOL0     C14759   3.113  10.066   7.030  0.2225 -0.1072 -0.1402
  110MOL0    Cl14760   3.262   9.979   7.077 -0.0236 -0.1260  0.0432
  110MOL0     C14761   3.720  10.430   6.487  0.6265  0.2561  0.0267
  110MOL0     C14762   3.845  10.384   6.457  0.3750  0.2890 -0.1723
  110MOL0     O14763   4.012  10.143   6.457  0.3175  0.2270 -0.9170
  110MOL0     C14764   4.341  10.264   6.505  0.2059  0.5360  0.0580
  110MOL0     C14765   4.476  10.232   6.506  0.5822 -0.4226  0.2987
  110MOL0     N14766   5.256  10.023   6.439  0.0238 -0.5709  0.5484
  110MOL0     N14767   5.321   9.914   6.407  0.6715 -0.5891  0.5162
  110MOL0     C14768   4.637   9.148   6.857  0.4449  0.3268  0.5365
  110MOL0     C14769   4.598   9.013   6.872 -0.4375  0.1976 -0.6912
  110MOL0     C14770   4.737   8.603   6.981  0.9188  0.1657  0.9858
  110MOL0     C14771   4.835   8.525   6.934 -0.7097  0.2131 -0.5364
  110MOL0     C14772   4.853   8.388   6.965 -0.5953  0.1416  0.0438
  110MOL0     C14773   4.756   8.327   7.044 -0.0503 -0.6019  0.2816
  110MOL0     O14774   4.761   8.195   7.079 -0.2590 -0.3141  0.1497
  110MOL0     C14775   4.842   8.099   7.011 -0.3514  0.0987 -0.0277
  110MOL0     C14776   4.992   8.100   7.068  1.1305 -0.3702  0.2551
  110MOL0     C14777   5.060   7.965   7.063  0.7077 -0.4702 -0.6734
  110MOL0     C14778   4.996   7.857   7.155 -0.2444  0.0723  0.0271
  110MOL0     C14779   5.097   7.743   7.182 -1.0231 -0.4601  1.3129
  110MOL0     C14780   5.182   7.661   7.214  0.4002  0.3483  0.8406
  110MOL0     C14781   4.646   8.400   7.095  0.1020 -0.1027 -0.4035
  110MOL0     C14782   4.636   8.539   7.054  0.2878 -0.3509  0.1758
  110MOL0     H14783   4.706   8.961   7.176  1.2754  1.6993  0.3495
  110MOL0     H14784   4.754   9.217   7.154  3.6984 -1.6282 -1.3662
  110MOL0     H14785   4.873   9.317   6.815  0.4120 -0.0809  0.0473
  110MOL0     H14786   4.728   9.395   6.754 -1.3187 -0.1343  1.1400
  110MOL0     H14787   4.790   9.609   6.859  1.4341  2.4232 -0.5465
  110MOL0     H14788   4.927   9.522   6.937  0.6651  1.2490 -0.7625
  110MOL0     H14789   4.903   9.597   6.638 -1.0940  1.4824  1.1950
  110MOL0     H14790   4.993   9.665   6.766 -0.5256 -0.9635  2.5697
  110MOL0     H14791   5.144   9.465   6.786  1.5877  0.4141 -0.7562
  110MOL0     H14792   5.031   9.361   6.701  2.0961 -0.5785 -2.5857
  110MOL0     H14793   5.192   9.394   6.547  2.7396  1.5923  1.8652
  110MOL0     H14794   5.054   9.487   6.495  1.3397 -0.1702 -1.4999
  110MOL0     H14795   5.192   9.698   6.605  2.4749  2.0110 -1.8361
  110MOL0     H14796   5.311   9.593   6.664 -0.1675  2.7344 -0.1932
  110MOL0     H14797   5.417   9.691   6.497 -1.2110  2.1569 -0.5485
  110MOL0     H14798   5.375   9.534   6.440  0.4890 -0.2877  1.6558
  110MOL0     H14799   5.162   9.638   6.325  0.5962 -1.3719 -1.4888
  110MOL0     H14800   5.310   9.671   6.248 -2.2876 -2.2178 -0.4576
  110MOL0     H14801   5.011   9.829   6.360 -0.3139  0.0237  2.6021
  110MOL0     H14802   5.056  10.186   6.479 -1.8887  0.2717 -0.9895
  110MOL0     H14803   4.942  10.104   6.382 -2.2151 -0.7196  1.8956
  110MOL0     H14804   4.890  10.162   6.622 -1.2452 -1.5932  0.6460
  110MOL0     H14805   5.007  10.044   6.686 -0.6574 -1.9028  0.8547
  110MOL0     H14806   4.774   9.967   6.688 -0.2105  2.9431  0.5564
  110MOL0     H14807   4.891   9.860   6.599 -0.8047  1.0634  1.2033
  110MOL0     H14808   4.664   9.871   6.473 -0.7523  0.3719 -1.3981
  110MOL0     H14809   4.760   9.981   6.385 -7.0296  1.6556 -1.9086
  110MOL0     H14810   4.455   9.902   6.443 -1.1053 -0.4782 -3.5901
  110MOL0     H14811   4.248   9.810   6.430  0.8272  0.8047  0.3315
  110MOL0     H14812   4.139   9.883   6.545  1.3230 -0.6915 -0.0814
  110MOL0     H14813   4.129   9.922   6.366  0.4562 -3.9995 -1.4268
  110MOL0     H14814   4.020  10.484   6.725 -0.1016 -0.6831  1.2265
  110MOL0     H14815   3.783  10.575   6.792 -3.3241  0.6427  0.2879
  110MOL0     H14816   3.563  10.584   6.845  0.1563 -2.0513 -0.5217
  110MOL0     H14817   3.605  10.717   6.735 -0.1169  0.1470  0.5053
  110MOL0     H14818   3.393  10.776   6.805  0.9083  2.0358 -2.9543
  110MOL0     H14819   3.362  10.701   6.655 -3.2463 -0.6059  0.7701
  110MOL0     H14820   3.191  10.602   6.804 -0.2580  1.7943 -3.4031
  110MOL0     H14821   3.312  10.583   6.934  1.1389  0.6586  0.8256
  110MOL0     H14822   3.310  10.437   6.677 -0.1026 -0.0826 -0.1255
  110MOL0     H14823   3.411  10.402   6.823 -1.4471  1.4772  2.4142
  110MOL0     H14824   3.162  10.258   6.801 -0.3519  0.3857  0.5330
  110MOL0     H14825   3.107  10.409   6.854 -1.0456 -1.4311 -0.6650
  110MOL0     H14826   3.338  10.259   6.996  0.6770  1.0465  0.0082
  110MOL0     H14827   3.253  10.398   7.050  3.3335  0.4181 -2.3347
  110MOL0     H14828   3.035  10.251   7.096  0.4020  1.3172  0.7488
  110MOL0     H14829   3.164  10.193   7.183 -1.4219  3.8578  1.2656
  110MOL0     H14830   3.089  10.063   6.923 -0.6954 -0.7081  0.0678
  110MOL0     H14831   3.020  10.027   7.073  0.4276 -1.0999 -0.5539
  110MOL0     H14832   3.626  10.425   6.432 -2.5720  1.5797  4.7327
  110MOL0     H14833   3.868  10.336   6.363  3.5723  0.4761  0.4047
  110MOL0     H14834   4.323  10.371   6.515  2.6199  0.9785  0.1271
  110MOL0     H14835   4.547  10.313   6.520  0.2480  0.0631 -0.7582
  110MOL0     H14836   4.609   9.200   6.766 -1.5829 -1.0713  0.2952
  110MOL0     H14837   4.541   8.960   6.796 -0.1159  2.0473 -2.2968
  110MOL0     H14838   4.910   8.569   6.868 -1.3436  2.1821 -0.0192
  110MOL0     H14839   4.938   8.331   6.930 -0.4431 -0.7578  1.7891
  110MOL0     H14840   4.797   8.001   7.027  0.7009 -0.9108 -2.7942
  110MOL0     H14841   4.838   8.103   6.902 -2.0366 -0.9660 -0.0521
  110MOL0     H14842   4.984   8.136   7.171 -3.0077  0.4820 -0.1714
  110MOL0     H14843   5.055   8.172   7.015 -0.5223  0.2897 -0.9266
  110MOL0     H14844   5.168   7.977   7.079  1.0412 -3.6438  0.1285
  110MOL0     H14845   5.040   7.920   6.966  1.7754 -1.6553 -0.3749
  110MOL0     H14846   4.905   7.815   7.111 -1.1306  0.4456  1.4357
  110MOL0     H14847   4.967   7.911   7.246  0.7188 -0.3274  0.5978
  110MOL0     H14848   5.253   7.581   7.218  2.3409  2.0030  1.2137
  110MOL0     H14849   4.563   8.357   7.150 -0.7107  0.6429 -1.0269
  110MOL0     H14850   4.550   8.602   7.073 -1.2852 -1.3510 -2.8133
  111MOL0     O14851   8.718   1.259   1.030  0.0280  0.0117  0.2268
  111MOL0     C14852   8.816   1.288   1.097  0.0811 -0.5205  0.1960
  111MOL0     O14853   8.883   1.203   1.177 -0.2381  0.0718 -0.2916
  111MOL0     C14854   8.853   1.071   1.202 -0.8475  0.1639 -1.0252
  111MOL0     C14855   8.952   0.991   1.272 -0.7901 -0.4179 -0.1530
  111MOL0     C14856   8.925   0.859   1.299  0.5068 -0.0360 -0.5801
  111MOL0     C14857   8.803   0.798   1.260 -0.8488 -0.8106  0.0363
  111MOL0     O14858   8.787   0.671   1.294  0.7761  0.4049 -1.3267
  111MOL0     C14859   8.704   0.641   1.406  0.2807 -0.2210 -0.3392
  111MOL0     C14860   8.726   0.506   1.454 -1.1648  0.2353  0.1849
  111MOL0     C14861   8.630   0.458   1.569  0.1575  0.0107 -0.3341
  111MOL0     C14862   8.485   0.448   1.536  0.1831  0.4067  0.4791
  111MOL0     C14863   8.394   0.427   1.663  0.2452 -0.1414 -0.3261
  111MOL0     C14864   8.246   0.435   1.632  0.3803 -0.7549 -0.0476
  111MOL0     C14865   8.164   0.429   1.762 -0.6215 -0.5698 -0.3888
  111MOL0     C14866   8.176   0.565   1.846 -0.5375 -0.1515 -0.2335
  111MOL0     N14867   8.068   0.565   1.944  0.1420 -0.0512 -0.7815
  111MOL0     C14868   7.952   0.631   1.920  1.0095 -0.1776  0.1310
  111MOL0     C14869   7.875   0.602   2.023  0.0262 -0.9984  0.1108
  111MOL0     C14870   7.729   0.643   2.043  0.3868  1.0448  0.3467
  111MOL0     C14871   7.648   0.530   1.972 -0.3468 -0.3419 -0.0089
  111MOL0     C14872   7.500   0.569   1.982  0.5588 -0.5220  0.3156
  111MOL0     C14873   7.414   0.473   1.917  0.3774  0.5378 -0.3036
  111MOL0     O14874   7.456   0.433   1.784  0.0661 -0.2313  0.6251
  111MOL0     C14875   7.363   0.373   1.702 -0.3064 -0.7331 -0.5405
  111MOL0     C14876   7.254   0.308   1.745 -0.6854  0.2705  0.2825
  111MOL0     C14877   7.158   0.258   1.653 -0.4330 -0.0526  0.1761
  111MOL0     C14878   7.037   0.204   1.723  0.2922 -0.2846 -0.0587
  111MOL0     C14879   7.182   0.281   1.510  0.9090  0.2081  0.0731
  111MOL0     C14880   7.098   0.214   1.403  0.0290  0.9696 -0.3271
  111MOL0     O14881   7.141   0.225   1.274  0.4078  0.5756 -0.4366
  111MOL0     C14882   7.074   0.208   1.158  0.3182  0.2217  0.3757
  111MOL0     C14883   7.149   0.192   1.038 -0.3773 -0.1212 -0.6768
  111MOL0     C14884   7.080   0.171   0.916  0.1712 -0.7137 -0.1921
  111MOL0     C14885   6.942   0.179   0.908  0.7856  0.7134 -0.7354
  111MOL0     O14886   6.875   0.183   0.786 -0.3440 -0.0283  0.3532
  111MOL0     C14887   6.907   0.297   0.697 -0.0485 -0.3295 -0.6990
  111MOL0     C14888   6.878   0.427   0.771  0.2792  0.6544 -0.6466
  111MOL0     C14889   6.832   0.544   0.686  0.3742  0.9929 -0.3459
  111MOL0     C14890   6.927   0.560   0.566 -0.9719  0.1341 -0.6193
  111MOL0     C14891   6.951   0.706   0.523  0.8750 -0.3650 -0.0038
  111MOL0     C14892   6.823   0.790   0.521 -0.9634 -0.3082 -0.2872
  111MOL0     C14893   6.704   0.728   0.451  0.1598 -0.2961 -0.0622
  111MOL0     C14894   6.574   0.803   0.487 -0.6073  1.0361  0.2223
  111MOL0    Cl14895   6.518   0.761   0.649 -0.2985  0.3353 -0.1108
  111MOL0     C14896   6.867   0.203   1.022  0.3009  0.0520 -0.0156
  111MOL0     C14897   6.930   0.204   1.151 -0.3685 -0.0010 -0.3393
  111MOL0     O14898   7.001   0.146   1.432 -0.1372  0.0506 -0.6927
  111MOL0     C14899   7.299   0.347   1.472  0.6862 -0.0069 -0.1255
  111MOL0     C14900   7.382   0.401   1.568  0.5227 -1.0859 -0.6666
  111MOL0     N14901   7.940   0.525   2.122  0.1131 -0.4329 -0.0565
  111MOL0     N14902   8.056   0.505   2.063 -0.0100  0.8478 -0.1543
  111MOL0     C14903   8.713   0.864   1.181 -0.4922  0.6863 -1.3665
  111MOL0     C14904   8.735   1.006   1.173  0.7452 -0.2033  0.0542
  111MOL0     C14905   8.872   1.432   1.062  0.8567  0.4337  0.1991
  111MOL0     C14906   8.825   1.520   0.958  0.0106 -0.1129 -0.2532
  111MOL0     C14907   8.895   1.644   0.925 -0.1138  0.2966  0.1772
  111MOL0     C14908   8.999   1.685   1.006 -0.1486  1.0332 -0.6680
  111MOL0     O14909   9.061   1.807   0.996  0.0310 -0.0711  0.6135
  111MOL0     C14910   9.023   1.894   0.886 -0.0643  0.4311  0.0527
  111MOL0     C14911   9.118   2.014   0.874  0.8624  0.6553  0.0315
  111MOL0     C14912   9.253   1.969   0.829  0.5715  0.3499  0.5131
  111MOL0     C14913   9.322   2.091   0.776 -0.3948 -0.6143  0.3552
  111MOL0     C14914   9.452   2.064   0.719 -0.1457 -0.1458  0.0086
  111MOL0     C14915   9.563   2.039   0.680 -0.6453 -0.3601 -0.2700
  111MOL0     C14916   9.039   1.605   1.116  0.2409  0.3622 -0.1596
  111MOL0     C14917   8.972   1.477   1.145 -0.4215 -0.1729 -0.3280
  111MOL0     H14918   9.051   1.028   1.296 -0.6324  0.6207 -2.2019
  111MOL0     H14919   9.003   0.799   1.346  0.5448 -0.9198 -1.7379
  111MOL0     H14920   8.733   0.698   1.495  3.5375 -1.5953 -0.3874
  111MOL0     H14921   8.597   0.659   1.393 -0.3348 -1.8901  1.7441
  111MOL0     H14922   8.727   0.438   1.369 -0.4021 -0.2932  0.6045
  111MOL0     H14923   8.828   0.508   1.494 -1.2414  2.0289  0.4082
  111MOL0     H14924   8.669   0.363   1.608  0.9743  0.0666 -0.9590
  111MOL0     H14925   8.626   0.532   1.649  1.1761  0.9819 -1.1369
  111MOL0     H14926   8.450   0.521   1.462  1.1677  1.4376  1.0028
  111MOL0     H14927   8.485   0.351   1.486  0.2286  0.3114  0.6628
  111MOL0     H14928   8.413   0.323   1.692  0.9439 -0.1683 -0.8593
  111MOL0     H14929   8.434   0.501   1.733 -0.9185 -0.2097  0.4459
  111MOL0     H14930   8.236   0.530   1.580  2.2497 -0.5609 -0.1261
  111MOL0     H14931   8.212   0.356   1.565 -0.6106  0.2881 -0.8072
  111MOL0     H14932   8.059   0.416   1.735 -0.5277 -1.8542 -0.1699
  111MOL0     H14933   8.187   0.336   1.815 -0.9406  0.3378  1.4499
  111MOL0     H14934   8.161   0.632   1.762 -2.6503 -3.1613 -2.4839
  111MOL0     H14935   8.271   0.583   1.898 -2.1687 -0.8189  3.3052
  111MOL0     H14936   7.928   0.679   1.825  0.1591 -0.7573  0.0398
  111MOL0     H14937   7.705   0.649   2.150  0.7568  2.1210  0.3821
  111MOL0     H14938   7.711   0.740   1.997 -0.5647  0.3834 -0.7182
  111MOL0     H14939   7.667   0.433   2.018 -1.1290 -1.5162 -2.0159
  111MOL0     H14940   7.677   0.517   1.867  3.3181  1.3079  0.6469
  111MOL0     H14941   7.497   0.669   1.937 -0.8086 -0.8629 -0.4140
  111MOL0     H14942   7.454   0.590   2.079  1.5894 -0.5618  0.8228
  111MOL0     H14943   7.312   0.512   1.917 -0.8289 -2.3638  0.0370
  111MOL0     H14944   7.428   0.388   1.984  0.1916 -1.3355 -2.4981
  111MOL0     H14945   7.255   0.292   1.852  2.1941  0.8633  0.4316
  111MOL0     H14946   7.034   0.213   1.832  2.0124  0.6540 -0.0582
  111MOL0     H14947   6.951   0.259   1.683 -0.9933 -2.7226 -0.8590
  111MOL0     H14948   7.031   0.098   1.698 -2.2024  0.0270 -1.1128
  111MOL0     H14949   7.257   0.188   1.045 -0.3612  0.4412 -0.5357
  111MOL0     H14950   7.129   0.150   0.821 -0.4181  0.8611 -0.8702
  111MOL0     H14951   7.007   0.291   0.653  1.1222 -0.7325  1.8600
  111MOL0     H14952   6.836   0.290   0.614 -1.3275  2.4185  0.0624
  111MOL0     H14953   6.803   0.406   0.847  0.0498  0.9239 -0.7959
  111MOL0     H14954   6.964   0.465   0.827  1.4466 -0.3131 -1.7084
  111MOL0     H14955   6.828   0.631   0.752  0.0897 -0.6566  1.9406
  111MOL0     H14956   6.727   0.535   0.659  0.7436  1.4815 -2.0422
  111MOL0     H14957   7.024   0.512   0.580 -1.2636 -0.7403 -1.4859
  111MOL0     H14958   6.881   0.498   0.488  0.9984  1.2153 -2.7507
  111MOL0     H14959   6.996   0.711   0.423 -2.9502  1.8250 -1.8475
  111MOL0     H14960   7.016   0.746   0.602  0.4244 -1.8866  1.1852
  111MOL0     H14961   6.788   0.813   0.623 -1.6616  0.0504 -0.5989
  111MOL0     H14962   6.844   0.876   0.457 -1.1706 -0.3998 -0.4796
  111MOL0     H14963   6.689   0.620   0.462  0.3204 -0.4015 -0.8319
  111MOL0     H14964   6.719   0.729   0.343 -0.0768  1.0166 -0.0967
  111MOL0     H14965   6.499   0.757   0.421 -0.7588  0.2409  0.9351
  111MOL0     H14966   6.579   0.908   0.455 -1.7604  0.9809 -0.2014
  111MOL0     H14967   6.761   0.216   1.000  0.9714 -0.6614 -4.7198
  111MOL0     H14968   6.865   0.224   1.235  1.3262  1.4825  0.6822
  111MOL0     H14969   7.319   0.357   1.366  2.0315  1.5219  0.2304
  111MOL0     H14970   7.466   0.456   1.529  1.0560 -0.4063  1.3078
  111MOL0     H14971   8.618   0.818   1.157  0.2673 -2.6051  1.1436
  111MOL0     H14972   8.654   1.055   1.120  1.5428  0.8993 -0.1749
  111MOL0     H14973   8.746   1.483   0.894 -0.9587  2.0287 -0.3912
  111MOL0     H14974   8.857   1.703   0.843 -2.5958 -2.4614 -0.8487
  111MOL0     H14975   9.033   1.854   0.785 -0.6309  2.6708 -0.9771
  111MOL0     H14976   8.923   1.938   0.897  1.5813  4.2649  1.6114
  111MOL0     H14977   9.126   2.059   0.974  1.9725 -3.4826  2.0221
  111MOL0     H14978   9.069   2.084   0.806 -0.6137 -1.5413 -1.2783
  111MOL0     H14979   9.253   1.888   0.755 -4.0003  0.4847  0.0698
  111MOL0     H14980   9.306   1.913   0.907  3.2131 -2.6717 -3.0871
  111MOL0     H14981   9.347   2.156   0.860 -3.0388 -1.2247  1.7342
  111MOL0     H14982   9.266   2.153   0.706 -2.1581  0.2606  2.3981
  111MOL0     H14983   9.661   2.023   0.641 -1.3865 -2.6778 -1.4232
  111MOL0     H14984   9.119   1.643   1.179 -0.9313  3.6868 -0.4962
  111MOL0     H14985   9.009   1.421   1.230  2.7182 -0.7408 -1.9185
  112MOL0     O14986   3.804   3.037   2.687 -0.4867  0.1101 -0.0419
  112MOL0     C14987   3.859   2.930   2.686  0.3255  0.5999  0.2151
  112MOL0     O14988   3.810   2.824   2.613 -0.6915  0.0797 -0.2983
  112MOL0     C14989   3.680   2.811   2.587 -0.2574 -0.2003 -0.5662
  112MOL0     C14990   3.594   2.746   2.676  0.5369  0.3689 -0.0756
  112MOL0     C14991   3.453   2.737   2.645  0.6722  0.1934 -1.0627
  112MOL0     C14992   3.400   2.810   2.537 -0.7814 -0.1565  0.5727
  112MOL0     O14993   3.259   2.831   2.530  0.1205  0.3582 -0.1818
  112MOL0     C14994   3.187   2.704   2.542  0.5934 -0.9737  0.1652
  112MOL0     C14995   3.214   2.610   2.424  0.0902 -0.6294 -0.5418
  112MOL0     C14996   3.149   2.668   2.290 -0.4043 -1.1307  0.5574
  112MOL0     C14997   3.147   2.563   2.169  0.0900 -0.4056  0.1414
  112MOL0     C14998   3.129   2.611   2.023  0.2984 -0.1244 -0.0042
  112MOL0     C14999   3.190   2.493   1.932  0.3391 -0.1965  0.2877
  112MOL0     C15000   3.118   2.361   1.939  0.7255  0.0839 -0.4108
  112MOL0     C15001   2.967   2.358   1.902 -0.2987 -0.0304  0.9426
  112MOL0     N15002   2.958   2.391   1.755  0.2563 -0.3712 -0.2235
  112MOL0     C15003   3.007   2.322   1.646 -0.3153  0.6409 -0.1261
  112MOL0     C15004   2.960   2.392   1.540  0.1976  0.4111  0.0946
  112MOL0     C15005   2.998   2.358   1.395 -0.6292 -0.5284  0.5796
  112MOL0     C15006   3.072   2.479   1.319 -0.0596 -0.0366  0.5197
  112MOL0     C15007   3.095   2.437   1.167 -1.1207 -0.7059  0.1656
  112MOL0     C15008   3.211   2.339   1.148 -0.2544  0.3887 -0.2021
  112MOL0     O15009   3.329   2.395   1.198  0.4356  0.4456  0.1139
  112MOL0     C15010   3.446   2.347   1.142  1.0375  0.0776  0.1468
  112MOL0     C15011   3.457   2.250   1.041 -0.7165 -0.2084  0.9710
  112MOL0     C15012   3.583   2.239   0.980  0.7418 -0.8127 -0.7224
  112MOL0     C15013   3.600   2.142   0.875  0.2236  0.2508 -0.0908
  112MOL0     C15014   3.700   2.305   1.049  0.2445  0.1016  1.3461
  112MOL0     C15015   3.841   2.283   1.005  1.0635  0.2369 -0.2405
  112MOL0     O15016   3.917   2.390   0.992 -0.4411 -0.3608 -0.2444
  112MOL0     C15017   4.049   2.407   0.952 -0.1699  0.2976  0.7920
  112MOL0     C15018   4.122   2.520   0.979  0.5365 -0.2072 -0.6299
  112MOL0     C15019   4.254   2.533   0.933 -0.4347  0.5987  0.2664
  112MOL0     C15020   4.329   2.422   0.894  0.3264  0.0904  1.2526
  112MOL0     O15021   4.471   2.404   0.883  0.4459  0.1969  0.4643
  112MOL0     C15022   4.555   2.505   0.923 -0.1439  0.9001 -0.5534
  112MOL0     C15023   4.692   2.450   0.910 -0.8246  0.0336 -0.2070
  112MOL0     C15024   4.793   2.552   0.961 -0.6356 -0.1811  0.1816
  112MOL0     C15025   4.936   2.492   0.977 -0.8547 -0.7088  0.4006
  112MOL0     C15026   5.016   2.592   1.061 -0.6404  0.0053  0.7654
  112MOL0     C15027   5.158   2.544   1.079 -0.6482  0.6441 -0.2252
  112MOL0     C15028   5.225   2.617   1.199 -0.3078  0.8101 -1.1895
  112MOL0     C15029   5.365   2.558   1.221  0.6372 -0.4283  0.2686
  112MOL0    Cl15030   5.478   2.609   1.101  0.0247 -0.1817 -0.0881
  112MOL0     C15031   4.250   2.304   0.860  0.0373 -0.3694  0.3707
  112MOL0     C15032   4.114   2.301   0.877  0.9355 -0.4902  0.5616
  112MOL0     O15033   3.883   2.173   0.981  0.1003 -0.2832 -0.1558
  112MOL0     C15034   3.677   2.387   1.158  0.2851  1.1137  1.0323
  112MOL0     C15035   3.548   2.410   1.202 -0.5917 -0.8394  0.1612
  112MOL0     N15036   2.893   2.501   1.590 -0.4215 -0.0773  0.6384
  112MOL0     N15037   2.897   2.500   1.717 -0.0965  0.3648 -0.8316
  112MOL0     C15038   3.486   2.878   2.451  0.8335 -0.2790  0.2224
  112MOL0     C15039   3.625   2.878   2.473 -0.0048  0.5201 -0.7994
  112MOL0     C15040   3.993   2.926   2.747 -1.3190  0.0468  0.6110
  112MOL0     C15041   4.042   3.040   2.817 -0.3499 -0.3603 -0.9054
  112MOL0     C15042   4.157   3.027   2.889 -0.4319 -0.3231 -0.5782
  112MOL0     C15043   4.233   2.913   2.892  0.8441  0.5523 -0.2739
  112MOL0     O15044   4.340   2.906   2.973  0.4598 -0.2266  0.0991
  112MOL0     C15045   4.331   2.801   3.073  0.8779  0.7611  0.8266
  112MOL0     C15046   4.457   2.793   3.150  0.3431  0.8596  0.0718
  112MOL0     C15047   4.465   2.890   3.266 -0.0342 -0.4493  0.1732
  112MOL0     C15048   4.511   3.029   3.211 -1.1818 -0.6130 -0.6286
  112MOL0     C15049   4.647   3.023   3.138 -0.9113 -0.5716 -0.0095
  112MOL0     C15050   4.757   3.013   3.087  0.3209  0.4427 -0.3390
  112MOL0     C15051   4.185   2.807   2.821 -0.4861  0.0253 -0.2819
  112MOL0     C15052   4.067   2.804   2.759 -0.2273  0.0885  0.3260
  112MOL0     H15053   3.632   2.690   2.761  0.3521  1.0056  0.4301
  112MOL0     H15054   3.377   2.684   2.700  1.1032 -0.9348 -1.5309
  112MOL0     H15055   3.205   2.667   2.644  2.1942  0.7997  0.5996
  112MOL0     H15056   3.081   2.728   2.528  1.0230  0.1552 -1.3336
  112MOL0     H15057   3.320   2.593   2.406  0.2002 -0.7963  0.2364
  112MOL0     H15058   3.166   2.516   2.452 -0.3708 -0.8246 -1.8764
  112MOL0     H15059   3.046   2.703   2.303 -0.4922 -0.0963 -2.2564
  112MOL0     H15060   3.207   2.750   2.247 -1.4709 -1.3650 -1.4566
  112MOL0     H15061   3.243   2.511   2.176 -0.3185 -1.2997 -0.5993
  112MOL0     H15062   3.065   2.494   2.194 -0.0215 -0.5676 -0.6216
  112MOL0     H15063   3.024   2.639   2.011  0.6840  1.3576 -0.1012
  112MOL0     H15064   3.193   2.697   2.006 -0.1987  0.6896  2.0080
  112MOL0     H15065   3.197   2.533   1.830 -3.1178  2.3402  0.8309
  112MOL0     H15066   3.292   2.473   1.965  0.5582 -0.2828 -0.4198
  112MOL0     H15067   3.172   2.291   1.874 -3.6797 -3.2393 -0.9841
  112MOL0     H15068   3.118   2.316   2.039  0.4769  0.4101 -0.2611
  112MOL0     H15069   2.924   2.438   1.963 -0.0900 -1.2691  2.7872
  112MOL0     H15070   2.911   2.273   1.941 -3.8686  1.6229 -0.1970
  112MOL0     H15071   3.076   2.240   1.632  3.8641  4.0213 -1.2854
  112MOL0     H15072   3.058   2.267   1.401 -1.7281 -1.1983  1.9695
  112MOL0     H15073   2.903   2.337   1.345 -0.6757 -1.6805  1.1251
  112MOL0     H15074   3.168   2.505   1.366  0.7538 -0.8801 -0.6176
  112MOL0     H15075   3.006   2.566   1.325  0.8375  0.7704 -0.8109
  112MOL0     H15076   3.111   2.521   1.098  0.2034 -1.2761 -0.2532
  112MOL0     H15077   2.998   2.406   1.126 -1.1475  1.6490 -1.7491
  112MOL0     H15078   3.215   2.314   1.042 -0.9234 -1.9011  0.2661
  112MOL0     H15079   3.196   2.247   1.204 -0.6614 -0.4604 -1.6642
  112MOL0     H15080   3.378   2.187   1.000  1.1657 -1.9206 -0.2193
  112MOL0     H15081   3.521   2.144   0.800 -1.2675  0.1447  1.4256
  112MOL0     H15082   3.685   2.165   0.809  0.1603  1.6210  0.2860
  112MOL0     H15083   3.617   2.040   0.911 -1.4554 -0.1708 -0.3986
  112MOL0     H15084   4.070   2.597   1.035  0.0058  0.4976 -2.0368
  112MOL0     H15085   4.307   2.626   0.946 -0.7812  0.8706 -0.2157
  112MOL0     H15086   4.537   2.591   0.858 -1.8097  3.0389  2.4714
  112MOL0     H15087   4.540   2.542   1.025 -1.3424  1.0235 -0.7579
  112MOL0     H15088   4.701   2.360   0.971  0.6475 -1.6871 -2.7497
  112MOL0     H15089   4.709   2.427   0.804  0.3019 -0.9868  0.1817
  112MOL0     H15090   4.760   2.590   1.058  3.5517 -2.8443  3.0351
  112MOL0     H15091   4.798   2.638   0.894  0.6600 -0.5099 -0.1886
  112MOL0     H15092   4.934   2.388   1.012 -2.6092 -1.8270 -2.6610
  112MOL0     H15093   4.976   2.472   0.877 -0.0424  1.0143  0.3411
  112MOL0     H15094   4.977   2.597   1.163 -1.6566 -0.4573  0.4176
  112MOL0     H15095   5.006   2.685   1.005  1.8742  0.4946  1.0270
  112MOL0     H15096   5.168   2.435   1.091  2.1421  0.6867 -1.5343
  112MOL0     H15097   5.208   2.577   0.988  0.8100  0.3988  0.4574
  112MOL0     H15098   5.166   2.601   1.290  2.5489 -0.9836  0.5103
  112MOL0     H15099   5.224   2.725   1.183  2.8301  0.8736 -1.4160
  112MOL0     H15100   5.364   2.449   1.225 -0.6071 -0.5515 -2.1205
  112MOL0     H15101   5.393   2.591   1.322  2.4442  0.6805 -0.5501
  112MOL0     H15102   4.306   2.214   0.838  1.2365  0.3728  0.3253
  112MOL0     H15103   4.066   2.207   0.851 -0.0161 -0.1454  0.9918
  112MOL0     H15104   3.766   2.439   1.193  0.2403  3.4720 -2.0004
  112MOL0     H15105   3.534   2.470   1.291 -1.5427 -0.8692  0.0432
  112MOL0     H15106   3.442   2.934   2.370 -1.7598  0.3210  1.9240
  112MOL0     H15107   3.692   2.941   2.415 -0.5795 -0.9598 -3.2046
  112MOL0     H15108   3.987   3.133   2.807 -0.7421 -0.6794 -1.8380
  112MOL0     H15109   4.200   3.108   2.947  2.6992 -1.5613 -0.9767
  112MOL0     H15110   4.256   2.806   3.152 -0.5935 -0.1640 -0.4505
  112MOL0     H15111   4.325   2.709   3.014  2.6358  1.3117 -0.2960
  112MOL0     H15112   4.541   2.809   3.081  1.0128  1.3902  0.9934
  112MOL0     H15113   4.466   2.689   3.181  0.1282 -0.1246 -2.8704
  112MOL0     H15114   4.536   2.843   3.334  2.2129  0.2319 -1.5572
  112MOL0     H15115   4.372   2.888   3.323  0.4345 -2.5865  0.9660
  112MOL0     H15116   4.516   3.098   3.295 -0.3145  0.6637 -1.6934
  112MOL0     H15117   4.445   3.086   3.145 -1.8132  1.7568  1.8684
  112MOL0     H15118   4.851   2.981   3.047  0.6728  0.2683  0.6036
  112MOL0     H15119   4.260   2.729   2.814 -1.3310 -0.7446 -1.0851
  112MOL0     H15120   4.037   2.707   2.719  1.7311 -0.4445  0.0674
  113MOL0     O15121   1.760   8.762   6.265 -0.0000 -0.3057  0.4289
  113MOL0     C15122   1.716   8.658   6.216  0.7690  0.3331 -0.4939
  113MOL0     O15123   1.578   8.626   6.197 -0.0039  0.0472  0.6310
  113MOL0     C15124   1.478   8.720   6.213  0.1848  0.3363  0.2661
  113MOL0     C15125   1.350   8.666   6.178 -0.5256 -0.0120  0.3604
  113MOL0     C15126   1.245   8.763   6.154  0.1023  0.0842  0.4671
  113MOL0     C15127   1.264   8.894   6.191  0.1346 -0.1688 -0.7084
  113MOL0     O15128   1.162   8.982   6.160  0.2818  0.4690 -0.4504
  113MOL0     C15129   1.120   9.071   6.264 -1.0164  0.1793 -0.0663
  113MOL0     C15130   1.028   9.183   6.197  0.5220 -0.6888 -0.2434
  113MOL0     C15131   0.876   9.163   6.218  0.3848 -0.6578 -0.1308
  113MOL0     C15132   0.808   9.253   6.107 -0.6081  0.3009 -0.3908
  113MOL0     C15133   0.661   9.255   6.160 -0.2677 -0.3873 -0.3589
  113MOL0     C15134   0.633   9.347   6.287  0.7179 -0.1147  0.1719
  113MOL0     C15135   0.663   9.498   6.273 -0.7916  0.1113  0.3864
  113MOL0     C15136   0.621   9.561   6.137 -0.2229 -0.4098  0.2097
  113MOL0     N15137   0.475   9.597   6.125 -0.7847  0.0806 -0.0060
  113MOL0     C15138   0.377   9.507   6.171 -0.3132  0.5331  0.7148
  113MOL0     C15139   0.263   9.583   6.194 -0.1941  0.1036  0.6651
  113MOL0     C15140   0.137   9.526   6.241 -0.0628  1.3152 -0.1912
  113MOL0     C15141   0.094   9.389   6.182  0.0163 -0.5384  0.1548
  113MOL0     C15142  -0.035   9.350   6.237 -0.0218 -0.1021 -0.2120
  113MOL0     C15143  -0.158   9.423   6.173  0.6556 -0.4647 -0.6190
  113MOL0     O15144  -0.150   9.432   6.026 -0.3392  0.1853 -0.6401
  113MOL0     C15145  -0.216   9.541   5.976 -0.2208 -0.2350 -0.1637
  113MOL0     C15146  -0.146   9.656   5.948  0.2597  0.0408  0.3228
  113MOL0     C15147  -0.206   9.772   5.887 -0.6066 -0.1358 -0.9845
  113MOL0     C15148  -0.112   9.896   5.885 -0.2499 -0.1404  0.4486
  113MOL0     C15149  -0.343   9.775   5.863 -0.1726  0.3621 -0.7588
  113MOL0     C15150  -0.417   9.886   5.813 -0.0793  0.2808  0.1816
  113MOL0     O15151  -0.531   9.868   5.737  0.2245  0.2547 -0.5267
  113MOL0     C15152  -0.608   9.968   5.705  0.4577  0.5019 -0.4337
  113MOL0     C15153  -0.725   9.985   5.785  0.8400  0.9044 -0.4319
  113MOL0     C15154  -0.816  10.096   5.753 -1.0915  0.9266 -0.6785
  113MOL0     C15155  -0.762  10.187   5.664 -0.0398  0.1506 -0.3286
  113MOL0     O15156  -0.825  10.299   5.631 -0.9742 -0.0268  0.4936
  113MOL0     C15157  -0.920  10.346   5.734  0.5439  0.1594 -0.6003
  113MOL0     C15158  -0.971  10.490   5.695  0.0433 -0.5823 -0.3956
  113MOL0     C15159  -1.083  10.542   5.781  0.3262 -0.3527 -0.8448
  113MOL0     C15160  -1.220  10.499   5.738  0.2023  0.0549  0.4203
  113MOL0     C15161  -1.332  10.563   5.828  0.0630 -0.8151  0.4471
  113MOL0     C15162  -1.341  10.715   5.812  0.1379  0.0813 -0.4407
  113MOL0     C15163  -1.437  10.769   5.915  0.9663 -0.1975  0.1335
  113MOL0     C15164  -1.578  10.704   5.891 -0.6782 -0.3715  0.4223
  113MOL0    Cl15165  -1.695  10.785   5.989  0.1835 -0.0980  0.2655
  113MOL0     C15166  -0.647  10.159   5.585  0.0910 -0.1862 -0.9803
  113MOL0     C15167  -0.576  10.050   5.598 -0.3200 -0.4981 -0.3461
  113MOL0     O15168  -0.378   9.998   5.849  0.6034 -0.7903 -0.0989
  113MOL0     C15169  -0.418   9.653   5.879 -0.0875  0.0019 -0.2282
  113MOL0     C15170  -0.351   9.537   5.930 -0.6097 -0.1216  0.4236
  113MOL0     N15171   0.291   9.713   6.148 -0.4943  0.4737  0.2336
  113MOL0     N15172   0.422   9.725   6.130  0.7452  1.0003  0.1450
  113MOL0     C15173   1.383   8.937   6.249  0.2344 -0.2343  0.1334
  113MOL0     C15174   1.490   8.853   6.252  0.3246 -0.3158 -0.7392
  113MOL0     C15175   1.818   8.562   6.160 -0.5578 -0.1209 -0.4118
  113MOL0     C15176   1.814   8.487   6.039 -0.0332 -0.7475  0.4189
  113MOL0     C15177   1.917   8.401   6.001  0.1066 -0.0578 -0.0183
  113MOL0     C15178   2.024   8.379   6.082  0.0167 -0.7635 -0.9427
  113MOL0     O15179   2.125   8.292   6.044 -0.5293 -0.4786 -0.0716
  113MOL0     C15180   2.180   8.321   5.913 -0.5166  0.6437 -0.0234
  113MOL0     C15181   2.167   8.208   5.822  0.4206  0.2162  0.9986
  113MOL0     C15182   2.174   8.059   5.865  0.4268 -0.0924 -0.7543
  113MOL0     C15183   2.153   7.953   5.757 -0.2365  0.0381  0.3543
  113MOL0     C15184   2.009   7.932   5.740  0.1165  0.1823 -0.0454
  113MOL0     C15185   1.895   7.894   5.721  0.2176 -0.4416 -0.9281
  113MOL0     C15186   2.027   8.442   6.205  0.3856  0.4601 -0.0140
  113MOL0     C15187   1.932   8.538   6.236 -0.3678 -0.4083  0.0333
  113MOL0     H15188   1.356   8.558   6.164 -1.4229 -0.6106  3.6669
  113MOL0     H15189   1.157   8.725   6.104 -0.9028  1.5022  1.0963
  113MOL0     H15190   1.083   9.031   6.359  1.1914 -1.3829  0.2240
  113MOL0     H15191   1.207   9.131   6.293 -1.3513  0.3223  0.6579
  113MOL0     H15192   1.051   9.279   6.243 -1.1992 -1.3560  2.2420
  113MOL0     H15193   1.045   9.177   6.089 -2.5788 -2.9168 -0.7376
  113MOL0     H15194   0.844   9.060   6.204  0.5330 -0.3321 -3.7091
  113MOL0     H15195   0.846   9.173   6.323  1.0016 -1.2573  0.1131
  113MOL0     H15196   0.849   9.354   6.112 -1.1864  0.5832 -1.2348
  113MOL0     H15197   0.824   9.198   6.014  0.3014 -0.8697  0.4225
  113MOL0     H15198   0.602   9.283   6.072 -1.4960 -0.5553  0.3779
  113MOL0     H15199   0.623   9.161   6.202 -2.2828  0.9395  1.0166
  113MOL0     H15200   0.526   9.332   6.306  0.9046 -0.3756  1.0576
  113MOL0     H15201   0.682   9.307   6.376  1.7966  0.8717  0.0470
  113MOL0     H15202   0.628   9.571   6.347  2.9446 -0.3974  2.9331
  113MOL0     H15203   0.771   9.513   6.282 -0.9400  1.6150 -0.0218
  113MOL0     H15204   0.651   9.505   6.048  0.8481  1.0183 -0.3778
  113MOL0     H15205   0.671   9.658   6.126  1.1688 -1.3754 -2.9246
  113MOL0     H15206   0.385   9.400   6.190 -0.8352  0.3976  0.1998
  113MOL0     H15207   0.143   9.524   6.350  1.6015  0.7347 -0.2672
  113MOL0     H15208   0.058   9.596   6.213 -0.5718 -0.3086 -3.2431
  113MOL0     H15209   0.173   9.316   6.200 -0.3851 -0.4774  2.4657
  113MOL0     H15210   0.099   9.398   6.073  2.9585  1.2305  0.3323
  113MOL0     H15211  -0.030   9.362   6.346  2.2878 -1.4318 -0.1086
  113MOL0     H15212  -0.052   9.245   6.213  2.2099  0.0350 -2.8839
  113MOL0     H15213  -0.162   9.523   6.217  1.4232 -0.8978  0.4775
  113MOL0     H15214  -0.244   9.364   6.205  1.8324  0.3851  5.1873
  113MOL0     H15215  -0.042   9.652   5.976  0.0430 -2.0441  1.0210
  113MOL0     H15216  -0.117   9.939   5.784  2.2440 -1.9488 -0.5543
  113MOL0     H15217  -0.121   9.974   5.961  1.5559 -0.6006  1.1846
  113MOL0     H15218  -0.009   9.861   5.885 -0.6512 -1.3884 -0.6717
  113MOL0     H15219  -0.746   9.915   5.865  1.6338  1.7825  0.5753
  113MOL0     H15220  -0.913  10.094   5.803 -1.3887 -1.3372 -1.2273
  113MOL0     H15221  -1.007  10.280   5.729  0.3187  0.2087  1.7584
  113MOL0     H15222  -0.880  10.334   5.835 -1.2934 -0.3859  0.1013
  113MOL0     H15223  -0.884  10.555   5.705 -1.2086  1.0625  0.3671
  113MOL0     H15224  -0.998  10.490   5.589  0.3922 -1.1060 -0.4857
  113MOL0     H15225  -1.073  10.650   5.794 -0.7856 -0.5961  3.9409
  113MOL0     H15226  -1.064  10.505   5.882  1.1908  1.4082 -0.3230
  113MOL0     H15227  -1.230  10.536   5.635  4.1043 -0.7191 -0.3791
  113MOL0     H15228  -1.237  10.391   5.740 -1.9972  0.3659  0.8164
  113MOL0     H15229  -1.315  10.536   5.933  0.9669 -0.0404  0.5137
  113MOL0     H15230  -1.429  10.518   5.806 -1.5972  3.0846 -0.9575
  113MOL0     H15231  -1.247  10.763   5.839 -0.2940 -1.1527  4.1611
  113MOL0     H15232  -1.371  10.743   5.710 -0.0043  3.4693  0.4371
  113MOL0     H15233  -1.465  10.873   5.899 -1.4403 -0.9586 -1.0875
  113MOL0     H15234  -1.398  10.763   6.017  0.0546  0.9266  0.5677
  113MOL0     H15235  -1.580  10.598   5.918 -3.7190 -0.9190 -1.4337
  113MOL0     H15236  -1.624  10.722   5.793 -2.1622 -0.9717  0.9719
  113MOL0     H15237  -0.618  10.240   5.518 -2.4538 -0.7449 -2.9403
  113MOL0     H15238  -0.483  10.048   5.542  1.1961  1.4021  1.9071
  113MOL0     H15239  -0.524   9.657   5.853 -0.1639  2.3328  0.2421
  113MOL0     H15240  -0.412   9.447   5.939 -0.3420 -0.5951 -1.8307
  113MOL0     H15241   1.381   9.038   6.289 -2.0720  0.1500 -0.7712
  113MOL0     H15242   1.576   8.904   6.295 -1.5877  1.2375  1.5229
  113MOL0     H15243   1.730   8.506   5.973 -1.4927  0.7384  2.5962
  113MOL0     H15244   1.891   8.356   5.905  0.3554 -0.5814  0.1623
  113MOL0     H15245   2.148   8.415   5.867 -2.1244  1.6630  2.8781
  113MOL0     H15246   2.288   8.335   5.925 -0.4971  0.2890  0.2197
  113MOL0     H15247   2.253   8.219   5.755 -0.8996 -2.6145 -1.4091
  113MOL0     H15248   2.082   8.226   5.755  0.7092 -0.3222  0.4847
  113MOL0     H15249   2.116   8.043   5.956 -0.0384  3.0382 -0.3856
  113MOL0     H15250   2.275   8.050   5.905  0.3284 -1.1330 -0.7100
  113MOL0     H15251   2.198   7.865   5.804 -0.1970 -0.3110 -0.3236
  113MOL0     H15252   2.206   7.982   5.666 -1.2130 -0.2599 -0.3210
  113MOL0     H15253   1.796   7.854   5.725 -0.7092  1.7474 -0.4845
  113MOL0     H15254   2.121   8.429   6.258  1.2515 -3.1657 -2.1086
  113MOL0     H15255   1.949   8.596   6.326 -3.4320 -0.7582  0.9506
  114MOL0     O15256  11.272   6.727   2.383 -0.0513  0.4573 -0.1298
  114MOL0     C15257  11.321   6.707   2.273  0.9670  0.3242  0.3499
  114MOL0     O15258  11.257   6.646   2.163  0.0346  0.7181  0.3621
  114MOL0     C15259  11.127   6.603   2.196  0.2864 -0.1495 -0.9151
  114MOL0     C15260  11.020   6.697   2.224  0.0290 -1.1238  0.3250
  114MOL0     C15261  10.887   6.658   2.241 -0.4667  0.3324  0.3895
  114MOL0     C15262  10.857   6.516   2.230  0.6838 -0.0740  0.2092
  114MOL0     O15263  10.733   6.453   2.218  0.2851  0.0653 -0.2270
  114MOL0     C15264  10.616   6.530   2.194 -0.4762  0.0555 -0.1624
  114MOL0     C15265  10.493   6.449   2.167  0.8952 -0.0963  0.0192
  114MOL0     C15266  10.409   6.422   2.295  0.1831 -0.1577 -0.1437
  114MOL0     C15267  10.261   6.388   2.261 -0.3384 -0.3316 -0.3400
  114MOL0     C15268  10.226   6.242   2.244  0.7778  1.0081  0.2951
  114MOL0     C15269  10.075   6.233   2.230  0.6177  0.8462 -0.2943
  114MOL0     C15270  10.050   6.095   2.164  1.1061 -0.4277 -0.1816
  114MOL0     C15271   9.897   6.070   2.129  0.0633  0.0232 -0.0326
  114MOL0     N15272   9.881   5.923   2.108  0.0516  0.5158  0.2671
  114MOL0     C15273   9.760   5.856   2.104  0.0957 -0.0507 -0.4829
  114MOL0     C15274   9.779   5.732   2.037 -0.1915  0.0142 -0.0927
  114MOL0     C15275   9.676   5.619   2.013 -0.3756 -0.4929  0.2451
  114MOL0     C15276   9.694   5.544   1.884 -0.5686  0.2290  0.1697
  114MOL0     C15277   9.601   5.428   1.855 -0.3577  0.1964 -0.3557
  114MOL0     C15278   9.452   5.465   1.847 -0.2525  0.6375  0.6813
  114MOL0     O15279   9.388   5.451   1.973 -0.5241  0.1098  0.9583
  114MOL0     C15280   9.278   5.526   2.005 -0.2353  0.1084 -0.3266
  114MOL0     C15281   9.268   5.574   2.132  0.8654  1.0180  1.1166
  114MOL0     C15282   9.157   5.660   2.183 -0.0820  0.9538  0.4445
  114MOL0     C15283   9.164   5.706   2.326 -0.3932  0.0461 -1.0647
  114MOL0     C15284   9.061   5.707   2.089 -0.3911 -0.6289 -0.0381
  114MOL0     C15285   8.926   5.764   2.123  0.6730 -0.0214 -0.3098
  114MOL0     O15286   8.882   5.764   2.250  0.7594 -0.0484  0.2661
  114MOL0     C15287   8.747   5.794   2.277 -0.6768 -0.0594  0.3044
  114MOL0     C15288   8.717   5.914   2.336 -0.0020 -0.9284 -0.1791
  114MOL0     C15289   8.583   5.959   2.352  0.5472  0.6118 -0.1749
  114MOL0     C15290   8.478   5.880   2.297  0.0829  0.4895 -0.1180
  114MOL0     O15291   8.344   5.918   2.295 -0.4242  0.4698 -0.3967
  114MOL0     C15292   8.300   6.015   2.385 -0.0029 -0.4507 -0.1618
  114MOL0     C15293   8.152   6.029   2.370  0.0750  0.0928 -0.4310
  114MOL0     C15294   8.077   5.902   2.403 -1.2214  0.8108  1.3650
  114MOL0     C15295   7.932   5.916   2.468 -0.5780 -0.2405 -0.0928
  114MOL0     C15296   7.937   5.955   2.618 -0.2045  0.4199  0.1133
  114MOL0     C15297   7.820   6.045   2.656  1.1427 -0.0680  0.3268
  114MOL0     C15298   7.696   5.955   2.649  1.5952  0.1926 -0.3073
  114MOL0     C15299   7.570   6.043   2.607 -1.1857 -0.7262 -0.2205
  114MOL0    Cl15300   7.422   5.956   2.636  0.2123 -0.2772  0.0657
  114MOL0     C15301   8.516   5.760   2.239  0.5203  0.3412  0.5862
  114MOL0     C15302   8.645   5.720   2.221 -0.5790 -0.0942  0.3961
  114MOL0     O15303   8.864   5.809   2.029  0.3378  0.1966  0.7045
  114MOL0     C15304   9.088   5.662   1.956  1.2443  0.4850  0.8316
  114MOL0     C15305   9.194   5.578   1.908 -0.7922  0.1093  0.2926
  114MOL0     N15306   9.907   5.737   1.986 -0.4745  0.3475 -0.5089
  114MOL0     N15307   9.959   5.851   2.021 -0.5068  0.3576  0.0880
  114MOL0     C15308  10.960   6.430   2.199 -0.9403  0.8944  0.3493
  114MOL0     C15309  11.092   6.472   2.181  0.1831  0.0179  0.0797
  114MOL0     C15310  11.465   6.726   2.266  0.5469  0.5410 -0.3626
  114MOL0     C15311  11.532   6.792   2.366 -0.1954  0.6368 -0.5323
  114MOL0     C15312  11.674   6.809   2.353 -0.1508 -0.4253  0.3083
  114MOL0     C15313  11.740   6.756   2.248 -0.7245  0.0969 -0.4967
  114MOL0     O15314  11.879   6.754   2.234 -0.2529 -0.6296  0.4376
  114MOL0     C15315  11.936   6.794   2.105 -0.2406 -0.3506 -0.7529
  114MOL0     C15316  12.076   6.837   2.125 -0.3263  0.2795  0.0908
  114MOL0     C15317  12.119   6.916   2.003  0.7700 -0.2718  0.7803
  114MOL0     C15318  12.268   6.969   1.994  0.1872  0.5316 -0.1630
  114MOL0     C15319  12.316   7.053   2.103 -0.2997  0.8532 -0.3269
  114MOL0     C15320  12.360   7.112   2.200  0.8755 -0.5446 -0.3471
  114MOL0     C15321  11.669   6.693   2.146 -0.2480 -0.9136 -0.6390
  114MOL0     C15322  11.531   6.685   2.151 -0.0310 -0.3377 -0.1514
  114MOL0     H15323  11.037   6.804   2.215  0.6905 -1.3763 -1.8812
  114MOL0     H15324  10.817   6.741   2.246  0.6169  1.3992 -1.1819
  114MOL0     H15325  10.591   6.593   2.280  1.2436 -0.5127  0.8293
  114MOL0     H15326  10.637   6.604   2.116 -1.3772  1.3279  0.7712
  114MOL0     H15327  10.429   6.513   2.105 -0.0719  0.7589  1.8239
  114MOL0     H15328  10.509   6.358   2.109 -0.2175 -1.9291  2.4582
  114MOL0     H15329  10.459   6.344   2.352 -0.4000 -0.6906 -0.3457
  114MOL0     H15330  10.395   6.515   2.352 -1.9544 -0.9166  0.6691
  114MOL0     H15331  10.202   6.411   2.351  0.2293 -3.5079  0.9764
  114MOL0     H15332  10.234   6.448   2.174  0.9829 -1.2441 -1.4090
  114MOL0     H15333  10.276   6.220   2.149 -0.6807  0.5299 -0.3934
  114MOL0     H15334  10.246   6.178   2.331 -1.8209 -0.7054 -0.2465
  114MOL0     H15335  10.017   6.225   2.322 -0.1750 -0.6741 -0.8882
  114MOL0     H15336  10.046   6.307   2.155  1.4219  0.3973 -1.0856
  114MOL0     H15337  10.119   6.079   2.080  1.5374  0.3831  0.0088
  114MOL0     H15338  10.077   6.018   2.237  2.3915  0.5568  0.4194
  114MOL0     H15339   9.866   6.113   2.034 -0.8527 -3.0344 -1.2438
  114MOL0     H15340   9.824   6.099   2.206  0.3598  0.6172  0.0340
  114MOL0     H15341   9.664   5.882   2.149 -0.2572  0.2692 -1.3981
  114MOL0     H15342   9.695   5.547   2.093 -2.2247  1.0891  2.2544
  114MOL0     H15343   9.576   5.662   2.027 -0.5068 -1.0534  1.1121
  114MOL0     H15344   9.793   5.498   1.886 -0.7124 -0.0940 -0.0109
  114MOL0     H15345   9.689   5.609   1.796 -1.8477 -1.0352 -0.7452
  114MOL0     H15346   9.624   5.353   1.931 -1.4569 -0.2540 -0.4526
  114MOL0     H15347   9.630   5.382   1.761 -1.5233  3.8529 -2.7458
  114MOL0     H15348   9.393   5.408   1.776 -1.2141 -1.6670  3.1456
  114MOL0     H15349   9.442   5.571   1.824 -1.2055 -0.0485 -2.4615
  114MOL0     H15350   9.347   5.539   2.197  1.3539 -2.0372 -0.9059
  114MOL0     H15351   9.130   5.805   2.357 -0.8824 -0.9723  2.0394
  114MOL0     H15352   9.103   5.643   2.390  0.7411  0.8276  0.8832
  114MOL0     H15353   9.269   5.698   2.358 -0.0152 -2.8480 -2.7207
  114MOL0     H15354   8.798   5.975   2.377  1.3162 -3.1276  0.7021
  114MOL0     H15355   8.556   6.058   2.387  0.8648 -0.0277  1.9836
  114MOL0     H15356   8.325   5.965   2.479 -2.4428 -2.8316 -0.6526
  114MOL0     H15357   8.349   6.111   2.370  0.6168 -0.6613  0.4354
  114MOL0     H15358   8.106   6.101   2.437 -2.4748 -0.7666 -1.1273
  114MOL0     H15359   8.130   6.067   2.270 -0.8063  0.8315  0.0239
  114MOL0     H15360   8.137   5.839   2.469  0.5080  2.2937  1.2687
  114MOL0     H15361   8.071   5.842   2.312  2.2822  1.4965  0.5501
  114MOL0     H15362   7.874   5.991   2.414  0.5486  0.4130 -0.4377
  114MOL0     H15363   7.880   5.821   2.454 -2.2099  0.6733 -0.4544
  114MOL0     H15364   8.033   6.004   2.633  0.5633 -0.5629 -1.3119
  114MOL0     H15365   7.937   5.865   2.680 -1.7497  0.9486  0.9421
  114MOL0     H15366   7.833   6.065   2.763  0.6654 -1.3294  0.6426
  114MOL0     H15367   7.817   6.138   2.599 -0.6235 -0.2405  0.0708
  114MOL0     H15368   7.651   5.914   2.740  0.6546 -0.7591 -1.1730
  114MOL0     H15369   7.709   5.880   2.572 -3.0716  0.6943 -1.9096
  114MOL0     H15370   7.586   6.081   2.506  5.2071 -1.1281  0.2488
  114MOL0     H15371   7.564   6.137   2.664  0.1980  0.4443 -1.8921
  114MOL0     H15372   8.433   5.698   2.205 -0.4215  0.6208  2.2423
  114MOL0     H15373   8.674   5.630   2.168  1.0163  0.4052  0.3954
  114MOL0     H15374   9.032   5.698   1.871  0.7131 -5.0172 -1.6169
  114MOL0     H15375   9.193   5.555   1.802  0.3099 -1.3262  0.5624
  114MOL0     H15376  10.935   6.325   2.182 -2.6972  1.4853 -0.9926
  114MOL0     H15377  11.170   6.401   2.156 -0.5552 -0.0396 -2.3217
  114MOL0     H15378  11.484   6.815   2.461 -1.7844 -0.7500 -0.9465
  114MOL0     H15379  11.720   6.851   2.441  3.1555 -3.1009  0.0890
  114MOL0     H15380  11.949   6.711   2.035  1.5521  0.2334 -1.1568
  114MOL0     H15381  11.879   6.875   2.058 -1.2952 -0.9770 -0.5848
  114MOL0     H15382  12.145   6.753   2.136  1.3516  1.4289 -1.1074
  114MOL0     H15383  12.095   6.897   2.214  2.2346 -1.0007  0.5086
  114MOL0     H15384  12.051   7.001   2.012  2.6767  1.4385 -0.1851
  114MOL0     H15385  12.104   6.852   1.915  0.8168 -0.3506  0.8294
  114MOL0     H15386  12.272   7.037   1.909 -1.4834  0.9791  0.0760
  114MOL0     H15387  12.336   6.892   1.955 -1.3522 -0.4871 -0.9757
  114MOL0     H15388  12.386   7.170   2.287  1.6161  0.0945 -0.9795
  114MOL0     H15389  11.721   6.671   2.053 -0.6766 -2.1144 -0.6112
  114MOL0     H15390  11.474   6.626   2.080 -0.8338  1.1644 -0.8103
  115MOL0     O15391   8.950   6.507   5.684  0.3589  0.3250 -0.0152
  115MOL0     C15392   8.927   6.571   5.790  0.6905 -0.2477 -0.3119
  115MOL0     O15393   8.826   6.666   5.802  0.0270 -0.6163  0.4167
  115MOL0     C15394   8.699   6.665   5.737  0.1820 -0.1946 -0.1793
  115MOL0     C15395   8.651   6.577   5.640 -0.0536 -0.5690 -0.5907
  115MOL0     C15396   8.529   6.597   5.569 -0.4486 -0.5696 -1.2389
  115MOL0     C15397   8.455   6.709   5.601  0.0181  0.5436 -0.5934
  115MOL0     O15398   8.341   6.754   5.538 -0.1587  0.0098 -0.0519
  115MOL0     C15399   8.279   6.667   5.434  0.7930 -0.2317 -0.4732
  115MOL0     C15400   8.135   6.651   5.460  0.4212  0.6326 -0.6997
  115MOL0     C15401   8.066   6.783   5.459 -0.4618 -0.2877  0.8140
  115MOL0     C15402   7.922   6.770   5.509  0.0512 -0.6261 -0.6783
  115MOL0     C15403   7.810   6.814   5.407 -0.7214  0.3494  0.2592
  115MOL0     C15404   7.675   6.826   5.474 -1.1915  0.9449  0.1242
  115MOL0     C15405   7.564   6.863   5.380 -0.5787 -0.0071  0.3907
  115MOL0     C15406   7.427   6.895   5.442 -0.8452  0.1982  0.1936
  115MOL0     N15407   7.324   6.896   5.338 -0.1873 -0.3023  0.3439
  115MOL0     C15408   7.251   6.991   5.278  0.3087 -0.1269 -0.4226
  115MOL0     C15409   7.162   6.930   5.194  0.2587  0.5122 -0.5012
  115MOL0     C15410   7.050   6.980   5.107  0.7307 -0.1685 -0.6749
  115MOL0     C15411   6.911   6.903   5.129 -0.3495  0.2180 -0.1307
  115MOL0     C15412   6.812   6.932   5.017  0.4383 -0.1176 -0.0386
  115MOL0     C15413   6.689   6.847   5.039  0.2581  0.4609 -0.1707
  115MOL0     O15414   6.603   6.858   4.926  0.1591 -0.5303  1.0341
  115MOL0     C15415   6.474   6.806   4.916  0.2750  0.2061 -0.4937
  115MOL0     C15416   6.416   6.837   4.800 -0.3473  0.7746  0.9999
  115MOL0     C15417   6.277   6.804   4.778 -0.2473 -0.1319  0.4564
  115MOL0     C15418   6.217   6.839   4.642  0.0920 -1.0982  0.1821
  115MOL0     C15419   6.189   6.744   4.878 -0.2495 -0.2007 -0.9018
  115MOL0     C15420   6.045   6.715   4.865 -0.0615  0.3669  0.4316
  115MOL0     O15421   5.967   6.699   4.977 -0.5147  0.2194 -0.4555
  115MOL0     C15422   5.830   6.707   4.968  0.3118 -0.1673  0.8152
  115MOL0     C15423   5.754   6.618   5.050 -1.2799  0.3316 -0.9798
  115MOL0     C15424   5.619   6.633   5.051 -0.2648 -0.4425 -0.6849
  115MOL0     C15425   5.557   6.724   4.967  0.0846 -0.6899  0.7457
  115MOL0     O15426   5.421   6.740   4.970  0.4517  0.9401 -0.4426
  115MOL0     C15427   5.339   6.622   4.933 -0.1488 -1.1236  0.2400
  115MOL0     C15428   5.253   6.646   4.810 -0.0972  0.1518  0.0891
  115MOL0     C15429   5.324   6.696   4.695 -0.1356  0.4955  1.0792
  115MOL0     C15430   5.248   6.659   4.563  0.6753 -0.2562  0.6359
  115MOL0     C15431   5.311   6.696   4.431 -0.4821 -0.2026  0.5281
  115MOL0     C15432   5.222   6.658   4.309 -0.2156 -0.2362  0.1823
  115MOL0     C15433   5.250   6.778   4.216 -0.3939  0.2841  0.6296
  115MOL0     C15434   5.161   6.779   4.094 -0.2415 -0.1031  0.0813
  115MOL0    Cl15435   4.990   6.830   4.150  0.2049 -0.3393 -0.2030
  115MOL0     C15436   5.629   6.784   4.866 -0.7009  0.2165  0.4559
  115MOL0     C15437   5.768   6.785   4.875  2.0044 -0.2876 -0.2008
  115MOL0     O15438   6.007   6.706   4.753 -0.2546 -0.0686  0.1354
  115MOL0     C15439   6.263   6.698   4.988 -0.3186 -0.4719  0.6358
  115MOL0     C15440   6.397   6.731   5.012  0.5250  0.0277  0.2414
  115MOL0     N15441   7.184   6.792   5.203 -0.1064 -0.0708  0.1205
  115MOL0     N15442   7.277   6.772   5.287 -0.0418 -0.2890  0.7363
  115MOL0     C15443   8.497   6.796   5.695  0.3123  0.2596 -0.2268
  115MOL0     C15444   8.615   6.775   5.769  0.3198  0.2629 -0.5160
  115MOL0     C15445   9.014   6.572   5.909  1.0493  0.5920  0.1933
  115MOL0     C15446   8.977   6.617   6.030 -0.0896  0.2943 -1.3858
  115MOL0     C15447   9.059   6.618   6.148  0.4929  0.4020  0.4303
  115MOL0     C15448   9.187   6.564   6.128 -0.3897  0.7906 -0.0140
  115MOL0     O15449   9.284   6.560   6.224 -0.4746  0.4152  0.4048
  115MOL0     C15450   9.241   6.568   6.363  0.1181  0.3225 -0.2675
  115MOL0     C15451   9.354   6.565   6.458  0.5097 -0.3727 -0.0506
  115MOL0     C15452   9.326   6.613   6.604  0.7186 -0.0654  0.4483
  115MOL0     C15453   9.440   6.575   6.706  0.5298  0.1349 -0.5108
  115MOL0     C15454   9.440   6.430   6.742  0.2704 -0.4889  0.1963
  115MOL0     C15455   9.428   6.306   6.751  0.2052 -0.0470  0.0020
  115MOL0     C15456   9.225   6.512   6.007 -0.4371 -0.4426  0.5279
  115MOL0     C15457   9.141   6.525   5.901  0.4281 -0.4829  0.4606
  115MOL0     H15458   8.712   6.492   5.609 -3.3309 -3.8497  1.1611
  115MOL0     H15459   8.512   6.527   5.487  2.9955 -2.0865 -0.8471
  115MOL0     H15460   8.285   6.723   5.341  0.1077  3.0314  1.3067
  115MOL0     H15461   8.322   6.566   5.433 -1.3659 -1.2052 -1.2363
  115MOL0     H15462   8.100   6.578   5.386  0.6455 -0.5661  0.3336
  115MOL0     H15463   8.109   6.603   5.555 -2.9789 -1.3975 -2.4256
  115MOL0     H15464   8.117   6.848   5.531 -1.6872 -2.1085  3.4943
  115MOL0     H15465   8.063   6.824   5.358 -1.1844 -1.2313  0.4421
  115MOL0     H15466   7.910   6.666   5.541  1.1034 -0.3173  0.8360
  115MOL0     H15467   7.922   6.830   5.600 -0.7796 -0.6198 -0.6773
  115MOL0     H15468   7.836   6.913   5.369  3.2140 -0.7265 -0.2885
  115MOL0     H15469   7.799   6.748   5.320  0.0547  0.7562 -0.1604
  115MOL0     H15470   7.649   6.723   5.504  1.0840  0.4582  0.5803
  115MOL0     H15471   7.673   6.883   5.568 -1.1693  0.5514  0.3689
  115MOL0     H15472   7.593   6.953   5.326  0.2863 -0.2974  0.3657
  115MOL0     H15473   7.552   6.785   5.305 -2.5130 -0.3708  1.0232
  115MOL0     H15474   7.418   6.987   5.500 -1.5692  0.5924 -0.5302
  115MOL0     H15475   7.400   6.813   5.510 -1.6873  1.0907  0.9681
  115MOL0     H15476   7.260   7.095   5.306 -1.7766 -0.4505  1.7508
  115MOL0     H15477   7.029   7.085   5.132 -0.8024 -0.0091 -2.4105
  115MOL0     H15478   7.081   6.973   5.002  3.3739 -2.7158  0.1519
  115MOL0     H15479   6.862   6.922   5.225  0.0573 -2.0800  0.6130
  115MOL0     H15480   6.930   6.796   5.117 -2.4205 -0.2482  0.3563
  115MOL0     H15481   6.857   6.909   4.920 -1.5494 -0.9293 -0.8186
  115MOL0     H15482   6.783   7.038   5.017  1.8350  0.3571 -2.5246
  115MOL0     H15483   6.633   6.883   5.125  0.4571  1.9521 -0.6283
  115MOL0     H15484   6.707   6.740   5.051 -0.9304  0.3101  0.3171
  115MOL0     H15485   6.471   6.893   4.724  0.5581 -2.4460 -0.8958
  115MOL0     H15486   6.268   6.916   4.583 -1.9047  0.6397  0.5717
  115MOL0     H15487   6.222   6.745   4.587 -0.0390 -0.9253 -0.1286
  115MOL0     H15488   6.119   6.887   4.650  0.8000  0.5543 -0.6518
  115MOL0     H15489   5.827   6.555   5.099 -1.3667 -0.6108 -1.9964
  115MOL0     H15490   5.556   6.583   5.123  0.6967 -0.8861 -0.1435
  115MOL0     H15491   5.401   6.533   4.924 -0.7209 -1.4121 -1.2845
  115MOL0     H15492   5.267   6.612   5.015 -0.4677  1.2554  0.3433
  115MOL0     H15493   5.212   6.548   4.783 -0.8561  0.1042  1.3333
  115MOL0     H15494   5.171   6.717   4.829 -0.5986 -0.0166 -1.3403
  115MOL0     H15495   5.419   6.645   4.675 -0.4044  0.0000  1.0506
  115MOL0     H15496   5.339   6.804   4.702  2.0842  0.0981  3.9986
  115MOL0     H15497   5.223   6.553   4.555 -0.3282 -0.0717  1.1988
  115MOL0     H15498   5.153   6.711   4.573 -0.8442 -2.7686  0.2066
  115MOL0     H15499   5.405   6.643   4.417 -1.1249 -1.2020 -0.1591
  115MOL0     H15500   5.342   6.801   4.436  1.7289 -0.8030  0.1568
  115MOL0     H15501   5.249   6.564   4.260  2.5318  0.4088  0.2840
  115MOL0     H15502   5.116   6.649   4.332  0.5864 -2.0202  3.9854
  115MOL0     H15503   5.354   6.778   4.180 -0.6226 -1.3990 -0.1012
  115MOL0     H15504   5.225   6.872   4.267 -2.0702  0.5167 -0.5615
  115MOL0     H15505   5.158   6.689   4.031  0.6776  2.0282 -3.2458
  115MOL0     H15506   5.187   6.863   4.030 -1.2202  0.6336  0.6251
  115MOL0     H15507   5.579   6.855   4.801 -0.8243  2.4251  2.8345
  115MOL0     H15508   5.821   6.862   4.820 -1.4926  1.3290 -1.6405
  115MOL0     H15509   6.207   6.653   5.069  0.8491 -2.2984  0.4887
  115MOL0     H15510   6.443   6.694   5.103 -2.1011 -1.9315  0.8579
  115MOL0     H15511   8.429   6.879   5.712 -0.5971 -0.0579 -2.0641
  115MOL0     H15512   8.643   6.840   5.852 -1.7084 -1.1769  1.3942
  115MOL0     H15513   8.874   6.647   6.044 -0.5419 -1.2925 -1.0473
  115MOL0     H15514   9.026   6.659   6.243 -1.9485 -3.1353  1.2987
  115MOL0     H15515   9.177   6.653   6.387  0.5419  1.0231 -1.5179
  115MOL0     H15516   9.171   6.488   6.389  0.7063 -0.2501 -0.4141
  115MOL0     H15517   9.437   6.624   6.417  0.5813  0.5279  1.3204
  115MOL0     H15518   9.385   6.460   6.464  0.8534 -0.2493  0.4076
  115MOL0     H15519   9.231   6.577   6.645  1.1040  1.9030  3.3634
  115MOL0     H15520   9.310   6.720   6.591  1.5951 -0.1083 -1.2329
  115MOL0     H15521   9.431   6.638   6.795  1.7752  1.1951 -1.0926
  115MOL0     H15522   9.539   6.604   6.668  0.1626  0.7078 -1.0474
  115MOL0     H15523   9.418   6.201   6.768 -0.4318  0.2179  1.4109
  115MOL0     H15524   9.328   6.481   5.990  0.1912  3.0351 -3.9262
  115MOL0     H15525   9.184   6.491   5.807 -1.3552 -1.0521 -0.1968
  116MOL0     O15526   0.762   0.858   3.263 -0.5708  0.3604  0.3570
  116MOL0     C15527   0.804   0.746   3.236  0.5491 -0.0193 -0.0285
  116MOL0     O15528   0.917   0.687   3.288 -0.6178  0.4083  0.6663
  116MOL0     C15529   1.012   0.748   3.365  0.3969 -0.4460  0.7449
  116MOL0     C15530   1.149   0.711   3.372 -0.5259  0.4284  0.0230
  116MOL0     C15531   1.258   0.764   3.440 -0.4842 -0.2726 -0.6416
  116MOL0     C15532   1.222   0.872   3.524  0.0596  0.0934 -0.2011
  116MOL0     O15533   1.327   0.919   3.604  0.4886 -0.0915  0.1867
  116MOL0     C15534   1.333   1.058   3.638  0.0028 -0.6317 -0.2263
  116MOL0     C15535   1.451   1.073   3.746  1.4025 -0.4255  0.1022
  116MOL0     C15536   1.430   1.023   3.888 -0.1396  0.9301 -0.2906
  116MOL0     C15537   1.305   1.074   3.954 -0.0344  0.7924  0.5404
  116MOL0     C15538   1.213   0.957   3.969 -0.0504  0.4841 -0.0285
  116MOL0     C15539   1.067   1.011   3.997 -0.3368  0.4713  0.3299
  116MOL0     C15540   0.987   0.993   3.866  0.9623 -0.3197  0.0148
  116MOL0     C15541   0.846   1.046   3.867  0.4494  0.3337 -0.1184
  116MOL0     N15542   0.758   1.002   3.766  0.3905 -0.4785  0.3322
  116MOL0     C15543   0.719   1.079   3.656 -0.1382  0.5263 -0.1281
  116MOL0     C15544   0.618   1.021   3.590 -0.0847 -0.0211  0.3039
  116MOL0     C15545   0.540   1.067   3.468  0.2368  0.0828  0.4104
  116MOL0     C15546   0.454   0.944   3.415 -0.0529 -0.1139 -1.2088
  116MOL0     C15547   0.394   0.976   3.278  0.1070 -0.4758 -0.6968
  116MOL0     C15548   0.315   0.855   3.227 -0.1290 -0.7138 -0.3264
  116MOL0     O15549   0.279   0.881   3.085  0.3278 -0.3023  0.0435
  116MOL0     C15550   0.216   0.778   3.013 -0.2207 -0.0019  0.0640
  116MOL0     C15551   0.219   0.782   2.879 -0.4057  0.7624  0.5596
  116MOL0     C15552   0.180   0.677   2.787 -0.4903  0.1402  0.3940
  116MOL0     C15553   0.207   0.701   2.636 -0.2699  0.1718  0.2614
  116MOL0     C15554   0.105   0.574   2.848  0.9268  0.0809  0.0811
  116MOL0     C15555   0.015   0.479   2.780  0.3425 -0.3319  0.4855
  116MOL0     O15556  -0.033   0.371   2.849  1.0690 -0.2532 -0.0007
  116MOL0     C15557  -0.148   0.309   2.806  0.1219  0.1635 -0.6059
  116MOL0     C15558  -0.154   0.169   2.806 -0.0898 -0.5074  0.1460
  116MOL0     C15559  -0.268   0.104   2.767  0.1658  0.8951  0.1135
  116MOL0     C15560  -0.388   0.170   2.746 -0.1340 -0.0866 -0.1109
  116MOL0     O15561  -0.495   0.087   2.747  1.2395  0.6740 -0.1909
  116MOL0     C15562  -0.621   0.141   2.757  0.3344  0.2508 -0.7378
  116MOL0     C15563  -0.707   0.019   2.758  1.3842 -0.0523  0.8657
  116MOL0     C15564  -0.854   0.065   2.733  0.6582 -0.4141  1.0833
  116MOL0     C15565  -0.942  -0.059   2.734 -1.0987  0.3732  0.0953
  116MOL0     C15566  -1.091  -0.026   2.704 -0.3551  0.3212 -0.1778
  116MOL0     C15567  -1.151   0.065   2.807  0.8297 -0.5869 -0.1459
  116MOL0     C15568  -1.304   0.062   2.794  0.5828  0.2064 -0.3123
  116MOL0     C15569  -1.366  -0.060   2.849 -0.0731  0.6865  0.7527
  116MOL0    Cl15570  -1.323  -0.087   3.016 -0.2218  0.2478  0.0912
  116MOL0     C15571  -0.393   0.306   2.760 -0.0746 -0.6322 -0.0052
  116MOL0     C15572  -0.270   0.382   2.779 -0.1876  0.7664 -0.1887
  116MOL0     O15573   0.005   0.491   2.657 -0.6651 -0.4970  0.0677
  116MOL0     C15574   0.087   0.577   2.988  0.1298  0.1090 -0.8616
  116MOL0     C15575   0.147   0.674   3.066 -0.6527  0.1860  0.4084
  116MOL0     N15576   0.592   0.907   3.664 -0.5253  0.3414 -0.2350
  116MOL0     N15577   0.668   0.894   3.768 -0.0741  0.5026  0.0865
  116MOL0     C15578   1.087   0.921   3.533 -0.3528 -0.7851  0.3608
  116MOL0     C15579   0.985   0.863   3.453 -0.9589  0.3783  0.8636
  116MOL0     C15580   0.731   0.675   3.127  0.2223 -0.2207 -0.0993
  116MOL0     C15581   0.645   0.743   3.041  0.0445 -0.2089  0.1318
  116MOL0     C15582   0.566   0.679   2.941 -0.0381  0.2538  0.0508
  116MOL0     C15583   0.571   0.538   2.936  0.8673  0.3828  0.4038
  116MOL0     O15584   0.493   0.480   2.841  0.1892  0.5775  0.4732
  116MOL0     C15585   0.381   0.408   2.897 -0.1532  0.5255  0.9494
  116MOL0     C15586   0.403   0.264   2.940  0.7604  0.0292 -0.0037
  116MOL0     C15587   0.487   0.171   2.847  0.1749 -0.1493 -0.8220
  116MOL0     C15588   0.452   0.025   2.853  0.2801 -0.2757  0.1832
  116MOL0     C15589   0.447  -0.035   2.987 -0.4534 -0.1854 -0.3666
  116MOL0     C15590   0.461  -0.061   3.102  0.0022 -1.1065 -0.7034
  116MOL0     C15591   0.687   0.471   2.994 -0.0161 -0.0459  1.0952
  116MOL0     C15592   0.759   0.544   3.093 -0.6728 -0.3090  0.2308
  116MOL0     H15593   1.183   0.621   3.321 -1.2578  1.0721 -1.7008
  116MOL0     H15594   1.358   0.723   3.446 -0.9190 -1.1823  0.7379
  116MOL0     H15595   1.362   1.120   3.553  0.4845 -0.2368  0.2209
  116MOL0     H15596   1.238   1.096   3.678  0.7677 -1.1751  2.2581
  116MOL0     H15597   1.533   1.014   3.705 -0.3259 -3.0032  0.1274
  116MOL0     H15598   1.470   1.181   3.755  0.8144 -0.2058 -1.1020
  116MOL0     H15599   1.411   0.915   3.884 -3.3505  1.3995 -0.7364
  116MOL0     H15600   1.512   1.046   3.956 -1.0930  1.4767  0.7088
  116MOL0     H15601   1.327   1.124   4.049 -1.4781 -0.3287  1.5039
  116MOL0     H15602   1.262   1.154   3.894 -1.2119 -2.3324 -3.1159
  116MOL0     H15603   1.201   0.893   3.881 -1.2085 -2.4590  2.1010
  116MOL0     H15604   1.241   0.890   4.050 -0.8392 -3.2565 -2.5837
  116MOL0     H15605   1.020   0.956   4.080  2.4060 -2.1024  0.3315
  116MOL0     H15606   1.069   1.117   4.026  1.4477  0.2565  1.0741
  116MOL0     H15607   1.046   1.065   3.808  2.0550 -1.3633 -0.2136
  116MOL0     H15608   0.984   0.887   3.841 -1.9397 -0.3100  0.0443
  116MOL0     H15609   0.848   1.156   3.864 -2.3332  0.4494 -0.6563
  116MOL0     H15610   0.795   1.026   3.962  0.7346 -0.3984 -0.1164
  116MOL0     H15611   0.766   1.175   3.637  1.4040  0.0129  0.9008
  116MOL0     H15612   0.481   1.154   3.498 -1.2103 -0.6685 -0.1365
  116MOL0     H15613   0.600   1.112   3.389 -2.0854  1.1571 -0.8469
  116MOL0     H15614   0.383   0.922   3.494  2.8365  0.6299  1.8580
  116MOL0     H15615   0.515   0.853   3.410  0.2798 -0.2013  2.1743
  116MOL0     H15616   0.484   0.997   3.221  0.1749  0.3938 -0.2824
  116MOL0     H15617   0.329   1.064   3.276  0.2277 -0.2658  1.7570
  116MOL0     H15618   0.227   0.838   3.291 -1.4345  3.1147 -0.8357
  116MOL0     H15619   0.380   0.767   3.233  0.6058 -0.1417  0.5263
  116MOL0     H15620   0.270   0.873   2.851 -0.8085  0.9474  0.4092
  116MOL0     H15621   0.264   0.614   2.602 -1.0527 -0.2931  0.1016
  116MOL0     H15622   0.119   0.706   2.571  0.6021  0.0463 -0.9525
  116MOL0     H15623   0.273   0.787   2.626 -0.7450  0.6861  1.4076
  116MOL0     H15624  -0.074   0.100   2.830  1.1613  1.5178  2.2096
  116MOL0     H15625  -0.266  -0.003   2.746 -1.8213  1.0269 -0.9774
  116MOL0     H15626  -0.639   0.204   2.844 -0.7775 -1.1177  0.0743
  116MOL0     H15627  -0.636   0.203   2.668 -0.7391  0.0928 -0.6811
  116MOL0     H15628  -0.680  -0.046   2.674  2.0606  0.4558  0.6846
  116MOL0     H15629  -0.693  -0.037   2.850  4.7401 -0.2615  0.3355
  116MOL0     H15630  -0.856   0.119   2.638 -0.8080 -1.1981  0.6288
  116MOL0     H15631  -0.872   0.143   2.806  1.1442  2.3256 -1.5138
  116MOL0     H15632  -0.902  -0.139   2.671 -0.5116  0.4340  0.3878
  116MOL0     H15633  -0.934  -0.102   2.834  0.1360 -2.2714 -1.0439
  116MOL0     H15634  -1.136  -0.125   2.717  0.3339  0.2031  1.6411
  116MOL0     H15635  -1.105   0.010   2.602  0.9191  2.5079  0.3502
  116MOL0     H15636  -1.118   0.050   2.910  0.7089 -1.7865 -0.2680
  116MOL0     H15637  -1.117   0.165   2.779 -1.9285  0.2703 -0.7669
  116MOL0     H15638  -1.350   0.068   2.696 -1.6783 -3.0963  0.3969
  116MOL0     H15639  -1.340   0.144   2.856 -0.4190 -0.5496  0.1339
  116MOL0     H15640  -1.336  -0.147   2.789  1.1265  0.7534  1.2079
  116MOL0     H15641  -1.474  -0.047   2.844 -0.5397 -1.0493  3.7087
  116MOL0     H15642  -0.486   0.362   2.747  0.5508  0.0831 -1.6213
  116MOL0     H15643  -0.265   0.490   2.789  2.3671  0.4797  4.8692
  116MOL0     H15644   0.051   0.501   3.056  2.3021 -0.3590 -0.1759
  116MOL0     H15645   0.147   0.665   3.174  1.1289  2.4375  0.6865
  116MOL0     H15646   1.060   0.996   3.607 -0.3362  0.3094 -0.7058
  116MOL0     H15647   0.892   0.919   3.449  1.2303  4.3444 -1.5913
  116MOL0     H15648   0.640   0.850   3.060  3.3695 -0.1833  1.6170
  116MOL0     H15649   0.488   0.742   2.901  2.1675  1.9235 -1.9177
  116MOL0     H15650   0.342   0.461   2.984 -0.3146  0.6912  0.7779
  116MOL0     H15651   0.294   0.414   2.831  1.1785 -0.5744 -1.0265
  116MOL0     H15652   0.305   0.222   2.960  1.7338 -1.2498  2.4945
  116MOL0     H15653   0.465   0.267   3.030 -2.3704 -0.0634  2.3211
  116MOL0     H15654   0.581   0.190   2.900 -0.7368  1.8560  0.1998
  116MOL0     H15655   0.480   0.206   2.743 -2.3261 -2.7186 -1.6309
  116MOL0     H15656   0.522  -0.036   2.795  0.3433  0.5925 -0.6752
  116MOL0     H15657   0.346   0.023   2.824  0.8244  0.5188 -2.0197
  116MOL0     H15658   0.479  -0.095   3.202 -2.3038 -0.0663  0.1280
  116MOL0     H15659   0.703   0.367   2.970  0.6009 -0.5075  3.3394
  116MOL0     H15660   0.855   0.503   3.122 -0.7589  0.9186  2.4158
  117MOL0     O15661   0.611   7.674   3.472 -0.2274  0.1834  0.2785
  117MOL0     C15662   0.672   7.757   3.534  0.2640  1.0036 -0.5394
  117MOL0     O15663   0.645   7.785   3.660  0.4524 -0.7815 -0.4600
  117MOL0     C15664   0.539   7.732   3.725  0.0388  0.7047  0.6024
  117MOL0     C15665   0.404   7.733   3.676 -0.0363  0.7485 -0.6650
  117MOL0     C15666   0.299   7.671   3.749  0.5579  0.3468 -0.6514
  117MOL0     C15667   0.331   7.613   3.880  0.1103 -0.4929  0.5997
  117MOL0     O15668   0.235   7.563   3.967 -0.3709  0.5831 -0.1930
  117MOL0     C15669   0.174   7.441   3.923  0.3810  0.2558  1.4697
  117MOL0     C15670   0.043   7.433   4.006  0.0365  0.9822 -0.2581
  117MOL0     C15671  -0.016   7.291   4.004 -0.3494  0.8862  0.5049
  117MOL0     C15672   0.077   7.172   4.026 -0.5730  0.4383 -0.6414
  117MOL0     C15673   0.155   7.184   4.164 -0.6268 -0.3925  0.7862
  117MOL0     C15674   0.065   7.189   4.285 -0.8456 -0.5549  0.1256
  117MOL0     C15675   0.144   7.199   4.414 -0.0443 -0.0176 -0.1958
  117MOL0     C15676   0.042   7.193   4.527 -0.4633  0.8511 -0.3277
  117MOL0     N15677  -0.033   7.071   4.560  0.7139 -0.4340 -0.0796
  117MOL0     C15678  -0.141   7.017   4.505 -0.0859 -0.0661 -0.6984
  117MOL0     C15679  -0.160   6.896   4.553  0.1221 -0.1955  0.2822
  117MOL0     C15680  -0.279   6.810   4.492 -0.0721 -1.0393 -0.0889
  117MOL0     C15681  -0.343   6.718   4.603  0.1340 -0.3734  0.1167
  117MOL0     C15682  -0.452   6.625   4.559 -0.0463  0.6185  0.0654
  117MOL0     C15683  -0.528   6.561   4.671 -0.0929 -0.1915  1.0284
  117MOL0     O15684  -0.617   6.470   4.606 -0.0543  0.0969 -0.5000
  117MOL0     C15685  -0.738   6.503   4.557  0.4294 -0.0643  0.3997
  117MOL0     C15686  -0.815   6.411   4.487 -0.0837  0.5907 -0.1450
  117MOL0     C15687  -0.935   6.439   4.427 -0.2302  0.4505  0.7839
  117MOL0     C15688  -1.001   6.325   4.347 -0.5100 -1.1710 -0.6440
  117MOL0     C15689  -0.996   6.573   4.437 -0.8255 -0.0735 -0.1833
  117MOL0     C15690  -1.117   6.621   4.360 -0.6031  1.1178 -0.6445
  117MOL0     O15691  -1.206   6.527   4.304  0.5560  0.0420 -0.0128
  117MOL0     C15692  -1.307   6.567   4.226  0.5432 -1.0925  0.5612
  117MOL0     C15693  -1.270   6.622   4.102 -0.1391 -0.7019  0.7556
  117MOL0     C15694  -1.368   6.672   4.016  0.1311 -0.4167 -0.3873
  117MOL0     C15695  -1.502   6.681   4.044 -0.5236 -0.1527 -0.5634
  117MOL0     O15696  -1.605   6.741   3.965 -0.0400  0.2648  0.1438
  117MOL0     C15697  -1.568   6.834   3.866 -0.5266 -0.3597 -0.5803
  117MOL0     C15698  -1.673   6.916   3.807  1.3148 -1.0905  0.1564
  117MOL0     C15699  -1.794   6.820   3.770 -0.8333  0.4247  0.4479
  117MOL0     C15700  -1.916   6.898   3.741  0.0963 -0.3882  0.2778
  117MOL0     C15701  -2.035   6.804   3.733  0.2629 -0.2467  0.2219
  117MOL0     C15702  -2.162   6.873   3.698 -0.4103 -0.4898  0.6251
  117MOL0     C15703  -2.279   6.777   3.675  0.2904 -0.3146 -0.1327
  117MOL0     C15704  -2.307   6.759   3.527  0.0540  0.0059  0.7043
  117MOL0    Cl15705  -2.356   6.922   3.468 -0.0173 -0.1913 -0.0579
  117MOL0     C15706  -1.535   6.637   4.171 -0.1092 -0.0045  0.0638
  117MOL0     C15707  -1.444   6.577   4.256 -0.5344  1.0577 -0.3385
  117MOL0     O15708  -1.138   6.740   4.362 -0.2184  0.4421  0.2567
  117MOL0     C15709  -0.915   6.658   4.506 -0.8060  0.2655 -0.5469
  117MOL0     C15710  -0.790   6.624   4.562  0.6346 -0.3552 -0.0924
  117MOL0     N15711  -0.061   6.867   4.646 -0.5335 -0.1401 -0.3787
  117MOL0     N15712   0.008   6.978   4.650 -0.0145  0.0372 -0.4317
  117MOL0     C15713   0.460   7.617   3.926 -1.0494 -0.0823  0.3581
  117MOL0     C15714   0.571   7.667   3.845 -0.0722 -0.1937 -0.0716
  117MOL0     C15715   0.764   7.842   3.455  0.4922 -0.0794 -0.6702
  117MOL0     C15716   0.768   7.817   3.318 -0.0616 -0.8758  0.4321
  117MOL0     C15717   0.842   7.901   3.240  0.5147  0.0249 -0.6149
  117MOL0     C15718   0.925   8.006   3.300 -0.2854 -0.3113 -0.3757
  117MOL0     O15719   1.011   8.081   3.217 -0.6472  0.7451 -0.0609
  117MOL0     C15720   1.099   8.178   3.282 -0.4775 -0.6200 -0.4702
  117MOL0     C15721   1.227   8.204   3.192 -0.1728  0.9480 -0.2338
  117MOL0     C15722   1.347   8.256   3.276 -0.2169 -0.1107 -0.8360
  117MOL0     C15723   1.486   8.232   3.211  0.1818  0.5303  0.5438
  117MOL0     C15724   1.600   8.276   3.295  0.2845 -0.0244 -0.4453
  117MOL0     C15725   1.713   8.299   3.339 -0.0496 -0.6459 -0.3868
  117MOL0     C15726   0.918   8.021   3.440 -0.0755  0.2298 -0.2497
  117MOL0     C15727   0.837   7.940   3.513 -1.1416  0.7219 -0.3192
  117MOL0     H15728   0.384   7.786   3.584  0.4645  2.9738  0.4380
  117MOL0     H15729   0.199   7.659   3.709  1.4720 -0.9160 -2.7509
  117MOL0     H15730   0.156   7.440   3.815 -1.9566  2.9167  1.7208
  117MOL0     H15731   0.241   7.361   3.956  2.7254  1.3629 -0.2772
  117MOL0     H15732   0.068   7.461   4.108 -2.2646 -1.9356  1.2986
  117MOL0     H15733  -0.032   7.505   3.973 -1.6713 -1.6358 -2.5988
  117MOL0     H15734  -0.114   7.281   4.053 -1.7340 -1.1741 -2.3939
  117MOL0     H15735  -0.040   7.278   3.898  1.6382 -2.9293  0.3399
  117MOL0     H15736   0.026   7.075   4.028  2.4105 -1.2308  0.5020
  117MOL0     H15737   0.149   7.159   3.945 -2.2312 -1.5213 -1.9133
  117MOL0     H15738   0.227   7.102   4.172  1.6146  1.4912  0.9778
  117MOL0     H15739   0.218   7.273   4.165  2.1371 -2.1681 -1.1114
  117MOL0     H15740   0.004   7.279   4.277  1.3443  0.9122 -1.3598
  117MOL0     H15741  -0.001   7.102   4.287 -0.3211 -0.9440  0.7286
  117MOL0     H15742   0.219   7.120   4.427  0.7137  0.7106 -0.0549
  117MOL0     H15743   0.200   7.292   4.423  0.2442 -0.4000  3.4818
  117MOL0     H15744  -0.035   7.265   4.499 -1.3677  0.2033  0.4176
  117MOL0     H15745   0.092   7.225   4.619  0.0343 -0.4939 -0.1084
  117MOL0     H15746  -0.207   7.046   4.423 -1.8854 -0.5105  0.5277
  117MOL0     H15747  -0.350   6.881   4.449 -0.2555 -1.1141  0.0867
  117MOL0     H15748  -0.234   6.753   4.410  1.8560 -0.2442  0.3744
  117MOL0     H15749  -0.382   6.796   4.669  1.0024  0.8541 -0.7694
  117MOL0     H15750  -0.259   6.660   4.641 -1.1065 -1.5826  1.0968
  117MOL0     H15751  -0.401   6.551   4.496 -2.7782 -0.0680 -1.5301
  117MOL0     H15752  -0.518   6.678   4.489  0.5595  1.1395 -0.1136
  117MOL0     H15753  -0.589   6.629   4.731 -1.2300  0.0275 -0.3272
  117MOL0     H15754  -0.461   6.517   4.745 -0.3720  0.4960  1.6993
  117MOL0     H15755  -0.780   6.308   4.480 -1.9293 -0.3257  2.4655
  117MOL0     H15756  -1.031   6.350   4.245  2.5000 -1.3902 -1.6957
  117MOL0     H15757  -0.931   6.241   4.356  0.7304  0.0484  2.1995
  117MOL0     H15758  -1.089   6.284   4.397 -0.4652  0.3142  0.7233
  117MOL0     H15759  -1.167   6.601   4.075 -0.8432 -3.3372 -0.1121
  117MOL0     H15760  -1.335   6.699   3.916 -0.3384  5.5820  0.7133
  117MOL0     H15761  -1.482   6.888   3.910 -0.1425 -0.7578 -0.8343
  117MOL0     H15762  -1.516   6.778   3.788  0.1011  1.8150 -1.8059
  117MOL0     H15763  -1.703   6.988   3.883  1.1982 -3.0539  2.0931
  117MOL0     H15764  -1.634   6.975   3.724  1.0729  2.0457  2.1037
  117MOL0     H15765  -1.818   6.744   3.845 -2.5534 -1.5502 -1.9275
  117MOL0     H15766  -1.771   6.756   3.683 -2.6611  2.8364 -1.9753
  117MOL0     H15767  -1.935   6.973   3.818 -3.7031 -2.1974  1.3119
  117MOL0     H15768  -1.896   6.956   3.650  0.0859  0.5091  0.8351
  117MOL0     H15769  -2.040   6.759   3.833  0.7552 -2.4743 -0.6821
  117MOL0     H15770  -2.021   6.724   3.659 -3.8266 -1.0095  0.0093
  117MOL0     H15771  -2.188   6.940   3.780  1.2919  2.2815 -0.9111
  117MOL0     H15772  -2.146   6.944   3.616  1.5637  0.2151  1.5619
  117MOL0     H15773  -2.369   6.821   3.719  1.2269  1.6063 -0.0306
  117MOL0     H15774  -2.263   6.680   3.724 -1.1800  0.6717  2.4753
  117MOL0     H15775  -2.389   6.689   3.510 -1.1353  0.9151  2.4910
  117MOL0     H15776  -2.207   6.741   3.486  0.8036 -0.3981  2.6352
  117MOL0     H15777  -1.638   6.641   4.204 -0.1490  1.2230 -0.1716
  117MOL0     H15778  -1.478   6.538   4.352 -0.9929 -1.1368 -1.3253
  117MOL0     H15779  -0.939   6.764   4.510 -0.4880  0.3346 -0.4379
  117MOL0     H15780  -0.733   6.696   4.621  0.1900 -0.0902  0.0175
  117MOL0     H15781   0.498   7.584   4.022  3.6845  5.1791  0.8229
  117MOL0     H15782   0.670   7.674   3.889 -0.3166 -2.1652  0.9399
  117MOL0     H15783   0.699   7.744   3.278 -0.1024 -2.4009  3.0788
  117MOL0     H15784   0.839   7.896   3.132 -0.3483 -3.6524 -0.5435
  117MOL0     H15785   1.044   8.272   3.296 -0.6558 -0.8832  0.7829
  117MOL0     H15786   1.137   8.155   3.382  3.7178  0.3548 -1.6514
  117MOL0     H15787   1.206   8.288   3.125 -1.2176  1.8881  1.2107
  117MOL0     H15788   1.260   8.118   3.133  0.4211  0.5300  0.7029
  117MOL0     H15789   1.338   8.208   3.374 -0.4175  1.0337 -0.2769
  117MOL0     H15790   1.346   8.362   3.302 -0.2279 -0.6756  1.8258
  117MOL0     H15791   1.481   8.304   3.129  1.0589 -0.3662 -0.3188
  117MOL0     H15792   1.500   8.131   3.171  0.2482  1.2993 -1.5193
  117MOL0     H15793   1.807   8.316   3.386 -0.9022  1.1923  0.7783
  117MOL0     H15794   0.965   8.096   3.503  0.3026 -0.6250  0.5162
  117MOL0     H15795   0.819   7.977   3.614  0.1368 -2.5250  1.2448
  118MOL0     O15796   6.689   9.244   7.039 -0.0581 -0.1675 -0.2529
  118MOL0     C15797   6.659   9.368   7.040  0.3123  0.1302 -0.8047
  118MOL0     O15798   6.540   9.415   7.073  0.1231  0.1883  0.2944
  118MOL0     C15799   6.434   9.337   7.092 -0.3815  0.2428  0.2266
  118MOL0     C15800   6.317   9.363   7.022 -0.2305 -0.9096 -0.2616
  118MOL0     C15801   6.202   9.290   7.031  0.0854 -0.9575 -0.1611
  118MOL0     C15802   6.212   9.171   7.100 -0.2589  0.1993 -0.0535
  118MOL0     O15803   6.094   9.102   7.116 -0.0335 -0.4234  0.2004
  118MOL0     C15804   6.080   8.999   7.211 -0.5119  0.1702  0.2404
  118MOL0     C15805   5.932   8.959   7.218 -0.1727 -0.2386  0.5566
  118MOL0     C15806   5.894   8.880   7.093  0.3427 -0.3356  0.2311
  118MOL0     C15807   5.742   8.842   7.105 -0.2258 -0.0063  0.9961
  118MOL0     C15808   5.696   8.725   7.024  0.1404  0.0369  0.2075
  118MOL0     C15809   5.748   8.584   7.080 -0.0518  0.0863  0.2699
  118MOL0     C15810   5.670   8.457   7.052 -0.4381 -0.9243 -0.0872
  118MOL0     C15811   5.724   8.343   7.136  0.1289 -0.0598 -1.3720
  118MOL0     N15812   5.687   8.333   7.279 -0.1346 -0.7862 -0.1174
  118MOL0     C15813   5.782   8.364   7.378 -0.1587  0.5291 -0.3337
  118MOL0     C15814   5.725   8.317   7.489 -0.1435 -0.5611  0.0289
  118MOL0     C15815   5.782   8.312   7.629 -0.3965  0.6048 -0.0721
  118MOL0     C15816   5.715   8.407   7.726  1.2781 -0.1406 -0.6337
  118MOL0     C15817   5.739   8.553   7.691  0.4010  0.4425  0.3609
  118MOL0     C15818   5.876   8.602   7.713  0.4606  0.1667 -0.5155
  118MOL0     O15819   5.936   8.590   7.580  0.1525  0.0114  0.9239
  118MOL0     C15820   6.060   8.647   7.549  0.5128  0.0082 -0.1668
  118MOL0     C15821   6.121   8.601   7.434 -0.5228 -0.0667 -0.4168
  118MOL0     C15822   6.240   8.664   7.392 -0.0285  0.7956 -0.5254
  118MOL0     C15823   6.286   8.628   7.248 -0.5377 -0.1210 -0.3614
  118MOL0     C15824   6.317   8.746   7.479  0.4645 -0.5228 -0.4851
  118MOL0     C15825   6.449   8.797   7.444  0.5531 -0.4425 -0.1685
  118MOL0     O15826   6.466   8.926   7.467  0.4939 -1.0153  0.8145
  118MOL0     C15827   6.591   8.970   7.476 -0.3605 -0.2719 -0.6695
  118MOL0     C15828   6.667   8.996   7.366  0.1544 -0.2806  0.6742
  118MOL0     C15829   6.792   9.053   7.373  0.4837 -0.1410 -1.1340
  118MOL0     C15830   6.852   9.079   7.491 -0.1722  0.0616 -0.3729
  118MOL0     O15831   6.974   9.150   7.502  0.7530  0.4160 -0.5748
  118MOL0     C15832   7.067   9.130   7.397 -0.2888 -0.0399 -0.1127
  118MOL0     C15833   7.196   9.223   7.423  0.7136  0.5701  1.5838
  118MOL0     C15834   7.299   9.146   7.490  0.6862  0.0068  0.0194
  118MOL0     C15835   7.437   9.213   7.504  0.7475  0.6626 -0.6696
  118MOL0     C15836   7.511   9.132   7.617 -0.1765 -0.3090  0.6789
  118MOL0     C15837   7.655   9.129   7.602 -0.9049 -0.7956  0.0789
  118MOL0     C15838   7.715   9.002   7.676 -0.2426 -0.6596  0.6960
  118MOL0     C15839   7.853   9.037   7.727  0.5933  0.8292  0.0906
  118MOL0    Cl15840   7.969   9.010   7.586 -0.3901  0.0698 -0.1480
  118MOL0     C15841   6.768   9.060   7.605 -0.0221  0.8042  0.3112
  118MOL0     C15842   6.644   9.011   7.598  0.5434  0.3885  0.3440
  118MOL0     O15843   6.540   8.723   7.407 -0.9529 -0.0653 -0.1844
  118MOL0     C15844   6.261   8.777   7.602  0.0118 -0.4361 -0.4831
  118MOL0     C15845   6.133   8.729   7.636 -0.8637  0.6744 -0.0574
  118MOL0     N15846   5.597   8.265   7.460 -0.8542  1.1159  0.1741
  118MOL0     N15847   5.571   8.279   7.335  0.1606  0.3776 -0.1733
  118MOL0     C15848   6.332   9.124   7.161 -0.7442 -0.2203 -0.8501
  118MOL0     C15849   6.439   9.215   7.166 -0.3079  0.8219  0.5198
  118MOL0     C15850   6.772   9.462   7.020 -0.4002 -0.7886 -0.7631
  118MOL0     C15851   6.761   9.595   6.994 -0.1753  0.0265  0.3513
  118MOL0     C15852   6.865   9.684   6.977  0.5805 -0.3949 -1.1000
  118MOL0     C15853   6.991   9.626   6.976  1.4188  0.6620  0.3034
  118MOL0     O15854   7.093   9.703   6.932 -0.2901 -0.0673  0.3603
  118MOL0     C15855   7.074   9.785   6.806 -0.4176  0.9544 -0.1756
  118MOL0     C15856   7.191   9.755   6.706  0.8351  0.3208  0.2634
  118MOL0     C15857   7.173   9.624   6.653  0.2238  0.1410  0.4512
  118MOL0     C15858   7.294   9.575   6.566 -0.6067 -0.2447  0.3426
  118MOL0     C15859   7.400   9.510   6.642  0.0730  0.1010  0.4254
  118MOL0     C15860   7.495   9.448   6.692 -0.7956 -0.2719 -0.8076
  118MOL0     C15861   7.011   9.501   7.012  0.0676  0.7147 -0.3022
  118MOL0     C15862   6.903   9.416   7.040 -0.2334 -0.6913 -0.3401
  118MOL0     H15863   6.320   9.448   6.954 -0.4228  0.4847  1.4006
  118MOL0     H15864   6.115   9.316   6.971  0.1949  1.9263  0.8057
  118MOL0     H15865   6.135   8.908   7.188 -1.0015 -0.5762  1.8470
  118MOL0     H15866   6.121   9.028   7.309  2.1719  0.6637 -0.9522
  118MOL0     H15867   5.906   8.902   7.307 -0.7658  1.9327  1.8673
  118MOL0     H15868   5.871   9.049   7.233  0.9694  0.3549  1.9697
  118MOL0     H15869   5.916   8.949   7.011  1.3445  0.4822  1.1505
  118MOL0     H15870   5.953   8.788   7.085 -2.3553 -2.2437  0.7984
  118MOL0     H15871   5.713   8.819   7.209  0.8131 -2.6971  0.7812
  118MOL0     H15872   5.684   8.931   7.079 -0.3225  0.3076  2.2186
  118MOL0     H15873   5.589   8.722   7.044  0.1530 -0.2357  0.2383
  118MOL0     H15874   5.701   8.735   6.916 -2.0659  1.4917  0.1884
  118MOL0     H15875   5.849   8.576   7.038 -0.3300 -0.8764 -0.2367
  118MOL0     H15876   5.751   8.610   7.186 -0.5349  1.3840 -0.0166
  118MOL0     H15877   5.565   8.486   7.066  1.2190  7.1369  0.3269
  118MOL0     H15878   5.682   8.420   6.950  2.0343  2.1769 -1.0782
  118MOL0     H15879   5.832   8.344   7.124  0.2655 -1.8238 -0.5962
  118MOL0     H15880   5.691   8.257   7.077 -2.0533 -0.1684 -0.1147
  118MOL0     H15881   5.884   8.403   7.371 -0.1698  0.5141 -0.5829
  118MOL0     H15882   5.763   8.209   7.660 -1.2757  1.0341  0.8439
  118MOL0     H15883   5.891   8.318   7.616 -0.3585  0.7491  0.3080
  118MOL0     H15884   5.757   8.389   7.826  1.5510 -0.5742 -0.8217
  118MOL0     H15885   5.607   8.393   7.721  0.7649  2.8160  0.1072
  118MOL0     H15886   5.676   8.607   7.763  1.4906 -0.0983  1.7790
  118MOL0     H15887   5.692   8.583   7.597 -0.2323  0.8095  0.7832
  118MOL0     H15888   5.931   8.537   7.782 -0.2516  0.3813  0.2748
  118MOL0     H15889   5.878   8.706   7.746  0.3721  0.5852 -1.7598
  118MOL0     H15890   6.069   8.540   7.361 -1.5904 -1.7136  1.6020
  118MOL0     H15891   6.254   8.526   7.223  0.9783 -0.2780 -1.8706
  118MOL0     H15892   6.232   8.701   7.187 -2.3386 -0.7834  0.3521
  118MOL0     H15893   6.393   8.648   7.237 -0.0338 -2.2602  0.1907
  118MOL0     H15894   6.632   8.965   7.268  0.7286  3.7172 -0.9772
  118MOL0     H15895   6.837   9.078   7.278  0.8967  1.6172 -0.5148
  118MOL0     H15896   7.091   9.024   7.387 -4.6759 -1.3825  1.4002
  118MOL0     H15897   7.027   9.162   7.300  1.9302 -3.4237 -2.3859
  118MOL0     H15898   7.229   9.253   7.323 -1.4567  0.6733  0.8465
  118MOL0     H15899   7.162   9.314   7.474 -1.2023  1.1322 -0.5361
  118MOL0     H15900   7.310   9.041   7.463  2.2821  0.3930 -0.9668
  118MOL0     H15901   7.251   9.148   7.588 -0.6911  0.2990 -0.6467
  118MOL0     H15902   7.475   9.198   7.403  0.0486 -0.7612 -0.7363
  118MOL0     H15903   7.432   9.317   7.539  2.3304 -0.0070  1.8577
  118MOL0     H15904   7.479   9.028   7.622 -1.9916  0.2675  3.1182
  118MOL0     H15905   7.473   9.177   7.709 -1.0276  2.7845 -1.0338
  118MOL0     H15906   7.695   9.128   7.500  2.1130  1.6811  1.0529
  118MOL0     H15907   7.694   9.225   7.638 -0.5387 -0.3710 -1.3861
  118MOL0     H15908   7.731   8.919   7.606 -1.8164 -1.6185  1.4161
  118MOL0     H15909   7.650   8.956   7.752  1.0814 -2.4558  0.8011
  118MOL0     H15910   7.861   8.963   7.806 -0.1091  1.1018  0.4271
  118MOL0     H15911   7.855   9.142   7.759 -1.9417  1.1087 -0.4316
  118MOL0     H15912   6.809   9.080   7.703  1.9222 -1.1200 -0.0294
  118MOL0     H15913   6.587   8.996   7.689  3.7709 -0.4489  2.3851
  118MOL0     H15914   6.314   8.847   7.666  1.9130 -0.8963 -1.4743
  118MOL0     H15915   6.104   8.763   7.735  1.4033  4.6179 -0.5306
  118MOL0     H15916   6.355   9.031   7.211  1.0821 -0.0833 -1.3884
  118MOL0     H15917   6.528   9.189   7.222 -1.1355 -3.0884  0.3393
  118MOL0     H15918   6.662   9.639   6.996 -0.8885 -1.5374  1.6183
  118MOL0     H15919   6.854   9.791   6.966  2.0600 -0.0458  0.2986
  118MOL0     H15920   6.979   9.750   6.764 -1.6863  3.0828  0.7559
  118MOL0     H15921   7.069   9.891   6.835  4.0352  1.1193  0.7070
  118MOL0     H15922   7.288   9.769   6.754  0.3060 -0.6678  1.6922
  118MOL0     H15923   7.179   9.829   6.626  0.6063 -1.2012 -1.1586
  118MOL0     H15924   7.080   9.625   6.595  0.5521  0.3270 -0.0831
  118MOL0     H15925   7.160   9.558   6.739 -0.7654 -0.7477 -0.3556
  118MOL0     H15926   7.339   9.667   6.526  1.4336 -0.7967  1.2631
  118MOL0     H15927   7.257   9.510   6.486  1.8676  0.0193 -1.0875
  118MOL0     H15928   7.571   9.397   6.748 -0.7359  3.1483  2.6007
  118MOL0     H15929   7.110   9.460   7.031  0.5340 -0.5084 -4.4490
  118MOL0     H15930   6.924   9.315   7.075  2.3956 -0.0730  0.0660
  119MOL0     O15931   4.602   6.459   1.733 -0.1124  0.1731 -0.4701
  119MOL0     C15932   4.569   6.415   1.625 -0.2213  0.5682 -0.5335
  119MOL0     O15933   4.658   6.344   1.537  0.4270 -0.1691  0.3961
  119MOL0     C15934   4.779   6.303   1.568 -0.4318  0.2341 -0.0468
  119MOL0     C15935   4.873   6.316   1.468  0.4027 -0.0129  0.6830
  119MOL0     C15936   5.006   6.282   1.487 -0.0716  0.5166  0.7035
  119MOL0     C15937   5.048   6.220   1.605  0.5583  0.1465  0.0673
  119MOL0     O15938   5.178   6.177   1.602  0.3470 -0.5566 -0.7772
  119MOL0     C15939   5.208   6.091   1.712 -0.7971  0.9762 -0.2417
  119MOL0     C15940   5.356   6.053   1.700 -0.2775  0.7300 -0.7283
  119MOL0     C15941   5.441   6.176   1.720 -0.0582 -0.8025  0.5424
  119MOL0     C15942   5.591   6.147   1.679 -0.3967  0.2879 -0.3358
  119MOL0     C15943   5.692   6.257   1.673 -0.6455 -0.1840  0.0929
  119MOL0     C15944   5.823   6.197   1.614 -0.1304 -0.2807 -0.2418
  119MOL0     C15945   5.945   6.292   1.622  0.3025  0.3354 -0.1620
  119MOL0     C15946   5.931   6.413   1.526  0.8401  0.0850 -0.6506
  119MOL0     N15947   5.930   6.402   1.380  0.4884  0.0074  0.9020
  119MOL0     C15948   6.028   6.366   1.286 -0.4715  0.0061 -0.2554
  119MOL0     C15949   5.968   6.316   1.181  0.5754  0.3810 -0.4910
  119MOL0     C15950   6.037   6.269   1.057  0.4505 -0.7026  0.7561
  119MOL0     C15951   6.091   6.126   1.082 -0.6172 -0.3444 -0.1906
  119MOL0     C15952   6.217   6.088   0.992  0.6707  0.9077 -0.1541
  119MOL0     C15953   6.333   6.177   0.997 -0.2978  0.5801 -0.2086
  119MOL0     O15954   6.419   6.118   1.087 -0.2728 -0.2439 -0.0483
  119MOL0     C15955   6.553   6.137   1.055 -0.0355 -0.0712  0.0052
  119MOL0     C15956   6.593   6.268   1.033 -0.5101 -0.5039 -0.4863
  119MOL0     C15957   6.731   6.299   1.031 -0.7352 -0.2516 -0.1377
  119MOL0     C15958   6.771   6.446   1.015 -0.3721  0.0207 -0.7299
  119MOL0     C15959   6.831   6.194   1.041 -0.0590  0.4274 -0.0431
  119MOL0     C15960   6.978   6.193   1.002  0.5387 -0.4263 -0.1430
  119MOL0     O15961   7.049   6.082   1.002  0.4850 -0.3008  0.0270
  119MOL0     C15962   7.182   6.099   0.961  0.1619  0.2931 -0.4581
  119MOL0     C15963   7.279   6.088   1.054 -0.5391 -0.4830  0.0191
  119MOL0     C15964   7.413   6.117   1.018 -1.4150 -0.1508 -0.3338
  119MOL0     C15965   7.439   6.138   0.875  0.1244  0.0320 -0.2013
  119MOL0     O15966   7.569   6.159   0.853  0.3352 -0.2949  0.0743
  119MOL0     C15967   7.605   6.218   0.723 -0.3653 -0.3565 -0.2664
  119MOL0     C15968   7.749   6.231   0.708  0.0754  0.0372  0.4407
  119MOL0     C15969   7.790   6.294   0.578 -0.7246  0.2035  1.0452
  119MOL0     C15970   7.935   6.303   0.547  0.7594 -0.1182 -0.5208
  119MOL0     C15971   7.951   6.393   0.421 -0.0306  0.0913 -0.2590
  119MOL0     C15972   8.094   6.431   0.400  0.6249  0.4478  0.0548
  119MOL0     C15973   8.131   6.492   0.262 -0.5731  0.4713  0.2168
  119MOL0     C15974   8.278   6.533   0.248 -0.6786  0.0591  0.0590
  119MOL0    Cl15975   8.316   6.689   0.329 -0.1280  0.3210 -0.2105
  119MOL0     C15976   7.334   6.125   0.779  0.7364 -0.3015 -0.5620
  119MOL0     C15977   7.205   6.103   0.826 -0.1351 -0.1819 -0.1210
  119MOL0     O15978   7.019   6.308   0.975  0.2614  0.4020 -0.7715
  119MOL0     C15979   6.781   6.061   1.067  0.6363 -1.2089 -0.1575
  119MOL0     C15980   6.638   6.034   1.078  0.2583  0.3095  0.4330
  119MOL0     N15981   5.831   6.334   1.190 -0.3291 -0.0809 -0.6276
  119MOL0     N15982   5.809   6.374   1.312 -0.3653  0.1342 -0.3693
  119MOL0     C15983   4.958   6.222   1.714  0.5439  1.1649  1.0236
  119MOL0     C15984   4.831   6.261   1.694 -0.6123 -0.2008  0.4511
  119MOL0     C15985   4.430   6.433   1.577 -0.8136 -0.0712 -0.1095
  119MOL0     C15986   4.365   6.342   1.498  0.0947  0.1564  0.6109
  119MOL0     C15987   4.227   6.363   1.485  0.6974  0.4898 -0.0027
  119MOL0     C15988   4.159   6.472   1.521 -0.0611 -0.6685 -0.4855
  119MOL0     O15989   4.024   6.477   1.498  0.5135 -0.1232 -0.2455
  119MOL0     C15990   3.942   6.550   1.593  0.3658  0.8872 -0.4893
  119MOL0     C15991   3.798   6.479   1.607 -0.4497 -1.1035 -0.4507
  119MOL0     C15992   3.810   6.346   1.678 -0.0291 -0.0674 -0.3210
  119MOL0     C15993   3.709   6.243   1.635 -0.4313 -0.5981 -0.1813
  119MOL0     C15994   3.582   6.292   1.676  0.4017  1.0419  0.1196
  119MOL0     C15995   3.474   6.328   1.722 -0.5180  0.0426  0.0201
  119MOL0     C15996   4.232   6.568   1.581  0.1626  0.2404  0.0946
  119MOL0     C15997   4.363   6.545   1.617 -0.0942 -0.3213  1.2448
  119MOL0     H15998   4.849   6.346   1.366 -0.4614  1.5554  1.3080
  119MOL0     H15999   5.079   6.294   1.407 -2.0233  0.7025 -1.1499
  119MOL0     H16000   5.202   6.147   1.806 -0.6889 -0.2676  0.5249
  119MOL0     H16001   5.147   6.001   1.720  1.6382 -0.6191  1.9250
  119MOL0     H16002   5.387   5.983   1.779 -0.4472  2.9523  1.4189
  119MOL0     H16003   5.383   6.015   1.602  1.2830  2.0367 -0.8315
  119MOL0     H16004   5.419   6.254   1.646 -0.7310 -1.9549 -0.5188
  119MOL0     H16005   5.430   6.210   1.823 -4.4916 -4.3004  1.5159
  119MOL0     H16006   5.633   6.062   1.734  0.1787 -0.6827 -2.1990
  119MOL0     H16007   5.593   6.107   1.577  1.2302 -2.0119  0.5058
  119MOL0     H16008   5.663   6.333   1.600 -1.2225  0.4673  0.9810
  119MOL0     H16009   5.701   6.301   1.773  2.2555 -0.9416  0.2632
  119MOL0     H16010   5.851   6.113   1.679  0.7009 -1.2689 -1.8041
  119MOL0     H16011   5.799   6.148   1.519 -0.5386  0.7549 -0.6883
  119MOL0     H16012   5.944   6.330   1.724 -0.1745 -0.3596  0.1028
  119MOL0     H16013   6.037   6.242   1.591 -0.9826 -1.2584 -1.6247
  119MOL0     H16014   6.008   6.486   1.552  1.8548 -1.0899 -0.2095
  119MOL0     H16015   5.832   6.454   1.547 -0.8746 -2.9819 -2.1199
  119MOL0     H16016   6.135   6.383   1.293 -0.2506 -1.2378 -0.4387
  119MOL0     H16017   5.968   6.281   0.974  0.2133  2.5578  1.2904
  119MOL0     H16018   6.119   6.336   1.027 -0.7064 -0.4004 -2.0549
  119MOL0     H16019   6.006   6.058   1.068 -1.0371  0.3523 -1.1915
  119MOL0     H16020   6.135   6.108   1.180 -1.9187 -3.0253 -0.0140
  119MOL0     H16021   6.183   6.104   0.889 -1.4777 -1.2586  0.1333
  119MOL0     H16022   6.243   5.986   1.019 -2.8305  0.0892  0.5858
  119MOL0     H16023   6.310   6.275   1.040  0.3486  0.5824  0.1388
  119MOL0     H16024   6.377   6.195   0.898 -1.2153 -2.0262 -1.1748
  119MOL0     H16025   6.528   6.355   1.029  2.0333  1.7649  2.3932
  119MOL0     H16026   6.676   6.495   1.037 -0.3171  0.3025 -1.1225
  119MOL0     H16027   6.844   6.472   1.093 -1.4799 -1.0555  0.7198
  119MOL0     H16028   6.801   6.468   0.912 -0.3534  2.0447 -0.3236
  119MOL0     H16029   7.246   6.084   1.158  1.0269 -1.4447  0.5093
  119MOL0     H16030   7.492   6.137   1.090 -1.8093 -0.1573  0.1070
  119MOL0     H16031   7.574   6.151   0.641  0.1632  0.9876 -1.6043
  119MOL0     H16032   7.552   6.313   0.718 -3.1425 -1.4420  3.4528
  119MOL0     H16033   7.793   6.293   0.787 -2.1733  2.9028 -0.3526
  119MOL0     H16034   7.804   6.137   0.722  0.8547  0.7958  3.0821
  119MOL0     H16035   7.751   6.396   0.583 -0.2113  0.7536 -2.7739
  119MOL0     H16036   7.750   6.251   0.485 -2.5701  2.5707  0.6397
  119MOL0     H16037   7.984   6.348   0.634 -2.5250  2.4361  0.2213
  119MOL0     H16038   7.985   6.207   0.530 -0.0245 -0.6723  0.2321
  119MOL0     H16039   7.893   6.483   0.442 -0.7506 -0.4107 -0.0697
  119MOL0     H16040   7.901   6.340   0.339 -4.0197  0.1057  1.9347
  119MOL0     H16041   8.119   6.499   0.482  2.0113  2.3611 -1.8633
  119MOL0     H16042   8.146   6.335   0.416  2.1890  1.2041 -0.3056
  119MOL0     H16043   8.085   6.587   0.233 -0.2532  1.3551  2.4350
  119MOL0     H16044   8.105   6.408   0.195 -0.1855  0.2061  0.3989
  119MOL0     H16045   8.311   6.560   0.147 -2.0326 -2.1123 -1.0404
  119MOL0     H16046   8.338   6.451   0.287 -0.9163 -1.3121 -2.3106
  119MOL0     H16047   7.347   6.137   0.672  0.2770  0.5883 -0.5226
  119MOL0     H16048   7.116   6.102   0.764  0.2722  3.5838 -0.9996
  119MOL0     H16049   6.849   5.977   1.075 -0.8151 -2.4278 -0.1478
  119MOL0     H16050   6.612   5.939   1.122  2.2880 -1.7678 -2.4943
  119MOL0     H16051   4.985   6.193   1.815  3.3001  3.3559  1.0496
  119MOL0     H16052   4.767   6.266   1.781  0.1140  1.1933  0.9248
  119MOL0     H16053   4.415   6.257   1.451  0.1692  0.7187 -0.3386
  119MOL0     H16054   4.166   6.290   1.433  0.4252  0.6756  0.0552
  119MOL0     H16055   3.981   6.541   1.694  0.7721  5.0730 -0.0989
  119MOL0     H16056   3.928   6.654   1.561  0.2135  0.6727 -1.1499
  119MOL0     H16057   3.747   6.476   1.510  0.3270 -0.7400 -0.8816
  119MOL0     H16058   3.733   6.552   1.658 -0.8773 -1.2383 -0.7983
  119MOL0     H16059   3.804   6.362   1.786  3.3990  3.2386 -0.4218
  119MOL0     H16060   3.910   6.302   1.662  1.2898  2.8429 -0.6560
  119MOL0     H16061   3.732   6.142   1.669 -1.6783 -1.4658 -1.8150
  119MOL0     H16062   3.722   6.243   1.527  1.0111 -0.2857 -0.0337
  119MOL0     H16063   3.375   6.357   1.750 -1.5486 -2.7198 -0.4541
  119MOL0     H16064   4.183   6.662   1.602 -1.9424 -1.0431  1.3251
  119MOL0     H16065   4.414   6.627   1.667  0.1815  3.2304 -4.0470
  120MOL0     O16066   6.232   9.506  10.966  0.1946  0.4394  0.4894
  120MOL0     C16067   6.283   9.394  10.982 -0.1808  0.0254  0.0772
  120MOL0     O16068   6.213   9.276  10.987  0.2695 -0.0697  1.0914
  120MOL0     C16069   6.074   9.275  10.996  0.4747  0.5374 -0.0024
  120MOL0     C16070   5.979   9.354  10.914 -0.2634 -0.0168 -0.9013
  120MOL0     C16071   5.843   9.329  10.941  0.5685 -0.7907 -0.0741
  120MOL0     C16072   5.796   9.234  11.024  0.3109  0.9194  0.6250
  120MOL0     O16073   5.661   9.210  11.039  0.4426  0.2069 -0.0187
  120MOL0     C16074   5.588   9.325  11.088 -0.0775 -0.0623 -0.2010
  120MOL0     C16075   5.589   9.303  11.240  0.7642 -1.0312  0.3559
  120MOL0     C16076   5.517   9.175  11.276  0.2178 -0.3610  0.3603
  120MOL0     C16077   5.445   9.198  11.411 -0.1282  0.2176  0.2610
  120MOL0     C16078   5.360   9.076  11.436  0.4603  1.0351  0.7972
  120MOL0     C16079   5.298   9.079  11.578  0.0743  0.8815  0.1839
  120MOL0     C16080   5.200   9.207  11.601  0.2526 -0.0420 -1.0137
  120MOL0     C16081   5.148   9.200  11.740  0.2573  0.1140  0.0214
  120MOL0     N16082   5.055   9.306  11.777 -0.1479 -0.2398  0.4835
  120MOL0     C16083   5.091   9.416  11.842  0.1822  0.0817  0.6498
  120MOL0     C16084   4.987   9.493  11.862  0.1473  0.0703  0.5696
  120MOL0     C16085   4.977   9.616  11.944 -0.5307  0.4912  0.7307
  120MOL0     C16086   4.860   9.613  12.040  0.7988  0.2325 -0.8127
  120MOL0     C16087   4.855   9.732  12.135 -0.5502 -0.3304 -0.0807
  120MOL0     C16088   4.840   9.859  12.061 -0.1513 -0.1436  0.2951
  120MOL0     O16089   4.880   9.978  12.131  0.1066  0.0076 -0.6913
  120MOL0     C16090   4.794  10.068  12.172 -0.9332 -1.0610 -0.3732
  120MOL0     C16091   4.658  10.060  12.193  0.4421 -0.3207  0.0005
  120MOL0     C16092   4.576  10.174  12.219 -0.7126  0.1465 -0.5290
  120MOL0     C16093   4.426  10.158  12.186 -0.4254  0.2929 -0.2822
  120MOL0     C16094   4.642  10.295  12.249 -0.5398 -0.2074  0.1216
  120MOL0     C16095   4.569  10.416  12.294  0.0129  0.1931 -0.3364
  120MOL0     O16096   4.592  10.529  12.224 -0.5982  0.0270  0.1385
  120MOL0     C16097   4.530  10.642  12.269  0.1974 -0.2956 -0.4546
  120MOL0     C16098   4.409  10.690  12.225 -0.1656 -0.3346  0.6387
  120MOL0     C16099   4.351  10.806  12.275 -0.9463 -0.7700 -1.1668
  120MOL0     C16100   4.418  10.891  12.368  0.2701 -0.1219 -0.0368
  120MOL0     O16101   4.364  11.006  12.408  0.1207  0.4379 -0.9691
  120MOL0     C16102   4.423  11.074  12.512  0.0353  0.3155 -0.3983
  120MOL0     C16103   4.338  11.201  12.543 -1.1060 -0.2466 -0.0173
  120MOL0     C16104   4.195  11.171  12.568  0.2783  0.3843  0.7716
  120MOL0     C16105   4.123  11.271  12.657  0.2585 -1.3071 -0.1763
  120MOL0     C16106   4.103  11.418  12.606 -0.0687 -0.4039  0.5206
  120MOL0     C16107   3.972  11.479  12.680 -0.9794 -0.2314  0.6507
  120MOL0     C16108   3.922  11.601  12.606 -0.2198 -0.1160  0.1857
  120MOL0     C16109   3.772  11.632  12.628  0.2282  0.4796  0.7849
  120MOL0    Cl16110   3.734  11.655  12.797 -0.2631  0.6074  0.1077
  120MOL0     C16111   4.548  10.843  12.409 -0.4045 -0.3211 -0.0953
  120MOL0     C16112   4.606  10.723  12.360  0.3191  0.2631 -0.7100
  120MOL0     O16113   4.494  10.402  12.387  0.4764  0.6687  0.3440
  120MOL0     C16114   4.784  10.307  12.232  0.5792  0.0966  0.2565
  120MOL0     C16115   4.859  10.194  12.189  0.8799 -0.1150  0.0184
  120MOL0     N16116   4.884   9.425  11.788 -0.4012  0.3694  0.1586
  120MOL0     N16117   4.924   9.312  11.738  0.3761 -0.3029 -0.1541
  120MOL0     C16118   5.887   9.162  11.102 -0.8187 -0.2152 -0.1495
  120MOL0     C16119   6.022   9.187  11.086 -0.2483  0.7532 -0.4740
  120MOL0     C16120   6.428   9.401  11.012 -0.6835 -0.5692  0.4216
  120MOL0     C16121   6.505   9.290  11.060  0.0179 -0.2059  0.0496
  120MOL0     C16122   6.639   9.298  11.064 -0.1316  0.5600 -0.6766
  120MOL0     C16123   6.711   9.403  11.017 -0.2153 -0.0007 -0.0097
  120MOL0     O16124   6.851   9.395  10.998 -0.7122 -0.2621  0.0418
  120MOL0     C16125   6.923   9.524  11.016 -0.4827  0.8673  0.5806
  120MOL0     C16126   7.039   9.511  11.119  0.0708  0.9672  0.8727
  120MOL0     C16127   6.971   9.519  11.253 -0.4316 -0.0759  0.2519
  120MOL0     C16128   7.075   9.491  11.361 -0.1267  0.3086  0.8420
  120MOL0     C16129   7.013   9.524  11.483  0.7853  0.4249 -0.3838
  120MOL0     C16130   6.954   9.544  11.585  0.0935 -0.4344  0.1034
  120MOL0     C16131   6.634   9.515  10.978  0.1827 -0.4454  0.1491
  120MOL0     C16132   6.502   9.514  10.976  0.7064 -0.4138  0.1655
  120MOL0     H16133   6.016   9.423  10.838  2.8297  1.6947  1.8836
  120MOL0     H16134   5.768   9.392  10.892  0.5968  0.1651  1.0711
  120MOL0     H16135   5.630   9.421  11.059  2.1374 -0.3013  1.9089
  120MOL0     H16136   5.486   9.325  11.047 -0.2154  0.7282  0.1162
  120MOL0     H16137   5.692   9.295  11.278  0.9723  0.8328  0.2672
  120MOL0     H16138   5.544   9.388  11.290 -1.8337 -0.8282 -2.0925
  120MOL0     H16139   5.450   9.151  11.193  0.8852 -1.5801  0.1464
  120MOL0     H16140   5.596   9.101  11.292  0.9654  0.7240  2.0390
  120MOL0     H16141   5.524   9.204  11.486 -3.0249  2.0888  3.4114
  120MOL0     H16142   5.394   9.295  11.405  4.0294  2.5829 -0.8589
  120MOL0     H16143   5.287   9.074  11.354  2.1418  0.1155 -0.7527
  120MOL0     H16144   5.413   8.983  11.411 -0.8137  0.1509  1.2565
  120MOL0     H16145   5.243   8.984  11.589  1.3972 -0.0979 -1.2030
  120MOL0     H16146   5.373   9.070  11.657 -0.2683  0.7512  0.4996
  120MOL0     H16147   5.253   9.301  11.583 -1.7274  1.3872  0.1280
  120MOL0     H16148   5.119   9.201  11.528 -0.3310  2.5073 -0.6931
  120MOL0     H16149   5.236   9.201  11.805  0.7598  0.9960 -0.6604
  120MOL0     H16150   5.098   9.103  11.745  2.5446 -1.2235 -1.0089
  120MOL0     H16151   5.186   9.457  11.875 -1.0457  3.0624  0.8046
  120MOL0     H16152   5.072   9.634  11.995  0.1701 -2.1377  0.5276
  120MOL0     H16153   4.959   9.691  11.866 -0.6221 -0.0816  0.1925
  120MOL0     H16154   4.870   9.531  12.111  4.7309  2.1081  1.1015
  120MOL0     H16155   4.769   9.602  11.980 -0.8539  0.6789  1.4804
  120MOL0     H16156   4.953   9.730  12.183 -0.4745  0.9175 -0.1615
  120MOL0     H16157   4.771   9.714  12.203 -0.4114 -2.1208 -0.3488
  120MOL0     H16158   4.738   9.864  12.024 -0.4062 -1.8406  0.6742
  120MOL0     H16159   4.894   9.852  11.966  1.9771  2.3585  1.1849
  120MOL0     H16160   4.615   9.961  12.184  2.1387 -1.3660  2.3119
  120MOL0     H16161   4.419  10.093  12.098  0.9069 -0.8883  0.4346
  120MOL0     H16162   4.368  10.103  12.261 -1.2488 -2.1725 -2.5621
  120MOL0     H16163   4.377  10.248  12.150 -1.3332 -0.9690 -2.4030
  120MOL0     H16164   4.364  10.640  12.140  1.5372 -0.2411 -0.3450
  120MOL0     H16165   4.250  10.838  12.248 -0.2221  1.8953 -1.0212
  120MOL0     H16166   4.439  11.017  12.604  0.6372  0.8536 -0.1638
  120MOL0     H16167   4.521  11.104  12.474 -0.1861  1.3674 -0.1603
  120MOL0     H16168   4.391  11.240  12.631  1.1239 -0.9636 -0.9673
  120MOL0     H16169   4.346  11.268  12.456  1.2419  0.5750  0.7496
  120MOL0     H16170   4.184  11.069  12.607  2.6002 -0.1652  0.1920
  120MOL0     H16171   4.143  11.164  12.472 -1.6046 -0.7160  1.8231
  120MOL0     H16172   4.025  11.230  12.682  0.1437 -0.4790  0.8541
  120MOL0     H16173   4.178  11.282  12.751  0.3814  1.3414 -0.4751
  120MOL0     H16174   4.083  11.414  12.498 -0.1692  0.5549  0.4935
  120MOL0     H16175   4.194  11.479  12.603  0.3592 -0.9307  1.9757
  120MOL0     H16176   3.890  11.408  12.666 -0.9103 -0.4195  1.1718
  120MOL0     H16177   3.989  11.506  12.785  0.5585 -1.3534  0.7189
  120MOL0     H16178   3.936  11.596  12.497 -1.3528  1.4621 -0.0779
  120MOL0     H16179   3.973  11.694  12.632 -0.3458 -0.2598  0.9557
  120MOL0     H16180   3.709  11.553  12.586  0.4460 -0.3015  1.9225
  120MOL0     H16181   3.743  11.724  12.575  1.5064  0.6544  0.3419
  120MOL0     H16182   4.615  10.910  12.463  0.4330  0.4291 -1.9550
  120MOL0     H16183   4.709  10.699  12.382  0.2314 -0.2216 -0.8109
  120MOL0     H16184   4.827  10.404  12.253 -3.2940  1.4164  3.0892
  120MOL0     H16185   4.963  10.215  12.167  1.1903 -1.4355  0.1624
  120MOL0     H16186   5.852   9.096  11.181  0.5684 -0.8298 -0.0091
  120MOL0     H16187   6.093   9.137  11.151 -0.3984  0.5165 -0.4920
  120MOL0     H16188   6.453   9.194  11.064  0.3785 -0.5558 -2.2429
  120MOL0     H16189   6.697   9.212  11.095  0.8589  0.7917 -1.8530
  120MOL0     H16190   6.957   9.562  10.919  1.2002 -0.1021  0.7601
  120MOL0     H16191   6.853   9.595  11.061 -0.6127 -0.0486  1.8774
  120MOL0     H16192   7.108   9.593  11.098 -0.5624  1.4320  0.5793
  120MOL0     H16193   7.100   9.422  11.104  0.0425  1.2605 -1.2769
  120MOL0     H16194   6.892   9.444  11.262  1.5023 -2.0672  1.8919
  120MOL0     H16195   6.928   9.618  11.268  1.3767  0.4909  2.2621
  120MOL0     H16196   7.168   9.545  11.342 -0.6522  0.7847 -0.5044
  120MOL0     H16197   7.092   9.384  11.347 -0.0551  0.6492 -2.2793
  120MOL0     H16198   6.896   9.559  11.673  0.8108 -0.1507  0.5357
  120MOL0     H16199   6.677   9.598  10.923 -0.5165 -1.5282 -2.1797
  120MOL0     H16200   6.453   9.606  10.946 -0.5549 -1.4184 -1.0546
  121MOL0     O16201   0.788   3.023   1.108 -0.4655  0.6710 -0.4300
  121MOL0     C16202   0.808   2.913   1.154  0.6347 -0.2550  0.4035
  121MOL0     O16203   0.708   2.818   1.170 -0.4351 -0.1009 -0.0943
  121MOL0     C16204   0.575   2.837   1.125  0.3061  0.2126 -0.2795
  121MOL0     C16205   0.510   2.957   1.150  0.6658  0.5414 -0.0093
  121MOL0     C16206   0.373   2.966   1.121 -0.6377 -0.9747 -0.1813
  121MOL0     C16207   0.306   2.861   1.061  0.3560  0.9265  0.2697
  121MOL0     O16208   0.172   2.894   1.032  0.6129  0.3351 -0.0378
  121MOL0     C16209   0.098   2.802   0.941 -0.1335  0.9589 -0.2023
  121MOL0     C16210   0.002   2.702   1.023  1.0151 -1.2178 -0.9219
  121MOL0     C16211  -0.056   2.605   0.912 -0.2442  0.1868 -0.7966
  121MOL0     C16212  -0.160   2.504   0.980 -0.3992 -0.4517  0.3522
  121MOL0     C16213  -0.269   2.447   0.885 -0.6368  0.0684  0.1945
  121MOL0     C16214  -0.353   2.334   0.958 -0.7232  0.0195  0.2372
  121MOL0     C16215  -0.270   2.217   1.026 -0.5438 -0.7435 -0.6083
  121MOL0     C16216  -0.163   2.148   0.931  0.6188  0.5452  0.3897
  121MOL0     N16217  -0.219   2.072   0.819  0.4698 -0.6775  0.3599
  121MOL0     C16218  -0.250   2.131   0.699 -0.0387  0.4017  0.9911
  121MOL0     C16219  -0.312   2.036   0.621 -0.0056 -0.1774 -1.5990
  121MOL0     C16220  -0.354   2.058   0.472  0.1518 -0.4436 -0.6608
  121MOL0     C16221  -0.495   2.005   0.443  0.6227 -0.9280 -0.5031
  121MOL0     C16222  -0.600   2.120   0.437 -0.1704  0.1934 -0.5215
  121MOL0     C16223  -0.737   2.051   0.422  1.6038 -0.2225  0.6297
  121MOL0     O16224  -0.831   2.161   0.426 -0.6627 -0.2877 -0.9853
  121MOL0     C16225  -0.960   2.132   0.429 -0.1372 -0.1228  1.1043
  121MOL0     C16226  -1.010   2.037   0.510  0.2451 -0.0472 -0.5214
  121MOL0     C16227  -1.148   2.004   0.520  0.5555  0.4307 -1.0280
  121MOL0     C16228  -1.177   1.901   0.629  0.4707 -0.3038 -0.1332
  121MOL0     C16229  -1.242   2.076   0.438  0.2405 -1.0664  0.2871
  121MOL0     C16230  -1.386   2.080   0.445 -0.3041  0.9528  1.0239
  121MOL0     O16231  -1.451   2.143   0.340  0.4803  0.1566 -0.2306
  121MOL0     C16232  -1.578   2.187   0.351 -0.9329 -0.2470 -0.0773
  121MOL0     C16233  -1.683   2.091   0.359 -0.0224 -0.8870 -0.0703
  121MOL0     C16234  -1.816   2.143   0.355  0.1116  1.0648 -0.2961
  121MOL0     C16235  -1.842   2.284   0.360 -0.2360  0.7812  0.4519
  121MOL0     O16236  -1.972   2.338   0.357  0.6436  0.5503 -0.3099
  121MOL0     C16237  -2.078   2.249   0.320 -0.2181 -0.1263  0.1855
  121MOL0     C16238  -2.205   2.335   0.299  0.0510  0.1377 -0.0979
  121MOL0     C16239  -2.193   2.383   0.161 -0.5585 -0.7658 -0.5836
  121MOL0     C16240  -2.307   2.482   0.130 -0.0154 -0.5139 -0.0383
  121MOL0     C16241  -2.269   2.604   0.034 -0.2501 -0.6084  1.2356
  121MOL0     C16242  -2.259   2.561  -0.107  0.1558 -0.9845  0.3822
  121MOL0     C16243  -2.266   2.675  -0.205 -0.0381  0.8713 -0.3160
  121MOL0     C16244  -2.209   2.627  -0.341 -0.1002 -0.1802 -0.4888
  121MOL0    Cl16245  -2.274   2.729  -0.481  0.3079 -0.3688 -0.1497
  121MOL0     C16246  -1.735   2.372   0.362 -0.0090 -1.2503 -0.4470
  121MOL0     C16247  -1.605   2.320   0.360 -0.4457  0.0986 -0.3086
  121MOL0     O16248  -1.441   2.025   0.539 -0.1145 -0.3687  0.6611
  121MOL0     C16249  -1.181   2.175   0.352 -0.9053 -1.0262 -0.4268
  121MOL0     C16250  -1.050   2.196   0.342 -1.6664  0.1501  0.8220
  121MOL0     N16251  -0.328   1.920   0.702 -0.2260  0.2646 -0.1911
  121MOL0     N16252  -0.277   1.948   0.821  0.2168  0.3621  0.4469
  121MOL0     C16253   0.370   2.739   1.038 -0.7234  0.2132  0.7468
  121MOL0     C16254   0.507   2.726   1.075  0.2043  0.1617  0.6256
  121MOL0     C16255   0.939   2.872   1.197  0.4806 -0.1178  0.2004
  121MOL0     C16256   1.022   2.978   1.243 -0.2962  0.0554  0.4397
  121MOL0     C16257   1.151   2.946   1.283 -0.0056 -0.2514 -0.3862
  121MOL0     C16258   1.198   2.808   1.273 -0.5668  0.2683  1.1331
  121MOL0     O16259   1.331   2.777   1.306 -0.4805  0.2768 -0.1378
  121MOL0     C16260   1.403   2.687   1.222  0.2268 -0.8302  1.0102
  121MOL0     C16261   1.548   2.693   1.253  0.8114 -0.2222 -0.9188
  121MOL0     C16262   1.608   2.820   1.204 -0.6870 -0.6046  0.9764
  121MOL0     C16263   1.641   2.820   1.057  0.5296  0.1598  0.2450
  121MOL0     C16264   1.769   2.756   1.019 -0.2632 -1.0493  0.4109
  121MOL0     C16265   1.866   2.692   0.983 -0.1980  0.2637  0.7252
  121MOL0     C16266   1.107   2.709   1.224 -0.7649  0.6495 -0.8354
  121MOL0     C16267   0.979   2.741   1.188  0.2485  0.0167 -0.0833
  121MOL0     H16268   0.547   3.044   1.204 -0.0874  0.3013  0.9272
  121MOL0     H16269   0.321   3.057   1.148  1.5263  0.5160 -0.7668
  121MOL0     H16270   0.040   2.869   0.877 -0.3756  3.5767  2.5355
  121MOL0     H16271   0.168   2.751   0.874 -2.1026 -1.0654 -0.8472
  121MOL0     H16272   0.049   2.647   1.105  1.5607  0.6608  0.0772
  121MOL0     H16273  -0.077   2.762   1.068  0.0573 -1.2272 -2.5085
  121MOL0     H16274  -0.104   2.671   0.839 -0.6150  1.8778  0.8890
  121MOL0     H16275   0.031   2.549   0.876 -0.5317  0.2528 -1.6144
  121MOL0     H16276  -0.094   2.431   1.026 -2.8491 -2.3149  1.1313
  121MOL0     H16277  -0.212   2.566   1.054 -1.5720 -0.1968 -0.6493
  121MOL0     H16278  -0.331   2.527   0.843 -1.0839 -0.7777 -0.8048
  121MOL0     H16279  -0.225   2.392   0.801  0.2370 -1.1236  1.3864
  121MOL0     H16280  -0.410   2.378   1.040 -4.8644 -1.1789 -1.7469
  121MOL0     H16281  -0.420   2.291   0.884  0.2844  0.1226 -0.7730
  121MOL0     H16282  -0.215   2.245   1.116 -0.9962 -1.1809 -0.1884
  121MOL0     H16283  -0.351   2.148   1.054  0.7716 -1.6200  1.2106
  121MOL0     H16284  -0.100   2.079   0.989  0.3531  0.8595  1.0639
  121MOL0     H16285  -0.100   2.233   0.905 -0.5160  1.2481 -0.1301
  121MOL0     H16286  -0.215   2.230   0.672  1.6885 -0.5499 -0.5033
  121MOL0     H16287  -0.349   2.166   0.454 -0.0208 -0.3845 -0.3674
  121MOL0     H16288  -0.288   1.999   0.407  1.1332 -1.7713  1.4339
  121MOL0     H16289  -0.530   1.931   0.515 -3.1582 -1.0327 -2.1967
  121MOL0     H16290  -0.490   1.959   0.343 -2.9018  0.7578 -1.6148
  121MOL0     H16291  -0.577   2.188   0.354 -2.8405 -0.0041 -1.5211
  121MOL0     H16292  -0.604   2.171   0.534 -2.5330  1.9820 -1.4404
  121MOL0     H16293  -0.758   1.973   0.496 -1.0998  1.6606  2.0334
  121MOL0     H16294  -0.747   2.001   0.325 -0.2423 -1.3674  1.3447
  121MOL0     H16295  -0.956   1.998   0.596 -1.6578 -0.1670  0.6823
  121MOL0     H16296  -1.283   1.898   0.656  0.5566  0.6195  0.3580
  121MOL0     H16297  -1.142   1.806   0.588 -0.7572  0.0502 -2.1364
  121MOL0     H16298  -1.122   1.928   0.719  1.4487  1.2908 -1.1554
  121MOL0     H16299  -1.665   1.984   0.372 -0.7803 -0.7762  2.3076
  121MOL0     H16300  -1.893   2.068   0.347  1.1290 -0.1310  0.6368
  121MOL0     H16301  -2.058   2.183   0.235 -2.6436 -0.5404 -0.1353
  121MOL0     H16302  -2.095   2.179   0.402 -2.5671 -1.2781 -1.1640
  121MOL0     H16303  -2.286   2.262   0.302  0.8320 -0.7297  0.9730
  121MOL0     H16304  -2.209   2.412   0.376  0.7089 -0.0323  0.1169
  121MOL0     H16305  -2.204   2.307   0.083  0.1784 -2.6275  1.0469
  121MOL0     H16306  -2.095   2.432   0.153 -1.3210  1.6759  2.7761
  121MOL0     H16307  -2.390   2.422   0.091  0.8210 -1.7061 -0.0343
  121MOL0     H16308  -2.351   2.537   0.214  0.1323  2.7811 -1.9517
  121MOL0     H16309  -2.175   2.648   0.070 -1.0277  0.7671  1.6855
  121MOL0     H16310  -2.337   2.690   0.039 -0.4010 -0.2470 -3.0441
  121MOL0     H16311  -2.181   2.488  -0.131 -0.9349 -1.2930 -2.7041
  121MOL0     H16312  -2.348   2.498  -0.124  0.8069 -1.6958 -0.5283
  121MOL0     H16313  -2.217   2.765  -0.164 -0.1495  0.0569  1.7419
  121MOL0     H16314  -2.369   2.703  -0.229  0.0266  1.2657 -0.1506
  121MOL0     H16315  -2.232   2.522  -0.358  3.4766 -1.2317  0.1954
  121MOL0     H16316  -2.100   2.640  -0.347  0.3839 -2.2219  1.9000
  121MOL0     H16317  -1.756   2.478   0.349  0.0124 -1.2461 -0.4479
  121MOL0     H16318  -1.521   2.389   0.358  0.0093 -0.4396 -0.1760
  121MOL0     H16319  -1.238   2.234   0.282  0.7356  0.6871 -0.3955
  121MOL0     H16320  -1.011   2.265   0.268  1.5751 -0.5552  1.7306
  121MOL0     H16321   0.315   2.653   1.001  0.9793 -1.5642  2.0735
  121MOL0     H16322   0.552   2.628   1.059 -0.3500 -0.2610  1.5502
  121MOL0     H16323   0.984   3.080   1.238 -1.5984 -0.4653 -0.9545
  121MOL0     H16324   1.225   3.020   1.310 -0.1042  0.9321 -3.0306
  121MOL0     H16325   1.364   2.587   1.239 -2.3774  0.0390  0.5333
  121MOL0     H16326   1.396   2.721   1.118  0.8972 -2.2584  0.4773
  121MOL0     H16327   1.597   2.604   1.212 -1.4486 -2.0948  0.1277
  121MOL0     H16328   1.559   2.696   1.362  0.2083 -1.8346 -0.7835
  121MOL0     H16329   1.703   2.840   1.255 -0.3405 -1.6438  0.7633
  121MOL0     H16330   1.549   2.906   1.236  0.9053  1.5388 -1.5365
  121MOL0     H16331   1.658   2.927   1.041 -1.6863  0.4773 -0.2643
  121MOL0     H16332   1.566   2.773   0.993  1.6036 -0.8875 -0.2955
  121MOL0     H16333   1.953   2.641   0.948 -0.3539  0.1370  0.5205
  121MOL0     H16334   1.143   2.607   1.227 -2.6797 -0.0741  1.2159
  121MOL0     H16335   0.916   2.661   1.151  1.5128 -3.0864  3.7401
  122MOL0     O16336   3.447  10.030   4.090  0.6368 -0.4909  0.1004
  122MOL0     C16337   3.537  10.087   4.035  0.8022 -0.9052  0.2763
  122MOL0     O16338   3.555  10.106   3.893  0.2744  0.6312 -0.3717
  122MOL0     C16339   3.480  10.015   3.803 -0.1955 -0.7257 -0.3897
  122MOL0     C16340   3.457  10.072   3.674  0.1312 -0.3059 -0.2015
  122MOL0     C16341   3.415   9.990   3.577  0.8020  0.9659  0.2000
  122MOL0     C16342   3.389   9.858   3.598 -0.2973  0.3562  0.6264
  122MOL0     O16343   3.353   9.771   3.495  0.5081  0.3600  0.1548
  122MOL0     C16344   3.206   9.748   3.495 -0.4724  0.4835  0.5278
  122MOL0     C16345   3.162   9.627   3.409  0.5882  0.1196  0.1720
  122MOL0     C16346   3.011   9.617   3.394 -0.0081  0.2800 -0.4856
  122MOL0     C16347   2.963   9.735   3.305  1.1379 -0.0154 -0.0321
  122MOL0     C16348   2.809   9.750   3.296  0.0040  0.3668 -0.2120
  122MOL0     C16349   2.760   9.869   3.201 -1.0588 -0.5165  0.4247
  122MOL0     C16350   2.615   9.858   3.171 -0.4725 -0.6448 -0.1656
  122MOL0     C16351   2.569   9.958   3.068  0.5180 -0.6002 -0.3360
  122MOL0     N16352   2.420   9.973   3.057 -0.3315 -0.1487  0.9009
  122MOL0     C16353   2.342   9.876   2.994 -0.5270  0.1089  0.3033
  122MOL0     C16354   2.212   9.924   3.012 -0.2260  0.6860 -0.1079
  122MOL0     C16355   2.082   9.856   2.975 -0.2058  0.2320  0.4648
  122MOL0     C16356   2.065   9.723   3.054 -0.4397  0.6074  0.0734
  122MOL0     C16357   2.103   9.605   2.967  0.0550 -0.5495  0.4794
  122MOL0     C16358   1.984   9.521   2.919 -0.3295  0.6057 -0.7121
  122MOL0     O16359   1.865   9.597   2.887 -0.4824 -0.4166  0.8371
  122MOL0     C16360   1.749   9.525   2.861  0.4821 -0.1721  0.0394
  122MOL0     C16361   1.750   9.387   2.816 -0.7180  0.5091  0.0393
  122MOL0     C16362   1.619   9.323   2.784  0.1861 -0.1903 -0.1022
  122MOL0     C16363   1.641   9.186   2.721 -0.1540  0.5575 -0.3041
  122MOL0     C16364   1.496   9.385   2.815 -0.4915  0.2121  0.2588
  122MOL0     C16365   1.360   9.314   2.815 -0.1357 -0.3803  0.6636
  122MOL0     O16366   1.267   9.363   2.903  0.2733  0.2555 -0.0559
  122MOL0     C16367   1.145   9.298   2.926 -0.3659 -0.2465  0.1409
  122MOL0     C16368   1.100   9.287   3.060  0.0431 -0.5171 -0.6095
  122MOL0     C16369   0.983   9.233   3.091 -0.5326  0.6239 -0.1298
  122MOL0     C16370   0.894   9.192   2.990  0.3995  0.6647  0.7974
  122MOL0     O16371   0.759   9.158   3.027  0.3530 -0.2444  1.1878
  122MOL0     C16372   0.656   9.142   2.927  0.2875  0.6063 -0.6139
  122MOL0     C16373   0.523   9.084   2.982 -0.5276  0.0044 -0.4320
  122MOL0     C16374   0.425   9.047   2.869 -0.4980  0.1239  0.4846
  122MOL0     C16375   0.286   9.016   2.924 -0.9577  0.1799  0.3104
  122MOL0     C16376   0.262   8.886   3.005 -0.1933  0.4399  0.5014
  122MOL0     C16377   0.140   8.899   3.087 -0.7396  0.2952  0.5285
  122MOL0     C16378   0.109   8.772   3.173  0.4442 -1.3042 -0.4365
  122MOL0     C16379  -0.008   8.796   3.271 -0.5053 -1.3590 -0.3947
  122MOL0    Cl16380  -0.063   8.646   3.332  0.0217  0.4740  0.0952
  122MOL0     C16381   0.933   9.199   2.858  0.2008  0.0677 -0.3905
  122MOL0     C16382   1.052   9.259   2.829 -0.8822  0.0840  0.0070
  122MOL0     O16383   1.344   9.213   2.747 -0.0570  0.3916 -0.2606
  122MOL0     C16384   1.503   9.526   2.855  0.2088  0.3282  0.4041
  122MOL0     C16385   1.627   9.594   2.872 -0.1319  0.2690  0.6521
  122MOL0     N16386   2.233  10.051   3.075  0.1450 -0.0531  0.3336
  122MOL0     N16387   2.357  10.082   3.099 -0.0720  0.1033  0.0006
  122MOL0     C16388   3.417   9.797   3.718 -0.6338 -0.4324  0.1437
  122MOL0     C16389   3.464   9.878   3.825 -0.1011 -0.0372  0.5188
  122MOL0     C16390   3.634  10.162   4.124  0.2367  0.0504  0.3075
  122MOL0     C16391   3.748  10.222   4.070  0.5963  0.1983 -0.4900
  122MOL0     C16392   3.841  10.288   4.150 -0.1814 -0.6173  0.0761
  122MOL0     C16393   3.822  10.296   4.285  0.1791 -0.2336 -0.6141
  122MOL0     O16394   3.917  10.346   4.370  0.1927 -0.0227  0.7832
  122MOL0     C16395   3.974  10.473   4.332  0.1665  0.8179  0.1846
  122MOL0     C16396   4.065  10.522   4.449 -0.2304 -0.0004  0.1681
  122MOL0     C16397   4.215  10.480   4.425  0.2335 -0.8129 -1.0090
  122MOL0     C16398   4.314  10.592   4.410 -0.3855  0.5294 -0.8173
  122MOL0     C16399   4.298  10.664   4.285  0.1141  0.3030 -0.0434
  122MOL0     C16400   4.284  10.719   4.176 -0.2290  0.0169 -0.8170
  122MOL0     C16401   3.714  10.233   4.348  0.2277 -0.0156  0.3881
  122MOL0     C16402   3.618  10.164   4.266 -0.3036 -0.6373  0.5069
  122MOL0     H16403   3.495  10.168   3.640 -1.3479  0.4389  0.1586
  122MOL0     H16404   3.391  10.043   3.485 -0.4101  2.5435  1.3804
  122MOL0     H16405   3.163   9.746   3.595 -3.4577  0.8823 -0.6649
  122MOL0     H16406   3.164   9.838   3.451  0.7364  0.9989  0.3796
  122MOL0     H16407   3.196   9.642   3.306 -2.0966 -1.4471 -1.0611
  122MOL0     H16408   3.210   9.539   3.452  1.6002  0.5555 -0.0439
  122MOL0     H16409   2.978   9.519   3.358 -3.4945  1.6383 -1.4559
  122MOL0     H16410   2.965   9.620   3.493  1.4956 -3.0799  0.4394
  122MOL0     H16411   3.013   9.829   3.328  1.3771  0.3171 -1.7292
  122MOL0     H16412   2.992   9.721   3.200 -1.8238  1.9487 -1.2365
  122MOL0     H16413   2.771   9.651   3.267 -0.8755  0.3518  0.9057
  122MOL0     H16414   2.766   9.748   3.397 -0.4309 -6.8019  0.0279
  122MOL0     H16415   2.784   9.962   3.253  0.6003  0.6153 -2.1899
  122MOL0     H16416   2.812   9.859   3.106  2.1503  0.3464  1.9395
  122MOL0     H16417   2.589   9.763   3.122 -1.0999 -0.4742 -0.1805
  122MOL0     H16418   2.552   9.857   3.260 -2.2410 -0.6032 -1.3614
  122MOL0     H16419   2.593   9.925   2.966 -0.2820  0.9058 -1.0589
  122MOL0     H16420   2.613  10.055   3.094  0.1442 -0.8046  1.1608
  122MOL0     H16421   2.373   9.780   2.954 -0.6186  0.4648 -0.6438
  122MOL0     H16422   2.002   9.927   2.997 -0.6408  0.5641 -1.9099
  122MOL0     H16423   2.071   9.849   2.867 -1.6865  3.1998  0.3370
  122MOL0     H16424   1.963   9.723   3.092 -0.2625  0.7872  0.5624
  122MOL0     H16425   2.134   9.713   3.139 -0.3879 -1.4125 -0.1559
  122MOL0     H16426   2.167   9.540   3.028  0.8154  1.5237  1.9845
  122MOL0     H16427   2.166   9.635   2.883 -2.4332  1.0097 -0.9425
  122MOL0     H16428   1.963   9.443   2.992 -2.7261  0.7746 -1.1439
  122MOL0     H16429   2.018   9.467   2.830 -0.9089 -0.2314 -0.4329
  122MOL0     H16430   1.848   9.340   2.805 -1.2442 -0.2115 -1.8602
  122MOL0     H16431   1.563   9.169   2.647  0.0689  1.3140 -0.7156
  122MOL0     H16432   1.743   9.169   2.684  0.5336  1.4799  1.0677
  122MOL0     H16433   1.624   9.105   2.793 -0.5093  0.9148  0.0150
  122MOL0     H16434   1.176   9.331   3.124 -0.6644 -0.3769  0.1495
  122MOL0     H16435   0.946   9.220   3.192  0.1307 -0.9174 -0.0629
  122MOL0     H16436   0.644   9.238   2.875  1.1410  0.8032 -0.4556
  122MOL0     H16437   0.690   9.061   2.861 -0.8685 -0.4452  0.0403
  122MOL0     H16438   0.546   8.996   3.042 -1.9332  0.3234  0.6143
  122MOL0     H16439   0.471   9.154   3.047  0.7691  0.8096 -0.2378
  122MOL0     H16440   0.469   8.962   2.816  1.2131  0.9886  0.4598
  122MOL0     H16441   0.407   9.128   2.797 -0.0027 -0.8250 -0.7437
  122MOL0     H16442   0.260   9.102   2.987  0.2611  0.9734 -0.2321
  122MOL0     H16443   0.210   9.024   2.846  0.5704  1.7350 -1.0935
  122MOL0     H16444   0.347   8.870   3.072 -0.5792 -0.3519  0.8183
  122MOL0     H16445   0.255   8.807   2.930  0.6099  1.3118 -0.5384
  122MOL0     H16446   0.129   8.993   3.142 -1.4063  0.7358 -0.3260
  122MOL0     H16447   0.053   8.902   3.021 -0.6429 -0.3718  0.3685
  122MOL0     H16448   0.198   8.747   3.231 -0.9227 -0.7498  2.0097
  122MOL0     H16449   0.101   8.689   3.101  0.7600 -1.1441 -0.6573
  122MOL0     H16450  -0.093   8.846   3.224  0.0276  0.1295  0.1474
  122MOL0     H16451   0.029   8.860   3.352 -0.6008 -1.6359 -0.1277
  122MOL0     H16452   0.880   9.146   2.779 -1.3715 -1.9446  1.8523
  122MOL0     H16453   1.064   9.268   2.722 -1.1236 -2.8693 -0.3535
  122MOL0     H16454   1.413   9.583   2.875  0.3314  0.0348  1.8475
  122MOL0     H16455   1.642   9.693   2.914  0.8509 -0.2108  1.4773
  122MOL0     H16456   3.415   9.692   3.744 -1.5417  0.1040  2.6060
  122MOL0     H16457   3.492   9.843   3.925 -0.7390 -1.5701  0.1812
  122MOL0     H16458   3.762  10.221   3.963 -2.1011 -0.9487 -0.8815
  122MOL0     H16459   3.919  10.344   4.099  0.4667 -1.0674  0.5602
  122MOL0     H16460   4.035  10.457   4.242 -1.3172  1.6759 -1.0197
  122MOL0     H16461   3.895  10.544   4.308 -0.0533  0.8653  1.0218
  122MOL0     H16462   4.039  10.477   4.546  0.4033  1.6815  1.1604
  122MOL0     H16463   4.066  10.629   4.469 -0.5286 -0.0852  0.6650
  122MOL0     H16464   4.220  10.416   4.336 -0.4172 -1.8358 -0.3266
  122MOL0     H16465   4.240  10.420   4.513 -0.4646  0.1978 -0.1014
  122MOL0     H16466   4.416  10.554   4.413 -0.3540  0.6201  1.9500
  122MOL0     H16467   4.302  10.659   4.496  1.7929  0.6622 -0.5690
  122MOL0     H16468   4.276  10.765   4.079 -2.4394 -1.0981 -1.2156
  122MOL0     H16469   3.702  10.227   4.456  0.8818 -2.2375  0.3939
  122MOL0     H16470   3.526  10.130   4.313 -1.4193 -1.5805 -2.1648
  123MOL0     O16471   5.183   5.571   7.029 -0.0786  0.3307 -0.5486
  123MOL0     C16472   5.263   5.502   7.097  0.4236  0.6085  0.2749
  123MOL0     O16473   5.244   5.372   7.133  0.3744  0.0668 -0.2136
  123MOL0     C16474   5.131   5.301   7.103 -0.3736  0.3654 -0.5990
  123MOL0     C16475   5.034   5.318   6.993 -0.6012  0.0527 -0.1558
  123MOL0     C16476   4.933   5.223   6.975 -1.1680 -0.6049 -0.5526
  123MOL0     C16477   4.926   5.107   7.058  0.1564 -0.8260  0.5722
  123MOL0     O16478   4.827   5.018   7.044  0.3702  0.1790  0.3896
  123MOL0     C16479   4.821   4.959   6.906  0.5575 -0.4681 -0.7615
  123MOL0     C16480   4.720   4.830   6.898 -0.3916  0.5345  0.6624
  123MOL0     C16481   4.711   4.748   7.031 -0.3906  0.0859  0.8162
  123MOL0     C16482   4.828   4.661   7.061  0.0359 -0.0287  0.5196
  123MOL0     C16483   4.838   4.629   7.216  0.6362  0.0737 -0.1821
  123MOL0     C16484   4.718   4.553   7.259 -0.1404  0.0544  0.0383
  123MOL0     C16485   4.746   4.480   7.389 -0.3899  0.8867  0.4030
  123MOL0     C16486   4.803   4.563   7.514 -0.2020 -0.1810  0.7996
  123MOL0     N16487   4.955   4.576   7.508  0.6270 -0.7498 -0.0493
  123MOL0     C16488   5.051   4.492   7.465 -0.0412 -0.5432 -0.5139
  123MOL0     C16489   5.172   4.550   7.487  0.9489  0.1511 -0.5442
  123MOL0     C16490   5.301   4.501   7.431  0.1752 -0.8573  0.2590
  123MOL0     C16491   5.347   4.376   7.507  0.0519 -0.4908  0.3085
  123MOL0     C16492   5.491   4.339   7.484 -0.7217  0.2338  0.1499
  123MOL0     C16493   5.545   4.231   7.571  0.2549  0.4591  0.1994
  123MOL0     O16494   5.680   4.202   7.532 -0.5837 -0.5695  0.6391
  123MOL0     C16495   5.759   4.127   7.621  0.6648  0.1371 -0.4046
  123MOL0     C16496   5.706   4.066   7.732  0.0830  0.6241 -0.0709
  123MOL0     C16497   5.789   3.987   7.817  0.4002 -0.4067 -0.4812
  123MOL0     C16498   5.715   3.908   7.926 -0.8927 -1.9898 -0.0757
  123MOL0     C16499   5.929   3.982   7.799  0.1602  0.1507  0.6622
  123MOL0     C16500   6.013   3.928   7.899 -0.5619  0.6381 -0.4207
  123MOL0     O16501   6.136   3.995   7.930  0.0947  0.5302  0.1503
  123MOL0     C16502   6.236   3.916   7.975 -0.5945  0.5162  0.2598
  123MOL0     C16503   6.325   3.855   7.876 -1.1703  0.3176  0.0794
  123MOL0     C16504   6.441   3.785   7.929  0.3476  0.2767 -0.3361
  123MOL0     C16505   6.453   3.768   8.070 -0.3135  0.6139  0.1775
  123MOL0     O16506   6.556   3.704   8.134  0.8903  0.6611 -0.4025
  123MOL0     C16507   6.671   3.674   8.059 -0.4769 -0.0275 -0.3338
  123MOL0     C16508   6.793   3.672   8.150  0.8204 -0.5450 -0.0550
  123MOL0     C16509   6.795   3.529   8.207 -0.6846  1.0604  0.2320
  123MOL0     C16510   6.873   3.521   8.338 -0.3113 -0.4586 -0.1913
  123MOL0     C16511   7.025   3.542   8.330  0.8975 -0.3969 -0.3907
  123MOL0     C16512   7.110   3.434   8.263 -0.4653  0.1428 -0.9854
  123MOL0     C16513   7.256   3.484   8.264  1.3765 -0.5641  0.4872
  123MOL0     C16514   7.352   3.378   8.220 -0.7296  0.0053 -0.5727
  123MOL0    Cl16515   7.495   3.402   8.320 -0.2092 -0.1420 -0.5690
  123MOL0     C16516   6.365   3.831   8.157  0.0511  0.4458 -0.4744
  123MOL0     C16517   6.253   3.903   8.113  0.0017  0.0103  0.0900
  123MOL0     O16518   5.987   3.815   7.940  0.3160 -0.4432 -0.9343
  123MOL0     C16519   5.985   4.053   7.688  0.4604 -0.3873  0.2479
  123MOL0     C16520   5.894   4.122   7.600 -0.8808 -0.2328 -1.0659
  123MOL0     N16521   5.148   4.672   7.555 -0.5373 -0.5586  0.3758
  123MOL0     N16522   5.023   4.686   7.557 -0.0327 -0.4550  1.3290
  123MOL0     C16523   5.024   5.082   7.149  0.0419 -1.0462  0.4302
  123MOL0     C16524   5.118   5.184   7.180 -0.5542  0.1397  0.7110
  123MOL0     C16525   5.396   5.558   7.127  0.1083  0.0846 -0.6728
  123MOL0     C16526   5.438   5.691   7.087  0.0537 -0.0254 -0.4665
  123MOL0     C16527   5.563   5.731   7.130  0.0125  1.1713 -0.0293
  123MOL0     C16528   5.655   5.645   7.193  0.3912  0.3694  0.4035
  123MOL0     O16529   5.783   5.685   7.233 -0.2108 -0.0721 -0.5816
  123MOL0     C16530   5.849   5.800   7.178  0.3046 -0.2048 -0.4992
  123MOL0     C16531   5.975   5.815   7.248  0.5323  0.2148  0.1881
  123MOL0     C16532   6.063   5.685   7.215 -0.3589  0.3018  1.1874
  123MOL0     C16533   6.201   5.706   7.279 -0.9772  0.5248  0.4070
  123MOL0     C16534   6.286   5.815   7.215 -0.0872  0.2550  0.2515
  123MOL0     C16535   6.354   5.895   7.155 -0.1548 -0.3043 -0.2723
  123MOL0     C16536   5.611   5.518   7.232 -0.1677 -0.2957  0.7258
  123MOL0     C16537   5.487   5.477   7.192 -0.3263 -0.3138  0.1685
  123MOL0     H16538   5.045   5.395   6.918  0.3336 -0.5211 -0.6395
  123MOL0     H16539   4.867   5.222   6.889  0.7491  0.1048 -2.1040
  123MOL0     H16540   4.785   5.031   6.832 -1.9624 -0.4338  0.3617
  123MOL0     H16541   4.919   4.928   6.870  0.6495  0.3686 -1.2598
  123MOL0     H16542   4.616   4.856   6.879 -0.1588  1.1037  0.1033
  123MOL0     H16543   4.755   4.766   6.817 -0.9724 -1.1766  1.7248
  123MOL0     H16544   4.693   4.812   7.118  2.8206  1.5593  0.5507
  123MOL0     H16545   4.626   4.679   7.030 -2.6740  2.7129 -0.8341
  123MOL0     H16546   4.824   4.564   7.011 -0.3203 -0.4554  1.3520
  123MOL0     H16547   4.919   4.714   7.032  1.2777 -2.6773 -0.8184
  123MOL0     H16548   4.920   4.556   7.217  1.1195  0.4474 -3.1323
  123MOL0     H16549   4.858   4.718   7.276  0.4852 -0.4283  0.6253
  123MOL0     H16550   4.635   4.617   7.291  0.4214  0.7310  0.1541
  123MOL0     H16551   4.675   4.485   7.185 -0.1640  0.8197 -0.6591
  123MOL0     H16552   4.651   4.432   7.418 -0.1670  0.2473  0.0912
  123MOL0     H16553   4.819   4.402   7.365  0.1739  2.4707 -3.9310
  123MOL0     H16554   4.781   4.508   7.606  0.6706  0.0788  1.1718
  123MOL0     H16555   4.754   4.660   7.516 -3.0670 -1.5090  0.5400
  123MOL0     H16556   5.038   4.403   7.404 -1.2724 -0.0118 -1.0526
  123MOL0     H16557   5.288   4.482   7.324 -1.1131  0.8649  0.0675
  123MOL0     H16558   5.378   4.577   7.447  1.2664 -1.9376  0.2827
  123MOL0     H16559   5.282   4.296   7.469 -1.1224  1.3264 -1.7685
  123MOL0     H16560   5.341   4.398   7.614 -0.5064  0.9550 -0.0054
  123MOL0     H16561   5.557   4.426   7.475  1.0262 -0.7156  2.6482
  123MOL0     H16562   5.491   4.296   7.384 -0.0788  1.4558 -0.3966
  123MOL0     H16563   5.484   4.141   7.562  0.3833  0.5387 -1.9597
  123MOL0     H16564   5.549   4.268   7.674  0.8841 -1.3972  0.8861
  123MOL0     H16565   5.600   4.043   7.742  0.6106 -2.0108  0.3425
  123MOL0     H16566   5.615   3.945   7.950  0.5180  0.3808  2.8163
  123MOL0     H16567   5.723   3.800   7.905 -0.2981 -2.4882  2.3726
  123MOL0     H16568   5.775   3.923   8.016  0.2641  2.2096 -1.3529
  123MOL0     H16569   6.309   3.868   7.769 -0.3345 -0.8310 -0.2111
  123MOL0     H16570   6.523   3.765   7.862  2.2744  2.0356  1.3462
  123MOL0     H16571   6.660   3.580   8.005  0.7370 -1.0672  1.1380
  123MOL0     H16572   6.690   3.755   7.988 -1.4777  1.4011  0.9400
  123MOL0     H16573   6.884   3.687   8.090  0.8367  3.8672  0.7928
  123MOL0     H16574   6.783   3.741   8.234 -1.0431 -0.8887  0.0478
  123MOL0     H16575   6.841   3.463   8.133 -1.0752 -1.8275  2.3636
  123MOL0     H16576   6.693   3.494   8.221 -0.8528  1.3724 -0.2144
  123MOL0     H16577   6.829   3.588   8.413  1.3225 -2.3833  2.7044
  123MOL0     H16578   6.867   3.427   8.394  0.4930  0.5509  1.7012
  123MOL0     H16579   7.061   3.545   8.433 -0.2447 -0.1508  0.0067
  123MOL0     H16580   7.046   3.637   8.279 -1.2849  0.3680  0.0175
  123MOL0     H16581   7.117   3.345   8.325  3.5076 -0.5750 -2.1814
  123MOL0     H16582   7.080   3.411   8.160  2.2298 -1.9251 -1.4157
  123MOL0     H16583   7.285   3.515   8.365  0.4464 -0.6819  0.8044
  123MOL0     H16584   7.276   3.561   8.189 -1.7457 -0.5991 -0.5248
  123MOL0     H16585   7.375   3.393   8.114  0.9219  5.0759  0.2481
  123MOL0     H16586   7.315   3.276   8.233  1.7481 -0.8329  0.7378
  123MOL0     H16587   6.374   3.812   8.264 -0.9461  0.7999 -0.3114
  123MOL0     H16588   6.187   3.953   8.183  1.6752 -0.6913  2.3232
  123MOL0     H16589   6.092   4.044   7.674  0.3429 -0.4915 -0.6395
  123MOL0     H16590   5.944   4.167   7.515 -0.1540  0.6308 -0.2099
  123MOL0     H16591   5.011   4.997   7.215  0.1846 -0.3963  1.3141
  123MOL0     H16592   5.195   5.166   7.254 -1.2345 -3.4648  0.7334
  123MOL0     H16593   5.368   5.764   7.048 -0.4265  0.3275  0.9651
  123MOL0     H16594   5.581   5.837   7.118  0.0487  1.2094  0.3579
  123MOL0     H16595   5.877   5.787   7.073  1.1030 -2.3166 -0.0670
  123MOL0     H16596   5.796   5.896   7.179  1.4600  0.4538  0.5555
  123MOL0     H16597   5.965   5.833   7.355 -0.8144 -1.3939  0.3701
  123MOL0     H16598   6.029   5.901   7.207  2.7432 -2.0792 -2.1743
  123MOL0     H16599   6.069   5.686   7.106  1.7405 -0.0532  1.2699
  123MOL0     H16600   6.016   5.595   7.255  1.8912 -1.2365  0.5964
  123MOL0     H16601   6.252   5.614   7.246 -2.1963 -0.1901  0.4637
  123MOL0     H16602   6.205   5.705   7.388 -2.1255 -1.0746  0.4607
  123MOL0     H16603   6.405   5.981   7.115 -0.2809  0.2783  0.7801
  123MOL0     H16604   5.680   5.461   7.293  3.0237  1.4426 -1.0032
  123MOL0     H16605   5.466   5.379   7.235  2.5381 -0.3812  1.6470
  124MOL0     O16606   7.838   5.925   0.164  0.1814  0.6039  0.6137
  124MOL0     C16607   7.838   5.928   0.289 -0.5560  0.6368 -0.0505
  124MOL0     O16608   7.953   5.953   0.360 -0.5192 -0.6649 -0.1149
  124MOL0     C16609   8.070   6.015   0.310 -0.0136 -0.2372 -0.2335
  124MOL0     C16610   8.183   6.001   0.381  1.0162 -0.3196 -0.1036
  124MOL0     C16611   8.300   6.066   0.347 -0.1477  1.0505  0.4458
  124MOL0     C16612   8.303   6.143   0.229 -0.8415 -0.5950  0.0013
  124MOL0     O16613   8.426   6.199   0.211  0.2050 -0.0741  0.2395
  124MOL0     C16614   8.454   6.257   0.083 -1.0296 -1.2507  0.8828
  124MOL0     C16615   8.595   6.319   0.100  0.0137 -0.6955  0.4099
  124MOL0     C16616   8.592   6.460   0.156 -0.3908  0.2599 -0.9793
  124MOL0     C16617   8.732   6.519   0.170 -0.5957 -0.1607 -0.0639
  124MOL0     C16618   8.706   6.665   0.217 -0.4766  0.8710 -1.2012
  124MOL0     C16619   8.839   6.722   0.232 -0.2415 -0.5337  0.3960
  124MOL0     C16620   8.826   6.868   0.252 -0.7806 -0.9685  1.0250
  124MOL0     C16621   8.932   6.946   0.178 -0.3667 -0.1803 -0.3112
  124MOL0     N16622   8.876   7.082   0.157  0.8483  0.2922 -0.0853
  124MOL0     C16623   8.846   7.146   0.040 -0.4176  0.1366  0.2388
  124MOL0     C16624   8.807   7.269   0.079 -0.1527  1.1317 -0.7575
  124MOL0     C16625   8.767   7.384  -0.001  0.3768 -0.5793 -0.9439
  124MOL0     C16626   8.878   7.421  -0.101  0.0018 -0.1220  0.8512
  124MOL0     C16627   8.811   7.526  -0.188 -0.8009  0.8675 -0.6286
  124MOL0     C16628   8.885   7.538  -0.321  0.1642 -1.0174  0.0077
  124MOL0     O16629   8.836   7.646  -0.403  0.0423  0.7557 -0.5797
  124MOL0     C16630   8.785   7.622  -0.524 -0.7139  0.0476 -1.3776
  124MOL0     C16631   8.838   7.680  -0.636  0.6363 -1.0746 -0.1501
  124MOL0     C16632   8.791   7.661  -0.768  0.0886  0.0249 -0.3230
  124MOL0     C16633   8.849   7.735  -0.879  0.1412 -0.1266 -0.5321
  124MOL0     C16634   8.670   7.572  -0.781  0.0179  0.0904 -0.0715
  124MOL0     C16635   8.613   7.519  -0.907  0.3924 -0.0339 -0.2621
  124MOL0     O16636   8.521   7.417  -0.904 -0.2451 -0.1621  0.0190
  124MOL0     C16637   8.442   7.381  -1.016  0.6523 -0.6476  0.2580
  124MOL0     C16638   8.355   7.273  -0.992 -1.2558 -0.1492 -0.5507
  124MOL0     C16639   8.258   7.235  -1.077 -0.1861  0.5897 -0.1168
  124MOL0     C16640   8.243   7.289  -1.205 -0.7402 -0.0503  0.0546
  124MOL0     O16641   8.142   7.273  -1.295 -0.4117 -0.0935  0.1128
  124MOL0     C16642   8.136   7.154  -1.364  0.6616 -1.0654 -0.8703
  124MOL0     C16643   8.018   7.085  -1.300 -0.5035 -0.3831 -0.0630
  124MOL0     C16644   7.993   6.954  -1.379  0.1629 -0.4452 -0.2751
  124MOL0     C16645   7.883   6.874  -1.313 -0.3498 -0.5294  0.5218
  124MOL0     C16646   7.805   6.777  -1.402  0.0716 -0.1445 -0.1102
  124MOL0     C16647   7.897   6.662  -1.456 -1.1168  0.8240  0.3511
  124MOL0     C16648   7.822   6.544  -1.545 -0.0631 -0.0208  0.2182
  124MOL0     C16649   7.863   6.406  -1.514  0.5611 -0.3493  0.0785
  124MOL0    Cl16650   7.752   6.350  -1.375  0.0786 -0.0305 -0.0299
  124MOL0     C16651   8.327   7.399  -1.231 -0.5556 -0.2226 -0.7770
  124MOL0     C16652   8.424   7.448  -1.142 -0.1257  0.2195  0.0001
  124MOL0     O16653   8.674   7.560  -1.007 -0.2762 -0.1143  0.2837
  124MOL0     C16654   8.621   7.515  -0.667 -0.7826  0.2693  0.0746
  124MOL0     C16655   8.668   7.546  -0.539 -0.5041  0.0386 -0.3323
  124MOL0     N16656   8.820   7.273   0.215  0.6318  0.0725  1.2135
  124MOL0     N16657   8.866   7.160   0.262  0.7657  0.0702 -0.1647
  124MOL0     C16658   8.186   6.153   0.144  0.6873 -0.8890 -0.8525
  124MOL0     C16659   8.069   6.092   0.194 -0.1472 -0.4322  0.0964
  124MOL0     C16660   7.706   5.899   0.358 -0.5340  0.0338 -0.6475
  124MOL0     C16661   7.706   5.902   0.500  0.3600 -0.3507  0.3675
  124MOL0     C16662   7.601   5.848   0.574  0.0965 -0.4912  0.8353
  124MOL0     C16663   7.483   5.808   0.508 -1.0478 -0.4973  0.0638
  124MOL0     O16664   7.373   5.772   0.571 -0.4735 -0.2130 -0.2188
  124MOL0     C16665   7.367   5.747   0.715  0.2114  0.6053 -0.4076
  124MOL0     C16666   7.414   5.609   0.734 -0.8299 -0.3393 -0.7418
  124MOL0     C16667   7.338   5.497   0.657  0.0012 -0.1405 -0.9098
  124MOL0     C16668   7.351   5.369   0.730 -0.2627  0.4432 -0.8246
  124MOL0     C16669   7.298   5.247   0.654  1.0834 -0.1763 -0.3097
  124MOL0     C16670   7.248   5.148   0.607  0.0260 -0.3819  0.5872
  124MOL0     C16671   7.482   5.806   0.364  0.7079 -0.0225  0.2456
  124MOL0     C16672   7.594   5.845   0.294  0.2003  0.1337  0.0124
  124MOL0     H16673   8.184   5.940   0.470 -0.0877  0.4036  0.4173
  124MOL0     H16674   8.388   6.052   0.408 -0.3963  1.3327  0.8709
  124MOL0     H16675   8.459   6.194  -0.005  1.7729  1.5383 -1.1975
  124MOL0     H16676   8.370   6.324   0.061 -1.2427 -1.1582  1.9113
  124MOL0     H16677   8.652   6.247   0.159 -0.7167 -0.0108  1.9942
  124MOL0     H16678   8.638   6.323  -0.001 -2.3382 -0.3495 -0.6530
  124MOL0     H16679   8.539   6.526   0.086 -0.8206  2.1645  1.0179
  124MOL0     H16680   8.542   6.451   0.252 -0.0952 -2.7390 -1.0291
  124MOL0     H16681   8.799   6.461   0.234  0.3637  1.2732  0.2787
  124MOL0     H16682   8.786   6.526   0.075  1.0800  0.3446  0.8903
  124MOL0     H16683   8.658   6.722   0.137 -1.2309  1.6058 -0.2420
  124MOL0     H16684   8.652   6.677   0.311 -0.8172 -0.9857 -1.1113
  124MOL0     H16685   8.896   6.673   0.312  0.9321 -1.5494 -1.0101
  124MOL0     H16686   8.893   6.702   0.140  2.0234  1.2974  1.2348
  124MOL0     H16687   8.737   6.917   0.212  0.7299  0.9644 -0.1881
  124MOL0     H16688   8.832   6.898   0.357 -1.1228 -1.6731  1.2491
  124MOL0     H16689   8.958   6.915   0.076  1.2778  2.2443 -0.7312
  124MOL0     H16690   9.018   6.952   0.245 -0.1452  2.0893 -0.7381
  124MOL0     H16691   8.849   7.120  -0.065 -0.0149  2.1848 -0.2974
  124MOL0     H16692   8.674   7.357  -0.052  0.8891 -0.2659 -2.0766
  124MOL0     H16693   8.748   7.473   0.059  2.0832  0.2529 -1.5678
  124MOL0     H16694   8.911   7.339  -0.166  0.2671  2.7387 -3.0256
  124MOL0     H16695   8.961   7.460  -0.042  0.8131 -0.4985 -0.0078
  124MOL0     H16696   8.803   7.624  -0.138  1.8689  2.1387 -2.4802
  124MOL0     H16697   8.707   7.501  -0.214 -0.2557 -1.8405 -0.4386
  124MOL0     H16698   8.889   7.440  -0.370  1.9861 -0.6262 -0.6934
  124MOL0     H16699   8.988   7.566  -0.297  0.6542 -1.8143 -1.0542
  124MOL0     H16700   8.928   7.741  -0.634 -0.3892  0.4984  1.3944
  124MOL0     H16701   8.760   7.774  -0.929  1.9624  1.9942 -2.3261
  124MOL0     H16702   8.914   7.818  -0.851  0.5451 -0.6103  0.0103
  124MOL0     H16703   8.901   7.670  -0.950 -1.3540  0.8685 -2.6318
  124MOL0     H16704   8.364   7.236  -0.890 -1.4031  1.7381  0.2000
  124MOL0     H16705   8.196   7.151  -1.049 -0.1303  0.1257 -1.3247
  124MOL0     H16706   8.110   7.180  -1.467  2.0497  4.3823 -0.1938
  124MOL0     H16707   8.233   7.106  -1.351  2.1835  2.3750  2.5438
  124MOL0     H16708   8.042   7.060  -1.196 -0.9044  1.0587  0.3918
  124MOL0     H16709   7.926   7.145  -1.298 -1.6384 -1.9993 -0.8578
  124MOL0     H16710   8.087   6.900  -1.391  1.6650  1.9906 -0.1204
  124MOL0     H16711   7.960   6.987  -1.477 -1.1922 -0.5354  0.1296
  124MOL0     H16712   7.927   6.813  -1.233 -2.9307 -1.7000  1.1615
  124MOL0     H16713   7.813   6.947  -1.271  0.7054 -0.0409  1.4740
  124MOL0     H16714   7.749   6.819  -1.486 -0.1750 -0.1842  0.0341
  124MOL0     H16715   7.723   6.740  -1.340  1.0122  1.3227  2.1314
  124MOL0     H16716   7.965   6.707  -1.529 -0.6271 -1.0163 -0.3752
  124MOL0     H16717   7.953   6.618  -1.373 -0.7217 -0.0771 -0.3759
  124MOL0     H16718   7.837   6.559  -1.652  3.1619  0.4296  0.6178
  124MOL0     H16719   7.717   6.566  -1.527 -0.4321  3.0153 -4.1135
  124MOL0     H16720   7.967   6.390  -1.487  0.3522 -0.8218  0.6367
  124MOL0     H16721   7.845   6.346  -1.603  0.0438  0.4784 -0.3888
  124MOL0     H16722   8.323   7.458  -1.322 -0.8351  0.1905 -0.5042
  124MOL0     H16723   8.483   7.536  -1.163  3.7286 -1.5501  2.3128
  124MOL0     H16724   8.527   7.461  -0.677 -0.6748  0.2127 -0.7269
  124MOL0     H16725   8.606   7.510  -0.457  0.3775 -0.1958  0.2545
  124MOL0     H16726   8.186   6.210   0.051 -0.1734 -0.4859 -0.6057
  124MOL0     H16727   7.972   6.105   0.147 -0.4727 -3.2842 -0.1655
  124MOL0     H16728   7.794   5.939   0.550  1.6489 -0.5661 -1.6069
  124MOL0     H16729   7.606   5.857   0.682 -0.1447  0.8475  0.7601
  124MOL0     H16730   7.425   5.816   0.778  1.1009  1.7072 -2.3325
  124MOL0     H16731   7.262   5.750   0.747 -0.1676 -2.6700 -1.0104
  124MOL0     H16732   7.401   5.597   0.842 -0.5727  0.4610 -0.6120
  124MOL0     H16733   7.520   5.593   0.712 -1.1831 -1.8984 -1.3823
  124MOL0     H16734   7.364   5.490   0.550 -2.4317 -2.9775 -1.4614
  124MOL0     H16735   7.232   5.510   0.636  0.3207 -1.8928 -4.5475
  124MOL0     H16736   7.290   5.367   0.821 -0.0469  0.5088 -0.6791
  124MOL0     H16737   7.454   5.351   0.761  0.2400  0.7521 -2.2545
  124MOL0     H16738   7.214   5.057   0.562  1.6137 -1.2181  0.9786
  124MOL0     H16739   7.397   5.763   0.310 -1.4588 -0.0403  3.4097
  124MOL0     H16740   7.599   5.853   0.186  1.1707  2.4945  0.1750
  125MOL0     O16741   1.867   3.232   3.634  0.2962  0.5129  0.4341
  125MOL0     C16742   1.900   3.346   3.662  0.0068 -0.0029 -0.5080
  125MOL0     O16743   1.821   3.452   3.688 -0.3292  0.0675 -0.0193
  125MOL0     C16744   1.689   3.447   3.677  1.0419 -0.5267  0.1673
  125MOL0     C16745   1.624   3.392   3.558  0.7026 -0.4525 -0.7865
  125MOL0     C16746   1.484   3.396   3.541  0.2509 -0.5557  0.2324
  125MOL0     C16747   1.394   3.462   3.639 -0.2678 -0.2914  0.0551
  125MOL0     O16748   1.258   3.457   3.630  0.1997 -0.3512  0.4231
  125MOL0     C16749   1.193   3.413   3.509  0.3849  0.8874  0.2261
  125MOL0     C16750   1.045   3.425   3.540  0.0188 -0.7662 -0.3757
  125MOL0     C16751   1.017   3.577   3.553  0.3952  0.0271  0.1224
  125MOL0     C16752   0.864   3.580   3.558 -0.1158 -0.3047 -0.8886
  125MOL0     C16753   0.816   3.722   3.545  0.3634 -0.5249  0.0363
  125MOL0     C16754   0.699   3.758   3.441 -0.5797 -0.2415  0.1121
  125MOL0     C16755   0.581   3.661   3.413  0.2953 -0.3413  0.2072
  125MOL0     C16756   0.463   3.732   3.347 -0.3659  0.2323  0.0924
  125MOL0     N16757   0.376   3.811   3.444  0.1959  0.1950  0.3993
  125MOL0     C16758   0.371   3.933   3.503  0.6887 -0.1952 -0.4709
  125MOL0     C16759   0.279   3.921   3.601  0.4893  0.8205  0.1225
  125MOL0     C16760   0.237   4.021   3.704  0.3261 -0.2890  0.5263
  125MOL0     C16761   0.367   4.069   3.780 -0.1533 -0.4931 -0.6593
  125MOL0     C16762   0.331   4.125   3.917 -0.2532  0.5895 -0.1482
  125MOL0     C16763   0.369   4.037   4.039  0.7580  0.9076  0.3558
  125MOL0     O16764   0.331   4.107   4.158  0.1598  0.0173  0.3482
  125MOL0     C16765   0.378   4.050   4.273  0.6075  0.7843 -0.0651
  125MOL0     C16766   0.440   3.925   4.282  0.1165  0.3598 -0.8777
  125MOL0     C16767   0.488   3.885   4.405 -0.9390 -0.6018 -0.3059
  125MOL0     C16768   0.563   3.751   4.423 -0.0154  0.2455  0.2957
  125MOL0     C16769   0.483   3.975   4.523 -0.1536  0.8498  0.9954
  125MOL0     C16770   0.539   3.957   4.653  0.4313  0.0026 -0.2231
  125MOL0     O16771   0.455   3.982   4.766 -0.0339 -0.3957  0.8390
  125MOL0     C16772   0.474   3.931   4.894 -0.6027  0.6176  0.3863
  125MOL0     C16773   0.541   3.809   4.913 -0.1251  0.6288  0.2446
  125MOL0     C16774   0.572   3.768   5.043  0.1927 -0.3853  0.0371
  125MOL0     C16775   0.550   3.844   5.155  0.1556 -0.6784 -0.2571
  125MOL0     O16776   0.580   3.816   5.289  0.0795 -0.2609  0.0318
  125MOL0     C16777   0.598   3.678   5.331  0.0709 -0.1628 -0.3152
  125MOL0     C16778   0.748   3.637   5.329 -0.1342  0.4630  0.2002
  125MOL0     C16779   0.812   3.691   5.462 -0.6281  0.5585  0.1929
  125MOL0     C16780   0.959   3.640   5.479  0.2043 -0.5070  0.5620
  125MOL0     C16781   1.032   3.711   5.597  0.3569  0.5256 -0.3355
  125MOL0     C16782   1.185   3.726   5.585  0.0554  0.9373 -0.3168
  125MOL0     C16783   1.246   3.582   5.567  0.1579 -0.1793  0.7421
  125MOL0     C16784   1.392   3.596   5.530  0.2780 -0.7910 -0.7992
  125MOL0    Cl16785   1.458   3.429   5.521 -0.4924  0.5056 -0.0028
  125MOL0     C16786   0.484   3.967   5.135 -0.9381  0.8085 -0.4159
  125MOL0     C16787   0.449   4.008   5.004  0.9641  0.4016  0.1794
  125MOL0     O16788   0.652   3.919   4.658  0.0105  0.0396  0.4466
  125MOL0     C16789   0.415   4.096   4.505  0.8970  0.7401 -0.2627
  125MOL0     C16790   0.358   4.128   4.378 -0.3513  0.2193  0.4707
  125MOL0     N16791   0.230   3.788   3.605 -0.6036 -0.6384 -0.1423
  125MOL0     N16792   0.280   3.731   3.499 -0.4493  0.7704  0.3154
  125MOL0     C16793   1.464   3.523   3.749 -0.3601 -0.5046 -0.4499
  125MOL0     C16794   1.608   3.520   3.764  0.2892 -0.0881 -0.4557
  125MOL0     C16795   2.046   3.366   3.672  0.6246  0.6640  0.2703
  125MOL0     C16796   2.098   3.473   3.740 -0.3384  1.1152  0.3835
  125MOL0     C16797   2.234   3.492   3.749 -0.6738 -0.9263 -0.4767
  125MOL0     C16798   2.326   3.389   3.707  0.6954 -1.0158  0.7918
  125MOL0     O16799   2.456   3.417   3.706 -0.1955 -0.0982  0.8219
  125MOL0     C16800   2.544   3.338   3.785  0.1339  0.2423 -0.0012
  125MOL0     C16801   2.679   3.298   3.713  1.0916 -0.0249 -0.0122
  125MOL0     C16802   2.641   3.231   3.586 -0.9805  1.0882  0.0162
  125MOL0     C16803   2.757   3.242   3.493 -0.4772 -0.2078  0.1065
  125MOL0     C16804   2.722   3.173   3.364  0.0713 -0.4443 -0.0273
  125MOL0     C16805   2.715   3.128   3.253 -0.3841  0.3167 -0.0313
  125MOL0     C16806   2.268   3.278   3.636 -0.2435  0.3299  0.5484
  125MOL0     C16807   2.129   3.272   3.619  0.1667  0.7934  0.2553
  125MOL0     H16808   1.690   3.347   3.484  1.2441 -0.1953 -0.4637
  125MOL0     H16809   1.449   3.357   3.446 -0.3453  3.2087 -1.2686
  125MOL0     H16810   1.222   3.469   3.420  3.9487 -1.7458 -0.4833
  125MOL0     H16811   1.223   3.309   3.496  0.1177  0.8557 -0.1235
  125MOL0     H16812   0.997   3.386   3.449 -2.1529  3.6578 -1.4454
  125MOL0     H16813   1.014   3.377   3.633 -0.2408  1.2677  0.6339
  125MOL0     H16814   1.073   3.636   3.627  0.2371  4.2167 -2.7636
  125MOL0     H16815   1.044   3.631   3.462 -0.1779  2.1371  1.1507
  125MOL0     H16816   0.819   3.526   3.475 -1.9332  0.0623 -0.1924
  125MOL0     H16817   0.833   3.535   3.653  1.2138 -0.3601 -0.4708
  125MOL0     H16818   0.788   3.747   3.647  2.9329  2.4786  0.1587
  125MOL0     H16819   0.898   3.788   3.517  0.8726 -0.3860  1.7457
  125MOL0     H16820   0.646   3.844   3.484  2.7317  1.1648  1.7945
  125MOL0     H16821   0.738   3.812   3.354 -0.6913 -2.1658 -1.1682
  125MOL0     H16822   0.603   3.589   3.334 -1.7467  1.2807 -1.9844
  125MOL0     H16823   0.552   3.607   3.504  3.8934 -0.6816  1.2991
  125MOL0     H16824   0.407   3.651   3.299  2.2287 -1.6112 -0.0791
  125MOL0     H16825   0.493   3.812   3.280 -0.8077 -0.1437 -0.5676
  125MOL0     H16826   0.432   4.018   3.474  1.7195 -0.5727  0.5215
  125MOL0     H16827   0.170   4.091   3.653 -2.6023 -1.2373  2.8018
  125MOL0     H16828   0.164   3.977   3.772  1.4532  1.7657  3.2823
  125MOL0     H16829   0.424   4.140   3.719  0.5899 -2.2441 -2.1088
  125MOL0     H16830   0.435   3.983   3.789 -0.4275 -0.7154 -0.7175
  125MOL0     H16831   0.223   4.145   3.918 -0.5790 -0.8674 -1.5179
  125MOL0     H16832   0.380   4.223   3.925 -0.5895  0.7310  0.1974
  125MOL0     H16833   0.475   4.015   4.031  0.2063 -1.6235 -1.0073
  125MOL0     H16834   0.311   3.945   4.023  1.8665  0.3150 -0.3296
  125MOL0     H16835   0.468   3.865   4.196  2.5640 -1.0497  0.7759
  125MOL0     H16836   0.607   3.721   4.518 -2.5462 -2.2945  0.8192
  125MOL0     H16837   0.496   3.669   4.395 -0.2358  0.3186  0.6026
  125MOL0     H16838   0.639   3.744   4.345  0.6660 -1.5677  1.0643
  125MOL0     H16839   0.572   3.758   4.823 -1.5951  0.5585 -0.2447
  125MOL0     H16840   0.626   3.677   5.065 -2.5769 -2.2049 -0.2892
  125MOL0     H16841   0.554   3.662   5.430  1.3858 -2.7831 -0.0856
  125MOL0     H16842   0.543   3.616   5.260  0.4394 -0.8374 -0.0212
  125MOL0     H16843   0.751   3.528   5.324 -0.6663  0.4898 -1.1745
  125MOL0     H16844   0.804   3.686   5.249  2.3112 -0.6498  1.1187
  125MOL0     H16845   0.753   3.642   5.541  0.5576 -0.0374  0.7472
  125MOL0     H16846   0.802   3.799   5.475  0.5459  1.0198 -2.2614
  125MOL0     H16847   0.952   3.534   5.503  1.4491 -1.0845 -1.4823
  125MOL0     H16848   1.011   3.651   5.384  1.1133  0.2757  1.1376
  125MOL0     H16849   1.008   3.655   5.688  0.4086  1.7788  0.4719
  125MOL0     H16850   0.984   3.808   5.606 -0.0389  0.4287 -1.2614
  125MOL0     H16851   1.218   3.796   5.507 -0.7880  0.8709 -0.7373
  125MOL0     H16852   1.224   3.767   5.679  0.5650  0.7222 -0.4304
  125MOL0     H16853   1.206   3.539   5.475  3.0895 -1.0562 -0.2361
  125MOL0     H16854   1.228   3.521   5.657  3.4443 -1.2480  0.8210
  125MOL0     H16855   1.437   3.656   5.610  2.0549 -2.6179 -0.3389
  125MOL0     H16856   1.415   3.652   5.439  2.3612  0.5726  0.4670
  125MOL0     H16857   0.442   4.022   5.219 -1.3483  1.2210 -0.8803
  125MOL0     H16858   0.401   4.105   5.004  1.1355  0.4958  1.0273
  125MOL0     H16859   0.403   4.174   4.579 -2.4722  0.9511 -0.8549
  125MOL0     H16860   0.292   4.213   4.368  1.6008  1.6146 -1.3646
  125MOL0     H16861   1.396   3.570   3.820  0.3810 -1.5458  1.0049
  125MOL0     H16862   1.645   3.569   3.854 -2.9395  1.6022  0.1222
  125MOL0     H16863   2.038   3.542   3.798 -0.2355  0.5346  1.1879
  125MOL0     H16864   2.270   3.580   3.802 -1.0568 -0.3928 -1.0916
  125MOL0     H16865   2.569   3.381   3.882  1.8610 -1.6968  0.4901
  125MOL0     H16866   2.494   3.245   3.812  3.2451 -1.2242  1.2524
  125MOL0     H16867   2.733   3.225   3.773 -0.5688 -1.9030 -0.7050
  125MOL0     H16868   2.736   3.391   3.702  0.4936  0.3294 -0.1736
  125MOL0     H16869   2.550   3.268   3.537 -0.9595  0.6021 -0.4013
  125MOL0     H16870   2.628   3.124   3.602  0.7412  0.4712 -2.1304
  125MOL0     H16871   2.842   3.195   3.543  1.1576  0.7363 -1.6508
  125MOL0     H16872   2.786   3.346   3.475  0.0863 -0.2262  0.8560
  125MOL0     H16873   2.723   3.096   3.151  3.8854 -0.9130  0.5013
  125MOL0     H16874   2.338   3.210   3.590  2.3044  2.9383  0.2792
  125MOL0     H16875   2.092   3.186   3.564  1.7771  0.1059  0.1990
  126MOL0     O16876   6.647   4.444   3.611  0.1719 -0.8520  0.0795
  126MOL0     C16877   6.611   4.328   3.590  0.6828  0.4067  0.6490
  126MOL0     O16878   6.691   4.225   3.589 -0.6145  0.2210  0.2841
  126MOL0     C16879   6.830   4.224   3.620  0.4894 -0.6633 -0.3919
  126MOL0     C16880   6.897   4.328   3.698  0.4195 -0.8811  0.6185
  126MOL0     C16881   7.031   4.331   3.723 -0.3818  0.8112 -0.8409
  126MOL0     C16882   7.107   4.222   3.677  0.1394  0.3518 -0.0957
  126MOL0     O16883   7.233   4.224   3.711 -0.4205  0.4863  0.2172
  126MOL0     C16884   7.327   4.193   3.613 -0.4505  0.0357 -0.0694
  126MOL0     C16885   7.468   4.250   3.650  0.3522  0.7028  0.0953
  126MOL0     C16886   7.586   4.226   3.562 -0.2037 -0.5247  0.9609
  126MOL0     C16887   7.697   4.145   3.639 -0.3315 -0.6384  0.0079
  126MOL0     C16888   7.801   4.078   3.551  0.4843  0.9884 -0.3112
  126MOL0     C16889   7.879   4.174   3.463  0.8444 -0.0737 -0.4241
  126MOL0     C16890   7.994   4.109   3.381 -1.0932  0.1277  0.2989
  126MOL0     C16891   7.934   4.011   3.274  1.0867 -0.0658  0.3776
  126MOL0     N16892   7.951   3.876   3.324 -0.1544 -0.1134 -0.1519
  126MOL0     C16893   8.069   3.817   3.347 -0.1101 -0.5493  0.2007
  126MOL0     C16894   8.041   3.704   3.403 -0.1448  0.5284  0.4739
  126MOL0     C16895   8.135   3.598   3.439  0.1931 -0.3377 -0.3857
  126MOL0     C16896   8.198   3.624   3.572 -0.5794 -0.0077  0.3283
  126MOL0     C16897   8.102   3.635   3.689  0.0229  1.2016 -0.1057
  126MOL0     C16898   8.030   3.505   3.715  0.5507  0.4039 -0.6232
  126MOL0     O16899   7.984   3.498   3.856 -0.0001 -0.7566  0.4344
  126MOL0     C16900   7.859   3.549   3.888  0.9313 -0.7614  0.4889
  126MOL0     C16901   7.817   3.558   4.024  0.3410  0.1749 -0.0192
  126MOL0     C16902   7.688   3.597   4.065  0.3541 -0.1107  0.4992
  126MOL0     C16903   7.664   3.595   4.217  0.0361 -0.0478  0.4715
  126MOL0     C16904   7.602   3.655   3.972  0.3326 -0.1715  0.1232
  126MOL0     C16905   7.478   3.731   4.007  0.6226 -0.3053  0.7972
  126MOL0     O16906   7.379   3.736   3.912 -0.4989  0.2584 -0.5415
  126MOL0     C16907   7.267   3.812   3.946  1.0190 -0.1536 -0.8990
  126MOL0     C16908   7.278   3.955   3.935 -0.4909  0.3673  0.2751
  126MOL0     C16909   7.172   4.034   3.976  0.2349 -0.6781  0.1017
  126MOL0     C16910   7.054   3.975   4.028 -0.1681  0.0588  0.5703
  126MOL0     O16911   6.940   4.042   4.059 -0.4695  0.0616 -0.7816
  126MOL0     C16912   6.943   4.185   4.072 -0.4261  0.0342 -0.7793
  126MOL0     C16913   7.028   4.235   4.182  0.2141 -0.3338  0.3667
  126MOL0     C16914   6.975   4.353   4.257  0.1921 -0.6836 -0.2695
  126MOL0     C16915   6.941   4.477   4.167  0.3239 -0.4645  0.2247
  126MOL0     C16916   6.923   4.586   4.265 -0.2894 -0.5393 -0.8769
  126MOL0     C16917   6.915   4.712   4.179  0.6398 -0.5972  0.0763
  126MOL0     C16918   6.863   4.837   4.260 -0.7069 -0.6257 -0.5049
  126MOL0     C16919   6.715   4.845   4.282  0.3065 -1.5171  1.0588
  126MOL0    Cl16920   6.660   4.745   4.408 -0.0589  0.0970 -0.2034
  126MOL0     C16921   7.045   3.838   4.026  0.1077 -0.8530 -0.1012
  126MOL0     C16922   7.148   3.756   3.987 -0.5337  0.5177 -0.3097
  126MOL0     O16923   7.474   3.792   4.113 -0.0165 -0.1990 -0.5602
  126MOL0     C16924   7.637   3.637   3.836  0.5723 -0.6860 -0.6242
  126MOL0     C16925   7.758   3.582   3.792  0.0013 -0.0059 -0.0066
  126MOL0     N16926   7.907   3.686   3.411  0.0730 -0.2329 -0.2246
  126MOL0     N16927   7.853   3.797   3.372  1.0357  0.1175 -0.5012
  126MOL0     C16928   7.046   4.120   3.602  0.4847 -0.1433  0.3928
  126MOL0     C16929   6.905   4.124   3.578  0.4640  0.3882 -0.5107
  126MOL0     C16930   6.464   4.300   3.571  0.1656 -0.3943 -0.5758
  126MOL0     C16931   6.417   4.205   3.473 -0.3502 -0.3036 -0.4575
  126MOL0     C16932   6.282   4.180   3.465 -0.0713  0.5316  0.4672
  126MOL0     C16933   6.184   4.253   3.541  0.0163  0.9107  0.6916
  126MOL0     O16934   6.051   4.230   3.529  0.3473  0.6159 -0.2124
  126MOL0     C16935   5.997   4.163   3.419  0.6380  0.1346  0.5598
  126MOL0     C16936   5.982   4.253   3.297 -0.7899 -0.0851  0.7747
  126MOL0     C16937   5.907   4.387   3.325 -0.1740 -0.5493 -0.6804
  126MOL0     C16938   5.872   4.465   3.199 -0.5867 -0.6280  1.7740
  126MOL0     C16939   5.993   4.540   3.150 -0.4742  0.8284  0.3823
  126MOL0     C16940   6.095   4.599   3.126  0.1169 -0.6928  0.4049
  126MOL0     C16941   6.235   4.348   3.632  0.2924  0.3389 -0.0878
  126MOL0     C16942   6.371   4.381   3.640  0.7570 -0.2318  0.0016
  126MOL0     H16943   6.841   4.412   3.737 -0.4196 -1.7021  1.2325
  126MOL0     H16944   7.063   4.421   3.775 -0.9414  0.1897  0.6350
  126MOL0     H16945   7.340   4.085   3.614 -1.8426 -0.1516  1.2471
  126MOL0     H16946   7.298   4.220   3.511  1.1789 -1.2237 -0.9148
  126MOL0     H16947   7.458   4.359   3.642 -1.1672  0.4151 -4.0261
  126MOL0     H16948   7.491   4.228   3.755 -2.1624 -2.4605  0.1259
  126MOL0     H16949   7.545   4.173   3.475 -0.4218  0.5730  0.3823
  126MOL0     H16950   7.628   4.321   3.527  2.0194 -1.5185  0.7426
  126MOL0     H16951   7.748   4.198   3.720  2.3665 -0.9923 -1.3721
  126MOL0     H16952   7.646   4.065   3.693 -1.6828  1.0507  1.3817
  126MOL0     H16953   7.869   4.026   3.619 -2.3766 -1.5490  0.8274
  126MOL0     H16954   7.748   4.005   3.489 -1.0167 -2.6437  4.6089
  126MOL0     H16955   7.817   4.229   3.391  0.0144 -1.2484 -0.6357
  126MOL0     H16956   7.930   4.252   3.520 -1.6409  1.4817 -0.1990
  126MOL0     H16957   8.043   4.186   3.321 -2.5331 -0.6134 -1.9384
  126MOL0     H16958   8.064   4.060   3.449 -2.1594 -2.5495 -0.3886
  126MOL0     H16959   7.997   4.001   3.186 -1.6327  0.6974 -1.7969
  126MOL0     H16960   7.828   4.034   3.254  0.7509 -0.4000  1.6811
  126MOL0     H16961   8.168   3.855   3.321  0.4760 -2.1069  0.0483
  126MOL0     H16962   8.097   3.496   3.440  4.8801 -2.5036  3.9126
  126MOL0     H16963   8.219   3.587   3.370  0.4534 -0.9182  0.0172
  126MOL0     H16964   8.254   3.718   3.572  1.5314 -1.1529 -2.2497
  126MOL0     H16965   8.276   3.551   3.593 -1.3106 -0.7019  0.6895
  126MOL0     H16966   8.018   3.704   3.676 -0.4871  0.0305 -4.2821
  126MOL0     H16967   8.150   3.672   3.780 -0.4084  1.2877  0.0913
  126MOL0     H16968   8.108   3.428   3.722 -0.1120 -0.1301  1.7629
  126MOL0     H16969   7.957   3.479   3.639  1.3865  1.4995 -1.8424
  126MOL0     H16970   7.896   3.533   4.094 -0.8382 -0.4507  1.1251
  126MOL0     H16971   7.705   3.688   4.258  1.8555 -0.8692  0.5962
  126MOL0     H16972   7.559   3.607   4.244 -0.4025  0.7516 -1.4255
  126MOL0     H16973   7.707   3.509   4.269  0.7184  1.0895  1.8538
  126MOL0     H16974   7.369   4.001   3.898 -1.0891 -1.6278 -4.2525
  126MOL0     H16975   7.169   4.139   3.948  0.7681 -1.1579 -1.9628
  126MOL0     H16976   6.973   4.231   3.978 -1.2886  1.3616 -0.4344
  126MOL0     H16977   6.837   4.203   4.094 -0.4576 -3.3554  3.2204
  126MOL0     H16978   7.042   4.152   4.251 -1.0185 -1.7926 -1.0879
  126MOL0     H16979   7.123   4.267   4.136 -1.0799 -0.3112 -2.5344
  126MOL0     H16980   7.056   4.374   4.328  0.6642  1.1913 -1.3082
  126MOL0     H16981   6.878   4.333   4.303  0.3199  0.8764  0.7400
  126MOL0     H16982   7.027   4.497   4.102  1.9445 -3.2350  1.3310
  126MOL0     H16983   6.854   4.459   4.104 -1.2829  0.0235  2.2277
  126MOL0     H16984   6.997   4.596   4.345 -1.5849  2.5183  0.0985
  126MOL0     H16985   6.833   4.552   4.318  0.0355  1.2997  1.0054
  126MOL0     H16986   7.018   4.722   4.144  0.9585 -1.9358  0.5851
  126MOL0     H16987   6.843   4.702   4.096 -0.8245  1.8464  0.9177
  126MOL0     H16988   6.886   4.931   4.209  2.5683  0.4545  2.5531
  126MOL0     H16989   6.901   4.843   4.363 -0.5191 -1.6165 -0.5058
  126MOL0     H16990   6.660   4.824   4.189 -0.3335  0.0887  1.0499
  126MOL0     H16991   6.696   4.948   4.311 -2.9485 -2.1994  1.7335
  126MOL0     H16992   6.946   3.796   4.042 -0.2253  0.7796  2.7734
  126MOL0     H16993   7.149   3.647   3.988  2.2569  0.4594  0.9845
  126MOL0     H16994   7.572   3.680   3.760 -0.3207  0.0652  0.5164
  126MOL0     H16995   7.774   3.583   3.685  0.7679 -2.6622  0.0017
  126MOL0     H16996   7.090   4.026   3.569 -1.2268 -0.1891 -2.0764
  126MOL0     H16997   6.855   4.042   3.529 -2.5460  0.5119  2.0648
  126MOL0     H16998   6.482   4.152   3.404  0.6123 -2.3580  1.8786
  126MOL0     H16999   6.259   4.108   3.387 -0.8946  1.6810 -0.3939
  126MOL0     H17000   6.048   4.070   3.389 -1.4398 -0.0861 -2.8836
  126MOL0     H17001   5.895   4.130   3.441 -0.1799  0.0998 -2.7671
  126MOL0     H17002   5.920   4.212   3.216  0.3707 -0.1144 -0.1232
  126MOL0     H17003   6.081   4.262   3.253 -0.3917 -1.5039  1.3301
  126MOL0     H17004   5.975   4.445   3.388 -0.6745 -2.1330  1.4367
  126MOL0     H17005   5.814   4.379   3.381 -0.3571  2.0229 -0.4759
  126MOL0     H17006   5.796   4.537   3.233 -0.4147 -0.2016  1.2613
  126MOL0     H17007   5.819   4.413   3.120  0.2929  1.0649 -0.0143
  126MOL0     H17008   6.180   4.654   3.090 -0.0507 -0.8555 -0.2671
  126MOL0     H17009   6.157   4.403   3.682 -1.7603 -0.7245 -1.9534
  126MOL0     H17010   6.397   4.461   3.708  0.6669  0.5429 -0.8611
  127MOL0     O17011   2.055   8.414   5.343  0.1559 -0.4246 -0.4908
  127MOL0     C17012   2.116   8.434   5.448 -0.3881 -0.3370  0.0422
  127MOL0     O17013   2.058   8.440   5.576  0.0271  0.3637  0.1327
  127MOL0     C17014   1.923   8.454   5.561 -0.2310 -1.1175  0.1973
  127MOL0     C17015   1.844   8.358   5.623 -0.5383  0.9290 -0.7299
  127MOL0     C17016   1.711   8.369   5.619  0.1355  0.7453  0.3406
  127MOL0     C17017   1.643   8.473   5.556 -0.3235  0.7286 -0.1245
  127MOL0     O17018   1.507   8.486   5.572 -0.1056  1.0340 -0.0942
  127MOL0     C17019   1.440   8.563   5.470  1.1194  1.0449  1.1289
  127MOL0     C17020   1.300   8.506   5.455  0.0937  0.7160  0.4071
  127MOL0     C17021   1.295   8.368   5.396 -0.0690  0.6838  0.4189
  127MOL0     C17022   1.312   8.380   5.249  0.2416  0.0988  0.4896
  127MOL0     C17023   1.273   8.243   5.191  0.0450  0.0776 -0.2638
  127MOL0     C17024   1.299   8.216   5.047 -0.0041 -0.3875  0.6734
  127MOL0     C17025   1.442   8.252   4.994 -0.2533  0.3095  0.7296
  127MOL0     C17026   1.499   8.143   4.905 -0.1909  0.6910 -1.0725
  127MOL0     N17027   1.621   8.197   4.851  0.1984  0.6455  0.1636
  127MOL0     C17028   1.738   8.214   4.925  0.8923 -0.1531 -0.0739
  127MOL0     C17029   1.825   8.236   4.831 -0.1963 -0.6371  1.0619
  127MOL0     C17030   1.961   8.285   4.859  0.2095  0.1015  0.2757
  127MOL0     C17031   2.064   8.203   4.784  0.3275 -0.0281 -0.0389
  127MOL0     C17032   2.206   8.199   4.851  0.2496 -0.4389  0.8264
  127MOL0     C17033   2.268   8.337   4.861 -0.4753  1.1261  0.5811
  127MOL0     O17034   2.270   8.405   4.729 -0.0476  0.2059 -0.2717
  127MOL0     C17035   2.382   8.441   4.662 -0.7313  0.4571 -0.3296
  127MOL0     C17036   2.366   8.527   4.554  0.2949  0.0372 -0.1661
  127MOL0     C17037   2.464   8.586   4.483 -0.5004  0.5219 -0.0165
  127MOL0     C17038   2.423   8.668   4.359  0.3401 -0.2464 -0.1209
  127MOL0     C17039   2.602   8.563   4.526  0.6895 -0.3669  0.6652
  127MOL0     C17040   2.719   8.634   4.462 -0.1923  0.0626  0.6155
  127MOL0     O17041   2.700   8.741   4.389 -0.3816  0.6094 -0.6058
  127MOL0     C17042   2.808   8.806   4.335  0.4346  0.0851 -0.1028
  127MOL0     C17043   2.874   8.906   4.408 -0.8515  0.0941  0.1905
  127MOL0     C17044   2.985   8.983   4.351  1.0054  0.1689 -0.7405
  127MOL0     C17045   3.002   8.973   4.215  0.3286  0.1690 -0.1504
  127MOL0     O17046   3.094   9.068   4.166  0.5265  0.1371 -0.0554
  127MOL0     C17047   3.190   9.013   4.080 -0.2503 -0.2511 -0.1360
  127MOL0     C17048   3.311   9.100   4.044 -0.3506  0.3713 -0.2017
  127MOL0     C17049   3.413   9.086   4.160  0.3726  0.5347 -0.0104
  127MOL0     C17050   3.539   9.160   4.135 -0.0927  0.0501  0.1245
  127MOL0     C17051   3.653   9.122   4.228 -0.1804  0.0758  0.7964
  127MOL0     C17052   3.789   9.199   4.199 -0.5416 -0.0492 -0.0844
  127MOL0     C17053   3.852   9.180   4.058  0.2931 -0.4872 -0.1544
  127MOL0     C17054   3.984   9.244   4.060 -0.3067  0.2598 -0.3924
  127MOL0    Cl17055   4.032   9.274   3.891  0.8857  0.1412 -0.0704
  127MOL0     C17056   2.925   8.886   4.141  0.1663 -0.0646 -0.0017
  127MOL0     C17057   2.837   8.792   4.201  0.0534 -0.4993  0.6256
  127MOL0     O17058   2.829   8.574   4.466 -0.7095 -0.1905 -0.1091
  127MOL0     C17059   2.619   8.473   4.630  0.9649  0.4662 -0.4445
  127MOL0     C17060   2.515   8.410   4.693  0.3232  0.6525 -0.2034
  127MOL0     N17061   1.774   8.241   4.707 -0.1567  0.3731 -0.0047
  127MOL0     N17062   1.646   8.213   4.720  0.2471 -0.7797 -0.0779
  127MOL0     C17063   1.723   8.567   5.486 -0.2475  0.5230 -0.3092
  127MOL0     C17064   1.863   8.560   5.489 -0.5077 -1.1184 -0.0299
  127MOL0     C17065   2.263   8.449   5.434  0.0434  0.6453 -0.8347
  127MOL0     C17066   2.336   8.489   5.552 -0.1111 -0.0795 -0.1124
  127MOL0     C17067   2.476   8.478   5.543  0.3241  0.3843 -0.4896
  127MOL0     C17068   2.544   8.419   5.435  1.0664  0.3447 -0.1177
  127MOL0     O17069   2.680   8.396   5.445 -0.1057 -0.0188 -0.1581
  127MOL0     C17070   2.750   8.363   5.328  0.4818 -0.3034 -0.0584
  127MOL0     C17071   2.897   8.387   5.344  0.0180 -0.0639 -0.0570
  127MOL0     C17072   2.965   8.269   5.414 -0.0077  0.2533  0.2299
  127MOL0     C17073   3.108   8.315   5.447  0.4318  0.3014  0.0250
  127MOL0     C17074   3.111   8.413   5.556 -0.1879 -0.2756 -0.2647
  127MOL0     C17075   3.116   8.464   5.664 -0.1829 -0.3428 -0.2932
  127MOL0     C17076   2.474   8.407   5.312  0.4064  0.4247 -0.3066
  127MOL0     C17077   2.330   8.424   5.320  0.5885 -0.1571  0.5218
  127MOL0     H17078   1.878   8.272   5.681  1.2216  1.1065 -1.4509
  127MOL0     H17079   1.649   8.307   5.683  1.3127  1.3975  2.1791
  127MOL0     H17080   1.429   8.669   5.496  0.4353  1.1301  0.4996
  127MOL0     H17081   1.494   8.548   5.377  1.1306 -1.7245  1.5183
  127MOL0     H17082   1.251   8.492   5.551 -1.0027 -0.1938 -0.2591
  127MOL0     H17083   1.235   8.570   5.394  0.4733 -0.8331 -1.7296
  127MOL0     H17084   1.377   8.309   5.438 -1.1430 -1.1611  0.0376
  127MOL0     H17085   1.202   8.315   5.417 -0.1573  1.3571  1.8260
  127MOL0     H17086   1.264   8.467   5.204  0.9116 -0.2349 -0.9541
  127MOL0     H17087   1.410   8.403   5.205 -0.7564  0.3831 -1.7551
  127MOL0     H17088   1.319   8.161   5.247 -1.0543 -1.2567 -1.2578
  127MOL0     H17089   1.165   8.226   5.199  0.2310 -0.9241  0.1627
  127MOL0     H17090   1.267   8.112   5.030 -1.0861  0.1078 -0.5206
  127MOL0     H17091   1.234   8.279   4.986  3.9577  2.0372 -1.5224
  127MOL0     H17092   1.454   8.352   4.953 -0.4214  0.9156  2.0949
  127MOL0     H17093   1.508   8.251   5.082  0.6825  1.2905  0.0669
  127MOL0     H17094   1.427   8.109   4.830 -0.1905 -0.6782 -0.4660
  127MOL0     H17095   1.522   8.058   4.970  0.3226  0.6394 -1.3198
  127MOL0     H17096   1.754   8.183   5.028 -2.3890 -0.8744  0.3286
  127MOL0     H17097   1.975   8.389   4.828  0.2444 -0.5067 -1.8950
  127MOL0     H17098   1.982   8.282   4.966  1.0586 -0.6513  0.1100
  127MOL0     H17099   2.063   8.250   4.686  2.0359  2.7762  1.1733
  127MOL0     H17100   2.022   8.101   4.784 -1.7735  0.7695 -1.0522
  127MOL0     H17101   2.274   8.134   4.793 -1.9181 -2.5197  0.4677
  127MOL0     H17102   2.197   8.151   4.949 -1.5663  0.4449  1.1282
  127MOL0     H17103   2.369   8.326   4.901 -0.2914 -0.7818 -0.2814
  127MOL0     H17104   2.217   8.401   4.934 -1.0757  2.6437 -1.1089
  127MOL0     H17105   2.265   8.545   4.521 -0.0068  2.1952  1.7085
  127MOL0     H17106   2.420   8.775   4.383 -0.8544  0.0192 -1.3338
  127MOL0     H17107   2.480   8.648   4.267  1.6280 -2.7276  1.1211
  127MOL0     H17108   2.322   8.635   4.336  0.3982 -0.5532  0.0617
  127MOL0     H17109   2.860   8.929   4.513  0.8667 -1.4155  0.8106
  127MOL0     H17110   3.051   9.050   4.407  0.8845  1.0974 -1.6683
  127MOL0     H17111   3.227   8.921   4.126 -1.4565 -0.3407  0.6862
  127MOL0     H17112   3.128   8.987   3.993 -2.1502  0.8780  0.8213
  127MOL0     H17113   3.378   9.069   3.963 -1.3064 -2.1664 -0.0948
  127MOL0     H17114   3.278   9.204   4.042 -0.8252  0.2217 -0.2023
  127MOL0     H17115   3.441   8.980   4.158  1.2175  0.7402 -2.6078
  127MOL0     H17116   3.369   9.116   4.256 -0.8446  0.2989 -0.4844
  127MOL0     H17117   3.551   9.147   4.027 -4.6228  1.6778 -0.8001
  127MOL0     H17118   3.516   9.266   4.148  0.6288  0.5628 -2.2497
  127MOL0     H17119   3.666   9.014   4.219  2.2171  0.3755 -0.1563
  127MOL0     H17120   3.613   9.130   4.329 -4.0642 -0.6716 -0.5008
  127MOL0     H17121   3.761   9.304   4.205 -0.5190  0.2091 -2.9682
  127MOL0     H17122   3.865   9.172   4.272  0.8542  3.5734 -0.0039
  127MOL0     H17123   3.795   9.225   3.976  0.3185  0.6699  0.4452
  127MOL0     H17124   3.869   9.072   4.042 -0.8595 -0.8822  1.1607
  127MOL0     H17125   4.063   9.181   4.104  1.7765  2.6075 -0.5399
  127MOL0     H17126   3.984   9.340   4.113  2.7182 -0.4465  1.1480
  127MOL0     H17127   2.931   8.896   4.033 -1.2260  0.9040 -0.0199
  127MOL0     H17128   2.790   8.728   4.127 -1.2318  0.0650  0.9227
  127MOL0     H17129   2.720   8.452   4.665  1.3003 -2.0428 -2.5978
  127MOL0     H17130   2.530   8.351   4.783  2.5790  1.9988  0.3886
  127MOL0     H17131   1.681   8.661   5.453  4.4071  3.1489  0.4255
  127MOL0     H17132   1.919   8.632   5.431 -1.0213 -2.3114 -2.1055
  127MOL0     H17133   2.291   8.520   5.646  2.9402 -2.0162  2.1486
  127MOL0     H17134   2.529   8.506   5.633  2.5736  0.7489 -1.8481
  127MOL0     H17135   2.734   8.256   5.311  1.5584 -0.3300 -1.0357
  127MOL0     H17136   2.723   8.406   5.231  0.4514  1.2388  0.6046
  127MOL0     H17137   2.913   8.481   5.397 -0.1096 -0.9577  1.6401
  127MOL0     H17138   2.927   8.400   5.240  0.9184  0.3789  0.2518
  127MOL0     H17139   2.959   8.182   5.347 -2.9048  1.9687 -1.9691
  127MOL0     H17140   2.917   8.250   5.510  1.2981  1.5212  1.1724
  127MOL0     H17141   3.149   8.346   5.350 -0.3677  0.0650 -0.4011
  127MOL0     H17142   3.168   8.234   5.489  2.4959  0.5378 -2.2479
  127MOL0     H17143   3.118   8.518   5.756 -0.2224 -0.8057 -0.0188
  127MOL0     H17144   2.518   8.391   5.214 -0.2957  0.9191 -0.7075
  127MOL0     H17145   2.274   8.397   5.231  0.0063  0.3083  0.7465
  128MOL0     O17146   1.529   8.206   2.138 -0.0279 -0.2251 -0.6488
  128MOL0     C17147   1.540   8.169   2.253  0.0238  0.1111 -0.1596
  128MOL0     O17148   1.430   8.153   2.338 -0.4520  0.9288  0.2620
  128MOL0     C17149   1.306   8.119   2.291  0.6670 -0.2549  0.1323
  128MOL0     C17150   1.275   8.065   2.167 -0.0767  0.6681 -0.3261
  128MOL0     C17151   1.148   8.011   2.128  0.9670  0.1002 -0.2549
  128MOL0     C17152   1.038   8.053   2.205  0.1694  0.4416  0.4538
  128MOL0     O17153   0.913   8.009   2.156 -0.4696 -0.8506  0.8890
  128MOL0     C17154   0.807   8.093   2.187 -0.1430 -0.6102  0.0749
  128MOL0     C17155   0.673   8.053   2.121 -0.1392 -0.2318  0.2106
  128MOL0     C17156   0.642   7.907   2.131 -0.8068  0.4619  0.4420
  128MOL0     C17157   0.582   7.870   2.265 -0.0452 -0.4723  0.4342
  128MOL0     C17158   0.511   7.729   2.277  0.1146  0.3322 -0.4577
  128MOL0     C17159   0.386   7.729   2.197  0.3021  0.3119  0.2903
  128MOL0     C17160   0.321   7.592   2.204  0.9305 -0.1495 -0.6611
  128MOL0     C17161   0.241   7.565   2.327  0.5440  0.8136 -0.1595
  128MOL0     N17162   0.155   7.450   2.297  0.2701 -0.5517  0.9396
  128MOL0     C17163   0.175   7.334   2.350 -0.3842  0.4324  0.2816
  128MOL0     C17164   0.067   7.257   2.306  0.0947  0.3563 -0.0677
  128MOL0     C17165   0.042   7.112   2.319 -0.1213 -0.1326 -0.1317
  128MOL0     C17166  -0.111   7.088   2.327 -1.0646 -0.7679  0.1593
  128MOL0     C17167  -0.177   7.147   2.447 -0.3873  0.2143  0.0964
  128MOL0     C17168  -0.306   7.069   2.499 -0.3978 -0.5444 -0.2645
  128MOL0     O17169  -0.405   7.088   2.395  0.1929 -0.7563 -0.4797
  128MOL0     C17170  -0.541   7.058   2.428 -0.5608 -0.2783  0.4692
  128MOL0     C17171  -0.569   6.926   2.465 -0.7507 -0.2025 -0.7810
  128MOL0     C17172  -0.694   6.891   2.494  1.1070 -0.1351 -0.6915
  128MOL0     C17173  -0.710   6.762   2.562  0.2449 -0.2743  0.2215
  128MOL0     C17174  -0.803   6.972   2.457  0.1590  0.0621  1.6155
  128MOL0     C17175  -0.942   6.921   2.458  0.2324 -0.0244  0.6286
  128MOL0     O17176  -1.011   6.957   2.348  0.3064 -0.1130 -0.0081
  128MOL0     C17177  -1.140   6.918   2.343 -0.0650 -0.6615  0.7215
  128MOL0     C17178  -1.238   7.014   2.383  0.4829 -0.5754 -0.5425
  128MOL0     C17179  -1.361   6.962   2.424 -0.2273 -0.3700 -0.1906
  128MOL0     C17180  -1.400   6.831   2.391  0.6126 -0.0239 -0.0709
  128MOL0     O17181  -1.526   6.783   2.415 -0.3742 -0.3511  0.3800
  128MOL0     C17182  -1.628   6.871   2.478 -0.3284 -0.6344  0.3639
  128MOL0     C17183  -1.763   6.812   2.459  0.6294 -1.1270  0.4020
  128MOL0     C17184  -1.781   6.671   2.523 -0.7308  0.0384 -0.5658
  128MOL0     C17185  -1.913   6.618   2.470  0.2182  0.3226  0.1698
  128MOL0     C17186  -1.945   6.484   2.530  0.1898  0.4892  0.4676
  128MOL0     C17187  -2.096   6.476   2.564  0.2220  0.5377  0.7214
  128MOL0     C17188  -2.154   6.554   2.684 -0.4745 -0.3578 -0.3067
  128MOL0     C17189  -2.302   6.586   2.648  0.3160 -0.8149 -0.7399
  128MOL0    Cl17190  -2.392   6.446   2.683  0.4135  0.1076 -0.4202
  128MOL0     C17191  -1.313   6.753   2.327 -0.3870 -0.5283 -0.3274
  128MOL0     C17192  -1.182   6.787   2.303 -0.5213  0.2826 -0.2955
  128MOL0     O17193  -0.985   6.878   2.565  1.0014 -0.2497  0.0483
  128MOL0     C17194  -0.779   7.099   2.400  0.0956 -0.3941  0.3173
  128MOL0     C17195  -0.643   7.138   2.389  0.5222 -1.1768  0.1667
  128MOL0     N17196  -0.010   7.334   2.229  0.3252 -0.2752 -0.0091
  128MOL0     N17197   0.043   7.453   2.231  0.2988  0.1350  0.2197
  128MOL0     C17198   1.061   8.128   2.330  0.4284  0.1447  0.5189
  128MOL0     C17199   1.194   8.148   2.369 -0.2393  0.4057  0.1384
  128MOL0     C17200   1.674   8.160   2.306  0.0128 -0.3913  0.0963
  128MOL0     C17201   1.790   8.168   2.230  0.1039  0.6336 -0.1727
  128MOL0     C17202   1.920   8.140   2.282  0.5660  0.4227 -0.4403
  128MOL0     C17203   1.938   8.117   2.420  0.9088 -0.0174  0.0321
  128MOL0     O17204   2.072   8.127   2.471  0.0067  1.0310 -0.7809
  128MOL0     C17205   2.098   8.124   2.614 -0.1786  0.0188  0.2727
  128MOL0     C17206   2.254   8.106   2.618  0.5443  0.3833  0.0416
  128MOL0     C17207   2.315   8.123   2.766  0.7479  0.6519  0.1296
  128MOL0     C17208   2.470   8.103   2.741  0.6291 -0.0636 -0.6386
  128MOL0     C17209   2.533   8.138   2.866  0.3883 -0.5476  0.6980
  128MOL0     C17210   2.572   8.163   2.983  0.0190 -0.3792 -0.1038
  128MOL0     C17211   1.820   8.097   2.500 -0.1039  0.4661 -0.6961
  128MOL0     C17212   1.689   8.114   2.438  0.3824  0.7698  0.5256
  128MOL0     H17213   1.345   8.040   2.088  1.9032 -1.2547  1.8992
  128MOL0     H17214   1.140   7.955   2.036  0.7327  0.9256 -0.7419
  128MOL0     H17215   0.787   8.090   2.295  1.2823  2.5788  0.5553
  128MOL0     H17216   0.821   8.195   2.151 -2.3340 -0.9375 -1.9173
  128MOL0     H17217   0.594   8.111   2.169 -0.5750 -1.5960  1.2027
  128MOL0     H17218   0.684   8.075   2.014 -1.4783 -2.0745 -0.3461
  128MOL0     H17219   0.576   7.879   2.048 -1.9262 -0.2033  1.5161
  128MOL0     H17220   0.736   7.852   2.117 -0.2147  1.2259  1.3643
  128MOL0     H17221   0.669   7.884   2.329  1.6046 -0.6182 -1.6715
  128MOL0     H17222   0.509   7.943   2.302  0.4454 -0.6265  1.7692
  128MOL0     H17223   0.586   7.656   2.243 -0.7284  0.1049 -1.8817
  128MOL0     H17224   0.489   7.713   2.383 -0.2133 -1.8531 -0.7955
  128MOL0     H17225   0.319   7.809   2.227  2.4187  2.4681 -0.4158
  128MOL0     H17226   0.409   7.754   2.093  0.0468 -0.6918 -0.0206
  128MOL0     H17227   0.259   7.596   2.114 -0.0818  1.6621  0.0677
  128MOL0     H17228   0.389   7.507   2.196  0.6081 -0.2280 -3.4534
  128MOL0     H17229   0.183   7.657   2.337  1.2111  1.8442 -3.9886
  128MOL0     H17230   0.300   7.543   2.417 -1.3115  1.8153  1.3692
  128MOL0     H17231   0.261   7.298   2.404  0.8960 -2.1020 -3.0403
  128MOL0     H17232   0.074   7.067   2.225 -0.6221 -1.1057  0.1444
  128MOL0     H17233   0.092   7.067   2.406  0.4683 -0.7200 -0.7635
  128MOL0     H17234  -0.138   6.982   2.325 -2.7602 -0.3540 -0.4035
  128MOL0     H17235  -0.150   7.116   2.229  2.5171  3.1830 -0.4031
  128MOL0     H17236  -0.196   7.252   2.422  1.3368  0.7591  0.8544
  128MOL0     H17237  -0.103   7.151   2.528 -0.8638 -1.8190  0.6684
  128MOL0     H17238  -0.327   7.112   2.597 -2.4406 -2.6024  0.2963
  128MOL0     H17239  -0.289   6.962   2.515  0.6776 -0.0445  2.4262
  128MOL0     H17240  -0.491   6.851   2.473  0.9475  1.3731 -1.8768
  128MOL0     H17241  -0.737   6.779   2.666 -3.0674 -1.4220 -0.3380
  128MOL0     H17242  -0.787   6.696   2.521 -2.2537 -1.3289  5.7965
  128MOL0     H17243  -0.623   6.696   2.550  0.2816  0.2543 -4.8146
  128MOL0     H17244  -1.216   7.120   2.397 -0.9862 -0.2575 -0.5383
  128MOL0     H17245  -1.435   7.033   2.458 -1.5261 -1.4663 -0.6198
  128MOL0     H17246  -1.606   6.879   2.585 -3.4321  0.4154  1.0379
  128MOL0     H17247  -1.621   6.973   2.438  1.8045 -0.8521  0.1025
  128MOL0     H17248  -1.834   6.888   2.492 -1.8080 -0.6190 -4.9649
  128MOL0     H17249  -1.778   6.804   2.351  1.7694 -0.6535  0.1949
  128MOL0     H17250  -1.785   6.669   2.632  3.0999  0.2001 -0.2996
  128MOL0     H17251  -1.701   6.605   2.491 -2.0581 -0.9882 -1.9138
  128MOL0     H17252  -1.990   6.693   2.488 -0.2774  0.3055 -1.6549
  128MOL0     H17253  -1.909   6.605   2.361 -4.0181  0.7964 -0.1880
  128MOL0     H17254  -1.891   6.471   2.624 -1.8337 -1.6834  1.4361
  128MOL0     H17255  -1.907   6.408   2.461 -1.0019  3.1807 -3.4543
  128MOL0     H17256  -2.142   6.503   2.469 -0.6037  1.4248  1.3573
  128MOL0     H17257  -2.130   6.374   2.585  0.7483  0.5388  1.6314
  128MOL0     H17258  -2.108   6.653   2.696 -1.6494  0.0365  1.4567
  128MOL0     H17259  -2.151   6.508   2.783  4.2260  3.2029  1.6270
  128MOL0     H17260  -2.306   6.613   2.542 -0.0422  0.9374 -0.3295
  128MOL0     H17261  -2.342   6.664   2.714 -0.7573 -1.3925 -0.6826
  128MOL0     H17262  -1.345   6.654   2.296 -0.7025 -1.6679  3.2339
  128MOL0     H17263  -1.109   6.721   2.256 -0.6873  0.5893 -1.0027
  128MOL0     H17264  -0.846   7.181   2.377  1.8367  0.2914 -3.0953
  128MOL0     H17265  -0.600   7.234   2.361  0.5929 -0.8032  1.5248
  128MOL0     H17266   0.975   8.150   2.393  0.8691  1.0027  0.8331
  128MOL0     H17267   1.225   8.192   2.463  2.4499 -0.0121 -0.4724
  128MOL0     H17268   1.783   8.174   2.121  2.0365 -3.7568 -0.7239
  128MOL0     H17269   2.004   8.125   2.215 -0.3949  0.4111 -1.6893
  128MOL0     H17270   2.070   8.220   2.657  1.8607  1.1665 -0.8168
  128MOL0     H17271   2.040   8.053   2.673 -1.2592  0.3390 -0.3730
  128MOL0     H17272   2.302   8.180   2.552  1.3334 -0.1557 -0.0036
  128MOL0     H17273   2.277   8.004   2.585  2.0581 -0.4245  3.1850
  128MOL0     H17274   2.275   8.048   2.834 -1.4591  0.9757 -0.7440
  128MOL0     H17275   2.292   8.219   2.813  0.7448  0.1205  1.2358
  128MOL0     H17276   2.493   8.181   2.668  0.6262  0.9263  0.3799
  128MOL0     H17277   2.479   7.998   2.714 -0.4739 -0.3809  0.1851
  128MOL0     H17278   2.618   8.194   3.075 -0.7130 -1.8681  0.8054
  128MOL0     H17279   1.818   8.084   2.608  3.2222  0.6903 -0.4970
  128MOL0     H17280   1.594   8.108   2.491  0.2120  0.3848  0.1863
  129MOL0     O17281   5.269   4.621   1.763  0.2600 -0.3725 -0.0435
  129MOL0     C17282   5.226   4.555   1.856  0.5700 -0.1876  0.5589
  129MOL0     O17283   5.123   4.584   1.934 -0.1408 -0.2474 -0.8299
  129MOL0     C17284   5.051   4.703   1.918 -0.0975  0.5257  0.1364
  129MOL0     C17285   4.951   4.723   2.008  0.4053  0.1953 -0.7242
  129MOL0     C17286   4.866   4.833   2.009 -0.1996 -1.2057  0.2331
  129MOL0     C17287   4.882   4.932   1.908 -0.7094  0.5025 -0.2933
  129MOL0     O17288   4.802   5.041   1.903 -0.0089  0.0043 -0.0064
  129MOL0     C17289   4.721   5.077   2.018  0.1402  0.4737 -0.2296
  129MOL0     C17290   4.659   5.213   1.995 -0.1064 -0.0886 -0.2666
  129MOL0     C17291   4.551   5.218   1.875  0.3198  1.8834  0.4248
  129MOL0     C17292   4.409   5.170   1.923  0.2419  0.3686  0.3409
  129MOL0     C17293   4.306   5.195   1.810  1.5488 -0.2578  0.3955
  129MOL0     C17294   4.291   5.346   1.791 -0.5801  0.5456 -0.5419
  129MOL0     C17295   4.230   5.400   1.922 -0.3781 -0.4137 -0.5806
  129MOL0     C17296   4.146   5.520   1.896  0.0553 -0.7087 -0.4618
  129MOL0     N17297   4.235   5.634   1.877  0.2329 -0.1516 -0.2924
  129MOL0     C17298   4.256   5.686   1.753  0.6999 -0.9442 -0.5071
  129MOL0     C17299   4.332   5.792   1.777  0.2233  0.0345  0.1657
  129MOL0     C17300   4.364   5.893   1.668 -0.8071  0.4860 -0.2351
  129MOL0     C17301   4.485   5.854   1.591  0.0113 -0.6531  0.6312
  129MOL0     C17302   4.579   5.971   1.570 -0.0510 -0.0962 -0.1970
  129MOL0     C17303   4.704   5.927   1.497  0.5454  0.1808 -0.3291
  129MOL0     O17304   4.675   5.862   1.369 -0.1665 -0.5831 -0.2244
  129MOL0     C17305   4.769   5.792   1.309  0.1527  0.3590  0.8432
  129MOL0     C17306   4.730   5.735   1.187 -0.1125 -0.6494 -0.2087
  129MOL0     C17307   4.815   5.642   1.120 -0.1661  0.5186 -0.1065
  129MOL0     C17308   4.760   5.575   0.997 -0.9690 -0.3930 -0.5555
  129MOL0     C17309   4.949   5.623   1.164 -0.2882  0.0409 -0.2554
  129MOL0     C17310   5.050   5.539   1.098  0.0301 -0.0096 -0.4151
  129MOL0     O17311   5.155   5.503   1.170 -0.5663 -0.2106  0.2629
  129MOL0     C17312   5.252   5.417   1.135  0.2310  0.6249 -0.0254
  129MOL0     C17313   5.388   5.456   1.168  0.0699  0.5155 -0.6819
  129MOL0     C17314   5.487   5.360   1.123 -0.2204 -1.2557  0.0097
  129MOL0     C17315   5.459   5.251   1.040 -0.5093  0.2427  0.1753
  129MOL0     O17316   5.561   5.167   0.994 -0.0327 -0.1332 -0.1779
  129MOL0     C17317   5.556   5.021   0.981  0.2182  0.7931  0.1116
  129MOL0     C17318   5.704   4.961   0.954  1.2607 -0.8046 -0.2753
  129MOL0     C17319   5.773   4.950   1.090  0.0094  0.5816 -0.1962
  129MOL0     C17320   5.914   4.914   1.068  0.6146  0.1978  0.3768
  129MOL0     C17321   5.988   4.862   1.192  0.1204  0.9808 -0.3742
  129MOL0     C17322   6.132   4.826   1.145  0.0176  0.0037 -0.3824
  129MOL0     C17323   6.212   4.779   1.273 -0.3670  0.1006 -0.3889
  129MOL0     C17324   6.358   4.729   1.255 -0.2862  0.4890  0.2468
  129MOL0    Cl17325   6.445   4.728   1.412  0.2917 -0.2121  0.0233
  129MOL0     C17326   5.329   5.222   1.010  0.5061  0.5199 -0.5305
  129MOL0     C17327   5.229   5.286   1.072 -0.0880 -0.5586 -0.3625
  129MOL0     O17328   5.036   5.502   0.989 -0.5440 -0.2472  0.4089
  129MOL0     C17329   4.986   5.696   1.280 -1.0005  0.2755  0.7026
  129MOL0     C17330   4.899   5.780   1.347 -0.5972  0.2646 -0.0293
  129MOL0     N17331   4.352   5.802   1.916 -0.4527  0.1330  0.1734
  129MOL0     N17332   4.289   5.701   1.976 -0.5297 -0.7704  0.4243
  129MOL0     C17333   4.985   4.918   1.821 -0.2316  0.3552 -0.2397
  129MOL0     C17334   5.060   4.797   1.818  0.5739 -0.1133 -0.4430
  129MOL0     C17335   5.313   4.438   1.878 -0.0814 -1.6086 -0.2635
  129MOL0     C17336   5.336   4.381   2.003  0.2423  0.4169 -0.8856
  129MOL0     C17337   5.424   4.274   2.026 -1.0179  0.4913 -0.3376
  129MOL0     C17338   5.506   4.219   1.915 -0.3666 -0.6710  0.1775
  129MOL0     O17339   5.591   4.116   1.920  0.2473 -0.0733  0.2074
  129MOL0     C17340   5.606   4.047   2.046 -0.3142 -0.0105 -0.4804
  129MOL0     C17341   5.711   3.938   2.034  0.4942 -0.8192  0.1740
  129MOL0     C17342   5.747   3.900   2.173 -0.2656  0.4853  0.2530
  129MOL0     C17343   5.854   3.797   2.171  0.2967 -0.1654 -0.9148
  129MOL0     C17344   5.940   3.781   2.295  0.8853 -0.0775 -0.6257
  129MOL0     C17345   6.008   3.774   2.394 -0.3343 -0.1111 -0.3496
  129MOL0     C17346   5.478   4.277   1.784 -0.7020  0.2370  0.1390
  129MOL0     C17347   5.381   4.379   1.769 -0.0531 -0.0142  0.2562
  129MOL0     H17348   4.943   4.645   2.083 -1.9104  0.2937 -0.8077
  129MOL0     H17349   4.788   4.838   2.085 -2.5067  0.1399 -2.0628
  129MOL0     H17350   4.643   5.000   2.027 -0.6498  0.9347 -2.5434
  129MOL0     H17351   4.771   5.067   2.115  0.8416 -0.5337 -0.6682
  129MOL0     H17352   4.619   5.241   2.092  0.8502  0.2196  0.0542
  129MOL0     H17353   4.737   5.285   1.970 -1.7457  0.8551 -3.1158
  129MOL0     H17354   4.556   5.322   1.839 -1.3908  1.2752 -1.7760
  129MOL0     H17355   4.586   5.145   1.802 -1.1775 -0.0644  1.5868
  129MOL0     H17356   4.409   5.061   1.931  1.3857  0.0218 -2.6993
  129MOL0     H17357   4.382   5.218   2.016  0.0024  0.7147  0.0929
  129MOL0     H17358   4.352   5.149   1.722  1.6944  1.4056 -0.4275
  129MOL0     H17359   4.209   5.158   1.845  1.3161  2.9825  3.7619
  129MOL0     H17360   4.382   5.398   1.760  0.5267  0.1244  1.7735
  129MOL0     H17361   4.220   5.347   1.708 -1.1918 -0.9837 -0.0662
  129MOL0     H17362   4.165   5.326   1.971  0.8183 -0.7104  0.6200
  129MOL0     H17363   4.311   5.429   1.990 -0.0311 -1.1697 -0.6676
  129MOL0     H17364   4.072   5.546   1.973  0.8246  1.7654 -0.4683
  129MOL0     H17365   4.088   5.493   1.807 -3.3693 -0.2979  1.4436
  129MOL0     H17366   4.221   5.648   1.658  3.7784 -1.0099 -1.7012
  129MOL0     H17367   4.280   5.911   1.600 -1.9527  2.6497  1.5763
  129MOL0     H17368   4.380   5.987   1.722 -1.2582 -0.0994  0.9604
  129MOL0     H17369   4.449   5.828   1.491  1.5405  2.0394 -0.7542
  129MOL0     H17370   4.532   5.767   1.637  0.1405  0.7373  3.3401
  129MOL0     H17371   4.596   6.018   1.668 -1.6144  1.7339 -0.7464
  129MOL0     H17372   4.527   6.049   1.515 -1.6884 -0.9884  0.0250
  129MOL0     H17373   4.744   5.850   1.563 -0.4714 -0.0282  0.0482
  129MOL0     H17374   4.780   6.006   1.496  1.1430 -0.3209  1.7476
  129MOL0     H17375   4.637   5.764   1.140  0.5490  0.7684 -0.6687
  129MOL0     H17376   4.823   5.589   0.909 -0.5718 -2.1330 -0.5950
  129MOL0     H17377   4.746   5.470   1.027 -2.7283  0.3336  1.3954
  129MOL0     H17378   4.656   5.604   0.982 -1.0070 -0.6300 -0.7594
  129MOL0     H17379   5.408   5.551   1.216 -2.4063  0.5961  0.3681
  129MOL0     H17380   5.588   5.381   1.156 -0.7038  0.3122  0.5603
  129MOL0     H17381   5.509   4.972   1.067 -3.4548 -0.7711 -2.5056
  129MOL0     H17382   5.493   4.993   0.896  2.1773 -3.4612 -0.1608
  129MOL0     H17383   5.701   4.866   0.901  0.2582 -0.0047 -1.7434
  129MOL0     H17384   5.756   5.036   0.893  1.2643  0.7362  1.5339
  129MOL0     H17385   5.717   4.878   1.151 -0.1738 -0.6403 -1.7474
  129MOL0     H17386   5.768   5.048   1.139 -1.7742  1.3358 -1.7590
  129MOL0     H17387   5.934   4.844   0.987  0.8420  1.3171 -0.5699
  129MOL0     H17388   5.976   5.004   1.057 -1.3480  1.3231 -2.6843
  129MOL0     H17389   5.935   4.783   1.247  1.0092  1.7525  1.7214
  129MOL0     H17390   5.995   4.937   1.272  0.1172 -0.8919  1.4932
  129MOL0     H17391   6.125   4.746   1.070 -1.3444 -0.5146  0.2627
  129MOL0     H17392   6.178   4.915   1.103  0.1005  2.3348  4.0980
  129MOL0     H17393   6.149   4.717   1.337 -0.7164 -1.1298 -1.8505
  129MOL0     H17394   6.230   4.874   1.325 -0.7374  2.6766 -4.4638
  129MOL0     H17395   6.416   4.786   1.181 -1.2194  0.5020 -0.4981
  129MOL0     H17396   6.353   4.629   1.211  3.5509  0.9709 -1.7010
  129MOL0     H17397   5.313   5.132   0.951  3.2142 -0.9745  0.7746
  129MOL0     H17398   5.125   5.253   1.064 -1.1238  2.5000 -0.6372
  129MOL0     H17399   5.082   5.706   1.330 -1.0887  2.8185  0.4798
  129MOL0     H17400   4.937   5.845   1.425 -1.5121  0.1784  0.5022
  129MOL0     H17401   4.996   4.979   1.732  3.1684  0.2638  0.0046
  129MOL0     H17402   5.128   4.798   1.733  0.5610  0.1576 -0.4494
  129MOL0     H17403   5.277   4.422   2.085  0.5323 -2.0852  0.6970
  129MOL0     H17404   5.430   4.225   2.122 -0.3876 -0.0502 -0.6477
  129MOL0     H17405   5.624   4.117   2.129 -1.1865  0.5374 -0.7415
  129MOL0     H17406   5.512   3.996   2.069  0.7634 -2.0098 -0.2924
  129MOL0     H17407   5.784   4.000   1.981 -0.5787  0.4788  0.1491
  129MOL0     H17408   5.673   3.850   1.981 -0.6675 -0.5722  0.5640
  129MOL0     H17409   5.651   3.864   2.211 -0.2690 -0.8185 -0.9026
  129MOL0     H17410   5.785   3.991   2.221  2.6471 -1.0433  1.0618
  129MOL0     H17411   5.934   3.818   2.099  1.0589 -1.4209 -0.4508
  129MOL0     H17412   5.804   3.701   2.154 -1.1790  0.9715 -3.6189
  129MOL0     H17413   6.063   3.779   2.486 -2.2281 -0.1081  0.8356
  129MOL0     H17414   5.519   4.230   1.695  1.4591  1.8943  0.1802
  129MOL0     H17415   5.360   4.425   1.673 -2.6668  0.3962  0.9211
  130MOL0     O17416   6.107   0.419   7.269  1.0552 -0.9963 -0.3187
  130MOL0     C17417   6.109   0.304   7.253  0.3787  0.2946 -0.3525
  130MOL0     O17418   5.999   0.212   7.255 -0.5462 -0.0209  0.6251
  130MOL0     C17419   5.872   0.266   7.281 -0.3329  0.4686 -0.4106
  130MOL0     C17420   5.808   0.377   7.229 -0.8087 -0.2593 -0.1827
  130MOL0     C17421   5.696   0.436   7.281 -0.4189 -0.1993 -0.5264
  130MOL0     C17422   5.625   0.356   7.375 -0.3883  0.6516  0.3006
  130MOL0     O17423   5.497   0.388   7.426 -0.4191 -0.1270  0.0755
  130MOL0     C17424   5.432   0.516   7.402  0.1788  0.3274  0.2743
  130MOL0     C17425   5.288   0.512   7.454  0.0645 -0.3397  0.6239
  130MOL0     C17426   5.206   0.640   7.432  0.1239  0.1370 -0.1451
  130MOL0     C17427   5.054   0.623   7.444  0.4318 -0.7131 -0.9294
  130MOL0     C17428   4.987   0.747   7.506  0.2148 -0.1040 -0.6676
  130MOL0     C17429   4.962   0.839   7.394 -0.4929  0.2407  0.2256
  130MOL0     C17430   4.869   0.950   7.437  0.5401  0.4216  0.5709
  130MOL0     C17431   4.867   1.052   7.315 -0.1402  0.7948 -0.0452
  130MOL0     N17432   4.773   1.156   7.337  0.5845  0.7292  0.3228
  130MOL0     C17433   4.636   1.133   7.334 -0.3378 -0.7198  0.3536
  130MOL0     C17434   4.584   1.260   7.366 -0.1068 -0.4886 -0.0394
  130MOL0     C17435   4.445   1.299   7.351  0.8567  0.4356  0.4805
  130MOL0     C17436   4.386   1.355   7.482  0.3281  0.0126  0.1978
  130MOL0     C17437   4.240   1.399   7.477  0.9078 -0.0299 -0.2063
  130MOL0     C17438   4.176   1.452   7.602 -0.0648  0.5925 -0.1342
  130MOL0     O17439   4.056   1.523   7.580 -0.0023  0.2523 -0.3627
  130MOL0     C17440   3.977   1.568   7.684  0.0425  0.6463  0.1624
  130MOL0     C17441   4.010   1.567   7.821 -0.4093 -0.0899  0.3068
  130MOL0     C17442   3.916   1.613   7.914 -0.2377  0.3363 -0.3505
  130MOL0     C17443   3.961   1.594   8.062  0.4850 -0.4351 -0.4255
  130MOL0     C17444   3.788   1.657   7.873 -0.0635 -1.0631 -0.0307
  130MOL0     C17445   3.695   1.716   7.967 -0.0450 -0.5808  0.0501
  130MOL0     O17446   3.738   1.791   8.076 -0.1516 -0.0795  0.1770
  130MOL0     C17447   3.653   1.880   8.139  0.1626  0.0158  1.0050
  130MOL0     C17448   3.635   1.873   8.274 -0.7576 -0.1612  0.3478
  130MOL0     C17449   3.523   1.945   8.323  0.4614 -0.2863 -0.6422
  130MOL0     C17450   3.429   2.015   8.250  0.1851 -0.0338 -0.2374
  130MOL0     O17451   3.326   2.074   8.327 -0.1894  0.1513 -0.3288
  130MOL0     C17452   3.217   2.130   8.256  0.2501  0.4310  0.2390
  130MOL0     C17453   3.119   2.185   8.357  0.0765  0.2379 -0.2982
  130MOL0     C17454   2.991   2.214   8.283 -0.9095  0.9160  0.0087
  130MOL0     C17455   2.882   2.254   8.375  1.2817 -0.1835 -0.1122
  130MOL0     C17456   2.740   2.235   8.324  0.7955 -0.8521 -0.1540
  130MOL0     C17457   2.684   2.365   8.263 -0.0387 -0.1399  0.5536
  130MOL0     C17458   2.536   2.353   8.221  0.2970  0.1940 -1.1296
  130MOL0     C17459   2.447   2.357   8.334  0.0906  0.3452 -0.2439
  130MOL0    Cl17460   2.299   2.277   8.289 -0.0762 -0.1001  0.2485
  130MOL0     C17461   3.441   2.023   8.112 -0.5755 -0.6431  0.1412
  130MOL0     C17462   3.561   1.955   8.061  1.1090 -0.8558  0.2631
  130MOL0     O17463   3.579   1.686   7.940  0.5507  0.8128  0.2307
  130MOL0     C17464   3.764   1.665   7.740  0.0082  0.0926 -0.0549
  130MOL0     C17465   3.863   1.625   7.649 -0.9280 -0.3387 -0.5764
  130MOL0     N17466   4.690   1.344   7.371  0.2221  0.1221 -0.1268
  130MOL0     N17467   4.800   1.283   7.365  0.1133 -1.6770  0.0906
  130MOL0     C17468   5.677   0.238   7.421  0.1927  0.9380  0.1310
  130MOL0     C17469   5.804   0.202   7.384 -0.4727  1.1472  0.0224
  130MOL0     C17470   6.237   0.240   7.206  0.9939 -0.3211 -1.2278
  130MOL0     C17471   6.252   0.107   7.161  0.1368 -0.1518  0.5393
  130MOL0     C17472   6.377   0.061   7.138  0.4715  0.5616 -0.4383
  130MOL0     C17473   6.493   0.140   7.133  0.2956 -0.3493  0.3891
  130MOL0     O17474   6.612   0.077   7.101  0.5095  0.0081 -0.2409
  130MOL0     C17475   6.606   0.008   6.980 -0.0082  0.1183 -0.6167
  130MOL0     C17476   6.717   0.045   6.878  0.0436  0.3012 -0.3301
  130MOL0     C17477   6.855   0.005   6.933  0.4798  0.1492 -0.0479
  130MOL0     C17478   6.957   0.007   6.814  0.3609 -0.1340  0.4618
  130MOL0     C17479   7.072  -0.065   6.865 -0.5238 -0.8253  0.1349
  130MOL0     C17480   7.174  -0.126   6.898  0.6699  0.0231 -0.0961
  130MOL0     C17481   6.485   0.273   7.176 -0.6131 -0.0319 -0.1014
  130MOL0     C17482   6.359   0.315   7.212  1.0896  0.4743  0.0852
  130MOL0     H17483   5.848   0.424   7.139  0.7756  0.1887  0.7108
  130MOL0     H17484   5.667   0.533   7.242  1.2558  0.3256 -0.5685
  130MOL0     H17485   5.482   0.592   7.463  0.8628 -0.4125  0.6390
  130MOL0     H17486   5.447   0.556   7.301 -2.8858 -0.1010 -0.4467
  130MOL0     H17487   5.237   0.426   7.409 -0.8929  1.8561 -2.8235
  130MOL0     H17488   5.293   0.491   7.562  2.3395 -2.9984  0.1189
  130MOL0     H17489   5.247   0.719   7.495 -0.2229  1.0327 -1.0123
  130MOL0     H17490   5.227   0.667   7.328  1.8236 -0.2315  0.0743
  130MOL0     H17491   5.008   0.604   7.347 -3.4710  2.2093  0.1139
  130MOL0     H17492   5.028   0.532   7.500 -0.4711 -0.5740 -1.1146
  130MOL0     H17493   4.894   0.710   7.549  0.7467 -2.5221 -1.4332
  130MOL0     H17494   5.052   0.788   7.584 -0.4879  3.8533 -1.9371
  130MOL0     H17495   5.057   0.879   7.355 -1.8633  0.6684 -2.9797
  130MOL0     H17496   4.907   0.782   7.319  1.8502 -2.1155  0.1594
  130MOL0     H17497   4.768   0.911   7.447  0.8398  0.0432  2.5519
  130MOL0     H17498   4.908   0.997   7.529  3.1537 -1.5406  0.5982
  130MOL0     H17499   4.845   0.990   7.228  0.9237 -3.6385  2.5121
  130MOL0     H17500   4.966   1.092   7.294  1.1175 -2.5505 -1.2242
  130MOL0     H17501   4.584   1.039   7.319 -0.8684 -0.2253 -1.1569
  130MOL0     H17502   4.434   1.355   7.258 -0.4809 -0.2382  0.2147
  130MOL0     H17503   4.388   1.212   7.318 -0.1422  0.4974  1.9504
  130MOL0     H17504   4.445   1.443   7.508  3.0752 -1.3635 -1.0064
  130MOL0     H17505   4.402   1.284   7.564  3.4976  0.4707  0.0844
  130MOL0     H17506   4.177   1.311   7.458 -1.3692  0.1815  4.8422
  130MOL0     H17507   4.216   1.474   7.401  0.6900 -1.2495 -1.4051
  130MOL0     H17508   4.247   1.518   7.653  1.8100  0.1832 -2.0688
  130MOL0     H17509   4.164   1.365   7.668 -1.2331  1.5961  1.0272
  130MOL0     H17510   4.103   1.529   7.861 -0.9222  0.8368  2.5301
  130MOL0     H17511   3.887   1.554   8.132  3.1356 -2.0682  1.6544
  130MOL0     H17512   4.047   1.528   8.075 -0.0484 -0.7029  2.3940
  130MOL0     H17513   3.992   1.692   8.100 -0.5534  0.6177 -2.1581
  130MOL0     H17514   3.703   1.804   8.323 -0.1246 -0.8046 -1.3411
  130MOL0     H17515   3.508   1.937   8.430 -2.0133 -1.4756 -0.9796
  130MOL0     H17516   3.246   2.218   8.198 -0.1337  0.9760  0.8467
  130MOL0     H17517   3.172   2.052   8.194  0.3595 -0.3099  1.0758
  130MOL0     H17518   3.105   2.116   8.440  0.3744  0.2823 -0.2087
  130MOL0     H17519   3.160   2.278   8.399 -0.1629  1.3802 -2.4364
  130MOL0     H17520   2.960   2.130   8.219 -2.4617  2.1160 -0.8840
  130MOL0     H17521   3.010   2.294   8.211 -2.4839  0.8450 -0.5244
  130MOL0     H17522   2.895   2.186   8.460  0.5081  1.2398  1.1967
  130MOL0     H17523   2.885   2.355   8.417 -3.2083  0.0837  0.0002
  130MOL0     H17524   2.690   2.223   8.420  0.8314  1.3155  0.1872
  130MOL0     H17525   2.730   2.143   8.265 -0.6017 -0.5041 -0.4995
  130MOL0     H17526   2.692   2.446   8.336 -0.4055  0.4304 -0.0275
  130MOL0     H17527   2.739   2.393   8.172 -2.6602  2.3248 -0.4357
  130MOL0     H17528   2.512   2.260   8.169 -1.7480 -0.7720  1.3593
  130MOL0     H17529   2.512   2.442   8.162 -0.7100  1.0497  0.5085
  130MOL0     H17530   2.423   2.462   8.355 -0.6191  0.1614 -0.0963
  130MOL0     H17531   2.490   2.311   8.423 -2.5818 -2.0575 -0.0280
  130MOL0     H17532   3.365   2.073   8.052  1.6251 -0.5133 -2.7491
  130MOL0     H17533   3.558   1.955   7.953 -2.8097 -1.5509  0.2241
  130MOL0     H17534   3.664   1.695   7.708 -0.8404 -1.4702  1.0102
  130MOL0     H17535   3.854   1.643   7.542  0.7560 -1.9261 -1.0330
  130MOL0     H17536   5.622   0.167   7.482  0.7256  1.7700  1.6282
  130MOL0     H17537   5.849   0.113   7.427 -2.0570  0.5032  0.4250
  130MOL0     H17538   6.168   0.038   7.172  2.4481 -2.7534  4.3176
  130MOL0     H17539   6.391  -0.042   7.105  0.7013  0.6332 -0.5616
  130MOL0     H17540   6.618  -0.100   6.994 -0.6506  0.2406  1.0339
  130MOL0     H17541   6.512   0.023   6.926 -0.3233 -0.2273 -0.1726
  130MOL0     H17542   6.717   0.150   6.847  2.8046 -0.0277 -1.7640
  130MOL0     H17543   6.685   0.007   6.781 -0.0495  1.8534 -0.9498
  130MOL0     H17544   6.839  -0.095   6.974 -0.4200 -0.2276 -1.2373
  130MOL0     H17545   6.893   0.079   7.003 -1.2947  1.4749 -0.4132
  130MOL0     H17546   6.984   0.109   6.787  1.6274 -1.4198 -3.8863
  130MOL0     H17547   6.925  -0.045   6.724  0.6756 -0.8500  0.7524
  130MOL0     H17548   7.263  -0.181   6.924 -0.3373 -0.7554  1.9138
  130MOL0     H17549   6.570   0.338   7.196  0.2908 -1.2839  0.2607
  130MOL0     H17550   6.353   0.418   7.246 -2.2096 -0.3902  2.6603
  131MOL0     O17551   9.517   7.581   0.759 -0.3877  0.6858  0.0477
  131MOL0     C17552   9.601   7.661   0.724 -0.1552 -0.4486  0.1347
  131MOL0     O17553   9.582   7.792   0.693 -0.0767  0.1831  0.4309
  131MOL0     C17554   9.452   7.835   0.694  0.3160  0.3415 -0.0358
  131MOL0     C17555   9.396   7.905   0.581  0.1266 -0.9250 -0.0922
  131MOL0     C17556   9.272   7.970   0.593  0.2933 -0.3712 -0.2000
  131MOL0     C17557   9.197   7.960   0.705  0.9769 -0.3107 -0.5886
  131MOL0     O17558   9.070   8.013   0.719 -0.4700  0.5421 -0.6384
  131MOL0     C17559   8.964   7.992   0.620 -0.3986  0.7427  0.4120
  131MOL0     C17560   8.921   7.839   0.618 -0.0060  0.4686 -0.0937
  131MOL0     C17561   8.797   7.814   0.528 -0.1821  0.4363  0.0957
  131MOL0     C17562   8.785   7.668   0.510  0.2411  0.3496  0.5984
  131MOL0     C17563   8.671   7.633   0.409 -0.5072 -0.0892  0.8100
  131MOL0     C17564   8.708   7.657   0.264 -1.4813 -0.6937 -0.4004
  131MOL0     C17565   8.588   7.661   0.165  0.3219  0.2529 -0.0596
  131MOL0     C17566   8.501   7.535   0.186  1.4564 -0.2452 -0.7135
  131MOL0     N17567   8.406   7.527   0.074 -0.2908  0.2908 -0.0909
  131MOL0     C17568   8.273   7.549   0.084  0.7080 -0.7776 -0.2649
  131MOL0     C17569   8.223   7.518  -0.036  0.3668 -0.2571  0.4392
  131MOL0     C17570   8.077   7.534  -0.069  0.5586  0.9720  0.0211
  131MOL0     C17571   7.999   7.434   0.003 -0.0124  0.2352  0.3923
  131MOL0     C17572   8.037   7.295  -0.051 -0.1814 -0.0206 -0.4905
  131MOL0     C17573   7.965   7.184   0.020  0.5637 -0.4595  0.4577
  131MOL0     O17574   7.970   7.068  -0.062  0.5221  0.1514  0.9033
  131MOL0     C17575   7.916   6.949  -0.021  1.3194  0.5176 -0.2997
  131MOL0     C17576   7.908   6.910   0.110 -0.4655 -0.1275 -0.1443
  131MOL0     C17577   7.856   6.789   0.148 -0.4895 -0.5864 -0.1794
  131MOL0     C17578   7.863   6.761   0.292  0.6962  1.0552 -0.9443
  131MOL0     C17579   7.802   6.700   0.049 -0.0487 -0.0493 -0.1880
  131MOL0     C17580   7.725   6.585   0.089 -0.0877  0.1475  0.2462
  131MOL0     O17581   7.746   6.528   0.205  0.0656 -0.0920 -0.0959
  131MOL0     C17582   7.649   6.450   0.253 -0.2734  0.1148  0.1952
  131MOL0     C17583   7.638   6.321   0.193  0.4636  0.2089  0.0248
  131MOL0     C17584   7.542   6.233   0.241  0.5464  0.6402 -0.4239
  131MOL0     C17585   7.456   6.270   0.348  0.6959  1.1808 -1.0416
  131MOL0     O17586   7.364   6.177   0.396 -0.6178 -0.4386  0.3377
  131MOL0     C17587   7.234   6.185   0.328  0.2786 -0.2703 -0.3845
  131MOL0     C17588   7.172   6.048   0.295 -0.1191  0.5432 -0.4141
  131MOL0     C17589   7.130   5.974   0.430  0.2469 -0.1924 -0.0219
  131MOL0     C17590   7.022   5.867   0.398 -0.1499  0.0341 -0.3229
  131MOL0     C17591   7.017   5.762   0.498 -0.2041  0.2901  0.2108
  131MOL0     C17592   6.935   5.820   0.619 -0.1003 -0.5011 -0.0459
  131MOL0     C17593   6.783   5.814   0.606 -0.3694  0.3353  0.3402
  131MOL0     C17594   6.709   5.883   0.715  0.9307 -0.3849  0.3256
  131MOL0    Cl17595   6.687   5.774   0.860 -0.2216  0.4083  0.3560
  131MOL0     C17596   7.478   6.390   0.415 -0.0595 -0.0576 -0.6477
  131MOL0     C17597   7.574   6.481   0.370 -0.4721  0.6967  0.3836
  131MOL0     O17598   7.647   6.543   0.003  0.0007  0.1826 -0.0506
  131MOL0     C17599   7.811   6.735  -0.090 -0.5191  0.7166 -0.3262
  131MOL0     C17600   7.865   6.856  -0.117  0.0248  0.0089  0.7979
  131MOL0     N17601   8.331   7.479  -0.122 -0.1518 -0.8298  0.1569
  131MOL0     N17602   8.438   7.481  -0.049 -0.5631  0.2415 -0.4217
  131MOL0     C17603   9.250   7.894   0.816 -1.0520 -0.0892 -0.1589
  131MOL0     C17604   9.378   7.834   0.812 -0.2064 -0.3349 -0.5950
  131MOL0     C17605   9.737   7.607   0.716  0.2957 -0.5701  0.0088
  131MOL0     C17606   9.767   7.470   0.739 -0.8967 -0.3897  0.1398
  131MOL0     C17607   9.902   7.426   0.750  0.5640 -0.0669  0.3360
  131MOL0     C17608  10.003   7.511   0.731 -0.3635 -1.4337  0.0298
  131MOL0     O17609  10.130   7.469   0.733  0.3468  0.3701  0.3118
  131MOL0     C17610  10.224   7.535   0.813 -0.5611 -0.3527  0.3252
  131MOL0     C17611  10.336   7.614   0.734  0.0270 -0.3735  0.3282
  131MOL0     C17612  10.404   7.518   0.631  0.4634 -1.1249 -0.3570
  131MOL0     C17613  10.363   7.559   0.497  0.8293 -0.2471 -0.1478
  131MOL0     C17614  10.422   7.480   0.391  0.2009  0.2895 -0.8796
  131MOL0     C17615  10.468   7.417   0.300 -0.3783 -0.3371  0.7790
  131MOL0     C17616   9.974   7.643   0.691  0.0821  0.1010  0.2518
  131MOL0     C17617   9.844   7.691   0.681 -0.5741  0.5079 -0.0550
  131MOL0     H17618   9.460   7.897   0.494  0.4876 -2.5517  0.2872
  131MOL0     H17619   9.243   8.031   0.508 -0.7073 -0.8352 -0.2058
  131MOL0     H17620   8.875   8.053   0.638 -1.2453 -0.6191  1.0138
  131MOL0     H17621   8.994   8.016   0.518 -2.0399 -2.2746 -0.9011
  131MOL0     H17622   9.014   7.791   0.588 -0.8174 -1.5758  0.5068
  131MOL0     H17623   8.905   7.799   0.719 -2.8026  1.0506 -0.2218
  131MOL0     H17624   8.702   7.843   0.573 -0.8958  1.2733 -1.8784
  131MOL0     H17625   8.811   7.881   0.442  1.0346  1.2384  0.8825
  131MOL0     H17626   8.885   7.632   0.485  1.1492  3.4234 -0.6822
  131MOL0     H17627   8.757   7.624   0.606  0.5037  2.3572  1.6497
  131MOL0     H17628   8.662   7.524   0.421  1.8279 -0.2703  1.4297
  131MOL0     H17629   8.575   7.681   0.427 -3.2723 -4.4772 -0.5559
  131MOL0     H17630   8.753   7.756   0.254 -1.9981 -0.6169 -2.3549
  131MOL0     H17631   8.784   7.584   0.235 -0.4500 -0.3414  1.2483
  131MOL0     H17632   8.538   7.756   0.188  2.0762  1.4057 -0.7277
  131MOL0     H17633   8.618   7.666   0.060  1.3707  1.9902  0.2777
  131MOL0     H17634   8.436   7.547   0.273  2.0129  2.4520 -0.5979
  131MOL0     H17635   8.558   7.441   0.186 -0.0868 -1.2301 -0.2979
  131MOL0     H17636   8.223   7.592   0.170  3.3835  2.7977 -0.2860
  131MOL0     H17637   8.035   7.633  -0.047 -0.8182  0.4083  0.0601
  131MOL0     H17638   8.059   7.534  -0.177  0.5408 -0.6055  0.0050
  131MOL0     H17639   7.892   7.455  -0.002  0.0922  1.5086  2.1897
  131MOL0     H17640   8.042   7.443   0.104 -1.2860  0.7248  0.9198
  131MOL0     H17641   8.144   7.280  -0.033 -0.4655  0.2286  1.7680
  131MOL0     H17642   8.021   7.287  -0.159 -1.6432 -1.2810 -0.2173
  131MOL0     H17643   7.863   7.211   0.050  0.6433  2.2270 -1.2619
  131MOL0     H17644   8.023   7.179   0.113  1.4969 -0.4770 -0.1206
  131MOL0     H17645   7.948   6.987   0.176 -0.8531  0.6406 -0.7909
  131MOL0     H17646   7.935   6.826   0.344  1.0533 -0.0468 -0.0165
  131MOL0     H17647   7.765   6.783   0.334 -0.8504 -1.9557 -2.6563
  131MOL0     H17648   7.908   6.663   0.312  2.1177  1.6977 -0.8595
  131MOL0     H17649   7.708   6.309   0.112  0.0121 -0.3059 -0.2917
  131MOL0     H17650   7.519   6.145   0.182 -1.2356  2.2975 -2.3346
  131MOL0     H17651   7.160   6.235   0.391  2.7516  2.7563  0.3675
  131MOL0     H17652   7.253   6.221   0.227 -0.0420 -1.2861 -0.8205
  131MOL0     H17653   7.087   6.058   0.226  0.6513 -0.0030 -1.4639
  131MOL0     H17654   7.251   5.988   0.249  0.7290  3.2785 -2.7732
  131MOL0     H17655   7.097   6.044   0.507  0.7647  0.3249 -0.2665
  131MOL0     H17656   7.219   5.924   0.470  1.3547  1.3932 -0.4388
  131MOL0     H17657   6.928   5.917   0.376 -1.1379  0.2900  3.8012
  131MOL0     H17658   7.057   5.822   0.304 -4.5871 -2.6864 -0.9542
  131MOL0     H17659   7.109   5.732   0.548 -1.2010 -0.3811  1.7170
  131MOL0     H17660   6.969   5.673   0.457  2.5932 -3.3047  4.0007
  131MOL0     H17661   6.969   5.753   0.699 -0.7838 -1.0944 -0.2498
  131MOL0     H17662   6.962   5.925   0.634  0.3325 -0.4328 -1.2518
  131MOL0     H17663   6.744   5.712   0.604  0.7683 -0.1491  1.4498
  131MOL0     H17664   6.751   5.853   0.510 -1.4390  0.1087  0.5955
  131MOL0     H17665   6.608   5.910   0.681 -1.0168 -2.5915  3.7906
  131MOL0     H17666   6.768   5.972   0.742 -2.9515  2.3232  0.7375
  131MOL0     H17667   7.420   6.408   0.505 -0.4826 -1.0586 -0.7051
  131MOL0     H17668   7.582   6.581   0.411  1.8952  1.8943 -2.5997
  131MOL0     H17669   7.770   6.674  -0.170  0.1805 -0.0091 -0.1556
  131MOL0     H17670   7.867   6.885  -0.221 -0.4375 -1.1462  0.4604
  131MOL0     H17671   9.190   7.878   0.905  1.4612  0.5636  1.7607
  131MOL0     H17672   9.420   7.782   0.897 -1.0084 -1.7453 -1.0192
  131MOL0     H17673   9.694   7.393   0.763 -0.4381 -1.2055 -1.0109
  131MOL0     H17674   9.916   7.323   0.783  1.1703 -0.0508  0.1344
  131MOL0     H17675  10.166   7.595   0.884  0.0696 -0.8958  1.3277
  131MOL0     H17676  10.283   7.468   0.876  1.2383 -0.1343 -1.0682
  131MOL0     H17677  10.405   7.669   0.799  1.5618  0.4771 -1.8720
  131MOL0     H17678  10.290   7.697   0.680 -1.1430  1.1188  3.3590
  131MOL0     H17679  10.380   7.413   0.650 -3.6596  0.1288  3.1054
  131MOL0     H17680  10.513   7.533   0.632  0.5782 -1.9099 -0.5657
  131MOL0     H17681  10.388   7.664   0.476 -0.5086  0.3754  1.1639
  131MOL0     H17682  10.254   7.551   0.494  0.4856  2.6284  1.0469
  131MOL0     H17683  10.508   7.378   0.209  2.7642  1.0701  1.3980
  131MOL0     H17684  10.060   7.706   0.668 -0.9615  1.9189  1.0811
  131MOL0     H17685   9.824   7.790   0.644 -1.0327 -0.3293 -2.1918
  132MOL0     O17686   5.198   1.985   8.678 -0.5918  0.8402  0.3590
  132MOL0     C17687   5.126   2.014   8.777 -0.3307  0.2162 -0.4475
  132MOL0     O17688   5.079   1.921   8.870  0.5156 -0.4054  0.2792
  132MOL0     C17689   5.084   1.783   8.864 -0.5349 -0.7413  0.1484
  132MOL0     C17690   4.978   1.700   8.902 -0.7502  0.1951  0.0710
  132MOL0     C17691   4.981   1.566   8.881  0.2740  0.1698 -0.1601
  132MOL0     C17692   5.090   1.498   8.827 -0.0959 -0.3108  0.1377
  132MOL0     O17693   5.086   1.362   8.814 -0.7215  0.2290 -0.1134
  132MOL0     C17694   5.206   1.289   8.772  0.1896  0.9727 -0.7353
  132MOL0     C17695   5.183   1.140   8.775 -0.1133  0.2150 -0.7992
  132MOL0     C17696   5.055   1.095   8.702  0.0851  0.5173  0.2762
  132MOL0     C17697   5.039   0.951   8.718  1.7693  0.6090 -0.3073
  132MOL0     C17698   4.921   0.907   8.621  0.0398  0.4542 -0.4120
  132MOL0     C17699   4.786   0.950   8.665  0.3874  0.5127 -0.7377
  132MOL0     C17700   4.661   0.886   8.587 -0.9679 -1.2823 -0.6397
  132MOL0     C17701   4.603   0.765   8.652  0.1278 -0.3600 -0.0238
  132MOL0     N17702   4.501   0.703   8.560 -0.7929 -0.3092 -0.7924
  132MOL0     C17703   4.391   0.764   8.505 -0.1634  0.0953  0.4323
  132MOL0     C17704   4.321   0.663   8.439 -0.0692 -0.2639 -0.4172
  132MOL0     C17705   4.182   0.661   8.379 -0.7195  0.0407 -1.2382
  132MOL0     C17706   4.094   0.743   8.469 -0.4297 -0.5780 -0.0566
  132MOL0     C17707   3.964   0.761   8.394  0.3141  0.0441  0.7964
  132MOL0     C17708   3.875   0.858   8.468 -0.6434 -0.5227  0.6410
  132MOL0     O17709   3.753   0.857   8.390 -0.1471  0.6847 -0.6352
  132MOL0     C17710   3.645   0.936   8.417 -0.6164 -0.4688  0.3762
  132MOL0     C17711   3.569   0.977   8.322  0.0131 -0.6734 -0.2546
  132MOL0     C17712   3.454   1.053   8.350  1.2461 -0.2452  0.5703
  132MOL0     C17713   3.375   1.100   8.239 -0.2851 -0.6193 -0.4953
  132MOL0     C17714   3.414   1.085   8.486 -0.2373 -0.4222  0.1984
  132MOL0     C17715   3.298   1.179   8.524 -0.6239  0.6055 -0.2447
  132MOL0     O17716   3.307   1.234   8.653 -0.4722  0.7105 -0.5371
  132MOL0     C17717   3.195   1.292   8.700  0.1493  0.2435  0.4866
  132MOL0     C17718   3.212   1.430   8.729 -0.2596  0.0632  0.2782
  132MOL0     C17719   3.120   1.502   8.803  0.6865  0.1713 -0.5326
  132MOL0     C17720   2.993   1.452   8.836 -0.4050  0.6689 -0.2633
  132MOL0     O17721   2.902   1.508   8.912 -0.2417  0.4567  0.4900
  132MOL0     C17722   2.836   1.621   8.852  1.0905 -0.1245 -0.4125
  132MOL0     C17723   2.720   1.588   8.759 -0.1439 -1.3031 -0.3757
  132MOL0     C17724   2.581   1.570   8.832 -0.3155 -0.3825  0.5131
  132MOL0     C17725   2.588   1.475   8.951 -0.4341 -0.5057 -0.0716
  132MOL0     C17726   2.456   1.450   9.017 -0.3822 -0.3628 -1.0972
  132MOL0     C17727   2.461   1.505   9.154 -0.3166 -1.5836 -0.3334
  132MOL0     C17728   2.316   1.489   9.208 -0.3575 -0.2898  0.2322
  132MOL0     C17729   2.286   1.579   9.327  0.4215  0.4688  0.3380
  132MOL0    Cl17730   2.276   1.747   9.273 -0.4018  0.3028  0.1792
  132MOL0     C17731   2.967   1.326   8.789 -0.4356 -0.1014 -0.2683
  132MOL0     C17732   3.068   1.238   8.726  0.4892 -0.3612  0.6300
  132MOL0     O17733   3.196   1.184   8.450 -0.2282  0.8716 -1.3780
  132MOL0     C17734   3.506   1.044   8.586  0.1977 -0.3379  0.7090
  132MOL0     C17735   3.616   0.967   8.551  0.3909  0.5132  0.4458
  132MOL0     N17736   4.390   0.546   8.465  0.2619 -0.0917  0.2397
  132MOL0     N17737   4.499   0.571   8.527 -0.5592  0.0801  0.9370
  132MOL0     C17738   5.200   1.589   8.795 -0.2141  1.4263 -0.4099
  132MOL0     C17739   5.196   1.726   8.806  0.6262  0.4040  0.0454
  132MOL0     C17740   5.105   2.157   8.792  0.2758  0.2475 -0.5662
  132MOL0     C17741   5.136   2.241   8.680  0.2136 -0.4668 -0.8635
  132MOL0     C17742   5.117   2.382   8.682  1.0407 -0.7099  0.2803
  132MOL0     C17743   5.068   2.449   8.795  0.8699  1.5057 -0.8437
  132MOL0     O17744   5.045   2.577   8.804 -0.5508 -0.5587  0.3377
  132MOL0     C17745   5.045   2.660   8.686  1.0820 -0.3641  0.2689
  132MOL0     C17746   4.921   2.638   8.599  0.2652 -0.7864  0.7934
  132MOL0     C17747   4.784   2.640   8.668  0.1547 -1.4509  0.1578
  132MOL0     C17748   4.762   2.750   8.775 -0.0771  0.5948 -0.2374
  132MOL0     C17749   4.775   2.883   8.724  0.3270  0.2369  0.7870
  132MOL0     C17750   4.776   2.982   8.658 -0.0564 -0.1225 -0.6669
  132MOL0     C17751   5.031   2.356   8.900 -0.1308 -0.0535  0.7068
  132MOL0     C17752   5.055   2.216   8.906 -1.1095 -0.1677 -0.7917
  132MOL0     H17753   4.887   1.747   8.938 -2.1998 -2.5852  0.3183
  132MOL0     H17754   4.894   1.514   8.920  1.0934 -0.9099  0.2857
  132MOL0     H17755   5.238   1.305   8.668 -0.7377 -4.3284 -2.1374
  132MOL0     H17756   5.291   1.309   8.837  0.7583 -1.5824 -0.5574
  132MOL0     H17757   5.280   1.101   8.742  1.7194  1.8082  2.2091
  132MOL0     H17758   5.178   1.123   8.883  0.2694  0.8062 -0.6836
  132MOL0     H17759   4.962   1.143   8.732 -0.5822 -0.6297  0.1142
  132MOL0     H17760   5.071   1.122   8.597  1.9064  0.3469  0.4821
  132MOL0     H17761   5.134   0.901   8.696  1.9478 -0.1145  1.8615
  132MOL0     H17762   5.014   0.929   8.822 -0.1138  2.6634 -0.2617
  132MOL0     H17763   4.927   0.950   8.521 -1.4453  2.4671  0.2795
  132MOL0     H17764   4.932   0.799   8.616 -0.2952  0.2994  1.5019
  132MOL0     H17765   4.774   0.941   8.774  0.0722 -0.3470 -0.8435
  132MOL0     H17766   4.782   1.057   8.642 -0.0372  0.6414 -0.1079
  132MOL0     H17767   4.586   0.966   8.590 -1.3288 -1.5113 -2.2802
  132MOL0     H17768   4.697   0.862   8.486  0.0369 -0.8519 -0.3933
  132MOL0     H17769   4.553   0.786   8.747 -0.2134  2.7797 -0.8078
  132MOL0     H17770   4.687   0.697   8.671  0.2419 -0.8569 -2.0626
  132MOL0     H17771   4.352   0.865   8.516 -1.5925 -0.2468 -1.1280
  132MOL0     H17772   4.190   0.714   8.284 -1.3468  2.2049 -0.1519
  132MOL0     H17773   4.154   0.557   8.366 -0.6219 -0.3012  0.8865
  132MOL0     H17774   4.144   0.838   8.484 -3.8375  1.8471 -2.3989
  132MOL0     H17775   4.060   0.694   8.561 -0.2003  1.4226  1.1401
  132MOL0     H17776   3.916   0.665   8.373  3.1226 -0.9772 -1.6878
  132MOL0     H17777   3.999   0.802   8.299 -0.2032  1.8362  1.3518
  132MOL0     H17778   3.931   0.952   8.462 -0.8043 -0.3508  1.6695
  132MOL0     H17779   3.857   0.838   8.574  3.6451 -2.9220  1.1696
  132MOL0     H17780   3.596   0.943   8.222  2.9715 -2.2229  0.9211
  132MOL0     H17781   3.373   1.208   8.250 -2.8631 -0.7473  1.0354
  132MOL0     H17782   3.423   1.084   8.142  1.2098  0.7283 -0.0099
  132MOL0     H17783   3.271   1.066   8.237 -0.9968  1.1108 -4.5577
  132MOL0     H17784   3.309   1.473   8.706  1.5027 -2.6753  1.9912
  132MOL0     H17785   3.165   1.599   8.819  1.5623  0.0558 -2.1539
  132MOL0     H17786   2.799   1.687   8.931  0.8178  0.8416 -1.3224
  132MOL0     H17787   2.905   1.679   8.789  0.8175 -0.9908 -1.5389
  132MOL0     H17788   2.719   1.667   8.683  0.7308 -0.7071  0.2100
  132MOL0     H17789   2.757   1.497   8.712 -1.1072 -1.6558 -0.4617
  132MOL0     H17790   2.510   1.538   8.755  0.9451 -0.3985 -0.6906
  132MOL0     H17791   2.533   1.665   8.855 -0.5731 -0.5008  0.4666
  132MOL0     H17792   2.614   1.376   8.913 -3.7580 -1.4113 -0.3325
  132MOL0     H17793   2.667   1.504   9.020 -1.2885  3.6715 -0.6010
  132MOL0     H17794   2.440   1.343   9.033  2.1183 -0.8064 -1.1720
  132MOL0     H17795   2.372   1.490   8.959  0.4217 -0.9188 -2.6984
  132MOL0     H17796   2.535   1.460   9.220  0.6350  2.0365  1.3180
  132MOL0     H17797   2.485   1.612   9.148 -3.4151 -0.7623  0.1663
  132MOL0     H17798   2.301   1.385   9.239 -0.8810 -0.5952 -1.0023
  132MOL0     H17799   2.241   1.520   9.135 -1.8825  0.6224  2.1148
  132MOL0     H17800   2.362   1.568   9.406  0.4384 -0.2389  0.2293
  132MOL0     H17801   2.190   1.541   9.364 -0.7735 -2.5390 -4.8410
  132MOL0     H17802   2.870   1.279   8.797 -1.3170  1.8406  1.2435
  132MOL0     H17803   3.057   1.134   8.694  3.1977 -0.3206 -0.7791
  132MOL0     H17804   3.504   1.066   8.692  1.0356  0.1354  0.6380
  132MOL0     H17805   3.679   0.938   8.635  2.1564 -0.6925 -1.2107
  132MOL0     H17806   5.293   1.540   8.767  1.2342  2.7971  1.6783
  132MOL0     H17807   5.286   1.782   8.781  1.0096 -0.2552 -0.0770
  132MOL0     H17808   5.180   2.196   8.592  0.3944 -0.1833 -0.9222
  132MOL0     H17809   5.133   2.428   8.586 -0.8162 -1.9389 -0.6957
  132MOL0     H17810   5.033   2.765   8.717 -0.2471  0.7106 -3.3831
  132MOL0     H17811   5.136   2.649   8.626 -0.5324  0.2033 -2.4242
  132MOL0     H17812   4.932   2.549   8.536  2.5469 -1.0592  1.4599
  132MOL0     H17813   4.919   2.722   8.530 -1.7099 -0.6706  0.9548
  132MOL0     H17814   4.754   2.542   8.707  0.0114 -1.2196  0.6420
  132MOL0     H17815   4.705   2.662   8.595  1.0854 -1.3405 -0.8276
  132MOL0     H17816   4.835   2.739   8.855 -0.9662  0.8406  0.6358
  132MOL0     H17817   4.664   2.726   8.817  0.6383 -2.4968 -0.0693
  132MOL0     H17818   4.769   3.071   8.599 -4.4949 -0.4973 -1.0478
  132MOL0     H17819   4.996   2.401   8.992  1.8511  0.5511  1.2248
  132MOL0     H17820   5.045   2.166   9.002  2.8867  1.6444  0.7756
  133MOL0     O17821   5.688   8.822   9.479  0.3770  0.2244 -0.0124
  133MOL0     C17822   5.670   8.856   9.590  0.8082 -0.5297 -0.1968
  133MOL0     O17823   5.552   8.887   9.651 -0.2616 -0.3652  0.3283
  133MOL0     C17824   5.444   8.896   9.572  0.1568 -0.2592  0.0958
  133MOL0     C17825   5.374   8.784   9.524 -0.0512  0.3720  1.0129
  133MOL0     C17826   5.248   8.801   9.453  0.4872  0.1109 -0.8223
  133MOL0     C17827   5.187   8.922   9.429 -0.2558 -0.5422 -0.2435
  133MOL0     O17828   5.058   8.920   9.386  0.0304 -0.3845 -0.1820
  133MOL0     C17829   4.970   9.001   9.458  0.4890  0.6133  0.2729
  133MOL0     C17830   4.822   8.955   9.442  0.4919 -0.3822  1.0474
  133MOL0     C17831   4.731   9.045   9.519  0.2110  0.5042  0.4020
  133MOL0     C17832   4.583   9.005   9.488 -0.0593  0.4517  0.0999
  133MOL0     C17833   4.503   9.086   9.590 -0.0245 -0.6701  0.4210
  133MOL0     C17834   4.349   9.087   9.573  0.0368 -0.9792  0.2212
  133MOL0     C17835   4.283   9.130   9.708  0.5390 -0.0456 -0.0019
  133MOL0     C17836   4.133   9.142   9.690 -0.2562  0.5869  0.2238
  133MOL0     N17837   4.080   9.184   9.815 -0.7856 -0.3786  0.6225
  133MOL0     C17838   4.059   9.095   9.912  0.3956  0.0876  0.2161
  133MOL0     C17839   4.001   9.168  10.008  0.1560  0.0698  0.5559
  133MOL0     C17840   3.970   9.113  10.144  0.0374  0.7335 -0.0392
  133MOL0     C17841   3.826   9.038  10.130  0.1290  0.1615  0.3005
  133MOL0     C17842   3.699   9.113  10.113 -0.2455  0.0869 -1.1154
  133MOL0     C17843   3.599   9.010  10.055  0.9901 -0.2599  0.3587
  133MOL0     O17844   3.469   9.069  10.046 -0.2999 -0.3261 -0.1802
  133MOL0     C17845   3.363   9.011   9.986  1.0010 -0.7501 -0.6571
  133MOL0     C17846   3.361   8.887   9.916  1.3370  0.1294 -0.4224
  133MOL0     C17847   3.250   8.818   9.884  0.2059  0.9336  1.1235
  133MOL0     C17848   3.293   8.690   9.810 -0.2621 -0.1376  0.4101
  133MOL0     C17849   3.126   8.877   9.903 -0.3535 -0.7821  0.4776
  133MOL0     C17850   3.009   8.808   9.862  0.1899 -0.9119  1.0048
  133MOL0     O17851   2.911   8.890   9.818 -0.6407 -0.1952  0.1248
  133MOL0     C17852   2.789   8.839   9.846  0.6164 -0.2703  0.6237
  133MOL0     C17853   2.715   8.776   9.742 -0.0085 -0.5330  0.2208
  133MOL0     C17854   2.591   8.714   9.768  1.1169  0.3127 -0.7428
  133MOL0     C17855   2.521   8.727   9.891  0.2426  0.2857 -0.5379
  133MOL0     O17856   2.406   8.659   9.917  0.4542 -0.1045 -0.4551
  133MOL0     C17857   2.340   8.688  10.041  0.1817  0.4487  0.2365
  133MOL0     C17858   2.196   8.633  10.001  0.1938  0.6671  0.2094
  133MOL0     C17859   2.092   8.686  10.109  0.1186 -0.2106 -0.3025
  133MOL0     C17860   1.950   8.634  10.057  0.2775  0.4825 -1.0001
  133MOL0     C17861   1.831   8.708  10.112 -0.0397 -0.3040 -0.5150
  133MOL0     C17862   1.804   8.647  10.252  0.0905 -0.4522 -0.2110
  133MOL0     C17863   1.690   8.720  10.323  0.7915 -0.2240 -1.9026
  133MOL0     C17864   1.672   8.662  10.468 -0.8741 -0.1587 -0.6220
  133MOL0    Cl17865   1.821   8.636  10.562  0.4647 -0.2672 -0.1091
  133MOL0     C17866   2.592   8.801   9.986 -0.0971  0.2225 -1.2236
  133MOL0     C17867   2.727   8.853   9.970  0.5575  0.0748 -0.7546
  133MOL0     O17868   3.000   8.690   9.878 -0.6927 -0.1593 -0.1186
  133MOL0     C17869   3.119   9.000   9.971 -0.0609 -0.2797 -0.5916
  133MOL0     C17870   3.240   9.069  10.007  1.0991 -0.4062 -0.1594
  133MOL0     N17871   3.983   9.302   9.964 -0.2866  0.6959  0.6747
  133MOL0     N17872   4.038   9.313   9.845  0.5325  0.9747 -0.9876
  133MOL0     C17873   5.263   9.039   9.475  0.0104 -0.1427 -1.2341
  133MOL0     C17874   5.389   9.024   9.540  0.6967  0.7044 -0.4866
  133MOL0     C17875   5.793   8.871   9.684 -0.6007  0.2085  0.1562
  133MOL0     C17876   5.916   8.895   9.622 -0.0728 -0.4072  0.2200
  133MOL0     C17877   6.014   8.930   9.713 -0.4097 -0.2425  0.2468
  133MOL0     C17878   6.001   8.950   9.850  0.7591  0.1326 -1.0067
  133MOL0     O17879   6.107   9.004   9.915 -0.2223  0.1006  0.5943
  133MOL0     C17880   6.123   8.988  10.053 -0.2664  0.4856 -0.3299
  133MOL0     C17881   6.253   9.053  10.089 -0.4550 -0.3653  0.1201
  133MOL0     C17882   6.338   8.981  10.201  0.3456 -0.5130  0.0947
  133MOL0     C17883   6.452   9.063  10.252 -0.5250  0.1144  0.2121
  133MOL0     C17884   6.539   9.112  10.142 -0.1479  0.1453 -0.2052
  133MOL0     C17885   6.600   9.151  10.048 -0.3423  0.4214  0.9103
  133MOL0     C17886   5.874   8.914   9.902 -0.6260 -0.4027 -0.3971
  133MOL0     C17887   5.775   8.878   9.826  0.6693 -0.2837  0.2130
  133MOL0     H17888   5.422   8.688   9.544 -2.1084 -0.7337  0.9150
  133MOL0     H17889   5.185   8.719   9.422  0.2132  0.3963 -1.0290
  133MOL0     H17890   4.987   8.994   9.566 -2.7185  0.0274  0.8502
  133MOL0     H17891   4.964   9.107   9.430  1.4199  0.0432 -2.3038
  133MOL0     H17892   4.788   8.943   9.339  0.4120 -1.9026  1.2251
  133MOL0     H17893   4.809   8.853   9.480 -0.7718 -2.1378 -3.4179
  133MOL0     H17894   4.757   9.042   9.625  2.9938 -0.0229 -0.2236
  133MOL0     H17895   4.738   9.150   9.487 -1.4294  0.0378 -1.7458
  133MOL0     H17896   4.549   9.020   9.386  2.9668 -0.9840 -1.2423
  133MOL0     H17897   4.580   8.897   9.508  5.0165 -0.1718 -1.1936
  133MOL0     H17898   4.524   9.041   9.687 -1.4319 -3.6752 -0.5492
  133MOL0     H17899   4.538   9.190   9.580  0.4792 -0.7226  1.5263
  133MOL0     H17900   4.328   9.146   9.483  2.8379 -2.7180 -1.7629
  133MOL0     H17901   4.320   8.983   9.552  1.9703 -1.5295  0.0605
  133MOL0     H17902   4.308   9.044   9.771 -1.1114  0.8730  2.0030
  133MOL0     H17903   4.328   9.225   9.739 -2.6459  1.5181  0.1847
  133MOL0     H17904   4.095   9.042   9.671 -2.7139  1.3363  0.7894
  133MOL0     H17905   4.117   9.219   9.614  1.8227  0.0522 -0.8060
  133MOL0     H17906   4.088   8.991   9.924  0.9584  0.1612 -0.4037
  133MOL0     H17907   4.044   9.037  10.174 -0.6117 -0.1093 -0.5374
  133MOL0     H17908   3.957   9.188  10.222 -3.2591  0.7769 -0.4882
  133MOL0     H17909   3.815   8.972  10.217 -2.9294 -0.9425 -0.7896
  133MOL0     H17910   3.828   8.964  10.050  0.2157  0.1432  0.3197
  133MOL0     H17911   3.714   9.198  10.046  1.8609 -0.0366 -0.8678
  133MOL0     H17912   3.665   9.155  10.208 -1.2594  2.3614 -2.3947
  133MOL0     H17913   3.600   8.918  10.114 -1.2900 -0.3449  0.3209
  133MOL0     H17914   3.617   8.990   9.949 -3.5656  2.2464 -1.1572
  133MOL0     H17915   3.459   8.841   9.907  0.9835 -0.2936 -2.4426
  133MOL0     H17916   3.385   8.693   9.750  0.6012  0.9601  1.7324
  133MOL0     H17917   3.298   8.601   9.873 -0.4324 -0.5310 -0.1232
  133MOL0     H17918   3.221   8.666   9.731  0.2875  1.5602 -0.6725
  133MOL0     H17919   2.765   8.783   9.646 -1.0340  0.0867 -0.2841
  133MOL0     H17920   2.545   8.655   9.689 -0.1703  3.0070 -2.1589
  133MOL0     H17921   2.384   8.631  10.124 -1.1651 -0.7615  0.1538
  133MOL0     H17922   2.326   8.794  10.065 -0.4243 -0.2938  3.7408
  133MOL0     H17923   2.157   8.653   9.900 -1.0943  1.1387  0.7792
  133MOL0     H17924   2.204   8.524   9.998  1.9206  0.7637 -2.4468
  133MOL0     H17925   2.090   8.795  10.118  0.3987 -0.2493  0.2765
  133MOL0     H17926   2.108   8.635  10.205 -1.3499  1.6261  0.9989
  133MOL0     H17927   1.952   8.650   9.949 -0.1070  0.6943 -0.9767
  133MOL0     H17928   1.925   8.527  10.059 -1.7952  0.8637 -2.6381
  133MOL0     H17929   1.743   8.696  10.049  0.2051  0.8624 -1.1075
  133MOL0     H17930   1.850   8.816  10.112 -2.1674  0.1769 -3.1392
  133MOL0     H17931   1.775   8.541  10.244 -0.4638 -0.3867  0.7775
  133MOL0     H17932   1.895   8.658  10.312  0.2514 -1.5792 -0.2087
  133MOL0     H17933   1.601   8.713  10.260  0.5069 -0.4277 -1.4840
  133MOL0     H17934   1.708   8.827  10.339 -1.3965  0.0863 -1.1132
  133MOL0     H17935   1.623   8.564  10.458 -2.1266 -0.1681  3.6082
  133MOL0     H17936   1.600   8.718  10.529 -2.1361  0.1832 -2.3362
  133MOL0     H17937   2.551   8.811  10.086 -1.3872 -0.6140 -1.6433
  133MOL0     H17938   2.772   8.904  10.055  1.4939 -0.8794 -0.6603
  133MOL0     H17939   3.025   9.049   9.993 -1.5955 -2.2560 -2.3472
  133MOL0     H17940   3.249   9.166  10.055  2.0034 -0.6490  0.1788
  133MOL0     H17941   5.230   9.142   9.465  1.6997  0.4805 -0.6470
  133MOL0     H17942   5.428   9.117   9.580 -2.4634  0.6128  3.5522
  133MOL0     H17943   5.932   8.910   9.516 -0.8711  1.2475  0.2914
  133MOL0     H17944   6.105   8.959   9.662 -0.2955 -0.6836  0.1940
  133MOL0     H17945   6.045   9.043  10.107  1.9868  2.9510  0.6263
  133MOL0     H17946   6.126   8.881  10.077 -1.8749  0.2774 -0.9263
  133MOL0     H17947   6.242   9.158  10.118  1.5921 -0.3907  1.1839
  133MOL0     H17948   6.312   9.044   9.997 -1.5331  0.6213 -0.6952
  133MOL0     H17949   6.377   8.891  10.153  2.3518 -0.7575  2.0297
  133MOL0     H17950   6.261   8.960  10.276  0.8471  3.8224  2.1299
  133MOL0     H17951   6.507   9.003  10.326  1.9586 -0.0046 -1.6108
  133MOL0     H17952   6.409   9.148  10.306 -1.4430  0.1486 -0.5461
  133MOL0     H17953   6.651   9.191   9.962 -4.0074  2.3207 -0.5946
  133MOL0     H17954   5.868   8.931  10.009  4.3820  0.2684  0.0222
  133MOL0     H17955   5.676   8.862   9.867  0.6714  1.8610  1.2419
  134MOL0     O17956   1.974   8.639   1.705 -1.2079  0.4610 -0.7508
  134MOL0     C17957   2.035   8.613   1.602 -0.1192  0.5754  0.4373
  134MOL0     O17958   1.973   8.621   1.480 -0.0463 -0.3612 -0.2151
  134MOL0     C17959   1.853   8.685   1.469  0.8073 -0.1208  0.0458
  134MOL0     C17960   1.829   8.811   1.524 -0.7168 -0.7197 -0.1095
  134MOL0     C17961   1.711   8.880   1.498 -0.2418  1.3127 -0.9578
  134MOL0     C17962   1.611   8.825   1.419  0.4071 -0.2624 -0.4617
  134MOL0     O17963   1.485   8.867   1.385  0.3313  0.3176 -0.4698
  134MOL0     C17964   1.438   8.992   1.436 -0.0176 -0.1997 -0.1088
  134MOL0     C17965   1.356   9.065   1.327 -0.2970  0.3385  0.0024
  134MOL0     C17966   1.443   9.103   1.202  0.7712 -0.4268 -0.4653
  134MOL0     C17967   1.369   9.216   1.128 -0.3460 -0.1549  0.4064
  134MOL0     C17968   1.401   9.230   0.977  0.2512 -0.0101 -0.2926
  134MOL0     C17969   1.341   9.363   0.916  0.1209  0.0478  0.6574
  134MOL0     C17970   1.360   9.371   0.768 -0.7427  0.2267  0.3725
  134MOL0     C17971   1.396   9.516   0.719 -0.2858 -0.4017  0.5463
  134MOL0     N17972   1.459   9.512   0.581 -0.2508  0.1429  0.1249
  134MOL0     C17973   1.591   9.480   0.555  0.9681  0.5870  0.4992
  134MOL0     C17974   1.606   9.454   0.422  0.0150  0.4075  0.1595
  134MOL0     C17975   1.720   9.401   0.340 -0.0722  0.4418 -0.1501
  134MOL0     C17976   1.835   9.373   0.431  0.2834  0.5976 -0.0416
  134MOL0     C17977   1.937   9.282   0.352  0.2619  0.1703  0.4800
  134MOL0     C17978   2.081   9.308   0.394  0.4121 -0.5937 -0.0771
  134MOL0     O17979   2.134   9.434   0.351  0.0409  0.4688 -0.0183
  134MOL0     C17980   2.264   9.456   0.314  0.3442  0.3203 -0.0338
  134MOL0     C17981   2.283   9.544   0.220 -0.1827 -0.1745 -0.1537
  134MOL0     C17982   2.408   9.568   0.164  0.0072  0.2410  1.0074
  134MOL0     C17983   2.409   9.652   0.038  0.8776  0.1530  1.5671
  134MOL0     C17984   2.526   9.508   0.224  0.0357  1.1493 -0.1615
  134MOL0     C17985   2.664   9.525   0.170  0.5358 -0.0167  0.1263
  134MOL0     O17986   2.692   9.652   0.112 -0.1339  0.8273 -0.3433
  134MOL0     C17987   2.825   9.677   0.096  0.0473 -0.8994 -0.0505
  134MOL0     C17988   2.901   9.727   0.198  0.4630  0.0504 -0.0326
  134MOL0     C17989   3.035   9.758   0.175 -0.6391 -0.8040  0.1173
  134MOL0     C17990   3.090   9.743   0.050  0.4446 -0.5030 -1.0241
  134MOL0     O17991   3.231   9.771   0.041  0.1483 -0.2081  0.7041
  134MOL0     C17992   3.296   9.793  -0.087 -0.6999 -0.8245  0.6335
  134MOL0     C17993   3.442   9.852  -0.057  0.6912  0.5685 -0.5432
  134MOL0     C17994   3.528   9.880  -0.176  0.2046  0.1630 -1.1813
  134MOL0     C17995   3.675   9.891  -0.134  0.5998 -0.1722  0.8857
  134MOL0     C17996   3.745   9.923  -0.267  1.1297 -0.2972 -1.0568
  134MOL0     C17997   3.899   9.913  -0.256  0.2077 -0.0220  0.3936
  134MOL0     C17998   3.953   9.952  -0.398  0.1990 -0.2593  0.6687
  134MOL0     C17999   4.080   9.877  -0.432 -0.5234  0.4685 -0.1826
  134MOL0    Cl18000   4.153   9.946  -0.576  0.4808 -0.0644  0.0348
  134MOL0     C18001   3.019   9.690  -0.059 -0.4431 -0.4444 -0.6571
  134MOL0     C18002   2.882   9.655  -0.024 -0.6582  0.7718  0.1931
  134MOL0     O18003   2.732   9.430   0.156 -1.0816 -0.3216  0.2883
  134MOL0     C18004   2.496   9.405   0.313 -0.8403 -0.7737  0.4356
  134MOL0     C18005   2.363   9.377   0.350 -0.6716  0.0719  0.5353
  134MOL0     N18006   1.484   9.471   0.361 -0.0307  0.3538  0.5094
  134MOL0     N18007   1.402   9.504   0.455  0.7833  0.6864 -0.2577
  134MOL0     C18008   1.634   8.697   1.368  0.7041  0.5947 -0.1541
  134MOL0     C18009   1.754   8.630   1.392  0.0550  0.2229 -0.2196
  134MOL0     C18010   2.161   8.546   1.615 -0.3442 -0.5696 -0.0329
  134MOL0     C18011   2.178   8.437   1.533 -0.1770  0.2562 -0.0840
  134MOL0     C18012   2.296   8.354   1.530  1.1336  0.0947  0.1594
  134MOL0     C18013   2.388   8.380   1.626  0.1465  0.4797  0.0069
  134MOL0     O18014   2.481   8.276   1.637 -0.2248 -0.2354  0.0026
  134MOL0     C18015   2.591   8.297   1.724  0.6914 -0.5196  0.4024
  134MOL0     C18016   2.672   8.163   1.728  0.5385  0.3564 -0.3204
  134MOL0     C18017   2.784   8.156   1.821 -0.6967 -0.2622 -0.5374
  134MOL0     C18018   2.756   8.221   1.958  0.3622 -0.9277  0.4803
  134MOL0     C18019   2.648   8.173   2.041  0.4721 -0.4464  0.2019
  134MOL0     C18020   2.548   8.151   2.102 -0.2441  0.3623 -0.2416
  134MOL0     C18021   2.379   8.488   1.710 -0.1416  0.6078 -0.5942
  134MOL0     C18022   2.264   8.579   1.706 -0.1778  0.0654 -0.1216
  134MOL0     H18023   1.908   8.853   1.585  0.9902 -1.5491 -1.6432
  134MOL0     H18024   1.692   8.977   1.542 -1.2659  1.1907 -1.0846
  134MOL0     H18025   1.380   8.981   1.528  0.2151  4.1418  0.7461
  134MOL0     H18026   1.515   9.065   1.461 -0.0853 -0.1059 -0.1740
  134MOL0     H18027   1.269   9.009   1.292  0.2673  0.2576 -1.3593
  134MOL0     H18028   1.327   9.155   1.382  2.6536 -0.2225  2.7798
  134MOL0     H18029   1.545   9.126   1.236  1.9674 -4.5774 -0.6208
  134MOL0     H18030   1.443   9.014   1.138 -2.1580 -1.3239  0.6255
  134MOL0     H18031   1.264   9.189   1.143 -0.1122 -1.7657 -0.6142
  134MOL0     H18032   1.406   9.304   1.182 -0.8078 -0.5913  1.4577
  134MOL0     H18033   1.510   9.230   0.964  0.4296  3.0242  0.4796
  134MOL0     H18034   1.348   9.150   0.925  2.3591 -0.4242 -1.9559
  134MOL0     H18035   1.234   9.373   0.934 -0.0139  2.2987 -1.0668
  134MOL0     H18036   1.387   9.453   0.959 -0.0315  0.9209 -0.9678
  134MOL0     H18037   1.443   9.300   0.756 -0.4711  0.0628  2.7632
  134MOL0     H18038   1.274   9.331   0.713  1.6690 -1.4574 -2.4786
  134MOL0     H18039   1.464   9.566   0.789  0.0637  1.3235 -0.9589
  134MOL0     H18040   1.302   9.572   0.718 -1.4362 -2.2303  1.2725
  134MOL0     H18041   1.669   9.467   0.629  0.4622 -1.3881  0.7228
  134MOL0     H18042   1.692   9.314   0.280  1.1522 -0.0191 -0.0717
  134MOL0     H18043   1.746   9.476   0.265  3.2348 -0.4294 -0.0178
  134MOL0     H18044   1.819   9.320   0.525  2.5801 -2.2531 -1.1003
  134MOL0     H18045   1.873   9.471   0.459  0.3944  0.7171 -0.5924
  134MOL0     H18046   1.933   9.296   0.243 -1.9778  0.7783  0.5970
  134MOL0     H18047   1.917   9.178   0.379  0.3939  0.5912  2.3490
  134MOL0     H18048   2.140   9.230   0.345  0.6155  0.1707 -1.0904
  134MOL0     H18049   2.085   9.304   0.503  1.6285  0.0093 -0.0851
  134MOL0     H18050   2.196   9.601   0.187 -0.9013 -0.1966  1.5941
  134MOL0     H18051   2.308   9.666  -0.003  1.7108  0.9267 -0.3305
  134MOL0     H18052   2.445   9.753   0.061  0.4119  0.4655  0.9520
  134MOL0     H18053   2.477   9.615  -0.040 -0.6669 -2.6819  1.4413
  134MOL0     H18054   2.855   9.744   0.295 -3.1234  0.9422 -1.7463
  134MOL0     H18055   3.100   9.810   0.245 -1.5259 -0.9025  1.0494
  134MOL0     H18056   3.311   9.699  -0.141  1.8862  0.2736 -0.7185
  134MOL0     H18057   3.252   9.874  -0.146  0.8113 -1.2392 -1.1823
  134MOL0     H18058   3.450   9.939   0.008 -0.6867  0.0738  0.3325
  134MOL0     H18059   3.496   9.771  -0.008  1.8499  1.2093 -0.7234
  134MOL0     H18060   3.494   9.974  -0.221 -0.1061 -0.9228 -3.3477
  134MOL0     H18061   3.509   9.797  -0.244 -1.4554  0.6093 -1.3055
  134MOL0     H18062   3.696   9.969  -0.060  1.2196 -0.3644  0.9247
  134MOL0     H18063   3.707   9.795  -0.094 -0.2271 -1.6974 -1.8863
  134MOL0     H18064   3.726  10.023  -0.309  1.5398  0.7993  1.2292
  134MOL0     H18065   3.718   9.847  -0.341 -1.3807 -0.2581 -0.2814
  134MOL0     H18066   3.930   9.981  -0.177  0.5718 -0.0378  0.2632
  134MOL0     H18067   3.929   9.815  -0.219  1.2228  0.4189  0.7582
  134MOL0     H18068   3.975  10.059  -0.410 -1.8721 -0.0898 -2.7338
  134MOL0     H18069   3.891   9.924  -0.484  0.6504  0.2785  0.1600
  134MOL0     H18070   4.069   9.772  -0.460  2.0635  0.4472 -1.4652
  134MOL0     H18071   4.151   9.889  -0.349  1.5234 -0.2414 -1.7295
  134MOL0     H18072   3.075   9.670  -0.150  0.7116 -1.4040  0.2195
  134MOL0     H18073   2.822   9.599  -0.094 -0.1391  4.4162 -3.6368
  134MOL0     H18074   2.579   9.339   0.336 -0.3060 -0.1675  0.2579
  134MOL0     H18075   2.335   9.303   0.423 -0.0209  0.6617  1.3973
  134MOL0     H18076   1.555   8.663   1.303  1.0893  1.3894 -1.0585
  134MOL0     H18077   1.778   8.538   1.341  3.7436  1.7140 -1.5066
  134MOL0     H18078   2.094   8.407   1.472 -2.1413  2.9355  1.1236
  134MOL0     H18079   2.303   8.256   1.483 -0.0069 -0.7853  1.6948
  134MOL0     H18080   2.657   8.384   1.721  1.9027 -1.0669  4.5809
  134MOL0     H18081   2.542   8.300   1.821 -1.5108  1.8892 -0.6852
  134MOL0     H18082   2.705   8.130   1.629 -0.7734  0.0483 -0.6703
  134MOL0     H18083   2.603   8.086   1.762  0.7275  1.1634  2.0680
  134MOL0     H18084   2.871   8.206   1.778  0.2643 -0.8190  0.6894
  134MOL0     H18085   2.819   8.054   1.841 -0.0681  0.2200  0.9996
  134MOL0     H18086   2.759   8.330   1.946 -0.4531 -0.9890 -0.4389
  134MOL0     H18087   2.844   8.202   2.020 -1.0335  2.3361  3.8553
  134MOL0     H18088   2.457   8.125   2.153 -0.1894 -1.6181 -1.0387
  134MOL0     H18089   2.453   8.511   1.787  0.2350  2.1930 -1.3935
  134MOL0     H18090   2.247   8.662   1.773 -3.6453  0.0696 -0.7982
  135MOL0     O18091   5.756   5.687   0.377 -0.0062 -0.4176 -1.1211
  135MOL0     C18092   5.769   5.802   0.342  0.1367  0.4845  0.4094
  135MOL0     O18093   5.876   5.890   0.376  0.2609  0.5043 -0.9121
  135MOL0     C18094   5.984   5.832   0.449 -0.4402  0.8224 -0.5531
  135MOL0     C18095   5.964   5.775   0.579  0.8307 -0.0115 -0.3581
  135MOL0     C18096   6.068   5.718   0.653 -0.1191 -0.4457 -0.2786
  135MOL0     C18097   6.189   5.698   0.585 -0.1870 -0.1330  0.2175
  135MOL0     O18098   6.290   5.628   0.654 -0.3384 -0.0900 -0.0401
  135MOL0     C18099   6.398   5.571   0.582 -0.6916 -0.3296  0.7171
  135MOL0     C18100   6.479   5.496   0.691  0.3580  0.3570  0.1156
  135MOL0     C18101   6.413   5.374   0.763  0.1642 -0.0731  0.1795
  135MOL0     C18102   6.465   5.379   0.909  0.1440  0.4477 -0.0068
  135MOL0     C18103   6.412   5.250   0.991 -1.6951 -0.8098 -0.0599
  135MOL0     C18104   6.466   5.287   1.130  0.7211  0.0158  0.5183
  135MOL0     C18105   6.394   5.214   1.233 -0.6900  0.2891  0.1570
  135MOL0     C18106   6.452   5.078   1.251 -0.0955  0.6152  0.1491
  135MOL0     N18107   6.596   5.067   1.301  1.3696  0.0928 -0.2132
  135MOL0     C18108   6.663   4.951   1.302  0.3297  0.8043  0.4363
  135MOL0     C18109   6.789   4.986   1.347 -0.1726 -0.2466  0.2455
  135MOL0     C18110   6.901   4.894   1.340 -0.6877 -0.1833  0.6060
  135MOL0     C18111   7.026   4.979   1.351 -0.0475  0.2215  0.4127
  135MOL0     C18112   7.079   5.037   1.484  0.1412 -0.2953  0.4413
  135MOL0     C18113   7.173   5.154   1.448 -0.1833  0.5152  0.2241
  135MOL0     O18114   7.240   5.182   1.569  0.3130  0.0069 -0.2118
  135MOL0     C18115   7.313   5.296   1.572  0.3353  0.3704  0.1516
  135MOL0     C18116   7.244   5.419   1.557  0.9023  0.3484  0.5772
  135MOL0     C18117   7.312   5.537   1.553  0.1260 -0.3658 -0.3189
  135MOL0     C18118   7.228   5.656   1.524 -0.0291  0.3392 -0.4301
  135MOL0     C18119   7.453   5.542   1.561  0.1242 -1.2452  0.3488
  135MOL0     C18120   7.533   5.663   1.535 -0.3079 -0.5882 -0.0315
  135MOL0     O18121   7.463   5.782   1.545  0.1730  0.1095  0.0453
  135MOL0     C18122   7.541   5.896   1.512  0.1731  0.1328  0.1066
  135MOL0     C18123   7.477   5.987   1.428  1.3495  1.5103 -0.4618
  135MOL0     C18124   7.539   6.112   1.399  0.3307  0.1145 -0.1000
  135MOL0     C18125   7.653   6.155   1.458  0.2735  0.5248 -0.1035
  135MOL0     O18126   7.697   6.276   1.441  0.2983  0.5930  0.1485
  135MOL0     C18127   7.647   6.363   1.336 -0.3401 -0.1085 -0.2815
  135MOL0     C18128   7.692   6.344   1.192  0.3340  0.0921 -0.3202
  135MOL0     C18129   7.844   6.376   1.200 -0.0339  0.1989 -0.5005
  135MOL0     C18130   7.916   6.355   1.060  0.0701 -0.7144 -1.2506
  135MOL0     C18131   8.051   6.418   1.031  0.1339 -0.1311 -0.0767
  135MOL0     C18132   8.148   6.367   1.136 -0.1348  0.0699 -0.7836
  135MOL0     C18133   8.274   6.452   1.133 -0.2259 -0.3106 -0.0855
  135MOL0     C18134   8.354   6.439   1.000 -0.7757  0.0972  0.3450
  135MOL0    Cl18135   8.522   6.390   1.045 -0.4342  0.2004 -0.0219
  135MOL0     C18136   7.718   6.060   1.543  0.2027 -0.0983  0.3790
  135MOL0     C18137   7.665   5.930   1.563 -0.6749  0.1618 -0.5605
  135MOL0     O18138   7.654   5.647   1.517 -0.3512  0.7380 -0.1218
  135MOL0     C18139   7.521   5.424   1.579  0.5687 -0.8127 -0.3462
  135MOL0     C18140   7.452   5.302   1.589  0.2750  0.6500  0.9495
  135MOL0     N18141   6.783   5.116   1.382 -0.3457 -0.1998  0.7099
  135MOL0     N18142   6.665   5.171   1.353 -0.3128 -0.5739 -1.0134
  135MOL0     C18143   6.207   5.749   0.454  0.2217  0.8807  0.8922
  135MOL0     C18144   6.108   5.818   0.386  0.0743  0.3995 -0.1672
  135MOL0     C18145   5.661   5.848   0.257  0.8232 -0.7221 -0.9988
  135MOL0     C18146   5.689   5.947   0.165  0.3142 -0.3591 -0.0914
  135MOL0     C18147   5.585   5.994   0.083  0.2096 -0.3786  0.9639
  135MOL0     C18148   5.457   5.934   0.079  0.7593 -0.2460 -0.1202
  135MOL0     O18149   5.358   5.999   0.001  0.3075  0.5176 -0.4436
  135MOL0     C18150   5.224   5.969   0.015  0.0683 -0.0950 -0.2325
  135MOL0     C18151   5.144   6.016   0.139 -0.0366  0.4846 -0.2124
  135MOL0     C18152   5.000   5.964   0.127  0.0753  0.4598 -0.1803
  135MOL0     C18153   4.931   6.009   0.265 -0.1381  0.2288  0.0532
  135MOL0     C18154   4.793   5.951   0.268  0.7259  0.4131  0.3351
  135MOL0     C18155   4.682   5.904   0.286 -0.4066  0.3515  0.1696
  135MOL0     C18156   5.426   5.830   0.168 -0.4036  0.5175  0.4857
  135MOL0     C18157   5.526   5.794   0.263 -0.0178 -0.5038 -0.8837
  135MOL0     H18158   5.866   5.786   0.622  1.8968  1.7885  1.8157
  135MOL0     H18159   6.051   5.668   0.748  1.7022  1.7586  1.3229
  135MOL0     H18160   6.389   5.495   0.503 -0.7444  0.3990  0.0103
  135MOL0     H18161   6.453   5.655   0.540 -2.4340  1.2978  1.5355
  135MOL0     H18162   6.572   5.467   0.641  0.1360  0.0066 -0.1028
  135MOL0     H18163   6.505   5.582   0.753  0.9016  2.2372 -2.5190
  135MOL0     H18164   6.304   5.380   0.769  0.0866 -1.8457  0.8958
  135MOL0     H18165   6.433   5.276   0.720  1.1349 -0.2536  0.9979
  135MOL0     H18166   6.574   5.366   0.913  0.0704 -0.2822 -0.1526
  135MOL0     H18167   6.429   5.475   0.947 -3.1847 -0.7444  0.1663
  135MOL0     H18168   6.303   5.252   0.988 -1.7047 -1.1179  0.1930
  135MOL0     H18169   6.456   5.159   0.950  2.2076  1.0701 -0.5323
  135MOL0     H18170   6.573   5.273   1.149  0.3402 -1.4761  1.8132
  135MOL0     H18171   6.454   5.395   1.143  0.4958 -0.3258  3.8752
  135MOL0     H18172   6.394   5.271   1.326  0.5826 -1.7701  1.5156
  135MOL0     H18173   6.292   5.195   1.200 -0.7529  0.4393  0.2679
  135MOL0     H18174   6.446   5.041   1.148 -0.8864  1.5261 -0.1450
  135MOL0     H18175   6.380   5.018   1.308  1.2437 -3.0983 -1.7254
  135MOL0     H18176   6.635   4.852   1.266  0.6056  1.1652 -0.8196
  135MOL0     H18177   6.901   4.817   1.418  0.1199 -1.0133 -0.1779
  135MOL0     H18178   6.903   4.828   1.252  1.8165 -0.5777  0.8775
  135MOL0     H18179   7.019   5.050   1.269 -0.1885 -1.9591 -1.5770
  135MOL0     H18180   7.105   4.914   1.311 -1.8579 -2.3657  0.7790
  135MOL0     H18181   7.114   4.964   1.558 -1.2389 -0.7372  0.6954
  135MOL0     H18182   6.995   5.081   1.539  0.2922 -1.1984  1.4236
  135MOL0     H18183   7.120   5.242   1.411  2.1480  2.1471  0.5409
  135MOL0     H18184   7.238   5.131   1.363 -0.2421 -0.4493  0.4184
  135MOL0     H18185   7.136   5.419   1.550  1.0116 -0.3400 -2.7288
  135MOL0     H18186   7.276   5.705   1.438  1.3417 -0.0499  0.0890
  135MOL0     H18187   7.125   5.629   1.498 -1.8548  3.6330  2.4141
  135MOL0     H18188   7.234   5.730   1.604 -0.0387  1.9016 -1.8150
  135MOL0     H18189   7.386   5.954   1.379  0.9429  1.6631  0.1745
  135MOL0     H18190   7.482   6.172   1.329  1.1885  2.0422  0.7851
  135MOL0     H18191   7.539   6.381   1.342 -0.1434  1.1756 -0.3881
  135MOL0     H18192   7.687   6.461   1.361  1.9400 -0.0063 -3.6483
  135MOL0     H18193   7.661   6.242   1.167 -4.8466  0.4789  2.9300
  135MOL0     H18194   7.639   6.416   1.130 -4.3224 -1.7327  1.1158
  135MOL0     H18195   7.894   6.302   1.262  2.4311 -1.6735 -4.3329
  135MOL0     H18196   7.873   6.470   1.246  1.3068  0.2460 -1.3967
  135MOL0     H18197   7.926   6.246   1.064  3.3638 -0.5506 -1.8712
  135MOL0     H18198   7.848   6.393   0.984 -0.4342  2.4780  0.6181
  135MOL0     H18199   8.043   6.527   1.035  0.6006 -0.0470 -1.1266
  135MOL0     H18200   8.091   6.387   0.934  1.3775  1.3504 -0.0827
  135MOL0     H18201   8.104   6.376   1.236  2.5862 -0.5743  0.5804
  135MOL0     H18202   8.180   6.262   1.131  0.1569  0.2301 -2.8578
  135MOL0     H18203   8.335   6.394   1.203 -2.2484 -2.4212  0.0414
  135MOL0     H18204   8.259   6.554   1.169 -0.4941 -0.8706  1.4725
  135MOL0     H18205   8.351   6.542   0.964 -0.0421  0.2784  0.7875
  135MOL0     H18206   8.314   6.361   0.934 -1.9306  0.0093  1.1108
  135MOL0     H18207   7.815   6.091   1.581 -0.1393  2.0372 -0.3581
  135MOL0     H18208   7.733   5.858   1.608  3.2728  2.3494 -2.5170
  135MOL0     H18209   7.629   5.416   1.579  0.5009 -2.4647 -2.0791
  135MOL0     H18210   7.512   5.212   1.601 -0.3511 -0.0303 -0.6543
  135MOL0     H18211   6.293   5.748   0.389 -0.6843  1.5496 -0.3630
  135MOL0     H18212   6.114   5.870   0.291  2.4123  1.7182  0.6305
  135MOL0     H18213   5.790   5.982   0.145 -0.2274  0.8169 -0.9271
  135MOL0     H18214   5.616   6.082   0.028  1.3678  0.2474  2.5402
  135MOL0     H18215   5.163   5.991  -0.073 -2.4546 -4.7531  0.0253
  135MOL0     H18216   5.218   5.861  -0.002  0.3908  0.1964 -2.5369
  135MOL0     H18217   5.138   6.125   0.147 -0.6165  0.3371  2.4535
  135MOL0     H18218   5.193   5.980   0.230 -0.3441 -0.1039 -0.2737
  135MOL0     H18219   4.997   5.854   0.122  3.5862  0.2441 -0.0685
  135MOL0     H18220   4.956   6.022   0.046 -0.5041 -0.1161 -0.2873
  135MOL0     H18221   4.920   6.117   0.273  3.1933  0.6625  0.0820
  135MOL0     H18222   4.986   5.979   0.355 -1.9170  3.7395  2.5091
  135MOL0     H18223   4.587   5.853   0.286 -0.7023  0.8891 -0.1897
  135MOL0     H18224   5.327   5.786   0.172 -0.0107 -1.0356 -3.1209
  135MOL0     H18225   5.506   5.718   0.338  0.3532  1.1498  0.9839
  136MOL0     O18226   3.020   8.401   1.820  0.0903 -0.5934  0.2992
  136MOL0     C18227   3.109   8.479   1.776 -0.0505  0.3188  0.8161
  136MOL0     O18228   3.089   8.595   1.707  0.2675  0.8925  0.3564
  136MOL0     C18229   2.962   8.626   1.672  0.0099  0.4996 -0.5875
  136MOL0     C18230   2.934   8.617   1.533  0.1353 -0.3390  0.0274
  136MOL0     C18231   2.811   8.645   1.479  0.4604  0.5669  0.2552
  136MOL0     C18232   2.716   8.695   1.564  0.5584  0.1939  0.6371
  136MOL0     O18233   2.598   8.734   1.504 -0.8791 -0.2640  0.0817
  136MOL0     C18234   2.599   8.876   1.508 -0.8512 -0.6965 -0.3528
  136MOL0     C18235   2.527   8.927   1.388 -0.4059 -0.0227  0.1116
  136MOL0     C18236   2.384   8.887   1.373 -0.1644 -0.1106 -0.1176
  136MOL0     C18237   2.312   8.975   1.265 -0.1451  0.7624  0.3007
  136MOL0     C18238   2.221   8.904   1.168  0.4134  0.2690  0.0765
  136MOL0     C18239   2.086   8.850   1.224 -0.1893  0.6634 -0.8047
  136MOL0     C18240   1.998   8.807   1.111 -0.8664 -0.4138  0.3840
  136MOL0     C18241   2.063   8.703   1.021 -0.0432  0.1854 -0.5898
  136MOL0     N18242   1.966   8.636   0.946  0.1181  0.3972  0.4058
  136MOL0     C18243   1.877   8.545   1.001  0.8633  1.0543 -0.5199
  136MOL0     C18244   1.805   8.501   0.892  0.2935  0.8775 -0.4162
  136MOL0     C18245   1.687   8.399   0.905 -0.7210  0.0221 -0.4398
  136MOL0     C18246   1.555   8.452   0.849 -0.9016 -0.2394 -0.4737
  136MOL0     C18247   1.501   8.566   0.921 -1.0676  0.1495 -0.7713
  136MOL0     C18248   1.350   8.572   0.910  0.2144  0.5208  0.7158
  136MOL0     O18249   1.316   8.697   0.974  0.2506  0.3426  0.2202
  136MOL0     C18250   1.187   8.732   0.999  0.5916 -0.0413 -0.3590
  136MOL0     C18251   1.075   8.641   0.984 -0.5112  0.2331 -0.0587
  136MOL0     C18252   0.943   8.685   1.020 -0.2812  0.8113  0.1758
  136MOL0     C18253   0.833   8.576   0.993  0.2598 -0.2707 -0.3723
  136MOL0     C18254   0.925   8.818   1.062  0.2426  0.7431 -0.5982
  136MOL0     C18255   0.795   8.877   1.113 -1.4382 -0.0321 -0.3366
  136MOL0     O18256   0.788   9.012   1.089  0.2359 -0.4880  0.1755
  136MOL0     C18257   0.679   9.076   1.141  0.6908 -0.0115 -0.6119
  136MOL0     C18258   0.562   9.055   1.071  0.3354  0.0474  0.0048
  136MOL0     C18259   0.435   9.094   1.118 -0.9434  0.0970 -0.5502
  136MOL0     C18260   0.435   9.143   1.247 -0.3436 -0.4960  0.6982
  136MOL0     O18261   0.323   9.194   1.297 -0.2539 -0.2697 -0.6375
  136MOL0     C18262   0.209   9.111   1.317 -0.6964  0.5647 -0.2713
  136MOL0     C18263   0.240   9.004   1.413 -0.0656  0.8303 -0.0646
  136MOL0     C18264   0.258   9.042   1.566  0.1010 -0.1962 -0.4268
  136MOL0     C18265   0.277   8.919   1.663  0.0752 -0.4687  0.8223
  136MOL0     C18266   0.357   8.952   1.797  0.1430  0.2798 -0.1367
  136MOL0     C18267   0.279   9.040   1.885  0.0269 -0.8519  0.0792
  136MOL0     C18268   0.362   9.100   1.994  0.2029  0.5430  0.3387
  136MOL0     C18269   0.492   9.185   1.958  0.7375  0.3886 -0.7187
  136MOL0    Cl18270   0.414   9.337   1.911  0.3225  0.0110  0.1288
  136MOL0     C18271   0.551   9.167   1.313  0.7342  0.2612 -0.3010
  136MOL0     C18272   0.679   9.137   1.265  0.4233  0.2884 -0.1450
  136MOL0     O18273   0.719   8.805   1.189 -0.4571  0.1176 -0.0355
  136MOL0     C18274   1.039   8.907   1.066  0.0064 -0.4572  0.0894
  136MOL0     C18275   1.161   8.858   1.041 -0.7370  0.1264  0.1704
  136MOL0     N18276   1.853   8.559   0.780  0.5391  0.5171  0.1853
  136MOL0     N18277   1.948   8.635   0.805 -0.0903 -0.3996  1.0059
  136MOL0     C18278   2.742   8.702   1.705  0.4665  0.5054 -0.6049
  136MOL0     C18279   2.865   8.682   1.759 -0.0531  0.7002  0.2085
  136MOL0     C18280   3.253   8.451   1.801  0.4217 -0.0150  0.4565
  136MOL0     C18281   3.348   8.516   1.725 -0.2021 -0.2527  0.0171
  136MOL0     C18282   3.487   8.511   1.754 -0.8469 -0.2143  0.3291
  136MOL0     C18283   3.532   8.408   1.832 -0.4552  0.1166  0.1938
  136MOL0     O18284   3.662   8.378   1.865 -0.0201 -0.3234  0.7510
  136MOL0     C18285   3.763   8.470   1.827 -0.0156 -0.3066 -0.4673
  136MOL0     C18286   3.901   8.406   1.848  0.2586  0.2417  0.1084
  136MOL0     C18287   3.937   8.361   1.988 -0.5289  0.9891 -0.0923
  136MOL0     C18288   4.072   8.293   1.994 -0.8086 -0.5262  0.7660
  136MOL0     C18289   4.190   8.390   1.969  1.0930  0.5353 -0.1077
  136MOL0     C18290   4.285   8.456   1.922 -0.4576  1.1034  0.4754
  136MOL0     C18291   3.435   8.331   1.899  0.3644  1.2625 -0.0269
  136MOL0     C18292   3.294   8.358   1.887 -0.2760  0.2578 -0.8369
  136MOL0     H18293   3.012   8.583   1.465  1.8949  2.0856  0.7072
  136MOL0     H18294   2.802   8.635   1.371  3.7506  0.2627 -0.1070
  136MOL0     H18295   2.532   8.916   1.584 -2.1305 -2.3216 -0.5779
  136MOL0     H18296   2.700   8.917   1.517 -0.4705 -1.0703 -2.4153
  136MOL0     H18297   2.529   9.037   1.388  1.1344  0.0152  2.0361
  136MOL0     H18298   2.588   8.905   1.300  0.8074  4.2051 -0.3602
  136MOL0     H18299   2.372   8.782   1.342 -1.4812  0.7278 -2.7421
  136MOL0     H18300   2.343   8.908   1.472 -0.7613  0.2418 -0.4327
  136MOL0     H18301   2.251   9.056   1.308 -1.8170  0.3687 -1.2079
  136MOL0     H18302   2.388   9.031   1.210  0.1963  0.9057  0.8969
  136MOL0     H18303   2.190   8.968   1.085 -0.9422 -2.1811 -1.4200
  136MOL0     H18304   2.281   8.821   1.128  2.4713  1.6581  0.1515
  136MOL0     H18305   2.096   8.762   1.288  1.3122  0.4458 -1.3012
  136MOL0     H18306   2.035   8.929   1.279 -0.1427  1.0275 -1.2764
  136MOL0     H18307   1.899   8.778   1.150 -1.5122 -0.2930 -1.0922
  136MOL0     H18308   1.985   8.892   1.044  2.4713 -0.1802 -0.1145
  136MOL0     H18309   2.105   8.633   1.093 -0.0481 -1.4259 -2.0709
  136MOL0     H18310   2.144   8.743   0.959  0.8055 -2.2675 -1.1561
  136MOL0     H18311   1.868   8.520   1.106  0.3093  1.5861 -0.4332
  136MOL0     H18312   1.720   8.316   0.842  2.5381 -0.2936  1.4526
  136MOL0     H18313   1.673   8.356   1.005  2.0828 -1.8004 -0.7124
  136MOL0     H18314   1.491   8.365   0.868 -1.6767  0.5074  0.3848
  136MOL0     H18315   1.565   8.486   0.745 -0.8383  2.3870  0.3275
  136MOL0     H18316   1.551   8.652   0.876 -1.2762  0.5572 -0.2282
  136MOL0     H18317   1.525   8.573   1.027 -1.8365  1.4243 -0.6581
  136MOL0     H18318   1.299   8.482   0.946  0.5415 -1.1469 -2.5512
  136MOL0     H18319   1.320   8.575   0.804  0.7198 -0.2669  0.5419
  136MOL0     H18320   1.091   8.540   0.951  0.0945  0.5183 -0.6437
  136MOL0     H18321   0.738   8.609   1.035  1.6058  1.8669  1.2583
  136MOL0     H18322   0.837   8.554   0.886 -2.5615 -2.5590 -0.1294
  136MOL0     H18323   0.856   8.479   1.038 -0.7454  0.8777  2.9025
  136MOL0     H18324   0.557   9.013   0.972  0.6332 -0.9496  0.4037
  136MOL0     H18325   0.351   9.089   1.050  0.1413 -0.0507 -1.9238
  136MOL0     H18326   0.128   9.170   1.361  0.6264  1.2420  1.3698
  136MOL0     H18327   0.172   9.073   1.221  0.8051  2.1887 -1.5515
  136MOL0     H18328   0.156   8.934   1.421  1.3262 -0.8729  0.3175
  136MOL0     H18329   0.329   8.949   1.383 -0.9824 -1.0036  0.4239
  136MOL0     H18330   0.163   9.092   1.589 -0.8130  0.1583 -4.2070
  136MOL0     H18331   0.351   9.097   1.576  0.9745 -1.1389 -2.7347
  136MOL0     H18332   0.179   8.886   1.700 -0.6621  1.1339  0.4026
  136MOL0     H18333   0.327   8.839   1.610 -0.3245  1.7371 -3.2601
  136MOL0     H18334   0.452   8.994   1.764 -1.4294  1.5548 -3.5666
  136MOL0     H18335   0.379   8.858   1.849 -1.0428  0.7172  1.2511
  136MOL0     H18336   0.225   9.119   1.832 -0.7432 -0.7967  0.9377
  136MOL0     H18337   0.205   8.972   1.928  0.2641 -3.0950 -2.7545
  136MOL0     H18338   0.400   9.019   2.056  1.3166  0.4013 -0.5065
  136MOL0     H18339   0.289   9.155   2.054 -1.5499 -3.0908  1.8364
  136MOL0     H18340   0.541   9.146   1.868  0.5844  0.1137 -0.6848
  136MOL0     H18341   0.554   9.188   2.048  0.5182 -0.8963 -0.5015
  136MOL0     H18342   0.548   9.217   1.410  0.1984 -0.5424  0.1001
  136MOL0     H18343   0.762   9.148   1.334  1.2303 -1.5806 -0.7563
  136MOL0     H18344   1.023   9.009   1.100 -2.3160 -1.5656  2.7078
  136MOL0     H18345   1.245   8.922   1.066 -0.9854  1.3284 -1.8488
  136MOL0     H18346   2.662   8.726   1.775  0.2033 -0.5473 -0.5257
  136MOL0     H18347   2.890   8.704   1.862 -2.5900 -1.7292  1.4787
  136MOL0     H18348   3.323   8.586   1.646  0.5325  1.7230  1.4414
  136MOL0     H18349   3.551   8.575   1.693 -0.9655 -0.5355 -0.1338
  136MOL0     H18350   3.767   8.483   1.718  0.2272 -0.8896 -0.5321
  136MOL0     H18351   3.751   8.560   1.887  1.2445 -1.6438  1.9410
  136MOL0     H18352   3.980   8.475   1.814  1.5789 -0.8274  0.8944
  136MOL0     H18353   3.905   8.320   1.780 -0.7262 -0.1783  0.5656
  136MOL0     H18354   3.862   8.288   2.018  0.1909  0.0548 -0.5159
  136MOL0     H18355   3.927   8.441   2.062 -2.6059 -0.2856  1.0964
  136MOL0     H18356   4.066   8.212   1.921 -1.9478  0.6565 -0.5035
  136MOL0     H18357   4.094   8.251   2.093  1.9715  2.6903  1.6949
  136MOL0     H18358   4.368   8.496   1.867 -3.2145 -0.6717 -5.9495
  136MOL0     H18359   3.471   8.250   1.963  1.9936 -1.2400 -3.7753
  136MOL0     H18360   3.220   8.310   1.950 -1.2002  1.6887 -0.7937
  137MOL0     O18361   8.692   0.987   9.632 -0.4126 -0.3760  0.1209
  137MOL0     C18362   8.691   1.111   9.632 -0.0076  0.6889  0.7462
  137MOL0     O18363   8.581   1.195   9.607 -0.0721  0.0416  0.0709
  137MOL0     C18364   8.452   1.149   9.578  0.2410 -0.4791 -0.9697
  137MOL0     C18365   8.401   1.076   9.683  0.7688 -0.1193 -0.3476
  137MOL0     C18366   8.276   1.019   9.667 -0.3790 -0.7139  0.2059
  137MOL0     C18367   8.201   1.038   9.551  0.7787  0.4516 -0.0275
  137MOL0     O18368   8.084   0.965   9.541 -0.1937 -0.5615 -0.1151
  137MOL0     C18369   7.995   0.999   9.440  0.0721  0.1957 -1.1643
  137MOL0     C18370   7.856   0.944   9.466  0.2148 -0.6102  0.2403
  137MOL0     C18371   7.763   0.986   9.354  0.3893 -0.5256  0.0914
  137MOL0     C18372   7.619   0.935   9.357 -0.2228 -0.1137 -0.3032
  137MOL0     C18373   7.540   1.016   9.458  0.5093 -0.1715  0.0808
  137MOL0     C18374   7.391   1.009   9.436  0.3165 -0.4498  0.5534
  137MOL0     C18375   7.297   1.087   9.536  0.0135  0.2428 -0.6999
  137MOL0     C18376   7.161   1.015   9.559 -0.3342  0.1623  0.2255
  137MOL0     N18377   7.062   1.109   9.612 -0.7976  0.8155  0.7457
  137MOL0     C18378   6.978   1.169   9.528  0.4504 -0.8138 -0.1348
  137MOL0     C18379   6.896   1.239   9.613 -0.4779  0.0443 -0.5141
  137MOL0     C18380   6.779   1.323   9.587  0.5610  0.2417 -0.0048
  137MOL0     C18381   6.798   1.439   9.484 -0.3540  0.6669 -1.1012
  137MOL0     C18382   6.674   1.486   9.409  0.1544 -0.4300  0.9159
  137MOL0     C18383   6.685   1.623   9.337 -0.0252 -0.3835 -0.1395
  137MOL0     O18384   6.553   1.667   9.296 -0.9540 -0.8571 -0.0875
  137MOL0     C18385   6.540   1.785   9.231  1.6573  0.2353 -0.0951
  137MOL0     C18386   6.408   1.825   9.202 -0.2853  0.3565  0.6349
  137MOL0     C18387   6.392   1.929   9.112  0.1441 -0.1498  0.4316
  137MOL0     C18388   6.238   1.970   9.093 -0.4371 -0.4748 -0.4517
  137MOL0     C18389   6.498   1.995   9.048  0.6309  0.1076 -0.7378
  137MOL0     C18390   6.479   2.094   8.943  0.1391 -1.1359 -0.9755
  137MOL0     O18391   6.588   2.176   8.921  0.2117 -0.4160 -0.0376
  137MOL0     C18392   6.595   2.255   8.814  0.5426 -0.2999  0.0240
  137MOL0     C18393   6.510   2.369   8.813 -0.3746  0.4866  0.4367
  137MOL0     C18394   6.518   2.457   8.703  1.0779  0.5375  0.7666
  137MOL0     C18395   6.622   2.437   8.603 -0.0140 -0.8428  0.9912
  137MOL0     O18396   6.645   2.539   8.514  1.1095  0.6251  0.4970
  137MOL0     C18397   6.660   2.491   8.380 -0.2763  0.0942  0.6799
  137MOL0     C18398   6.663   2.610   8.283  0.3469  0.4640  0.9140
  137MOL0     C18399   6.539   2.677   8.269 -0.0337  0.7680  0.0583
  137MOL0     C18400   6.560   2.811   8.205 -0.2812  0.0393  1.2281
  137MOL0     C18401   6.429   2.892   8.183  0.5225  0.3841  0.3668
  137MOL0     C18402   6.466   3.038   8.157 -0.5877 -0.3022  0.4221
  137MOL0     C18403   6.548   3.063   8.029 -0.2739 -0.2961  0.5253
  137MOL0     C18404   6.464   3.155   7.930 -0.2170  0.5597  0.9220
  137MOL0    Cl18405   6.379   3.055   7.806  0.2079 -0.2552 -0.1832
  137MOL0     C18406   6.717   2.334   8.624  0.0498  0.2217  0.1620
  137MOL0     C18407   6.699   2.246   8.725  0.7738 -0.2629  0.2279
  137MOL0     O18408   6.382   2.081   8.865 -0.2247 -0.1755 -0.4086
  137MOL0     C18409   6.632   1.962   9.089 -0.8815  0.5027  0.7361
  137MOL0     C18410   6.651   1.855   9.176  0.1860 -0.0375  0.6157
  137MOL0     N18411   6.932   1.203   9.747 -0.2314  0.4295  0.5022
  137MOL0     N18412   7.030   1.126   9.743  0.6236 -0.3494  0.4968
  137MOL0     C18413   8.256   1.118   9.448  0.2298 -0.0153  0.4812
  137MOL0     C18414   8.388   1.179   9.461 -1.1374 -0.0441  0.1399
  137MOL0     C18415   8.806   1.169   9.682 -0.7293  1.1444  0.5316
  137MOL0     C18416   8.838   1.305   9.657 -0.9125  0.0320  0.5085
  137MOL0     C18417   8.957   1.359   9.699 -0.6194 -0.7746  0.1076
  137MOL0     C18418   9.053   1.288   9.772  0.6803 -0.2960  0.7423
  137MOL0     O18419   9.167   1.345   9.823 -0.1442  0.5984  0.2407
  137MOL0     C18420   9.231   1.295   9.942 -1.1530  0.6542 -0.2564
  137MOL0     C18421   9.146   1.320  10.066  0.5059 -0.0819 -0.3897
  137MOL0     C18422   9.163   1.461  10.119  0.0300  1.1954 -0.0802
  137MOL0     C18423   9.099   1.563  10.038  0.2112 -0.9215  0.8018
  137MOL0     C18424   8.959   1.529  10.011  0.2562  0.3374  0.3549
  137MOL0     C18425   8.840   1.509  10.002  0.3049  0.2408 -0.2785
  137MOL0     C18426   9.021   1.154   9.804  0.0778 -1.2545  0.1532
  137MOL0     C18427   8.904   1.095   9.761 -0.2482 -0.6938 -0.3407
  137MOL0     H18428   8.453   1.074   9.779 -2.3597 -1.1899  1.4986
  137MOL0     H18429   8.250   0.951   9.748  0.9556 -0.6106  0.7466
  137MOL0     H18430   7.993   1.108   9.429 -2.1671  0.2568 -0.6062
  137MOL0     H18431   8.034   0.960   9.345 -0.9735 -2.8151 -0.4607
  137MOL0     H18432   7.852   0.836   9.481 -3.1852 -0.2784  3.0389
  137MOL0     H18433   7.807   0.977   9.558 -0.3109 -3.6949  1.1946
  137MOL0     H18434   7.762   1.095   9.342  0.5372 -0.8069 -3.4839
  137MOL0     H18435   7.814   0.943   9.267  1.4587 -0.1215  0.4963
  137MOL0     H18436   7.576   0.956   9.258 -0.4613  0.2785 -0.1164
  137MOL0     H18437   7.629   0.829   9.384  0.9906  0.1817  0.4788
  137MOL0     H18438   7.569   0.987   9.560 -0.5923  0.1960  0.5199
  137MOL0     H18439   7.570   1.121   9.453  1.6684 -0.3398  2.2221
  137MOL0     H18440   7.350   1.033   9.338  0.4881  0.8176  0.7632
  137MOL0     H18441   7.369   0.902   9.441  2.4048 -1.2279 -3.2396
  137MOL0     H18442   7.353   1.097   9.629  1.9475  2.5879 -1.9970
  137MOL0     H18443   7.285   1.186   9.491  1.0769 -0.8009 -3.5470
  137MOL0     H18444   7.171   0.924   9.618  0.6682 -0.1687 -0.4199
  137MOL0     H18445   7.137   0.997   9.454  3.3941 -0.1819 -0.7044
  137MOL0     H18446   6.969   1.166   9.420 -0.3738 -0.9412 -0.0683
  137MOL0     H18447   6.695   1.255   9.569  1.5840 -1.4276  1.2648
  137MOL0     H18448   6.755   1.381   9.677 -1.5223 -1.5337  0.6647
  137MOL0     H18449   6.875   1.403   9.414 -0.5076  0.8220 -1.3520
  137MOL0     H18450   6.836   1.531   9.528 -1.2806  1.6467 -2.2816
  137MOL0     H18451   6.604   1.500   9.491 -1.6120 -2.6393 -0.1132
  137MOL0     H18452   6.640   1.414   9.334  0.5954  0.5765 -0.2984
  137MOL0     H18453   6.760   1.618   9.258  2.5530 -0.5760  2.1716
  137MOL0     H18454   6.746   1.686   9.402  3.7074 -3.5392 -0.2157
  137MOL0     H18455   6.333   1.761   9.248  1.2333 -1.5291  0.5830
  137MOL0     H18456   6.196   1.979   9.194  1.1735  0.8584  0.1406
  137MOL0     H18457   6.221   2.061   9.035 -0.0444 -0.4615 -0.5515
  137MOL0     H18458   6.180   1.899   9.034  0.3501  1.2428 -3.4943
  137MOL0     H18459   6.438   2.369   8.894  0.7390 -2.6161  1.5914
  137MOL0     H18460   6.453   2.544   8.700 -1.7672 -1.4779 -0.8644
  137MOL0     H18461   6.761   2.448   8.380  0.2347  1.1165 -1.6474
  137MOL0     H18462   6.582   2.420   8.352  0.7446 -1.6207  1.9776
  137MOL0     H18463   6.740   2.678   8.322 -0.1755 -0.0490  2.9931
  137MOL0     H18464   6.687   2.580   8.181  1.2658 -1.2386  1.5779
  137MOL0     H18465   6.486   2.676   8.365  1.3754 -0.2779  0.8770
  137MOL0     H18466   6.465   2.623   8.210 -0.7817 -1.2031  2.5963
  137MOL0     H18467   6.633   2.868   8.264  0.0304 -1.2041  2.0677
  137MOL0     H18468   6.598   2.794   8.104 -1.5657  1.2188  0.5101
  137MOL0     H18469   6.370   2.894   8.276  0.7395  0.4121  0.5041
  137MOL0     H18470   6.373   2.852   8.098  3.6152  0.1699 -1.7289
  137MOL0     H18471   6.376   3.100   8.165  0.7426  1.6351  1.4343
  137MOL0     H18472   6.520   3.082   8.241  1.5147  0.5168 -1.2529
  137MOL0     H18473   6.571   2.970   7.975 -0.3336 -0.8060  1.3616
  137MOL0     H18474   6.642   3.107   8.062 -0.7969  0.6905  0.7479
  137MOL0     H18475   6.531   3.219   7.872 -0.4252 -1.5398 -1.8652
  137MOL0     H18476   6.386   3.208   7.985 -2.1243  1.1651 -2.1259
  137MOL0     H18477   6.803   2.329   8.557  1.9428 -0.8622  2.5359
  137MOL0     H18478   6.772   2.170   8.752  0.3219  0.5486  4.3295
  137MOL0     H18479   6.714   2.019   9.046 -1.1947  0.3560 -0.0819
  137MOL0     H18480   6.758   1.840   9.181  0.5550  1.9437 -0.3766
  137MOL0     H18481   8.209   1.137   9.352 -1.1013 -1.8940  0.7245
  137MOL0     H18482   8.448   1.230   9.386 -0.7641 -0.2071  0.3265
  137MOL0     H18483   8.769   1.370   9.606  0.7299  1.9831  0.6447
  137MOL0     H18484   8.992   1.461   9.686  2.3804 -1.6559  0.4536
  137MOL0     H18485   9.260   1.190   9.938  1.2374  1.2884 -2.9046
  137MOL0     H18486   9.331   1.340   9.944  0.2741 -2.2187  2.9397
  137MOL0     H18487   9.199   1.272  10.149  0.8976  0.2856 -0.4279
  137MOL0     H18488   9.042   1.287  10.054 -0.1082  0.0103  3.3862
  137MOL0     H18489   9.266   1.490  10.137  0.3281 -0.9172  2.2360
  137MOL0     H18490   9.107   1.457  10.213  1.4654 -1.4818  0.7436
  137MOL0     H18491   9.154   1.565   9.944 -0.4577  0.8424  0.4154
  137MOL0     H18492   9.106   1.660  10.089  0.5450  0.4698 -1.7207
  137MOL0     H18493   8.734   1.507   9.990 -0.1702 -3.5300  2.6941
  137MOL0     H18494   9.094   1.086   9.845  0.9394  0.5092  1.6917
  137MOL0     H18495   8.888   0.992   9.790  2.3566 -0.5914  1.8689
  138MOL0     O18496   2.899   8.799   2.742 -0.5779 -0.2875 -0.7746
  138MOL0     C18497   2.797   8.823   2.803  0.2140 -0.0883  0.0785
  138MOL0     O18498   2.782   8.821   2.934  0.1924  0.6404 -0.3837
  138MOL0     C18499   2.886   8.830   3.019  0.9665  0.4600  0.3824
  138MOL0     C18500   3.012   8.881   2.988 -0.1001 -0.7503  0.0268
  138MOL0     C18501   3.109   8.886   3.096  0.0803  0.5612 -0.2424
  138MOL0     C18502   3.090   8.817   3.214 -0.7500  0.0301 -0.4621
  138MOL0     O18503   3.193   8.829   3.299 -0.4068  0.0975 -0.1535
  138MOL0     C18504   3.233   8.712   3.372 -0.0702  0.4909  0.2976
  138MOL0     C18505   3.388   8.704   3.406  1.0257 -0.3210 -0.1837
  138MOL0     C18506   3.463   8.686   3.272 -0.5856 -0.0062 -0.0937
  138MOL0     C18507   3.611   8.733   3.279 -0.1796  0.2117  1.1897
  138MOL0     C18508   3.692   8.713   3.147  0.3616 -0.6457  0.2709
  138MOL0     C18509   3.634   8.772   3.014  0.5860 -0.3844  0.0946
  138MOL0     C18510   3.615   8.925   3.026  0.4421  0.2766 -0.1358
  138MOL0     C18511   3.601   9.008   2.901 -0.2382  0.1498 -0.3310
  138MOL0     N18512   3.508   8.948   2.794 -0.1895 -0.8355 -0.7846
  138MOL0     C18513   3.368   8.966   2.787  0.6422  0.1650 -0.2266
  138MOL0     C18514   3.325   8.945   2.662  0.3295 -0.6741  0.1995
  138MOL0     C18515   3.184   8.941   2.612 -0.8274  1.0185 -0.0034
  138MOL0     C18516   3.146   9.087   2.568 -0.4554 -0.3612 -0.8685
  138MOL0     C18517   3.001   9.086   2.510  0.8807 -0.1171  0.3410
  138MOL0     C18518   2.941   9.220   2.468  0.3628 -0.6872  0.2052
  138MOL0     O18519   2.799   9.190   2.483  0.2886 -0.4300  0.5452
  138MOL0     C18520   2.704   9.238   2.390  0.1635  0.6114  0.1882
  138MOL0     C18521   2.729   9.317   2.280  0.1252  0.4761  0.5097
  138MOL0     C18522   2.623   9.355   2.188 -0.1897 -0.4455 -0.3296
  138MOL0     C18523   2.657   9.444   2.069 -0.6485  1.0968 -0.4145
  138MOL0     C18524   2.482   9.331   2.218 -0.8805 -0.0371 -0.4909
  138MOL0     C18525   2.355   9.371   2.156  0.1737 -0.4572  0.6757
  138MOL0     O18526   2.247   9.298   2.171  0.6832 -0.0723 -0.3466
  138MOL0     C18527   2.134   9.316   2.097  0.0591  0.1706 -0.1917
  138MOL0     C18528   2.060   9.430   2.113  0.4111  0.2297 -0.0470
  138MOL0     C18529   1.966   9.460   2.012 -0.1196  0.6233 -0.9261
  138MOL0     C18530   1.943   9.376   1.894 -0.0250 -0.2176 -0.1664
  138MOL0     O18531   1.847   9.390   1.795 -0.0970 -0.4943  0.4385
  138MOL0     C18532   1.723   9.433   1.839 -0.2762 -0.1740 -0.3578
  138MOL0     C18533   1.638   9.448   1.717  0.5349  0.3411 -0.1351
  138MOL0     C18534   1.665   9.575   1.640 -0.0581  0.7658 -0.1346
  138MOL0     C18535   1.564   9.583   1.518 -0.5999 -0.5664 -0.3259
  138MOL0     C18536   1.572   9.719   1.443 -1.0382  0.0449 -0.4818
  138MOL0     C18537   1.477   9.715   1.320  0.4879 -0.3618  0.6242
  138MOL0     C18538   1.513   9.832   1.221 -0.4802 -0.7981 -0.2965
  138MOL0     C18539   1.487   9.789   1.080 -0.2733  0.0033  0.8901
  138MOL0    Cl18540   1.325   9.723   1.079  0.4930  0.5104  0.2186
  138MOL0     C18541   2.012   9.255   1.889  0.6211 -0.0043 -0.2999
  138MOL0     C18542   2.111   9.223   1.993  0.5087  0.2767 -0.0634
  138MOL0     O18543   2.363   9.466   2.079  0.2096  0.2226 -0.4954
  138MOL0     C18544   2.468   9.239   2.327 -0.1338  0.8181 -0.4860
  138MOL0     C18545   2.575   9.204   2.409 -0.3791 -0.3057  0.0338
  138MOL0     N18546   3.442   8.921   2.591  0.2791  0.0494 -0.3786
  138MOL0     N18547   3.544   8.929   2.670 -0.0700  0.4140  0.5446
  138MOL0     C18548   2.970   8.754   3.235 -0.2517 -0.9722 -0.2655
  138MOL0     C18549   2.867   8.767   3.143 -0.0838 -0.3952  0.0234
  138MOL0     C18550   2.684   8.849   2.724 -0.4646 -0.7950 -0.3137
  138MOL0     C18551   2.680   8.821   2.588  0.6414  0.1453  0.3390
  138MOL0     C18552   2.569   8.848   2.514  0.2473 -0.4793  0.2198
  138MOL0     C18553   2.461   8.914   2.576 -0.0328 -0.2423  0.3971
  138MOL0     O18554   2.362   8.965   2.502 -0.0865 -0.3220  0.4644
  138MOL0     C18555   2.245   8.891   2.507  0.6346  0.1465  0.3595
  138MOL0     C18556   2.184   8.901   2.365  0.0694  0.2577 -0.5297
  138MOL0     C18557   2.075   8.800   2.340  1.0346  0.1633  0.6047
  138MOL0     C18558   2.049   8.801   2.194 -0.5213  0.3521  0.4320
  138MOL0     C18559   1.948   8.693   2.154  0.6763 -0.5668 -0.4680
  138MOL0     C18560   1.863   8.613   2.121 -0.5622 -0.1649  0.3168
  138MOL0     C18561   2.458   8.937   2.714 -1.0245 -0.9583  0.9698
  138MOL0     C18562   2.571   8.904   2.788 -0.6161  1.1971  0.1714
  138MOL0     H18563   3.032   8.928   2.892 -0.4799 -2.1221 -0.7598
  138MOL0     H18564   3.196   8.942   3.065  0.4358 -0.8183 -1.9366
  138MOL0     H18565   3.171   8.706   3.461  1.9086 -3.0231  1.6450
  138MOL0     H18566   3.215   8.626   3.306  1.3202  0.6485 -0.3376
  138MOL0     H18567   3.412   8.795   3.461  2.2800 -0.8160  0.1250
  138MOL0     H18568   3.416   8.624   3.475  3.5620  0.5685 -0.0863
  138MOL0     H18569   3.455   8.585   3.231  2.0617 -0.2664 -0.1434
  138MOL0     H18570   3.417   8.755   3.201  0.9576 -0.5692 -1.7175
  138MOL0     H18571   3.610   8.836   3.318 -1.9869 -0.1538  2.2087
  138MOL0     H18572   3.663   8.678   3.359 -0.8116 -0.3495  1.2183
  138MOL0     H18573   3.785   8.765   3.170 -0.8950  2.6895 -1.4562
  138MOL0     H18574   3.706   8.605   3.144  0.9329 -0.5847  0.5453
  138MOL0     H18575   3.705   8.761   2.932  1.1387  0.9972  0.3531
  138MOL0     H18576   3.543   8.723   2.978 -0.0446  2.1366 -2.1496
  138MOL0     H18577   3.529   8.940   3.091  0.7928 -2.1778  1.0110
  138MOL0     H18578   3.701   8.970   3.076  1.2522  0.3356 -1.5113
  138MOL0     H18579   3.703   9.012   2.863 -0.0353 -0.4475  0.1316
  138MOL0     H18580   3.578   9.112   2.927  1.9059 -0.2222  4.1130
  138MOL0     H18581   3.304   9.004   2.866  1.6919  1.2816  0.1305
  138MOL0     H18582   3.172   8.883   2.520 -3.9628 -1.2091  1.6412
  138MOL0     H18583   3.118   8.908   2.693  0.8211  3.3073  2.4273
  138MOL0     H18584   3.215   9.114   2.487  1.0613 -1.7137 -0.0804
  138MOL0     H18585   3.157   9.158   2.651 -1.9338 -0.3269 -0.6734
  138MOL0     H18586   2.937   9.044   2.588 -0.1724 -0.1291 -0.5183
  138MOL0     H18587   2.994   9.016   2.427 -1.1267  0.1586  0.2262
  138MOL0     H18588   2.969   9.245   2.365  2.3944  0.8487  1.0731
  138MOL0     H18589   2.978   9.300   2.531  0.4737  1.5384 -2.5068
  138MOL0     H18590   2.827   9.344   2.243 -0.1177  1.2273  0.3849
  138MOL0     H18591   2.647   9.552   2.087 -1.2576  1.7720 -3.9436
  138MOL0     H18592   2.764   9.430   2.053 -0.6910 -1.2383  0.9619
  138MOL0     H18593   2.593   9.408   1.987  0.6802 -1.8372 -0.2959
  138MOL0     H18594   2.084   9.495   2.197 -3.5811 -0.2307  1.6703
  138MOL0     H18595   1.918   9.558   2.016 -0.7330  0.3333 -1.0707
  138MOL0     H18596   1.676   9.357   1.902 -2.3429  1.7035  0.4801
  138MOL0     H18597   1.727   9.519   1.906 -0.3383 -1.1807  0.9858
  138MOL0     H18598   1.651   9.359   1.655  2.5364 -0.7842  1.7717
  138MOL0     H18599   1.533   9.461   1.747 -0.0974  3.5723 -3.0674
  138MOL0     H18600   1.769   9.574   1.607 -0.0897  2.3747 -0.3699
  138MOL0     H18601   1.652   9.658   1.709 -0.9441 -1.3210  2.3495
  138MOL0     H18602   1.578   9.505   1.443  5.2246 -0.0596 -0.1861
  138MOL0     H18603   1.464   9.585   1.562  0.7939  0.0840  3.1590
  138MOL0     H18604   1.674   9.736   1.407 -0.9808  1.4830  0.2962
  138MOL0     H18605   1.551   9.808   1.503  2.0294  0.0358  0.7724
  138MOL0     H18606   1.493   9.621   1.266  0.7508  1.3462 -2.5160
  138MOL0     H18607   1.372   9.723   1.347  0.1825 -0.0502 -0.5947
  138MOL0     H18608   1.614   9.872   1.239 -2.7472  4.3849  3.5698
  138MOL0     H18609   1.448   9.917   1.241 -2.8179 -1.7842 -3.0687
  138MOL0     H18610   1.555   9.709   1.049 -0.0271 -0.0289  1.5010
  138MOL0     H18611   1.497   9.876   1.016  1.6743  0.2323  1.4630
  138MOL0     H18612   1.983   9.202   1.799  2.1522 -2.1817  0.4123
  138MOL0     H18613   2.172   9.133   1.986  0.7504  0.5128 -1.1073
  138MOL0     H18614   2.372   9.189   2.340 -0.1664  0.3169 -2.3290
  138MOL0     H18615   2.553   9.142   2.496 -1.2697 -0.8147 -0.5324
  138MOL0     H18616   2.970   8.695   3.327  0.8733 -1.4442 -0.5533
  138MOL0     H18617   2.773   8.722   3.175  0.9647  0.1665  4.6406
  138MOL0     H18618   2.756   8.766   2.535 -0.0538 -0.2052 -0.3041
  138MOL0     H18619   2.564   8.831   2.407 -1.6607 -0.9968  0.3559
  138MOL0     H18620   2.264   8.784   2.520 -2.9067 -0.9337 -1.8801
  138MOL0     H18621   2.177   8.916   2.589  0.6724 -1.7052  0.9849
  138MOL0     H18622   2.264   8.867   2.300  1.2906 -0.1658  1.1283
  138MOL0     H18623   2.151   9.004   2.347 -0.2463  0.4440  0.9642
  138MOL0     H18624   1.988   8.823   2.403 -0.1561 -0.4020 -0.7654
  138MOL0     H18625   2.110   8.697   2.352 -1.9447 -1.2720 -1.7610
  138MOL0     H18626   2.143   8.775   2.143 -2.1987  0.2769 -2.9150
  138MOL0     H18627   2.018   8.903   2.171 -0.8287  0.4433  1.2130
  138MOL0     H18628   1.793   8.544   2.081  1.4378 -0.9801 -2.0408
  138MOL0     H18629   2.368   8.976   2.760  0.5390  2.7759  1.2505
  138MOL0     H18630   2.570   8.930   2.894 -0.4064 -0.5499  0.6231
  139MOL0     O18631   7.552   9.392   2.636  0.0842 -0.2394  0.4314
  139MOL0     C18632   7.646   9.428   2.711 -0.0737  0.4149  0.6775
  139MOL0     O18633   7.700   9.360   2.821 -0.4755 -0.7498 -0.1776
  139MOL0     C18634   7.657   9.233   2.856  0.0597  0.4958  0.8838
  139MOL0     C18635   7.593   9.215   2.979 -0.3867  0.7271  0.0410
  139MOL0     C18636   7.551   9.082   3.017 -0.2552  0.4672  0.2604
  139MOL0     C18637   7.584   8.974   2.932 -0.3692 -0.8979 -0.0292
  139MOL0     O18638   7.572   8.852   2.988 -0.1928  0.3438 -0.1454
  139MOL0     C18639   7.441   8.808   2.969 -0.2397  0.2275  0.1624
  139MOL0     C18640   7.425   8.717   2.847 -1.0033  0.6761  0.1914
  139MOL0     C18641   7.505   8.585   2.834  0.5763  0.7349 -0.5722
  139MOL0     C18642   7.422   8.493   2.742 -0.6772  0.4253 -0.1481
  139MOL0     C18643   7.513   8.379   2.681  0.4818  0.0176  1.3865
  139MOL0     C18644   7.588   8.284   2.771  0.2164  0.2707 -0.4166
  139MOL0     C18645   7.487   8.222   2.871 -0.9641  0.2852  0.0336
  139MOL0     C18646   7.364   8.139   2.818 -0.8392 -0.2449  0.4490
  139MOL0     N18647   7.290   8.079   2.926 -0.0235  0.8674 -0.3012
  139MOL0     C18648   7.321   7.946   2.967  0.0332  0.6968 -0.4066
  139MOL0     C18649   7.257   7.936   3.082  0.8295  0.3352 -0.0072
  139MOL0     C18650   7.259   7.811   3.182  0.7248 -0.4809  0.3006
  139MOL0     C18651   7.114   7.747   3.213  0.0071  0.3465 -0.7599
  139MOL0     C18652   7.039   7.738   3.076 -0.9598  0.3234  0.1927
  139MOL0     C18653   6.889   7.697   3.102 -0.3448  0.1427  1.0094
  139MOL0     O18654   6.823   7.811   3.142  0.1887 -0.0029 -0.8912
  139MOL0     C18655   6.687   7.801   3.157  0.4804  0.2083 -0.4723
  139MOL0     C18656   6.605   7.699   3.111  0.0338  0.3442  0.0741
  139MOL0     C18657   6.460   7.708   3.119 -0.3182 -0.6860  0.0938
  139MOL0     C18658   6.375   7.600   3.056  0.7377 -0.4006  0.4429
  139MOL0     C18659   6.410   7.831   3.170  0.1410  0.3172  0.1920
  139MOL0     C18660   6.269   7.851   3.189  1.5381 -0.3921 -0.6510
  139MOL0     O18661   6.179   7.754   3.159  0.8242  0.7035 -0.4426
  139MOL0     C18662   6.056   7.746   3.226  0.9125 -1.0317 -0.3374
  139MOL0     C18663   6.005   7.833   3.318  0.0446  0.0318  0.3705
  139MOL0     C18664   5.863   7.825   3.355 -0.1991  0.5159  0.2128
  139MOL0     C18665   5.778   7.730   3.295  0.4848  0.7712 -0.9467
  139MOL0     O18666   5.645   7.711   3.323 -0.0469 -0.1417 -0.0817
  139MOL0     C18667   5.566   7.832   3.338 -0.3569 -1.0428  0.7152
  139MOL0     C18668   5.418   7.796   3.371  0.7498 -0.2905  0.2425
  139MOL0     C18669   5.345   7.742   3.240 -0.4600  0.3520 -1.0449
  139MOL0     C18670   5.198   7.733   3.247 -0.5402 -0.6092 -0.6975
  139MOL0     C18671   5.154   7.603   3.186 -0.2447  0.0940  0.5024
  139MOL0     C18672   4.999   7.575   3.196 -0.8404  0.3429  0.1346
  139MOL0     C18673   4.957   7.424   3.151 -0.6975  0.1502 -0.2778
  139MOL0     C18674   4.807   7.387   3.176  0.4368  0.6840  0.0019
  139MOL0    Cl18675   4.794   7.390   3.351 -0.1202 -0.0379  0.1088
  139MOL0     C18676   5.835   7.649   3.202  0.6433 -0.0936 -0.3798
  139MOL0     C18677   5.973   7.645   3.171 -0.6689 -0.2143  0.3137
  139MOL0     O18678   6.235   7.966   3.213 -0.2842 -0.2340  0.5449
  139MOL0     C18679   6.500   7.930   3.209  0.7613  0.9366 -1.2535
  139MOL0     C18680   6.641   7.915   3.202  0.4967  1.1963 -0.3025
  139MOL0     N18681   7.180   8.053   3.106 -0.5927  0.4410  0.5868
  139MOL0     N18682   7.196   8.133   3.006 -0.2243  0.1554  0.4311
  139MOL0     C18683   7.641   8.994   2.800  0.1050  0.6858  0.1183
  139MOL0     C18684   7.681   9.122   2.768 -0.2238 -0.4706  0.3246
  139MOL0     C18685   7.713   9.546   2.660 -0.3665  0.4317 -0.6903
  139MOL0     C18686   7.653   9.650   2.585  0.6354  0.4938 -0.9012
  139MOL0     C18687   7.732   9.752   2.531 -0.2347 -0.5178 -0.8034
  139MOL0     C18688   7.863   9.770   2.568 -0.9786 -0.6633 -0.7690
  139MOL0     O18689   7.926   9.892   2.526  0.6964 -0.0816  0.2547
  139MOL0     C18690   8.069   9.898   2.553 -0.4705 -0.0642 -0.4886
  139MOL0     C18691   8.118  10.019   2.467 -0.1904 -0.1337 -0.1522
  139MOL0     C18692   8.234  10.083   2.523 -0.0678 -0.3543  0.2292
  139MOL0     C18693   8.313  10.154   2.409  0.1432 -0.3684  0.0031
  139MOL0     C18694   8.235  10.270   2.362  0.0064  0.0697 -0.8381
  139MOL0     C18695   8.157  10.364   2.347 -0.4543  0.0482  0.1449
  139MOL0     C18696   7.917   9.681   2.659 -0.3156 -0.1571  0.8709
  139MOL0     C18697   7.841   9.573   2.702  0.5407 -0.2038 -1.3474
  139MOL0     H18698   7.592   9.308   3.036  1.2469  0.6960  0.1655
  139MOL0     H18699   7.501   9.061   3.110 -0.6688 -2.4033 -0.4963
  139MOL0     H18700   7.403   8.742   3.048 -2.4084 -1.2913 -2.0154
  139MOL0     H18701   7.386   8.902   2.960  2.4699  2.4347  3.7162
  139MOL0     H18702   7.320   8.690   2.838 -0.9878 -0.2937  2.2926
  139MOL0     H18703   7.457   8.781   2.764  2.0046 -1.2174 -0.2690
  139MOL0     H18704   7.604   8.607   2.794  0.8879  1.0489  0.3496
  139MOL0     H18705   7.521   8.532   2.928 -1.5804  2.9382  1.1665
  139MOL0     H18706   7.342   8.454   2.805 -1.2540  4.2102  1.7306
  139MOL0     H18707   7.380   8.543   2.654 -2.1073 -1.3341 -0.5227
  139MOL0     H18708   7.449   8.316   2.619 -0.5925  4.2242 -2.3470
  139MOL0     H18709   7.583   8.418   2.607  1.2446 -2.4261  0.7324
  139MOL0     H18710   7.637   8.206   2.711 -0.7054 -0.4126 -0.2899
  139MOL0     H18711   7.672   8.334   2.822 -0.7829 -0.2175  1.8253
  139MOL0     H18712   7.545   8.166   2.944 -0.4953  1.1612  0.3518
  139MOL0     H18713   7.446   8.296   2.940  0.5569  0.2532  1.0026
  139MOL0     H18714   7.408   8.058   2.759  1.0601  0.6722  0.5477
  139MOL0     H18715   7.293   8.204   2.766 -2.1967 -1.1261  1.1501
  139MOL0     H18716   7.397   7.883   2.923  1.3348  1.9893 -0.0502
  139MOL0     H18717   7.329   7.743   3.134 -0.2714 -0.8478 -0.6468
  139MOL0     H18718   7.290   7.847   3.281 -0.7419 -1.2088  1.0528
  139MOL0     H18719   7.056   7.804   3.285 -0.2340 -4.0860  2.9836
  139MOL0     H18720   7.134   7.658   3.273  0.0066  1.5307  1.0838
  139MOL0     H18721   7.098   7.675   3.010 -0.9211  1.7719 -1.2264
  139MOL0     H18722   7.031   7.836   3.028  0.9444  0.8005  0.7498
  139MOL0     H18723   6.878   7.620   3.179  1.5779  0.0378  1.2368
  139MOL0     H18724   6.849   7.665   3.005  0.0622  1.8312  0.2381
  139MOL0     H18725   6.647   7.607   3.072  3.4808  1.7390  0.1199
  139MOL0     H18726   6.430   7.509   3.030 -0.9094 -1.1376 -0.6004
  139MOL0     H18727   6.297   7.564   3.123 -1.2425  1.5082 -0.6801
  139MOL0     H18728   6.333   7.626   2.958 -1.6695 -0.5409  1.3873
  139MOL0     H18729   6.062   7.915   3.359  2.3792 -1.7797  0.9604
  139MOL0     H18730   5.831   7.892   3.434 -2.4460  1.1275 -1.1356
  139MOL0     H18731   5.616   7.889   3.416  2.6310 -0.6911 -1.3233
  139MOL0     H18732   5.568   7.882   3.241 -2.0189 -1.9106  0.1822
  139MOL0     H18733   5.402   7.722   3.449 -0.8645  1.2851  1.5092
  139MOL0     H18734   5.364   7.890   3.391 -1.7172 -1.1169 -1.9300
  139MOL0     H18735   5.395   7.645   3.239  1.8285  1.3382  1.8572
  139MOL0     H18736   5.377   7.806   3.156  2.1520  1.0085  0.3522
  139MOL0     H18737   5.172   7.740   3.353 -0.2257  1.4290 -0.7058
  139MOL0     H18738   5.145   7.819   3.206 -1.3591 -0.9811 -0.4454
  139MOL0     H18739   5.204   7.520   3.238 -2.0076 -1.0303  0.4874
  139MOL0     H18740   5.191   7.590   3.084  2.5226  2.4286  1.0922
  139MOL0     H18741   4.964   7.586   3.299 -1.1854  0.9973 -0.0445
  139MOL0     H18742   4.956   7.654   3.133  0.5170 -0.2973 -1.6847
  139MOL0     H18743   5.026   7.357   3.203 -0.3191  0.4761 -0.3550
  139MOL0     H18744   4.984   7.406   3.046  3.6203  2.4649  0.1887
  139MOL0     H18745   4.787   7.284   3.142 -1.6957  1.2084 -0.4915
  139MOL0     H18746   4.739   7.464   3.137  1.4079  1.1119 -0.8798
  139MOL0     H18747   5.775   7.566   3.164 -0.4379 -0.5360  2.1201
  139MOL0     H18748   6.009   7.581   3.091 -1.8463  1.3181 -1.5553
  139MOL0     H18749   6.468   8.027   3.245 -2.4974 -0.4280 -0.1116
  139MOL0     H18750   6.706   7.996   3.236  2.8439 -0.5101 -0.4668
  139MOL0     H18751   7.644   8.904   2.739  0.2948 -2.1351  3.9180
  139MOL0     H18752   7.739   9.145   2.679  0.6971 -1.1996  0.7106
  139MOL0     H18753   7.554   9.645   2.540 -1.6273  1.5843  3.3927
  139MOL0     H18754   7.698   9.830   2.464  2.8566  2.5632  0.8681
  139MOL0     H18755   8.101   9.898   2.658  2.7329 -2.2626 -1.3216
  139MOL0     H18756   8.116   9.802   2.531 -1.2590 -1.0147  1.6482
  139MOL0     H18757   8.033  10.087   2.460 -1.5909 -1.9299 -2.0392
  139MOL0     H18758   8.134   9.984   2.364 -0.6044 -2.5907  0.5427
  139MOL0     H18759   8.303  10.011   2.567  2.6293 -0.4210 -3.6268
  139MOL0     H18760   8.198  10.156   2.596  0.8895  1.3163 -0.8967
  139MOL0     H18761   8.339  10.080   2.334 -0.1530 -0.3010 -0.1681
  139MOL0     H18762   8.411  10.180   2.449  1.5991 -0.9391 -2.9276
  139MOL0     H18763   8.084  10.442   2.336 -0.9196 -0.5379 -1.0951
  139MOL0     H18764   8.019   9.690   2.694  0.5298  0.8815 -1.6571
  139MOL0     H18765   7.885   9.510   2.778 -2.1230  2.7470  3.0971
  140MOL0     O18766  11.098  10.608  10.407  0.0878  0.1955  0.2340
  140MOL0     C18767  11.152  10.505  10.383  0.0653 -0.2593  0.4648
  140MOL0     O18768  11.079  10.397  10.347 -0.7341 -0.0834  0.1295
  140MOL0     C18769  10.941  10.411  10.346 -1.0925  1.1921  0.2824
  140MOL0     C18770  10.854  10.472  10.248 -0.6940 -0.4751 -0.1602
  140MOL0     C18771  10.721  10.458  10.242 -0.4174  0.9281  0.6144
  140MOL0     C18772  10.653  10.393  10.350 -0.8912 -1.0002 -0.4656
  140MOL0     O18773  10.515  10.392  10.343 -0.6287  0.5389 -0.1491
  140MOL0     C18774  10.441  10.382  10.472  0.3887  0.0411  0.0373
  140MOL0     C18775  10.294  10.371  10.451  0.3132 -0.5196  0.4371
  140MOL0     C18776  10.218  10.352  10.580  0.4890 -0.5148  0.1795
  140MOL0     C18777  10.245  10.224  10.652 -0.3547  1.0663 -0.6413
  140MOL0     C18778  10.115  10.164  10.687 -0.2006  0.4286  0.7292
  140MOL0     C18779  10.062  10.061  10.580 -1.2819 -0.0041  0.5197
  140MOL0     C18780   9.911  10.050  10.607  0.6596  0.1563 -0.5342
  140MOL0     C18781   9.839   9.954  10.508 -0.1239 -0.1155  0.4009
  140MOL0     N18782   9.714   9.884  10.552 -0.7373 -0.0889 -0.1416
  140MOL0     C18783   9.667   9.768  10.484 -0.1675 -0.1237 -0.0462
  140MOL0     C18784   9.587   9.697  10.571 -0.8508  0.1200 -0.6282
  140MOL0     C18785   9.499   9.585  10.538 -0.1120 -0.6681  0.1924
  140MOL0     C18786   9.523   9.471  10.636  0.7018 -0.6125  0.1318
  140MOL0     C18787   9.469   9.339  10.594  0.2931  0.0801  0.4368
  140MOL0     C18788   9.317   9.342  10.584  0.5128 -0.3229  0.5253
  140MOL0     O18789   9.253   9.324  10.711  0.9155  0.1476 -0.4753
  140MOL0     C18790   9.131   9.379  10.733 -0.0055  0.5747  0.4990
  140MOL0     C18791   9.015   9.307  10.703 -1.5157  0.7272  0.1562
  140MOL0     C18792   8.889   9.355  10.734  0.2344 -0.6077 -0.4881
  140MOL0     C18793   8.767   9.276  10.709  0.2824  1.0276 -0.3294
  140MOL0     C18794   8.867   9.481  10.795 -0.6488 -0.2351  0.0553
  140MOL0     C18795   8.749   9.540  10.842  1.0046  0.6556  0.0133
  140MOL0     O18796   8.679   9.475  10.935 -0.7439  0.8616  0.2243
  140MOL0     C18797   8.538   9.487  10.945 -0.5502  0.3157  0.7798
  140MOL0     C18798   8.481   9.461  11.068 -0.7330 -0.0172  0.7167
  140MOL0     C18799   8.349   9.451  11.082  1.4105 -0.2494 -0.7034
  140MOL0     C18800   8.264   9.450  10.975  0.4805 -0.3636  0.8326
  140MOL0     O18801   8.131   9.447  11.001  0.4841  0.5809 -0.5597
  140MOL0     C18802   8.062   9.335  10.944  0.2927 -0.1854  0.7062
  140MOL0     C18803   7.968   9.379  10.832 -0.0134  0.1103  0.1029
  140MOL0     C18804   7.848   9.464  10.884 -0.2576 -1.2677  0.5224
  140MOL0     C18805   7.748   9.506  10.779 -0.1286  0.3874 -0.2552
  140MOL0     C18806   7.653   9.385  10.743 -0.4499 -0.1120  0.2683
  140MOL0     C18807   7.555   9.431  10.629  0.1977 -0.5076 -0.2722
  140MOL0     C18808   7.457   9.315  10.622  0.8154 -0.4016 -0.2212
  140MOL0     C18809   7.381   9.328  10.491  0.0254  1.0501  0.8125
  140MOL0    Cl18810   7.478   9.265  10.352  0.2507  0.5658 -0.4816
  140MOL0     C18811   8.314   9.483  10.847  0.1667  0.5046  0.8110
  140MOL0     C18812   8.452   9.499  10.830  0.9585  0.0936 -0.4806
  140MOL0     O18813   8.714   9.653  10.801 -1.3872 -0.2882 -0.2664
  140MOL0     C18814   8.989   9.561  10.823 -0.0545 -0.3729  0.1802
  140MOL0     C18815   9.115   9.507  10.782 -0.2882  0.0988 -0.6676
  140MOL0     N18816   9.604   9.763  10.700 -1.3931 -0.0273 -0.1113
  140MOL0     N18817   9.682   9.869  10.683 -0.3132  0.3371  0.0843
  140MOL0     C18818  10.734  10.313  10.441  0.1669  0.3602 -0.2118
  140MOL0     C18819  10.869  10.329  10.437 -0.2915 -0.2363 -0.0861
  140MOL0     C18820  11.297  10.482  10.400 -0.4298 -0.0370  0.2603
  140MOL0     C18821  11.391  10.580  10.375  0.0539 -0.2474  0.1257
  140MOL0     C18822  11.531  10.557  10.370 -0.2332 -0.9289  0.6180
  140MOL0     C18823  11.573  10.428  10.387  0.5836  0.5039 -0.3597
  140MOL0     O18824  11.708  10.406  10.377 -0.1237  0.2880  0.1656
  140MOL0     C18825  11.767  10.287  10.440 -0.2201 -0.7383  0.6463
  140MOL0     C18826  11.754  10.292  10.599 -0.1859 -0.1475 -0.1276
  140MOL0     C18827  11.859  10.377  10.676  0.4834  1.1606  0.4348
  140MOL0     C18828  12.005  10.330  10.683  0.4576 -0.0022 -0.7419
  140MOL0     C18829  12.016  10.191  10.718 -0.1565 -0.0382 -0.2008
  140MOL0     C18830  12.047  10.078  10.758 -0.1788  0.2336  0.2621
  140MOL0     C18831  11.474  10.328  10.417  0.1212  0.6647  0.8116
  140MOL0     C18832  11.338  10.356  10.418 -0.8639  0.0743 -0.1514
  140MOL0     H18833  10.896  10.527  10.164 -0.6467 -1.0265 -0.5024
  140MOL0     H18834  10.664  10.499  10.159 -1.3034 -1.2086  0.0989
  140MOL0     H18835  10.482  10.299  10.530  0.1998  0.0335  0.1586
  140MOL0     H18836  10.447  10.479  10.523  0.2933 -0.0311  0.1839
  140MOL0     H18837  10.259  10.458  10.393  1.3427 -1.6870 -2.0979
  140MOL0     H18838  10.276  10.293  10.377  2.1299  0.0028 -0.6163
  140MOL0     H18839  10.224  10.437  10.649 -2.7859  0.2896 -0.3302
  140MOL0     H18840  10.113  10.357  10.548  0.0116  1.6122  1.8112
  140MOL0     H18841  10.295  10.153  10.586  0.5527  2.1539 -1.1761
  140MOL0     H18842  10.296  10.233  10.748 -1.0917  1.1631 -0.2460
  140MOL0     H18843  10.124  10.109  10.781  1.9718 -1.1795 -0.3253
  140MOL0     H18844  10.041  10.243  10.704 -0.8221  0.4661 -1.7369
  140MOL0     H18845  10.087  10.112  10.486  1.0135 -1.4058  0.2977
  140MOL0     H18846  10.112   9.964  10.579 -0.1173  0.5038 -3.0134
  140MOL0     H18847   9.902  10.004  10.706  1.9540  1.0914  0.0438
  140MOL0     H18848   9.855  10.144  10.613 -3.9687 -2.3593  2.8620
  140MOL0     H18849   9.912   9.883  10.469 -0.9384 -0.5007 -0.4456
  140MOL0     H18850   9.804  10.004  10.417  0.2821 -2.9364 -1.4156
  140MOL0     H18851   9.677   9.739  10.380  0.4305 -1.9980  0.4945
  140MOL0     H18852   9.398   9.625  10.553  0.8485  2.7975 -1.5883
  140MOL0     H18853   9.503   9.554  10.433  1.2680 -0.3513  0.1368
  140MOL0     H18854   9.484   9.505  10.732  1.6731  2.7532 -0.5401
  140MOL0     H18855   9.630   9.456  10.649  1.5571  4.6640  1.4210
  140MOL0     H18856   9.496   9.266  10.671  1.0098 -0.4626 -0.3235
  140MOL0     H18857   9.516   9.303  10.503 -1.0348 -2.0938  0.5402
  140MOL0     H18858   9.288   9.257  10.522 -1.7098  1.4533 -1.0423
  140MOL0     H18859   9.271   9.423  10.525  1.3945 -1.4360 -1.7787
  140MOL0     H18860   9.029   9.210  10.656 -1.3006 -0.1022  1.8618
  140MOL0     H18861   8.678   9.333  10.681 -0.5653  1.8116  3.3730
  140MOL0     H18862   8.786   9.201  10.632 -2.5814  0.4997 -0.6031
  140MOL0     H18863   8.738   9.205  10.787  1.3790 -0.3247 -1.1181
  140MOL0     H18864   8.543   9.447  11.156 -0.7959 -4.2755  0.3163
  140MOL0     H18865   8.304   9.425  11.177  0.1903  2.0602 -0.5932
  140MOL0     H18866   8.133   9.261  10.906  1.1375  1.3114 -0.7380
  140MOL0     H18867   8.012   9.271  11.018  1.1492 -0.9133  0.6684
  140MOL0     H18868   8.012   9.447  10.759 -3.1357  1.8933 -0.2995
  140MOL0     H18869   7.931   9.290  10.781  2.5691 -1.0523  0.0807
  140MOL0     H18870   7.903   9.554  10.915  2.5483 -0.6044 -5.1177
  140MOL0     H18871   7.792   9.421  10.968  0.1267 -2.4396  0.1904
  140MOL0     H18872   7.695   9.593  10.817 -0.5732  0.1996 -0.4359
  140MOL0     H18873   7.790   9.532  10.681 -0.7221  1.4705 -0.2347
  140MOL0     H18874   7.609   9.343  10.834 -0.6926  1.4068  0.8762
  140MOL0     H18875   7.715   9.303  10.704  0.4125  1.7098 -2.4330
  140MOL0     H18876   7.513   9.528  10.656 -0.9767 -0.7566 -1.1385
  140MOL0     H18877   7.605   9.438  10.532 -0.4884 -1.8182 -0.7511
  140MOL0     H18878   7.385   9.317  10.704  1.0809  2.8149  0.0742
  140MOL0     H18879   7.511   9.220  10.627 -0.6813 -1.2289  1.8167
  140MOL0     H18880   7.347   9.431  10.480 -1.0581  0.8298  1.8327
  140MOL0     H18881   7.289   9.268  10.491 -0.3746  1.5850 -1.5240
  140MOL0     H18882   8.250   9.491  10.760  1.1440 -1.8012 -0.1881
  140MOL0     H18883   8.488   9.526  10.731  2.0534  0.6354  0.0363
  140MOL0     H18884   8.987   9.656  10.875 -0.0458  0.2387 -0.9016
  140MOL0     H18885   9.203   9.563  10.814 -1.9500  1.5628  1.6914
  140MOL0     H18886  10.683  10.238  10.500 -0.0214  0.4405 -0.2729
  140MOL0     H18887  10.935  10.280  10.508 -2.1801 -1.4502  0.9182
  140MOL0     H18888  11.348  10.673  10.341  2.2848  3.0271  5.0175
  140MOL0     H18889  11.600  10.636  10.341 -1.2245 -0.1541  0.3277
  140MOL0     H18890  11.726  10.192  10.405 -3.6615  0.2710  1.5750
  140MOL0     H18891  11.874  10.290  10.417 -0.2363 -0.2921  0.6086
  140MOL0     H18892  11.767  10.186  10.621  1.5335 -0.0251 -0.4390
  140MOL0     H18893  11.655  10.329  10.626 -0.2186 -1.2063  1.3250
  140MOL0     H18894  11.822  10.385  10.779 -2.4423  0.5415 -0.4611
  140MOL0     H18895  11.852  10.478  10.634 -1.9647  0.7346 -0.3460
  140MOL0     H18896  12.064  10.378  10.762 -1.4131 -0.8364  1.2825
  140MOL0     H18897  12.052  10.350  10.587 -0.6676  1.1832 -1.0700
  140MOL0     H18898  12.075   9.986  10.806  2.4948  1.6278  1.6190
  140MOL0     H18899  11.509  10.227  10.434  0.4590  0.4122 -1.1430
  140MOL0     H18900  11.262  10.282  10.442 -0.5737 -0.2298 -0.1673
  141MOL0     O18901   8.440   4.375   2.249  0.3787 -0.0098 -0.7353
  141MOL0     C18902   8.407   4.313   2.350  0.0500  0.3777  0.0977
  141MOL0     O18903   8.461   4.198   2.398 -0.4854 -0.6607 -0.5397
  141MOL0     C18904   8.568   4.135   2.335 -0.4706 -0.0900 -0.5723
  141MOL0     C18905   8.556   4.080   2.211  0.4701 -0.1874 -0.1435
  141MOL0     C18906   8.654   3.999   2.155  1.1096 -0.8570  0.1631
  141MOL0     C18907   8.780   3.983   2.218  0.2201 -0.4442 -0.2956
  141MOL0     O18908   8.874   3.894   2.177  0.0712  0.0130 -0.3130
  141MOL0     C18909   8.877   3.819   2.057  0.5097  0.5354 -0.2757
  141MOL0     C18910   8.972   3.695   2.061  0.6630 -0.2380 -0.6202
  141MOL0     C18911   9.119   3.733   2.084  0.3320  0.0314 -0.6558
  141MOL0     C18912   9.212   3.619   2.104  1.4810  0.1290  0.2501
  141MOL0     C18913   9.262   3.546   1.972  0.1943  0.2665 -0.5641
  141MOL0     C18914   9.283   3.397   1.995  0.0791  0.4641 -0.9483
  141MOL0     C18915   9.377   3.333   1.896 -0.2995  0.6645 -0.6935
  141MOL0     C18916   9.404   3.183   1.933  0.2501  0.4130  0.3854
  141MOL0     N18917   9.277   3.103   1.942  0.7464 -0.1345 -1.0809
  141MOL0     C18918   9.219   3.033   1.842  0.2959  0.1821 -0.4622
  141MOL0     C18919   9.107   2.979   1.893 -0.8030 -1.0045  0.3539
  141MOL0     C18920   9.014   2.888   1.815 -0.3190 -0.5121 -0.6020
  141MOL0     C18921   8.885   2.960   1.774  1.1718  0.3832 -0.0841
  141MOL0     C18922   8.763   2.870   1.742  0.3571  0.3734  0.0242
  141MOL0     C18923   8.638   2.953   1.694 -0.7015 -0.6887  0.8361
  141MOL0     O18924   8.571   2.875   1.602  0.1147  0.1617 -0.1843
  141MOL0     C18925   8.604   2.891   1.465  0.3441 -0.2392 -0.8744
  141MOL0     C18926   8.710   2.962   1.404 -0.0387 -0.0952 -0.1508
  141MOL0     C18927   8.730   2.972   1.260  0.5020  0.2240 -0.5949
  141MOL0     C18928   8.848   3.049   1.210 -0.0288  0.1024  0.1860
  141MOL0     C18929   8.630   2.917   1.177  0.1262  0.0518 -0.8209
  141MOL0     C18930   8.622   2.940   1.032  0.5859  0.2054 -0.4590
  141MOL0     O18931   8.565   2.841   0.947  0.6805 -0.7638  0.3931
  141MOL0     C18932   8.571   2.866   0.813  0.1834  0.4845  0.8143
  141MOL0     C18933   8.456   2.840   0.736 -0.4461  0.1174 -0.4163
  141MOL0     C18934   8.446   2.846   0.594  0.0041 -0.2900  0.2305
  141MOL0     C18935   8.570   2.862   0.526  0.0882 -0.5719  0.2461
  141MOL0     O18936   8.577   2.855   0.391 -0.0552  0.3667  0.2163
  141MOL0     C18937   8.669   2.935   0.315 -0.5984 -0.4700  0.3452
  141MOL0     C18938   8.588   2.987   0.199 -0.1471 -0.0754 -0.1220
  141MOL0     C18939   8.475   3.068   0.248  0.0108 -0.3225  0.4395
  141MOL0     C18940   8.454   3.198   0.163  0.3409  0.4707  0.1963
  141MOL0     C18941   8.339   3.287   0.209 -0.0419  0.4393  0.0431
  141MOL0     C18942   8.197   3.239   0.228  1.3611 -0.5968  0.0352
  141MOL0     C18943   8.092   3.354   0.262  0.5455 -0.5681 -0.5615
  141MOL0     C18944   7.942   3.318   0.263  0.4956 -0.1711 -0.7613
  141MOL0    Cl18945   7.899   3.179   0.375  0.3873 -0.3972 -0.0191
  141MOL0     C18946   8.685   2.892   0.603 -0.6689  0.1794  0.2867
  141MOL0     C18947   8.688   2.879   0.743  0.0605 -0.6711 -0.6557
  141MOL0     O18948   8.673   3.038   0.987  0.2357 -0.6581  0.0106
  141MOL0     C18949   8.525   2.840   1.235 -0.7809  0.0800  0.1739
  141MOL0     C18950   8.514   2.830   1.376 -0.6876  0.1515 -0.8638
  141MOL0     N18951   9.106   3.009   2.026  0.5100  0.0524  0.0503
  141MOL0     N18952   9.201   3.081   2.055 -0.3472  0.6105 -0.4915
  141MOL0     C18953   8.793   4.049   2.346  0.1143  0.7937  0.7517
  141MOL0     C18954   8.686   4.118   2.403 -0.1213 -0.0938 -1.2852
  141MOL0     C18955   8.302   4.375   2.427  0.0582  0.7876 -0.4391
  141MOL0     C18956   8.269   4.327   2.560 -0.2832  0.2226  0.2193
  141MOL0     C18957   8.194   4.412   2.645  0.2164  0.2995  0.3133
  141MOL0     C18958   8.132   4.523   2.593  0.7747  0.4683 -0.3078
  141MOL0     O18959   8.076   4.609   2.679 -0.5828 -0.2159  0.0201
  141MOL0     C18960   7.973   4.570   2.762  0.9463  0.6359 -0.3678
  141MOL0     C18961   7.843   4.553   2.685  0.0413  0.2244  0.4997
  141MOL0     C18962   7.726   4.536   2.782 -0.8698  0.1244  0.0576
  141MOL0     C18963   7.594   4.567   2.702  0.5480 -0.6013  1.0423
  141MOL0     C18964   7.482   4.562   2.790  0.5650  0.2355  0.3129
  141MOL0     C18965   7.392   4.544   2.872  0.5458  0.0773 -0.4675
  141MOL0     C18966   8.165   4.581   2.465  0.1265 -0.2100  0.2764
  141MOL0     C18967   8.248   4.497   2.390  0.7010  0.0267  0.4317
  141MOL0     H18968   8.461   4.083   2.159  0.3522 -3.6105 -0.3506
  141MOL0     H18969   8.641   3.956   2.056 -1.7321 -0.3799  0.2313
  141MOL0     H18970   8.779   3.779   2.027  1.5831 -0.2480 -3.0545
  141MOL0     H18971   8.901   3.888   1.975 -1.4530  0.8286 -0.6675
  141MOL0     H18972   8.945   3.628   2.143  0.0022  1.5430  0.6738
  141MOL0     H18973   8.964   3.644   1.964 -0.4329  0.6469 -1.0238
  141MOL0     H18974   9.164   3.780   1.996  3.5885 -1.2474  0.1497
  141MOL0     H18975   9.136   3.803   2.167 -2.9955  0.6094 -0.3263
  141MOL0     H18976   9.295   3.659   2.162  0.5888  1.9911  0.3448
  141MOL0     H18977   9.157   3.553   2.172 -0.6567  0.7909 -0.7435
  141MOL0     H18978   9.192   3.564   1.890  1.1918 -0.3521 -1.5826
  141MOL0     H18979   9.361   3.583   1.944  0.9120  0.1643  1.6686
  141MOL0     H18980   9.324   3.374   2.094  0.8423  3.0691 -0.5795
  141MOL0     H18981   9.187   3.346   1.987 -0.4751  1.4163 -0.5461
  141MOL0     H18982   9.330   3.339   1.797  1.1249  0.0514 -1.4362
  141MOL0     H18983   9.467   3.396   1.897  0.6184 -0.5235  2.2723
  141MOL0     H18984   9.451   3.183   2.032 -0.8179  1.4513  0.9089
  141MOL0     H18985   9.461   3.138   1.851  0.5360  2.5941 -0.6813
  141MOL0     H18986   9.253   3.016   1.740  2.5473 -2.3404  0.5929
  141MOL0     H18987   9.067   2.844   1.729  2.5348  1.8786 -0.2327
  141MOL0     H18988   9.001   2.807   1.887  1.3647  1.2708  1.8934
  141MOL0     H18989   8.908   3.025   1.689  1.6187 -1.8488 -1.7844
  141MOL0     H18990   8.838   3.023   1.850  1.0419  2.1199 -1.5342
  141MOL0     H18991   8.742   2.814   1.834  1.9042 -0.0720  0.1357
  141MOL0     H18992   8.796   2.801   1.664 -1.8298 -1.0010  0.2378
  141MOL0     H18993   8.672   3.042   1.639 -0.3902 -1.4413 -0.2124
  141MOL0     H18994   8.564   2.994   1.764 -4.2983 -1.3469 -2.2725
  141MOL0     H18995   8.789   3.009   1.461 -0.0106  0.6111 -0.7601
  141MOL0     H18996   8.931   3.071   1.278 -1.6592  2.9729  1.4608
  141MOL0     H18997   8.889   2.992   1.126  0.8880 -0.5943  1.0779
  141MOL0     H18998   8.828   3.151   1.175 -1.4721 -0.0098  0.6055
  141MOL0     H18999   8.366   2.813   0.790 -0.0498 -1.1616 -0.3862
  141MOL0     H19000   8.353   2.830   0.541  0.9132 -0.9881 -1.2024
  141MOL0     H19001   8.709   3.018   0.373 -2.0509  0.6345 -0.1637
  141MOL0     H19002   8.751   2.879   0.269  0.0338  1.3879 -0.9229
  141MOL0     H19003   8.665   3.043   0.145  1.4920 -2.1880 -0.1061
  141MOL0     H19004   8.563   2.901   0.136 -0.1043  0.7442 -1.2881
  141MOL0     H19005   8.496   3.088   0.353  0.3245  1.4874  0.0606
  141MOL0     H19006   8.382   3.010   0.244  1.9244 -3.7741  2.0262
  141MOL0     H19007   8.549   3.251   0.162  0.7861 -0.1622  2.4617
  141MOL0     H19008   8.430   3.171   0.060 -0.7464 -0.3511  0.6429
  141MOL0     H19009   8.324   3.359   0.128 -4.0373 -1.3947 -1.0825
  141MOL0     H19010   8.370   3.334   0.303  0.6639 -2.0620  1.1342
  141MOL0     H19011   8.162   3.194   0.135  1.5724 -0.9116  0.1071
  141MOL0     H19012   8.190   3.161   0.304 -1.3694 -1.6826 -1.1962
  141MOL0     H19013   8.102   3.437   0.192  0.5019  0.4788  0.6329
  141MOL0     H19014   8.108   3.392   0.363  1.4475  0.4441 -1.0797
  141MOL0     H19015   7.906   3.296   0.162  0.3686 -0.0730 -0.7386
  141MOL0     H19016   7.884   3.405   0.296  2.3333  0.9531 -0.3211
  141MOL0     H19017   8.780   2.917   0.558 -0.0524  1.1744  2.0174
  141MOL0     H19018   8.776   2.909   0.799 -0.9608  0.1259  0.5841
  141MOL0     H19019   8.454   2.783   1.176 -2.8131  0.9332  1.6840
  141MOL0     H19020   8.427   2.789   1.427 -0.5396 -1.0810 -1.5708
  141MOL0     H19021   8.882   4.020   2.401 -1.2046 -1.3041  1.9290
  141MOL0     H19022   8.697   4.156   2.504 -1.2387  0.9298 -1.5354
  141MOL0     H19023   8.314   4.236   2.597  1.2916  0.3945 -1.1892
  141MOL0     H19024   8.192   4.390   2.752 -2.3321 -3.2228 -0.2961
  141MOL0     H19025   8.002   4.482   2.822 -2.3457 -0.6454 -0.4684
  141MOL0     H19026   7.963   4.646   2.840 -1.9286 -1.5413  1.6228
  141MOL0     H19027   7.853   4.462   2.624  0.5909  0.8755 -0.4160
  141MOL0     H19028   7.831   4.641   2.621  1.7070  1.6100  1.9942
  141MOL0     H19029   7.735   4.607   2.864  1.0913 -0.9409  0.8161
  141MOL0     H19030   7.737   4.439   2.830  3.0124  0.8589  0.9604
  141MOL0     H19031   7.585   4.491   2.623  0.7351  0.2128  0.2176
  141MOL0     H19032   7.604   4.666   2.658  2.6446 -1.1983  0.0218
  141MOL0     H19033   7.311   4.540   2.942 -0.0986  2.5679 -0.9920
  141MOL0     H19034   8.124   4.671   2.420 -0.3351 -0.8067 -0.5240
  141MOL0     H19035   8.283   4.540   2.296  1.5481 -0.6841  0.4133
  142MOL0     O19036   4.801   5.006  11.263 -0.0369  0.6310 -0.1888
  142MOL0     C19037   4.745   4.960  11.362 -0.1455  0.2950 -0.2088
  142MOL0     O19038   4.793   4.951  11.490 -0.2386 -0.0060  0.1406
  142MOL0     C19039   4.923   4.979  11.508  0.0056  0.6561  0.6707
  142MOL0     C19040   5.024   4.918  11.423 -0.2165 -0.6645 -0.4996
  142MOL0     C19041   5.157   4.952  11.453  0.2679 -0.8739  0.8494
  142MOL0     C19042   5.189   5.044  11.549  0.1281 -0.5398 -0.0831
  142MOL0     O19043   5.324   5.077  11.567  0.4764  0.4521  0.1042
  142MOL0     C19044   5.351   5.197  11.645  0.0025  0.3416 -0.4473
  142MOL0     C19045   5.505   5.238  11.631 -0.1120  0.3442 -0.8549
  142MOL0     C19046   5.551   5.342  11.728  0.4945 -0.2692  0.1247
  142MOL0     C19047   5.590   5.280  11.868 -0.5342 -0.2831 -0.6748
  142MOL0     C19048   5.641   5.399  11.960  0.5887  0.0406  0.5300
  142MOL0     C19049   5.539   5.500  12.021 -0.3037  0.9262  0.7696
  142MOL0     C19050   5.446   5.449  12.131  0.7882 -0.4226  0.5489
  142MOL0     C19051   5.310   5.381  12.091  0.4916  0.5902  1.1898
  142MOL0     N19052   5.231   5.448  11.988  0.0841 -0.3623  0.2917
  142MOL0     C19053   5.105   5.495  12.007 -0.0325  0.4947  0.5952
  142MOL0     C19054   5.045   5.519  11.883  1.0115 -0.0108 -0.3532
  142MOL0     C19055   4.910   5.588  11.836 -0.0517 -1.1189  0.2733
  142MOL0     C19056   4.792   5.493  11.857 -0.3382 -0.3419  0.9907
  142MOL0     C19057   4.785   5.463  12.015 -0.1877 -0.4289  0.3935
  142MOL0     C19058   4.651   5.407  12.044 -0.3142 -0.0671 -0.0045
  142MOL0     O19059   4.642   5.378  12.185  0.0069 -0.7430  0.1555
  142MOL0     C19060   4.523   5.317  12.228 -0.7273 -0.6862  0.0418
  142MOL0     C19061   4.396   5.338  12.164 -0.0099  0.3020  0.5016
  142MOL0     C19062   4.279   5.307  12.233  0.8757  0.1820 -0.1770
  142MOL0     C19063   4.154   5.367  12.167 -0.2514 -0.8332  0.2902
  142MOL0     C19064   4.280   5.233  12.364 -0.5864  0.2590 -0.2309
  142MOL0     C19065   4.169   5.195  12.441 -0.0887  0.2771  0.5915
  142MOL0     O19066   4.198   5.136  12.564 -0.0831 -0.0925  0.1020
  142MOL0     C19067   4.100   5.114  12.653 -0.8081  1.2728  0.2010
  142MOL0     C19068   3.963   5.138  12.644 -0.0494 -0.5981 -0.4774
  142MOL0     C19069   3.872   5.113  12.753 -0.3369 -0.9893 -0.4641
  142MOL0     C19070   3.922   5.061  12.872 -1.7380 -0.2633  0.4656
  142MOL0     O19071   3.848   5.047  12.983  0.3194  0.6920 -0.4243
  142MOL0     C19072   3.704   5.030  12.971  0.7401  0.7104 -0.5033
  142MOL0     C19073   3.655   4.896  12.915 -0.1032 -0.5985 -0.2250
  142MOL0     C19074   3.501   4.917  12.865 -1.1577 -0.2096  0.0661
  142MOL0     C19075   3.524   4.927  12.718  0.0293 -0.7336  0.4592
  142MOL0     C19076   3.411   4.987  12.647 -0.1235  0.2883  0.3355
  142MOL0     C19077   3.437   5.017  12.493  0.3477  0.2750 -0.0126
  142MOL0     C19078   3.331   5.098  12.417  0.1462 -0.8753  0.6632
  142MOL0     C19079   3.370   5.125  12.273  0.3527 -0.4413  0.5479
  142MOL0    Cl19080   3.522   5.212  12.254  0.2290  0.5305  0.3724
  142MOL0     C19081   4.064   5.040  12.880 -0.5173 -0.8117  0.2989
  142MOL0     C19082   4.149   5.058  12.771 -0.1375 -0.5255 -1.5574
  142MOL0     O19083   4.062   5.205  12.387 -0.2992 -1.3178  0.2058
  142MOL0     C19084   4.407   5.214  12.418  0.2973  1.5810  0.1878
  142MOL0     C19085   4.524   5.253  12.349  0.8558 -0.4001 -0.5984
  142MOL0     N19086   5.131   5.472  11.788 -0.3914  0.4744 -0.3633
  142MOL0     N19087   5.233   5.418  11.851  0.3096 -0.6478  0.3652
  142MOL0     C19088   5.083   5.094  11.631 -0.3162 -0.3795  0.7446
  142MOL0     C19089   4.955   5.065  11.612  0.8486 -0.4559 -0.0943
  142MOL0     C19090   4.601   4.955  11.349 -0.4450  0.0437  0.4022
  142MOL0     C19091   4.526   4.884  11.446 -0.5424 -0.4172  0.2259
  142MOL0     C19092   4.390   4.867  11.446  0.1777  0.0361 -0.5246
  142MOL0     C19093   4.318   4.936  11.343 -1.1566  0.5760 -0.6296
  142MOL0     O19094   4.174   4.940  11.336 -0.1022 -0.1807  0.1203
  142MOL0     C19095   4.095   4.901  11.449 -0.0259  0.0267  0.3576
  142MOL0     C19096   3.945   4.934  11.424 -0.1731  0.2897 -0.8349
  142MOL0     C19097   3.861   4.918  11.546 -0.6858 -0.2664 -0.5785
  142MOL0     C19098   3.714   4.928  11.522 -0.6323 -0.6929 -0.2793
  142MOL0     C19099   3.677   5.066  11.477 -0.0497 -0.9523  0.6439
  142MOL0     C19100   3.617   5.174  11.467 -0.3544  0.8344 -0.1716
  142MOL0     C19101   4.382   5.002  11.242  0.1487 -0.2841  1.1073
  142MOL0     C19102   4.524   5.015  11.246  0.1630  0.0840  0.8461
  142MOL0     H19103   5.003   4.850  11.341  1.1629 -2.4007  0.5052
  142MOL0     H19104   5.229   4.906  11.386 -0.0544  0.1216 -0.2199
  142MOL0     H19105   5.291   5.283  11.610 -0.8379  0.1134  0.4022
  142MOL0     H19106   5.349   5.179  11.752  3.3204  1.9302  0.0219
  142MOL0     H19107   5.565   5.147  11.646  0.6457  0.4330 -3.0490
  142MOL0     H19108   5.529   5.276  11.532 -0.3795 -0.2358 -1.1503
  142MOL0     H19109   5.637   5.393  11.685  1.2210 -0.7643  0.9570
  142MOL0     H19110   5.472   5.417  11.743  0.7430  0.4300 -1.8116
  142MOL0     H19111   5.511   5.221  11.915  0.1462 -0.8600 -0.2147
  142MOL0     H19112   5.675   5.210  11.865 -1.9457 -2.0183 -2.5344
  142MOL0     H19113   5.694   5.353  12.045  3.6514  2.0695 -0.1029
  142MOL0     H19114   5.722   5.440  11.899  4.2357 -2.7051  3.0384
  142MOL0     H19115   5.598   5.581  12.065  2.0968 -2.0024  3.4531
  142MOL0     H19116   5.476   5.542  11.942 -0.7394 -2.0603 -0.6501
  142MOL0     H19117   5.503   5.393  12.206  1.5979  0.8448  0.9235
  142MOL0     H19118   5.416   5.540  12.184 -1.5431  0.4226 -2.0085
  142MOL0     H19119   5.242   5.372  12.177 -3.0660  0.3195 -1.4306
  142MOL0     H19120   5.330   5.277  12.063  2.1227  1.1855  0.0143
  142MOL0     H19121   5.067   5.521  12.105 -2.7240 -0.9762  0.0342
  142MOL0     H19122   4.898   5.674  11.903  1.9990 -1.5779  1.3079
  142MOL0     H19123   4.901   5.620  11.732  0.1352 -0.6964  0.3871
  142MOL0     H19124   4.812   5.400  11.803 -0.6916  0.7260 -1.1046
  142MOL0     H19125   4.695   5.532  11.824  0.5724  1.2748  0.0827
  142MOL0     H19126   4.802   5.551  12.077 -0.3272  0.4418 -0.7811
  142MOL0     H19127   4.857   5.388  12.050 -0.8151 -0.4625  1.6771
  142MOL0     H19128   4.642   5.313  11.990  0.1543  0.5523 -1.1969
  142MOL0     H19129   4.579   5.483  12.010  0.7060 -0.3803 -3.1304
  142MOL0     H19130   4.389   5.389  12.069 -1.8916 -1.6489 -0.4825
  142MOL0     H19131   4.177   5.441  12.090 -0.9033 -0.1308  0.7646
  142MOL0     H19132   4.100   5.284  12.122 -0.6991 -1.2672  1.5723
  142MOL0     H19133   4.098   5.418  12.246 -1.4363  2.9438 -2.7153
  142MOL0     H19134   3.923   5.199  12.563  0.0996  1.7118  1.1099
  142MOL0     H19135   3.765   5.121  12.738 -0.2993  1.4559  0.1614
  142MOL0     H19136   3.664   5.028  13.072 -1.7360  3.2418 -1.2851
  142MOL0     H19137   3.659   5.116  12.921 -1.7984  0.4495  1.1957
  142MOL0     H19138   3.727   4.860  12.841 -1.0667  4.0690 -3.8436
  142MOL0     H19139   3.672   4.815  12.988  1.0920 -0.3030 -0.1513
  142MOL0     H19140   3.459   5.009  12.905  0.1808 -0.2447  1.6862
  142MOL0     H19141   3.442   4.826  12.878  0.0346 -1.1256 -0.6729
  142MOL0     H19142   3.605   4.993  12.684 -0.6766 -0.4787 -0.7998
  142MOL0     H19143   3.525   4.825  12.677 -1.5901 -1.0733  1.1969
  142MOL0     H19144   3.380   5.084  12.687  1.3365  0.7286  0.4566
  142MOL0     H19145   3.325   4.920  12.653  1.4934 -1.7403  2.0090
  142MOL0     H19146   3.527   5.078  12.486 -0.3766  1.3496 -0.2199
  142MOL0     H19147   3.443   4.916  12.451  2.4921 -1.0219  3.0609
  142MOL0     H19148   3.323   5.196  12.465  2.2982 -0.2207 -0.1801
  142MOL0     H19149   3.229   5.059  12.410  0.6346 -1.9036 -1.9665
  142MOL0     H19150   3.289   5.186  12.232 -0.7336 -1.3452  1.2992
  142MOL0     H19151   3.378   5.036  12.210  1.2315 -0.8481  1.2107
  142MOL0     H19152   4.077   5.018  12.986  0.6351  0.9219  0.5690
  142MOL0     H19153   4.257   5.046  12.780  0.0465  1.1320 -1.2564
  142MOL0     H19154   4.423   5.173  12.517 -1.1644 -1.9324 -0.8838
  142MOL0     H19155   4.617   5.243  12.405  0.3061 -1.0610  0.2315
  142MOL0     H19156   5.104   5.151  11.721 -2.4830 -2.3878  2.6613
  142MOL0     H19157   4.881   5.115  11.674 -0.8442 -2.0326 -0.7216
  142MOL0     H19158   4.585   4.847  11.530  1.7925  1.0149 -0.6923
  142MOL0     H19159   4.344   4.817  11.531 -0.4837  1.4082 -0.0384
  142MOL0     H19160   4.103   4.792  11.450 -2.4911 -0.1990  0.5265
  142MOL0     H19161   4.120   4.951  11.543  1.6637 -0.6384  0.2933
  142MOL0     H19162   3.911   4.878  11.336  1.0441 -1.4401 -0.2710
  142MOL0     H19163   3.922   5.032  11.382 -3.6423  0.6133  1.4244
  142MOL0     H19164   3.884   4.999  11.615  1.9618  0.0479 -1.6999
  142MOL0     H19165   3.886   4.826  11.600  0.2849 -0.8489 -1.9492
  142MOL0     H19166   3.652   4.898  11.607 -2.7829 -0.2379 -1.6106
  142MOL0     H19167   3.693   4.848  11.450  1.6628 -1.1859 -0.4943
  142MOL0     H19168   3.563   5.267  11.469 -0.9201  0.5357  2.2160
  142MOL0     H19169   4.318   5.053  11.171  0.7389 -0.7416  0.2303
  142MOL0     H19170   4.569   5.085  11.176 -2.0966  0.5869 -0.1810
  143MOL0     O19171   2.590   8.706   9.364 -0.1838 -0.4530 -0.2963
  143MOL0     C19172   2.570   8.825   9.345 -0.0009 -0.2803 -0.7085
  143MOL0     O19173   2.456   8.876   9.283 -0.6141 -0.0431 -0.2232
  143MOL0     C19174   2.341   8.806   9.258  0.2021 -0.1596  0.8115
  143MOL0     C19175   2.341   8.675   9.196 -0.7940 -0.5311  0.1332
  143MOL0     C19176   2.224   8.604   9.156 -0.1951 -0.2738 -0.2058
  143MOL0     C19177   2.105   8.671   9.166  0.6211  0.2639  0.8083
  143MOL0     O19178   1.982   8.623   9.113 -0.6135  0.9177  0.2787
  143MOL0     C19179   1.989   8.530   9.003  0.0466  0.2912 -0.1087
  143MOL0     C19180   1.846   8.512   8.949 -0.4441  1.0597 -0.7018
  143MOL0     C19181   1.828   8.371   8.896 -0.3392 -0.3359  0.5871
  143MOL0     C19182   1.716   8.377   8.797  0.4357 -0.2523 -0.9781
  143MOL0     C19183   1.647   8.249   8.738 -0.2228  0.6671  0.1514
  143MOL0     C19184   1.745   8.150   8.668  0.8210 -0.9326 -0.2420
  143MOL0     C19185   1.667   8.029   8.610 -1.3205  0.2437 -0.4490
  143MOL0     C19186   1.606   7.928   8.710  0.7617 -0.5107 -1.5249
  143MOL0     N19187   1.703   7.849   8.777 -0.5617 -0.6025 -1.2403
  143MOL0     C19188   1.762   7.892   8.892 -1.0720 -0.8736 -0.7118
  143MOL0     C19189   1.870   7.814   8.901 -0.1508  0.1857 -0.2996
  143MOL0     C19190   1.974   7.844   9.009 -0.3944  0.7718  0.4224
  143MOL0     C19191   2.080   7.940   8.960 -0.7705 -0.8088  0.7879
  143MOL0     C19192   2.168   7.881   8.848  1.0454 -0.0935  0.4273
  143MOL0     C19193   2.294   7.967   8.837  0.2141 -0.5776 -0.2494
  143MOL0     O19194   2.377   7.948   8.959  0.2127  0.3596 -0.0379
  143MOL0     C19195   2.508   7.911   8.941 -0.0660  0.8521 -0.1583
  143MOL0     C19196   2.603   7.939   9.031 -0.3530 -0.2728  0.7136
  143MOL0     C19197   2.738   7.900   9.021 -0.2917  0.1475 -0.4185
  143MOL0     C19198   2.834   7.947   9.122  1.2099 -1.0466 -0.2016
  143MOL0     C19199   2.778   7.824   8.912  0.1383 -0.5056  0.7221
  143MOL0     C19200   2.913   7.801   8.870 -0.1082  0.4682  0.4680
  143MOL0     O19201   2.919   7.686   8.794  0.2103  0.1752 -0.3243
  143MOL0     C19202   3.028   7.620   8.753 -0.3153  0.0045  1.2667
  143MOL0     C19203   3.158   7.672   8.755  0.6038 -0.2321 -0.6309
  143MOL0     C19204   3.268   7.595   8.737  0.0267  0.4083 -0.3149
  143MOL0     C19205   3.254   7.451   8.739 -0.4081  0.4584 -0.0177
  143MOL0     O19206   3.365   7.368   8.762 -0.3500  0.5906  1.0604
  143MOL0     C19207   3.494   7.425   8.776 -0.7230  0.4670  0.0301
  143MOL0     C19208   3.539   7.465   8.629 -0.2407  0.1382 -0.3163
  143MOL0     C19209   3.644   7.579   8.625  0.0891 -0.2239  0.2812
  143MOL0     C19210   3.715   7.589   8.488 -0.3158  0.2451  0.4443
  143MOL0     C19211   3.825   7.696   8.472  0.0061  0.7423 -0.3131
  143MOL0     C19212   3.866   7.715   8.328  0.1562 -0.6708 -0.6388
  143MOL0     C19213   3.791   7.821   8.246 -0.8666  0.3935 -1.4184
  143MOL0     C19214   3.791   7.772   8.097 -0.2699 -0.7754 -0.4843
  143MOL0    Cl19215   3.961   7.771   8.031 -0.1626 -0.1836 -0.0901
  143MOL0     C19216   3.130   7.395   8.716  1.5228 -1.0172 -0.9107
  143MOL0     C19217   3.013   7.475   8.738 -0.0352  0.4651 -0.3130
  143MOL0     O19218   3.002   7.876   8.893 -0.9836 -0.7142  0.4028
  143MOL0     C19219   2.678   7.774   8.830  0.2055  0.8459  0.0454
  143MOL0     C19220   2.547   7.807   8.845 -0.2039 -0.7794  0.1465
  143MOL0     N19221   1.882   7.733   8.791 -0.9744  0.5253 -0.2510
  143MOL0     N19222   1.777   7.758   8.718 -0.4546 -0.9590 -0.0521
  143MOL0     C19223   2.090   8.800   9.234  0.1286  0.9768 -0.0299
  143MOL0     C19224   2.215   8.864   9.275 -0.6658  0.0814 -0.3843
  143MOL0     C19225   2.686   8.911   9.363 -0.4131 -0.0288  0.1362
  143MOL0     C19226   2.670   9.055   9.367 -0.2325  1.3396 -0.1408
  143MOL0     C19227   2.775   9.141   9.397 -0.5433  0.0962 -0.3063
  143MOL0     C19228   2.906   9.092   9.435  0.5477 -0.4980 -0.1579
  143MOL0     O19229   3.001   9.176   9.473 -0.2857 -0.5295  0.2498
  143MOL0     C19230   3.099   9.138   9.575  0.5765  0.4410  0.4356
  143MOL0     C19231   3.228   9.171   9.520  0.3418  0.2271  0.4050
  143MOL0     C19232   3.344   9.137   9.622 -0.5497 -0.9078 -0.2314
  143MOL0     C19233   3.481   9.141   9.556  0.4353  0.1115  0.0397
  143MOL0     C19234   3.581   9.182   9.663 -0.1893 -0.4119  0.6607
  143MOL0     C19235   3.657   9.213   9.753 -0.1696 -0.0241 -0.7763
  143MOL0     C19236   2.922   8.954   9.416  0.0159 -0.7477  0.5362
  143MOL0     C19237   2.817   8.862   9.383  0.1738  0.9944  0.0397
  143MOL0     H19238   2.430   8.615   9.177 -1.3823 -1.1620 -0.6990
  143MOL0     H19239   2.223   8.499   9.130  0.5829  0.1702 -2.1674
  143MOL0     H19240   2.053   8.562   8.920  1.0007 -0.5866  0.2715
  143MOL0     H19241   2.026   8.437   9.046  0.5906  1.9075  3.2041
  143MOL0     H19242   1.775   8.514   9.032  1.4989  0.1048  1.0822
  143MOL0     H19243   1.829   8.580   8.865  0.9326 -1.4725 -3.2176
  143MOL0     H19244   1.918   8.348   8.839  1.7517  1.1367  3.0898
  143MOL0     H19245   1.820   8.295   8.975  0.6387  0.7938  1.8005
  143MOL0     H19246   1.635   8.441   8.834  0.2897 -0.0286 -1.6646
  143MOL0     H19247   1.757   8.437   8.715  1.2171  0.9119  0.2260
  143MOL0     H19248   1.592   8.198   8.817  0.4383 -2.7128 -1.3726
  143MOL0     H19249   1.567   8.271   8.666 -0.5484 -0.2226  0.2295
  143MOL0     H19250   1.785   8.197   8.577 -0.8721 -0.5785 -0.8405
  143MOL0     H19251   1.825   8.118   8.735 -0.0736  1.2541  2.0253
  143MOL0     H19252   1.582   8.060   8.550 -0.0770  2.0778 -1.3341
  143MOL0     H19253   1.739   7.977   8.546  1.7565 -2.5406  4.5583
  143MOL0     H19254   1.550   7.861   8.644 -0.8367 -1.9012  1.0919
  143MOL0     H19255   1.534   7.986   8.769  2.0213  0.9674 -1.3570
  143MOL0     H19256   1.735   7.977   8.953 -1.4960 -1.3504 -0.2259
  143MOL0     H19257   1.930   7.883   9.101  0.4189  2.4867  0.1243
  143MOL0     H19258   2.014   7.744   9.028 -0.1197  0.3121 -2.1684
  143MOL0     H19259   2.150   7.963   9.040  0.7976  0.8891 -0.9735
  143MOL0     H19260   2.033   8.035   8.934  0.0390 -0.7265 -0.4858
  143MOL0     H19261   2.125   7.882   8.748  0.6586  1.9461  0.5626
  143MOL0     H19262   2.196   7.780   8.880 -1.3153 -0.1649  2.6346
  143MOL0     H19263   2.265   8.071   8.819 -2.0011 -0.0671  4.6036
  143MOL0     H19264   2.364   7.937   8.758  0.4820 -0.9777  0.1370
  143MOL0     H19265   2.568   7.997   9.116 -0.2323  0.8995 -0.0017
  143MOL0     H19266   2.785   8.010   9.197  0.6613 -1.0492 -0.5495
  143MOL0     H19267   2.889   7.875   9.182  0.1682 -0.8371  1.0420
  143MOL0     H19268   2.909   8.008   9.070  0.2451  1.6493  1.3355
  143MOL0     H19269   3.179   7.777   8.775 -0.1516  0.3885 -2.8257
  143MOL0     H19270   3.358   7.653   8.754 -1.6166  2.8382  0.6682
  143MOL0     H19271   3.498   7.508   8.848 -4.8167 -0.1666  1.2560
  143MOL0     H19272   3.564   7.356   8.822 -0.2971  2.9400  3.5036
  143MOL0     H19273   3.593   7.377   8.593  0.2408 -0.8585  2.6235
  143MOL0     H19274   3.450   7.492   8.572 -0.9842 -1.0869  0.2209
  143MOL0     H19275   3.729   7.574   8.694  0.9041 -1.5238 -0.7803
  143MOL0     H19276   3.589   7.670   8.655  0.4035 -0.0153  0.2271
  143MOL0     H19277   3.766   7.495   8.468  0.2579  0.7030 -0.2672
  143MOL0     H19278   3.634   7.612   8.418 -0.3199 -0.7382  0.1140
  143MOL0     H19279   3.916   7.663   8.522 -0.1296 -1.5175 -1.4466
  143MOL0     H19280   3.788   7.790   8.514 -0.0672  0.6269 -0.1181
  143MOL0     H19281   3.969   7.750   8.331 -0.1719  0.2894  1.8389
  143MOL0     H19282   3.856   7.615   8.285 -2.1996 -0.7566 -0.0432
  143MOL0     H19283   3.838   7.919   8.251  0.0318 -0.0790  0.3615
  143MOL0     H19284   3.688   7.831   8.282  0.1404 -0.0426  1.9065
  143MOL0     H19285   3.728   7.844   8.044  0.7079 -0.2830 -1.0038
  143MOL0     H19286   3.747   7.672   8.092 -1.1228 -0.3233 -3.6381
  143MOL0     H19287   3.124   7.287   8.722  2.4643 -0.9903  3.4027
  143MOL0     H19288   2.912   7.439   8.749 -0.5321  1.0160 -2.6204
  143MOL0     H19289   2.701   7.718   8.739 -0.1083  0.2130  0.3465
  143MOL0     H19290   2.483   7.772   8.765  2.4024 -2.2837 -1.4288
  143MOL0     H19291   2.001   8.861   9.243  0.3634  1.6070 -1.6289
  143MOL0     H19292   2.206   8.972   9.286 -0.8304 -0.0102  0.3814
  143MOL0     H19293   2.578   9.106   9.339 -0.4353  1.2128  0.2782
  143MOL0     H19294   2.760   9.247   9.382 -1.2768  0.0676  0.1785
  143MOL0     H19295   3.096   9.199   9.666  0.0707  0.3418  0.4856
  143MOL0     H19296   3.093   9.032   9.599  1.2851  0.2313 -0.2779
  143MOL0     H19297   3.230   9.277   9.492  3.7564  0.7331  2.0483
  143MOL0     H19298   3.243   9.109   9.431  1.9166  1.8264 -0.5019
  143MOL0     H19299   3.331   9.033   9.653  0.4767 -0.5494  1.5239
  143MOL0     H19300   3.340   9.199   9.712 -0.3186 -2.3269  0.7872
  143MOL0     H19301   3.482   9.219   9.479 -0.8137 -1.2075 -1.3926
  143MOL0     H19302   3.509   9.044   9.512 -0.4169 -0.6749  1.1932
  143MOL0     H19303   3.718   9.265   9.824 -0.9547 -0.7352  0.4752
  143MOL0     H19304   3.017   8.903   9.424  0.1452 -0.5639  0.1728
  143MOL0     H19305   2.845   8.758   9.373  1.7516  1.5006 -1.1716
  144MOL0     O19306   5.477   7.381   8.703 -0.3680  0.7861 -0.1942
  144MOL0     C19307   5.429   7.319   8.793 -0.9746 -0.3850  0.5442
  144MOL0     O19308   5.449   7.340   8.928  0.2892  0.0377  0.2481
  144MOL0     C19309   5.548   7.430   8.968  0.9832 -0.0767  0.4990
  144MOL0     C19310   5.683   7.385   8.965  0.2169 -0.0045  0.1981
  144MOL0     C19311   5.782   7.470   9.004  0.7185  0.3470 -0.1343
  144MOL0     C19312   5.761   7.604   9.046  0.3877  0.6692  0.8933
  144MOL0     O19313   5.856   7.696   9.088 -0.6275 -0.5418  0.5352
  144MOL0     C19314   5.991   7.650   9.115 -0.4152  0.3353 -0.5681
  144MOL0     C19315   6.000   7.568   9.256 -0.0649 -1.3989  0.7869
  144MOL0     C19316   6.088   7.446   9.252  0.4674  0.8387 -0.1690
  144MOL0     C19317   6.159   7.396   9.382 -0.8040  0.1169 -0.2563
  144MOL0     C19318   6.059   7.311   9.465  0.2641 -0.5989  0.9022
  144MOL0     C19319   6.110   7.302   9.611 -0.6123  0.1107  0.1214
  144MOL0     C19320   6.016   7.198   9.686 -1.1426 -0.1440  0.0674
  144MOL0     C19321   5.866   7.225   9.705 -1.2978 -0.6825 -0.6140
  144MOL0     N19322   5.835   7.340   9.797 -0.1150  0.5987  0.0213
  144MOL0     C19323   5.820   7.474   9.766  0.2505 -0.0288 -0.1739
  144MOL0     C19324   5.795   7.525   9.891  0.4275 -0.8541  0.5136
  144MOL0     C19325   5.761   7.669   9.925 -0.4538 -1.0345  0.7531
  144MOL0     C19326   5.871   7.740  10.013  1.0160 -0.5849 -0.1971
  144MOL0     C19327   5.842   7.895  10.023  0.1338  0.4445  0.1592
  144MOL0     C19328   5.726   7.914  10.122  0.3429  0.1057  0.3235
  144MOL0     O19329   5.700   8.058  10.141 -0.3985  0.5513  0.7463
  144MOL0     C19330   5.603   8.092  10.228 -0.4541 -0.1455 -0.5040
  144MOL0     C19331   5.524   8.002  10.304  0.0817  0.4152  0.1414
  144MOL0     C19332   5.442   8.040  10.415  0.1898 -0.1479  0.0614
  144MOL0     C19333   5.379   7.927  10.499  0.6911  0.4543  0.2086
  144MOL0     C19334   5.404   8.171  10.419 -0.4501  0.2548  0.6546
  144MOL0     C19335   5.287   8.211  10.509 -0.6215  0.6681 -0.8134
  144MOL0     O19336   5.259   8.147  10.631 -0.6427  0.8087  0.2178
  144MOL0     C19337   5.139   8.107  10.680  0.5054 -0.3606 -0.6698
  144MOL0     C19338   5.144   8.077  10.815 -0.6613  0.4894 -0.2376
  144MOL0     C19339   5.026   8.046  10.885 -0.0032 -1.0100  0.7312
  144MOL0     C19340   4.905   8.046  10.815 -0.0940 -0.0336 -0.4320
  144MOL0     O19341   4.794   8.006  10.887 -0.0853 -0.2471  0.3204
  144MOL0     C19342   4.775   7.867  10.890 -0.3283  0.3500  0.0586
  144MOL0     C19343   4.667   7.833  10.984 -0.0563  0.1915  1.0560
  144MOL0     C19344   4.533   7.857  10.915  0.6584 -0.5145  0.5013
  144MOL0     C19345   4.405   7.836  11.009  0.0690  1.0227  0.4805
  144MOL0     C19346   4.265   7.852  10.949 -0.2990 -0.1893 -0.6130
  144MOL0     C19347   4.152   7.805  11.037  0.0209 -0.1160  0.3612
  144MOL0     C19348   4.127   7.656  11.017  1.3558  0.3350 -0.7621
  144MOL0     C19349   4.018   7.613  11.115  0.2207 -0.5133 -1.0539
  144MOL0    Cl19350   3.970   7.441  11.112  0.4219 -0.5088  0.4574
  144MOL0     C19351   4.905   8.063  10.677  0.8609  0.0112 -0.0318
  144MOL0     C19352   5.024   8.105  10.607  1.0240  0.1143  0.7498
  144MOL0     O19353   5.247   8.320  10.478  0.3185 -0.0413 -0.0397
  144MOL0     C19354   5.473   8.262  10.334  0.3230 -0.4728 -0.7194
  144MOL0     C19355   5.566   8.226  10.236 -0.2746 -0.4273  0.5519
  144MOL0     N19356   5.817   7.427   9.993 -0.5107 -0.5402 -0.0850
  144MOL0     N19357   5.842   7.319   9.927  0.7011  0.1640 -0.6810
  144MOL0     C19358   5.625   7.644   9.042  0.4020 -0.3355 -0.1964
  144MOL0     C19359   5.518   7.560   8.999 -0.4409 -0.7788 -0.1103
  144MOL0     C19360   5.334   7.215   8.754 -0.6674  0.1602  0.7587
  144MOL0     C19361   5.355   7.148   8.624  0.7434 -0.8229 -0.8451
  144MOL0     C19362   5.270   7.046   8.588  0.2857  0.2830 -0.7597
  144MOL0     C19363   5.162   7.005   8.669  0.2947 -0.1281 -0.2745
  144MOL0     O19364   5.086   6.910   8.607 -0.8783 -0.2266  0.3329
  144MOL0     C19365   5.022   6.818   8.690 -0.2088 -0.0631  0.0751
  144MOL0     C19366   4.904   6.743   8.617 -1.0915  0.3538 -0.9999
  144MOL0     C19367   4.786   6.837   8.579  0.1276 -0.4850  0.1555
  144MOL0     C19368   4.695   6.856   8.700 -0.0356 -0.3495 -0.8810
  144MOL0     C19369   4.607   6.740   8.707 -0.4899 -0.5142  0.4428
  144MOL0     C19370   4.545   6.635   8.723 -0.3956 -0.6781  1.0487
  144MOL0     C19371   5.141   7.061   8.796 -0.1433 -0.0416  0.1873
  144MOL0     C19372   5.233   7.164   8.834  0.4161 -0.6252 -0.2585
  144MOL0     H19373   5.699   7.288   8.920  1.6464  0.6645 -0.8009
  144MOL0     H19374   5.880   7.423   9.012 -0.4053 -2.0170  0.7504
  144MOL0     H19375   6.041   7.595   9.035  0.8958 -1.3479  1.3209
  144MOL0     H19376   6.055   7.738   9.127  0.6669 -0.3945 -0.9215
  144MOL0     H19377   6.049   7.633   9.329 -0.0146 -0.2958 -0.1872
  144MOL0     H19378   5.903   7.537   9.297 -1.4254  2.6938  1.2140
  144MOL0     H19379   6.028   7.360   9.219  0.9901 -0.6812  2.5874
  144MOL0     H19380   6.162   7.463   9.173  2.2514  0.4456  1.3526
  144MOL0     H19381   6.253   7.345   9.363 -0.5492 -0.4316  2.1299
  144MOL0     H19382   6.174   7.485   9.445 -1.7709  2.3031 -2.9011
  144MOL0     H19383   5.957   7.347   9.452  1.2381  1.9923 -0.3307
  144MOL0     H19384   6.064   7.210   9.424  0.6414 -0.2785  0.1346
  144MOL0     H19385   6.210   7.259   9.601 -1.5968 -2.4270  0.5008
  144MOL0     H19386   6.113   7.400   9.660 -2.8055  1.1421 -1.5872
  144MOL0     H19387   6.037   7.100   9.643 -3.3172 -1.0804  0.9960
  144MOL0     H19388   6.069   7.188   9.781  0.5288 -0.7030 -0.8863
  144MOL0     H19389   5.827   7.134   9.752 -1.2124  0.9518  2.8814
  144MOL0     H19390   5.821   7.248   9.608 -1.2461  0.3709 -0.3964
  144MOL0     H19391   5.825   7.517   9.667  1.1730 -1.6076 -0.8439
  144MOL0     H19392   5.766   7.726   9.832  3.8083  2.4232  2.7321
  144MOL0     H19393   5.661   7.670   9.970  0.0224  1.8958  2.0042
  144MOL0     H19394   5.970   7.730   9.966  0.5873  0.2967 -1.3597
  144MOL0     H19395   5.873   7.686  10.107 -0.7604 -2.3722 -1.1228
  144MOL0     H19396   5.812   7.944   9.930  1.3166  0.0639 -0.4344
  144MOL0     H19397   5.930   7.945  10.062  0.3737  0.2264 -0.0971
  144MOL0     H19398   5.755   7.866  10.216  0.8832  0.3876  0.3084
  144MOL0     H19399   5.635   7.862  10.091  1.0842 -1.4682  0.6467
  144MOL0     H19400   5.547   7.896  10.299 -1.4000  0.0139  1.2773
  144MOL0     H19401   5.393   7.829  10.453  0.6675  0.8484 -0.6646
  144MOL0     H19402   5.417   7.937  10.601 -0.1359 -1.2804  0.7306
  144MOL0     H19403   5.271   7.942  10.510  0.6328 -1.3345  3.2380
  144MOL0     H19404   5.242   8.079  10.862  0.1010  1.2736 -1.7858
  144MOL0     H19405   5.018   8.026  10.991 -2.3313  1.3084  1.0915
  144MOL0     H19406   4.755   7.820  10.793 -0.2509  1.0467 -0.3010
  144MOL0     H19407   4.866   7.824  10.933  0.5522  0.1438 -1.8804
  144MOL0     H19408   4.694   7.728  10.998  0.2603  0.2794  1.1115
  144MOL0     H19409   4.667   7.884  11.080  1.7110 -0.5073  1.4764
  144MOL0     H19410   4.521   7.792  10.828  0.3168  0.3805 -0.1468
  144MOL0     H19411   4.516   7.957  10.872  3.7568  0.0417  0.3648
  144MOL0     H19412   4.400   7.735  11.052 -0.7563  0.4243 -0.9391
  144MOL0     H19413   4.423   7.904  11.093  1.4948  0.0916  0.9651
  144MOL0     H19414   4.267   7.818  10.845  0.8296  1.6651 -1.2675
  144MOL0     H19415   4.253   7.961  10.947  0.2984 -0.0920  0.2987
  144MOL0     H19416   4.175   7.822  11.143  2.1184 -0.1591 -0.0345
  144MOL0     H19417   4.060   7.856  11.008 -0.5032  0.2566  2.5194
  144MOL0     H19418   4.213   7.592  11.038  0.4104 -1.4660 -2.0401
  144MOL0     H19419   4.103   7.641  10.911  0.9426 -0.6090 -0.5446
  144MOL0     H19420   3.926   7.671  11.100 -0.5121 -1.4607 -0.4080
  144MOL0     H19421   4.049   7.630  11.218  2.0665  0.6721 -1.7682
  144MOL0     H19422   4.811   8.063  10.622  1.3550  0.1844 -0.8960
  144MOL0     H19423   5.022   8.111  10.499  0.9965 -1.1397  0.6663
  144MOL0     H19424   5.446   8.366  10.350 -1.2039 -0.7860 -1.1000
  144MOL0     H19425   5.610   8.307  10.178 -2.3523 -1.5506 -2.8939
  144MOL0     H19426   5.600   7.746   9.070 -1.0463 -0.7797  0.2131
  144MOL0     H19427   5.414   7.591   9.000 -0.2104  0.0131 -0.1779
  144MOL0     H19428   5.442   7.169   8.561  1.0921 -2.6785 -1.0256
  144MOL0     H19429   5.294   6.991   8.497  1.6708 -2.3402  1.0572
  144MOL0     H19430   5.100   6.750   8.727  1.1967  0.4782 -1.7242
  144MOL0     H19431   4.975   6.863   8.778 -2.0020 -2.7158  0.6106
  144MOL0     H19432   4.874   6.674   8.696 -0.6098  0.8119 -0.4020
  144MOL0     H19433   4.937   6.694   8.525 -0.0740  1.2393 -1.1377
  144MOL0     H19434   4.739   6.786   8.494 -0.3554 -2.9809  1.8165
  144MOL0     H19435   4.815   6.936   8.542 -1.5638  0.2785  0.8062
  144MOL0     H19436   4.628   6.942   8.692  1.9888  1.4169  0.2788
  144MOL0     H19437   4.747   6.861   8.796  0.3070 -1.4475 -0.9975
  144MOL0     H19438   4.485   6.547   8.738 -3.4739  1.1708  0.6211
  144MOL0     H19439   5.062   7.034   8.866  0.4362  0.7725  1.1916
  144MOL0     H19440   5.210   7.213   8.928  0.6310 -0.5189 -0.2599
  145MOL0     O19441   5.124   5.667  11.080  0.4983 -0.3093  0.4563
  145MOL0     C19442   5.137   5.740  10.978  0.3356  0.3713  0.1630
  145MOL0     O19443   5.042   5.830  10.935 -0.4381 -0.1134  1.0607
  145MOL0     C19444   4.919   5.832  11.000 -0.6384 -0.3210 -0.9717
  145MOL0     C19445   4.916   5.886  11.127 -0.0970  0.3677 -0.5169
  145MOL0     C19446   4.798   5.888  11.191  0.4732  0.1666  0.6663
  145MOL0     C19447   4.676   5.839  11.141 -1.1076 -0.1791 -0.3749
  145MOL0     O19448   4.573   5.836  11.229 -0.2918  0.2572 -1.1480
  145MOL0     C19449   4.439   5.834  11.173 -0.1682 -0.7324 -0.1655
  145MOL0     C19450   4.333   5.816  11.279 -0.8604  0.1766 -0.3368
  145MOL0     C19451   4.190   5.814  11.240 -0.6497 -0.5279  0.4482
  145MOL0     C19452   4.099   5.803  11.365 -0.2995 -1.4544  0.2753
  145MOL0     C19453   3.962   5.769  11.306 -0.6447  0.5370 -0.0534
  145MOL0     C19454   3.850   5.787  11.412  0.1446 -0.1851 -0.4538
  145MOL0     C19455   3.725   5.726  11.357  0.5192  0.2012 -0.4899
  145MOL0     C19456   3.623   5.701  11.468 -0.4200 -0.2988  0.0720
  145MOL0     N19457   3.560   5.824  11.508  0.2223  0.0323 -0.9578
  145MOL0     C19458   3.603   5.899  11.610  0.9965  0.6012  0.3338
  145MOL0     C19459   3.539   6.015  11.596 -0.0308 -0.5782 -0.2906
  145MOL0     C19460   3.558   6.140  11.670  0.4718  0.6291 -0.1816
  145MOL0     C19461   3.489   6.136  11.810 -0.7067 -0.1901 -0.5495
  145MOL0     C19462   3.537   6.240  11.913  0.1925 -0.0422 -0.3052
  145MOL0     C19463   3.435   6.255  12.025 -0.2571  0.4295 -1.2003
  145MOL0     O19464   3.320   6.318  11.968 -0.5147 -0.3481 -0.1753
  145MOL0     C19465   3.197   6.316  12.029  0.1402 -0.1898 -0.2936
  145MOL0     C19466   3.168   6.292  12.172 -0.8930 -0.6931 -0.1591
  145MOL0     C19467   3.041   6.276  12.226  0.1817  0.4554 -0.1717
  145MOL0     C19468   3.016   6.238  12.365 -0.1101  0.4946 -1.1696
  145MOL0     C19469   2.934   6.285  12.131  0.2694  1.0361 -0.4133
  145MOL0     C19470   2.793   6.261  12.167 -0.8096  0.3906  0.1960
  145MOL0     O19471   2.713   6.191  12.083 -0.2142  0.2162  0.6057
  145MOL0     C19472   2.576   6.199  12.106  0.4546 -0.2103 -0.5437
  145MOL0     C19473   2.521   6.115  12.201 -0.7345  0.5483  0.0560
  145MOL0     C19474   2.388   6.133  12.245  0.2904 -0.4103 -0.6926
  145MOL0     C19475   2.311   6.233  12.180 -0.1534  1.0693 -1.1410
  145MOL0     O19476   2.183   6.267  12.215  0.3806 -0.4586  0.4361
  145MOL0     C19477   2.114   6.180  12.306 -0.3317  0.3441  0.1179
  145MOL0     C19478   1.982   6.234  12.351  0.1390 -0.6328  0.6467
  145MOL0     C19479   1.910   6.136  12.433  0.0843 -0.3000 -0.0841
  145MOL0     C19480   1.773   6.193  12.486 -0.6443 -0.0444  0.7070
  145MOL0     C19481   1.707   6.088  12.568 -0.0375  0.1213 -0.4087
  145MOL0     C19482   1.768   6.077  12.714 -0.2722 -0.3791  0.8269
  145MOL0     C19483   1.767   6.209  12.784  1.0895 -0.9781 -0.1132
  145MOL0     C19484   1.786   6.192  12.934  0.0298  0.6259 -0.2964
  145MOL0    Cl19485   1.924   6.090  12.980 -0.2965  0.1098 -0.1450
  145MOL0     C19486   2.361   6.302  12.072 -1.0958  0.5080 -0.3615
  145MOL0     C19487   2.494   6.288  12.035 -1.1337  0.6008 -0.5342
  145MOL0     O19488   2.758   6.312  12.270 -0.0856 -0.2160  0.7081
  145MOL0     C19489   2.959   6.314  11.997  0.1355 -0.1363 -0.3881
  145MOL0     C19490   3.088   6.327  11.945 -0.5770  0.2350  0.5242
  145MOL0     N19491   3.452   5.998  11.489 -0.0088  0.2421 -0.3424
  145MOL0     N19492   3.466   5.884  11.439 -0.3603  0.0365  0.7727
  145MOL0     C19493   4.686   5.786  11.011  0.6789 -0.7517  0.2013
  145MOL0     C19494   4.805   5.779  10.942  0.0295 -0.2235  0.4971
  145MOL0     C19495   5.260   5.713  10.904  0.2235  0.4099  0.8284
  145MOL0     C19496   5.352   5.602  10.927  0.0061 -0.0336  0.1928
  145MOL0     C19497   5.455   5.572  10.835 -0.5902  0.2068  0.2030
  145MOL0     C19498   5.462   5.644  10.718  0.3200  0.0927  0.0728
  145MOL0     O19499   5.567   5.615  10.642 -0.3522 -0.3414  0.3601
  145MOL0     C19500   5.548   5.513  10.547  0.4091 -0.2644  0.3486
  145MOL0     C19501   5.425   5.542  10.460  0.5103 -0.1412 -0.5750
  145MOL0     C19502   5.439   5.444  10.330  0.9461 -0.2234 -1.1518
  145MOL0     C19503   5.307   5.441  10.259 -0.2899 -0.5146  0.1505
  145MOL0     C19504   5.281   5.576  10.195 -0.4445  0.0343 -0.2990
  145MOL0     C19505   5.240   5.684  10.163 -0.3294  0.1596  0.9114
  145MOL0     C19506   5.385   5.758  10.701  0.8066  0.1724  0.5422
  145MOL0     C19507   5.282   5.791  10.793  1.3829  0.3821  0.3323
  145MOL0     H19508   4.996   5.944  11.173  2.3341 -1.3824 -2.2990
  145MOL0     H19509   4.794   5.934  11.290  0.6629  2.0706 -0.1639
  145MOL0     H19510   4.427   5.922  11.110 -0.4569 -2.4059 -2.5734
  145MOL0     H19511   4.432   5.745  11.110  0.7688 -0.4841 -0.6344
  145MOL0     H19512   4.345   5.726  11.339 -2.8859 -2.4567 -3.5746
  145MOL0     H19513   4.352   5.903  11.343  0.0971  0.1475 -0.5745
  145MOL0     H19514   4.171   5.905  11.182 -0.4607 -0.8721 -0.1629
  145MOL0     H19515   4.182   5.729  11.171 -0.5048 -0.2228  0.0473
  145MOL0     H19516   4.133   5.720  11.428 -2.6550 -1.5255  1.5543
  145MOL0     H19517   4.106   5.891  11.430  2.4912 -1.2413 -0.1859
  145MOL0     H19518   3.947   5.844  11.228  0.2476 -0.8652 -1.6244
  145MOL0     H19519   3.964   5.670  11.261 -1.4165 -0.4082  1.8541
  145MOL0     H19520   3.872   5.740  11.508  1.5753 -4.6738 -2.7186
  145MOL0     H19521   3.828   5.892  11.433  0.4378  0.2210 -2.0277
  145MOL0     H19522   3.685   5.791  11.279 -2.8075 -2.1453 -0.9718
  145MOL0     H19523   3.750   5.636  11.300  1.6250  1.9253 -2.9200
  145MOL0     H19524   3.674   5.641  11.544 -0.6115  0.2333  0.6257
  145MOL0     H19525   3.543   5.637  11.430 -0.2639  0.6867 -2.0958
  145MOL0     H19526   3.680   5.868  11.680 -0.5347  1.0586  2.2903
  145MOL0     H19527   3.667   6.149  11.676  0.5339  1.9260 -2.2968
  145MOL0     H19528   3.518   6.225  11.613 -1.4265  1.4277  2.1668
  145MOL0     H19529   3.501   6.040  11.859 -4.3114 -0.8226 -0.5944
  145MOL0     H19530   3.384   6.154  11.785  0.2016  3.4360 -2.6529
  145MOL0     H19531   3.552   6.338  11.866  3.0726  0.8282  2.0731
  145MOL0     H19532   3.634   6.204  11.950 -1.4397 -1.3482  3.1128
  145MOL0     H19533   3.472   6.317  12.107 -2.8586  0.6343 -0.0927
  145MOL0     H19534   3.409   6.152  12.054 -0.4449  1.4074  2.5965
  145MOL0     H19535   3.251   6.286  12.242 -1.1833 -0.6968  0.1858
  145MOL0     H19536   2.990   6.132  12.360  0.4699  0.0553  2.5985
  145MOL0     H19537   3.105   6.232  12.428  0.0971  2.1276 -1.2728
  145MOL0     H19538   2.950   6.299  12.427  1.9689  1.6403  0.0124
  145MOL0     H19539   2.575   6.033  12.247 -0.8127 -0.1107 -0.9988
  145MOL0     H19540   2.350   6.068  12.322 -3.3034  0.7432 -1.3169
  145MOL0     H19541   2.097   6.085  12.255 -0.0676 -0.0725  0.7903
  145MOL0     H19542   2.174   6.150  12.392  0.2474 -2.2401 -1.0960
  145MOL0     H19543   1.997   6.330  12.403  0.1193 -0.3635  0.1588
  145MOL0     H19544   1.913   6.254  12.268 -1.4464 -1.3756  1.7288
  145MOL0     H19545   1.968   6.100  12.518 -1.5878  0.3882  1.4261
  145MOL0     H19546   1.900   6.046  12.370 -3.1644  0.7543 -1.3053
  145MOL0     H19547   1.794   6.289  12.536  2.0909 -0.0025 -0.3277
  145MOL0     H19548   1.725   6.211  12.390 -0.6721  0.0385  0.7366
  145MOL0     H19549   1.701   5.993  12.514  1.6344 -0.2243 -0.0269
  145MOL0     H19550   1.603   6.124  12.567 -0.0960 -0.0158 -1.6788
  145MOL0     H19551   1.718   6.005  12.779  0.6019 -0.3004  1.6077
  145MOL0     H19552   1.867   6.032  12.702 -0.9453 -1.4901 -1.0857
  145MOL0     H19553   1.667   6.252  12.779  1.2091  0.1110  3.5688
  145MOL0     H19554   1.832   6.290  12.750 -0.3468  1.7219  2.9723
  145MOL0     H19555   1.696   6.137  12.964  1.0500 -1.2328 -0.5608
  145MOL0     H19556   1.782   6.283  12.995  1.1323 -1.2565  2.8105
  145MOL0     H19557   2.289   6.367  12.022 -1.7124 -0.1549 -0.3434
  145MOL0     H19558   2.538   6.345  11.953 -1.0525 -1.1063 -1.7292
  145MOL0     H19559   2.880   6.329  11.924  0.9391 -0.5932 -1.3777
  145MOL0     H19560   3.111   6.346  11.841  1.5722  1.8588  1.2314
  145MOL0     H19561   4.605   5.730  10.966  0.1427  0.1897 -0.0346
  145MOL0     H19562   4.805   5.724  10.849 -1.2016  2.8584 -1.4673
  145MOL0     H19563   5.356   5.545  11.019  2.4304 -2.2747 -1.1651
  145MOL0     H19564   5.532   5.498  10.854 -0.4492  0.5632  1.0629
  145MOL0     H19565   5.633   5.518  10.478 -2.4568  2.6865 -3.4073
  145MOL0     H19566   5.533   5.422  10.607  1.0099  0.5682  1.8002
  145MOL0     H19567   5.424   5.645  10.424  1.4400 -0.2272 -0.8675
  145MOL0     H19568   5.332   5.523  10.515  1.3262  0.2642  0.9822
  145MOL0     H19569   5.465   5.343  10.362 -0.5208 -1.4544 -3.5282
  145MOL0     H19570   5.516   5.476  10.258  2.5562 -0.7829  0.2522
  145MOL0     H19571   5.216   5.418  10.316 -0.1947  0.1392  0.5789
  145MOL0     H19572   5.312   5.368  10.178  1.6423  1.2640 -1.4294
  145MOL0     H19573   5.202   5.780  10.133 -1.3532 -0.3132  0.6508
  145MOL0     H19574   5.402   5.822  10.615 -0.4433  0.0322  0.1751
  145MOL0     H19575   5.218   5.876  10.770  2.4921  0.9586 -0.6971
  146MOL0     O19576   1.569   3.416  11.074 -0.1975  0.2497 -0.9606
  146MOL0     C19577   1.562   3.313  11.139 -0.1035  0.3354  0.4783
  146MOL0     O19578   1.460   3.250  11.195 -0.0087 -0.0060 -0.1935
  146MOL0     C19579   1.330   3.304  11.191 -0.2785 -0.0274  0.6182
  146MOL0     C19580   1.242   3.272  11.289  0.5492 -0.4898 -0.2091
  146MOL0     C19581   1.109   3.306  11.296 -0.3827 -0.8297  0.1215
  146MOL0     C19582   1.053   3.377  11.188 -0.4422  0.7102 -0.1951
  146MOL0     O19583   0.925   3.408  11.183  0.4797  0.1256 -1.0163
  146MOL0     C19584   0.825   3.348  11.274 -0.3059 -0.4061  0.2846
  146MOL0     C19585   0.806   3.201  11.247 -0.9021 -0.3118  0.6995
  146MOL0     C19586   0.765   3.197  11.098  0.0190 -0.0255  0.7321
  146MOL0     C19587   0.752   3.055  11.052 -1.1012 -0.2961  0.5348
  146MOL0     C19588   0.698   3.053  10.900 -0.1307  0.1563  0.1191
  146MOL0     C19589   0.707   2.922  10.834  0.9619 -0.5400 -0.5550
  146MOL0     C19590   0.691   2.936  10.683  0.1429  0.4151 -0.2235
  146MOL0     C19591   0.608   2.820  10.622 -0.4805  0.3449 -0.0077
  146MOL0     N19592   0.461   2.841  10.637  0.6211  0.5490 -0.4573
  146MOL0     C19593   0.370   2.840  10.537 -1.0557 -0.0165 -0.5140
  146MOL0     C19594   0.249   2.798  10.593  0.6955  0.2664  0.1916
  146MOL0     C19595   0.127   2.759  10.518  0.1575 -0.0146 -0.0933
  146MOL0     C19596   0.021   2.869  10.503 -0.3549  0.0198 -0.6186
  146MOL0     C19597  -0.103   2.812  10.430 -0.1052 -0.3386  0.5450
  146MOL0     C19598  -0.211   2.922  10.423 -0.3300 -0.2671 -0.8430
  146MOL0     O19599  -0.244   2.950  10.565 -0.2330  0.4217 -0.2050
  146MOL0     C19600  -0.343   3.050  10.586  0.3329  0.9124 -0.4027
  146MOL0     C19601  -0.369   3.076  10.721  0.3342 -0.2100  0.0769
  146MOL0     C19602  -0.463   3.165  10.778  0.6633 -0.3953 -0.4371
  146MOL0     C19603  -0.471   3.177  10.930 -0.5475 -0.4203  0.4281
  146MOL0     C19604  -0.537   3.247  10.684  0.0179  0.4494  0.2526
  146MOL0     C19605  -0.629   3.363  10.712 -0.3678 -0.0005 -0.1960
  146MOL0     O19606  -0.674   3.439  10.606  0.8433  0.3356 -0.4003
  146MOL0     C19607  -0.701   3.571  10.649 -0.7382  0.0772  0.9427
  146MOL0     C19608  -0.818   3.632  10.611 -0.3318  0.1278 -0.8123
  146MOL0     C19609  -0.842   3.766  10.644 -0.1681 -0.6773  0.6743
  146MOL0     C19610  -0.750   3.842  10.714 -0.1811 -0.1908  0.1627
  146MOL0     O19611  -0.767   3.965  10.765  0.5269 -0.5390  1.2469
  146MOL0     C19612  -0.887   4.039  10.727  0.0336  0.9950  0.4474
  146MOL0     C19613  -0.878   4.187  10.766  0.3609  0.0564 -0.3008
  146MOL0     C19614  -0.876   4.200  10.924 -0.2682  0.9524 -0.1322
  146MOL0     C19615  -0.920   4.337  10.975  0.3823  0.9870 -0.3205
  146MOL0     C19616  -0.883   4.368  11.120  0.0145 -0.0521  0.6692
  146MOL0     C19617  -0.891   4.523  11.148  0.2976  0.2544 -0.0616
  146MOL0     C19618  -1.025   4.582  11.144  1.2122 -0.9588  0.5668
  146MOL0     C19619  -1.119   4.518  11.258  0.9820 -0.1385  0.0997
  146MOL0    Cl19620  -1.265   4.617  11.261 -0.1599 -0.1958 -0.5438
  146MOL0     C19621  -0.628   3.775  10.748 -0.2233 -0.0944  0.6697
  146MOL0     C19622  -0.599   3.643  10.717 -0.2982 -0.0725  0.9309
  146MOL0     O19623  -0.650   3.390  10.832  0.6427  0.1014  0.0020
  146MOL0     C19624  -0.518   3.210  10.542 -0.6683  0.7459 -0.0503
  146MOL0     C19625  -0.429   3.110  10.494  0.9124  0.3837 -0.2877
  146MOL0     N19626   0.273   2.769  10.726 -0.2414 -0.4114  0.0869
  146MOL0     N19627   0.402   2.806  10.755 -0.5790  0.5932  0.1240
  146MOL0     C19628   1.138   3.402  11.078  0.2907 -0.7295  0.0202
  146MOL0     C19629   1.273   3.378  11.083 -0.3464  0.2063 -0.1804
  146MOL0     C19630   1.692   3.263  11.166  0.3564  0.1075 -0.2626
  146MOL0     C19631   1.810   3.323  11.111  0.1577  0.2321  0.4596
  146MOL0     C19632   1.938   3.285  11.156  0.2703 -1.1029  1.0624
  146MOL0     C19633   1.953   3.188  11.248 -0.4276 -0.7127 -0.9611
  146MOL0     O19634   2.074   3.146  11.298  0.7443 -0.2260  0.1019
  146MOL0     C19635   2.173   3.123  11.198  0.7152  0.5906  0.3189
  146MOL0     C19636   2.268   3.008  11.233 -0.3407  0.3060 -0.2197
  146MOL0     C19637   2.187   2.877  11.257 -0.1020  0.4079  0.3048
  146MOL0     C19638   2.100   2.813  11.155 -0.0656  0.6385 -0.3000
  146MOL0     C19639   2.159   2.824  11.016  0.4861 -0.4343  0.0130
  146MOL0     C19640   2.216   2.833  10.912  0.2784  1.1023  0.9070
  146MOL0     C19641   1.847   3.148  11.315  0.4898 -1.0404  0.1045
  146MOL0     C19642   1.717   3.167  11.268  0.2330 -0.0967 -0.0808
  146MOL0     H19643   1.277   3.206  11.368  0.2409  1.1193  1.3657
  146MOL0     H19644   1.047   3.277  11.381 -1.6970  2.1125  0.2963
  146MOL0     H19645   0.846   3.350  11.381  1.6676  2.1865 -0.0447
  146MOL0     H19646   0.734   3.407  11.262 -0.1782 -0.1396  0.6252
  146MOL0     H19647   0.899   3.150  11.275 -1.0821 -0.2815  1.3625
  146MOL0     H19648   0.729   3.152  11.306  1.7551 -1.8630  3.1255
  146MOL0     H19649   0.675   3.251  11.067 -0.5869 -0.6768  1.3163
  146MOL0     H19650   0.836   3.255  11.039 -0.4230  2.9354  2.8940
  146MOL0     H19651   0.852   3.013  11.067  0.5420  3.2728  0.8483
  146MOL0     H19652   0.671   3.005  11.106 -0.2506 -1.6222  0.6263
  146MOL0     H19653   0.597   3.094  10.909  0.5508  1.4585  3.9544
  146MOL0     H19654   0.763   3.119  10.841 -1.8813 -1.4957 -3.9780
  146MOL0     H19655   0.808   2.886  10.854  1.8201  2.5297  1.5036
  146MOL0     H19656   0.630   2.855  10.874  0.0766  0.5546 -0.3573
  146MOL0     H19657   0.665   3.037  10.649 -1.0961  0.6247  1.2178
  146MOL0     H19658   0.789   2.906  10.644  0.4731 -1.2416  1.7232
  146MOL0     H19659   0.626   2.731  10.682  3.3987  3.7649  4.6486
  146MOL0     H19660   0.634   2.792  10.519 -1.8165 -0.0162 -0.2714
  146MOL0     H19661   0.397   2.839  10.432  4.0146 -1.1356  0.5274
  146MOL0     H19662   0.167   2.727  10.421  3.0416 -1.3273  1.3999
  146MOL0     H19663   0.082   2.667  10.557 -1.3417  0.8003  0.1722
  146MOL0     H19664   0.060   2.959  10.453  0.2124 -1.9290 -3.9506
  146MOL0     H19665  -0.015   2.892  10.604 -1.2366 -0.7710 -0.7506
  146MOL0     H19666  -0.127   2.715  10.476 -1.5792  0.6761  1.9998
  146MOL0     H19667  -0.069   2.796  10.327  1.2039  1.2748  0.6928
  146MOL0     H19668  -0.301   2.879  10.378  0.3899 -1.6453 -1.0032
  146MOL0     H19669  -0.188   3.007  10.359  0.2144 -0.1388 -0.4782
  146MOL0     H19670  -0.315   3.014  10.791  1.5103 -0.4466 -1.0004
  146MOL0     H19671  -0.387   3.239  10.963 -0.3913 -0.1543 -0.4479
  146MOL0     H19672  -0.557   3.234  10.966  2.6506  2.6290  3.9351
  146MOL0     H19673  -0.466   3.076  10.973 -0.6413 -1.2550 -1.4061
  146MOL0     H19674  -0.889   3.569  10.558  0.3484 -2.4942  1.1859
  146MOL0     H19675  -0.939   3.794  10.606  0.1987 -1.5785 -1.0431
  146MOL0     H19676  -0.890   4.032  10.618 -0.3857  3.2843  0.2600
  146MOL0     H19677  -0.973   3.991  10.774 -0.6796  2.4376  0.6642
  146MOL0     H19678  -0.790   4.231  10.719  0.4236  0.4264  0.1539
  146MOL0     H19679  -0.955   4.249  10.719  1.0402  1.1359 -0.0341
  146MOL0     H19680  -0.783   4.169  10.973 -0.4820  1.3587  0.5440
  146MOL0     H19681  -0.950   4.126  10.956 -0.8459  2.1856  1.5050
  146MOL0     H19682  -0.872   4.416  10.918  1.0463  1.7648  1.2402
  146MOL0     H19683  -1.029   4.341  10.964  0.3349  0.9648  0.1045
  146MOL0     H19684  -0.780   4.337  11.137 -0.6968 -1.6992  2.2770
  146MOL0     H19685  -0.950   4.315  11.187  0.8268  0.3627  1.8393
  146MOL0     H19686  -0.843   4.553  11.241  1.4000 -1.2593 -0.0962
  146MOL0     H19687  -0.827   4.568  11.071  2.2647 -1.0060  0.7341
  146MOL0     H19688  -1.070   4.571  11.045  1.1716  1.1318  0.3156
  146MOL0     H19689  -1.015   4.690  11.155  2.3442 -0.8220 -1.2911
  146MOL0     H19690  -1.054   4.518  11.346  1.7709  0.1513 -0.4682
  146MOL0     H19691  -1.149   4.415  11.238  0.9134 -0.1284  0.1505
  146MOL0     H19692  -0.551   3.829  10.802  0.6883  0.8160 -1.3916
  146MOL0     H19693  -0.504   3.595  10.735  0.5136  0.4062 -1.7218
  146MOL0     H19694  -0.575   3.272  10.474  1.1544 -1.6297 -4.0801
  146MOL0     H19695  -0.411   3.099  10.388  5.3066  2.9651 -0.0365
  146MOL0     H19696   1.088   3.452  10.995  1.2585  0.2933  0.0302
  146MOL0     H19697   1.333   3.389  10.994  1.4373 -1.4743  0.7374
  146MOL0     H19698   1.795   3.405  11.042 -2.4774  0.5065  1.2522
  146MOL0     H19699   2.032   3.313  11.110  1.1278 -4.4371  0.5482
  146MOL0     H19700   2.128   3.094  11.102 -0.4157  2.7586  0.1323
  146MOL0     H19701   2.232   3.215  11.199  4.3587 -1.5546  1.6376
  146MOL0     H19702   2.323   3.031  11.324 -3.5197 -0.5518  2.0754
  146MOL0     H19703   2.346   3.007  11.156 -1.6320 -0.0804 -1.5803
  146MOL0     H19704   2.124   2.893  11.345 -0.3665  0.4908  0.0999
  146MOL0     H19705   2.257   2.801  11.293 -1.3681 -1.0602 -0.2451
  146MOL0     H19706   1.997   2.848  11.155 -0.5098 -0.6077 -1.0525
  146MOL0     H19707   2.105   2.707  11.184  2.7334  0.4776 -1.0786
  146MOL0     H19708   2.258   2.848  10.814 -0.7743 -1.0202  0.0662
  146MOL0     H19709   1.869   3.072  11.390  0.1017 -1.8201 -0.5517
  146MOL0     H19710   1.640   3.127  11.333  0.3003 -0.5431 -0.2708
  147MOL0     O19711   2.677   7.942   2.359  0.5686  0.0002 -0.4487
  147MOL0     C19712   2.690   7.899   2.476  0.5803  0.2067  1.0734
  147MOL0     O19713   2.612   7.801   2.529  0.1459  0.3902  0.1826
  147MOL0     C19714   2.486   7.760   2.483  0.0666  0.5875 -0.4413
  147MOL0     C19715   2.406   7.838   2.392 -0.4466  0.3390 -0.6922
  147MOL0     C19716   2.279   7.795   2.349  0.9113  0.4844 -0.4325
  147MOL0     C19717   2.222   7.677   2.402  0.3147  0.9603  0.4047
  147MOL0     O19718   2.097   7.625   2.364 -0.0126 -0.3372  0.3432
  147MOL0     C19719   2.019   7.710   2.277  1.0204  0.0449  0.9567
  147MOL0     C19720   1.898   7.639   2.214  0.1960 -0.1167  0.0947
  147MOL0     C19721   1.830   7.720   2.107 -0.7611 -0.0328 -0.3782
  147MOL0     C19722   1.678   7.712   2.116 -0.5755  0.0473  0.3469
  147MOL0     C19723   1.611   7.812   2.023  0.6078 -0.4351  0.0805
  147MOL0     C19724   1.468   7.768   2.007  0.9258  0.4173 -0.1107
  147MOL0     C19725   1.384   7.827   1.883 -0.7065 -0.1132 -0.4079
  147MOL0     C19726   1.450   7.796   1.747 -0.2904 -0.3759  0.5238
  147MOL0     N19727   1.380   7.856   1.634  0.0444 -0.4710 -0.8723
  147MOL0     C19728   1.365   7.991   1.602 -1.0938  0.4234 -0.0094
  147MOL0     C19729   1.293   7.986   1.487  0.1894  0.3419  0.2580
  147MOL0     C19730   1.263   8.111   1.395 -0.5691 -0.5739 -1.5203
  147MOL0     C19731   1.351   8.082   1.276 -0.2703 -0.5998 -0.5278
  147MOL0     C19732   1.351   8.186   1.160 -0.2712  0.1240  0.4497
  147MOL0     C19733   1.212   8.168   1.087 -0.1810  0.5952  0.1400
  147MOL0     O19734   1.208   8.262   0.982 -0.2139  0.1581 -0.2172
  147MOL0     C19735   1.097   8.263   0.903  0.3751 -0.7022  0.5516
  147MOL0     C19736   1.121   8.300   0.773 -0.0670  0.7253 -0.2126
  147MOL0     C19737   1.017   8.304   0.676 -0.5130 -0.4461 -0.1864
  147MOL0     C19738   1.049   8.363   0.541 -0.7771  0.1938 -0.5183
  147MOL0     C19739   0.883   8.273   0.716 -0.2554  0.0122  0.8032
  147MOL0     C19740   0.769   8.302   0.637 -0.8658 -0.3417  0.6594
  147MOL0     O19741   0.774   8.396   0.535 -0.1038  0.0437 -0.3924
  147MOL0     C19742   0.657   8.445   0.475 -0.5904 -0.6970 -0.7090
  147MOL0     C19743   0.538   8.462   0.544  0.2221 -1.3458  0.0094
  147MOL0     C19744   0.415   8.482   0.479  0.7108 -0.5464  0.0597
  147MOL0     C19745   0.414   8.501   0.342  0.0140 -0.2378  0.1760
  147MOL0     O19746   0.293   8.519   0.273 -0.4238 -0.0098  0.2747
  147MOL0     C19747   0.287   8.505   0.131 -0.4438 -0.5147 -0.3118
  147MOL0     C19748   0.142   8.503   0.095 -0.1485  0.0069  0.9489
  147MOL0     C19749   0.086   8.378   0.170 -0.9623 -0.3811  0.1279
  147MOL0     C19750  -0.065   8.362   0.123 -0.9170  0.6824 -0.2939
  147MOL0     C19751  -0.178   8.296   0.212 -0.1973 -0.3673 -0.1092
  147MOL0     C19752  -0.314   8.357   0.189  0.3428  0.1878  0.7397
  147MOL0     C19753  -0.420   8.274   0.256 -0.1617  1.2164  0.1476
  147MOL0     C19754  -0.544   8.353   0.293  0.2286  0.2539  0.1596
  147MOL0    Cl19755  -0.661   8.237   0.359  0.1141  0.1898 -0.1548
  147MOL0     C19756   0.542   8.501   0.273 -1.3544  0.1572 -0.0911
  147MOL0     C19757   0.663   8.474   0.337 -0.0694  0.7972 -0.7916
  147MOL0     O19758   0.671   8.235   0.665 -0.7928  0.1955 -0.4479
  147MOL0     C19759   0.868   8.215   0.842 -0.7688  0.1331  0.8690
  147MOL0     C19760   0.974   8.212   0.939  0.3734 -0.6583  0.3253
  147MOL0     N19761   1.279   7.852   1.449 -0.6170 -0.3473 -0.2116
  147MOL0     N19762   1.331   7.778   1.539  0.5657  0.5859 -0.6937
  147MOL0     C19763   2.298   7.605   2.491 -0.3722  0.9063  0.0762
  147MOL0     C19764   2.433   7.640   2.523  0.2386 -0.2679 -0.1935
  147MOL0     C19765   2.785   7.956   2.572 -0.8118 -0.3605  1.0138
  147MOL0     C19766   2.818   7.874   2.685  0.3579 -1.1660  1.0294
  147MOL0     C19767   2.909   7.924   2.774 -0.4408  0.0342  1.1148
  147MOL0     C19768   2.984   8.041   2.755  0.0801  0.3406  0.3773
  147MOL0     O19769   3.092   8.088   2.833  0.1964  1.0479  0.4751
  147MOL0     C19770   3.153   8.017   2.943  1.1678 -0.5977 -0.3211
  147MOL0     C19771   3.058   8.027   3.063 -0.4001  0.7753  0.1684
  147MOL0     C19772   3.134   7.967   3.188  1.0581 -0.1411 -0.0934
  147MOL0     C19773   3.173   7.822   3.174  1.0925  1.0493  0.5172
  147MOL0     C19774   3.050   7.736   3.139  0.8378 -0.1463 -0.4754
  147MOL0     C19775   2.958   7.681   3.094  0.5550  0.0014  0.0941
  147MOL0     C19776   2.953   8.121   2.638  0.8032  0.2434  0.6141
  147MOL0     C19777   2.856   8.078   2.543  0.2875  0.3818  0.2592
  147MOL0     H19778   2.432   7.936   2.354 -2.7393  0.6164 -1.7158
  147MOL0     H19779   2.233   7.865   2.280  4.1212 -0.3846 -3.7962
  147MOL0     H19780   1.983   7.795   2.334  1.0617 -0.6175  1.9942
  147MOL0     H19781   2.070   7.752   2.190 -2.1523  1.1628 -0.5201
  147MOL0     H19782   1.928   7.540   2.178  0.9518 -0.9777  2.8452
  147MOL0     H19783   1.829   7.613   2.295 -3.6189 -0.8575 -3.0867
  147MOL0     H19784   1.870   7.821   2.122  0.6181 -0.2555 -2.2550
  147MOL0     H19785   1.859   7.688   2.007 -1.2608  0.6775 -0.7629
  147MOL0     H19786   1.644   7.612   2.088 -0.9639  0.8256 -2.3198
  147MOL0     H19787   1.655   7.740   2.219 -0.5183  0.9835  0.1108
  147MOL0     H19788   1.620   7.917   2.051 -2.9161  0.3262 -1.0812
  147MOL0     H19789   1.653   7.811   1.922 -1.9630  3.2611 -1.2404
  147MOL0     H19790   1.463   7.659   2.002 -0.6886  0.4563  0.1752
  147MOL0     H19791   1.409   7.807   2.090  0.2825  3.9638 -2.0631
  147MOL0     H19792   1.285   7.785   1.899 -0.8528  0.9055  1.7631
  147MOL0     H19793   1.392   7.936   1.896  1.2872 -0.2912  0.2036
  147MOL0     H19794   1.461   7.689   1.726  1.4501  0.0654 -1.0993
  147MOL0     H19795   1.548   7.844   1.744  0.1670 -1.3086 -1.0256
  147MOL0     H19796   1.392   8.087   1.644 -0.8744  1.0749 -1.5628
  147MOL0     H19797   1.156   8.107   1.370 -1.1430 -1.6355  0.7963
  147MOL0     H19798   1.289   8.200   1.452  0.8341 -1.8604 -0.0173
  147MOL0     H19799   1.317   7.990   1.227 -0.7213  0.6638 -2.7152
  147MOL0     H19800   1.454   8.078   1.311 -0.5631 -0.4858  0.3677
  147MOL0     H19801   1.431   8.157   1.091 -0.0811 -0.1948  0.7967
  147MOL0     H19802   1.356   8.287   1.200  1.5144 -0.5256  1.9994
  147MOL0     H19803   1.133   8.201   1.155 -0.9810 -0.2682 -0.3519
  147MOL0     H19804   1.186   8.071   1.044 -2.2153  0.4483  1.5790
  147MOL0     H19805   1.224   8.315   0.745 -0.9135  0.5308 -4.0324
  147MOL0     H19806   1.007   8.306   0.457 -0.2059 -0.2346 -0.5247
  147MOL0     H19807   1.028   8.468   0.522  0.1043  0.2030 -1.5272
  147MOL0     H19808   1.155   8.347   0.519 -1.1455 -1.2920 -1.3812
  147MOL0     H19809   0.531   8.451   0.652 -1.1163  1.7878  0.3417
  147MOL0     H19810   0.325   8.476   0.539 -1.7446  2.2829 -2.9395
  147MOL0     H19811   0.342   8.583   0.077 -1.5864  1.1527  0.8312
  147MOL0     H19812   0.335   8.412   0.100  0.5789  0.2231 -0.9801
  147MOL0     H19813   0.094   8.599   0.118 -1.3056 -0.3400  0.0622
  147MOL0     H19814   0.143   8.498  -0.014  0.8529  2.1160  0.8072
  147MOL0     H19815   0.076   8.406   0.276  3.5308 -1.1006  0.9516
  147MOL0     H19816   0.138   8.285   0.150 -1.8333 -1.2693  1.7652
  147MOL0     H19817  -0.100   8.461   0.090  3.0359  2.4757  0.3872
  147MOL0     H19818  -0.053   8.299   0.034  3.6419  1.3214 -0.3664
  147MOL0     H19819  -0.153   8.315   0.317  0.4908  2.6108 -0.7248
  147MOL0     H19820  -0.182   8.188   0.197 -2.8891 -0.5968  1.5722
  147MOL0     H19821  -0.311   8.462   0.220  1.2239 -0.3448  2.5716
  147MOL0     H19822  -0.324   8.338   0.081  6.3310  0.5264 -0.2495
  147MOL0     H19823  -0.379   8.219   0.342 -1.9379  0.4019  0.5354
  147MOL0     H19824  -0.451   8.185   0.199  2.5771 -0.0371  0.4649
  147MOL0     H19825  -0.580   8.397   0.199  0.3160 -0.8286 -0.3966
  147MOL0     H19826  -0.520   8.423   0.373  1.1592 -0.0391  0.1568
  147MOL0     H19827   0.554   8.517   0.166 -3.0333 -1.8387 -0.6418
  147MOL0     H19828   0.754   8.466   0.278  0.0764  0.6605 -0.5493
  147MOL0     H19829   0.777   8.175   0.883 -1.3883  0.7759  0.1604
  147MOL0     H19830   0.959   8.171   1.039  0.6796  0.2555  0.7579
  147MOL0     H19831   2.246   7.522   2.537 -1.5421  2.1794  1.0951
  147MOL0     H19832   2.495   7.585   2.593  1.0770  0.5795 -0.2438
  147MOL0     H19833   2.769   7.777   2.691 -1.3851 -0.3231  1.0452
  147MOL0     H19834   2.941   7.857   2.853  2.7666 -0.1389 -0.1774
  147MOL0     H19835   3.181   7.918   2.906 -1.8851 -0.8464 -2.2963
  147MOL0     H19836   3.239   8.078   2.971  0.1463  1.3637 -1.2341
  147MOL0     H19837   2.960   7.983   3.043  0.8506 -1.2784 -1.8865
  147MOL0     H19838   3.041   8.135   3.075  0.2729  1.5165 -4.0149
  147MOL0     H19839   3.064   7.982   3.271 -0.0407 -0.1959 -0.9838
  147MOL0     H19840   3.224   8.029   3.198  0.6172  0.8201 -1.5978
  147MOL0     H19841   3.204   7.791   3.275  2.4066  1.0591  0.1397
  147MOL0     H19842   3.263   7.821   3.112  1.1285  1.0013  0.5696
  147MOL0     H19843   2.871   7.637   3.048  1.8605  0.6836 -3.3463
  147MOL0     H19844   2.991   8.222   2.638 -2.8126  1.7770  1.2878
  147MOL0     H19845   2.824   8.140   2.460 -2.3146  0.0788  0.9287
  148MOL0     O19846  11.245   8.285   6.079  0.5852  0.6878  0.0006
  148MOL0     C19847  11.177   8.181   6.063 -0.5002 -0.2584 -0.2647
  148MOL0     O19848  11.044   8.173   6.046 -0.2865 -0.5108  0.2015
  148MOL0     C19849  10.956   8.274   6.046  1.0668  0.1247 -0.4611
  148MOL0     C19850  10.985   8.411   6.049 -0.1927 -0.1845 -0.0498
  148MOL0     C19851  10.876   8.502   6.046 -0.1366  0.1294  0.3897
  148MOL0     C19852  10.749   8.460   6.033  0.4882 -0.0061 -0.5327
  148MOL0     O19853  10.656   8.556   6.001  0.1476  0.2621 -0.1593
  148MOL0     C19854  10.624   8.642   6.103  0.2573  0.5936  0.1719
  148MOL0     C19855  10.494   8.719   6.096 -0.9180 -0.9324  0.0203
  148MOL0     C19856  10.369   8.616   6.093 -1.0819 -0.2457  0.3713
  148MOL0     C19857  10.342   8.552   5.960  0.0577  0.2318 -0.8491
  148MOL0     C19858  10.225   8.453   5.963 -0.4743 -0.7612  0.2752
  148MOL0     C19859  10.091   8.518   5.974 -0.5997 -0.1182 -0.2860
  148MOL0     C19860   9.967   8.415   5.986 -0.1526  0.8112 -0.0074
  148MOL0     C19861   9.961   8.347   6.119 -0.4287  0.2653  0.2539
  148MOL0     N19862   9.849   8.258   6.138  0.4324 -0.0058 -0.3742
  148MOL0     C19863   9.741   8.227   6.062 -0.1294  0.1609 -0.0016
  148MOL0     C19864   9.655   8.160   6.134  0.5058 -0.0736  0.1578
  148MOL0     C19865   9.524   8.102   6.080 -0.4478 -0.4683 -1.0783
  148MOL0     C19866   9.413   8.166   6.152  0.1984  0.3476  0.4666
  148MOL0     C19867   9.272   8.104   6.118  0.5659  0.0014  0.0546
  148MOL0     C19868   9.258   7.952   6.112 -0.0108 -0.6522  0.1046
  148MOL0     O19869   9.122   7.909   6.082 -0.1232  0.0244 -0.5547
  148MOL0     C19870   9.031   7.898   6.183  0.3928 -0.2772  0.1596
  148MOL0     C19871   9.043   7.926   6.322 -0.1600 -0.0376 -0.1874
  148MOL0     C19872   8.939   7.885   6.415  0.9130 -0.2459  0.1121
  148MOL0     C19873   8.966   7.911   6.559  0.1803  0.1382  0.8583
  148MOL0     C19874   8.813   7.829   6.364  0.2166  0.3359  1.0154
  148MOL0     C19875   8.688   7.816   6.450  0.2066 -0.0724  1.8073
  148MOL0     O19876   8.568   7.834   6.384 -0.5642 -0.3644 -0.2410
  148MOL0     C19877   8.439   7.815   6.440 -0.1932  0.8891 -0.0783
  148MOL0     C19878   8.331   7.896   6.408 -1.1603  0.3517  0.4868
  148MOL0     C19879   8.210   7.876   6.473 -0.3789 -0.1269  0.7211
  148MOL0     C19880   8.189   7.764   6.560  0.1838  1.2427 -0.0845
  148MOL0     O19881   8.062   7.744   6.610  0.3947  0.2171 -0.2673
  148MOL0     C19882   8.019   7.604   6.637  0.0469 -0.1288 -0.4017
  148MOL0     C19883   7.872   7.598   6.685  0.0775  0.8964  0.9384
  148MOL0     C19884   7.779   7.647   6.573  0.2713 -0.7117  0.6886
  148MOL0     C19885   7.639   7.584   6.580  0.1332 -1.0792  0.1864
  148MOL0     C19886   7.568   7.606   6.441 -0.1251  0.4649  0.7619
  148MOL0     C19887   7.575   7.476   6.347 -0.7634 -0.0391 -0.1764
  148MOL0     C19888   7.532   7.519   6.206 -0.0662  0.6693 -0.1075
  148MOL0     C19889   7.507   7.391   6.117  1.2583 -0.0363 -0.0447
  148MOL0    Cl19890   7.366   7.287   6.180 -0.5452  0.3985 -0.0959
  148MOL0     C19891   8.293   7.676   6.583  0.4481  1.1976 -0.0941
  148MOL0     C19892   8.416   7.715   6.537  0.9589 -0.3419  0.4791
  148MOL0     O19893   8.697   7.787   6.570 -0.0285 -0.5412  0.4338
  148MOL0     C19894   8.800   7.809   6.224  0.4825  1.4099  0.4320
  148MOL0     C19895   8.908   7.838   6.147  0.7314 -0.3029  0.4745
  148MOL0     N19896   9.710   8.148   6.266 -0.1169 -0.0718  0.1460
  148MOL0     N19897   9.824   8.206   6.269 -0.6641 -0.7572  1.4064
  148MOL0     C19898  10.710   8.328   6.020  0.1079 -0.4021 -0.8641
  148MOL0     C19899  10.824   8.243   6.011 -0.4481  0.4220  0.1802
  148MOL0     C19900  11.243   8.048   6.078  0.3464 -0.9033 -0.4742
  148MOL0     C19901  11.380   8.044   6.075  0.6491  0.3010 -0.3532
  148MOL0     C19902  11.439   7.926   6.103  0.4411 -0.1573 -0.6096
  148MOL0     C19903  11.362   7.810   6.131 -0.1621 -0.1810  0.9127
  148MOL0     O19904  11.416   7.687   6.171 -0.4895 -0.1601  0.1068
  148MOL0     C19905  11.553   7.659   6.177 -0.1272 -0.3301 -0.0704
  148MOL0     C19906  11.593   7.607   6.037 -0.1776 -1.4321  1.1748
  148MOL0     C19907  11.735   7.552   6.043 -0.5761 -1.2793 -0.3937
  148MOL0     C19908  11.750   7.429   6.135  0.3236 -0.8238  0.5103
  148MOL0     C19909  11.856   7.337   6.086  0.0653 -0.2028 -0.0516
  148MOL0     C19910  11.935   7.254   6.043  0.2195 -0.1425 -0.1320
  148MOL0     C19911  11.222   7.811   6.121  0.3441  0.1558  1.3296
  148MOL0     C19912  11.170   7.937   6.090  0.9852 -0.6130 -0.5708
  148MOL0     H19913  11.086   8.446   6.064 -0.3948  0.9657 -1.2333
  148MOL0     H19914  10.892   8.609   6.052 -0.2186  0.0524  2.7866
  148MOL0     H19915  10.615   8.583   6.194  2.5197 -1.1973 -0.6682
  148MOL0     H19916  10.710   8.708   6.116  1.3736 -0.3169 -2.0343
  148MOL0     H19917  10.477   8.758   6.196  1.4106 -1.4501  0.6681
  148MOL0     H19918  10.502   8.798   6.021  1.9455  0.7430  1.9328
  148MOL0     H19919  10.365   8.541   6.172  1.6849 -2.5548 -1.4854
  148MOL0     H19920  10.280   8.679   6.105 -1.1683 -0.0886 -0.9076
  148MOL0     H19921  10.323   8.632   5.887 -0.1386  0.3372 -0.6853
  148MOL0     H19922  10.430   8.495   5.929  0.3660  1.3975 -2.2308
  148MOL0     H19923  10.230   8.398   5.869 -1.0969  2.7525 -2.0278
  148MOL0     H19924  10.243   8.380   6.042  1.0808 -0.8264 -0.0994
  148MOL0     H19925  10.086   8.591   6.056  0.1294 -1.2127  0.7522
  148MOL0     H19926  10.073   8.568   5.878  0.0751  2.6812  0.9248
  148MOL0     H19927   9.870   8.463   5.971 -1.3776 -1.6973 -0.7394
  148MOL0     H19928   9.973   8.344   5.903 -2.9988 -0.7780  0.9698
  148MOL0     H19929   9.985   8.412   6.203  0.6715  0.1879  0.0149
  148MOL0     H19930  10.051   8.287   6.104  0.0261  1.0454 -0.1930
  148MOL0     H19931   9.732   8.248   5.956 -1.6846 -0.8715 -0.1111
  148MOL0     H19932   9.509   8.118   5.973  0.7869 -3.2872 -1.7437
  148MOL0     H19933   9.525   7.994   6.096 -1.2158 -0.1336  1.8533
  148MOL0     H19934   9.417   8.272   6.126  0.8317  0.4598  1.0089
  148MOL0     H19935   9.419   8.164   6.261 -0.0200 -0.0144  0.4760
  148MOL0     H19936   9.254   8.137   6.015  1.7993  1.4243  0.2636
  148MOL0     H19937   9.185   8.140   6.173 -1.9245 -1.0119 -2.9601
  148MOL0     H19938   9.293   7.923   6.211 -3.4739 -1.1394  1.2823
  148MOL0     H19939   9.324   7.904   6.038  0.7407 -0.8921  0.9121
  148MOL0     H19940   9.136   7.961   6.367 -0.0115 -1.1765  0.4160
  148MOL0     H19941   8.889   7.979   6.597  0.1341 -0.4284  1.7980
  148MOL0     H19942   8.948   7.830   6.631  1.4969  2.6264  4.2388
  148MOL0     H19943   9.064   7.959   6.568 -0.4787  2.3405 -2.1284
  148MOL0     H19944   8.346   7.980   6.342  1.9880  0.4996  1.2521
  148MOL0     H19945   8.128   7.940   6.444  0.3581  1.0991  1.2937
  148MOL0     H19946   8.028   7.545   6.545  2.3904  1.8882 -1.5613
  148MOL0     H19947   8.079   7.554   6.714 -1.9456 -0.9903  0.6594
  148MOL0     H19948   7.847   7.497   6.720 -2.7030  0.3649 -2.1214
  148MOL0     H19949   7.858   7.666   6.769  2.7952  1.8702  0.7161
  148MOL0     H19950   7.825   7.615   6.479 -0.3936 -1.7108  0.6906
  148MOL0     H19951   7.778   7.756   6.576  0.0472 -0.7312  1.4966
  148MOL0     H19952   7.653   7.478   6.606  0.9885 -1.1237 -0.4017
  148MOL0     H19953   7.575   7.630   6.655 -2.9467  1.6691 -3.6908
  148MOL0     H19954   7.616   7.682   6.380 -0.2079 -1.2855 -1.6296
  148MOL0     H19955   7.462   7.624   6.463 -0.3873 -0.6971  0.5241
  148MOL0     H19956   7.676   7.434   6.340  0.2472  0.9422  4.6625
  148MOL0     H19957   7.509   7.400   6.390 -0.8049  1.6727  3.1438
  148MOL0     H19958   7.595   7.595   6.159 -0.0769 -0.0953 -1.3849
  148MOL0     H19959   7.432   7.564   6.207  0.1709  1.2022 -0.0535
  148MOL0     H19960   7.594   7.325   6.124  0.2030 -1.2813  2.9318
  148MOL0     H19961   7.496   7.427   6.015 -2.3431 -0.7741 -0.0446
  148MOL0     H19962   8.291   7.586   6.643  0.4290  0.7389 -0.7761
  148MOL0     H19963   8.501   7.651   6.558  0.8058 -0.2782  1.3498
  148MOL0     H19964   8.712   7.762   6.182  0.3432  1.9527  0.1161
  148MOL0     H19965   8.883   7.807   6.046  3.1866 -2.4850  0.4564
  148MOL0     H19966  10.610   8.291   6.001  0.6252 -1.0488 -2.5194
  148MOL0     H19967  10.803   8.138   5.992 -0.7129  0.2931  1.1603
  148MOL0     H19968  11.433   8.132   6.041  0.8524  0.7846  1.1216
  148MOL0     H19969  11.547   7.916   6.102  0.5423  0.6478  0.5719
  148MOL0     H19970  11.605   7.751   6.207 -2.6550  1.3090 -0.3881
  148MOL0     H19971  11.573   7.588   6.258  2.7347 -2.0568 -2.0904
  148MOL0     H19972  11.599   7.695   5.972  1.3746 -1.0543  1.7954
  148MOL0     H19973  11.526   7.532   5.993  1.5384 -1.3748 -1.8357
  148MOL0     H19974  11.808   7.626   6.076 -0.9209 -1.2612  0.3531
  148MOL0     H19975  11.773   7.524   5.944 -0.6286  1.5880 -1.3116
  148MOL0     H19976  11.654   7.378   6.146 -1.3101  2.2976  2.3114
  148MOL0     H19977  11.783   7.457   6.236  1.4446 -1.6202  0.3833
  148MOL0     H19978  12.001   7.190   5.989 -0.9765  0.1919 -2.0587
  148MOL0     H19979  11.160   7.724   6.138  0.9132 -0.5278  0.0302
  148MOL0     H19980  11.063   7.942   6.103  1.2140  2.9749  1.4679
  149MOL0     O19981   7.722  10.679   0.173  0.3738 -0.3066  0.1591
  149MOL0     C19982   7.670  10.750   0.253 -0.0456  0.1659 -0.0958
  149MOL0     O19983   7.539  10.790   0.252 -0.0965 -0.2003  0.3250
  149MOL0     C19984   7.444  10.758   0.158  0.1168  0.4447  0.4065
  149MOL0     C19985   7.313  10.765   0.200 -0.2788  0.3000 -0.1974
  149MOL0     C19986   7.214  10.739   0.101 -0.9555 -0.5319  0.1601
  149MOL0     C19987   7.240  10.699  -0.028 -0.4300  0.3546  0.5543
  149MOL0     O19988   7.134  10.650  -0.096 -0.8167  0.0910 -0.1384
  149MOL0     C19989   7.162  10.658  -0.245  0.8376 -0.1898  0.5212
  149MOL0     C19990   7.022  10.664  -0.308 -0.6341 -0.8295 -0.6132
  149MOL0     C19991   6.965  10.801  -0.285  0.3146 -0.4595 -0.2059
  149MOL0     C19992   6.857  10.810  -0.396 -0.3087 -0.3927 -0.3287
  149MOL0     C19993   6.808  10.961  -0.395 -0.5049  0.1563  0.2539
  149MOL0     C19994   6.907  11.068  -0.432  0.1330  0.3711 -0.6334
  149MOL0     C19995   6.965  11.048  -0.579 -0.0077 -1.2691 -0.1502
  149MOL0     C19996   7.070  11.162  -0.603  0.9665  0.1423  0.3617
  149MOL0     N19997   7.144  11.144  -0.724 -0.0687  0.5456 -0.1436
  149MOL0     C19998   7.095  11.186  -0.846 -0.5286 -0.3778  0.9482
  149MOL0     C19999   7.169  11.117  -0.941 -0.5292 -1.1133 -0.1468
  149MOL0     C20000   7.178  11.147  -1.093 -0.2134 -0.4696  0.4936
  149MOL0     C20001   7.256  11.278  -1.116 -0.2154 -0.6961 -0.2264
  149MOL0     C20002   7.273  11.303  -1.272  0.5602 -0.2721 -0.1778
  149MOL0     C20003   7.393  11.236  -1.342  0.2289 -0.2172  0.7497
  149MOL0     O20004   7.414  11.283  -1.479 -0.8784 -0.2852  0.1677
  149MOL0     C20005   7.518  11.225  -1.552 -0.0116  0.4343 -0.6900
  149MOL0     C20006   7.508  11.233  -1.690  0.4988  0.2581  0.3910
  149MOL0     C20007   7.609  11.184  -1.769  0.0534 -0.7843  0.0649
  149MOL0     C20008   7.590  11.182  -1.917 -0.1238  0.1261  0.0484
  149MOL0     C20009   7.717  11.105  -1.716  1.3407  0.2248  0.3890
  149MOL0     C20010   7.823  11.040  -1.798  0.3901 -0.3380  0.3762
  149MOL0     O20011   7.944  11.088  -1.775 -0.2085 -1.0321 -0.7952
  149MOL0     C20012   8.051  11.052  -1.861  0.3617  0.8407 -0.6160
  149MOL0     C20013   8.146  11.141  -1.914  0.7900 -0.2281 -0.5891
  149MOL0     C20014   8.259  11.092  -1.971 -0.3463 -0.1194 -0.0837
  149MOL0     C20015   8.291  10.954  -1.992  0.8445  0.1938 -0.3899
  149MOL0     O20016   8.412  10.914  -2.038  0.5925 -0.1645  0.5908
  149MOL0     C20017   8.519  11.001  -2.009  0.0506  0.0212 -0.1187
  149MOL0     C20018   8.651  10.931  -2.026  1.0860 -0.0459 -0.2560
  149MOL0     C20019   8.766  11.013  -1.974 -0.7609 -0.4361  0.8025
  149MOL0     C20020   8.893  10.935  -1.993  0.8433 -0.3255 -0.0058
  149MOL0     C20021   9.021  11.019  -1.952 -0.7362 -0.5629 -0.2054
  149MOL0     C20022   9.012  11.088  -1.813  0.8173  0.2451  0.4385
  149MOL0     C20023   9.143  11.143  -1.769 -0.1178 -0.4073 -0.0198
  149MOL0     C20024   9.131  11.206  -1.631  0.3339 -0.7312  0.0341
  149MOL0    Cl20025   9.286  11.280  -1.582  0.2393 -0.6074 -0.0037
  149MOL0     C20026   8.193  10.868  -1.946  0.2739  0.3218  0.6438
  149MOL0     C20027   8.083  10.917  -1.866 -1.0004  0.4882 -0.0079
  149MOL0     O20028   7.791  10.952  -1.874  0.4370 -1.0020 -0.3567
  149MOL0     C20029   7.729  11.107  -1.574 -0.6531  0.0552 -0.5237
  149MOL0     C20030   7.632  11.168  -1.496  0.1588 -1.2762  0.4905
  149MOL0     N20031   7.277  11.056  -0.875  0.2967 -0.3646  0.0947
  149MOL0     N20032   7.254  11.072  -0.750  0.0589 -1.1209  0.9673
  149MOL0     C20033   7.374  10.693  -0.068 -0.0771 -0.1484  0.5885
  149MOL0     C20034   7.479  10.718   0.026 -0.2356 -0.9631  0.7898
  149MOL0     C20035   7.759  10.797   0.360  0.0481  0.5362 -0.0985
  149MOL0     C20036   7.874  10.720   0.392  0.0696  0.3442 -0.6885
  149MOL0     C20037   7.969  10.768   0.476  0.7334  0.0448 -0.5620
  149MOL0     C20038   7.945  10.895   0.537 -0.6365  0.1375  0.3468
  149MOL0     O20039   8.025  10.948   0.634 -0.6605 -0.1945 -0.3318
  149MOL0     C20040   8.070  10.847   0.721 -0.7577 -0.9182 -0.2716
  149MOL0     C20041   8.108  10.909   0.855 -0.4892  0.5469  0.2870
  149MOL0     C20042   8.211  11.022   0.851 -0.7060 -0.5201  0.6643
  149MOL0     C20043   8.341  10.991   0.765  0.3087 -0.5518  0.2773
  149MOL0     C20044   8.447  10.891   0.803 -0.2265  0.2815  0.6514
  149MOL0     C20045   8.538  10.813   0.839  0.0930 -0.3623 -0.8602
  149MOL0     C20046   7.829  10.966   0.515  1.0317  0.8370 -0.0737
  149MOL0     C20047   7.733  10.913   0.426 -0.3428  0.2002 -0.3768
  149MOL0     H20048   7.280  10.796   0.298 -0.0152 -0.0356 -0.0019
  149MOL0     H20049   7.109  10.733   0.128 -1.8787  1.4120 -2.4997
  149MOL0     H20050   7.223  10.744  -0.274  2.1829 -0.2862  2.8227
  149MOL0     H20051   7.195  10.559  -0.279  0.5987  0.3471 -1.3498
  149MOL0     H20052   7.026  10.631  -0.412 -0.8354 -0.1718 -0.8309
  149MOL0     H20053   6.952  10.597  -0.257  1.5965 -0.7231  2.8975
  149MOL0     H20054   6.919  10.802  -0.185  0.5751 -4.1130  0.0872
  149MOL0     H20055   7.040  10.880  -0.290  2.0008 -1.4720  4.1625
  149MOL0     H20056   6.903  10.786  -0.493  4.4197  0.6619  1.3892
  149MOL0     H20057   6.778  10.737  -0.376 -0.4570 -0.1371  0.0257
  149MOL0     H20058   6.722  10.967  -0.462 -0.0168 -0.4730 -0.4447
  149MOL0     H20059   6.777  10.992  -0.294  0.9077  4.0935 -0.3507
  149MOL0     H20060   6.847  11.158  -0.420  0.1322  0.6463 -2.3909
  149MOL0     H20061   6.989  11.076  -0.360 -1.0168 -0.0148  0.7520
  149MOL0     H20062   7.011  10.949  -0.594 -1.5564 -2.2604  1.3981
  149MOL0     H20063   6.880  11.042  -0.648 -0.9924 -4.7295  1.1411
  149MOL0     H20064   7.139  11.143  -0.519  0.4475  0.6369  0.9089
  149MOL0     H20065   7.020  11.258  -0.589 -1.7974 -1.4700  2.6442
  149MOL0     H20066   7.017  11.260  -0.867  1.0781  1.1122 -0.0712
  149MOL0     H20067   7.248  11.075  -1.137 -0.1867 -0.0651 -0.1221
  149MOL0     H20068   7.077  11.155  -1.132  0.7539  3.2793 -1.7590
  149MOL0     H20069   7.358  11.276  -1.076  0.1242  1.3740 -0.8424
  149MOL0     H20070   7.197  11.356  -1.067  2.2069  1.1070  0.0142
  149MOL0     H20071   7.294  11.409  -1.282 -0.2428  0.3800  3.4107
  149MOL0     H20072   7.184  11.283  -1.332  0.8919 -0.7697 -0.5081
  149MOL0     H20073   7.369  11.130  -1.351  2.0976 -0.5671 -0.8561
  149MOL0     H20074   7.479  11.238  -1.274  1.5048  1.0059 -0.8049
  149MOL0     H20075   7.412  11.270  -1.725 -0.1681 -0.0056  1.8438
  149MOL0     H20076   7.668  11.252  -1.948  0.7475 -1.1374 -0.6797
  149MOL0     H20077   7.608  11.088  -1.969  0.5987  0.4333 -0.2569
  149MOL0     H20078   7.487  11.211  -1.942  0.2052  1.8984  0.6351
  149MOL0     H20079   8.139  11.249  -1.906 -0.8835 -0.3000 -0.6480
  149MOL0     H20080   8.319  11.172  -2.014  0.0002  0.1233  0.8190
  149MOL0     H20081   8.515  11.087  -2.076 -1.5867 -0.3858 -0.5816
  149MOL0     H20082   8.520  11.036  -1.906  1.8793  1.7111 -0.6428
  149MOL0     H20083   8.640  10.835  -1.975  2.5522 -0.8356 -1.3520
  149MOL0     H20084   8.672  10.904  -2.130  1.3510  0.6315 -0.3812
  149MOL0     H20085   8.754  11.037  -1.868 -1.0518  1.0515  0.4514
  149MOL0     H20086   8.781  11.112  -2.018  2.9638 -1.5845 -0.9448
  149MOL0     H20087   8.881  10.843  -1.936 -0.4211  0.1581  0.5202
  149MOL0     H20088   8.902  10.918  -2.101 -0.4881  0.9313 -0.3363
  149MOL0     H20089   9.029  11.101  -2.024 -3.0968  0.7869  0.9701
  149MOL0     H20090   9.101  10.945  -1.955 -3.1294 -3.3122 -2.3819
  149MOL0     H20091   8.938  11.168  -1.819 -1.7726 -1.9849  1.0791
  149MOL0     H20092   8.982  11.018  -1.735 -0.1478 -1.8986 -1.7653
  149MOL0     H20093   9.172  11.217  -1.844 -0.4392  0.3379  0.5753
  149MOL0     H20094   9.222  11.067  -1.768  1.2657  0.9495 -1.5580
  149MOL0     H20095   9.092  11.133  -1.560  1.7335  0.9144  2.6370
  149MOL0     H20096   9.052  11.281  -1.639 -0.1481 -0.7974  3.2173
  149MOL0     H20097   8.202  10.760  -1.959  1.0923  0.5914 -1.2034
  149MOL0     H20098   8.016  10.841  -1.826 -1.0006 -0.2539 -1.3571
  149MOL0     H20099   7.819  11.069  -1.528 -1.2854  0.0609  0.7520
  149MOL0     H20100   7.655  11.180  -1.391  0.0022 -0.1946  0.4140
  149MOL0     H20101   7.400  10.662  -0.168  0.6070 -2.0825  1.3332
  149MOL0     H20102   7.585  10.719   0.002 -0.1437  3.0308  0.6603
  149MOL0     H20103   7.892  10.623   0.346 -0.8322  0.7494 -1.9538
  149MOL0     H20104   8.061  10.715   0.501 -0.1051 -1.9739 -1.5171
  149MOL0     H20105   7.998  10.769   0.747 -0.1686 -2.0372 -1.8133
  149MOL0     H20106   8.153  10.798   0.668 -0.5942 -3.8484  2.3745
  149MOL0     H20107   8.164  10.833   0.911  0.7578 -0.1069 -1.7337
  149MOL0     H20108   8.019  10.932   0.914 -0.7006 -3.0043  1.6244
  149MOL0     H20109   8.227  11.040   0.958 -1.3686  1.1096  0.5339
  149MOL0     H20110   8.163  11.110   0.805 -1.1550 -0.7206  0.7499
  149MOL0     H20111   8.402  11.082   0.768  0.5608 -0.7321  0.6641
  149MOL0     H20112   8.313  10.985   0.660 -0.3612 -2.0726  0.5143
  149MOL0     H20113   8.617  10.747   0.871 -0.5712 -1.2001 -0.9025
  149MOL0     H20114   7.803  11.060   0.562 -0.7415  0.7550 -0.8213
  149MOL0     H20115   7.651  10.978   0.395 -0.6486 -1.1505 -2.6041
  150MOL0     O20116   6.032   2.633   1.321  0.5432 -0.3840  0.5298
  150MOL0     C20117   6.086   2.527   1.353  0.1418 -0.2736 -0.6385
  150MOL0     O20118   6.214   2.530   1.407  0.4206 -0.1684  0.0771
  150MOL0     C20119   6.310   2.617   1.361 -0.4915  0.5746  1.3212
  150MOL0     C20120   6.402   2.660   1.462 -0.1069  0.9516 -0.3178
  150MOL0     C20121   6.513   2.739   1.424  0.1750  0.0605  0.0268
  150MOL0     C20122   6.537   2.774   1.291 -0.3234  0.8411 -0.5737
  150MOL0     O20123   6.631   2.869   1.250  0.0380  0.2454 -0.7110
  150MOL0     C20124   6.660   2.963   1.359 -0.4229 -0.2995 -0.0761
  150MOL0     C20125   6.735   3.086   1.301 -1.1694 -0.1573  0.8634
  150MOL0     C20126   6.757   3.185   1.413  0.2338  0.2150  0.4375
  150MOL0     C20127   6.800   3.320   1.355  0.1304  0.2787  0.1492
  150MOL0     C20128   6.830   3.414   1.467  0.1097 -1.4922 -0.0241
  150MOL0     C20129   6.824   3.565   1.406 -0.1842 -0.0010 -0.9665
  150MOL0     C20130   6.890   3.666   1.506  0.3321  0.6234 -0.4038
  150MOL0     C20131   7.039   3.676   1.520  0.5725  0.3506 -0.6852
  150MOL0     N20132   7.092   3.715   1.386 -0.3802  0.0674  0.1464
  150MOL0     C20133   7.092   3.844   1.333 -0.6302  1.0606 -0.4810
  150MOL0     C20134   7.158   3.828   1.216  0.6002 -0.3036  0.5647
  150MOL0     C20135   7.192   3.944   1.124  0.5179  0.7861  0.1809
  150MOL0     C20136   7.069   4.011   1.080 -0.1639  0.3885 -0.6158
  150MOL0     C20137   7.079   4.083   0.942  0.6138  0.3695  1.3389
  150MOL0     C20138   6.953   4.065   0.863  0.2610  0.1993  0.5669
  150MOL0     O20139   6.966   4.123   0.730 -0.5792  0.3484  0.2282
  150MOL0     C20140   6.866   4.100   0.639  0.8166 -0.3217  0.0803
  150MOL0     C20141   6.907   4.052   0.517  0.4034 -0.2216  0.6256
  150MOL0     C20142   6.814   4.018   0.411  0.2499 -0.0660 -0.1853
  150MOL0     C20143   6.887   3.976   0.289 -0.8729 -0.8443  0.7029
  150MOL0     C20144   6.673   4.041   0.424  1.0110 -0.7225 -0.7390
  150MOL0     C20145   6.566   4.025   0.325 -0.7173  1.5768  0.2196
  150MOL0     O20146   6.441   4.039   0.365  0.2278 -0.4298  0.0828
  150MOL0     C20147   6.326   4.050   0.284  0.2469  0.0286  0.1538
  150MOL0     C20148   6.224   3.954   0.295 -0.0065  0.6610  0.6385
  150MOL0     C20149   6.100   3.964   0.227 -0.6218  0.1105 -0.5463
  150MOL0     C20150   6.085   4.074   0.139  0.0947  0.1320  0.1436
  150MOL0     O20151   5.992   4.080   0.040 -0.1549 -0.1066  0.0140
  150MOL0     C20152   5.983   3.956  -0.032 -0.0169 -0.4046  1.0772
  150MOL0     C20153   6.041   3.967  -0.177 -0.3018  0.4367  0.1309
  150MOL0     C20154   5.963   4.069  -0.270  0.5063 -0.7345 -0.2087
  150MOL0     C20155   6.006   4.059  -0.419  0.1691  0.1019 -0.2459
  150MOL0     C20156   5.905   4.124  -0.510 -0.9223  0.2201  0.1576
  150MOL0     C20157   5.898   4.054  -0.643 -0.1577  0.3347 -0.3752
  150MOL0     C20158   5.819   3.918  -0.631 -0.6642  0.6846  0.4776
  150MOL0     C20159   5.759   3.876  -0.767 -0.2546 -0.1434  0.2890
  150MOL0    Cl20160   5.631   3.996  -0.832  0.0037  0.2876  0.2281
  150MOL0     C20161   6.194   4.165   0.126  0.3424 -0.0222  0.3426
  150MOL0     C20162   6.304   4.159   0.214  0.4973 -0.0416 -1.0445
  150MOL0     O20163   6.590   3.983   0.212 -0.7136  0.0069  0.2844
  150MOL0     C20164   6.633   4.084   0.558  0.4449 -0.2205  0.4177
  150MOL0     C20165   6.727   4.110   0.661 -0.9374  0.3012  0.4837
  150MOL0     N20166   7.194   3.699   1.187  0.5583  0.2111  0.4148
  150MOL0     N20167   7.154   3.631   1.287 -0.7493  0.1688 -0.8667
  150MOL0     C20168   6.438   2.745   1.203  1.7064  0.5810  0.7559
  150MOL0     C20169   6.329   2.658   1.223 -0.0062  0.4551 -1.0725
  150MOL0     C20170   6.003   2.399   1.365 -0.2703  0.1045 -0.0501
  150MOL0     C20171   6.063   2.282   1.404  0.4654 -0.4450 -0.3542
  150MOL0     C20172   5.979   2.169   1.418 -0.3957  0.3588  0.1290
  150MOL0     C20173   5.845   2.173   1.393  0.0908  0.5710 -0.4592
  150MOL0     O20174   5.759   2.061   1.406 -0.3457 -0.5106  0.5229
  150MOL0     C20175   5.809   1.938   1.461  0.5266 -1.2641 -0.7907
  150MOL0     C20176   5.884   1.846   1.364 -0.3438 -0.4860 -0.4201
  150MOL0     C20177   5.865   1.700   1.420 -0.0081  0.1247 -0.0251
  150MOL0     C20178   5.976   1.630   1.498 -0.5152 -0.2344 -0.0419
  150MOL0     C20179   6.006   1.703   1.628 -0.8657 -0.5317  1.1253
  150MOL0     C20180   6.050   1.769   1.722  0.2699 -0.3854  0.3645
  150MOL0     C20181   5.787   2.287   1.360  0.2144  0.0536  0.0481
  150MOL0     C20182   5.860   2.402   1.338  0.5877  0.2897  0.5118
  150MOL0     H20183   6.390   2.632   1.566 -0.9319  1.6864 -0.2092
  150MOL0     H20184   6.581   2.777   1.499  3.0080 -0.4631 -2.0793
  150MOL0     H20185   6.576   2.990   1.423 -1.6019  0.1416 -1.7281
  150MOL0     H20186   6.732   2.910   1.422 -0.7291  0.8644  1.2825
  150MOL0     H20187   6.826   3.048   1.255  0.6061  3.4301  1.1103
  150MOL0     H20188   6.682   3.137   1.220 -2.0275  0.3181  1.6966
  150MOL0     H20189   6.659   3.199   1.459 -0.3098  1.7299 -1.1035
  150MOL0     H20190   6.823   3.152   1.494 -1.9011 -1.1024  1.7144
  150MOL0     H20191   6.893   3.292   1.304 -0.1884 -1.5073  0.4953
  150MOL0     H20192   6.735   3.374   1.286  1.1738  1.6884  0.2236
  150MOL0     H20193   6.768   3.409   1.556  1.2048 -0.9727  0.8003
  150MOL0     H20194   6.932   3.402   1.505  0.5528 -0.2810 -0.7660
  150MOL0     H20195   6.878   3.581   1.312  1.3874  1.9686  0.1921
  150MOL0     H20196   6.717   3.585   1.401  0.0041  0.9624 -1.5491
  150MOL0     H20197   6.851   3.766   1.487  0.3629  0.3130 -2.3683
  150MOL0     H20198   6.842   3.638   1.600 -0.5407 -1.1837 -1.3431
  150MOL0     H20199   7.074   3.576   1.548 -2.6303 -1.3312 -2.1188
  150MOL0     H20200   7.073   3.742   1.601 -0.0404  1.6179 -1.4333
  150MOL0     H20201   7.065   3.935   1.385 -2.0946  1.1484 -1.3535
  150MOL0     H20202   7.264   4.016   1.165  0.1193  2.2081 -1.5005
  150MOL0     H20203   7.227   3.893   1.034 -1.2270 -1.2282  0.5687
  150MOL0     H20204   7.059   4.098   1.146 -0.7324 -1.3823  1.7301
  150MOL0     H20205   6.982   3.945   1.082  0.9233 -1.0684 -0.5287
  150MOL0     H20206   7.165   4.039   0.891  0.5764 -0.8865  2.3024
  150MOL0     H20207   7.101   4.187   0.965  2.7024  0.3782 -0.3913
  150MOL0     H20208   6.869   4.116   0.911  2.1769  2.7736  1.3949
  150MOL0     H20209   6.917   3.962   0.852 -2.5584  1.1551 -0.0145
  150MOL0     H20210   7.011   4.031   0.492  0.3614 -0.5366  0.7182
  150MOL0     H20211   6.960   4.045   0.245 -2.9843  0.1642 -1.4015
  150MOL0     H20212   6.945   3.885   0.306 -2.1418 -2.3182 -2.2056
  150MOL0     H20213   6.820   3.957   0.205 -1.2525  0.7533  0.6107
  150MOL0     H20214   6.243   3.873   0.364 -2.2518 -0.2214  0.3291
  150MOL0     H20215   6.029   3.887   0.253  2.2580 -2.4396  0.3462
  150MOL0     H20216   6.021   3.867   0.019 -0.8757 -1.1425  0.4837
  150MOL0     H20217   5.874   3.943  -0.028 -0.4703  2.9046  3.0966
  150MOL0     H20218   6.150   3.978  -0.181  0.3387 -3.6575  1.3477
  150MOL0     H20219   6.022   3.869  -0.221  1.1218  0.0537  0.3164
  150MOL0     H20220   5.975   4.171  -0.232  1.3378 -0.6394 -0.7068
  150MOL0     H20221   5.856   4.048  -0.259  0.2648  0.8297  0.9088
  150MOL0     H20222   6.103   4.107  -0.434 -0.7643  1.5065 -2.1161
  150MOL0     H20223   6.023   3.952  -0.437  0.0712 -0.3102  1.8169
  150MOL0     H20224   5.945   4.218  -0.550 -0.4186  0.0963  0.3677
  150MOL0     H20225   5.806   4.135  -0.466 -1.2517 -1.6594 -0.0272
  150MOL0     H20226   5.842   4.124  -0.705  0.8788  1.3333 -0.2209
  150MOL0     H20227   5.998   4.047  -0.687  1.1678  0.7320  2.3135
  150MOL0     H20228   5.749   3.914  -0.547 -0.7275  0.0399  0.3972
  150MOL0     H20229   5.898   3.848  -0.601  1.0230  2.9673  1.7442
  150MOL0     H20230   5.715   3.777  -0.749  0.0154  0.2946  4.0678
  150MOL0     H20231   5.842   3.856  -0.836 -0.8378  1.2163 -0.8450
  150MOL0     H20232   6.190   4.242   0.050 -0.3210  0.0869  0.4830
  150MOL0     H20233   6.385   4.230   0.204  0.5884 -0.3674 -3.1073
  150MOL0     H20234   6.529   4.104   0.584  0.3238 -3.7316  3.2873
  150MOL0     H20235   6.698   4.146   0.759  2.8285 -0.4974  2.0608
  150MOL0     H20236   6.452   2.790   1.105  0.4139 -0.5102  0.0304
  150MOL0     H20237   6.274   2.612   1.141 -2.0143  0.7095  0.0855
  150MOL0     H20238   6.166   2.263   1.431  0.2513 -3.3677 -1.1690
  150MOL0     H20239   6.031   2.077   1.439 -2.5183 -1.4251 -1.8385
  150MOL0     H20240   5.864   1.959   1.553 -0.4128 -1.4385 -0.1790
  150MOL0     H20241   5.716   1.897   1.501 -1.2736  1.8755 -1.4113
  150MOL0     H20242   5.987   1.881   1.355 -0.8287  0.4656 -3.0747
  150MOL0     H20243   5.847   1.849   1.261  0.0323  3.2246 -0.5715
  150MOL0     H20244   5.855   1.635   1.332 -1.6270 -0.4639  0.5496
  150MOL0     H20245   5.770   1.688   1.473  0.9855 -1.9823  1.3996
  150MOL0     H20246   6.075   1.625   1.451  0.7456  0.3389  2.3672
  150MOL0     H20247   5.944   1.528   1.518 -1.9973 -0.3381 -2.5199
  150MOL0     H20248   6.098   1.811   1.809  0.5876  4.9536 -1.9964
  150MOL0     H20249   5.682   2.286   1.332 -0.0494 -1.0634  0.9867
  150MOL0     H20250   5.819   2.498   1.306  1.0499  0.6268  0.9226
  151MOL0     O20251   4.835   4.634   2.867 -0.5343 -0.4899 -0.3758
  151MOL0     C20252   4.865   4.518   2.906  0.2209 -0.6253  0.2291
  151MOL0     O20253   4.779   4.419   2.916 -0.4960 -0.2698  0.7668
  151MOL0     C20254   4.652   4.425   2.869 -0.9643 -0.1404 -0.1743
  151MOL0     C20255   4.613   4.366   2.750 -0.1077  0.4537  0.0687
  151MOL0     C20256   4.474   4.352   2.720  0.0658  0.2020 -1.0020
  151MOL0     C20257   4.380   4.400   2.823 -0.1408 -0.2264  0.4058
  151MOL0     O20258   4.243   4.385   2.799 -0.3639  0.8660  0.0088
  151MOL0     C20259   4.160   4.362   2.913 -0.3155  0.9782 -0.2026
  151MOL0     C20260   4.051   4.261   2.884  0.3121 -0.2055 -0.3833
  151MOL0     C20261   3.936   4.323   2.798  1.2994  0.6080 -0.2539
  151MOL0     C20262   3.824   4.219   2.761  0.9727 -0.8333  0.2998
  151MOL0     C20263   3.724   4.300   2.676 -0.1360 -0.0031  0.2287
  151MOL0     C20264   3.632   4.407   2.756  0.7609 -0.0880 -0.0282
  151MOL0     C20265   3.518   4.452   2.656 -0.0813  0.6388 -0.3112
  151MOL0     C20266   3.467   4.590   2.710  0.0989  0.2798  1.1243
  151MOL0     N20267   3.327   4.618   2.666  0.1019  1.1675  0.2265
  151MOL0     C20268   3.274   4.626   2.540  0.1435  0.0923 -0.0797
  151MOL0     C20269   3.162   4.700   2.547 -0.1242  0.8693 -0.3870
  151MOL0     C20270   3.065   4.737   2.442  0.0175  0.4163  0.1870
  151MOL0     C20271   2.937   4.664   2.455 -0.0454  0.1362 -0.5322
  151MOL0     C20272   2.840   4.672   2.336 -0.2445 -0.7295 -0.9161
  151MOL0     C20273   2.707   4.710   2.386  0.5721  0.6033  0.8447
  151MOL0     O20274   2.622   4.706   2.269  0.2259 -0.3866  0.3878
  151MOL0     C20275   2.497   4.667   2.291 -0.0425 -0.6608  0.6448
  151MOL0     C20276   2.444   4.542   2.268  0.7920  0.2456  0.5325
  151MOL0     C20277   2.310   4.506   2.280  0.4457 -1.0767  1.1851
  151MOL0     C20278   2.281   4.360   2.250  0.0815 -0.8521  0.0458
  151MOL0     C20279   2.211   4.599   2.328 -0.4345  1.4796  0.1684
  151MOL0     C20280   2.072   4.562   2.362 -0.8283 -0.0113 -0.3821
  151MOL0     O20281   1.977   4.647   2.315 -0.5452 -0.0476 -0.3283
  151MOL0     C20282   1.846   4.607   2.308 -0.1231  0.1296 -0.4822
  151MOL0     C20283   1.751   4.712   2.310 -0.1693 -0.8659  0.1113
  151MOL0     C20284   1.615   4.696   2.286  0.6598  0.8027 -0.0873
  151MOL0     C20285   1.559   4.558   2.282 -0.1276 -0.2146  0.0949
  151MOL0     O20286   1.428   4.542   2.261  0.1926  0.0862 -0.7747
  151MOL0     C20287   1.386   4.422   2.190 -0.3299  0.3007 -0.1194
  151MOL0     C20288   1.246   4.418   2.129 -0.1561 -0.1740  0.3295
  151MOL0     C20289   1.138   4.457   2.228 -0.1888  0.2051 -0.1470
  151MOL0     C20290   0.998   4.404   2.187  0.5513 -0.7119  0.4510
  151MOL0     C20291   0.944   4.486   2.068 -0.2452 -0.1028 -0.9906
  151MOL0     C20292   0.793   4.463   2.050  0.6097 -0.5754 -0.1102
  151MOL0     C20293   0.738   4.525   1.921  0.2831 -0.6479 -0.6791
  151MOL0     C20294   0.616   4.457   1.861  0.1383  0.4322 -0.0443
  151MOL0    Cl20295   0.476   4.480   1.967 -0.4155  0.0369 -0.3696
  151MOL0     C20296   1.654   4.455   2.289  0.0988 -0.6955 -0.0976
  151MOL0     C20297   1.798   4.476   2.291 -0.1514 -0.2054 -0.7852
  151MOL0     O20298   2.056   4.463   2.428 -0.4616 -0.3195  0.1538
  151MOL0     C20299   2.262   4.729   2.349  0.6037 -0.2782  0.6861
  151MOL0     C20300   2.401   4.763   2.328 -0.4982 -0.3113  1.3598
  151MOL0     N20301   3.149   4.743   2.677 -0.0735 -0.2935 -0.1150
  151MOL0     N20302   3.252   4.694   2.744 -0.2975  0.2087 -0.6982
  151MOL0     C20303   4.422   4.469   2.940 -0.2822 -0.3621 -0.0045
  151MOL0     C20304   4.555   4.477   2.964 -0.0357  0.6182 -0.3225
  151MOL0     C20305   5.010   4.494   2.927  0.2258  0.3395 -0.6498
  151MOL0     C20306   5.103   4.596   2.911 -0.3541 -0.1976  0.3023
  151MOL0     C20307   5.242   4.571   2.934  0.2391 -0.0414  0.4577
  151MOL0     C20308   5.282   4.442   2.981  0.3695  0.1927  0.1917
  151MOL0     O20309   5.411   4.420   3.024  0.3554  0.2078  0.1085
  151MOL0     C20310   5.449   4.302   3.092 -0.0631  0.6659  0.4878
  151MOL0     C20311   5.395   4.303   3.231 -0.8022 -1.3266  0.3292
  151MOL0     C20312   5.425   4.173   3.319  0.2318  0.1463 -0.0488
  151MOL0     C20313   5.574   4.127   3.339  0.1075 -0.6021  0.1269
  151MOL0     C20314   5.621   4.041   3.239 -0.0492  0.3013  0.2100
  151MOL0     C20315   5.664   3.975   3.147 -0.4921  0.2468  0.4931
  151MOL0     C20316   5.179   4.341   2.999 -0.4299 -0.2669 -0.3046
  151MOL0     C20317   5.047   4.367   2.966  0.2579  0.0333  0.1540
  151MOL0     H20318   4.679   4.306   2.688 -1.9534 -1.6598  0.0311
  151MOL0     H20319   4.435   4.309   2.629  1.4051 -2.9338 -0.2326
  151MOL0     H20320   4.229   4.313   2.983  1.7331  2.4202 -1.0928
  151MOL0     H20321   4.116   4.448   2.964 -2.6328 -1.3302  1.9451
  151MOL0     H20322   4.088   4.174   2.830  0.4212  1.1223 -2.5775
  151MOL0     H20323   4.000   4.231   2.976  1.1066 -1.5224 -0.3526
  151MOL0     H20324   3.887   4.406   2.849 -1.4458  0.3508 -2.2454
  151MOL0     H20325   3.984   4.367   2.710 -0.1391 -0.2977 -1.5504
  151MOL0     H20326   3.868   4.146   2.693  0.0487 -0.9633 -0.1708
  151MOL0     H20327   3.793   4.177   2.857  1.7913 -2.6615 -0.2029
  151MOL0     H20328   3.774   4.354   2.595  0.6366 -1.6306 -0.4226
  151MOL0     H20329   3.655   4.229   2.629  1.4592 -0.5829 -1.3570
  151MOL0     H20330   3.585   4.369   2.847 -0.8435 -1.7226 -1.4538
  151MOL0     H20331   3.693   4.493   2.783 -0.6518  0.0897  2.8734
  151MOL0     H20332   3.546   4.470   2.552 -2.9928  3.2773 -0.7871
  151MOL0     H20333   3.437   4.377   2.659  1.3855 -1.0618 -1.2129
  151MOL0     H20334   3.531   4.673   2.681  0.3595  0.3730  1.9559
  151MOL0     H20335   3.467   4.574   2.818 -0.5354  2.1149  1.4274
  151MOL0     H20336   3.306   4.589   2.442 -2.0858 -3.7523  0.4328
  151MOL0     H20337   3.045   4.844   2.454  1.2289  0.8057 -1.0116
  151MOL0     H20338   3.106   4.714   2.344 -0.0456 -0.3032  0.3276
  151MOL0     H20339   2.892   4.696   2.549  3.3290 -1.6353  1.9378
  151MOL0     H20340   2.951   4.556   2.470 -0.2089  0.1176 -0.5105
  151MOL0     H20341   2.840   4.577   2.281  2.7833 -2.2406  1.3671
  151MOL0     H20342   2.871   4.752   2.269 -3.5195  0.4281 -1.2509
  151MOL0     H20343   2.702   4.809   2.434 -1.6506  0.8234  0.2664
  151MOL0     H20344   2.672   4.647   2.468  0.0523  2.1559  1.8689
  151MOL0     H20345   2.518   4.468   2.242  0.8265  0.5292 -0.1968
  151MOL0     H20346   2.187   4.343   2.196 -1.1660  0.4695  1.6810
  151MOL0     H20347   2.363   4.307   2.201 -2.1430 -3.1192 -1.4792
  151MOL0     H20348   2.283   4.316   2.351  1.5155  1.1735  0.9596
  151MOL0     H20349   1.801   4.807   2.324  1.6442 -1.7286 -0.1241
  151MOL0     H20350   1.555   4.786   2.278 -1.5577 -0.7285 -3.2840
  151MOL0     H20351   1.462   4.400   2.114  0.2841  0.3093  0.4745
  151MOL0     H20352   1.386   4.340   2.262 -2.2655  0.9431  0.6651
  151MOL0     H20353   1.246   4.484   2.042 -3.1372  1.8455  1.6983
  151MOL0     H20354   1.231   4.317   2.089  2.0831  0.0433 -1.2472
  151MOL0     H20355   1.138   4.566   2.234 -1.1158  0.3212 -1.7733
  151MOL0     H20356   1.160   4.422   2.329 -3.1727 -0.0083  0.5117
  151MOL0     H20357   1.005   4.300   2.156  2.2293 -1.1808  2.2772
  151MOL0     H20358   0.927   4.413   2.270 -0.4917  0.5896 -0.5299
  151MOL0     H20359   1.002   4.452   1.981  0.5253 -3.6182  0.7388
  151MOL0     H20360   0.979   4.590   2.076 -0.5717 -0.1488  2.6730
  151MOL0     H20361   0.771   4.356   2.057  4.0941 -1.5406 -1.6289
  151MOL0     H20362   0.754   4.511   2.140 -0.4690 -2.3275  0.4078
  151MOL0     H20363   0.800   4.520   1.830 -3.6989  3.4289 -4.0843
  151MOL0     H20364   0.702   4.628   1.923  1.5114 -0.2220 -0.0770
  151MOL0     H20365   0.637   4.350   1.849  2.7478  1.0193 -1.4333
  151MOL0     H20366   0.595   4.488   1.759  0.3864  1.4282  0.2039
  151MOL0     H20367   1.622   4.352   2.284 -0.7292 -0.4034 -1.2625
  151MOL0     H20368   1.862   4.388   2.291  0.6068  0.3271  0.1798
  151MOL0     H20369   2.185   4.801   2.377 -1.5020 -2.6917  1.5467
  151MOL0     H20370   2.418   4.866   2.360 -3.3942  0.2616  1.3067
  151MOL0     H20371   4.359   4.516   3.016 -1.2762 -0.2332 -0.8812
  151MOL0     H20372   4.597   4.507   3.059  3.4321 -2.7757 -0.4947
  151MOL0     H20373   5.082   4.698   2.881 -2.2674 -0.8033 -0.5895
  151MOL0     H20374   5.314   4.652   2.938  0.6673 -0.4154  0.4258
  151MOL0     H20375   5.420   4.212   3.036  3.2316  1.2452 -2.4708
  151MOL0     H20376   5.558   4.296   3.093 -0.1067 -0.9767 -0.1978
  151MOL0     H20377   5.287   4.317   3.219 -0.3314  0.5272 -2.6636
  151MOL0     H20378   5.429   4.396   3.278  0.1596 -0.4003 -2.0299
  151MOL0     H20379   5.378   4.085   3.275  2.2092 -0.7092 -0.5742
  151MOL0     H20380   5.379   4.191   3.417  2.5660  2.0401  0.7986
  151MOL0     H20381   5.593   4.079   3.435  2.6370  1.6501  0.8502
  151MOL0     H20382   5.641   4.213   3.337  0.6110 -1.0031 -1.1550
  151MOL0     H20383   5.724   3.928   3.071  0.1045 -0.8569  1.6029
  151MOL0     H20384   5.202   4.241   3.032  0.2799  1.1571  4.2633
  151MOL0     H20385   4.976   4.284   2.970 -0.0002  0.2699  0.4996
  152MOL0     O20386   4.440   6.174   0.701  0.0042  0.5281 -0.1780
  152MOL0     C20387   4.464   6.175   0.580 -0.3207 -0.2238  0.2826
  152MOL0     O20388   4.376   6.123   0.480 -0.3197 -0.3129  0.4218
  152MOL0     C20389   4.261   6.052   0.495  0.4819 -0.6119  0.3910
  152MOL0     C20390   4.206   6.023   0.621  0.5904 -0.4704 -0.1914
  152MOL0     C20391   4.083   5.963   0.634 -0.3633 -0.3879 -0.4127
  152MOL0     C20392   4.005   5.922   0.519  0.5679 -0.2140  0.0264
  152MOL0     O20393   3.884   5.847   0.524 -0.1647 -0.1917 -0.0058
  152MOL0     C20394   3.815   5.818   0.645 -0.0723 -0.7912  0.2342
  152MOL0     C20395   3.711   5.705   0.622 -0.0619 -0.4359 -0.0060
  152MOL0     C20396   3.578   5.748   0.553 -0.0121  0.2483 -0.0830
  152MOL0     C20397   3.480   5.629   0.578 -0.1413 -0.4999  1.0896
  152MOL0     C20398   3.351   5.667   0.494 -1.1308  0.8447 -0.5166
  152MOL0     C20399   3.243   5.561   0.505  0.5676  0.2563  0.6420
  152MOL0     C20400   3.151   5.556   0.381 -0.8202  0.1110  0.3805
  152MOL0     C20401   3.049   5.449   0.421  0.3170 -0.5434  0.7874
  152MOL0     N20402   2.947   5.436   0.306  0.5739  0.2179  0.6576
  152MOL0     C20403   2.906   5.324   0.242 -0.1606  0.3211 -0.2514
  152MOL0     C20404   2.835   5.352   0.137 -0.4092  0.3358 -0.1526
  152MOL0     C20405   2.771   5.249   0.047 -0.0350  0.2189 -0.1330
  152MOL0     C20406   2.648   5.220   0.129 -0.1097  0.2678  0.1492
  152MOL0     C20407   2.604   5.076   0.102 -1.1997 -0.0676 -0.7353
  152MOL0     C20408   2.459   5.054   0.152 -0.1058  0.6106  0.4073
  152MOL0     O20409   2.374   5.136   0.075  0.1705 -0.1360  0.0171
  152MOL0     C20410   2.242   5.155   0.122 -0.7377  0.0594  0.0388
  152MOL0     C20411   2.190   5.099   0.233 -0.4101  0.7946 -0.9043
  152MOL0     C20412   2.059   5.113   0.277  0.2014 -0.4216 -0.5103
  152MOL0     C20413   2.018   5.041   0.400 -0.4277  0.4964 -0.0508
  152MOL0     C20414   1.969   5.189   0.200  0.1647  0.6635 -0.6128
  152MOL0     C20415   1.820   5.209   0.240 -0.0730  1.5994 -0.2721
  152MOL0     O20416   1.755   5.313   0.174  0.2307  0.2871 -0.8607
  152MOL0     C20417   1.629   5.338   0.219  0.6258  0.6193  0.1632
  152MOL0     C20418   1.564   5.319   0.354 -0.2722  0.2183  0.6234
  152MOL0     C20419   1.426   5.331   0.376  0.2679  0.1655  0.0572
  152MOL0     C20420   1.352   5.383   0.267 -0.4102  0.5870  0.1745
  152MOL0     O20421   1.224   5.431   0.277 -0.1602 -0.4719 -0.3827
  152MOL0     C20422   1.134   5.341   0.338 -0.1466  0.3064  0.8336
  152MOL0     C20423   0.997   5.406   0.319  0.1069 -0.0055 -0.0893
  152MOL0     C20424   0.884   5.350   0.419 -0.1158  0.2228  0.7158
  152MOL0     C20425   0.746   5.408   0.393 -0.0404 -0.2775 -0.3198
  152MOL0     C20426   0.683   5.390   0.253 -0.0129  0.0830  0.5665
  152MOL0     C20427   0.647   5.528   0.190 -0.4969  0.4404 -0.6180
  152MOL0     C20428   0.566   5.517   0.055  0.2911  0.1968 -0.6773
  152MOL0     C20429   0.441   5.601   0.033  0.3304  0.7803  0.0104
  152MOL0    Cl20430   0.495   5.773  -0.011  0.1316 -0.3732  0.1885
  152MOL0     C20431   1.413   5.415   0.143  0.0826 -0.0882  0.0253
  152MOL0     C20432   1.547   5.381   0.111  0.0852  0.1435  1.0325
  152MOL0     O20433   1.764   5.109   0.298 -0.3159 -0.1273  0.8697
  152MOL0     C20434   2.023   5.248   0.082  0.7024  0.0081  0.6990
  152MOL0     C20435   2.154   5.223   0.043  0.1076 -0.3423  0.3987
  152MOL0     N20436   2.825   5.490   0.128  0.3209  0.4339  1.0037
  152MOL0     N20437   2.901   5.538   0.226 -0.1340 -0.2458 -0.1359
  152MOL0     C20438   4.055   5.951   0.396 -0.7248  0.2709  0.6583
  152MOL0     C20439   4.191   6.012   0.382  0.8627  0.2899 -0.4827
  152MOL0     C20440   4.582   6.255   0.531 -1.5218  0.0288 -0.1387
  152MOL0     C20441   4.697   6.280   0.620  0.1133  0.3422 -0.1351
  152MOL0     C20442   4.810   6.348   0.569  0.0491  0.8762 -0.3740
  152MOL0     C20443   4.815   6.384   0.433 -0.7801 -0.0848  0.2478
  152MOL0     O20444   4.930   6.429   0.361  0.5454  0.2118  0.3766
  152MOL0     C20445   5.053   6.419   0.435 -0.1703 -0.5543 -0.2289
  152MOL0     C20446   5.169   6.474   0.352  1.0452 -0.3910 -0.1788
  152MOL0     C20447   5.136   6.608   0.270  0.2060 -0.4884  0.7471
  152MOL0     C20448   5.262   6.664   0.193  0.1196 -0.2970 -0.4624
  152MOL0     C20449   5.288   6.611   0.061  0.0388 -0.5635 -0.0931
  152MOL0     C20450   5.326   6.563  -0.048  0.1592  0.0957 -0.1445
  152MOL0     C20451   4.710   6.365   0.352  0.2445 -0.4183 -0.2965
  152MOL0     C20452   4.593   6.306   0.394  0.1306 -0.5328  0.0399
  152MOL0     H20453   4.245   6.042   0.720 -2.5538  0.7659  0.9449
  152MOL0     H20454   4.063   5.934   0.737  1.2013 -0.0354  0.0216
  152MOL0     H20455   3.886   5.798   0.726  3.2923  1.1022 -2.0088
  152MOL0     H20456   3.768   5.915   0.666  0.2383 -0.6876  0.4479
  152MOL0     H20457   3.757   5.618   0.575 -1.6942  1.0349 -4.9233
  152MOL0     H20458   3.686   5.670   0.723  1.8755  0.5304  0.8677
  152MOL0     H20459   3.539   5.836   0.606  0.4251  0.0836  0.5272
  152MOL0     H20460   3.602   5.759   0.447 -3.3279  0.4607 -0.9139
  152MOL0     H20461   3.528   5.537   0.544 -0.6321  0.0278 -1.2033
  152MOL0     H20462   3.457   5.622   0.684  0.3004 -2.6112  1.0861
  152MOL0     H20463   3.313   5.767   0.518 -0.0415  0.5703  2.9180
  152MOL0     H20464   3.391   5.682   0.393  3.0131 -0.6793  0.6742
  152MOL0     H20465   3.283   5.464   0.537  0.9763  0.3985  0.5741
  152MOL0     H20466   3.193   5.591   0.597  2.1931  2.1172  0.9950
  152MOL0     H20467   3.106   5.656   0.376 -0.3149  0.2673 -2.3476
  152MOL0     H20468   3.201   5.539   0.285  0.9105  0.7935  1.1306
  152MOL0     H20469   3.000   5.504   0.503  2.3230  2.8866 -0.1098
  152MOL0     H20470   3.080   5.348   0.445 -0.9237 -1.5905 -1.6527
  152MOL0     H20471   2.928   5.222   0.272  1.1392 -0.6469 -3.9499
  152MOL0     H20472   2.745   5.282  -0.054 -1.5657  1.2577  0.5596
  152MOL0     H20473   2.838   5.163   0.037  0.3621  0.6016 -0.8869
  152MOL0     H20474   2.565   5.290   0.115  0.5070  0.7309 -1.2672
  152MOL0     H20475   2.671   5.236   0.235  0.5952  0.2732 -0.0009
  152MOL0     H20476   2.669   4.999   0.144 -0.4530  1.2267  0.5557
  152MOL0     H20477   2.610   5.064  -0.007  0.4231 -2.3361 -0.4833
  152MOL0     H20478   2.448   5.080   0.258  1.6252  1.5981  0.3792
  152MOL0     H20479   2.421   4.953   0.137  0.6596  0.5197 -1.0415
  152MOL0     H20480   2.257   5.040   0.295 -1.3314  0.2754 -0.3859
  152MOL0     H20481   1.938   5.083   0.462 -1.0298 -2.1268  1.0776
  152MOL0     H20482   1.971   4.950   0.364 -0.5274  0.3626  0.4076
  152MOL0     H20483   2.101   5.022   0.468 -1.2766 -0.0872  0.8468
  152MOL0     H20484   1.631   5.291   0.434 -2.4587 -1.6624  1.9224
  152MOL0     H20485   1.372   5.319   0.469 -3.2777  1.0614 -1.7054
  152MOL0     H20486   1.138   5.240   0.295  1.2072  0.9005 -0.5348
  152MOL0     H20487   1.163   5.319   0.441 -0.7874 -2.9880  0.4416
  152MOL0     H20488   1.006   5.514   0.326 -3.2624  0.4545 -1.1363
  152MOL0     H20489   0.971   5.392   0.214 -1.2197  1.8858 -0.0617
  152MOL0     H20490   0.910   5.366   0.524 -0.4542 -1.5536  1.0997
  152MOL0     H20491   0.879   5.241   0.411 -0.7724  0.0416  3.0148
  152MOL0     H20492   0.678   5.377   0.473 -3.5967  1.6885 -2.3439
  152MOL0     H20493   0.755   5.517   0.403 -1.6052 -0.1327 -0.2484
  152MOL0     H20494   0.583   5.350   0.277 -0.4352  1.3139  0.9276
  152MOL0     H20495   0.744   5.328   0.187  0.9064  1.1609  0.3834
  152MOL0     H20496   0.572   5.579   0.251 -2.8585  2.3544 -4.7194
  152MOL0     H20497   0.730   5.599   0.186  0.9028 -0.8661  2.1776
  152MOL0     H20498   0.531   5.414   0.045 -3.3340  1.3573 -1.6727
  152MOL0     H20499   0.619   5.546  -0.036 -1.1104  3.8087 -0.5063
  152MOL0     H20500   0.386   5.594   0.127  3.3790  0.1465  1.9138
  152MOL0     H20501   0.379   5.570  -0.051  1.7733  0.0999 -0.8474
  152MOL0     H20502   1.361   5.458   0.059  1.1854  0.0813 -0.5858
  152MOL0     H20503   1.598   5.386   0.016  2.6691  0.6993  2.3657
  152MOL0     H20504   1.972   5.312   0.011 -1.3752 -1.3953  0.8201
  152MOL0     H20505   2.182   5.270  -0.050 -0.5063  1.5241  1.1168
  152MOL0     H20506   4.001   5.922   0.306  0.2269  0.1228  0.1256
  152MOL0     H20507   4.231   6.033   0.283  0.4092  1.7734 -0.3733
  152MOL0     H20508   4.684   6.267   0.727 -1.0801  4.1292  0.3179
  152MOL0     H20509   4.888   6.371   0.640 -1.1150  4.3142 -0.0513
  152MOL0     H20510   5.051   6.493   0.515 -0.2756  0.7714 -1.4189
  152MOL0     H20511   5.078   6.322   0.478  2.4895 -0.8409 -2.1707
  152MOL0     H20512   5.182   6.395   0.278 -1.3636 -0.4040 -0.6412
  152MOL0     H20513   5.256   6.493   0.416  1.7870  0.3464 -1.3643
  152MOL0     H20514   5.102   6.692   0.330 -1.8791  1.2312 -2.5443
  152MOL0     H20515   5.052   6.590   0.203  0.2633 -1.9377  1.0179
  152MOL0     H20516   5.355   6.654   0.249 -0.4724  1.0951  0.8012
  152MOL0     H20517   5.246   6.771   0.182 -1.5660 -0.4635 -0.0146
  152MOL0     H20518   5.364   6.526  -0.142  4.1168 -0.0661  1.3097
  152MOL0     H20519   4.719   6.398   0.249  0.8165  1.1306  0.2148
  152MOL0     H20520   4.520   6.280   0.318  2.8065 -5.5194 -1.1872
  153MOL0     O20521   9.706   8.429  10.790  0.2092  0.2598 -0.4607
  153MOL0     C20522   9.727   8.423  10.914  0.8415 -0.5469 -0.4623
  153MOL0     O20523   9.634   8.386  11.008 -0.4116 -0.0168  0.3248
  153MOL0     C20524   9.502   8.359  10.969  0.1062 -0.4009  0.3649
  153MOL0     C20525   9.428   8.458  10.907 -0.0357  0.1902 -0.3675
  153MOL0     C20526   9.289   8.435  10.893 -0.0973  0.2056  0.0259
  153MOL0     C20527   9.221   8.318  10.927 -0.3090 -0.5150  0.6780
  153MOL0     O20528   9.085   8.301  10.910  0.3175 -0.0803  0.4431
  153MOL0     C20529   9.025   8.324  10.779  0.1744  0.1279 -0.7448
  153MOL0     C20530   8.913   8.220  10.765 -0.4695  0.2351  0.3257
  153MOL0     C20531   8.789   8.281  10.825  0.1765 -0.0093 -0.0410
  153MOL0     C20532   8.676   8.180  10.821  0.2969 -0.0249  0.9078
  153MOL0     C20533   8.617   8.150  10.679 -0.3297  0.5110 -0.4781
  153MOL0     C20534   8.499   8.066  10.678 -0.8136  0.5563 -0.5130
  153MOL0     C20535   8.524   7.920  10.691  0.1005 -0.4063  0.4450
  153MOL0     C20536   8.410   7.824  10.675  0.1252  0.4897  0.0879
  153MOL0     N20537   8.329   7.855  10.554 -0.1111 -0.7966  0.0693
  153MOL0     C20538   8.351   7.814  10.432  0.0191 -0.5520  0.3704
  153MOL0     C20539   8.234   7.834  10.361  0.0419  0.4584 -0.9417
  153MOL0     C20540   8.176   7.808  10.226 -0.0756 -0.9347 -0.7426
  153MOL0     C20541   8.094   7.680  10.230 -0.9824 -0.1182 -0.0134
  153MOL0     C20542   8.056   7.610  10.106  0.6016  0.2481  0.0016
  153MOL0     C20543   7.932   7.512  10.104 -0.9441  0.4166 -1.7431
  153MOL0     O20544   7.812   7.568  10.158  0.6410 -0.0748 -0.5602
  153MOL0     C20545   7.699   7.499  10.129 -0.3948  0.7120  0.0954
  153MOL0     C20546   7.695   7.378  10.065  0.3157 -0.1104 -0.1949
  153MOL0     C20547   7.567   7.314  10.043  0.2396  0.9656  1.1186
  153MOL0     C20548   7.569   7.189   9.976 -0.1743 -0.2638 -0.3979
  153MOL0     C20549   7.450   7.374  10.081  0.7898 -0.1416  0.4912
  153MOL0     C20550   7.323   7.302  10.088 -0.6954  0.8180  0.7207
  153MOL0     O20551   7.330   7.180  10.153  0.1977 -0.0838 -0.3415
  153MOL0     C20552   7.213   7.132  10.215  0.3497 -0.8541  0.5224
  153MOL0     C20553   7.093   7.198  10.254  0.1620 -0.1746 -0.5044
  153MOL0     C20554   6.981   7.126  10.300  0.4052 -0.7559  0.3662
  153MOL0     C20555   6.984   6.985  10.311  0.1943  0.2772  0.7919
  153MOL0     O20556   6.884   6.907  10.355 -0.2182  0.3200 -0.3217
  153MOL0     C20557   6.797   6.956  10.459 -0.5111 -1.0451 -0.2380
  153MOL0     C20558   6.710   6.832  10.484 -0.0583  0.1284 -0.2059
  153MOL0     C20559   6.599   6.864  10.584 -0.5254  0.4880  0.8361
  153MOL0     C20560   6.512   6.747  10.586  0.6440  0.3180  0.3201
  153MOL0     C20561   6.414   6.741  10.709 -0.2927 -0.2186  0.9455
  153MOL0     C20562   6.281   6.799  10.656  0.2274 -0.1237  0.1726
  153MOL0     C20563   6.173   6.796  10.764 -0.1645  0.1610  0.7145
  153MOL0     C20564   6.166   6.665  10.851 -0.2285 -0.0807  0.5864
  153MOL0    Cl20565   6.033   6.653  10.965 -0.0590  0.1856  0.0183
  153MOL0     C20566   7.104   6.921  10.286 -0.3824  0.6741  0.2813
  153MOL0     C20567   7.217   6.995  10.241 -0.1484 -0.6704  0.5788
  153MOL0     O20568   7.220   7.362  10.057 -0.3973  0.4302 -0.6892
  153MOL0     C20569   7.458   7.506  10.129  0.3676 -0.3880 -0.4339
  153MOL0     C20570   7.579   7.566  10.159 -0.4165  0.0851 -0.1031
  153MOL0     N20571   8.149   7.887  10.447 -0.5755  0.0913 -0.3800
  153MOL0     N20572   8.205   7.906  10.562  0.1349 -0.9245 -0.1128
  153MOL0     C20573   9.300   8.223  10.991  0.4397 -0.8045 -0.2576
  153MOL0     C20574   9.437   8.238  11.011 -0.1017 -0.3614  0.2456
  153MOL0     C20575   9.869   8.443  10.960 -0.9145 -0.1995  0.2253
  153MOL0     C20576   9.906   8.408  11.086  0.0350 -0.3116  0.4666
  153MOL0     C20577  10.038   8.416  11.128 -1.3145 -0.3086 -0.3407
  153MOL0     C20578  10.136   8.464  11.033  0.4666  0.3041  0.1011
  153MOL0     O20579  10.267   8.454  11.055 -0.3282 -0.3553  0.8790
  153MOL0     C20580  10.307   8.542  11.167  0.7418 -0.3417 -0.8742
  153MOL0     C20581  10.440   8.596  11.145 -0.9724 -0.4342 -0.1720
  153MOL0     C20582  10.502   8.696  11.253  0.2977 -0.2905  0.7930
  153MOL0     C20583  10.518   8.843  11.202  0.0269  0.3897 -0.0291
  153MOL0     C20584  10.594   8.921  11.307  0.7573  0.2236  0.0515
  153MOL0     C20585  10.659   8.979  11.389  0.0267  0.0330  0.6006
  153MOL0     C20586  10.094   8.504  10.907 -0.3269  0.4172 -0.0577
  153MOL0     C20587   9.962   8.485  10.866 -0.3835 -0.2898 -0.1337
  153MOL0     H20588   9.477   8.555  10.902  0.4018  0.3686  3.7575
  153MOL0     H20589   9.236   8.521  10.854  1.0116  0.8085 -0.1629
  153MOL0     H20590   8.985   8.423  10.755  0.0954  0.3083  0.1077
  153MOL0     H20591   9.104   8.298  10.708 -1.0451 -0.9605 -1.7547
  153MOL0     H20592   8.883   8.196  10.663  1.5138  0.1874 -0.2776
  153MOL0     H20593   8.942   8.129  10.818 -1.1108  0.3298  0.8617
  153MOL0     H20594   8.813   8.317  10.925  0.3344  1.5065 -0.5957
  153MOL0     H20595   8.767   8.372  10.767  1.2354 -0.4468 -1.1685
  153MOL0     H20596   8.723   8.088  10.858  1.6098  0.8743  1.5430
  153MOL0     H20597   8.594   8.210  10.885 -1.3199  0.3238 -1.2122
  153MOL0     H20598   8.604   8.247  10.630  1.6067 -0.5036 -3.2797
  153MOL0     H20599   8.693   8.104  10.614 -1.2240  0.3515 -1.4313
  153MOL0     H20600   8.425   8.095  10.753 -1.0172 -1.5112  0.1666
  153MOL0     H20601   8.456   8.097  10.582  0.3001  2.5460 -0.4230
  153MOL0     H20602   8.609   7.889  10.629  0.9421 -0.1309  1.4134
  153MOL0     H20603   8.561   7.905  10.793 -0.5098  1.5702  0.9898
  153MOL0     H20604   8.336   7.828  10.755 -2.6302 -0.1656 -2.2406
  153MOL0     H20605   8.449   7.723  10.658  0.2896  0.5250  0.2608
  153MOL0     H20606   8.443   7.775  10.389  1.6260  1.9673  1.3311
  153MOL0     H20607   8.114   7.897  10.212  0.1569 -0.0325  2.8335
  153MOL0     H20608   8.260   7.799  10.158  0.7449  2.4580 -0.3840
  153MOL0     H20609   8.002   7.706  10.283  0.7388  2.6804  1.8448
  153MOL0     H20610   8.152   7.610  10.291  2.3168 -0.8146 -3.5848
  153MOL0     H20611   8.146   7.559  10.069 -0.6724 -1.0509 -1.4307
  153MOL0     H20612   8.028   7.695  10.044 -1.2930 -0.4657 -0.1815
  153MOL0     H20613   7.958   7.424  10.163 -3.2361  1.8949  1.7393
  153MOL0     H20614   7.923   7.490   9.997 -0.6765  2.1773 -2.1621
  153MOL0     H20615   7.781   7.332  10.017 -0.0943  0.0317 -1.0689
  153MOL0     H20616   7.656   7.177   9.910  1.9908  1.3152  1.9792
  153MOL0     H20617   7.566   7.115  10.055  2.4406  2.4528  2.5437
  153MOL0     H20618   7.477   7.180   9.918 -1.4265  0.2403  1.4199
  153MOL0     H20619   7.091   7.306  10.245  0.1398 -0.2549 -1.7214
  153MOL0     H20620   6.891   7.169  10.343 -0.4277 -1.4146 -0.6747
  153MOL0     H20621   6.844   6.988  10.552 -1.2223  2.1869 -0.8690
  153MOL0     H20622   6.741   7.042  10.421  0.3189 -0.9837 -1.3583
  153MOL0     H20623   6.673   6.798  10.388 -0.5117 -0.9726  0.3435
  153MOL0     H20624   6.774   6.753  10.525  1.3771  1.0322 -0.6265
  153MOL0     H20625   6.539   6.948  10.547  0.5748  2.6388  3.5387
  153MOL0     H20626   6.629   6.905  10.681  3.2457  0.0409  0.0298
  153MOL0     H20627   6.453   6.747  10.493  3.1067 -0.3568 -1.3496
  153MOL0     H20628   6.574   6.657  10.583  2.0646  1.2778 -0.3363
  153MOL0     H20629   6.452   6.807  10.787  1.2907 -0.0167  0.0675
  153MOL0     H20630   6.402   6.635  10.734 -0.9497  0.2221  2.5630
  153MOL0     H20631   6.294   6.900  10.617  2.5597 -1.2982 -2.4273
  153MOL0     H20632   6.248   6.736  10.573 -0.0711  1.1518 -0.7098
  153MOL0     H20633   6.072   6.814  10.726  0.4407  0.4342 -0.8660
  153MOL0     H20634   6.200   6.864  10.845  2.2306 -1.7446  1.6190
  153MOL0     H20635   6.256   6.662  10.912 -1.3054  0.2475  2.2746
  153MOL0     H20636   6.161   6.582  10.781 -0.2242  0.6083 -0.2390
  153MOL0     H20637   7.114   6.813  10.285 -2.2891  0.4653  0.0305
  153MOL0     H20638   7.296   6.935  10.197 -0.1172 -2.8166  3.3383
  153MOL0     H20639   7.370   7.559  10.164 -0.0392 -1.0675 -0.4081
  153MOL0     H20640   7.584   7.662  10.210 -2.2974 -0.0042  0.3215
  153MOL0     H20641   9.244   8.134  11.016 -1.2347  0.3218  0.1429
  153MOL0     H20642   9.489   8.159  11.065 -0.9302 -1.1830 -0.1379
  153MOL0     H20643   9.830   8.372  11.156 -1.2604 -0.2953 -0.8874
  153MOL0     H20644  10.077   8.401  11.229  0.4927  0.0745 -0.9509
  153MOL0     H20645  10.234   8.620  11.188  0.2163 -1.2128  0.7231
  153MOL0     H20646  10.308   8.485  11.260  2.0394 -0.3786 -0.8893
  153MOL0     H20647  10.437   8.646  11.048 -1.6123  2.4685  1.2365
  153MOL0     H20648  10.509   8.511  11.135 -1.1071 -1.0091  2.8488
  153MOL0     H20649  10.597   8.664  11.296  0.9138  0.8716  0.3389
  153MOL0     H20650  10.439   8.687  11.343 -0.0757  1.0312  0.6938
  153MOL0     H20651  10.418   8.881  11.178 -0.4490 -0.3358  0.7516
  153MOL0     H20652  10.572   8.839  11.107  0.3380 -2.5106  0.2050
  153MOL0     H20653  10.722   9.029  11.460 -0.4912 -1.4799  2.2022
  153MOL0     H20654  10.165   8.530  10.828 -1.6058  1.6956 -0.8497
  153MOL0     H20655   9.926   8.519  10.769 -1.5140 -2.0583 -0.3824
  154MOL0     O20656  10.949  10.383  11.375 -0.8498  0.4112  0.1191
  154MOL0     C20657  10.837  10.327  11.354  0.2062 -0.5841  0.4496
  154MOL0     O20658  10.721  10.391  11.318 -0.5234  0.3923  0.4362
  154MOL0     C20659  10.744  10.524  11.275 -0.3527 -0.3320 -0.2219
  154MOL0     C20660  10.740  10.567  11.141  0.3448 -0.3002 -0.0390
  154MOL0     C20661  10.770  10.695  11.099  0.3121 -0.2561 -0.0352
  154MOL0     C20662  10.803  10.795  11.199 -0.4577  0.9910  0.3484
  154MOL0     O20663  10.850  10.918  11.154 -0.4863 -1.0094 -0.1229
  154MOL0     C20664  10.975  10.960  11.209  0.2019 -0.0548  0.4009
  154MOL0     C20665  10.987  11.108  11.250 -0.3084 -0.1084 -0.1770
  154MOL0     C20666  11.087  11.189  11.172 -0.8226  0.0257  0.0909
  154MOL0     C20667  11.070  11.196  11.015 -0.2357  0.1241  0.2358
  154MOL0     C20668  11.196  11.221  10.935 -0.5658 -0.7877  0.5360
  154MOL0     C20669  11.164  11.209  10.785 -0.3708 -1.0636 -0.2014
  154MOL0     C20670  11.274  11.254  10.680  0.3662  0.0635  0.2213
  154MOL0     C20671  11.393  11.159  10.674 -0.1202  0.0143  0.3336
  154MOL0     N20672  11.373  11.072  10.560  0.3126 -0.2277 -1.1836
  154MOL0     C20673  11.406  11.100  10.438 -0.6594 -0.4081 -0.3840
  154MOL0     C20674  11.356  10.990  10.369 -0.4231  0.2622  0.0921
  154MOL0     C20675  11.365  10.967  10.222 -0.6865  0.2706  0.2565
  154MOL0     C20676  11.507  10.921  10.178  0.3301 -0.0752 -0.7439
  154MOL0     C20677  11.524  10.835  10.049  0.6398 -0.2072 -0.1025
  154MOL0     C20678  11.665  10.815  10.004  0.4061 -0.5351 -0.3945
  154MOL0     O20679  11.727  10.746  10.113  0.4351  0.1023 -0.1648
  154MOL0     C20680  11.859  10.753  10.134 -0.2612  0.1355  0.7547
  154MOL0     C20681  11.908  10.696  10.249  0.0199  0.8374  0.1137
  154MOL0     C20682  12.043  10.691  10.282  0.4986 -0.7250  0.2668
  154MOL0     C20683  12.081  10.640  10.418 -0.2305  0.0851 -0.3265
  154MOL0     C20684  12.131  10.760  10.193  0.3371  0.2642  0.5925
  154MOL0     C20685  12.281  10.770  10.204  0.4389  0.6308  0.8450
  154MOL0     O20686  12.348  10.845  10.114 -0.4467 -0.1325 -0.6144
  154MOL0     C20687  12.481  10.878  10.112 -0.3029 -0.3276  0.0476
  154MOL0     C20688  12.566  10.875  10.227 -0.1999  0.6912 -0.0865
  154MOL0     C20689  12.694  10.917  10.218  0.5885 -0.5293  0.5460
  154MOL0     C20690  12.742  10.969  10.091 -0.4001  0.2378  0.5121
  154MOL0     O20691  12.861  11.038  10.080  0.2314  0.0839  0.0440
  154MOL0     C20692  12.980  10.989  10.148  0.4175  0.2701  0.0807
  154MOL0     C20693  13.097  11.074  10.112 -0.1378 -0.2262 -0.0679
  154MOL0     C20694  13.227  11.026  10.190  0.4882 -0.5339  0.1093
  154MOL0     C20695  13.348  11.129  10.197 -0.4093 -0.7270  0.0206
  154MOL0     C20696  13.475  11.045  10.238  0.2370  0.6900  0.8402
  154MOL0     C20697  13.601  11.125  10.247  0.8030 -0.8076  0.7942
  154MOL0     C20698  13.607  11.190  10.385 -0.1819 -0.0380 -0.3494
  154MOL0     C20699  13.719  11.290  10.407 -1.1236 -0.6427  0.2122
  154MOL0    Cl20700  13.754  11.393  10.264 -0.2015  0.1026  0.1162
  154MOL0     C20701  12.661  10.964   9.981  0.4392  0.6273  0.6143
  154MOL0     C20702  12.536  10.918   9.992  0.8957  0.2279  0.7524
  154MOL0     O20703  12.333  10.706  10.293 -0.6518 -0.0399 -0.1910
  154MOL0     C20704  12.077  10.825  10.082 -0.5843  0.1102  0.8304
  154MOL0     C20705  11.946  10.820  10.051  0.4953 -0.2045 -0.7515
  154MOL0     N20706  11.287  10.899  10.457  0.5617 -0.3431  0.0727
  154MOL0     N20707  11.313  10.949  10.571 -0.0626  0.3115  0.5320
  154MOL0     C20708  10.791  10.755  11.338 -0.3182  0.6552 -0.5368
  154MOL0     C20709  10.772  10.619  11.372  0.0399  0.3433 -0.0211
  154MOL0     C20710  10.834  10.181  11.381 -0.5868 -0.4849  0.2435
  154MOL0     C20711  10.714  10.106  11.368  0.2508 -0.1715  0.5230
  154MOL0     C20712  10.712   9.974  11.400  0.3239  0.5921  1.1363
  154MOL0     C20713  10.827   9.909  11.444 -1.2292 -0.3693  0.8107
  154MOL0     O20714  10.827   9.781  11.491  0.5700 -0.3433  0.7932
  154MOL0     C20715  10.707   9.700  11.478  0.2242 -0.2071 -0.6181
  154MOL0     C20716  10.743   9.561  11.525 -0.0561  0.0106 -0.4322
  154MOL0     C20717  10.637   9.454  11.524 -0.4879  0.1723  0.1378
  154MOL0     C20718  10.692   9.317  11.568  0.1210 -0.1475 -0.8510
  154MOL0     C20719  10.727   9.305  11.714  0.4048 -0.1119 -0.4470
  154MOL0     C20720  10.770   9.307  11.830  1.0071  0.3325 -0.5019
  154MOL0     C20721  10.949   9.974  11.430 -0.1508  0.1942 -0.1849
  154MOL0     C20722  10.947  10.112  11.397 -0.1812  0.9820  0.0176
  154MOL0     H20723  10.729  10.492  11.064  0.7233 -0.2522 -0.1433
  154MOL0     H20724  10.777  10.730  10.997 -1.7542  5.5023  1.3975
  154MOL0     H20725  11.005  10.895  11.292  0.9004 -1.3447 -0.8041
  154MOL0     H20726  11.050  10.944  11.131  0.8342 -1.9407  1.3358
  154MOL0     H20727  10.887  11.150  11.238 -0.3612 -0.2367 -0.1883
  154MOL0     H20728  11.015  11.116  11.356 -1.1359  0.4785  0.0102
  154MOL0     H20729  11.065  11.286  11.216 -2.9533 -1.3025  2.1648
  154MOL0     H20730  11.191  11.166  11.199 -0.4231  1.8691  0.2874
  154MOL0     H20731  11.018  11.108  10.979  0.0250  0.3255 -0.6492
  154MOL0     H20732  11.002  11.282  11.004 -3.3241 -2.1672 -0.0190
  154MOL0     H20733  11.244  11.318  10.951 -0.3859  0.1702 -4.2227
  154MOL0     H20734  11.265  11.141  10.961 -1.3091 -1.9351 -0.8405
  154MOL0     H20735  11.123  11.111  10.758 -3.1372  0.0782 -0.5442
  154MOL0     H20736  11.081  11.278  10.769 -0.1076 -0.8061 -0.4532
  154MOL0     H20737  11.236  11.263  10.577  3.4467 -2.3660 -1.2890
  154MOL0     H20738  11.307  11.356  10.704  2.8793  0.0173 -2.5436
  154MOL0     H20739  11.399  11.099  10.765  1.0326 -0.5802 -0.1272
  154MOL0     H20740  11.486  11.214  10.658 -0.8980  1.7669  1.4739
  154MOL0     H20741  11.465  11.184  10.403  1.0819 -1.4911 -0.2015
  154MOL0     H20742  11.310  10.875  10.202  1.2358 -0.3120 -3.1497
  154MOL0     H20743  11.329  11.055  10.167 -1.2339 -1.3144 -2.0433
  154MOL0     H20744  11.542  10.865  10.265  0.9429  0.0781 -0.8871
  154MOL0     H20745  11.562  11.015  10.165 -2.5551  2.2420  2.1586
  154MOL0     H20746  11.474  10.888   9.968 -0.0348 -0.5254  0.0961
  154MOL0     H20747  11.476  10.736  10.059  1.6774 -0.7287 -0.1724
  154MOL0     H20748  11.715  10.907   9.972 -0.9666  0.0861 -0.8231
  154MOL0     H20749  11.663  10.755   9.912 -1.4752 -1.5620  0.2510
  154MOL0     H20750  11.837  10.644  10.312  0.7787 -2.5487 -1.5844
  154MOL0     H20751  12.128  10.723  10.472 -2.5644  1.5585 -0.4389
  154MOL0     H20752  11.989  10.613  10.470 -0.5446  1.9778  0.1544
  154MOL0     H20753  12.142  10.549  10.407  0.8878  0.8133 -0.3159
  154MOL0     H20754  12.529  10.846  10.325 -2.2015  1.0622 -0.6869
  154MOL0     H20755  12.759  10.927  10.305 -2.3132  0.0867  2.8204
  154MOL0     H20756  12.964  10.985  10.256 -2.9200  2.2258 -0.2171
  154MOL0     H20757  13.012  10.891  10.111  0.2721  0.4706 -0.5988
  154MOL0     H20758  13.113  11.073  10.004  0.4677  0.4028  0.0098
  154MOL0     H20759  13.074  11.176  10.144  0.4888 -1.3913  4.9314
  154MOL0     H20760  13.278  10.951  10.129 -0.9132  0.5623 -2.6227
  154MOL0     H20761  13.200  10.983  10.286  0.6941  2.7262  1.7595
  154MOL0     H20762  13.358  11.182  10.102  0.7777 -1.2247 -0.1545
  154MOL0     H20763  13.333  11.210  10.268  0.8325 -0.9302  0.5318
  154MOL0     H20764  13.486  10.972  10.158 -0.2515 -0.2573  1.6200
  154MOL0     H20765  13.450  10.983  10.325 -0.0809 -1.3842 -0.6710
  154MOL0     H20766  13.690  11.064  10.226  1.0212 -0.9780  2.1511
  154MOL0     H20767  13.599  11.205  10.173 -0.3296 -1.6618 -0.1365
  154MOL0     H20768  13.625  11.116  10.464  0.0605  1.5863  1.1651
  154MOL0     H20769  13.511  11.238  10.408  0.4123  1.3437 -0.6638
  154MOL0     H20770  13.817  11.246  10.428 -0.6254  0.2560 -0.1844
  154MOL0     H20771  13.691  11.354  10.491  3.4105  1.8957  0.0703
  154MOL0     H20772  12.708  11.019   9.900  2.1299 -1.0890  0.3851
  154MOL0     H20773  12.471  10.918   9.905  0.3186 -0.8142  1.1683
  154MOL0     H20774  12.138  10.879  10.011 -1.3595 -1.8746 -1.5170
  154MOL0     H20775  11.917  10.871   9.960  1.0309 -0.6098 -1.1532
  154MOL0     H20776  10.810  10.820  11.424 -2.1576 -0.1784  0.5601
  154MOL0     H20777  10.771  10.586  11.476  1.2918  0.7113  0.1234
  154MOL0     H20778  10.619  10.150  11.338 -0.6455 -2.2454  0.0963
  154MOL0     H20779  10.618   9.923  11.378  1.2731 -0.7968  0.1178
  154MOL0     H20780  10.629   9.722  11.551  3.9421  0.8221  3.4443
  154MOL0     H20781  10.682   9.692  11.372 -1.4580  0.0639 -0.2723
  154MOL0     H20782  10.771   9.569  11.630  0.4105  1.6644 -0.6529
  154MOL0     H20783  10.833   9.530  11.473  0.0661 -0.0111 -0.2106
  154MOL0     H20784  10.595   9.454  11.423  2.1922 -1.5474 -1.0715
  154MOL0     H20785  10.560   9.484  11.597  0.5230  0.4351  1.1262
  154MOL0     H20786  10.780   9.288  11.511 -0.8951 -3.2370 -1.0296
  154MOL0     H20787  10.620   9.238  11.548  0.8494 -0.9315 -0.4646
  154MOL0     H20788  10.777   9.303  11.937  1.1768  1.7118 -0.4449
  154MOL0     H20789  11.046   9.926  11.438 -1.0844 -1.9084 -0.6347
  154MOL0     H20790  11.045  10.158  11.385  0.4715 -0.5978 -1.0336
  155MOL0     O20791   0.419   5.515   2.392  0.3042  0.2737  0.1409
  155MOL0     C20792   0.394   5.629   2.428 -0.3765  0.8691  0.7081
  155MOL0     O20793   0.282   5.677   2.496 -0.4656  0.9561 -0.8680
  155MOL0     C20794   0.179   5.594   2.536 -0.0868 -0.7510  0.1045
  155MOL0     C20795   0.086   5.542   2.449 -0.5499  0.2335  0.0473
  155MOL0     C20796  -0.002   5.442   2.492 -0.4270 -0.7861 -0.3540
  155MOL0     C20797  -0.014   5.409   2.627  0.4238 -0.4214  0.5307
  155MOL0     O20798  -0.115   5.321   2.666  0.1165 -1.0684 -0.0193
  155MOL0     C20799  -0.182   5.327   2.791 -0.2481 -0.5297 -0.7575
  155MOL0     C20800  -0.268   5.455   2.811  0.2542 -0.1133  0.1097
  155MOL0     C20801  -0.393   5.418   2.727 -0.1386  0.7728  0.6321
  155MOL0     C20802  -0.488   5.536   2.730  0.7963  0.4471 -1.0311
  155MOL0     C20803  -0.609   5.507   2.654  0.7144  0.1134 -0.3596
  155MOL0     C20804  -0.722   5.444   2.746 -0.5350  0.6019  0.5733
  155MOL0     C20805  -0.857   5.423   2.670 -0.2100 -0.7076  0.0109
  155MOL0     C20806  -0.947   5.545   2.651 -0.2314  0.2469 -0.5891
  155MOL0     N20807  -1.041   5.569   2.749 -0.2327  0.5069 -0.8547
  155MOL0     C20808  -1.158   5.509   2.773  0.4630 -0.8578  0.8107
  155MOL0     C20809  -1.228   5.589   2.862 -0.1854 -0.5113  0.5267
  155MOL0     C20810  -1.369   5.566   2.908 -0.5269  0.1607  0.8328
  155MOL0     C20811  -1.445   5.703   2.923 -0.4686 -0.5830 -0.1751
  155MOL0     C20812  -1.600   5.689   2.901 -0.1989  0.0725  1.0087
  155MOL0     C20813  -1.686   5.816   2.902 -0.0516 -0.6044 -0.4012
  155MOL0     O20814  -1.704   5.879   3.030 -0.1084 -0.3046  0.1545
  155MOL0     C20815  -1.754   5.805   3.133 -0.1646  0.4924  0.0096
  155MOL0     C20816  -1.887   5.763   3.147 -0.4312  0.1533  0.1064
  155MOL0     C20817  -1.935   5.675   3.251  0.1890  0.0351 -0.3081
  155MOL0     C20818  -2.077   5.631   3.264 -0.1072 -0.6530 -0.0225
  155MOL0     C20819  -1.834   5.634   3.343 -0.2746 -0.4249  0.2463
  155MOL0     C20820  -1.856   5.536   3.450 -0.1668  0.2159 -0.1173
  155MOL0     O20821  -1.751   5.457   3.480 -0.8853 -0.5264 -0.0183
  155MOL0     C20822  -1.744   5.354   3.574  0.3508  0.0433  0.1195
  155MOL0     C20823  -1.849   5.308   3.654 -0.1909 -0.3285  0.2901
  155MOL0     C20824  -1.827   5.201   3.742 -0.0881 -0.2480 -0.5479
  155MOL0     C20825  -1.697   5.142   3.751  0.2144  0.5770 -0.9784
  155MOL0     O20826  -1.668   5.027   3.824 -0.2836 -0.2388  0.0669
  155MOL0     C20827  -1.774   4.973   3.910 -0.6000  0.2407  0.5497
  155MOL0     C20828  -1.717   4.847   3.980 -0.2326  0.6908 -0.1279
  155MOL0     C20829  -1.690   4.726   3.883 -0.7246 -0.3206  0.5180
  155MOL0     C20830  -1.814   4.641   3.852  1.0015 -0.2761 -0.2308
  155MOL0     C20831  -1.794   4.561   3.729  0.5452 -0.5817 -0.0933
  155MOL0     C20832  -1.895   4.442   3.722  0.0733  0.0439 -0.2111
  155MOL0     C20833  -1.860   4.315   3.810  0.4930 -0.1067 -0.1189
  155MOL0     C20834  -1.980   4.233   3.814  0.2488 -0.4558 -0.2391
  155MOL0    Cl20835  -1.931   4.105   3.919 -0.3696 -0.5939 -0.2377
  155MOL0     C20836  -1.592   5.200   3.681  0.2242  0.5650  0.2685
  155MOL0     C20837  -1.614   5.306   3.587 -0.0099  0.5442 -0.0995
  155MOL0     O20838  -1.960   5.542   3.513  0.8845 -0.2333  0.4803
  155MOL0     C20839  -1.701   5.685   3.335 -0.1595 -0.6839 -0.1787
  155MOL0     C20840  -1.665   5.766   3.235 -0.3022  0.0553  0.1761
  155MOL0     N20841  -1.149   5.689   2.896  0.1666 -0.4638 -0.0040
  155MOL0     N20842  -1.035   5.679   2.832  0.7361 -0.0496  0.1510
  155MOL0     C20843   0.071   5.477   2.716  0.2977  0.5620  0.7473
  155MOL0     C20844   0.161   5.574   2.672  0.6387  1.0227  0.5198
  155MOL0     C20845   0.494   5.728   2.404  0.6486 -0.0774 -0.5770
  155MOL0     C20846   0.620   5.699   2.346  0.1138 -0.0942  0.3935
  155MOL0     C20847   0.703   5.806   2.312 -0.7913 -0.5637  0.4550
  155MOL0     C20848   0.676   5.944   2.348  0.1218  1.9180  0.5272
  155MOL0     O20849   0.780   6.039   2.332  0.0219 -0.4429 -0.3816
  155MOL0     C20850   0.809   6.114   2.454  0.1336 -0.7946  0.8694
  155MOL0     C20851   0.931   6.061   2.513 -0.7098  0.4136 -0.4040
  155MOL0     C20852   1.054   6.056   2.431  0.2755 -1.2541 -0.7855
  155MOL0     C20853   1.075   5.925   2.364  0.1956  0.5861 -0.5047
  155MOL0     C20854   1.176   5.929   2.261 -0.1650 -0.2845  0.5756
  155MOL0     C20855   1.262   5.934   2.174 -0.3819  0.1421 -0.3355
  155MOL0     C20856   0.552   5.964   2.406  0.1450 -0.0154  0.2336
  155MOL0     C20857   0.461   5.862   2.432  0.2014  0.3166  0.0050
  155MOL0     H20858   0.082   5.564   2.343 -0.9765 -0.4602 -0.0866
  155MOL0     H20859  -0.080   5.408   2.424 -1.9738  0.1851  0.8887
  155MOL0     H20860  -0.250   5.242   2.790 -0.6377 -0.2292 -0.2840
  155MOL0     H20861  -0.110   5.324   2.873 -1.0961  2.6972  0.2823
  155MOL0     H20862  -0.287   5.471   2.917 -0.3906 -0.9861  0.1379
  155MOL0     H20863  -0.223   5.552   2.785 -1.2714  0.5596 -0.1022
  155MOL0     H20864  -0.352   5.410   2.626 -2.4650  2.1561 -0.4990
  155MOL0     H20865  -0.441   5.328   2.767 -2.6733  1.4207 -0.7766
  155MOL0     H20866  -0.514   5.567   2.832  3.3546 -1.0689  0.2076
  155MOL0     H20867  -0.438   5.620   2.680  1.8903 -1.4433 -3.2909
  155MOL0     H20868  -0.649   5.601   2.617  3.6174  1.5456 -0.1374
  155MOL0     H20869  -0.590   5.443   2.567  0.6706 -1.9511  1.0543
  155MOL0     H20870  -0.679   5.348   2.776  0.4800  0.8056 -0.1903
  155MOL0     H20871  -0.730   5.508   2.835  1.3851  0.6422  0.7714
  155MOL0     H20872  -0.837   5.394   2.566 -0.1521  1.8819 -0.7766
  155MOL0     H20873  -0.912   5.348   2.727 -0.5843  0.4050  1.1411
  155MOL0     H20874  -1.012   5.540   2.562  0.4962  2.5689 -1.3026
  155MOL0     H20875  -0.887   5.635   2.643 -3.0225  2.0951 -3.1714
  155MOL0     H20876  -1.199   5.419   2.727  0.1683 -0.7880  0.9344
  155MOL0     H20877  -1.419   5.514   2.825 -0.6522  1.7617 -0.1416
  155MOL0     H20878  -1.357   5.507   3.000  2.9912 -1.4634 -0.4636
  155MOL0     H20879  -1.397   5.779   2.861  2.7758 -0.8083  1.8000
  155MOL0     H20880  -1.425   5.727   3.028 -0.1018 -5.7362  1.2288
  155MOL0     H20881  -1.646   5.617   2.969  1.4093  0.4668  2.5978
  155MOL0     H20882  -1.609   5.648   2.800 -1.9252  1.7815  0.4102
  155MOL0     H20883  -1.788   5.782   2.883 -0.3379 -1.2861  2.1280
  155MOL0     H20884  -1.634   5.882   2.831  1.3663 -1.3985 -0.1397
  155MOL0     H20885  -1.947   5.791   3.061 -0.3776 -3.7686 -1.4071
  155MOL0     H20886  -2.074   5.522   3.267  3.3678 -0.6764 -0.4378
  155MOL0     H20887  -2.123   5.667   3.356 -0.5967  2.4517 -1.3604
  155MOL0     H20888  -2.129   5.675   3.178  3.2662  1.0894 -1.3393
  155MOL0     H20889  -1.949   5.350   3.656 -0.6613 -1.4046  1.7189
  155MOL0     H20890  -1.915   5.169   3.796 -2.4992 -0.4520 -4.2122
  155MOL0     H20891  -1.798   5.058   3.975 -0.0693  1.6301 -1.0068
  155MOL0     H20892  -1.859   4.936   3.852 -1.5655  2.7865  0.1797
  155MOL0     H20893  -1.624   4.874   4.032  0.2130 -3.6801  1.7508
  155MOL0     H20894  -1.792   4.808   4.049 -0.5616 -0.2207 -0.9775
  155MOL0     H20895  -1.614   4.665   3.932 -1.7367 -3.3166 -1.3447
  155MOL0     H20896  -1.645   4.760   3.790  1.7340 -0.0062  1.7496
  155MOL0     H20897  -1.841   4.574   3.933  0.5593  0.2396  0.0529
  155MOL0     H20898  -1.904   4.699   3.829 -0.3568 -2.1016  0.2736
  155MOL0     H20899  -1.691   4.529   3.713  1.2063  1.4313 -0.0221
  155MOL0     H20900  -1.816   4.618   3.639 -2.5409 -0.2383  0.7546
  155MOL0     H20901  -1.995   4.475   3.753  1.4930  0.6945  4.3753
  155MOL0     H20902  -1.899   4.408   3.618 -2.8500 -3.2370  0.7818
  155MOL0     H20903  -1.841   4.353   3.911 -0.0233 -0.4187  0.0987
  155MOL0     H20904  -1.779   4.258   3.765 -0.8179 -0.5046 -2.0820
  155MOL0     H20905  -1.993   4.202   3.710 -0.5374  0.7158 -0.5080
  155MOL0     H20906  -2.072   4.282   3.848  1.5259  0.9507  1.4334
  155MOL0     H20907  -1.492   5.159   3.699  0.2757  0.7366  0.3761
  155MOL0     H20908  -1.535   5.359   3.534 -0.2636  0.9594 -0.0671
  155MOL0     H20909  -1.626   5.653   3.407  0.5900 -0.8003 -1.0016
  155MOL0     H20910  -1.557   5.778   3.228 -0.3357 -0.1563 -0.8784
  155MOL0     H20911   0.057   5.466   2.824 -0.5271 -1.3157  0.5045
  155MOL0     H20912   0.231   5.614   2.744  0.1647  1.8594  0.5232
  155MOL0     H20913   0.646   5.594   2.347 -0.8016 -0.3343  0.2297
  155MOL0     H20914   0.802   5.788   2.272  0.0212 -0.0348  2.1136
  155MOL0     H20915   0.821   6.220   2.433  1.6601 -0.7288  1.9283
  155MOL0     H20916   0.737   6.127   2.535  0.7473 -0.6936  1.4029
  155MOL0     H20917   0.911   5.969   2.570 -0.5307  1.1750  0.9390
  155MOL0     H20918   0.967   6.123   2.596 -0.0476 -1.1139  0.4952
  155MOL0     H20919   1.147   6.068   2.488  0.5089  1.8298 -1.6159
  155MOL0     H20920   1.059   6.138   2.359  0.7416 -1.7606 -1.3374
  155MOL0     H20921   0.990   5.891   2.305 -0.6519 -1.0219  1.5162
  155MOL0     H20922   1.084   5.845   2.438  0.0257 -0.8305 -1.9673
  155MOL0     H20923   1.328   5.942   2.090 -1.6290  1.6006 -1.2474
  155MOL0     H20924   0.533   6.064   2.446 -0.6042 -1.1734  3.0153
  155MOL0     H20925   0.366   5.894   2.473  0.5474  1.8244 -0.3321
  156MOL0     O20926  10.723   5.099   2.592 -0.3092  0.0353  0.1980
  156MOL0     C20927  10.743   4.976   2.610 -0.2122 -0.7282 -0.1998
  156MOL0     O20928  10.798   4.919   2.719 -0.1094 -0.4495  0.8487
  156MOL0     C20929  10.835   5.008   2.818  0.3155  1.3107 -0.3793
  156MOL0     C20930  10.962   5.007   2.871 -0.7564 -0.2591 -0.2847
  156MOL0     C20931  10.996   5.084   2.980  0.0479 -0.2560  0.0891
  156MOL0     C20932  10.909   5.169   3.038  0.4531 -0.0403 -0.9016
  156MOL0     O20933  10.961   5.248   3.142  0.4808 -0.0416 -0.8865
  156MOL0     C20934  10.918   5.385   3.153 -0.6493 -0.2277  0.2124
  156MOL0     C20935  10.820   5.409   3.283  0.1271 -0.0738  0.7971
  156MOL0     C20936  10.777   5.559   3.280  0.2240 -1.0016 -1.0052
  156MOL0     C20937  10.694   5.588   3.399  0.0975  0.6379  0.0692
  156MOL0     C20938  10.616   5.721   3.373 -0.6987  0.0172 -0.1790
  156MOL0     C20939  10.502   5.729   3.280 -0.4309 -0.6963  0.5525
  156MOL0     C20940  10.392   5.645   3.333 -0.6234 -0.1269 -0.0047
  156MOL0     C20941  10.250   5.692   3.286  0.2252  0.5429 -0.1889
  156MOL0     N20942  10.154   5.586   3.306 -0.3357 -1.1756  0.6872
  156MOL0     C20943  10.164   5.455   3.260 -0.2081 -0.0767 -0.8708
  156MOL0     C20944  10.039   5.404   3.276  0.4500  0.0770  0.2094
  156MOL0     C20945   9.989   5.258   3.266 -0.3587 -0.4646 -0.3057
  156MOL0     C20946   9.928   5.225   3.131 -0.3350 -0.3582 -0.1580
  156MOL0     C20947   9.815   5.324   3.081 -0.4044 -0.1698  0.2185
  156MOL0     C20948   9.681   5.307   3.134  0.1136  0.4486 -1.2773
  156MOL0     O20949   9.629   5.170   3.115  0.3350  0.4809 -1.0391
  156MOL0     C20950   9.493   5.139   3.151 -0.0091 -0.8377  0.1026
  156MOL0     C20951   9.427   5.210   3.262  0.0413  1.2473  0.3985
  156MOL0     C20952   9.297   5.177   3.308  0.4455  0.6290  0.0939
  156MOL0     C20953   9.236   5.270   3.415 -0.1287  0.7053  1.0299
  156MOL0     C20954   9.224   5.078   3.237 -0.1893  1.1228  0.4002
  156MOL0     C20955   9.076   5.039   3.261 -0.3116  0.9487  0.3851
  156MOL0     O20956   9.045   5.058   3.392 -0.0116  0.4874  0.6048
  156MOL0     C20957   8.916   5.025   3.428  0.1429 -0.2796 -0.2514
  156MOL0     C20958   8.831   5.132   3.479 -0.3830  0.1144 -0.2396
  156MOL0     C20959   8.707   5.108   3.535  0.8664 -0.8868  0.6766
  156MOL0     C20960   8.660   4.976   3.536  0.2878  0.2659 -0.4083
  156MOL0     O20961   8.541   4.938   3.588 -0.4312  0.5640  0.6282
  156MOL0     C20962   8.443   5.038   3.582 -0.5184  0.5206  0.5552
  156MOL0     C20963   8.320   4.966   3.622  0.8122 -0.1527 -0.6879
  156MOL0     C20964   8.208   5.066   3.643  0.1234  0.0717 -0.8188
  156MOL0     C20965   8.069   5.004   3.642  0.3442  0.4510  1.1600
  156MOL0     C20966   7.959   5.111   3.667 -0.0426  0.4503 -0.0610
  156MOL0     C20967   7.918   5.122   3.813 -0.2760 -0.5856 -0.4893
  156MOL0     C20968   7.853   5.257   3.846 -0.7403 -0.8007  0.2157
  156MOL0     C20969   7.729   5.291   3.756 -0.5643 -0.6549  0.6493
  156MOL0    Cl20970   7.593   5.165   3.786  0.3956 -0.3780 -0.5496
  156MOL0     C20971   8.739   4.874   3.483  0.1974  0.5720 -0.2304
  156MOL0     C20972   8.865   4.892   3.431  0.2115  0.5297 -0.6936
  156MOL0     O20973   9.015   4.983   3.166  0.5039 -0.3749  0.3564
  156MOL0     C20974   9.290   5.027   3.117  0.6005  0.2848  0.1405
  156MOL0     C20975   9.418   5.054   3.079 -0.9069  1.2269  0.7579
  156MOL0     N20976   9.960   5.510   3.323  0.6769  0.1739  0.5943
  156MOL0     N20977  10.030   5.615   3.343  0.2252 -0.1062 -0.4375
  156MOL0     C20978  10.781   5.179   2.988 -0.2633 -0.5472  0.2603
  156MOL0     C20979  10.739   5.086   2.890 -0.8914  0.3196  0.0222
  156MOL0     C20980  10.692   4.880   2.509 -0.0889 -0.0556  0.4299
  156MOL0     C20981  10.689   4.920   2.372 -0.3182 -0.4208 -0.3944
  156MOL0     C20982  10.632   4.833   2.278  0.4579  0.2795  0.5205
  156MOL0     C20983  10.586   4.703   2.318  0.6467  0.9278  0.2561
  156MOL0     O20984  10.525   4.617   2.221 -0.6373 -0.0209 -0.2954
  156MOL0     C20985  10.417   4.533   2.260  0.6879 -0.3330 -0.3241
  156MOL0     C20986  10.310   4.509   2.154  0.2608  0.3192  0.0262
  156MOL0     C20987  10.196   4.607   2.141 -0.4569  0.1247  0.1450
  156MOL0     C20988  10.252   4.742   2.101 -0.3913 -0.1003  0.5249
  156MOL0     C20989  10.144   4.845   2.087  0.4816  0.3119  0.1331
  156MOL0     C20990  10.056   4.932   2.105 -0.0368  0.0876 -0.3123
  156MOL0     C20991  10.606   4.658   2.451 -1.3343 -0.7778  0.0953
  156MOL0     C20992  10.655   4.749   2.549 -0.6517 -0.2055  0.0902
  156MOL0     H20993  11.035   4.934   2.839 -0.4807 -1.2938  2.4739
  156MOL0     H20994  11.089   5.070   3.034 -0.7689 -2.1386  1.0868
  156MOL0     H20995  11.009   5.444   3.164 -1.3967  1.2452 -1.2096
  156MOL0     H20996  10.872   5.418   3.060 -0.7257  3.5715  1.4409
  156MOL0     H20997  10.742   5.331   3.279 -0.0778  0.1826 -1.1013
  156MOL0     H20998  10.881   5.394   3.372 -0.8040 -4.1756  0.9696
  156MOL0     H20999  10.867   5.620   3.285  0.6585 -1.7460  1.2988
  156MOL0     H21000  10.727   5.581   3.185 -1.0916 -1.3010 -0.4085
  156MOL0     H21001  10.625   5.508   3.424  0.2428  0.1266 -1.1081
  156MOL0     H21002  10.755   5.596   3.490 -3.3590 -0.2106  2.6659
  156MOL0     H21003  10.579   5.764   3.467 -3.4054  2.4222 -2.1996
  156MOL0     H21004  10.694   5.793   3.348 -1.9299  3.2434  4.1324
  156MOL0     H21005  10.466   5.833   3.280  0.4560 -0.3605 -0.8916
  156MOL0     H21006  10.525   5.704   3.176  0.8788  0.5565  0.5207
  156MOL0     H21007  10.415   5.547   3.290  0.7902  0.5514 -0.8348
  156MOL0     H21008  10.388   5.643   3.443  0.5754  0.7482  0.0699
  156MOL0     H21009  10.254   5.702   3.177 -3.6275 -1.7931 -0.7355
  156MOL0     H21010  10.227   5.786   3.337 -0.2493 -0.5681  1.7227
  156MOL0     H21011  10.251   5.406   3.217  0.7014 -0.4988  1.3032
  156MOL0     H21012  10.075   5.193   3.282 -0.4436 -0.4470  0.2292
  156MOL0     H21013   9.919   5.241   3.348 -1.3769  2.0684 -0.5580
  156MOL0     H21014   9.888   5.123   3.137 -1.1143 -0.1952 -1.9717
  156MOL0     H21015  10.010   5.223   3.059 -1.6169  0.1336 -1.6828
  156MOL0     H21016   9.805   5.317   2.972  1.0343 -4.0983  0.1705
  156MOL0     H21017   9.846   5.426   3.103 -3.3929  1.3800 -1.9545
  156MOL0     H21018   9.615   5.390   3.107  0.7027  3.0125  3.8226
  156MOL0     H21019   9.676   5.328   3.242  0.8256 -1.7416 -0.7651
  156MOL0     H21020   9.482   5.292   3.307  0.3333  1.6550 -0.6670
  156MOL0     H21021   9.141   5.308   3.378 -1.1428 -3.4010 -1.2014
  156MOL0     H21022   9.226   5.217   3.511 -1.4741  0.4441  0.7719
  156MOL0     H21023   9.293   5.362   3.428 -4.6571  3.8480  1.1614
  156MOL0     H21024   8.887   5.225   3.476  1.0068 -0.6968 -2.7274
  156MOL0     H21025   8.643   5.176   3.591 -0.9439 -2.2251  0.3080
  156MOL0     H21026   8.458   5.115   3.659 -1.4185  0.7245  0.5288
  156MOL0     H21027   8.436   5.079   3.481 -1.7029 -0.5858  0.1701
  156MOL0     H21028   8.289   4.890   3.550  1.1587 -0.7279 -0.2438
  156MOL0     H21029   8.342   4.923   3.720 -0.5763 -2.3248 -1.2642
  156MOL0     H21030   8.207   5.146   3.568 -0.4101 -0.4234 -1.3423
  156MOL0     H21031   8.224   5.107   3.744 -0.7070 -0.0546 -0.6310
  156MOL0     H21032   8.054   4.960   3.543 -1.6482  0.4736  1.4206
  156MOL0     H21033   8.059   4.920   3.711 -2.2314 -1.3786 -1.2305
  156MOL0     H21034   7.868   5.085   3.611  0.4951  0.3911 -0.9240
  156MOL0     H21035   7.988   5.206   3.622 -2.0519  1.4734  0.6729
  156MOL0     H21036   7.853   5.039   3.839 -0.7998 -0.3331 -0.9550
  156MOL0     H21037   8.002   5.110   3.881  1.2393  2.0622 -1.7006
  156MOL0     H21038   7.913   5.343   3.817 -3.1646  0.5716 -1.0872
  156MOL0     H21039   7.838   5.257   3.954 -1.2080  0.4319  0.1668
  156MOL0     H21040   7.749   5.290   3.649 -3.1692  0.8252  0.0529
  156MOL0     H21041   7.694   5.393   3.775 -2.5978 -1.4758  1.7084
  156MOL0     H21042   8.692   4.777   3.473 -4.0034  2.3852  0.0472
  156MOL0     H21043   8.916   4.808   3.383 -0.7298 -1.6265  1.8451
  156MOL0     H21044   9.235   4.961   3.051  2.3909  1.1933 -2.4161
  156MOL0     H21045   9.473   5.012   2.995  0.6955  0.2112  2.2516
  156MOL0     H21046  10.718   5.253   3.037 -0.9917 -0.8359 -0.2224
  156MOL0     H21047  10.634   5.079   2.864 -0.8153  0.2991 -0.2733
  156MOL0     H21048  10.732   5.013   2.336  2.7848 -1.8329 -0.6418
  156MOL0     H21049  10.610   4.868   2.177  2.1499 -1.0753 -0.3756
  156MOL0     H21050  10.456   4.432   2.279  3.4583  0.2621 -2.2599
  156MOL0     H21051  10.371   4.583   2.346 -0.4394 -2.7766  0.5897
  156MOL0     H21052  10.266   4.410   2.168  1.1392  0.0624  1.1474
  156MOL0     H21053  10.369   4.513   2.062  1.4427 -0.2272  0.7251
  156MOL0     H21054  10.152   4.616   2.241  3.1866  1.4329  1.7725
  156MOL0     H21055  10.122   4.572   2.068  1.3154  2.2621 -2.8852
  156MOL0     H21056  10.305   4.738   2.005  2.2030  0.9439  1.8141
  156MOL0     H21057  10.329   4.766   2.175 -0.0501 -2.1941  0.9191
  156MOL0     H21058   9.976   5.001   2.125 -0.9084 -0.3339 -2.1079
  156MOL0     H21059  10.596   4.556   2.484 -2.5009 -0.4421  0.8263
  156MOL0     H21060  10.658   4.721   2.653  0.5940 -0.1069  0.1045
  157MOL0     O21061   8.570   3.572   9.101 -0.0830 -0.0738  0.3115
  157MOL0     C21062   8.457   3.556   9.150  1.1538 -0.3660  0.3677
  157MOL0     O21063   8.329   3.585   9.091 -0.0926  0.2856  0.1802
  157MOL0     C21064   8.322   3.636   8.962 -0.9568  0.0939  0.0689
  157MOL0     C21065   8.236   3.731   8.934 -0.7628 -0.3217  0.3893
  157MOL0     C21066   8.234   3.784   8.801  0.1997 -0.2458 -1.0340
  157MOL0     C21067   8.321   3.742   8.701  0.4788  0.5575  0.1477
  157MOL0     O21068   8.320   3.799   8.582 -0.6214  0.3655 -0.5266
  157MOL0     C21069   8.402   3.922   8.586 -0.1186 -0.1872  0.0345
  157MOL0     C21070   8.398   3.991   8.447  0.9776 -0.1233  0.5303
  157MOL0     C21071   8.253   4.028   8.397 -0.5694 -0.6893  0.0398
  157MOL0     C21072   8.251   4.086   8.262 -0.1584  0.3841 -0.2235
  157MOL0     C21073   8.114   4.126   8.210  0.7765  0.0895 -0.2543
  157MOL0     C21074   8.120   4.189   8.071 -0.1500 -0.8617 -0.1756
  157MOL0     C21075   8.004   4.159   7.973 -0.5688 -0.0061 -0.1900
  157MOL0     C21076   7.875   4.213   8.032 -0.4046 -0.5309 -0.3513
  157MOL0     N21077   7.880   4.361   8.003  0.5987 -0.8597  0.7261
  157MOL0     C21078   7.818   4.424   7.897  0.0653 -0.0304  0.0145
  157MOL0     C21079   7.848   4.553   7.909 -0.6215  0.1112 -0.4801
  157MOL0     C21080   7.786   4.666   7.831 -0.2379 -0.6498 -0.6629
  157MOL0     C21081   7.634   4.660   7.796  0.5548 -0.1961 -0.3022
  157MOL0     C21082   7.592   4.775   7.696  0.1802 -0.5936  0.1648
  157MOL0     C21083   7.470   4.741   7.630  0.7221  0.1542  0.6278
  157MOL0     O21084   7.486   4.652   7.512  0.4357  0.5463  0.4648
  157MOL0     C21085   7.377   4.634   7.421  0.4002 -1.6783  0.4314
  157MOL0     C21086   7.385   4.572   7.298  0.1340  0.2829  1.3107
  157MOL0     C21087   7.288   4.553   7.205 -0.6670  0.8166 -0.4384
  157MOL0     C21088   7.323   4.486   7.080 -0.2413  0.2718  0.0560
  157MOL0     C21089   7.151   4.582   7.241 -0.5509  0.6898  0.3712
  157MOL0     C21090   7.032   4.539   7.156 -0.7084  0.7217 -0.2222
  157MOL0     O21091   6.916   4.594   7.172  0.1194  0.8263 -0.1670
  157MOL0     C21092   6.824   4.576   7.067 -0.4789  1.1418  0.0000
  157MOL0     C21093   6.837   4.580   6.926  0.1685  0.0929 -0.6474
  157MOL0     C21094   6.728   4.562   6.840 -0.1070  0.4345  0.4327
  157MOL0     C21095   6.602   4.537   6.892  0.0528  0.7616  0.0636
  157MOL0     O21096   6.508   4.509   6.796 -0.4250  0.9459 -0.7188
  157MOL0     C21097   6.367   4.507   6.845  0.0266 -0.6868 -0.3264
  157MOL0     C21098   6.272   4.547   6.732  0.1916  0.0754  0.1990
  157MOL0     C21099   6.126   4.511   6.765 -0.0548 -0.7232  0.1714
  157MOL0     C21100   6.024   4.574   6.664 -0.3365  0.2986 -1.5505
  157MOL0     C21101   5.898   4.487   6.655  0.1596  0.8316 -0.4405
  157MOL0     C21102   5.911   4.342   6.599  0.0004 -0.2112  0.0303
  157MOL0     C21103   5.780   4.259   6.595  0.1282 -0.6579  0.1957
  157MOL0     C21104   5.701   4.282   6.459 -0.1483 -0.4244  0.3331
  157MOL0    Cl21105   5.572   4.414   6.499 -0.3121 -0.0177  0.3644
  157MOL0     C21106   6.583   4.541   7.032 -0.0200 -0.6991 -0.2636
  157MOL0     C21107   6.697   4.568   7.114 -0.4740 -0.3481 -0.9238
  157MOL0     O21108   7.052   4.430   7.094  0.4692  0.0438  0.1326
  157MOL0     C21109   7.133   4.647   7.368  0.5800  0.1078  0.4388
  157MOL0     C21110   7.248   4.668   7.460  0.1221  0.4280  0.7760
  157MOL0     N21111   7.933   4.575   8.020  0.4974 -0.3871  0.5311
  157MOL0     N21112   7.953   4.450   8.069 -0.3148 -0.5651  0.6651
  157MOL0     C21113   8.404   3.634   8.730 -0.2852 -1.0008  0.0550
  157MOL0     C21114   8.413   3.590   8.859 -0.3616  0.0271  0.1221
  157MOL0     C21115   8.460   3.489   9.288 -1.0485 -0.5161  0.9192
  157MOL0     C21116   8.345   3.476   9.370  0.0025 -0.8536  0.9534
  157MOL0     C21117   8.356   3.406   9.492  0.2204 -0.3121  0.1995
  157MOL0     C21118   8.478   3.358   9.542 -0.6174 -0.0747  0.4580
  157MOL0     O21119   8.470   3.294   9.661 -0.0097 -0.4010  0.9165
  157MOL0     C21120   8.593   3.233   9.708 -0.1669  0.3961  1.1665
  157MOL0     C21121   8.607   3.100   9.632 -0.8110 -0.0413 -0.3868
  157MOL0     C21122   8.707   2.999   9.684 -0.4029  0.4065  0.0195
  157MOL0     C21123   8.632   2.865   9.754 -0.5347 -0.2723  0.4384
  157MOL0     C21124   8.729   2.772   9.808 -0.9098  0.5648 -0.6865
  157MOL0     C21125   8.790   2.698   9.882 -0.1873 -1.0498  0.6698
  157MOL0     C21126   8.592   3.381   9.467 -0.4632 -0.5472 -0.2658
  157MOL0     C21127   8.581   3.428   9.333  0.2607 -0.9931 -0.4758
  157MOL0     H21128   8.183   3.763   9.023 -0.6168 -0.0645  0.3844
  157MOL0     H21129   8.167   3.869   8.786 -2.6206 -1.1795  4.0117
  157MOL0     H21130   8.355   3.984   8.663 -2.6443 -0.8292 -0.9013
  157MOL0     H21131   8.506   3.904   8.616 -0.6064 -4.1802 -0.2046
  157MOL0     H21132   8.448   4.088   8.450  0.5985  0.1482 -0.9763
  157MOL0     H21133   8.443   3.931   8.367 -1.8454 -1.5714 -0.1045
  157MOL0     H21134   8.187   3.941   8.407 -0.9212 -0.3997  0.2737
  157MOL0     H21135   8.211   4.099   8.468  0.3893 -1.3412  1.2920
  157MOL0     H21136   8.319   4.171   8.260 -0.6205  0.9988  3.5659
  157MOL0     H21137   8.290   4.009   8.194  1.0276  0.0740  0.7616
  157MOL0     H21138   8.057   4.032   8.211 -0.8154  1.0220  0.8583
  157MOL0     H21139   8.078   4.188   8.291  0.1454 -3.2869  2.2795
  157MOL0     H21140   8.144   4.295   8.085 -0.3524 -1.0027  1.4539
  157MOL0     H21141   8.209   4.148   8.024 -0.4396 -3.6301  1.4787
  157MOL0     H21142   8.024   4.199   7.873  1.1990  1.7197  0.7739
  157MOL0     H21143   7.993   4.051   7.964  0.9834 -0.0865 -1.9439
  157MOL0     H21144   7.877   4.197   8.140 -1.8199 -4.4164 -0.7128
  157MOL0     H21145   7.784   4.167   7.992 -0.5114  0.1560 -0.9147
  157MOL0     H21146   7.754   4.377   7.823 -0.4207 -2.2870  1.7470
  157MOL0     H21147   7.811   4.756   7.888  0.2504 -1.9356  1.2463
  157MOL0     H21148   7.847   4.671   7.740  0.1674 -1.1750 -0.4213
  157MOL0     H21149   7.568   4.663   7.882  0.8864 -1.5573  0.0256
  157MOL0     H21150   7.619   4.562   7.749 -0.1549 -0.2839  0.1116
  157MOL0     H21151   7.663   4.793   7.615 -0.2881  0.3592 -0.0484
  157MOL0     H21152   7.576   4.865   7.755  1.2753 -0.8878  0.9385
  157MOL0     H21153   7.438   4.841   7.598  0.6849 -0.3002 -0.8480
  157MOL0     H21154   7.402   4.706   7.708  1.0755 -3.8846 -0.6588
  157MOL0     H21155   7.490   4.560   7.276 -0.0997  3.2872 -2.5778
  157MOL0     H21156   7.274   4.529   6.993 -0.9509 -1.9533 -0.7077
  157MOL0     H21157   7.431   4.486   7.062  0.3217  1.1709  2.8480
  157MOL0     H21158   7.295   4.382   7.098 -0.1070 -0.3670 -2.9876
  157MOL0     H21159   6.927   4.602   6.869 -0.1237  0.6643 -0.9007
  157MOL0     H21160   6.745   4.568   6.733 -0.2541  0.6792  0.4213
  157MOL0     H21161   6.345   4.404   6.875 -1.2414 -0.1988  0.4655
  157MOL0     H21162   6.339   4.580   6.921 -0.4945 -0.1749 -0.9921
  157MOL0     H21163   6.287   4.653   6.713  0.0052  0.3801  1.6565
  157MOL0     H21164   6.305   4.496   6.641  1.0248  0.7521  0.1086
  157MOL0     H21165   6.109   4.559   6.861  3.7047 -2.2599  1.8041
  157MOL0     H21166   6.097   4.406   6.776 -1.2052 -0.6968 -2.0882
  157MOL0     H21167   6.006   4.675   6.700 -0.8402 -1.1318  2.7473
  157MOL0     H21168   6.061   4.564   6.562 -1.4641 -1.4888 -1.8405
  157MOL0     H21169   5.830   4.541   6.589 -2.1764 -0.7426  0.5549
  157MOL0     H21170   5.847   4.480   6.752 -0.1908 -1.5737 -0.7373
  157MOL0     H21171   5.937   4.366   6.495 -3.8133 -0.3674 -1.1142
  157MOL0     H21172   5.998   4.289   6.637  0.6316  0.1421 -0.8698
  157MOL0     H21173   5.715   4.275   6.682  2.4760  2.0776  1.5910
  157MOL0     H21174   5.808   4.153   6.590  1.6236 -0.2206 -1.3960
  157MOL0     H21175   5.658   4.200   6.400 -1.6575  1.1252 -0.8081
  157MOL0     H21176   5.764   4.330   6.384 -1.1187 -0.7380 -0.7276
  157MOL0     H21177   6.499   4.495   7.083  0.3994 -2.7854 -1.3655
  157MOL0     H21178   6.676   4.561   7.220  2.2832 -1.5858 -0.3785
  157MOL0     H21179   7.029   4.671   7.389  0.7735  1.7101 -0.2979
  157MOL0     H21180   7.226   4.715   7.555 -1.4363  0.9853  0.1677
  157MOL0     H21181   8.472   3.610   8.649 -1.2806 -1.4334 -0.6811
  157MOL0     H21182   8.498   3.525   8.875  0.9691  1.3918 -1.0659
  157MOL0     H21183   8.251   3.525   9.344  0.9770  1.3005  1.3294
  157MOL0     H21184   8.263   3.398   9.547 -0.5259 -0.0396 -0.9918
  157MOL0     H21185   8.684   3.295   9.707 -0.6051  1.1910  3.7777
  157MOL0     H21186   8.568   3.208   9.811 -0.8621  1.7945  1.3605
  157MOL0     H21187   8.641   3.112   9.529  2.2723  1.2277  0.6646
  157MOL0     H21188   8.509   3.052   9.619  0.0031 -1.1872 -3.0307
  157MOL0     H21189   8.778   3.059   9.740  0.3187  0.7283 -1.2077
  157MOL0     H21190   8.756   2.965   9.592 -0.6907  0.6422 -0.2220
  157MOL0     H21191   8.567   2.815   9.682  2.5180  1.5129 -3.9866
  157MOL0     H21192   8.579   2.894   9.846  3.5372 -0.7249  3.2077
  157MOL0     H21193   8.850   2.633   9.943  2.6355  1.4934  0.8479
  157MOL0     H21194   8.693   3.351   9.493  0.6073  1.4387 -1.8104
  157MOL0     H21195   8.672   3.433   9.274 -0.6610 -0.2321 -1.8929
  158MOL0     O21196   8.529   0.377  10.548 -0.1641 -0.6100 -0.0806
  158MOL0     C21197   8.631   0.423  10.500  0.6690  0.7518 -0.2255
  158MOL0     O21198   8.637   0.544  10.442 -0.2489 -1.0130 -0.7146
  158MOL0     C21199   8.529   0.630  10.425 -0.6122 -0.0213 -1.0112
  158MOL0     C21200   8.390   0.612  10.403  0.2062  0.3304 -0.8945
  158MOL0     C21201   8.303   0.722  10.382 -0.1547  0.4165  0.2950
  158MOL0     C21202   8.347   0.851  10.400  1.0738 -0.4801 -0.5855
  158MOL0     O21203   8.259   0.954  10.385 -0.1791 -0.7614 -0.5756
  158MOL0     C21204   8.158   0.968  10.482  0.4836 -0.9143  0.1954
  158MOL0     C21205   8.095   1.103  10.465  0.1380 -0.5614 -0.0790
  158MOL0     C21206   7.968   1.127  10.557  0.1956 -0.2319 -0.3336
  158MOL0     C21207   7.922   1.272  10.523 -0.1576  0.7913  0.2486
  158MOL0     C21208   7.800   1.302  10.618  0.1543 -0.6037 -1.0691
  158MOL0     C21209   7.685   1.357  10.540  0.5255 -0.9211 -0.2943
  158MOL0     C21210   7.561   1.397  10.619  0.0584 -0.2530 -0.2605
  158MOL0     C21211   7.450   1.454  10.534 -0.6167 -0.3436  0.2100
  158MOL0     N21212   7.331   1.450  10.616 -0.0628  0.3119 -0.3141
  158MOL0     C21213   7.254   1.330  10.631 -0.2160 -0.5004 -0.7650
  158MOL0     C21214   7.156   1.368  10.713  0.6255  0.5608  0.0973
  158MOL0     C21215   7.037   1.276  10.749 -1.2327 -0.0256  0.4018
  158MOL0     C21216   6.901   1.334  10.710 -0.1534  0.0970 -1.1421
  158MOL0     C21217   6.844   1.412  10.834  0.0712 -0.6054  0.1115
  158MOL0     C21218   6.711   1.490  10.813 -0.1571 -0.5087 -0.6819
  158MOL0     O21219   6.655   1.531  10.934  0.2760 -0.0594 -0.5022
  158MOL0     C21220   6.523   1.574  10.937 -0.7238 -0.5012  0.1816
  158MOL0     C21221   6.444   1.594  10.827  0.3604  0.0457 -0.7285
  158MOL0     C21222   6.316   1.642  10.842 -0.3412  0.2239 -0.0828
  158MOL0     C21223   6.212   1.637  10.721 -0.5301  0.2177  0.0298
  158MOL0     C21224   6.267   1.682  10.975  0.1089  0.3395  0.9059
  158MOL0     C21225   6.127   1.722  10.997  0.6371  0.1574  0.9740
  158MOL0     O21226   6.051   1.652  11.085  0.0084 -0.5709  0.3120
  158MOL0     C21227   5.919   1.672  11.076 -0.3756  0.1864  0.9380
  158MOL0     C21228   5.840   1.614  10.979  0.2721  0.5407  1.2561
  158MOL0     C21229   5.696   1.621  10.973  0.0277  0.3871 -0.5689
  158MOL0     C21230   5.631   1.680  11.081  0.2746 -0.0586 -0.5542
  158MOL0     O21231   5.495   1.684  11.088 -0.3376  0.2873 -0.9718
  158MOL0     C21232   5.432   1.747  10.972 -0.4804  0.5590 -0.0603
  158MOL0     C21233   5.423   1.899  11.001 -1.0035  0.0560  0.2525
  158MOL0     C21234   5.304   1.942  11.086 -0.0737 -0.1097  0.0882
  158MOL0     C21235   5.350   2.005  11.220  0.3753 -0.2294  0.2477
  158MOL0     C21236   5.222   1.997  11.309  0.0284  1.0631 -1.4057
  158MOL0     C21237   5.235   2.051  11.449 -0.2578 -0.0101  0.4123
  158MOL0     C21238   5.375   2.020  11.515  0.4618 -1.2848  0.3853
  158MOL0     C21239   5.374   2.070  11.666 -0.0289 -0.0723 -0.5913
  158MOL0    Cl21240   5.297   1.958  11.773  0.0171  0.1782 -0.0155
  158MOL0     C21241   5.706   1.737  11.185  0.3228 -0.3316  0.1820
  158MOL0     C21242   5.843   1.731  11.182 -0.8215  0.5058  0.2784
  158MOL0     O21243   6.090   1.824  10.940  0.0014  0.1332  0.6484
  158MOL0     C21244   6.354   1.676  11.086  0.1882 -0.2163 -1.3005
  158MOL0     C21245   6.475   1.616  11.065  0.0907  0.4543 -0.3721
  158MOL0     N21246   7.178   1.499  10.762 -0.2387 -0.0968  0.0410
  158MOL0     N21247   7.290   1.536  10.710  0.1771  0.4097  0.3889
  158MOL0     C21248   8.482   0.872  10.435 -0.5977 -0.0748 -0.0698
  158MOL0     C21249   8.570   0.761  10.440 -0.1747 -0.2371  0.3798
  158MOL0     C21250   8.751   0.343  10.512  0.0259 -0.0118  0.1101
  158MOL0     C21251   8.751   0.203  10.509  0.0411 -0.2096 -1.1005
  158MOL0     C21252   8.866   0.134  10.526 -0.4084  1.4101  0.3755
  158MOL0     C21253   8.991   0.194  10.540  0.4228  0.3478  0.9327
  158MOL0     O21254   9.111   0.126  10.555 -0.0456 -0.7102 -0.0040
  158MOL0     C21255   9.121  -0.017  10.575  0.4128 -0.1575  0.2617
  158MOL0     C21256   9.264  -0.077  10.604  0.5607  0.0248  0.4310
  158MOL0     C21257   9.365  -0.034  10.493 -0.0841  0.5406 -0.2165
  158MOL0     C21258   9.491  -0.131  10.473 -0.5166  0.5776 -1.0136
  158MOL0     C21259   9.605  -0.068  10.415  0.4590 -0.3485  1.3571
  158MOL0     C21260   9.698  -0.031  10.347 -0.6802 -0.2363  0.3239
  158MOL0     C21261   8.994   0.335  10.523  0.6364  0.6659  0.5862
  158MOL0     C21262   8.870   0.407  10.524  0.0241  1.2839  0.1569
  158MOL0     H21263   8.345   0.513  10.406 -0.3297  0.4988  3.2398
  158MOL0     H21264   8.203   0.695  10.348 -0.6132  0.7599  1.3292
  158MOL0     H21265   8.081   0.891  10.476 -2.8688  2.1673  0.3374
  158MOL0     H21266   8.205   0.960  10.580 -0.0019  1.5126  0.7009
  158MOL0     H21267   8.172   1.172  10.499 -0.2020 -0.4857  0.5411
  158MOL0     H21268   8.073   1.127  10.360  0.0609 -0.3170 -0.0060
  158MOL0     H21269   7.894   1.047  10.553 -0.9158  0.7497  0.1349
  158MOL0     H21270   8.010   1.123  10.658  1.1562  1.7662 -0.5999
  158MOL0     H21271   8.008   1.332  10.553  0.1258 -0.6454  2.6057
  158MOL0     H21272   7.880   1.282  10.423 -0.4149 -0.0648  0.2664
  158MOL0     H21273   7.770   1.212  10.672 -2.0729  1.1704  0.9001
  158MOL0     H21274   7.822   1.375  10.696 -2.8113 -1.5223  0.8207
  158MOL0     H21275   7.727   1.447  10.494  2.7535 -0.4617  2.3178
  158MOL0     H21276   7.659   1.289  10.460  5.4089 -3.2098 -0.3133
  158MOL0     H21277   7.533   1.305  10.670  1.7306  0.3853  1.9916
  158MOL0     H21278   7.594   1.466  10.698  2.3257 -0.9309 -0.5302
  158MOL0     H21279   7.442   1.401  10.439 -1.2669  2.0101 -1.1298
  158MOL0     H21280   7.477   1.558  10.515 -1.3235  0.2050  1.9934
  158MOL0     H21281   7.283   1.233  10.591 -0.1562 -0.3581 -1.0737
  158MOL0     H21282   7.034   1.183  10.692 -4.6074  1.1418 -1.6504
  158MOL0     H21283   7.034   1.253  10.856  3.8023  4.1630  1.8647
  158MOL0     H21284   6.837   1.247  10.688  0.8931 -0.8650 -0.5084
  158MOL0     H21285   6.905   1.395  10.619 -1.8425 -0.9702 -1.9995
  158MOL0     H21286   6.921   1.488  10.852 -0.3761  0.3473 -1.7805
  158MOL0     H21287   6.824   1.339  10.913 -0.8457 -6.0799 -4.5178
  158MOL0     H21288   6.643   1.426  10.757 -0.3749 -0.8205 -0.0669
  158MOL0     H21289   6.731   1.572  10.743 -1.1116  0.0314 -0.3411
  158MOL0     H21290   6.465   1.561  10.725  0.4663  2.9877 -1.7456
  158MOL0     H21291   6.239   1.697  10.634 -1.8924 -2.4359 -2.4055
  158MOL0     H21292   6.221   1.537  10.676  1.9441  0.0187  0.8693
  158MOL0     H21293   6.105   1.643  10.744 -1.1190 -0.8695 -2.1858
  158MOL0     H21294   5.887   1.572  10.891  1.3358  0.8472  1.6580
  158MOL0     H21295   5.640   1.580  10.890 -0.3318 -0.7290  0.1884
  158MOL0     H21296   5.493   1.725  10.884  3.6912 -1.6869  3.0447
  158MOL0     H21297   5.331   1.712  10.951 -1.2826  3.3772 -1.4254
  158MOL0     H21298   5.520   1.934  11.039 -0.1465  3.0503 -3.9710
  158MOL0     H21299   5.401   1.949  10.906  2.1624  0.0348 -0.5946
  158MOL0     H21300   5.238   1.856  11.098 -1.7530  1.3490  2.0943
  158MOL0     H21301   5.251   2.024  11.036 -0.7335 -1.4560 -1.5390
  158MOL0     H21302   5.436   1.953  11.264 -1.1701 -1.9723  1.3879
  158MOL0     H21303   5.381   2.108  11.202 -1.5878  0.6959  1.8346
  158MOL0     H21304   5.216   1.888  11.317  2.4503  0.9212 -0.6992
  158MOL0     H21305   5.130   2.037  11.265 -1.2775  2.0260  1.8802
  158MOL0     H21306   5.224   2.159  11.445  1.3393  0.2675  2.3017
  158MOL0     H21307   5.150   2.017  11.509 -1.8658  1.6224 -0.8490
  158MOL0     H21308   5.462   2.064  11.465  0.3117 -2.6409 -1.1362
  158MOL0     H21309   5.389   1.912  11.526 -0.7742 -1.3469  1.7064
  158MOL0     H21310   5.328   2.169  11.667  1.0401  0.4928 -2.3527
  158MOL0     H21311   5.482   2.072  11.687  0.0789  0.9160 -1.1784
  158MOL0     H21312   5.668   1.809  11.257  3.2361 -1.3122  2.9304
  158MOL0     H21313   5.903   1.797  11.243  0.7005  0.1056 -0.7021
  158MOL0     H21314   6.336   1.716  11.185  0.0181 -1.3031 -0.8730
  158MOL0     H21315   6.526   1.608  11.160  1.0195 -0.6693 -0.9387
  158MOL0     H21316   8.527   0.968  10.460  0.3735 -0.7258  0.7477
  158MOL0     H21317   8.673   0.782  10.465  1.7972 -4.7853 -2.5267
  158MOL0     H21318   8.650   0.163  10.502  0.0442 -1.8525  3.8162
  158MOL0     H21319   8.875   0.026  10.524 -1.1965  1.2173  3.4887
  158MOL0     H21320   9.049  -0.043  10.653  2.0743  2.5176  2.9283
  158MOL0     H21321   9.099  -0.077  10.486 -0.2805 -0.4070  0.5924
  158MOL0     H21322   9.254  -0.185  10.607 -1.7269  0.2075  1.3171
  158MOL0     H21323   9.292  -0.048  10.705 -1.3573  1.4754  0.6118
  158MOL0     H21324   9.401   0.064  10.526  1.3711 -0.0884  0.1295
  158MOL0     H21325   9.311  -0.038  10.398 -2.2720 -1.4921  1.0130
  158MOL0     H21326   9.462  -0.216  10.411 -1.5333  1.1551 -1.3604
  158MOL0     H21327   9.523  -0.164  10.572  2.3323 -0.2575 -2.1134
  158MOL0     H21328   9.790  -0.022  10.294  0.9039  0.8870  3.0592
  158MOL0     H21329   9.092   0.381  10.527  0.6181  0.6563  1.2966
  158MOL0     H21330   8.864   0.515  10.524 -3.9777  1.2187  1.7858
  159MOL0     O21331   7.480   2.694   8.769  0.4012  0.1408  0.0319
  159MOL0     C21332   7.471   2.653   8.886  0.1940  0.2339  0.7399
  159MOL0     O21333   7.540   2.702   8.991 -0.3168  0.1915 -1.4461
  159MOL0     C21334   7.651   2.784   8.980 -0.4423 -0.8463 -0.5280
  159MOL0     C21335   7.687   2.851   9.100  0.7103 -0.1935  0.7301
  159MOL0     C21336   7.790   2.951   9.105  0.5799  0.5479 -0.2295
  159MOL0     C21337   7.858   2.982   8.986 -0.1179 -0.4627  0.1592
  159MOL0     O21338   7.956   3.080   8.962 -0.5454  1.1137 -0.0886
  159MOL0     C21339   8.004   3.143   9.086  0.3873  0.5560 -0.3968
  159MOL0     C21340   8.107   3.244   9.037 -0.2798  0.0529 -0.0997
  159MOL0     C21341   8.235   3.188   9.000 -0.7145 -0.0185  0.1024
  159MOL0     C21342   8.306   3.274   8.886 -0.2519  0.2951  0.4620
  159MOL0     C21343   8.426   3.205   8.810  0.3421 -0.0551 -0.5920
  159MOL0     C21344   8.441   3.254   8.664 -0.4001 -0.0086 -0.1346
  159MOL0     C21345   8.542   3.167   8.598  0.5149  0.8166 -0.7902
  159MOL0     C21346   8.674   3.119   8.672  0.0103 -0.3785 -1.3804
  159MOL0     N21347   8.764   3.238   8.704  0.3705  0.2324 -0.2166
  159MOL0     C21348   8.756   3.366   8.656 -0.5726 -0.7040  0.5333
  159MOL0     C21349   8.872   3.421   8.690 -0.2625 -0.7169  0.3610
  159MOL0     C21350   8.932   3.543   8.629 -0.6146 -0.3795 -0.1675
  159MOL0     C21351   8.842   3.666   8.672  0.2478  0.2074  0.6392
  159MOL0     C21352   8.833   3.681   8.824 -0.0144  0.0321  0.2906
  159MOL0     C21353   8.730   3.787   8.862 -0.4820  0.1550  0.2963
  159MOL0     O21354   8.782   3.913   8.826  0.4593 -0.0437  1.1005
  159MOL0     C21355   8.698   4.020   8.815 -0.0125  0.7332 -0.4885
  159MOL0     C21356   8.585   4.028   8.890 -0.2792 -0.3325 -0.5711
  159MOL0     C21357   8.484   4.126   8.873  0.0416  0.1408 -0.7233
  159MOL0     C21358   8.372   4.119   8.976  0.2601 -0.7333 -0.6572
  159MOL0     C21359   8.493   4.224   8.772 -0.0865  0.1230  1.2424
  159MOL0     C21360   8.386   4.324   8.730  1.0416 -0.6091  0.6215
  159MOL0     O21361   8.411   4.415   8.628  0.5343  0.2607 -0.5398
  159MOL0     C21362   8.302   4.486   8.572  0.1320  0.8237  0.3793
  159MOL0     C21363   8.273   4.610   8.615  0.1267 -0.7036 -0.5210
  159MOL0     C21364   8.159   4.679   8.577  0.0749  0.1693 -1.1422
  159MOL0     C21365   8.081   4.632   8.469 -0.1207  0.3033  0.0732
  159MOL0     O21366   7.967   4.701   8.429 -0.6986 -0.0772  0.4532
  159MOL0     C21367   7.847   4.626   8.389 -0.0468 -0.0108  0.3778
  159MOL0     C21368   7.807   4.497   8.468 -0.3251  0.0808 -0.3113
  159MOL0     C21369   7.669   4.446   8.426  0.6252 -0.1563 -1.1198
  159MOL0     C21370   7.684   4.345   8.319  0.3787  0.7489 -0.0828
  159MOL0     C21371   7.536   4.293   8.278 -0.5766  0.3968 -0.4863
  159MOL0     C21372   7.448   4.396   8.219 -0.2522  0.1800 -1.1533
  159MOL0     C21373   7.314   4.342   8.174  0.5870 -0.2985 -0.3643
  159MOL0     C21374   7.330   4.257   8.058  0.3178 -0.0945 -0.3164
  159MOL0    Cl21375   7.372   4.360   7.924 -0.1788 -0.2277  0.2463
  159MOL0     C21376   8.115   4.509   8.413 -0.1798 -0.1538  0.5854
  159MOL0     C21377   8.225   4.437   8.462 -0.5599  0.0817  0.1427
  159MOL0     O21378   8.276   4.309   8.782 -0.7145 -0.1588 -0.5911
  159MOL0     C21379   8.613   4.216   8.699  0.7237  0.1629  0.6215
  159MOL0     C21380   8.709   4.114   8.712  0.3974  0.4358 -0.2835
  159MOL0     N21381   8.950   3.328   8.755 -0.3232  0.1072 -0.2999
  159MOL0     N21382   8.887   3.213   8.771 -0.1727  0.4628 -0.5284
  159MOL0     C21383   7.819   2.918   8.872 -0.3573 -0.0072 -0.3853
  159MOL0     C21384   7.719   2.827   8.865  0.0015 -0.6845  0.5392
  159MOL0     C21385   7.375   2.542   8.917  0.2805 -0.3656  0.1448
  159MOL0     C21386   7.332   2.524   9.048  0.4567 -0.3980  0.5226
  159MOL0     C21387   7.244   2.420   9.081  0.8588  0.4300 -0.7008
  159MOL0     C21388   7.198   2.327   8.987 -0.3509 -0.0059 -0.2171
  159MOL0     O21389   7.129   2.217   9.035 -0.0507  0.0310 -0.6399
  159MOL0     C21390   7.031   2.157   8.951 -0.4784  0.1392 -0.5772
  159MOL0     C21391   7.062   2.011   8.914 -0.0503 -0.3782  0.3260
  159MOL0     C21392   7.101   1.927   9.040  0.3312  0.6459  0.0531
  159MOL0     C21393   7.104   1.778   8.996  0.0344 -0.5936  0.0687
  159MOL0     C21394   6.968   1.721   8.965 -0.4591  0.0370  0.1393
  159MOL0     C21395   6.862   1.669   8.937  0.2769  0.0986  0.4982
  159MOL0     C21396   7.241   2.339   8.858  0.7673 -0.3680  0.2876
  159MOL0     C21397   7.332   2.442   8.822 -0.5897  0.1044  0.8953
  159MOL0     H21398   7.629   2.839   9.190  0.7275  1.3864  0.9805
  159MOL0     H21399   7.806   2.987   9.206 -4.2712 -2.7083  2.1343
  159MOL0     H21400   7.915   3.188   9.131  0.2130 -1.8048  1.8315
  159MOL0     H21401   8.056   3.072   9.151  1.8515  1.2200 -0.7992
  159MOL0     H21402   8.059   3.294   8.952 -1.1340 -1.3402 -0.4774
  159MOL0     H21403   8.115   3.323   9.112 -0.0032  2.5625 -2.6521
  159MOL0     H21404   8.308   3.197   9.081  0.8269  0.6879 -1.3191
  159MOL0     H21405   8.233   3.086   8.961 -1.0573  0.5495 -1.4319
  159MOL0     H21406   8.231   3.305   8.812 -2.0707 -3.9916  0.2390
  159MOL0     H21407   8.354   3.359   8.936  2.0080  0.3969 -1.6743
  159MOL0     H21408   8.514   3.217   8.873  0.5802 -0.1893 -0.8976
  159MOL0     H21409   8.402   3.099   8.818 -2.1381  0.4664 -0.1771
  159MOL0     H21410   8.348   3.245   8.607 -1.0104 -3.0320  1.1371
  159MOL0     H21411   8.473   3.358   8.659 -0.5126 -0.0133 -1.0258
  159MOL0     H21412   8.492   3.071   8.590  1.4896  0.0792  1.3868
  159MOL0     H21413   8.554   3.190   8.491 -0.0116  0.1685 -0.9926
  159MOL0     H21414   8.725   3.049   8.605  0.5532 -0.1763 -1.1837
  159MOL0     H21415   8.647   3.066   8.764 -0.8138 -0.1861 -1.5040
  159MOL0     H21416   8.675   3.402   8.594 -1.6719  0.1638  2.3585
  159MOL0     H21417   9.036   3.556   8.659 -0.9231  2.6221 -0.0778
  159MOL0     H21418   8.934   3.534   8.519  4.2332  1.6256 -0.4965
  159MOL0     H21419   8.740   3.656   8.635  0.6770  2.9052 -1.6528
  159MOL0     H21420   8.890   3.755   8.630  0.7374 -0.9380 -1.3809
  159MOL0     H21421   8.932   3.715   8.856  1.9179 -2.9003 -1.9628
  159MOL0     H21422   8.823   3.588   8.880 -0.2031  1.2086  2.3041
  159MOL0     H21423   8.713   3.792   8.970 -2.3233  1.4961 -0.0035
  159MOL0     H21424   8.628   3.774   8.823 -1.4067  2.1990  1.8235
  159MOL0     H21425   8.586   3.963   8.977 -1.9138  1.4221  0.8402
  159MOL0     H21426   8.285   4.066   8.936 -0.7098  1.2275 -1.2289
  159MOL0     H21427   8.403   4.070   9.069 -1.9879  2.2507  1.8725
  159MOL0     H21428   8.344   4.220   9.006 -0.4478 -1.4807  1.4333
  159MOL0     H21429   8.336   4.653   8.692  2.2104  0.3266 -2.6867
  159MOL0     H21430   8.137   4.774   8.625  1.3799 -0.5945  1.1402
  159MOL0     H21431   7.768   4.700   8.408 -1.4968 -1.6585  1.0272
  159MOL0     H21432   7.848   4.611   8.281 -0.5188 -0.6859  0.4571
  159MOL0     H21433   7.881   4.418   8.455  0.7433  1.3474 -2.6013
  159MOL0     H21434   7.803   4.520   8.575  0.0537 -1.0765 -0.0443
  159MOL0     H21435   7.606   4.527   8.387  1.1845  0.3557 -0.9879
  159MOL0     H21436   7.619   4.400   8.511  2.4262  0.1867  0.1800
  159MOL0     H21437   7.727   4.385   8.227 -1.7735 -2.2459 -2.6432
  159MOL0     H21438   7.753   4.268   8.357  0.3520  0.0798 -1.3251
  159MOL0     H21439   7.491   4.239   8.361  3.4756 -0.0688  1.6732
  159MOL0     H21440   7.559   4.221   8.199 -1.7290  0.5530 -0.9813
  159MOL0     H21441   7.424   4.473   8.294  1.4543 -0.4453  0.0875
  159MOL0     H21442   7.500   4.446   8.137  2.0717 -1.4251 -0.7380
  159MOL0     H21443   7.244   4.424   8.156 -1.1757 -1.3841  1.2146
  159MOL0     H21444   7.276   4.280   8.255 -1.7481 -1.5300 -2.2762
  159MOL0     H21445   7.233   4.213   8.033  0.2057 -2.1118  3.1108
  159MOL0     H21446   7.412   4.185   8.065  2.1086  1.8656 -0.2600
  159MOL0     H21447   8.049   4.469   8.337  1.2573 -1.9686  0.2087
  159MOL0     H21448   8.249   4.349   8.402  0.7623  0.0869  0.6389
  159MOL0     H21449   8.643   4.291   8.626  2.2108  1.0423  2.0572
  159MOL0     H21450   8.793   4.104   8.645  1.1849  0.0343  0.7335
  159MOL0     H21451   7.885   2.948   8.791 -0.2633 -1.5187 -0.9135
  159MOL0     H21452   7.696   2.786   8.767 -0.3973 -0.9318  0.7312
  159MOL0     H21453   7.353   2.596   9.126  1.0093  2.4265 -2.0693
  159MOL0     H21454   7.195   2.413   9.177  2.0290  1.9052  0.0344
  159MOL0     H21455   6.937   2.165   9.007 -0.1145  0.1394  0.0468
  159MOL0     H21456   7.019   2.207   8.855 -0.6240  0.9455 -0.1471
  159MOL0     H21457   7.147   2.011   8.846 -2.3258  2.8134 -2.8611
  159MOL0     H21458   6.976   1.979   8.855  0.0976  1.5362 -1.0113
  159MOL0     H21459   7.031   1.926   9.124 -1.1766 -2.8097 -1.0532
  159MOL0     H21460   7.202   1.959   9.067 -0.0121  1.3869  0.4721
  159MOL0     H21461   7.157   1.719   9.072 -2.0033 -2.4406  0.1433
  159MOL0     H21462   7.166   1.772   8.906  4.1273  4.2499  2.0938
  159MOL0     H21463   6.779   1.604   8.918  1.5052 -1.3635 -0.1600
  159MOL0     H21464   7.202   2.274   8.781 -2.8233  0.2893  1.3548
  159MOL0     H21465   7.367   2.450   8.720  3.3331 -1.0619  1.9587
  160MOL0     O21466   2.416   7.219   9.113 -0.1310  0.1050 -0.5120
  160MOL0     C21467   2.469   7.312   9.060 -0.0660  0.0110 -0.2736
  160MOL0     O21468   2.426   7.389   8.964  0.8220 -0.2818 -0.3913
  160MOL0     C21469   2.301   7.372   8.905  0.5693  0.5282 -1.4853
  160MOL0     C21470   2.240   7.480   8.837 -0.3723 -0.0758 -0.4079
  160MOL0     C21471   2.132   7.451   8.755 -0.0843 -0.7485  0.2400
  160MOL0     C21472   2.077   7.322   8.740  0.7799 -0.1636 -0.2589
  160MOL0     O21473   1.972   7.275   8.670  0.2000  0.3760 -0.1529
  160MOL0     C21474   1.913   7.364   8.587  0.1387 -0.9946 -0.8948
  160MOL0     C21475   1.797   7.302   8.508  0.1325  0.0158  0.1295
  160MOL0     C21476   1.700   7.223   8.594 -0.1287  0.5353  0.1323
  160MOL0     C21477   1.592   7.153   8.513 -0.4206  0.1476  0.0330
  160MOL0     C21478   1.468   7.129   8.603 -0.3504  0.1164 -0.2736
  160MOL0     C21479   1.384   7.029   8.531 -0.5071  0.3366 -0.2143
  160MOL0     C21480   1.255   6.985   8.610  0.0290 -0.4803  0.3145
  160MOL0     C21481   1.160   7.099   8.648  0.7014  0.0674 -0.3601
  160MOL0     N21482   1.030   7.051   8.705 -0.2009 -0.6430 -0.0576
  160MOL0     C21483   0.918   7.134   8.695  0.3889  1.1114 -0.1719
  160MOL0     C21484   0.851   7.095   8.805 -0.8441 -0.3794 -0.3216
  160MOL0     C21485   0.724   7.163   8.859 -0.2860 -0.1757  1.2293
  160MOL0     C21486   0.612   7.105   8.772 -0.6188  0.3330  0.1362
  160MOL0     C21487   0.536   6.986   8.834  0.2262  0.2708 -0.5009
  160MOL0     C21488   0.466   6.892   8.733  0.3357  0.2700 -0.4921
  160MOL0     O21489   0.340   6.839   8.784 -0.8118  0.2613  0.9782
  160MOL0     C21490   0.243   6.774   8.705  0.5542  0.1175 -0.4510
  160MOL0     C21491   0.245   6.765   8.566  0.6862  0.0607 -0.5699
  160MOL0     C21492   0.130   6.703   8.491  0.5179  0.1838  0.3601
  160MOL0     C21493   0.128   6.693   8.336 -0.0359 -1.1285 -0.0224
  160MOL0     C21494   0.017   6.655   8.567  0.0438 -0.4396 -0.1178
  160MOL0     C21495  -0.105   6.608   8.499 -1.0857 -0.5483  0.0333
  160MOL0     O21496  -0.164   6.493   8.536  0.7162  0.6374  0.2979
  160MOL0     C21497  -0.280   6.456   8.473  0.0137  0.8169 -0.0163
  160MOL0     C21498  -0.291   6.444   8.334 -0.5520  0.6106  0.7365
  160MOL0     C21499  -0.406   6.389   8.271 -0.0451 -0.1641  0.9189
  160MOL0     C21500  -0.507   6.334   8.346  2.0878 -0.5229 -1.6171
  160MOL0     O21501  -0.626   6.281   8.307  0.3861  0.0847 -0.3974
  160MOL0     C21502  -0.645   6.246   8.169 -0.6783  0.0618  1.2963
  160MOL0     C21503  -0.768   6.175   8.149  1.2275  0.3842  0.1648
  160MOL0     C21504  -0.804   6.168   7.993  0.0090  0.1097  0.0198
  160MOL0     C21505  -0.897   6.054   7.959  0.0046 -0.2080 -0.4060
  160MOL0     C21506  -0.952   6.078   7.819  0.2770  1.4039  0.2170
  160MOL0     C21507  -1.054   5.970   7.784 -0.3276  0.8909  0.0985
  160MOL0     C21508  -0.992   5.824   7.775 -0.0526  0.2849 -1.1455
  160MOL0     C21509  -1.094   5.711   7.776  0.1376  1.2154 -0.5174
  160MOL0    Cl21510  -0.996   5.566   7.754 -0.1914 -0.2392 -0.7053
  160MOL0     C21511  -0.488   6.342   8.492  0.2440  0.3190  0.2502
  160MOL0     C21512  -0.381   6.418   8.551 -0.1513  0.7668  0.3991
  160MOL0     O21513  -0.155   6.695   8.432  0.0460 -0.4691  0.1248
  160MOL0     C21514   0.026   6.660   8.707 -1.4284 -0.1435  0.0907
  160MOL0     C21515   0.137   6.717   8.773  1.0985 -0.5781  0.1062
  160MOL0     N21516   0.920   6.999   8.879  0.3354  0.4900  0.0644
  160MOL0     N21517   1.030   6.973   8.815 -0.3632 -0.4591 -0.3679
  160MOL0     C21518   2.125   7.217   8.806  0.0682  0.1799 -0.4289
  160MOL0     C21519   2.239   7.240   8.893  0.6908 -0.1410 -0.2661
  160MOL0     C21520   2.609   7.340   9.095 -0.4917 -0.1987  0.0206
  160MOL0     C21521   2.677   7.270   9.205 -0.1087 -0.0660  0.5645
  160MOL0     C21522   2.804   7.316   9.250  0.1336 -0.8357 -0.3852
  160MOL0     C21523   2.878   7.409   9.178 -0.1676  0.3903 -1.2252
  160MOL0     O21524   3.010   7.433   9.232  1.1496  0.1268 -0.0151
  160MOL0     C21525   3.100   7.510   9.149 -0.4870 -0.2778  0.2599
  160MOL0     C21526   3.240   7.514   9.215  0.4926 -0.3296 -0.2336
  160MOL0     C21527   3.308   7.371   9.227  0.5544  0.0674  0.6433
  160MOL0     C21528   3.335   7.304   9.093 -0.5998  0.3284 -0.3329
  160MOL0     C21529   3.411   7.176   9.117 -0.2338  0.8852 -0.3344
  160MOL0     C21530   3.466   7.073   9.155 -0.2993 -0.1844  1.0950
  160MOL0     C21531   2.820   7.468   9.064  0.1815 -0.2160  0.1373
  160MOL0     C21532   2.685   7.441   9.031  0.5878  0.3697  0.6282
  160MOL0     H21533   2.290   7.574   8.861  0.0272 -0.8047  1.9246
  160MOL0     H21534   2.081   7.527   8.696 -0.2270  1.0544  2.5272
  160MOL0     H21535   1.879   7.444   8.653  1.2017 -1.4256  0.2329
  160MOL0     H21536   1.993   7.392   8.517  0.0578  1.3319 -0.1399
  160MOL0     H21537   1.747   7.382   8.452 -2.2802 -1.0307  0.6343
  160MOL0     H21538   1.844   7.236   8.434  3.2641  0.6095  1.4447
  160MOL0     H21539   1.757   7.143   8.643 -0.1352  0.2873 -0.2563
  160MOL0     H21540   1.653   7.285   8.670 -1.3685  0.2358 -0.3664
  160MOL0     H21541   1.560   7.197   8.418 -1.0329 -3.1481 -1.4158
  160MOL0     H21542   1.631   7.054   8.486  0.4072  0.6573 -0.7067
  160MOL0     H21543   1.503   7.087   8.698  0.4422  1.4824  0.0632
  160MOL0     H21544   1.418   7.224   8.621 -0.9563 -0.1369 -0.5753
  160MOL0     H21545   1.361   7.070   8.433  0.5383 -1.0897 -1.0982
  160MOL0     H21546   1.431   6.935   8.501 -0.7251 -0.7600  2.5946
  160MOL0     H21547   1.195   6.918   8.547 -1.3447  1.5858 -0.6662
  160MOL0     H21548   1.281   6.930   8.701  0.8313 -1.4364 -0.4666
  160MOL0     H21549   1.128   7.153   8.559 -3.0320  3.2979  2.5669
  160MOL0     H21550   1.209   7.167   8.718 -1.5275  0.9426  0.4348
  160MOL0     H21551   0.885   7.214   8.629  3.3268  2.9154  0.3317
  160MOL0     H21552   0.696   7.145   8.964 -0.7704  0.9761  1.3072
  160MOL0     H21553   0.736   7.271   8.857 -0.3948 -0.1200 -2.0537
  160MOL0     H21554   0.659   7.077   8.677  1.1975 -0.0917  1.1184
  160MOL0     H21555   0.535   7.176   8.740  0.1683  1.0982 -0.0758
  160MOL0     H21556   0.454   7.020   8.898  1.4106  1.4150  0.4878
  160MOL0     H21557   0.607   6.930   8.895  0.1531  1.9079  1.1938
  160MOL0     H21558   0.542   6.823   8.696 -0.6608 -1.0480 -0.1657
  160MOL0     H21559   0.442   6.957   8.648  0.1951 -0.8196 -1.3038
  160MOL0     H21560   0.329   6.807   8.511  1.4765 -0.7896 -0.0417
  160MOL0     H21561   0.148   6.587   8.313  1.0138 -0.8125 -0.6232
  160MOL0     H21562   0.037   6.727   8.286  0.8501 -1.3069 -1.8247
  160MOL0     H21563   0.207   6.752   8.290  0.2575 -1.2344  0.3417
  160MOL0     H21564  -0.208   6.476   8.271  0.5669  0.0464  1.8763
  160MOL0     H21565  -0.411   6.402   8.164 -0.2009 -0.9767  0.8219
  160MOL0     H21566  -0.650   6.330   8.099 -2.4344 -2.2342 -1.5595
  160MOL0     H21567  -0.564   6.186   8.127 -1.3538  0.4628 -0.6889
  160MOL0     H21568  -0.757   6.072   8.184  0.7749  0.4049  0.3761
  160MOL0     H21569  -0.840   6.224   8.215  2.5825 -0.2844  2.2368
  160MOL0     H21570  -0.709   6.156   7.940 -0.2664 -2.3939 -0.0264
  160MOL0     H21571  -0.859   6.256   7.959  1.0355  0.0762 -1.8656
  160MOL0     H21572  -0.847   5.957   7.969 -1.5874 -0.9964  0.3495
  160MOL0     H21573  -0.984   6.058   8.025  0.3528  0.1606  0.0331
  160MOL0     H21574  -0.865   6.075   7.753 -0.0299  1.7440 -0.2117
  160MOL0     H21575  -0.992   6.179   7.804  2.9440  2.2282 -2.4214
  160MOL0     H21576  -1.146   5.981   7.841 -2.6409 -0.8316 -3.0117
  160MOL0     H21577  -1.087   5.994   7.682 -1.6046  0.2476  0.3469
  160MOL0     H21578  -0.931   5.799   7.861 -1.9275  1.9277  0.7747
  160MOL0     H21579  -0.928   5.822   7.686  1.7245  2.1770  0.0270
  160MOL0     H21580  -1.163   5.720   7.691 -0.3110 -3.0243 -0.8129
  160MOL0     H21581  -1.152   5.705   7.868  0.5598  0.0056 -0.3191
  160MOL0     H21582  -0.561   6.292   8.556  0.1329  0.2501  0.0733
  160MOL0     H21583  -0.371   6.410   8.658  1.4955 -0.1784  0.2005
  160MOL0     H21584  -0.055   6.616   8.764 -0.5201 -2.2133 -0.1329
  160MOL0     H21585   0.135   6.706   8.880  3.7515 -3.9797 -0.0376
  160MOL0     H21586   2.084   7.117   8.791 -2.1039  1.1612 -1.3169
  160MOL0     H21587   2.261   7.158   8.960 -2.0140  1.9008  3.5516
  160MOL0     H21588   2.617   7.207   9.268 -2.2902  0.3517 -0.9699
  160MOL0     H21589   2.856   7.276   9.337 -0.7779 -2.4763 -0.5569
  160MOL0     H21590   3.112   7.477   9.045  1.5038 -0.0500  0.3731
  160MOL0     H21591   3.066   7.614   9.150  2.2999  0.8291 -2.3859
  160MOL0     H21592   3.223   7.549   9.317 -1.0107  0.0777 -0.6034
  160MOL0     H21593   3.315   7.576   9.165  1.0491 -2.7340 -2.6544
  160MOL0     H21594   3.235   7.310   9.280 -0.5402  2.4718  2.0692
  160MOL0     H21595   3.392   7.355   9.294  2.1852 -1.8688 -1.6763
  160MOL0     H21596   3.397   7.364   9.026 -3.1184  1.2681 -2.0063
  160MOL0     H21597   3.244   7.282   9.035 -0.6268 -3.2983  0.8174
  160MOL0     H21598   3.517   6.986   9.190  1.7597 -0.4781 -2.2571
  160MOL0     H21599   2.881   7.535   9.006  0.3675 -0.2604  0.2810
  160MOL0     H21600   2.635   7.489   8.947 -1.0120 -0.2164  1.2087
  161MOL0     O21601   0.275   1.206  10.356  0.4003 -0.4081  0.9694
  161MOL0     C21602   0.274   1.178  10.470 -0.0086 -0.3196 -0.0793
  161MOL0     O21603   0.368   1.219  10.564  0.0270 -0.3861 -0.6316
  161MOL0     C21604   0.475   1.296  10.518 -1.3720  0.0604  0.3871
  161MOL0     C21605   0.465   1.414  10.441  0.2659  1.0266 -0.2940
  161MOL0     C21606   0.584   1.488  10.412 -1.1721  0.6018  0.0827
  161MOL0     C21607   0.718   1.449  10.452  0.6565 -0.3429 -0.4010
  161MOL0     O21608   0.837   1.516  10.438 -0.6397  0.4413  0.5805
  161MOL0     C21609   0.833   1.626  10.340 -0.0782 -0.1505 -0.9728
  161MOL0     C21610   0.835   1.595  10.188  0.1604  0.8121  0.1302
  161MOL0     C21611   0.979   1.580  10.138 -0.1674  0.6744 -0.2177
  161MOL0     C21612   0.969   1.499  10.003 -0.1816  0.8832  0.0695
  161MOL0     C21613   1.097   1.426   9.960 -0.7018 -0.4168  0.3003
  161MOL0     C21614   1.138   1.301  10.054 -0.7162 -0.1918  0.4619
  161MOL0     C21615   1.061   1.172  10.013  0.6623 -0.5148 -0.3245
  161MOL0     C21616   1.130   1.043  10.059 -0.0745 -0.6470  0.1358
  161MOL0     N21617   1.059   0.919  10.044  0.0597  0.4247  0.8719
  161MOL0     C21618   0.993   0.832  10.133 -0.3047  0.1355  0.2664
  161MOL0     C21619   0.952   0.724  10.068  0.2700  0.3166  0.1333
  161MOL0     C21620   0.908   0.603  10.145 -0.6086 -0.4368 -0.1134
  161MOL0     C21621   0.765   0.564  10.106  0.1565  0.6526  0.2199
  161MOL0     C21622   0.661   0.666  10.146 -0.6858 -0.1679  0.0198
  161MOL0     C21623   0.520   0.599  10.142 -0.6093 -0.5440  0.6288
  161MOL0     O21624   0.454   0.668  10.026  0.1376 -0.2053 -0.9867
  161MOL0     C21625   0.337   0.730  10.065  1.4564  0.1068 -0.5189
  161MOL0     C21626   0.250   0.683  10.163  0.1990  0.3433 -0.1839
  161MOL0     C21627   0.136   0.747  10.200 -0.4480  0.8572 -0.1042
  161MOL0     C21628   0.069   0.688  10.317 -0.4296  0.8630 -0.2430
  161MOL0     C21629   0.095   0.859  10.127  0.3697  0.5286  0.5982
  161MOL0     C21630  -0.046   0.907  10.126 -0.5655  0.8937  0.1770
  161MOL0     O21631  -0.067   1.039  10.120 -0.1208  0.2354 -0.4318
  161MOL0     C21632  -0.193   1.091  10.095  0.6470 -0.1440  0.6318
  161MOL0     C21633  -0.250   1.074   9.971  0.6479  0.0723 -0.0648
  161MOL0     C21634  -0.378   1.114   9.941  0.6352  0.3488  0.5452
  161MOL0     C21635  -0.440   1.203  10.027  1.1166  0.8603  0.0186
  161MOL0     O21636  -0.552   1.275   9.993 -0.4376 -0.3871  0.2831
  161MOL0     C21637  -0.634   1.353  10.085 -0.1254 -0.3094 -0.4905
  161MOL0     C21638  -0.721   1.449  10.008 -0.2512  1.1665  0.6582
  161MOL0     C21639  -0.791   1.546  10.106  0.7114  0.0648  0.7642
  161MOL0     C21640  -0.696   1.644  10.189 -0.9919  0.5887 -0.0982
  161MOL0     C21641  -0.762   1.779  10.226  0.2735 -0.1517 -0.0140
  161MOL0     C21642  -0.663   1.874  10.292 -0.3207 -0.1450  0.4778
  161MOL0     C21643  -0.729   1.994  10.355 -0.4035  0.1923  0.2389
  161MOL0     C21644  -0.615   2.085  10.416  0.0631 -1.0307 -0.3415
  161MOL0    Cl21645  -0.480   2.015  10.487 -0.2849  0.2067  0.3976
  161MOL0     C21646  -0.389   1.226  10.153 -0.1001  1.4188 -0.3826
  161MOL0     C21647  -0.265   1.171  10.185 -0.6942  0.6756  0.0956
  161MOL0     O21648  -0.135   0.821  10.118 -0.4445  0.0471 -0.3106
  161MOL0     C21649   0.184   0.912  10.033  0.2492 -0.3646 -0.6624
  161MOL0     C21650   0.298   0.843   9.994 -1.1754 -0.2561  0.4384
  161MOL0     N21651   0.988   0.745   9.933  0.3358  0.2954 -0.0662
  161MOL0     N21652   1.047   0.861   9.917  0.2537 -0.2636  0.8438
  161MOL0     C21653   0.724   1.326  10.514  0.1965 -0.0594  0.0779
  161MOL0     C21654   0.612   1.251  10.544 -0.3548 -0.2360 -1.2770
  161MOL0     C21655   0.158   1.091  10.526 -1.0911  0.4637 -0.5706
  161MOL0     C21656   0.181   1.027  10.648 -0.1445 -0.1296  0.6476
  161MOL0     C21657   0.089   0.949  10.715  0.6782 -0.6527  0.7392
  161MOL0     C21658  -0.032   0.933  10.656  0.2859 -0.3641 -0.1953
  161MOL0     O21659  -0.121   0.857  10.719 -0.2571  0.4957 -0.0565
  161MOL0     C21660  -0.247   0.822  10.670  0.5942  0.4532  0.7040
  161MOL0     C21661  -0.321   0.725  10.766 -1.3629  0.2478 -0.8714
  161MOL0     C21662  -0.384   0.808  10.875  0.5472 -0.3883 -0.4564
  161MOL0     C21663  -0.419   0.730  11.002 -0.0364  0.2377 -0.3770
  161MOL0     C21664  -0.529   0.634  10.958  0.8152 -0.2326  0.4251
  161MOL0     C21665  -0.626   0.578  10.913 -0.4405  0.2794  0.6705
  161MOL0     C21666  -0.059   0.988  10.532 -0.1749  0.3080  0.1961
  161MOL0     C21667   0.034   1.067  10.466  0.0436 -0.4883 -0.3835
  161MOL0     H21668   0.375   1.453  10.394 -1.2972  0.3425  1.9564
  161MOL0     H21669   0.572   1.578  10.353  4.3131  1.3761 -0.3799
  161MOL0     H21670   0.743   1.686  10.358 -0.1945 -0.0509 -1.8546
  161MOL0     H21671   0.912   1.696  10.369 -1.4338  1.2474 -0.4429
  161MOL0     H21672   0.771   1.510  10.164  2.0536 -1.2313  1.8781
  161MOL0     H21673   0.793   1.683  10.138 -0.7178  1.5419  2.0489
  161MOL0     H21674   1.027   1.675  10.109  1.1997 -0.0651 -0.4895
  161MOL0     H21675   1.046   1.536  10.213 -1.0000 -0.3683 -0.0727
  161MOL0     H21676   0.882   1.432  10.005 -0.2910  1.0097 -0.4822
  161MOL0     H21677   0.937   1.565   9.922 -0.3124  1.1535  0.3357
  161MOL0     H21678   1.087   1.396   9.855 -1.2368 -1.5587  0.6714
  161MOL0     H21679   1.178   1.500   9.961 -2.9175  2.1732 -0.2926
  161MOL0     H21680   1.243   1.283  10.029 -1.1812  1.0044 -2.9107
  161MOL0     H21681   1.147   1.316  10.162 -0.5352 -0.4790  0.4903
  161MOL0     H21682   0.962   1.179  10.060  0.1836  1.5711 -1.5164
  161MOL0     H21683   1.041   1.174   9.905 -1.0553 -0.9669 -0.0451
  161MOL0     H21684   1.165   1.043  10.162 -2.2191 -0.5848  0.9118
  161MOL0     H21685   1.219   1.036   9.995  0.7191  3.7068  0.4858
  161MOL0     H21686   0.986   0.857  10.239  1.9622  2.8861 -0.1070
  161MOL0     H21687   0.985   0.526  10.132  1.2872  1.7041 -2.4987
  161MOL0     H21688   0.896   0.627  10.251 -2.7868  1.7676 -0.7603
  161MOL0     H21689   0.738   0.472  10.157 -0.0311  0.4362 -0.2581
  161MOL0     H21690   0.762   0.561   9.996  3.6525  2.3960 -0.0778
  161MOL0     H21691   0.664   0.762  10.094  1.9268 -0.0834  0.2146
  161MOL0     H21692   0.674   0.702  10.249 -0.3046  0.2840 -0.1844
  161MOL0     H21693   0.479   0.603  10.243  0.8602  0.5186  1.2258
  161MOL0     H21694   0.531   0.493  10.117  4.9273 -0.1027 -0.1008
  161MOL0     H21695   0.273   0.593  10.219  1.4611 -0.1929 -1.4874
  161MOL0     H21696  -0.034   0.722  10.333  0.4755  2.6910  2.3915
  161MOL0     H21697   0.068   0.579  10.311  0.6411  0.7271  1.4958
  161MOL0     H21698   0.123   0.714  10.408 -1.2145 -3.7950  1.8766
  161MOL0     H21699  -0.184   1.026   9.900  1.8563  2.7327 -0.8868
  161MOL0     H21700  -0.425   1.113   9.843 -0.5921  1.9551  1.0788
  161MOL0     H21701  -0.688   1.293  10.158 -1.9353  2.4828  0.6570
  161MOL0     H21702  -0.562   1.420  10.134  1.3244 -0.2976 -2.5012
  161MOL0     H21703  -0.660   1.507   9.939 -0.7056 -0.2005 -0.9349
  161MOL0     H21704  -0.801   1.389   9.964  0.1182  0.1397  1.3474
  161MOL0     H21705  -0.862   1.488  10.165  0.5639 -0.2416  0.2915
  161MOL0     H21706  -0.848   1.615  10.044  1.0852  0.1578  0.5212
  161MOL0     H21707  -0.666   1.596  10.283 -1.5181  2.2019  0.9317
  161MOL0     H21708  -0.608   1.669  10.129 -0.8889 -0.8973 -0.6078
  161MOL0     H21709  -0.839   1.761  10.302  1.5664  0.9354  1.6195
  161MOL0     H21710  -0.806   1.822  10.136  3.0420  1.6240 -0.6083
  161MOL0     H21711  -0.596   1.818  10.359 -0.3923 -0.4418  0.2994
  161MOL0     H21712  -0.603   1.899  10.204 -1.9323 -1.8840 -1.1953
  161MOL0     H21713  -0.785   1.954  10.440 -0.4167 -3.4096 -1.2571
  161MOL0     H21714  -0.792   2.044  10.282 -2.7960  0.3762  2.3031
  161MOL0     H21715  -0.665   2.159  10.478 -0.1666  0.4833 -2.2470
  161MOL0     H21716  -0.568   2.124  10.325  0.4112 -0.7465 -0.0395
  161MOL0     H21717  -0.444   1.277  10.231 -4.0114  0.5082 -2.3139
  161MOL0     H21718  -0.233   1.181  10.288  3.1366  0.5037 -0.9403
  161MOL0     H21719   0.147   0.997   9.977  2.0771  1.2965  0.5146
  161MOL0     H21720   0.343   0.876   9.901 -1.4701  0.3400  0.5078
  161MOL0     H21721   0.822   1.287  10.539  0.7432  0.0904 -1.6906
  161MOL0     H21722   0.617   1.169  10.615 -0.5760  1.4550  0.8022
  161MOL0     H21723   0.275   1.045  10.698 -0.0375  2.2606 -0.2656
  161MOL0     H21724   0.114   0.904  10.810  0.2040  1.7208  2.0453
  161MOL0     H21725  -0.310   0.911  10.656  0.9684  0.6456  0.2285
  161MOL0     H21726  -0.231   0.764  10.579  2.2909  1.2837  0.4415
  161MOL0     H21727  -0.249   0.664  10.820 -2.3077  0.0411  0.1834
  161MOL0     H21728  -0.385   0.666  10.699  2.0342 -2.6504 -1.8064
  161MOL0     H21729  -0.478   0.850  10.838  0.0114  0.2430  1.5072
  161MOL0     H21730  -0.321   0.895  10.898  0.9154 -1.2698  2.1286
  161MOL0     H21731  -0.457   0.802  11.075 -4.5588  0.3466 -2.4901
  161MOL0     H21732  -0.337   0.671  11.044  2.6660  4.5379  1.1188
  161MOL0     H21733  -0.721   0.542  10.880 -0.4136  3.7323 -4.3653
  161MOL0     H21734  -0.157   0.965  10.489 -0.8387  2.1505  0.6388
  161MOL0     H21735   0.007   1.130  10.382  2.5209 -0.4126 -1.2070
  162MOL0     O21736  11.258   7.101   5.571  0.4592  0.0886 -0.6670
  162MOL0     C21737  11.288   6.981   5.580  0.3908 -0.1687 -0.8602
  162MOL0     O21738  11.209   6.880   5.614 -0.4708 -0.6069  0.6863
  162MOL0     C21739  11.084   6.886   5.672 -0.0388 -0.8051 -0.6731
  162MOL0     C21740  11.014   7.003   5.696 -0.1441 -0.0374 -0.6625
  162MOL0     C21741  10.891   6.991   5.766 -0.2191  0.0036  1.2401
  162MOL0     C21742  10.832   6.869   5.809 -0.6700 -0.2615 -0.8566
  162MOL0     O21743  10.717   6.851   5.879 -0.0450 -0.0736 -0.0694
  162MOL0     C21744  10.657   6.970   5.934 -0.6754  0.0883 -0.1144
  162MOL0     C21745  10.540   6.922   6.026 -0.4205 -0.3894  0.5097
  162MOL0     C21746  10.447   7.037   6.058 -0.1619  0.0016 -0.2129
  162MOL0     C21747  10.323   7.058   5.969  1.0678  0.1784 -0.3920
  162MOL0     C21748  10.210   6.953   5.993 -0.0625 -0.1764 -0.6095
  162MOL0     C21749  10.108   6.924   5.882 -0.4604  0.2605 -0.7367
  162MOL0     C21750  10.179   6.888   5.750 -1.0913  0.8268  0.2480
  162MOL0     C21751  10.085   6.803   5.652 -0.1072  0.5956 -0.3686
  162MOL0     N21752  10.034   6.670   5.694 -0.0005 -0.0947  0.7103
  162MOL0     C21753  10.097   6.574   5.756  0.5215  1.1396 -0.2259
  162MOL0     C21754  10.023   6.459   5.734  0.0767 -0.2882  0.2882
  162MOL0     C21755  10.055   6.317   5.768 -0.4886 -0.2043 -0.3845
  162MOL0     C21756  10.185   6.305   5.858 -0.4971  0.2564 -1.3120
  162MOL0     C21757  10.206   6.164   5.915 -0.4307  0.6388  0.0659
  162MOL0     C21758  10.182   6.052   5.809 -0.3127  0.5038 -0.0046
  162MOL0     O21759  10.244   5.933   5.861 -0.5040 -0.4834 -0.5968
  162MOL0     C21760  10.260   5.815   5.790 -0.6113  0.2904  0.5652
  162MOL0     C21761  10.238   5.798   5.658 -0.2738  0.0449  0.4582
  162MOL0     C21762  10.257   5.674   5.594  0.6648  0.7145  0.5419
  162MOL0     C21763  10.231   5.677   5.446 -0.4978  0.5647  0.3954
  162MOL0     C21764  10.272   5.553   5.663  0.9540  0.5987 -0.4941
  162MOL0     C21765  10.278   5.416   5.600  0.7067  0.8606 -0.6738
  162MOL0     O21766  10.325   5.328   5.676 -0.0515  0.7623 -0.2182
  162MOL0     C21767  10.314   5.187   5.661 -0.9650 -0.6617  0.0845
  162MOL0     C21768  10.213   5.125   5.593 -0.1555  0.3292  0.1512
  162MOL0     C21769  10.181   4.991   5.596  0.5424 -0.5230 -0.4244
  162MOL0     C21770  10.263   4.912   5.667 -0.3685  1.2420  0.4538
  162MOL0     O21771  10.240   4.774   5.673 -0.5530  0.0162 -0.5206
  162MOL0     C21772  10.253   4.690   5.568 -0.2060 -0.1587  0.1123
  162MOL0     C21773  10.384   4.614   5.554 -0.0943  0.1010  0.6294
  162MOL0     C21774  10.479   4.704   5.467 -0.0641  0.4910 -0.7028
  162MOL0     C21775  10.627   4.687   5.500  0.2587 -0.2544  0.6515
  162MOL0     C21776  10.674   4.546   5.450  0.2286 -0.0263  0.2857
  162MOL0     C21777  10.821   4.526   5.479  0.9422 -0.0808  0.1617
  162MOL0     C21778  10.907   4.594   5.374 -0.3853  0.2593 -0.3718
  162MOL0     C21779  11.049   4.541   5.368  0.1552  0.3490  0.1785
  162MOL0    Cl21780  11.146   4.553   5.522 -0.5795 -0.5227  0.2140
  162MOL0     C21781  10.383   4.965   5.721  0.4563  0.0360  0.1295
  162MOL0     C21782  10.412   5.102   5.718 -0.0911  0.1182 -1.9270
  162MOL0     O21783  10.235   5.403   5.487 -0.2423  0.5395 -0.0518
  162MOL0     C21784  10.293   5.574   5.803 -0.6513 -0.4936  0.0388
  162MOL0     C21785  10.289   5.700   5.866  0.1736 -0.4163 -0.3832
  162MOL0     N21786   9.905   6.500   5.681  0.9642 -0.1432  0.0735
  162MOL0     N21787   9.911   6.626   5.650 -0.1456  0.0897 -0.0809
  162MOL0     C21788  10.899   6.753   5.778 -0.6602  0.5587 -0.0527
  162MOL0     C21789  11.031   6.760   5.718  0.5891  0.1382 -0.5883
  162MOL0     C21790  11.419   6.949   5.547 -0.7292 -0.7637 -0.4275
  162MOL0     C21791  11.469   6.827   5.586  0.8844  0.3607 -0.1707
  162MOL0     C21792  11.595   6.776   5.554  0.4575  0.0051 -0.2641
  162MOL0     C21793  11.684   6.859   5.483  0.7499  0.0869  0.4180
  162MOL0     O21794  11.813   6.808   5.467 -0.0810 -0.7536 -0.0986
  162MOL0     C21795  11.910   6.892   5.395  0.5686  0.5866 -0.0185
  162MOL0     C21796  12.035   6.811   5.356 -0.4587  0.0033 -0.2129
  162MOL0     C21797  12.141   6.879   5.269 -0.7665 -0.3783 -0.8498
  162MOL0     C21798  12.254   6.774   5.227  0.1309  0.6828 -1.0120
  162MOL0     C21799  12.370   6.830   5.153  0.6363  0.4477 -0.2681
  162MOL0     C21800  12.463   6.875   5.083 -0.3831  0.8527  0.0016
  162MOL0     C21801  11.639   6.989   5.446 -1.0082 -0.4092  0.1141
  162MOL0     C21802  11.509   7.031   5.475 -0.0285  0.4113  0.9152
  162MOL0     H21803  11.037   7.102   5.659 -1.5064 -0.8079 -4.0000
  162MOL0     H21804  10.843   7.088   5.775  4.0316  3.0791 -3.4371
  162MOL0     H21805  10.728   7.030   5.991 -1.4449  0.6109  0.3137
  162MOL0     H21806  10.625   7.036   5.853 -0.5212  0.5642  0.2044
  162MOL0     H21807  10.490   6.833   5.986 -0.1335 -1.3425  2.1688
  162MOL0     H21808  10.578   6.882   6.120  4.2437 -0.1498 -1.0097
  162MOL0     H21809  10.424   7.034   6.164 -0.4269  0.7930 -0.2471
  162MOL0     H21810  10.496   7.134   6.047 -1.8974  1.2744  2.4554
  162MOL0     H21811  10.283   7.157   5.993 -0.0830 -0.6864  1.4481
  162MOL0     H21812  10.344   7.052   5.861  0.1489 -2.3588 -0.5133
  162MOL0     H21813  10.265   6.861   6.019 -0.5373 -0.0676  0.8582
  162MOL0     H21814  10.168   6.987   6.088  5.3152  0.1742  2.0739
  162MOL0     H21815  10.046   6.841   5.914  1.7933 -1.3190 -0.2188
  162MOL0     H21816  10.054   7.017   5.865  0.1822  1.0339  1.1852
  162MOL0     H21817  10.211   6.984   5.707 -0.1423  0.9514  1.1789
  162MOL0     H21818  10.268   6.825   5.761 -0.1214  1.9528 -0.9006
  162MOL0     H21819  10.139   6.790   5.557 -1.4656 -1.6240 -0.9183
  162MOL0     H21820   9.999   6.868   5.636 -1.1948 -1.1832 -2.1620
  162MOL0     H21821  10.187   6.585   5.816  0.4450 -1.8736  0.5969
  162MOL0     H21822   9.976   6.270   5.828 -1.2704  1.4070 -0.0905
  162MOL0     H21823  10.077   6.264   5.675  2.9497  0.2042  0.0912
  162MOL0     H21824  10.168   6.364   5.949  0.0771 -1.3135 -0.1414
  162MOL0     H21825  10.276   6.313   5.799  1.1194 -0.7700  0.9214
  162MOL0     H21826  10.149   6.147   6.007  0.8892 -1.8739  0.4982
  162MOL0     H21827  10.314   6.157   5.932 -0.2790  0.9688 -0.7193
  162MOL0     H21828  10.243   6.070   5.720 -1.0130  0.3053 -0.5332
  162MOL0     H21829  10.075   6.032   5.794  0.1816 -2.0357 -0.5872
  162MOL0     H21830  10.224   5.887   5.597 -1.9024  0.6781  1.6737
  162MOL0     H21831  10.149   5.608   5.423 -0.8659  0.9435  0.5602
  162MOL0     H21832  10.192   5.773   5.411  1.3935  1.2959  0.1347
  162MOL0     H21833  10.324   5.649   5.395  1.1179  3.8314  1.2438
  162MOL0     H21834  10.132   5.182   5.549 -0.0111  0.7442  0.4234
  162MOL0     H21835  10.091   4.952   5.549  0.7696 -1.1471 -0.3587
  162MOL0     H21836  10.169   4.624   5.594 -0.5186  0.8301  1.7309
  162MOL0     H21837  10.231   4.750   5.480  0.0449 -1.2207 -0.6987
  162MOL0     H21838  10.426   4.580   5.649 -0.1319 -2.7909 -0.2956
  162MOL0     H21839  10.369   4.521   5.498 -1.7840 -0.4809  1.9805
  162MOL0     H21840  10.460   4.810   5.486  1.8655  0.4899  1.7582
  162MOL0     H21841  10.456   4.663   5.368 -1.3843  0.9586 -0.6065
  162MOL0     H21842  10.685   4.768   5.454  2.0682 -1.8987 -0.1120
  162MOL0     H21843  10.647   4.690   5.607  1.7160 -0.7269  0.4208
  162MOL0     H21844  10.644   4.531   5.345  1.0762  2.0358 -0.2959
  162MOL0     H21845  10.609   4.478   5.507 -1.5033  1.3161  0.0034
  162MOL0     H21846  10.821   4.568   5.580 -4.1491 -1.5811  1.1205
  162MOL0     H21847  10.843   4.419   5.482 -0.7123 -0.4460  0.3236
  162MOL0     H21848  10.909   4.698   5.407 -2.2945 -0.2367  1.4914
  162MOL0     H21849  10.870   4.582   5.271 -0.3301 -3.7893 -0.0926
  162MOL0     H21850  11.101   4.600   5.292  0.4959  0.0753  0.1964
  162MOL0     H21851  11.047   4.439   5.329  1.2377  1.0179 -1.8008
  162MOL0     H21852  10.449   4.893   5.769 -0.9288 -0.9849  0.6076
  162MOL0     H21853  10.492   5.143   5.779 -2.0273 -0.3552  1.1475
  162MOL0     H21854  10.317   5.490   5.867 -4.1585 -1.5637  0.1802
  162MOL0     H21855  10.308   5.710   5.972 -1.9705  1.0800 -0.0631
  162MOL0     H21856  10.856   6.663   5.821  0.3120 -1.0102 -2.1353
  162MOL0     H21857  11.093   6.671   5.713  0.9831  0.2651  1.3579
  162MOL0     H21858  11.404   6.763   5.645 -0.5750  1.0184 -0.9930
  162MOL0     H21859  11.616   6.672   5.576  0.9894  0.4674  1.5206
  162MOL0     H21860  11.867   6.914   5.297  2.2642 -1.0762 -1.2057
  162MOL0     H21861  11.929   6.983   5.451  1.0644  1.6847 -1.8787
  162MOL0     H21862  12.006   6.714   5.317  2.5053 -1.1380  0.1072
  162MOL0     H21863  12.087   6.779   5.447  1.1930 -1.8547 -1.7273
  162MOL0     H21864  12.189   6.958   5.327  0.4967 -2.9123  1.8649
  162MOL0     H21865  12.094   6.920   5.180  0.0143  0.8873 -0.7046
  162MOL0     H21866  12.218   6.691   5.166 -1.0233  0.8801 -0.6292
  162MOL0     H21867  12.305   6.736   5.316 -1.2524 -0.7426 -0.7775
  162MOL0     H21868  12.552   6.903   5.030 -0.1711 -3.2543 -2.1589
  162MOL0     H21869  11.705   7.039   5.377 -1.2617 -1.6279 -1.0513
  162MOL0     H21870  11.476   7.131   5.448 -2.4085 -0.6414 -0.3494
  163MOL0     O21871  10.637   1.890   8.429 -0.2269 -0.5593 -0.0864
  163MOL0     C21872  10.606   2.002   8.389  0.3500  0.0920 -1.0998
  163MOL0     O21873  10.614   2.033   8.257 -0.4108  0.1479  0.3603
  163MOL0     C21874  10.640   1.929   8.168 -0.0596 -0.8459 -0.5636
  163MOL0     C21875  10.533   1.874   8.106  0.1411 -0.0346 -0.3295
  163MOL0     C21876  10.553   1.788   8.000 -0.4606  1.4419 -0.6887
  163MOL0     C21877  10.686   1.762   7.942  0.3129  0.2113 -0.6453
  163MOL0     O21878  10.714   1.687   7.833  0.0328  0.2977  0.0889
  163MOL0     C21879  10.613   1.605   7.779 -0.0094 -0.3056 -0.3050
  163MOL0     C21880  10.681   1.533   7.659 -0.3407 -0.2698 -0.1305
  163MOL0     C21881  10.582   1.492   7.559  0.0261  0.2528  0.0939
  163MOL0     C21882  10.577   1.584   7.442  0.0070 -0.6361 -0.6401
  163MOL0     C21883  10.458   1.548   7.357  0.6965 -0.3723 -0.5712
  163MOL0     C21884  10.322   1.528   7.426  0.1938 -0.7993 -0.1233
  163MOL0     C21885  10.283   1.659   7.495  0.4457  0.2764  0.2266
  163MOL0     C21886  10.158   1.627   7.578  0.0440 -0.7816 -0.5188
  163MOL0     N21887  10.149   1.733   7.677 -0.1391  0.0664  0.1115
  163MOL0     C21888  10.030   1.801   7.708  0.3079 -0.6829 -0.2736
  163MOL0     C21889  10.036   1.821   7.840  0.0460 -0.2585  0.5436
  163MOL0     C21890   9.923   1.907   7.912 -0.6367 -0.1036  0.8849
  163MOL0     C21891   9.886   2.040   7.845 -0.3741 -0.2846 -0.2814
  163MOL0     C21892   9.809   2.136   7.930  0.4520 -0.7500 -0.1603
  163MOL0     C21893   9.658   2.117   7.925  1.0736  0.1386  0.0492
  163MOL0     O21894   9.594   2.199   8.030  0.3207  0.0698 -0.5388
  163MOL0     C21895   9.455   2.184   8.030  0.2076  0.3987 -0.2703
  163MOL0     C21896   9.370   2.256   7.939  0.2451 -0.1149 -0.2179
  163MOL0     C21897   9.230   2.247   7.939 -0.5303  0.0544  0.3762
  163MOL0     C21898   9.149   2.330   7.843  0.1086 -0.1766 -0.3950
  163MOL0     C21899   9.174   2.158   8.038  0.1220  1.3066 -0.7634
  163MOL0     C21900   9.030   2.108   8.033 -0.9288 -0.0139 -0.4348
  163MOL0     O21901   8.981   2.083   8.164  0.1400  0.4913 -0.1975
  163MOL0     C21902   8.850   2.057   8.198 -0.6463 -1.0027 -0.5588
  163MOL0     C21903   8.734   2.081   8.122 -0.0117  1.9740  0.7773
  163MOL0     C21904   8.603   2.054   8.161  0.0460  0.7601 -1.6968
  163MOL0     C21905   8.591   2.012   8.300  0.5373  0.6199  0.2191
  163MOL0     O21906   8.459   1.998   8.348 -0.3250  1.0741  0.1359
  163MOL0     C21907   8.447   1.960   8.484  0.2144  0.0805 -0.3651
  163MOL0     C21908   8.305   1.931   8.536 -0.0658  0.9620  0.9898
  163MOL0     C21909   8.229   1.821   8.458 -0.2139  0.0942  0.2433
  163MOL0     C21910   8.100   1.772   8.534  0.3274  0.4978  0.4670
  163MOL0     C21911   8.005   1.692   8.449 -0.5725  1.2997  0.4703
  163MOL0     C21912   7.923   1.773   8.344 -0.0280 -0.2054 -0.0303
  163MOL0     C21913   7.821   1.682   8.265 -0.1561 -0.1260  0.0341
  163MOL0     C21914   7.705   1.755   8.200 -0.1164 -0.4117  0.7930
  163MOL0    Cl21915   7.553   1.652   8.192  0.1000 -0.7499  0.0856
  163MOL0     C21916   8.707   1.993   8.381 -0.3767  0.0879  0.4413
  163MOL0     C21917   8.826   2.021   8.333 -0.7805 -0.4032 -0.4912
  163MOL0     O21918   8.964   2.101   7.929  0.7429 -0.0565  0.0848
  163MOL0     C21919   9.251   2.080   8.126  0.1524 -0.5204  0.1927
  163MOL0     C21920   9.392   2.101   8.123 -0.6034  0.1156 -0.3299
  163MOL0     N21921  10.159   1.773   7.895 -0.2537 -0.8860 -0.1790
  163MOL0     N21922  10.222   1.721   7.796 -0.1987  0.6837 -0.2534
  163MOL0     C21923  10.793   1.822   7.998 -0.4658  0.1199 -0.2017
  163MOL0     C21924  10.773   1.901   8.119 -0.3941  0.4087 -0.0136
  163MOL0     C21925  10.595   2.115   8.483  0.3329  0.2234 -0.0498
  163MOL0     C21926  10.598   2.242   8.429 -0.1999  0.3533 -0.2886
  163MOL0     C21927  10.566   2.348   8.508 -0.4784  0.5465 -1.4376
  163MOL0     C21928  10.536   2.328   8.648  0.1892 -0.1221 -0.5885
  163MOL0     O21929  10.496   2.423   8.733 -0.3701  0.6006  0.0058
  163MOL0     C21930  10.444   2.539   8.687 -0.6706 -0.1080 -0.0653
  163MOL0     C21931  10.412   2.632   8.792  1.1821  0.7464 -0.0882
  163MOL0     C21932  10.313   2.746   8.735  0.0156 -0.1452 -0.0474
  163MOL0     C21933  10.382   2.883   8.723 -0.8421 -0.5851 -0.6779
  163MOL0     C21934  10.472   2.893   8.607 -0.0493 -0.2789  0.0135
  163MOL0     C21935  10.560   2.918   8.520  0.7440 -0.2573 -1.2451
  163MOL0     C21936  10.538   2.200   8.704  0.0289  0.2018  0.5995
  163MOL0     C21937  10.557   2.091   8.619  0.2227  0.5128  0.0031
  163MOL0     H21938  10.436   1.905   8.143  0.9404 -0.3228  2.1846
  163MOL0     H21939  10.468   1.741   7.952  1.1891  0.8386 -3.1921
  163MOL0     H21940  10.580   1.544   7.864 -1.4962  1.2586  0.2933
  163MOL0     H21941  10.531   1.674   7.760 -0.2902 -0.6012 -0.1761
  163MOL0     H21942  10.762   1.590   7.613  1.2038 -2.0958  0.2278
  163MOL0     H21943  10.735   1.455   7.713 -0.0243  2.0289  3.1752
  163MOL0     H21944  10.606   1.391   7.524 -2.1014  0.9159 -3.7465
  163MOL0     H21945  10.489   1.489   7.617  1.5673  1.6998  2.8311
  163MOL0     H21946  10.570   1.686   7.481 -1.4361 -1.9385  2.8514
  163MOL0     H21947  10.670   1.572   7.384  1.4978  0.3464  1.4118
  163MOL0     H21948  10.441   1.623   7.279  0.1422 -1.5109 -1.5751
  163MOL0     H21949  10.482   1.456   7.303 -0.2316 -1.8941  1.4383
  163MOL0     H21950  10.251   1.506   7.346  0.2188 -2.0185  0.1629
  163MOL0     H21951  10.313   1.448   7.500 -2.4863  0.3964  0.9621
  163MOL0     H21952  10.364   1.704   7.554  0.2669  3.0169 -1.4526
  163MOL0     H21953  10.258   1.725   7.412  1.1198 -1.2938 -1.2911
  163MOL0     H21954  10.151   1.530   7.627 -0.4866 -1.8294 -2.5693
  163MOL0     H21955  10.070   1.632   7.513 -1.4777  0.6495  1.5152
  163MOL0     H21956   9.946   1.833   7.647  0.4700 -1.5915 -1.0069
  163MOL0     H21957   9.834   1.843   7.916  0.3037 -1.3755  2.6821
  163MOL0     H21958   9.950   1.917   8.017  0.6194 -1.1477  0.6770
  163MOL0     H21959   9.831   2.020   7.753  0.1090 -1.7241 -0.2837
  163MOL0     H21960   9.977   2.095   7.819  0.3537 -1.1558  0.3482
  163MOL0     H21961   9.838   2.236   7.898 -1.4133 -0.1741 -0.1264
  163MOL0     H21962   9.846   2.128   8.033  1.2481  1.7715 -0.1875
  163MOL0     H21963   9.632   2.012   7.944 -0.5560 -0.2644 -3.5740
  163MOL0     H21964   9.605   2.137   7.832 -0.5687 -0.8222  0.7311
  163MOL0     H21965   9.412   2.322   7.864  0.3417  1.6694  1.3052
  163MOL0     H21966   9.211   2.415   7.812 -1.3031  0.4062 -1.7820
  163MOL0     H21967   9.120   2.277   7.753  0.2620 -1.2305  0.1618
  163MOL0     H21968   9.065   2.359   7.908  0.1481 -0.8341 -0.0416
  163MOL0     H21969   8.736   2.123   8.022  2.0815 -0.7465 -0.4502
  163MOL0     H21970   8.528   2.082   8.089 -1.0166  0.9595 -0.5497
  163MOL0     H21971   8.514   1.878   8.511 -1.7790 -2.1264 -1.6983
  163MOL0     H21972   8.484   2.049   8.536 -1.7951 -1.5909  4.4608
  163MOL0     H21973   8.328   1.890   8.634 -0.3563  1.8802  1.4511
  163MOL0     H21974   8.256   2.029   8.535  0.1911  1.1258 -0.9571
  163MOL0     H21975   8.295   1.736   8.435  3.3575  3.2363 -2.5503
  163MOL0     H21976   8.193   1.851   8.359 -2.3211 -1.5243  0.4545
  163MOL0     H21977   8.113   1.715   8.626 -0.9610 -1.9828 -0.7958
  163MOL0     H21978   8.047   1.859   8.575  1.2606  1.5670 -0.5294
  163MOL0     H21979   7.926   1.651   8.513 -2.5455 -0.5953 -2.8682
  163MOL0     H21980   8.053   1.600   8.414 -2.2038 -0.8054  3.3184
  163MOL0     H21981   7.865   1.854   8.388  0.1507 -2.3027  4.6040
  163MOL0     H21982   7.992   1.810   8.268  0.0000 -1.3464 -0.5909
  163MOL0     H21983   7.770   1.606   8.324 -1.9934 -0.9680 -2.4614
  163MOL0     H21984   7.864   1.623   8.183 -2.6965 -0.8236 -0.8933
  163MOL0     H21985   7.740   1.773   8.098 -0.7078 -0.1102  0.6355
  163MOL0     H21986   7.691   1.853   8.246  3.9655  1.4567 -1.4345
  163MOL0     H21987   8.695   1.966   8.485 -2.1151  1.3719  0.6302
  163MOL0     H21988   8.912   2.008   8.398 -2.0022  3.2110  2.1607
  163MOL0     H21989   9.222   2.009   8.202  2.5619  1.1756  2.9008
  163MOL0     H21990   9.445   2.051   8.203  0.4106  2.1532  0.3565
  163MOL0     H21991  10.893   1.811   7.955 -1.2534 -1.1745 -1.7952
  163MOL0     H21992  10.860   1.963   8.139 -0.1705  0.7272 -1.8025
  163MOL0     H21993  10.627   2.267   8.327  0.8906 -2.2833 -0.6901
  163MOL0     H21994  10.562   2.451   8.472 -5.1867  1.3367  0.5681
  163MOL0     H21995  10.519   2.595   8.630 -0.0604 -0.7753  0.0799
  163MOL0     H21996  10.358   2.517   8.622 -1.4372 -0.4443  1.0297
  163MOL0     H21997  10.494   2.683   8.843  0.6653  1.0707  0.4367
  163MOL0     H21998  10.356   2.570   8.863  0.0821  1.3754 -0.3862
  163MOL0     H21999  10.230   2.768   8.803 -0.9915  0.0071 -1.2885
  163MOL0     H22000  10.268   2.713   8.641 -1.1404  0.1328  0.3848
  163MOL0     H22001  10.443   2.909   8.810 -0.4538 -0.7371 -0.9015
  163MOL0     H22002  10.308   2.963   8.712  0.0808  0.4833  0.6456
  163MOL0     H22003  10.636   2.945   8.449  0.8094  2.6857 -0.1902
  163MOL0     H22004  10.497   2.185   8.803 -2.1077  1.8315  0.0415
  163MOL0     H22005  10.553   1.992   8.663 -1.0306  0.1057 -0.9567
  164MOL0     O22006   7.110   0.034   7.245  0.1665  0.8007  0.3674
  164MOL0     C22007   7.088  -0.037   7.343  0.2387 -0.4287  0.0868
  164MOL0     O22008   7.174  -0.129   7.407  0.2253 -0.0082 -0.3387
  164MOL0     C22009   7.295  -0.160   7.350  0.3007 -0.0481 -0.3177
  164MOL0     C22010   7.397  -0.182   7.445 -0.2013  0.3343  0.0642
  164MOL0     C22011   7.527  -0.225   7.392 -1.0250 -0.1947 -0.4348
  164MOL0     C22012   7.552  -0.236   7.252  0.0809 -0.0277  0.5706
  164MOL0     O22013   7.679  -0.279   7.214  0.0028 -0.1990  0.0271
  164MOL0     C22014   7.701  -0.354   7.091  0.0889  0.3183 -0.6891
  164MOL0     C22015   7.849  -0.380   7.107  0.6296 -0.9776  0.6541
  164MOL0     C22016   7.896  -0.473   6.993 -0.4621  0.5211  0.0350
  164MOL0     C22017   8.043  -0.504   7.018 -0.0572  0.1477 -0.1212
  164MOL0     C22018   8.090  -0.617   6.933 -0.2255  0.0745 -0.0541
  164MOL0     C22019   8.235  -0.661   6.979 -0.0687 -0.2600 -0.0704
  164MOL0     C22020   8.289  -0.721   6.849  0.9881  0.5819 -0.8743
  164MOL0     C22021   8.419  -0.811   6.867 -1.0525 -0.9904  0.6204
  164MOL0     N22022   8.533  -0.734   6.933  0.1743  0.1643  0.7896
  164MOL0     C22023   8.567  -0.757   7.061 -0.0801  0.5403  0.7520
  164MOL0     C22024   8.657  -0.659   7.097  0.1855 -0.3636  0.0488
  164MOL0     C22025   8.730  -0.663   7.235  0.3725 -0.4698  0.0572
  164MOL0     C22026   8.712  -0.801   7.316 -0.3109 -0.1583  0.3030
  164MOL0     C22027   8.819  -0.813   7.425 -0.0740 -0.1324 -0.8829
  164MOL0     C22028   8.802  -0.942   7.506  0.3322  0.3560 -0.2603
  164MOL0     O22029   8.696  -0.924   7.612  0.2908 -0.4862  0.0105
  164MOL0     C22030   8.641  -1.038   7.671 -0.4624 -0.4470 -0.2041
  164MOL0     C22031   8.672  -1.172   7.644  0.3268 -0.2886 -0.0547
  164MOL0     C22032   8.603  -1.285   7.693 -0.6785 -0.2198  0.2594
  164MOL0     C22033   8.672  -1.418   7.645  0.4392  0.6165 -0.8782
  164MOL0     C22034   8.498  -1.258   7.784 -0.5366 -0.4375  0.0299
  164MOL0     C22035   8.423  -1.362   7.857 -0.1559 -0.0574  0.4241
  164MOL0     O22036   8.345  -1.321   7.962 -0.8161  0.2716  0.7626
  164MOL0     C22037   8.264  -1.414   8.016  0.3512 -0.1580 -0.0960
  164MOL0     C22038   8.263  -1.432   8.150  0.9077 -0.6728 -0.1711
  164MOL0     C22039   8.170  -1.512   8.214  0.0912 -0.1622  0.2914
  164MOL0     C22040   8.079  -1.592   8.137 -0.0865 -0.7473  0.3909
  164MOL0     O22041   7.981  -1.674   8.189 -0.3320  0.0608  0.1326
  164MOL0     C22042   8.014  -1.749   8.310  1.1841 -0.2763  0.2000
  164MOL0     C22043   7.973  -1.893   8.273  0.2998 -0.3626  0.2181
  164MOL0     C22044   8.061  -1.953   8.161 -0.7288 -0.8494  0.5986
  164MOL0     C22045   8.051  -2.110   8.157  0.1310 -0.2887  0.0183
  164MOL0     C22046   8.091  -2.198   8.043  0.5047 -0.1911  0.0252
  164MOL0     C22047   8.245  -2.211   8.019 -0.6362  1.0686 -0.7578
  164MOL0     C22048   8.274  -2.268   7.883 -0.9358 -0.2395  0.3268
  164MOL0     C22049   8.273  -2.420   7.884  0.0045  0.0473 -0.0566
  164MOL0    Cl22050   8.382  -2.501   7.996 -0.0020 -0.0074  0.1355
  164MOL0     C22051   8.086  -1.580   8.001 -0.0582  0.6016  0.0248
  164MOL0     C22052   8.177  -1.494   7.935  0.8496  0.3903  0.2013
  164MOL0     O22053   8.464  -1.480   7.840 -0.5784 -0.2587 -0.3063
  164MOL0     C22054   8.470  -1.118   7.809 -0.0006 -0.7214  0.1593
  164MOL0     C22055   8.543  -1.013   7.766 -0.5791 -0.8162 -0.0351
  164MOL0     N22056   8.656  -0.570   6.991 -0.0533 -0.0384 -0.3817
  164MOL0     N22057   8.590  -0.613   6.899 -0.3536  0.4132 -0.1740
  164MOL0     C22058   7.450  -0.204   7.164  0.2808  0.2873 -0.6492
  164MOL0     C22059   7.323  -0.169   7.214 -1.1444 -0.6826 -0.1326
  164MOL0     C22060   6.959  -0.001   7.409 -0.3994  0.1720 -0.0543
  164MOL0     C22061   6.942  -0.030   7.551  0.0437 -0.1959 -0.2973
  164MOL0     C22062   6.820  -0.009   7.607  0.2596  0.1856 -0.6845
  164MOL0     C22063   6.719   0.058   7.549  1.6523  0.2246  0.1342
  164MOL0     O22064   6.596   0.064   7.610 -0.2765  0.3633 -0.0429
  164MOL0     C22065   6.485   0.121   7.535  0.5024  0.0249  0.0273
  164MOL0     C22066   6.368   0.113   7.620 -0.5966  0.4077 -0.8329
  164MOL0     C22067   6.247   0.161   7.541 -0.1179 -0.5738 -0.3573
  164MOL0     C22068   6.117   0.138   7.627  0.4176 -0.2513  0.7649
  164MOL0     C22069   6.110   0.218   7.753  0.0320 -0.0004 -0.1589
  164MOL0     C22070   6.106   0.265   7.871  0.4844 -0.1460  0.6101
  164MOL0     C22071   6.739   0.107   7.417  0.2972 -0.0386 -0.6917
  164MOL0     C22072   6.858   0.076   7.351 -0.2971  0.1553  1.1414
  164MOL0     H22073   7.387  -0.165   7.552 -0.8858 -1.3754  0.3104
  164MOL0     H22074   7.617  -0.238   7.451 -2.2935 -0.8709  1.4601
  164MOL0     H22075   7.641  -0.446   7.091 -0.0531  0.3977  0.3833
  164MOL0     H22076   7.681  -0.292   7.003  1.0998  3.7894  1.3254
  164MOL0     H22077   7.913  -0.291   7.104  0.0068 -0.3859  2.6540
  164MOL0     H22078   7.875  -0.418   7.207  2.1627 -0.3861  0.5064
  164MOL0     H22079   7.839  -0.566   6.990 -0.6646  0.6747 -1.4050
  164MOL0     H22080   7.878  -0.418   6.901 -3.6321 -0.1348  0.1521
  164MOL0     H22081   8.107  -0.421   6.987  1.6639 -1.3720 -0.8303
  164MOL0     H22082   8.058  -0.514   7.126 -1.5778  2.4663  0.3762
  164MOL0     H22083   8.020  -0.701   6.940  0.7879 -0.7277  1.2125
  164MOL0     H22084   8.091  -0.588   6.828  1.0518  1.5972  0.3406
  164MOL0     H22085   8.307  -0.582   7.004  2.6741 -2.5732 -0.1667
  164MOL0     H22086   8.231  -0.732   7.062  0.0002  1.4352  1.4489
  164MOL0     H22087   8.215  -0.786   6.803 -0.6459  0.4117  1.7701
  164MOL0     H22088   8.311  -0.635   6.786 -0.4657  0.5873 -1.4132
  164MOL0     H22089   8.457  -0.836   6.767 -1.3992  2.7515 -0.6203
  164MOL0     H22090   8.392  -0.908   6.909 -2.4920 -1.4496 -1.2439
  164MOL0     H22091   8.543  -0.842   7.125  1.5123  0.7189  1.6447
  164MOL0     H22092   8.835  -0.635   7.220 -0.0005  2.3299  1.9047
  164MOL0     H22093   8.694  -0.586   7.303  3.1057 -1.5467  3.0351
  164MOL0     H22094   8.729  -0.888   7.251  0.3041  1.1926 -1.4170
  164MOL0     H22095   8.609  -0.810   7.350 -0.3232 -1.3085 -0.0003
  164MOL0     H22096   8.824  -0.729   7.494 -2.9123  0.5045 -1.3642
  164MOL0     H22097   8.918  -0.817   7.377  0.6390 -4.0462  0.4891
  164MOL0     H22098   8.889  -0.981   7.559 -1.3189 -0.8939  1.6600
  164MOL0     H22099   8.766  -1.018   7.436  1.5439 -1.9785  1.5348
  164MOL0     H22100   8.746  -1.191   7.567  0.2316 -3.2368  0.4837
  164MOL0     H22101   8.699  -1.412   7.539  2.7128 -0.2307 -0.4084
  164MOL0     H22102   8.755  -1.444   7.711 -0.8440 -1.2024  0.1134
  164MOL0     H22103   8.604  -1.504   7.643  0.3076  0.5747  1.6946
  164MOL0     H22104   8.319  -1.355   8.201 -1.8060  1.2318  0.1415
  164MOL0     H22105   8.144  -1.512   8.320  0.3845 -1.0219  0.3776
  164MOL0     H22106   8.118  -1.733   8.341  1.7141  3.3151 -2.6714
  164MOL0     H22107   7.940  -1.716   8.383  2.2354  0.2645  1.0590
  164MOL0     H22108   7.970  -1.956   8.363 -0.7821 -2.3978 -1.1711
  164MOL0     H22109   7.869  -1.890   8.240  0.5392 -2.3761 -0.8897
  164MOL0     H22110   8.167  -1.931   8.175 -0.3928 -0.2318 -2.4103
  164MOL0     H22111   8.016  -1.916   8.069 -2.6865 -4.0088  0.1120
  164MOL0     H22112   8.121  -2.141   8.235 -0.4880 -1.5247  0.1130
  164MOL0     H22113   7.948  -2.132   8.186 -0.6370  1.4813 -1.1864
  164MOL0     H22114   8.047  -2.154   7.954 -1.2246  0.6901  1.2572
  164MOL0     H22115   8.042  -2.295   8.046 -2.8700  1.3280 -0.8249
  164MOL0     H22116   8.308  -2.124   8.042 -0.3172  0.9727 -1.2593
  164MOL0     H22117   8.272  -2.283   8.097 -1.6404 -0.4131 -1.7393
  164MOL0     H22118   8.370  -2.228   7.849 -1.4940  1.4772  0.6742
  164MOL0     H22119   8.191  -2.237   7.819 -1.8897  1.9052  2.4477
  164MOL0     H22120   8.299  -2.472   7.792  1.5265 -0.1882  0.4748
  164MOL0     H22121   8.171  -2.452   7.906 -0.2924  0.2375 -1.1063
  164MOL0     H22122   8.036  -1.661   7.949  0.8569 -0.1425  0.2803
  164MOL0     H22123   8.175  -1.482   7.827 -1.8736  4.2555  0.4810
  164MOL0     H22124   8.377  -1.096   7.862 -1.5666 -0.5963 -2.4582
  164MOL0     H22125   8.528  -0.914   7.806  1.1369 -0.0607 -1.1358
  164MOL0     H22126   7.457  -0.212   7.056 -1.5164  1.3931 -0.8829
  164MOL0     H22127   7.239  -0.154   7.148 -1.1549  2.3878  0.4460
  164MOL0     H22128   7.023  -0.078   7.604 -0.4076 -0.6780 -0.0398
  164MOL0     H22129   6.802  -0.041   7.709  2.6195 -2.0028 -0.8496
  164MOL0     H22130   6.515   0.223   7.509  1.4905 -0.3495 -0.3731
  164MOL0     H22131   6.466   0.065   7.443 -3.3384  0.2825  0.5212
  164MOL0     H22132   6.374   0.176   7.710 -0.8170 -0.2779 -0.3300
  164MOL0     H22133   6.350   0.012   7.656  0.6903  0.5777  0.3840
  164MOL0     H22134   6.254   0.104   7.448  1.3914 -3.2410  1.2673
  164MOL0     H22135   6.263   0.268   7.525  0.1638 -0.8544 -2.1541
  164MOL0     H22136   6.118   0.034   7.659 -0.6093 -0.2599  0.7865
  164MOL0     H22137   6.021   0.154   7.576  0.9699 -0.2518 -0.3101
  164MOL0     H22138   6.110   0.307   7.969  0.2588 -0.9896  0.9846
  164MOL0     H22139   6.660   0.172   7.380 -1.1468 -0.0847  2.0226
  164MOL0     H22140   6.881   0.121   7.255 -0.7769 -0.0410  0.9331
  165MOL0     O22141   9.539   7.889   0.016 -0.5664  0.7590  0.6689
  165MOL0     C22142   9.603   7.788   0.002  0.0428  0.9922  0.0871
  165MOL0     O22143   9.659   7.753  -0.112 -0.3094 -0.7142 -0.1861
  165MOL0     C22144   9.647   7.843  -0.214 -0.7061 -0.0671  0.4619
  165MOL0     C22145   9.540   7.844  -0.308  0.3346 -0.3509 -0.9113
  165MOL0     C22146   9.550   7.915  -0.428 -0.7324  0.4632 -0.6292
  165MOL0     C22147   9.663   7.991  -0.456 -1.2428  0.0618  0.2493
  165MOL0     O22148   9.669   8.072  -0.572 -0.2324 -0.4343 -0.0632
  165MOL0     C22149   9.793   8.117  -0.634 -0.7401  1.1314 -0.9340
  165MOL0     C22150   9.881   7.997  -0.692  1.1194 -0.3952 -0.7369
  165MOL0     C22151  10.031   8.033  -0.706 -0.1338  0.0684 -0.4210
  165MOL0     C22152  10.055   8.150  -0.794  0.0144 -0.0412  0.3171
  165MOL0     C22153  10.206   8.193  -0.775 -0.2319 -0.2129  0.5281
  165MOL0     C22154  10.218   8.339  -0.826  0.0474  0.7436 -0.1642
  165MOL0     C22155  10.366   8.389  -0.841  0.6652  0.0652  0.1913
  165MOL0     C22156  10.391   8.513  -0.934  0.6845  0.3480  0.0270
  165MOL0     N22157  10.536   8.534  -0.960  0.6746  0.0548  0.1239
  165MOL0     C22158  10.601   8.452  -1.057 -0.6329 -0.2792 -0.1630
  165MOL0     C22159  10.719   8.513  -1.058  0.5103  1.2123  0.4253
  165MOL0     C22160  10.842   8.444  -1.127 -0.1350 -0.4754  0.0113
  165MOL0     C22161  10.900   8.334  -1.036  0.3877  0.1046 -0.3999
  165MOL0     C22162  10.994   8.405  -0.932 -0.2474 -0.0372  0.3276
  165MOL0     C22163  11.116   8.479  -0.986  0.3612  0.6607  0.2863
  165MOL0     O22164  11.215   8.471  -0.884 -0.2364 -0.5298  0.3710
  165MOL0     C22165  11.233   8.587  -0.805 -0.4524 -0.4932 -0.1492
  165MOL0     C22166  11.126   8.660  -0.756 -0.2132 -0.7486  1.0569
  165MOL0     C22167  11.143   8.758  -0.663 -0.2174 -0.7801  0.3063
  165MOL0     C22168  11.014   8.814  -0.604 -0.9532 -0.4973 -0.0935
  165MOL0     C22169  11.270   8.799  -0.617 -0.1888  0.4241  0.0248
  165MOL0     C22170  11.298   8.917  -0.527 -0.4871 -0.3248  0.7035
  165MOL0     O22171  11.436   8.935  -0.504  0.1304 -0.0313  0.1654
  165MOL0     C22172  11.487   9.019  -0.410  0.4809  0.7918  0.3367
  165MOL0     C22173  11.425   9.037  -0.285  0.3803  1.4257 -0.1529
  165MOL0     C22174  11.467   9.137  -0.191  1.9866  0.7527  0.4554
  165MOL0     C22175  11.584   9.216  -0.216 -0.2595 -0.0726 -0.3690
  165MOL0     O22176  11.629   9.322  -0.139 -0.0942  0.2300 -0.6061
  165MOL0     C22177  11.541   9.349  -0.023 -0.6246  0.6697  0.8531
  165MOL0     C22178  11.569   9.477   0.056  0.1105 -0.4876 -0.1969
  165MOL0     C22179  11.538   9.604  -0.033  0.6448 -0.5187  0.8431
  165MOL0     C22180  11.528   9.716   0.056  0.1511 -0.6126  0.4081
  165MOL0     C22181  11.494   9.843  -0.022 -0.0340  0.4522  0.4489
  165MOL0     C22182  11.464   9.961   0.070 -0.2036  0.3732 -0.6135
  165MOL0     C22183  11.592   9.982   0.167 -0.5672  0.3830 -0.9116
  165MOL0     C22184  11.574  10.117   0.244  0.0838  0.0464  0.2657
  165MOL0    Cl22185  11.727  10.181   0.312 -0.1030 -0.0553 -0.0613
  165MOL0     C22186  11.655   9.191  -0.332  0.1483  0.0583 -0.2699
  165MOL0     C22187  11.608   9.089  -0.424 -0.1494  0.6342 -0.0348
  165MOL0     O22188  11.205   8.993  -0.498 -0.0136  0.3878  0.5806
  165MOL0     C22189  11.382   8.736  -0.681 -0.9183  0.4704  0.6433
  165MOL0     C22190  11.363   8.626  -0.771 -0.0392  0.4620 -0.0263
  165MOL0     N22191  10.721   8.621  -0.975  0.8243  0.0938  0.1790
  165MOL0     N22192  10.612   8.646  -0.921  0.7463  0.3529  0.5093
  165MOL0     C22193   9.764   7.993  -0.369 -0.2540 -0.9690 -0.2808
  165MOL0     C22194   9.760   7.924  -0.246  0.3855  0.7613 -0.2247
  165MOL0     C22195   9.596   7.675   0.099  0.6367  1.2145 -0.7455
  165MOL0     C22196   9.583   7.694   0.242 -0.0116 -0.2662  0.6060
  165MOL0     C22197   9.569   7.583   0.328 -0.0629 -0.6462 -0.6598
  165MOL0     C22198   9.577   7.446   0.281  1.1709 -0.5613 -0.3826
  165MOL0     O22199   9.561   7.332   0.351 -0.2510 -0.2819 -1.1679
  165MOL0     C22200   9.554   7.344   0.496  0.2854  0.5438  0.2401
  165MOL0     C22201   9.545   7.203   0.556 -0.2521 -0.6521  0.5256
  165MOL0     C22202   9.403   7.146   0.533 -0.5741 -0.2138 -0.2729
  165MOL0     C22203   9.379   6.997   0.594  0.6575 -0.0800  0.0011
  165MOL0     C22204   9.246   6.932   0.563  0.0312  0.3325 -0.5915
  165MOL0     C22205   9.140   6.870   0.542  1.0066  0.2009 -0.1606
  165MOL0     C22206   9.592   7.432   0.140 -0.4878  0.0299  0.2389
  165MOL0     C22207   9.597   7.543   0.050 -0.6235  0.3166  0.0111
  165MOL0     H22208   9.452   7.783  -0.289 -1.1580  1.0575 -2.8232
  165MOL0     H22209   9.468   7.928  -0.498 -0.9281 -2.0055 -0.9190
  165MOL0     H22210   9.766   8.192  -0.709 -1.1926  0.8093 -1.0938
  165MOL0     H22211   9.844   8.179  -0.560  0.4286  2.1712 -2.5263
  165MOL0     H22212   9.863   7.915  -0.622 -2.3076  0.5302 -0.3515
  165MOL0     H22213   9.840   7.966  -0.788 -0.5937 -2.1925  0.4987
  165MOL0     H22214  10.060   8.047  -0.602  0.0881  0.3821 -0.5243
  165MOL0     H22215  10.087   7.948  -0.746 -0.4051 -0.5826  0.5382
  165MOL0     H22216  10.037   8.117  -0.897 -1.7982  1.5315  0.0838
  165MOL0     H22217  10.000   8.243  -0.778  0.4284 -0.1505  2.7240
  165MOL0     H22218  10.228   8.194  -0.667 -0.2561 -1.6143  0.5593
  165MOL0     H22219  10.268   8.120  -0.826 -2.5952 -1.8897 -0.1141
  165MOL0     H22220  10.170   8.342  -0.924 -1.3678  1.6974  0.5159
  165MOL0     H22221  10.171   8.399  -0.747  1.5445 -2.0126  3.0825
  165MOL0     H22222  10.411   8.388  -0.742  2.2567 -2.3725 -0.4610
  165MOL0     H22223  10.418   8.315  -0.903 -2.6877 -2.0649 -0.3151
  165MOL0     H22224  10.351   8.603  -0.885  0.6253 -0.1331  0.8837
  165MOL0     H22225  10.339   8.500  -1.029 -1.2696 -0.8909  1.2135
  165MOL0     H22226  10.568   8.355  -1.093  1.5256 -0.1173 -2.9737
  165MOL0     H22227  10.807   8.398  -1.220 -0.4988 -0.3585  0.0868
  165MOL0     H22228  10.920   8.514  -1.158 -0.4475 -0.7463 -1.4764
  165MOL0     H22229  10.951   8.267  -1.106  0.7282  1.5760 -1.5952
  165MOL0     H22230  10.811   8.283  -0.997  0.2524  0.2522 -0.5154
  165MOL0     H22231  11.037   8.330  -0.864 -0.4080 -0.1950  0.2567
  165MOL0     H22232  10.930   8.473  -0.875  1.4666  0.4880  1.7217
  165MOL0     H22233  11.085   8.580  -1.016 -3.7267 -0.9446 -1.6155
  165MOL0     H22234  11.145   8.433  -1.080  1.7657  1.7501  0.1505
  165MOL0     H22235  11.027   8.629  -0.789 -0.0384 -2.6533  2.1997
  165MOL0     H22236  11.018   8.786  -0.499  1.5576 -0.8999 -0.2261
  165MOL0     H22237  11.019   8.921  -0.627  2.0266 -0.3659  0.6803
  165MOL0     H22238  10.929   8.776  -0.661 -0.6176 -0.5353 -0.5817
  165MOL0     H22239  11.338   8.981  -0.254  0.9057 -0.0671 -1.2467
  165MOL0     H22240  11.411   9.158  -0.100 -1.7384 -1.5351 -1.0915
  165MOL0     H22241  11.436   9.366  -0.051 -0.9288 -0.0235  1.5355
  165MOL0     H22242  11.548   9.257   0.036 -0.6308 -1.0479 -1.6559
  165MOL0     H22243  11.491   9.485   0.132  1.1469  3.0487  0.7143
  165MOL0     H22244  11.673   9.478   0.090 -0.2649  2.5202  1.1740
  165MOL0     H22245  11.440   9.592  -0.080 -1.2338  2.1656  3.7440
  165MOL0     H22246  11.615   9.618  -0.110 -1.3097  1.3927 -0.9253
  165MOL0     H22247  11.445   9.712   0.128 -2.7578  0.2603 -2.6230
  165MOL0     H22248  11.628   9.728   0.099 -0.3102  2.5693  0.8776
  165MOL0     H22249  11.402   9.831  -0.079 -2.0608  2.2690  3.1122
  165MOL0     H22250  11.568   9.862  -0.101 -2.1098 -1.3905 -2.1184
  165MOL0     H22251  11.430  10.050   0.017  0.2330  0.4104 -0.8378
  165MOL0     H22252  11.378   9.926   0.128 -0.2809  0.3984 -0.7129
  165MOL0     H22253  11.683   9.996   0.107  1.5661  1.9767  2.4282
  165MOL0     H22254  11.618   9.906   0.241  0.5200  1.2705 -0.3671
  165MOL0     H22255  11.489  10.120   0.313 -2.5265  0.1089 -2.7383
  165MOL0     H22256  11.536  10.188   0.171  2.5207 -2.1619 -3.4647
  165MOL0     H22257  11.747   9.245  -0.349  0.2500 -0.3392 -0.9942
  165MOL0     H22258  11.658   9.082  -0.520 -0.2785 -3.6187  0.0292
  165MOL0     H22259  11.484   8.770  -0.667 -0.3829 -0.6122 -0.4085
  165MOL0     H22260  11.443   8.576  -0.824  1.2640 -1.2186  3.2536
  165MOL0     H22261   9.859   8.042  -0.388  0.4257 -2.0500  0.2849
  165MOL0     H22262   9.845   7.921  -0.179 -0.3467 -3.3543  0.7865
  165MOL0     H22263   9.581   7.794   0.285  1.6230  0.3993 -0.7423
  165MOL0     H22264   9.552   7.603   0.433 -0.8171  2.1227 -1.2201
  165MOL0     H22265   9.649   7.382   0.534  0.1063  1.5805 -0.3215
  165MOL0     H22266   9.486   7.417   0.541 -2.1582 -0.3253 -1.8397
  165MOL0     H22267   9.555   7.206   0.665  1.1334 -2.5071  0.5170
  165MOL0     H22268   9.624   7.138   0.517 -1.6430 -1.0267 -1.8419
  165MOL0     H22269   9.376   7.146   0.427  0.6069 -0.5755 -0.5898
  165MOL0     H22270   9.337   7.215   0.586  0.4888  0.6308 -0.0309
  165MOL0     H22271   9.384   7.004   0.703 -0.3216  1.3148 -0.0294
  165MOL0     H22272   9.464   6.934   0.564  2.1728  1.7219  0.3393
  165MOL0     H22273   9.051   6.811   0.536  3.6331 -4.3074  0.6100
  165MOL0     H22274   9.608   7.329   0.110 -2.4871 -0.0337 -0.7932
  165MOL0     H22275   9.612   7.516  -0.054  0.4709 -0.0510  0.2508
  166MOL0     O22276  10.220   4.298   4.161 -0.0146  0.7999 -0.3285
  166MOL0     C22277  10.228   4.389   4.079  1.2980  0.2653  0.3634
  166MOL0     O22278  10.119   4.424   4.001  0.1758 -0.2359  0.5350
  166MOL0     C22279  10.004   4.375   4.036  0.3356  0.7415  0.1531
  166MOL0     C22280   9.910   4.462   4.108 -0.6751  0.0695  0.8243
  166MOL0     C22281   9.797   4.410   4.165  0.0558 -0.0131 -0.3096
  166MOL0     C22282   9.776   4.268   4.140  0.3945 -0.3302  0.5543
  166MOL0     O22283   9.668   4.205   4.203  0.2031  0.3375 -1.4580
  166MOL0     C22284   9.629   4.067   4.188 -0.7276  0.3064 -0.2796
  166MOL0     C22285   9.718   3.979   4.270  0.9420  0.5464 -0.3007
  166MOL0     C22286   9.631   3.892   4.354  0.2443  0.0671 -0.1453
  166MOL0     C22287   9.709   3.796   4.447  0.6282 -0.1574  0.6734
  166MOL0     C22288   9.621   3.691   4.505  0.3161 -0.6593  0.9408
  166MOL0     C22289   9.531   3.761   4.610 -0.1642 -0.0448 -0.3666
  166MOL0     C22290   9.448   3.661   4.685  1.3464  0.3523 -0.1288
  166MOL0     C22291   9.331   3.601   4.598  0.2423 -0.0524  0.0928
  166MOL0     N22292   9.240   3.716   4.563 -0.0455  0.4135  1.0002
  166MOL0     C22293   9.261   3.787   4.441  0.8972  1.0903  0.7593
  166MOL0     C22294   9.150   3.877   4.437  0.1399  0.0395  0.1306
  166MOL0     C22295   9.122   3.967   4.324 -0.1437 -0.3005  0.1807
  166MOL0     C22296   9.224   4.079   4.314 -1.0218  0.2981  1.3928
  166MOL0     C22297   9.177   4.195   4.224  1.0822 -0.4779 -0.0133
  166MOL0     C22298   9.063   4.282   4.277 -1.1277  0.1312 -0.3067
  166MOL0     O22299   8.977   4.321   4.175  0.0387 -0.2237  0.0327
  166MOL0     C22300   8.885   4.419   4.213  0.3910  0.3584 -0.0065
  166MOL0     C22301   8.904   4.547   4.161  0.0464  0.1946  0.4133
  166MOL0     C22302   8.810   4.652   4.186 -0.5634 -0.1297  1.4385
  166MOL0     C22303   8.860   4.780   4.109 -0.1440 -0.2310  0.4595
  166MOL0     C22304   8.691   4.633   4.255  0.7135 -0.0261  0.9958
  166MOL0     C22305   8.589   4.733   4.277 -1.1003  0.0257  0.1227
  166MOL0     O22306   8.526   4.721   4.395  0.0213  0.0349  0.0219
  166MOL0     C22307   8.421   4.808   4.426  0.6462 -0.1708 -0.8358
  166MOL0     C22308   8.446   4.932   4.493 -0.2826  0.2904  0.6949
  166MOL0     C22309   8.345   5.018   4.539 -0.2176  0.9288 -0.0912
  166MOL0     C22310   8.218   4.987   4.504 -0.1955 -0.6391  0.1771
  166MOL0     O22311   8.108   5.064   4.542 -0.1902 -0.1233 -0.2248
  166MOL0     C22312   8.106   5.201   4.579  1.4030 -0.0758  0.0531
  166MOL0     C22313   7.961   5.252   4.558  0.0444  0.2133  0.2267
  166MOL0     C22314   7.961   5.394   4.618  0.4922 -0.3308  0.3214
  166MOL0     C22315   7.814   5.449   4.609 -0.8840 -0.0805 -0.1239
  166MOL0     C22316   7.805   5.601   4.653  0.3150 -0.2093 -0.5855
  166MOL0     C22317   7.777   5.631   4.804 -0.2061 -0.0096  0.4351
  166MOL0     C22318   7.684   5.755   4.820  0.0076  0.1183 -0.8038
  166MOL0     C22319   7.592   5.740   4.945 -0.8006 -0.5874  0.2205
  166MOL0    Cl22320   7.689   5.729   5.096 -0.3600  0.1905 -0.5137
  166MOL0     C22321   8.187   4.868   4.445  0.4988  0.0476  0.1803
  166MOL0     C22322   8.288   4.780   4.407 -0.1579  0.4103 -0.9422
  166MOL0     O22323   8.564   4.811   4.180 -0.0105  0.2632 -0.6742
  166MOL0     C22324   8.677   4.499   4.303  0.1687  0.5063  0.6038
  166MOL0     C22325   8.773   4.392   4.285  0.2530  0.2612  0.0610
  166MOL0     N22326   9.077   3.860   4.559  0.0514 -0.0656 -0.4379
  166MOL0     N22327   9.140   3.768   4.624 -0.6555 -0.2182 -1.2139
  166MOL0     C22328   9.856   4.191   4.067 -0.0492  0.1422 -0.1646
  166MOL0     C22329   9.961   4.245   4.005 -0.0886  0.6880 -1.3756
  166MOL0     C22330  10.344   4.474   4.061 -0.5891  0.3112 -0.0722
  166MOL0     C22331  10.351   4.575   3.960  0.0653 -0.2300  0.5569
  166MOL0     C22332  10.475   4.644   3.932  0.4155  0.5844 -0.5261
  166MOL0     C22333  10.582   4.630   4.021  0.4593 -0.2508 -1.0189
  166MOL0     O22334  10.701   4.696   4.009  0.4249 -1.2732 -0.5937
  166MOL0     C22335  10.722   4.798   3.904  0.1002 -0.1864 -0.6542
  166MOL0     C22336  10.802   4.744   3.791 -0.1150 -0.0101  0.2875
  166MOL0     C22337  10.787   4.841   3.674  0.0296 -0.1454  0.2369
  166MOL0     C22338  10.856   4.975   3.683 -0.8636 -0.0494  0.0414
  166MOL0     C22339  10.877   5.026   3.547  0.4433  0.4161  0.3724
  166MOL0     C22340  10.890   5.087   3.441 -0.1146 -0.1034  0.3297
  166MOL0     C22341  10.560   4.547   4.133  0.3235 -0.0489 -0.2218
  166MOL0     C22342  10.452   4.463   4.157  0.0284  0.0365 -0.7185
  166MOL0     H22343   9.937   4.566   4.122  0.1647  0.1896 -1.2951
  166MOL0     H22344   9.727   4.473   4.220  0.4030 -1.8229  2.3640
  166MOL0     H22345   9.525   4.052   4.219  0.1178 -3.5187  1.2968
  166MOL0     H22346   9.646   4.031   4.086  1.2390 -1.9676  0.7616
  166MOL0     H22347   9.789   3.920   4.211 -1.4943 -2.3697 -0.5884
  166MOL0     H22348   9.774   4.036   4.344 -1.0691  2.0618  0.1332
  166MOL0     H22349   9.564   3.957   4.411  1.2199  0.2183  0.8592
  166MOL0     H22350   9.573   3.836   4.280 -2.5208  1.4994  0.7778
  166MOL0     H22351   9.785   3.742   4.391  0.8791 -1.1625  1.9330
  166MOL0     H22352   9.758   3.862   4.519  4.3919 -0.5272 -1.3526
  166MOL0     H22353   9.558   3.642   4.431  2.0382  1.2411 -2.0018
  166MOL0     H22354   9.687   3.620   4.556  1.5960  0.7716  1.3509
  166MOL0     H22355   9.586   3.818   4.686 -1.0540 -0.4370  0.6137
  166MOL0     H22356   9.470   3.837   4.559 -0.5667  0.1696  0.4047
  166MOL0     H22357   9.515   3.596   4.742 -2.4872 -2.5139  1.5146
  166MOL0     H22358   9.397   3.718   4.763  2.0591  0.7267  0.0775
  166MOL0     H22359   9.271   3.534   4.660 -1.7418  1.1954 -0.3861
  166MOL0     H22360   9.366   3.547   4.509 -1.3294 -1.1892  0.1292
  166MOL0     H22361   9.348   3.770   4.379  1.0239 -3.1894  1.7550
  166MOL0     H22362   9.136   3.905   4.236 -0.8564  1.0836 -0.9558
  166MOL0     H22363   9.023   4.013   4.331 -1.3274 -2.3074 -1.8545
  166MOL0     H22364   9.311   4.034   4.266 -1.6851 -0.4026  0.8287
  166MOL0     H22365   9.265   4.117   4.408  2.5867  1.4562 -0.4567
  166MOL0     H22366   9.149   4.146   4.130  1.4977  2.2071 -1.6452
  166MOL0     H22367   9.242   4.274   4.188  0.0652  0.0231 -0.8288
  166MOL0     H22368   9.111   4.373   4.316  3.7323 -2.6601  1.0552
  166MOL0     H22369   9.004   4.235   4.356 -1.7950  1.4386  0.0054
  166MOL0     H22370   8.991   4.547   4.096 -1.3389  0.0036 -1.5457
  166MOL0     H22371   8.960   4.806   4.146 -0.3651  0.3667  0.6462
  166MOL0     H22372   8.874   4.772   4.001  2.0895  2.4029  0.4227
  166MOL0     H22373   8.790   4.863   4.123 -2.9206 -2.2206 -0.7777
  166MOL0     H22374   8.549   4.950   4.523  0.0372 -2.6973  1.7115
  166MOL0     H22375   8.362   5.108   4.597 -2.7714  0.8790  0.8652
  166MOL0     H22376   8.119   5.212   4.687 -0.6061 -0.3093  0.3645
  166MOL0     H22377   8.170   5.270   4.524 -2.5145  1.6654 -2.8632
  166MOL0     H22378   7.941   5.259   4.450  0.7082  0.9093  0.1440
  166MOL0     H22379   7.883   5.194   4.609  0.7151 -0.1428  0.8732
  166MOL0     H22380   8.027   5.463   4.565  0.2005 -0.4305 -0.1793
  166MOL0     H22381   7.989   5.388   4.723 -3.5745  0.6324  1.6004
  166MOL0     H22382   7.771   5.444   4.509 -0.3620  2.4783 -0.5428
  166MOL0     H22383   7.736   5.403   4.671 -4.3621  1.9931 -2.6435
  166MOL0     H22384   7.723   5.649   4.599  0.5413 -0.2791 -0.9882
  166MOL0     H22385   7.894   5.657   4.623  0.5292 -1.0564 -1.5362
  166MOL0     H22386   7.739   5.549   4.865 -0.7213  0.1763  0.3749
  166MOL0     H22387   7.872   5.660   4.851 -1.3953  2.4713  1.5349
  166MOL0     H22388   7.612   5.760   4.738 -1.7421 -1.3737  0.5817
  166MOL0     H22389   7.750   5.843   4.826  1.4303 -0.9900  1.1103
  166MOL0     H22390   7.533   5.652   4.918  2.8620 -3.3089  0.2837
  166MOL0     H22391   7.526   5.827   4.952  1.3152  0.9852  1.9512
  166MOL0     H22392   8.080   4.848   4.445  0.9647 -3.0864 -1.4952
  166MOL0     H22393   8.264   4.682   4.366 -1.3539 -1.1791  3.0847
  166MOL0     H22394   8.586   4.485   4.361 -0.0878  1.1798  0.3770
  166MOL0     H22395   8.759   4.296   4.334  2.2066 -0.6772 -1.1120
  166MOL0     H22396   9.829   4.087   4.058 -2.6046  0.7546 -0.2895
  166MOL0     H22397  10.020   4.173   3.950  3.6958  1.3212  1.4356
  166MOL0     H22398  10.276   4.585   3.883  3.4219 -1.2678 -3.2281
  166MOL0     H22399  10.475   4.709   3.845 -1.1137  0.4170 -0.6879
  166MOL0     H22400  10.634   4.856   3.873  0.8893 -0.1960 -3.0685
  166MOL0     H22401  10.769   4.880   3.960 -0.3184  1.6153 -2.7941
  166MOL0     H22402  10.764   4.645   3.767  0.8623 -0.6601  1.3235
  166MOL0     H22403  10.907   4.736   3.819  1.5095  3.5969 -3.6404
  166MOL0     H22404  10.684   4.871   3.652  1.2924  1.7881 -4.3731
  166MOL0     H22405  10.829   4.796   3.583 -4.0387  0.2255 -2.1100
  166MOL0     H22406  10.961   4.968   3.715 -0.8189 -0.6930 -0.2413
  166MOL0     H22407  10.795   5.049   3.735 -0.1220  0.5774  0.0488
  166MOL0     H22408  10.894   5.138   3.347 -1.4657 -2.6044 -1.1981
  166MOL0     H22409  10.641   4.541   4.206  1.3794 -0.7363 -1.4201
  166MOL0     H22410  10.451   4.406   4.249  1.0713  0.0473 -0.6921
  167MOL0     O22411   9.838   1.011   4.327  0.4641  0.4575  0.5147
  167MOL0     C22412   9.777   1.117   4.341  0.3493 -0.3567 -0.3550
  167MOL0     O22413   9.672   1.154   4.266  0.5520 -0.0822 -0.3996
  167MOL0     C22414   9.617   1.080   4.166  0.4279  0.4187 -0.3355
  167MOL0     C22415   9.603   0.940   4.165 -0.2922  0.9716 -0.5379
  167MOL0     C22416   9.546   0.870   4.062 -0.0717 -0.5871  0.4448
  167MOL0     C22417   9.486   0.946   3.956 -0.1897  0.1904 -0.3395
  167MOL0     O22418   9.427   0.900   3.841 -0.2156  0.9105  0.1579
  167MOL0     C22419   9.386   0.762   3.831  0.2998 -0.7331 -0.9003
  167MOL0     C22420   9.252   0.747   3.911 -1.0328  0.6616 -0.3412
  167MOL0     C22421   9.194   0.609   3.915 -0.4437 -0.3100  0.6158
  167MOL0     C22422   9.106   0.573   3.794  0.8050  0.2308  0.2762
  167MOL0     C22423   9.078   0.420   3.786 -0.2382  0.4709  0.0708
  167MOL0     C22424   8.973   0.376   3.874  0.2353 -0.2200 -0.0968
  167MOL0     C22425   8.900   0.248   3.843  0.8724 -0.4923  0.2324
  167MOL0     C22426   8.986   0.130   3.892 -0.5056 -0.8661  1.2430
  167MOL0     N22427   8.903   0.003   3.874 -0.3080  0.0875 -0.1078
  167MOL0     C22428   8.935  -0.095   3.772  0.1293  0.8355  0.4908
  167MOL0     C22429   8.824  -0.173   3.758  0.8304 -0.6035  0.7498
  167MOL0     C22430   8.805  -0.300   3.669 -0.2780  0.5325 -0.3001
  167MOL0     C22431   8.814  -0.436   3.745  0.4004 -0.4741  0.3213
  167MOL0     C22432   8.752  -0.542   3.660  0.6598  0.8374 -0.5037
  167MOL0     C22433   8.602  -0.529   3.640  0.4506  0.3084 -0.3814
  167MOL0     O22434   8.535  -0.656   3.641  0.0684 -0.2188  0.0605
  167MOL0     C22435   8.413  -0.662   3.578  0.1396 -0.5936 -0.3591
  167MOL0     C22436   8.391  -0.727   3.460  0.0749 -0.2721  0.4721
  167MOL0     C22437   8.272  -0.717   3.388  0.2837  0.4401 -0.3762
  167MOL0     C22438   8.270  -0.762   3.246 -0.8885 -0.5035 -0.1841
  167MOL0     C22439   8.157  -0.676   3.460  0.0243 -0.8069  0.3470
  167MOL0     C22440   8.026  -0.667   3.387 -0.2092 -0.0878  0.3076
  167MOL0     O22441   7.996  -0.761   3.294  0.8999  0.4039 -0.4158
  167MOL0     C22442   7.871  -0.758   3.239  0.0903 -0.5454 -0.2283
  167MOL0     C22443   7.764  -0.821   3.298 -0.2144 -0.0441  0.1809
  167MOL0     C22444   7.634  -0.813   3.244  0.1515 -0.2958  0.3935
  167MOL0     C22445   7.625  -0.746   3.122  0.0020  0.4668 -0.7586
  167MOL0     O22446   7.505  -0.731   3.053  0.4163  0.4268 -0.3666
  167MOL0     C22447   7.380  -0.701   3.116  0.3699 -0.3421 -0.3876
  167MOL0     C22448   7.296  -0.618   3.019  0.5939  0.5063  0.3186
  167MOL0     C22449   7.210  -0.691   2.921  0.4409  0.4571 -0.3662
  167MOL0     C22450   7.075  -0.625   2.899  0.4588  0.5427 -0.6305
  167MOL0     C22451   7.014  -0.704   2.781  0.0457  0.9664 -0.2934
  167MOL0     C22452   6.874  -0.662   2.742  0.5093  0.4588  0.0042
  167MOL0     C22453   6.839  -0.712   2.603  0.1289  0.5003  1.1477
  167MOL0     C22454   6.719  -0.808   2.591 -0.1833 -0.7331  0.1601
  167MOL0    Cl22455   6.695  -0.851   2.417 -0.2387 -0.1935 -0.0318
  167MOL0     C22456   7.734  -0.675   3.065 -0.2055  1.1417  0.2679
  167MOL0     C22457   7.861  -0.690   3.115  0.2457 -0.0184  0.5386
  167MOL0     O22458   7.955  -0.576   3.423 -0.5667  0.4118  0.0683
  167MOL0     C22459   8.175  -0.625   3.588 -0.2747 -0.1358  0.3585
  167MOL0     C22460   8.302  -0.621   3.648  0.1576 -0.4211 -0.1362
  167MOL0     N22461   8.728  -0.121   3.851 -1.0857 -0.1398  0.9472
  167MOL0     N22462   8.774  -0.022   3.910 -1.2522  0.0631 -0.1406
  167MOL0     C22463   9.482   1.086   3.962  0.6097 -0.1668  0.6891
  167MOL0     C22464   9.540   1.147   4.070 -0.0278  0.4014 -1.1707
  167MOL0     C22465   9.848   1.218   4.424 -0.6081  0.2389  0.5201
  167MOL0     C22466   9.992   1.213   4.440  0.4064  0.6358  0.0398
  167MOL0     C22467  10.059   1.311   4.516 -1.0688 -1.1163  0.5054
  167MOL0     C22468   9.991   1.419   4.566  0.2458 -0.4492 -0.1690
  167MOL0     O22469  10.065   1.515   4.632  0.4205 -0.2458  0.1018
  167MOL0     C22470  10.003   1.625   4.703 -0.3645 -0.0430 -1.0546
  167MOL0     C22471  10.031   1.619   4.857 -0.2041  0.7608  0.1308
  167MOL0     C22472  10.165   1.685   4.891 -0.6179  1.1895  0.0115
  167MOL0     C22473  10.289   1.616   4.812 -0.5105 -0.6657  1.0471
  167MOL0     C22474  10.422   1.655   4.856  0.4692 -0.2829 -0.5052
  167MOL0     C22475  10.537   1.694   4.866 -0.0516  0.0488  0.0040
  167MOL0     C22476   9.853   1.435   4.551  1.1846 -0.2820 -0.6141
  167MOL0     C22477   9.782   1.332   4.481 -0.0969  0.3107 -0.4831
  167MOL0     H22478   9.634   0.894   4.258 -1.0678  0.8664 -0.3268
  167MOL0     H22479   9.538   0.762   4.069  0.0688 -0.4990  3.0541
  167MOL0     H22480   9.370   0.744   3.724  1.0038 -0.6939 -1.0188
  167MOL0     H22481   9.465   0.699   3.873 -0.6941 -1.7822 -0.5257
  167MOL0     H22482   9.274   0.770   4.016 -0.6248 -0.0596 -0.2645
  167MOL0     H22483   9.181   0.826   3.884  0.2881  2.2349  0.6293
  167MOL0     H22484   9.283   0.544   3.908 -0.4684 -0.1859 -1.8006
  167MOL0     H22485   9.131   0.590   4.002 -3.3699  3.6817 -0.3720
  167MOL0     H22486   9.017   0.637   3.783  2.2981  2.1777 -1.3638
  167MOL0     H22487   9.147   0.594   3.694 -0.8443 -1.9528 -0.9589
  167MOL0     H22488   9.045   0.398   3.684 -1.2784 -0.8326  0.6646
  167MOL0     H22489   9.173   0.367   3.800 -0.1963  0.6909  0.6492
  167MOL0     H22490   9.013   0.375   3.976 -2.9055 -0.9757  1.2260
  167MOL0     H22491   8.893   0.450   3.880 -0.2503 -0.7961  0.6243
  167MOL0     H22492   8.798   0.236   3.881  0.2786 -2.2030 -1.6911
  167MOL0     H22493   8.902   0.229   3.735  1.4721  1.2184 -0.0945
  167MOL0     H22494   9.010   0.127   3.998 -4.7317 -2.4080  2.3488
  167MOL0     H22495   9.077   0.131   3.830 -1.0047  0.2858  0.4839
  167MOL0     H22496   9.030  -0.105   3.722 -0.2611  3.0792 -0.8377
  167MOL0     H22497   8.708  -0.292   3.618 -2.0317 -0.0945  2.6806
  167MOL0     H22498   8.888  -0.295   3.597  1.1218  1.3831  1.3152
  167MOL0     H22499   8.757  -0.425   3.838 -4.4619 -0.6636 -2.3367
  167MOL0     H22500   8.920  -0.456   3.766  0.2974 -1.5674 -0.1069
  167MOL0     H22501   8.762  -0.631   3.723  1.8768  0.5431 -1.0997
  167MOL0     H22502   8.808  -0.561   3.568 -0.5112  3.2450 -1.8007
  167MOL0     H22503   8.591  -0.490   3.539 -1.6932  1.9078  0.3859
  167MOL0     H22504   8.547  -0.469   3.714  1.1659 -0.6032  0.9323
  167MOL0     H22505   8.476  -0.763   3.402 -0.8282  0.7491 -1.5883
  167MOL0     H22506   8.220  -0.857   3.227 -0.2343 -0.8096 -0.4177
  167MOL0     H22507   8.216  -0.685   3.190 -0.6145 -0.2199 -0.0633
  167MOL0     H22508   8.373  -0.764   3.208 -1.1841 -0.4719 -0.9930
  167MOL0     H22509   7.782  -0.872   3.393 -0.2106 -0.3048  0.0407
  167MOL0     H22510   7.552  -0.862   3.296 -1.3639  2.5391  0.8539
  167MOL0     H22511   7.330  -0.792   3.151 -0.7447 -0.2543 -1.6723
  167MOL0     H22512   7.384  -0.631   3.200 -1.0278 -0.1869 -0.4368
  167MOL0     H22513   7.230  -0.566   3.089  1.6441 -0.7930  2.3588
  167MOL0     H22514   7.347  -0.534   2.972  1.4654  1.1768  2.3420
  167MOL0     H22515   7.199  -0.797   2.945 -3.0359  0.6153 -0.7765
  167MOL0     H22516   7.267  -0.690   2.828 -1.6651  0.8003 -1.7053
  167MOL0     H22517   7.011  -0.621   2.987 -0.4312  1.1586 -1.2933
  167MOL0     H22518   7.086  -0.525   2.858  1.7347 -0.1157 -2.0105
  167MOL0     H22519   7.016  -0.812   2.796  0.3158  0.3651 -3.8796
  167MOL0     H22520   7.078  -0.676   2.697  1.0092  0.9074  0.4084
  167MOL0     H22521   6.813  -0.709   2.820  2.6465  1.5732  2.5014
  167MOL0     H22522   6.872  -0.554   2.757 -1.4163  0.6444 -1.2685
  167MOL0     H22523   6.921  -0.752   2.543 -0.3249  0.8673  0.2621
  167MOL0     H22524   6.803  -0.627   2.544  0.7115 -0.4012 -0.5852
  167MOL0     H22525   6.635  -0.757   2.640  2.3363 -0.1121  4.3359
  167MOL0     H22526   6.747  -0.899   2.646 -3.1868 -1.9285 -0.0948
  167MOL0     H22527   7.716  -0.615   2.977  0.9414  0.8348 -0.1968
  167MOL0     H22528   7.944  -0.636   3.071 -0.7342  1.3826  0.3295
  167MOL0     H22529   8.089  -0.581   3.639 -0.1604  2.1872 -1.3319
  167MOL0     H22530   8.307  -0.572   3.745 -0.2192 -0.0511 -0.3002
  167MOL0     H22531   9.433   1.148   3.888  2.3438 -0.1968 -0.5211
  167MOL0     H22532   9.529   1.255   4.077 -2.1098  0.2365 -1.1547
  167MOL0     H22533  10.056   1.142   4.390  0.6668 -0.1701  1.4500
  167MOL0     H22534  10.166   1.322   4.528 -0.9308 -2.4592  0.6591
  167MOL0     H22535  10.048   1.720   4.672 -0.8936  0.3867 -0.5342
  167MOL0     H22536   9.897   1.650   4.696 -0.5340  0.5382  1.9971
  167MOL0     H22537  10.035   1.513   4.885 -0.2290  0.5406 -0.6975
  167MOL0     H22538   9.942   1.663   4.902 -0.5523 -2.1441  2.6388
  167MOL0     H22539  10.183   1.663   4.997 -2.9990  2.0151  0.6405
  167MOL0     H22540  10.166   1.794   4.882 -0.6157  1.3058  1.2634
  167MOL0     H22541  10.296   1.639   4.706 -1.9526  3.5192  1.6816
  167MOL0     H22542  10.285   1.509   4.837  1.0902 -0.5187  2.0787
  167MOL0     H22543  10.642   1.717   4.871  0.1059 -0.0641 -2.0425
  167MOL0     H22544   9.789   1.517   4.581  0.9379  0.6601 -3.4305
  167MOL0     H22545   9.674   1.331   4.468 -0.0740 -0.6314 -0.6712
  168MOL0     O22546   4.138   3.897  10.136 -0.1094  0.0644  0.8742
  168MOL0     C22547   4.214   3.935  10.227 -1.1388 -0.4495 -1.1094
  168MOL0     O22548   4.222   4.056  10.287 -0.3435  0.8429 -0.4434
  168MOL0     C22549   4.185   4.169  10.229  0.6180  0.3124 -0.4422
  168MOL0     C22550   4.183   4.182  10.087  0.4195 -0.6513 -0.0831
  168MOL0     C22551   4.150   4.304  10.026 -0.1555 -0.8890  0.5844
  168MOL0     C22552   4.119   4.422  10.103 -0.0240  0.1507  0.8286
  168MOL0     O22553   4.083   4.541  10.046 -0.2430  0.2237  0.0703
  168MOL0     C22554   4.025   4.640  10.120 -0.5391  0.7742  0.1474
  168MOL0     C22555   3.969   4.766  10.043  0.0258 -0.1635 -0.3234
  168MOL0     C22556   3.827   4.745   9.987 -0.9320  0.3653 -0.1902
  168MOL0     C22557   3.829   4.654   9.862  0.7717 -0.2588  0.4475
  168MOL0     C22558   3.710   4.678   9.764  0.2634  0.0542  0.6212
  168MOL0     C22559   3.580   4.612   9.797  1.5081  0.2456  0.5071
  168MOL0     C22560   3.481   4.603   9.675 -0.8790 -0.1333  0.4656
  168MOL0     C22561   3.361   4.504   9.680 -0.3419  0.9480 -0.5964
  168MOL0     N22562   3.393   4.360   9.690 -0.1066  0.1801 -0.4846
  168MOL0     C22563   3.400   4.281   9.576  0.1452  0.2079  0.1443
  168MOL0     C22564   3.403   4.154   9.620 -0.0020  0.6201  0.4359
  168MOL0     C22565   3.400   4.026   9.533  0.8923 -0.6100  0.2267
  168MOL0     C22566   3.536   3.966   9.531 -1.0719 -0.1565 -0.2662
  168MOL0     C22567   3.539   3.846   9.432 -0.1114 -0.3002  0.4469
  168MOL0     C22568   3.668   3.761   9.429 -0.8822  0.0076 -0.0747
  168MOL0     O22569   3.674   3.671   9.312 -0.4455 -0.2042 -0.4363
  168MOL0     C22570   3.603   3.550   9.314 -0.2034 -1.0145 -0.9380
  168MOL0     C22571   3.514   3.522   9.217  0.4970  0.4108  0.7030
  168MOL0     C22572   3.431   3.407   9.220 -0.0322  0.8772  0.0300
  168MOL0     C22573   3.329   3.398   9.109 -0.0844 -0.1396  0.4025
  168MOL0     C22574   3.445   3.311   9.320  0.1159  0.4667  0.0803
  168MOL0     C22575   3.367   3.183   9.341  0.0970  0.5541 -1.2613
  168MOL0     O22576   3.405   3.103   9.447 -0.9425  0.5503 -0.3795
  168MOL0     C22577   3.307   3.014   9.495 -0.0474  0.6472  0.5260
  168MOL0     C22578   3.220   3.052   9.599 -0.1013  0.0092  0.1741
  168MOL0     C22579   3.124   2.963   9.637 -0.0470 -0.7344 -0.6725
  168MOL0     C22580   3.119   2.831   9.594  0.4460 -0.5172  0.1677
  168MOL0     O22581   3.015   2.760   9.644 -0.4753  0.0341  0.1433
  168MOL0     C22582   2.994   2.623   9.599  1.2313  0.0406  0.1132
  168MOL0     C22583   2.850   2.582   9.606 -0.7694  0.2495  1.1103
  168MOL0     C22584   2.784   2.564   9.747 -0.2258 -0.6286  0.9775
  168MOL0     C22585   2.632   2.583   9.739  0.1633  0.3375  0.0254
  168MOL0     C22586   2.551   2.475   9.658  0.2756  0.2936 -0.6962
  168MOL0     C22587   2.559   2.331   9.719 -0.7362 -0.9225 -0.0581
  168MOL0     C22588   2.455   2.241   9.642  0.3166 -0.7324 -0.7634
  168MOL0     C22589   2.449   2.102   9.702 -0.3170 -0.2061 -0.0976
  168MOL0    Cl22590   2.446   1.991   9.570  0.0404 -0.4561  0.3606
  168MOL0     C22591   3.212   2.795   9.492 -0.4086  0.2209  0.5111
  168MOL0     C22592   3.301   2.889   9.433  0.4807 -0.4639  0.2120
  168MOL0     O22593   3.271   3.160   9.268  0.2418 -0.0113  0.2387
  168MOL0     C22594   3.540   3.340   9.419  0.3545 -0.5528 -0.1944
  168MOL0     C22595   3.618   3.460   9.421 -0.3341 -0.7357 -0.7865
  168MOL0     N22596   3.414   4.154   9.761  0.4328  0.0563  0.7208
  168MOL0     N22597   3.410   4.278   9.798  0.1692  0.4208  0.4230
  168MOL0     C22598   4.139   4.413  10.243 -0.9002  0.8789 -0.0504
  168MOL0     C22599   4.161   4.287  10.309  0.3314  0.0174 -0.1642
  168MOL0     C22600   4.290   3.826  10.302 -0.6150  0.1067 -0.7054
  168MOL0     C22601   4.305   3.701  10.234 -0.2452 -0.5062  0.2000
  168MOL0     C22602   4.371   3.601  10.303 -0.4479 -1.2977 -0.5665
  168MOL0     C22603   4.415   3.617  10.437  0.1959  0.2153 -0.1913
  168MOL0     O22604   4.470   3.510  10.513 -1.1143  0.2741  0.0440
  168MOL0     C22605   4.609   3.505  10.519 -0.2953 -0.5849  0.3677
  168MOL0     C22606   4.680   3.451  10.392 -0.1125 -0.6916  0.6526
  168MOL0     C22607   4.628   3.328  10.328 -0.3220  0.3653 -0.2020
  168MOL0     C22608   4.730   3.291  10.214 -1.2444 -0.8056 -1.1131
  168MOL0     C22609   4.680   3.188  10.123  0.6862 -1.2172  0.4803
  168MOL0     C22610   4.621   3.115  10.049  0.4762  0.0718  0.3855
  168MOL0     C22611   4.415   3.747  10.487 -0.3764  0.1361 -0.5865
  168MOL0     C22612   4.343   3.848  10.433 -0.7750  0.3262  0.3605
  168MOL0     H22613   4.206   4.099  10.021 -1.1887  0.4916 -2.2059
  168MOL0     H22614   4.142   4.315   9.918 -0.8371  0.7288  0.7700
  168MOL0     H22615   3.939   4.589  10.164 -0.9245  1.7859  0.5993
  168MOL0     H22616   4.100   4.677  10.190  0.6858 -0.7292 -0.3166
  168MOL0     H22617   3.970   4.852  10.111 -0.1595  0.6899 -1.3866
  168MOL0     H22618   4.035   4.788   9.959  2.7452 -0.6099  1.5666
  168MOL0     H22619   3.761   4.705  10.063 -0.4580  0.1587  0.1157
  168MOL0     H22620   3.792   4.846   9.962 -0.7156  0.1212 -1.5680
  168MOL0     H22621   3.913   4.681   9.797  0.2582  2.4302  0.8022
  168MOL0     H22622   3.839   4.547   9.882  1.4084 -0.6804 -1.8658
  168MOL0     H22623   3.696   4.786   9.753 -0.1333  0.1555  1.9505
  168MOL0     H22624   3.754   4.640   9.670 -2.1016  3.5468 -2.1613
  168MOL0     H22625   3.592   4.513   9.842  1.7992 -0.5763 -1.3038
  168MOL0     H22626   3.538   4.668   9.882  1.5346 -1.1743  1.5004
  168MOL0     H22627   3.442   4.704   9.665  1.0513  0.5695 -0.6407
  168MOL0     H22628   3.541   4.569   9.589 -2.1805  1.5134 -1.1586
  168MOL0     H22629   3.296   4.525   9.595 -1.9307  1.5045  0.6927
  168MOL0     H22630   3.310   4.538   9.771  1.3135 -1.1841  1.2490
  168MOL0     H22631   3.399   4.315   9.473  1.4986  0.5706  0.2377
  168MOL0     H22632   3.321   3.961   9.572  0.1175 -0.8510 -1.6496
  168MOL0     H22633   3.383   4.055   9.429  3.4518  2.7007  0.5665
  168MOL0     H22634   3.560   3.932   9.632  0.1165  2.5582  0.4643
  168MOL0     H22635   3.605   4.047   9.506  0.4495 -0.8718  1.4093
  168MOL0     H22636   3.520   3.867   9.326  0.3618 -0.4257  0.3391
  168MOL0     H22637   3.455   3.782   9.460  1.5674 -2.8296 -0.0398
  168MOL0     H22638   3.675   3.710   9.525 -0.5600  0.9682  0.4251
  168MOL0     H22639   3.754   3.830   9.427 -0.6072 -0.2072  2.3318
  168MOL0     H22640   3.510   3.597   9.138  0.1297 -0.9482 -0.5953
  168MOL0     H22641   3.355   3.471   9.031  0.4045  0.8286  1.4443
  168MOL0     H22642   3.302   3.304   9.059 -1.0904  0.0423  0.6029
  168MOL0     H22643   3.247   3.446   9.162 -0.1089  1.9312 -1.3658
  168MOL0     H22644   3.230   3.155   9.634  0.5863 -0.1222  0.3822
  168MOL0     H22645   3.059   2.994   9.719  0.6701  0.3455 -0.4857
  168MOL0     H22646   3.028   2.615   9.495 -1.8269  2.2386 -1.1961
  168MOL0     H22647   3.046   2.560   9.672 -0.7515  2.7628  4.3036
  168MOL0     H22648   2.790   2.655   9.550 -0.2120  2.3557  3.0956
  168MOL0     H22649   2.847   2.482   9.561 -1.2074  0.3617  0.8846
  168MOL0     H22650   2.832   2.632   9.818  0.7288  0.4461 -0.6270
  168MOL0     H22651   2.794   2.460   9.777 -2.9993 -1.0397  0.7624
  168MOL0     H22652   2.586   2.592   9.837 -2.2071  0.8469 -1.0729
  168MOL0     H22653   2.609   2.679   9.692 -0.1550  0.8818  1.2503
  168MOL0     H22654   2.602   2.479   9.561  2.4516  1.1793  0.4201
  168MOL0     H22655   2.445   2.501   9.656  0.0733  0.1092  2.3142
  168MOL0     H22656   2.658   2.288   9.701  0.0617  1.5054 -1.9538
  168MOL0     H22657   2.543   2.341   9.827  0.8257  0.1952  0.0988
  168MOL0     H22658   2.470   2.222   9.535 -0.6110 -3.0185 -0.5607
  168MOL0     H22659   2.357   2.289   9.652  1.4211  1.4013  0.4350
  168MOL0     H22660   2.361   2.087   9.765  0.8031 -3.9813  0.8588
  168MOL0     H22661   2.535   2.086   9.768 -0.3859 -2.5747 -0.5164
  168MOL0     H22662   3.217   2.694   9.451 -0.0419  0.4744 -0.0931
  168MOL0     H22663   3.352   2.878   9.338 -1.8037  2.8137 -1.5942
  168MOL0     H22664   3.559   3.280   9.508  0.5291 -0.5933 -0.2584
  168MOL0     H22665   3.686   3.472   9.505 -1.6523 -0.4576  0.2814
  168MOL0     H22666   4.150   4.501  10.307  3.6823 -0.7780  1.8904
  168MOL0     H22667   4.177   4.289  10.416 -3.0181  1.5750  0.4333
  168MOL0     H22668   4.253   3.681  10.142 -2.0361 -1.8674  1.4422
  168MOL0     H22669   4.388   3.506  10.254  0.0282 -0.2910 -2.4392
  168MOL0     H22670   4.653   3.605  10.529 -2.0026  0.7648 -3.5452
  168MOL0     H22671   4.617   3.442  10.608 -1.8278  1.1021  1.7803
  168MOL0     H22672   4.785   3.454  10.420 -0.1905 -1.5490  1.0674
  168MOL0     H22673   4.669   3.531  10.318 -0.8759  0.7403  2.2543
  168MOL0     H22674   4.530   3.345  10.281  0.2948 -0.3495 -1.8332
  168MOL0     H22675   4.623   3.258  10.411  0.9466  2.0379  1.3775
  168MOL0     H22676   4.825   3.271  10.263 -2.3262 -0.7445  1.1164
  168MOL0     H22677   4.751   3.377  10.150 -1.3653  0.2193  0.2021
  168MOL0     H22678   4.567   3.047   9.987  1.2775 -0.7237  0.5378
  168MOL0     H22679   4.466   3.747  10.583 -1.7581 -1.6291  0.1999
  168MOL0     H22680   4.329   3.945  10.480 -1.3635  1.2352 -1.5988
  169MOL0     O22681   0.293   0.688   4.927  0.3414  0.4008  0.3687
  169MOL0     C22682   0.242   0.669   4.821  0.5472  0.8406  0.1085
  169MOL0     O22683   0.297   0.599   4.718  0.2844  0.3730 -0.0771
  169MOL0     C22684   0.408   0.521   4.756  0.0239  0.2159  0.8550
  169MOL0     C22685   0.524   0.555   4.691 -0.2251 -0.2927  0.2131
  169MOL0     C22686   0.636   0.480   4.711 -0.7049  0.6937 -0.1692
  169MOL0     C22687   0.634   0.359   4.781  0.9859 -0.2731 -0.2529
  169MOL0     O22688   0.753   0.288   4.769  0.0688  0.5256  0.8789
  169MOL0     C22689   0.764   0.169   4.853 -0.5177 -0.2801  0.0252
  169MOL0     C22690   0.900   0.100   4.814 -0.2221 -0.2657 -0.9270
  169MOL0     C22691   1.025   0.188   4.839 -0.0467  1.0347 -0.1854
  169MOL0     C22692   1.142   0.110   4.913 -0.8650  0.4853  0.2718
  169MOL0     C22693   1.269   0.133   4.834  0.3828  0.2147 -0.6783
  169MOL0     C22694   1.390   0.059   4.900  0.5203  0.1676 -0.3323
  169MOL0     C22695   1.518   0.130   4.869 -0.3054  1.3434  0.9024
  169MOL0     C22696   1.645   0.033   4.884  0.6880  0.4017 -0.1100
  169MOL0     N22697   1.762   0.071   4.802 -0.5158  0.7473 -0.0483
  169MOL0     C22698   1.781   0.033   4.672 -1.0497  0.7513 -0.1026
  169MOL0     C22699   1.886   0.103   4.631  0.5679 -0.1801 -0.7277
  169MOL0     C22700   1.951   0.099   4.493 -0.1716 -0.5598  0.0857
  169MOL0     C22701   1.984  -0.036   4.422  0.1968 -1.0319 -0.5321
  169MOL0     C22702   2.075  -0.122   4.512 -0.6515 -0.4521  0.3017
  169MOL0     C22703   2.099  -0.259   4.441 -0.0074 -0.6990 -0.0305
  169MOL0     O22704   2.210  -0.243   4.352  0.1546 -0.2228  0.4556
  169MOL0     C22705   2.256  -0.358   4.291  0.2981  0.0749 -0.3491
  169MOL0     C22706   2.367  -0.338   4.212 -0.3560 -0.4961  0.2391
  169MOL0     C22707   2.417  -0.428   4.122  0.1359 -0.6671 -0.7725
  169MOL0     C22708   2.546  -0.384   4.051 -0.9021 -0.5006 -0.2470
  169MOL0     C22709   2.358  -0.557   4.115  0.2255 -0.2431 -0.9367
  169MOL0     C22710   2.403  -0.666   4.028 -0.2021  0.3075 -0.2528
  169MOL0     O22711   2.326  -0.783   4.030  0.5580 -0.5776 -0.4053
  169MOL0     C22712   2.368  -0.897   3.963  0.1481  0.0342  0.0786
  169MOL0     C22713   2.264  -0.980   3.926 -0.2285  0.0247  0.7717
  169MOL0     C22714   2.291  -1.108   3.883  0.7436  0.8887 -0.7902
  169MOL0     C22715   2.418  -1.152   3.863  0.4555  0.0734  0.4441
  169MOL0     O22716   2.448  -1.279   3.822  0.6299 -0.0891  0.7367
  169MOL0     C22717   2.368  -1.379   3.883 -0.2589  0.4338 -0.6402
  169MOL0     C22718   2.394  -1.380   4.039 -0.2420 -0.0730  0.9438
  169MOL0     C22719   2.538  -1.356   4.095  0.3826 -0.1250  0.5091
  169MOL0     C22720   2.522  -1.300   4.236 -0.3324  0.6601 -0.2329
  169MOL0     C22721   2.668  -1.282   4.294 -0.5909 -1.0798 -1.2257
  169MOL0     C22722   2.672  -1.199   4.433 -0.1002 -0.4062 -0.4130
  169MOL0     C22723   2.807  -1.125   4.434 -1.0581  0.4375  0.4695
  169MOL0     C22724   2.858  -1.044   4.562 -0.3952  0.2202  0.1877
  169MOL0    Cl22725   2.874  -1.139   4.710  0.3094  0.1009 -0.8956
  169MOL0     C22726   2.527  -1.069   3.889  0.3843 -0.0308 -0.1198
  169MOL0     C22727   2.499  -0.945   3.949 -0.0847 -0.0303  0.2381
  169MOL0     O22728   2.501  -0.659   3.951 -0.8662 -0.3884  0.2950
  169MOL0     C22729   2.244  -0.575   4.201 -0.7037  1.2314 -0.1980
  169MOL0     C22730   2.187  -0.477   4.283 -0.6074  1.0472 -0.8058
  169MOL0     N22731   1.938   0.183   4.736 -0.0727  0.5261 -0.5982
  169MOL0     N22732   1.859   0.159   4.837  0.3428 -0.3967  0.3449
  169MOL0     C22733   0.514   0.328   4.859 -0.2521 -0.5419  0.0708
  169MOL0     C22734   0.403   0.403   4.838 -0.2626 -0.0207 -0.1363
  169MOL0     C22735   0.111   0.738   4.801 -0.4225  0.0405  0.0948
  169MOL0     C22736   0.051   0.798   4.911  1.2046 -0.0641 -0.0484
  169MOL0     C22737  -0.067   0.866   4.903 -0.2126  0.0036 -0.1649
  169MOL0     C22738  -0.129   0.876   4.782  0.4912 -0.2276 -0.0297
  169MOL0     O22739  -0.241   0.949   4.789  0.1716 -0.0234  0.3158
  169MOL0     C22740  -0.278   1.003   4.658  0.7893 -0.6075 -0.5423
  169MOL0     C22741  -0.398   1.094   4.673 -0.6360  0.3802  1.1159
  169MOL0     C22742  -0.507   1.012   4.741 -1.0699  0.4274 -0.4609
  169MOL0     C22743  -0.654   1.075   4.729  0.6957  0.4503  0.9356
  169MOL0     C22744  -0.693   1.035   4.593  0.2126 -0.4564 -0.3246
  169MOL0     C22745  -0.713   1.004   4.480 -0.1594 -0.4884 -0.2811
  169MOL0     C22746  -0.073   0.817   4.669  0.1815 -0.1044  0.5493
  169MOL0     C22747   0.044   0.747   4.678 -0.2507  0.2589 -0.0837
  169MOL0     H22748   0.529   0.640   4.623 -0.6467 -1.0681 -0.8103
  169MOL0     H22749   0.728   0.511   4.664 -0.4318  0.2111  0.0442
  169MOL0     H22750   0.770   0.196   4.958  1.6991 -1.7539  0.3395
  169MOL0     H22751   0.683   0.098   4.833 -0.1518 -0.4073 -1.0691
  169MOL0     H22752   0.911  -0.001   4.854  0.4275  0.0484 -0.3063
  169MOL0     H22753   0.889   0.080   4.707 -2.4176 -2.0734 -0.4370
  169MOL0     H22754   1.062   0.222   4.741 -0.2243 -2.2312 -1.5200
  169MOL0     H22755   0.991   0.275   4.897 -1.6450  0.7431 -0.6268
  169MOL0     H22756   1.156   0.146   5.015 -1.2262 -0.2964  0.6054
  169MOL0     H22757   1.130   0.001   4.910 -2.4209  0.6232  0.4372
  169MOL0     H22758   1.261   0.111   4.727  1.1722  1.2615 -0.9719
  169MOL0     H22759   1.298   0.239   4.839  0.6747  0.1038  0.1562
  169MOL0     H22760   1.384   0.054   5.010  2.8904 -1.0914 -0.2019
  169MOL0     H22761   1.380  -0.046   4.872 -0.7026 -0.3208  1.6918
  169MOL0     H22762   1.513   0.163   4.765  0.0452 -0.6884  0.2006
  169MOL0     H22763   1.535   0.211   4.941  1.3199  0.6204  1.3906
  169MOL0     H22764   1.607  -0.068   4.868 -0.2475  0.6010  0.7355
  169MOL0     H22765   1.664   0.036   4.992 -0.4626  2.2032  0.0752
  169MOL0     H22766   1.722  -0.035   4.611  1.9596 -0.1424 -2.2501
  169MOL0     H22767   1.888   0.158   4.427  2.4485  1.3654 -0.8714
  169MOL0     H22768   2.038   0.165   4.484 -2.5973  3.1051  1.3510
  169MOL0     H22769   2.034  -0.004   4.329  1.0638 -0.5747  0.0715
  169MOL0     H22770   1.894  -0.085   4.386 -2.3825  0.7084  2.9612
  169MOL0     H22771   2.028  -0.134   4.610  0.8172 -1.4225  0.9270
  169MOL0     H22772   2.165  -0.065   4.536 -1.0687  0.6417 -0.6493
  169MOL0     H22773   2.008  -0.308   4.405  0.1364 -2.2062  1.5234
  169MOL0     H22774   2.137  -0.325   4.520 -2.2392  0.0568  1.7970
  169MOL0     H22775   2.412  -0.239   4.211  0.5099 -0.8865  0.3632
  169MOL0     H22776   2.532  -0.386   3.942 -0.6200  0.2725 -0.3035
  169MOL0     H22777   2.582  -0.292   4.097 -1.4874  0.4463 -1.6035
  169MOL0     H22778   2.622  -0.461   4.062 -1.1271 -0.7044 -0.0966
  169MOL0     H22779   2.163  -0.945   3.943 -1.1999 -1.2037 -1.8551
  169MOL0     H22780   2.206  -1.173   3.865 -0.9295  2.5804  0.6462
  169MOL0     H22781   2.262  -1.374   3.856  0.0300 -0.5688 -2.1004
  169MOL0     H22782   2.398  -1.480   3.853 -0.4594  0.2545 -0.2548
  169MOL0     H22783   2.322  -1.313   4.086  0.4041  0.3785  1.3029
  169MOL0     H22784   2.371  -1.483   4.066  1.6925 -1.4729 -2.1153
  169MOL0     H22785   2.594  -1.288   4.030 -0.0770  0.5006  0.7522
  169MOL0     H22786   2.599  -1.446   4.107 -0.3877 -0.4559  2.2691
  169MOL0     H22787   2.469  -1.204   4.239  0.6532  1.3526 -2.4683
  169MOL0     H22788   2.463  -1.371   4.295 -0.9761 -0.7349 -2.4194
  169MOL0     H22789   2.722  -1.235   4.211 -2.9604 -1.0983 -2.8790
  169MOL0     H22790   2.721  -1.372   4.324  3.1524  1.7485  1.5905
  169MOL0     H22791   2.593  -1.124   4.429  1.8900  1.8774  0.3638
  169MOL0     H22792   2.660  -1.257   4.525 -0.2130  0.9088  0.4309
  169MOL0     H22793   2.796  -1.059   4.347  0.5266  1.7329  1.1976
  169MOL0     H22794   2.886  -1.197   4.414 -0.5119  1.6581 -2.1277
  169MOL0     H22795   2.809  -0.949   4.584  2.9837  2.6280 -1.6637
  169MOL0     H22796   2.954  -0.999   4.535 -0.1003 -2.1164 -3.3347
  169MOL0     H22797   2.627  -1.110   3.881 -0.5490 -2.5758  0.3910
  169MOL0     H22798   2.588  -0.893   3.984 -1.2866  0.6236  2.5289
  169MOL0     H22799   2.203  -0.675   4.200  1.1533  0.0294  5.3412
  169MOL0     H22800   2.091  -0.498   4.329 -0.4501  0.9692 -0.5155
  169MOL0     H22801   0.521   0.252   4.936  1.8271 -0.3733  0.1146
  169MOL0     H22802   0.313   0.378   4.892  0.1972  0.5986  0.9500
  169MOL0     H22803   0.092   0.787   5.011  2.5053  0.4843 -0.5022
  169MOL0     H22804  -0.114   0.912   4.989 -0.2237 -1.5116  0.6776
  169MOL0     H22805  -0.193   1.056   4.613 -0.2881 -1.3863 -3.7574
  169MOL0     H22806  -0.297   0.923   4.586 -0.7522  2.2888 -3.6074
  169MOL0     H22807  -0.440   1.124   4.576  1.7122 -3.8754 -1.5103
  169MOL0     H22808  -0.374   1.185   4.729  0.9547  1.1958 -0.7610
  169MOL0     H22809  -0.478   1.011   4.847  0.5870  0.1325 -0.9014
  169MOL0     H22810  -0.501   0.904   4.726 -1.1835  0.1086  1.4831
  169MOL0     H22811  -0.668   1.183   4.742 -1.7625  0.3832 -0.5604
  169MOL0     H22812  -0.723   1.024   4.796  0.5582 -1.4228 -0.5648
  169MOL0     H22813  -0.733   0.977   4.378  0.3483 -2.0606  0.0032
  169MOL0     H22814  -0.118   0.803   4.571  2.7517 -1.5436 -0.5559
  169MOL0     H22815   0.076   0.693   4.589 -0.5412  0.1294 -0.1125
  170MOL0     O22816   7.903   1.975   4.375  0.2499  0.2882 -0.2022
  170MOL0     C22817   7.957   1.939   4.275 -0.4333  0.4349 -0.5533
  170MOL0     O22818   7.916   1.962   4.155 -0.3657  0.2248  0.7068
  170MOL0     C22819   7.787   1.994   4.124 -0.5919 -0.0257 -0.3252
  170MOL0     C22820   7.668   1.975   4.204  0.9250 -0.1595  0.1738
  170MOL0     C22821   7.540   2.016   4.156 -0.6098 -0.1799 -0.5841
  170MOL0     C22822   7.525   2.079   4.032  0.1061 -0.0828  0.5681
  170MOL0     O22823   7.400   2.109   3.988 -0.2681  0.1395  0.2314
  170MOL0     C22824   7.308   1.995   3.982  0.1964  0.4932 -0.0357
  170MOL0     C22825   7.196   2.014   3.876  0.0711 -0.5818  0.3289
  170MOL0     C22826   7.060   1.958   3.923  1.0711  0.3320  0.3103
  170MOL0     C22827   6.964   1.946   3.805  0.2022 -0.0658  0.3525
  170MOL0     C22828   6.831   1.905   3.846 -0.9581 -0.4551  0.3704
  170MOL0     C22829   6.751   1.867   3.720  0.4979 -0.8765  0.0452
  170MOL0     C22830   6.609   1.846   3.755 -0.0292  0.3907 -0.0828
  170MOL0     C22831   6.518   1.836   3.640  0.5184  0.5143  0.7231
  170MOL0     N22832   6.381   1.826   3.694 -1.4950 -0.2738 -0.2350
  170MOL0     C22833   6.306   1.929   3.744 -0.0113  0.2519 -0.5209
  170MOL0     C22834   6.182   1.888   3.759 -0.7043  0.2405  0.4266
  170MOL0     C22835   6.077   1.980   3.802  0.3292  0.1324  0.1953
  170MOL0     C22836   5.960   1.912   3.874 -0.2200 -0.1022 -0.4930
  170MOL0     C22837   5.839   1.997   3.850  0.3651  0.2625  0.5124
  170MOL0     C22838   5.707   1.950   3.917 -0.1452 -0.3950  0.1650
  170MOL0     O22839   5.607   2.049   3.897  0.2038  0.0632  0.0691
  170MOL0     C22840   5.483   1.993   3.913  0.9156 -0.0021  0.1262
  170MOL0     C22841   5.449   1.893   4.010  0.2449  0.7100  0.4214
  170MOL0     C22842   5.318   1.852   4.025  0.1434 -0.7865 -0.7689
  170MOL0     C22843   5.298   1.786   4.158  0.0349  0.0520  0.1868
  170MOL0     C22844   5.215   1.900   3.940 -0.4219  0.4354  0.0312
  170MOL0     C22845   5.083   1.841   3.946 -1.1850  0.7015  0.5050
  170MOL0     O22846   5.041   1.785   4.065 -0.7983  0.7561 -0.3127
  170MOL0     C22847   4.919   1.723   4.091 -0.5089  0.9216 -0.0282
  170MOL0     C22848   4.917   1.657   4.210  0.4461 -0.4510  0.2575
  170MOL0     C22849   4.807   1.587   4.258 -0.2998 -0.6427 -0.5110
  170MOL0     C22850   4.701   1.572   4.169  0.4872  1.6231 -0.6319
  170MOL0     O22851   4.594   1.479   4.174  0.3906 -0.1967  0.5817
  170MOL0     C22852   4.555   1.437   4.313 -0.1540 -0.3487 -0.1830
  170MOL0     C22853   4.417   1.355   4.309  0.4438  0.5457 -0.2857
  170MOL0     C22854   4.411   1.237   4.219 -0.6703 -0.2885  0.2352
  170MOL0     C22855   4.278   1.162   4.224 -0.0306  0.6784 -0.3189
  170MOL0     C22856   4.180   1.223   4.121  0.8719  0.8937 -0.1429
  170MOL0     C22857   4.051   1.135   4.112 -0.3620  0.2231  0.4081
  170MOL0     C22858   3.945   1.136   4.224 -0.6605 -0.7292 -1.0564
  170MOL0     C22859   3.868   1.006   4.213  0.5494  0.4266 -0.4973
  170MOL0    Cl22860   3.761   1.000   4.072  0.0255 -0.1013  0.1704
  170MOL0     C22861   4.704   1.646   4.047  0.5228  0.1591 -0.3602
  170MOL0     C22862   4.810   1.713   4.007 -0.1927 -0.4389  0.0399
  170MOL0     O22863   5.018   1.852   3.842  0.1119  0.1527 -0.3206
  170MOL0     C22864   5.254   1.988   3.842  0.3754  0.1128  0.5250
  170MOL0     C22865   5.382   2.036   3.828  0.0209 -0.5675  0.3912
  170MOL0     N22866   6.180   1.753   3.739  0.5004 -0.0052 -0.5141
  170MOL0     N22867   6.299   1.721   3.691  0.4345 -0.1971 -0.5699
  170MOL0     C22868   7.638   2.106   3.961 -0.3657 -0.1795  0.9503
  170MOL0     C22869   7.768   2.056   4.002  0.0620 -1.6370  0.5987
  170MOL0     C22870   8.092   1.874   4.276 -0.1459 -0.2031 -0.2137
  170MOL0     C22871   8.158   1.838   4.163 -0.2082 -0.1989  0.1198
  170MOL0     C22872   8.291   1.813   4.160 -0.2333 -0.5929  0.1694
  170MOL0     C22873   8.366   1.816   4.278  0.0888  0.4417 -0.5744
  170MOL0     O22874   8.499   1.788   4.268  0.1525 -0.0301  0.6294
  170MOL0     C22875   8.577   1.785   4.389 -0.4310 -0.2476  1.7843
  170MOL0     C22876   8.722   1.786   4.330 -0.0112 -0.5233  0.1343
  170MOL0     C22877   8.751   1.668   4.227  0.1628  0.7088 -0.8060
  170MOL0     C22878   8.753   1.527   4.290  0.3880 -0.5079  1.5090
  170MOL0     C22879   8.859   1.499   4.393  0.1604 -0.0431  0.4321
  170MOL0     C22880   8.964   1.491   4.456 -0.1074 -0.0943  0.7254
  170MOL0     C22881   8.295   1.851   4.397 -0.1749  0.1556  0.1718
  170MOL0     C22882   8.164   1.884   4.395  0.2866 -0.1942  0.1299
  170MOL0     H22883   7.674   1.926   4.300  1.5678  0.6659  0.5627
  170MOL0     H22884   7.446   1.989   4.202 -1.0914 -1.7454 -2.3539
  170MOL0     H22885   7.355   1.900   3.956  1.7444  0.8896  1.2030
  170MOL0     H22886   7.269   1.989   4.084  0.5765  0.3815  0.1051
  170MOL0     H22887   7.187   2.115   3.835  2.1676 -0.3372  0.3530
  170MOL0     H22888   7.226   1.944   3.798 -1.4873 -2.2108  1.1462
  170MOL0     H22889   7.076   1.856   3.961  0.0731  0.4948  1.1985
  170MOL0     H22890   7.019   2.021   4.002  2.3692  0.7878  0.6474
  170MOL0     H22891   6.976   2.035   3.743  1.7021 -2.0793 -2.4628
  170MOL0     H22892   7.003   1.872   3.735 -2.9800 -1.0167 -0.5957
  170MOL0     H22893   6.844   1.826   3.921 -0.2516 -0.3382  0.3772
  170MOL0     H22894   6.783   1.993   3.889  0.3078  0.5581 -0.2403
  170MOL0     H22895   6.753   1.953   3.653 -1.8183 -2.4878 -2.2794
  170MOL0     H22896   6.788   1.781   3.663  0.5693 -2.9296  2.9551
  170MOL0     H22897   6.597   1.748   3.802  0.1456  0.1485 -0.5448
  170MOL0     H22898   6.572   1.911   3.836 -2.6946 -3.2456  1.8822
  170MOL0     H22899   6.540   1.751   3.575 -0.7576  2.0343 -1.8793
  170MOL0     H22900   6.514   1.924   3.576  1.4047 -1.9282 -2.9758
  170MOL0     H22901   6.336   2.033   3.753  1.3886 -0.1975  0.3151
  170MOL0     H22902   6.126   2.047   3.873  2.2144 -0.9174 -0.0395
  170MOL0     H22903   6.042   2.036   3.715  0.2948  0.8467  0.6590
  170MOL0     H22904   5.988   1.923   3.979  0.5223  0.8611 -0.7747
  170MOL0     H22905   5.947   1.807   3.847  2.3946 -0.2935 -1.3437
  170MOL0     H22906   5.819   2.006   3.743  1.1786 -1.4669  0.1800
  170MOL0     H22907   5.859   2.101   3.878 -0.6291  0.1879  1.5923
  170MOL0     H22908   5.718   1.943   4.026 -0.3412 -1.8914  0.1123
  170MOL0     H22909   5.674   1.850   3.886  0.9981 -1.7301  2.8190
  170MOL0     H22910   5.530   1.842   4.062 -0.8186 -0.5118  0.9355
  170MOL0     H22911   5.387   1.779   4.221  0.0053 -0.6249  0.1509
  170MOL0     H22912   5.229   1.849   4.215  1.5582  1.7755  0.2322
  170MOL0     H22913   5.252   1.687   4.153  3.7144 -1.9901  2.4902
  170MOL0     H22914   4.987   1.686   4.289  2.3926 -0.4268 -1.3970
  170MOL0     H22915   4.812   1.553   4.361 -1.4970  0.4016 -0.0658
  170MOL0     H22916   4.630   1.372   4.358 -1.5785 -2.9514 -1.3347
  170MOL0     H22917   4.523   1.519   4.378  0.1899 -1.3278  1.2839
  170MOL0     H22918   4.394   1.327   4.412  0.4395 -0.4807 -0.5626
  170MOL0     H22919   4.332   1.421   4.290  0.8534  1.1828  0.0120
  170MOL0     H22920   4.494   1.171   4.247 -0.0861  0.3025 -0.0630
  170MOL0     H22921   4.427   1.269   4.115  0.2388  0.5967  0.6343
  170MOL0     H22922   4.295   1.061   4.186 -2.1162  1.0373 -2.4614
  170MOL0     H22923   4.243   1.169   4.327  1.8033 -2.9608  0.7366
  170MOL0     H22924   4.230   1.224   4.024 -1.3794 -2.8721 -1.5454
  170MOL0     H22925   4.144   1.323   4.148 -2.3103 -0.2275  0.2407
  170MOL0     H22926   3.993   1.163   4.024  0.4793 -0.3912 -0.3721
  170MOL0     H22927   4.087   1.033   4.093 -1.1589 -0.0077  0.1299
  170MOL0     H22928   3.879   1.223   4.216  1.7163  1.4567  1.1377
  170MOL0     H22929   3.993   1.143   4.322 -4.1186  1.4231  0.6776
  170MOL0     H22930   3.812   0.986   4.304  1.6345  0.4348  0.1905
  170MOL0     H22931   3.956   0.941   4.210  1.0607  1.1158 -0.7165
  170MOL0     H22932   4.620   1.634   3.980  0.7320  0.1728 -0.6239
  170MOL0     H22933   4.801   1.767   3.914 -3.1926  1.2431  1.1537
  170MOL0     H22934   5.188   2.038   3.772  1.1397  3.6917  2.1485
  170MOL0     H22935   5.400   2.114   3.755 -3.3149 -0.2694 -0.2580
  170MOL0     H22936   7.623   2.166   3.871 -3.7099  0.1937  1.6206
  170MOL0     H22937   7.857   2.070   3.940 -1.9719 -0.1176 -2.2205
  170MOL0     H22938   8.101   1.839   4.071  0.2124  1.0288 -0.1531
  170MOL0     H22939   8.336   1.784   4.066 -2.3621  0.3729 -1.2329
  170MOL0     H22940   8.559   1.877   4.446  0.4706  1.5037 -0.6036
  170MOL0     H22941   8.564   1.700   4.458 -2.0183 -0.3429  1.4154
  170MOL0     H22942   8.787   1.770   4.416 -0.7192  0.8183  0.9654
  170MOL0     H22943   8.746   1.882   4.283 -0.2107  0.9190  2.7717
  170MOL0     H22944   8.846   1.692   4.177  2.2293  0.0757  2.4959
  170MOL0     H22945   8.680   1.678   4.144  0.2273  0.0255 -0.9491
  170MOL0     H22946   8.759   1.453   4.210  2.0274 -0.8752  1.9428
  170MOL0     H22947   8.657   1.508   4.340  0.1813  1.4199  1.9375
  170MOL0     H22948   9.058   1.490   4.507  0.3100 -1.9523 -0.0015
  170MOL0     H22949   8.343   1.876   4.491 -1.8988  1.7939  0.6849
  170MOL0     H22950   8.110   1.920   4.482  0.4011  0.2879  0.0040
  171MOL0     O22951   1.817   0.118  10.753  0.3179 -0.1479  0.0383
  171MOL0     C22952   1.913   0.131  10.683 -0.0106 -0.1649  0.2346
  171MOL0     O22953   1.990   0.031  10.632 -0.3211 -0.3271  0.2470
  171MOL0     C22954   1.936  -0.098  10.626 -0.0084 -0.6849  0.4340
  171MOL0     C22955   2.007  -0.204  10.690  0.1043  0.7966  0.7636
  171MOL0     C22956   1.946  -0.331  10.681  0.1199  0.0072  0.7713
  171MOL0     C22957   1.820  -0.348  10.619 -0.1046 -0.1366  0.3942
  171MOL0     O22958   1.754  -0.467  10.607  0.8878  0.1586  0.6880
  171MOL0     C22959   1.839  -0.566  10.552 -0.0534  0.5600 -0.2345
  171MOL0     C22960   1.749  -0.689  10.518 -0.7167 -0.7189  0.3512
  171MOL0     C22961   1.646  -0.653  10.411  0.6875 -0.0476 -0.3265
  171MOL0     C22962   1.586  -0.785  10.347  0.0771  0.0027  0.4007
  171MOL0     C22963   1.457  -0.769  10.270 -0.3172 -0.2137  0.3141
  171MOL0     C22964   1.412  -0.911  10.234  0.2137  0.3556 -1.5441
  171MOL0     C22965   1.268  -0.926  10.197 -0.1935 -0.6625 -0.0130
  171MOL0     C22966   1.241  -1.063  10.129  0.3607  0.4253 -0.2676
  171MOL0     N22967   1.097  -1.058  10.099  0.1048  0.2455 -0.4525
  171MOL0     C22968   0.991  -1.052  10.187  0.3595 -0.0543  0.0388
  171MOL0     C22969   0.878  -1.069  10.116 -0.0940  0.3529 -0.1863
  171MOL0     C22970   0.736  -1.068  10.174  0.3720 -0.1604  0.4663
  171MOL0     C22971   0.669  -1.209  10.197 -0.0038 -0.4225 -0.6332
  171MOL0     C22972   0.737  -1.283  10.317 -0.3661 -0.5088 -0.0125
  171MOL0     C22973   0.677  -1.422  10.341 -0.5047  0.1991 -0.7723
  171MOL0     O22974   0.777  -1.519  10.300  0.1805 -0.4177  0.3369
  171MOL0     C22975   0.780  -1.642  10.358 -0.0237  0.0415  0.4006
  171MOL0     C22976   0.889  -1.728  10.324 -0.0685  0.4137  0.8133
  171MOL0     C22977   0.922  -1.853  10.379 -0.3077  0.3604 -0.3180
  171MOL0     C22978   1.044  -1.932  10.324 -0.7934  0.2477 -0.1209
  171MOL0     C22979   0.829  -1.899  10.475  0.4464 -0.2867 -0.3584
  171MOL0     C22980   0.840  -2.032  10.537  0.0601  1.1589 -0.5377
  171MOL0     O22981   0.723  -2.076  10.610  0.0202 -0.7338 -0.6203
  171MOL0     C22982   0.739  -2.168  10.709 -0.2182  0.2661 -0.1856
  171MOL0     C22983   0.690  -2.152  10.845 -0.6643  0.3940  0.2069
  171MOL0     C22984   0.711  -2.251  10.941 -1.2385 -0.0524  0.0201
  171MOL0     C22985   0.786  -2.368  10.914 -0.8266 -0.6811  0.3353
  171MOL0     O22986   0.794  -2.474  11.004 -0.6960 -0.8485  0.5513
  171MOL0     C22987   0.755  -2.603  10.969  0.0998  0.2473 -0.0605
  171MOL0     C22988   0.767  -2.697  11.084  0.3549 -0.2691 -0.3858
  171MOL0     C22989   0.915  -2.714  11.122 -0.1317 -0.3710  1.0444
  171MOL0     C22990   0.928  -2.823  11.230  0.5521 -1.0260  0.8481
  171MOL0     C22991   1.069  -2.883  11.250 -0.0282 -0.3673  0.5458
  171MOL0     C22992   1.059  -2.978  11.369  0.2403  0.3435  0.0338
  171MOL0     C22993   1.182  -3.076  11.396  1.3804  0.1666 -1.1653
  171MOL0     C22994   1.312  -3.015  11.347 -0.4083  0.0203 -0.1014
  171MOL0    Cl22995   1.442  -3.150  11.385 -0.3795 -0.2677 -0.3757
  171MOL0     C22996   0.832  -2.387  10.778 -0.4196 -0.2420 -0.9434
  171MOL0     C22997   0.805  -2.293  10.679 -0.1527 -0.7887  0.9610
  171MOL0     O22998   0.953  -2.084  10.543  0.3071 -0.0860  0.1192
  171MOL0     C22999   0.716  -1.814  10.509  0.7858 -0.5499 -0.2146
  171MOL0     C23000   0.690  -1.686  10.453 -0.4307 -0.3860  0.3266
  171MOL0     N23001   0.926  -1.080   9.985 -0.2534  0.6807  0.0971
  171MOL0     N23002   1.050  -1.067   9.973  0.0480  0.3821  0.2088
  171MOL0     C23003   1.747  -0.232  10.571 -0.3384  0.1049 -0.2961
  171MOL0     C23004   1.806  -0.109  10.573  0.0952  0.0917 -0.8179
  171MOL0     C23005   1.976   0.267  10.668 -0.0576 -0.9204  0.2060
  171MOL0     C23006   1.893   0.381  10.682 -0.6638 -0.0654 -0.0032
  171MOL0     C23007   1.947   0.509  10.661  0.7435  0.6271 -0.4555
  171MOL0     C23008   2.082   0.530  10.642 -0.4300  0.4301 -0.0304
  171MOL0     O23009   2.116   0.664  10.635  0.2925 -0.1680  0.3941
  171MOL0     C23010   2.240   0.701  10.572  0.6003 -0.3739  0.3662
  171MOL0     C23011   2.258   0.852  10.560  0.0946 -0.5290  0.3534
  171MOL0     C23012   2.184   0.910  10.440  0.3041 -0.5732  0.3937
  171MOL0     C23013   2.254   0.863  10.308  0.3141  0.0234 -0.2885
  171MOL0     C23014   2.387   0.919  10.293 -0.3744 -0.1025  0.3060
  171MOL0     C23015   2.500   0.961  10.315 -0.5937  0.7667  0.2835
  171MOL0     C23016   2.169   0.417  10.635 -0.2591  0.2866 -0.9740
  171MOL0     C23017   2.114   0.289  10.650 -0.2193  0.6421 -1.1906
  171MOL0     H23018   2.100  -0.186  10.743  0.0239  1.6871  0.6229
  171MOL0     H23019   1.993  -0.422  10.718 -0.2484 -0.1773  0.7872
  171MOL0     H23020   1.891  -0.535  10.461  1.7747  1.7811  1.1575
  171MOL0     H23021   1.913  -0.603  10.624 -0.0290 -1.4815 -1.2295
  171MOL0     H23022   1.807  -0.777  10.488 -0.5096 -1.8416  3.6562
  171MOL0     H23023   1.704  -0.709  10.616  1.3588 -1.2955  1.2378
  171MOL0     H23024   1.561  -0.614  10.466 -0.3382 -0.3322 -1.6496
  171MOL0     H23025   1.688  -0.586  10.335 -0.8521  2.5652  0.9964
  171MOL0     H23026   1.656  -0.838  10.281 -0.6059  0.7411 -0.9550
  171MOL0     H23027   1.567  -0.849  10.434  2.0663  0.9847  1.6443
  171MOL0     H23028   1.382  -0.724  10.336 -0.1309 -0.2097  0.5258
  171MOL0     H23029   1.472  -0.716  10.176 -0.3752 -1.5302 -0.4495
  171MOL0     H23030   1.479  -0.951  10.158  1.5206 -0.1459 -0.1783
  171MOL0     H23031   1.423  -0.977  10.321  0.6734  1.4126 -0.7789
  171MOL0     H23032   1.197  -0.922  10.280 -0.9206 -1.7016 -0.5624
  171MOL0     H23033   1.241  -0.844  10.131  2.2611  0.1700 -0.0981
  171MOL0     H23034   1.251  -1.151  10.193  0.6292  1.2239  0.8112
  171MOL0     H23035   1.287  -1.077  10.031 -1.6694  0.3055 -1.2611
  171MOL0     H23036   1.000  -1.026  10.292  1.2605 -1.4499  0.3277
  171MOL0     H23037   0.733  -1.009  10.266  1.3486 -1.7283  1.5754
  171MOL0     H23038   0.684  -1.019  10.091  1.8175  0.7118  0.0453
  171MOL0     H23039   0.684  -1.268  10.106  0.4844  1.1186 -1.6067
  171MOL0     H23040   0.560  -1.203  10.203 -0.0745 -1.2064 -0.9797
  171MOL0     H23041   0.724  -1.230  10.412  2.2203 -2.8247  1.7910
  171MOL0     H23042   0.845  -1.279  10.304 -0.4747 -2.0454 -1.7706
  171MOL0     H23043   0.581  -1.430  10.287 -2.4746 -1.0174  2.6193
  171MOL0     H23044   0.664  -1.438  10.448 -0.0054 -2.0657 -1.0019
  171MOL0     H23045   0.933  -1.687  10.234 -2.2888 -0.4944 -0.7465
  171MOL0     H23046   1.090  -1.901  10.230  0.0147 -0.9930 -0.1461
  171MOL0     H23047   1.119  -1.928  10.404 -0.6214  1.0358 -0.3165
  171MOL0     H23048   1.012  -2.035  10.304  2.5624 -1.2337  1.3614
  171MOL0     H23049   0.662  -2.052  10.876  2.1314  1.2346  0.3428
  171MOL0     H23050   0.670  -2.235  11.040 -0.0985  3.8307  0.0470
  171MOL0     H23051   0.652  -2.614  10.932  0.9470  0.4035 -2.6728
  171MOL0     H23052   0.816  -2.644  10.888  0.3778 -0.5558  0.5441
  171MOL0     H23053   0.714  -2.665  11.174  0.6314  1.7890 -0.8996
  171MOL0     H23054   0.718  -2.785  11.042 -0.3791  0.2106 -0.5643
  171MOL0     H23055   0.957  -2.617  11.148 -2.5669  1.8808 -2.4849
  171MOL0     H23056   0.957  -2.747  11.026 -2.3447  0.9352 -0.4695
  171MOL0     H23057   0.886  -2.781  11.321  0.8906 -1.6255  1.2880
  171MOL0     H23058   0.853  -2.900  11.211 -3.4960  2.8088 -0.6762
  171MOL0     H23059   1.137  -2.799  11.267 -1.2162  0.4278  1.5276
  171MOL0     H23060   1.112  -2.943  11.169 -1.0749 -2.0992  1.2156
  171MOL0     H23061   1.045  -2.919  11.460  1.6914 -1.4350  1.4946
  171MOL0     H23062   0.964  -3.031  11.367 -0.1366  0.9233  1.4254
  171MOL0     H23063   1.152  -3.167  11.344  1.2109 -0.8470  0.6033
  171MOL0     H23064   1.199  -3.102  11.501  3.1478 -1.9727 -1.9154
  171MOL0     H23065   1.348  -2.928  11.403 -0.9147 -0.0649  0.3616
  171MOL0     H23066   1.319  -2.987  11.242  0.2215 -0.8394 -0.3079
  171MOL0     H23067   0.897  -2.473  10.760 -0.7132 -0.2829 -1.8603
  171MOL0     H23068   0.846  -2.305  10.580  0.1587 -0.9106  1.1018
  171MOL0     H23069   0.640  -1.846  10.579 -1.7164 -1.7286 -3.2203
  171MOL0     H23070   0.605  -1.636  10.497 -0.6212 -0.9534  0.6231
  171MOL0     H23071   1.643  -0.240  10.540 -0.5572  1.7556 -0.0547
  171MOL0     H23072   1.736  -0.038  10.530 -0.7100 -1.6706 -2.5266
  171MOL0     H23073   1.789   0.370  10.709 -0.5550 -1.9949 -0.2695
  171MOL0     H23074   1.877   0.591  10.656  1.0991  1.0298  0.8006
  171MOL0     H23075   2.318   0.657  10.636  1.9689 -1.3903 -1.8570
  171MOL0     H23076   2.234   0.659  10.471 -1.2298  0.4899  0.0736
  171MOL0     H23077   2.360   0.876  10.526 -0.4491  0.0960 -0.9061
  171MOL0     H23078   2.232   0.907  10.651 -0.7748  0.5948 -0.5366
  171MOL0     H23079   2.184   1.019  10.442  2.0345 -0.5271  0.0147
  171MOL0     H23080   2.082   0.871  10.429  0.2439 -0.1314 -0.7296
  171MOL0     H23081   2.196   0.899  10.222 -0.3616 -0.0444  0.1293
  171MOL0     H23082   2.253   0.754  10.296  1.0481 -0.0600  0.3248
  171MOL0     H23083   2.591   0.997  10.359  0.4280  3.4559 -3.5298
  171MOL0     H23084   2.277   0.422  10.622  0.0430 -1.5539  0.4152
  171MOL0     H23085   2.170   0.196  10.649 -2.2821 -0.8370  2.0299
  172MOL0     O23086   0.916   4.617   8.362  0.1933 -0.6184  0.1549
  172MOL0     C23087   0.949   4.734   8.362  0.1403  0.2718 -0.2034
  172MOL0     O23088   0.869   4.847   8.401 -0.0941  0.1490  0.5241
  172MOL0     C23089   0.736   4.831   8.434 -0.8321 -0.4420  0.6569
  172MOL0     C23090   0.698   4.725   8.513  0.5373 -0.0722  0.2949
  172MOL0     C23091   0.570   4.699   8.544 -0.0698  0.8820 -0.5768
  172MOL0     C23092   0.475   4.770   8.476  0.1195  0.2363 -0.6666
  172MOL0     O23093   0.348   4.737   8.496 -0.9677  0.7520  0.2688
  172MOL0     C23094   0.249   4.744   8.392 -0.7307  0.6272  0.5324
  172MOL0     C23095   0.123   4.716   8.472 -0.7479 -0.3553  0.0306
  172MOL0     C23096   0.001   4.676   8.381 -0.8558 -0.8055  0.0143
  172MOL0     C23097  -0.132   4.663   8.464  0.5235  0.5529 -0.3431
  172MOL0     C23098  -0.131   4.550   8.575  0.0050  0.0747 -0.0465
  172MOL0     C23099  -0.147   4.408   8.538  0.1587 -0.5615 -0.1615
  172MOL0     C23100  -0.032   4.340   8.470 -0.3781  0.8502  0.6544
  172MOL0     C23101  -0.004   4.189   8.494 -0.0838  0.7980  0.5170
  172MOL0     N23102  -0.136   4.120   8.488 -0.8497 -0.1567 -0.8303
  172MOL0     C23103  -0.166   4.035   8.586  0.6421 -0.1777 -0.5621
  172MOL0     C23104  -0.297   3.996   8.571 -0.2373 -0.3162 -1.5764
  172MOL0     C23105  -0.372   3.897   8.647 -0.0752 -0.4087  0.7422
  172MOL0     C23106  -0.499   3.967   8.694  0.3659  0.1698 -0.2584
  172MOL0     C23107  -0.588   3.882   8.780 -0.0922  0.3140 -0.2780
  172MOL0     C23108  -0.711   3.962   8.838  0.1101 -0.6678  0.1036
  172MOL0     O23109  -0.663   4.063   8.930 -0.3663 -0.2674  0.8653
  172MOL0     C23110  -0.756   4.114   9.008 -0.0102  0.6469 -0.7224
  172MOL0     C23111  -0.791   4.052   9.124  1.0329  0.3694 -0.2572
  172MOL0     C23112  -0.886   4.110   9.218 -0.3519 -1.4010  0.8121
  172MOL0     C23113  -0.906   4.040   9.357 -0.0205 -0.1475  0.0013
  172MOL0     C23114  -0.943   4.242   9.188  0.0418  0.1526 -0.1597
  172MOL0     C23115  -1.050   4.311   9.271 -0.4031 -0.0030 -0.2918
  172MOL0     O23116  -1.103   4.423   9.225  0.5639  0.1577  0.6747
  172MOL0     C23117  -1.192   4.505   9.288 -0.6604 -0.4113  0.4070
  172MOL0     C23118  -1.230   4.610   9.201  1.2957 -0.1736  0.5849
  172MOL0     C23119  -1.300   4.725   9.242 -0.1270 -0.3490  0.1879
  172MOL0     C23120  -1.361   4.719   9.371  0.2201 -0.6614 -0.3286
  172MOL0     O23121  -1.445   4.826   9.408  0.8433 -0.2788  0.1014
  172MOL0     C23122  -1.463   4.859   9.539  0.3632  0.4161 -0.3547
  172MOL0     C23123  -1.520   5.005   9.548  0.0367  0.4358 -1.0863
  172MOL0     C23124  -1.400   5.099   9.495  1.4342 -0.1953 -0.6908
  172MOL0     C23125  -1.436   5.250   9.488 -0.1807  0.9105 -0.0074
  172MOL0     C23126  -1.549   5.279   9.392  0.3405  0.2904 -0.6629
  172MOL0     C23127  -1.499   5.278   9.244  0.0860  0.1855  0.0868
  172MOL0     C23128  -1.598   5.326   9.146  0.5136  0.2341  0.2799
  172MOL0     C23129  -1.652   5.462   9.186 -0.0799  0.7783  0.5157
  172MOL0    Cl23130  -1.746   5.536   9.055  0.2961  0.1005 -0.0436
  172MOL0     C23131  -1.321   4.615   9.456  0.7623  0.2426 -0.0701
  172MOL0     C23132  -1.230   4.512   9.424  0.2426 -0.2559  0.5940
  172MOL0     O23133  -1.066   4.265   9.384 -0.3926  0.0788 -0.8664
  172MOL0     C23134  -0.907   4.288   9.064 -0.0404 -1.0971  0.6133
  172MOL0     C23135  -0.816   4.230   8.978  1.2475 -0.1190 -0.0220
  172MOL0     N23136  -0.335   4.044   8.452 -0.4267  0.3721  0.0589
  172MOL0     N23137  -0.243   4.123   8.410 -0.0192 -0.6422  0.6203
  172MOL0     C23138   0.509   4.875   8.396  0.5407 -0.3641 -0.9106
  172MOL0     C23139   0.639   4.912   8.381  0.8025 -0.0474  0.0600
  172MOL0     C23140   1.084   4.756   8.328 -0.9279  0.6961 -0.6938
  172MOL0     C23141   1.165   4.659   8.270 -0.7036  0.8022  0.4295
  172MOL0     C23142   1.298   4.681   8.246 -0.9987  0.2818  0.7234
  172MOL0     C23143   1.346   4.808   8.257  0.0575 -0.2608 -0.3657
  172MOL0     O23144   1.473   4.850   8.211  0.6097 -0.3161  0.2518
  172MOL0     C23145   1.589   4.791   8.265  1.4439 -0.8015  0.4477
  172MOL0     C23146   1.606   4.833   8.408  0.2683  0.2104  0.0528
  172MOL0     C23147   1.651   4.978   8.419 -1.0646 -0.1132 -0.7818
  172MOL0     C23148   1.649   5.013   8.559  0.8490  0.1080 -0.9895
  172MOL0     C23149   1.726   4.939   8.666 -0.6114  0.0954 -0.2841
  172MOL0     C23150   1.772   4.890   8.765  0.1534  0.4668  0.2919
  172MOL0     C23151   1.271   4.907   8.324  0.1040 -0.1411  1.0244
  172MOL0     C23152   1.135   4.883   8.362  0.3700  0.2065  0.3252
  172MOL0     H23153   0.775   4.659   8.552  1.8012  0.7882 -0.6498
  172MOL0     H23154   0.548   4.616   8.611 -1.0022 -1.2302 -3.2703
  172MOL0     H23155   0.253   4.838   8.336  0.7751 -0.4867 -1.3521
  172MOL0     H23156   0.267   4.669   8.315 -0.2313  1.2829 -0.0049
  172MOL0     H23157   0.143   4.629   8.535 -0.6158 -1.6665 -1.7568
  172MOL0     H23158   0.098   4.791   8.547 -0.9341 -0.0401 -0.3414
  172MOL0     H23159   0.003   4.742   8.294 -0.8595 -0.2992  0.3977
  172MOL0     H23160   0.033   4.575   8.352  1.9038 -0.4341  1.4031
  172MOL0     H23161  -0.145   4.758   8.516 -1.9543 -0.7597  1.6550
  172MOL0     H23162  -0.216   4.637   8.399  0.4854 -1.5356  0.4639
  172MOL0     H23163  -0.047   4.556   8.645  3.8863 -1.6069 -4.1015
  172MOL0     H23164  -0.226   4.576   8.622  0.7745  2.0565  0.5071
  172MOL0     H23165  -0.190   4.350   8.620  0.5151 -2.6814 -1.3966
  172MOL0     H23166  -0.234   4.412   8.472 -2.0263  2.3860  2.5855
  172MOL0     H23167  -0.064   4.350   8.366  0.2181 -0.4279  0.3394
  172MOL0     H23168   0.059   4.400   8.482 -0.0554  0.5481 -0.1956
  172MOL0     H23169   0.041   4.165   8.591 -0.7359 -0.4168  0.5374
  172MOL0     H23170   0.062   4.147   8.418 -2.4482  1.2532 -1.9413
  172MOL0     H23171  -0.111   4.007   8.675 -1.6616 -1.2102  0.6164
  172MOL0     H23172  -0.396   3.805   8.593 -1.8056  1.0011 -1.0535
  172MOL0     H23173  -0.313   3.862   8.733  1.0066  0.4001  0.3452
  172MOL0     H23174  -0.555   4.001   8.606  0.7997  2.0258  0.1410
  172MOL0     H23175  -0.462   4.054   8.748  0.3185  0.9203 -1.3987
  172MOL0     H23176  -0.532   3.852   8.869 -2.0572 -1.1228  0.5377
  172MOL0     H23177  -0.610   3.786   8.733 -1.2699  0.6342 -0.4123
  172MOL0     H23178  -0.779   3.894   8.892 -0.5212 -1.1956 -1.3056
  172MOL0     H23179  -0.772   4.005   8.758  2.2403  0.8886 -0.7553
  172MOL0     H23180  -0.745   3.957   9.146  1.7109 -0.0365 -3.0355
  172MOL0     H23181  -0.853   3.944   9.354  1.1985  0.5139 -0.4205
  172MOL0     H23182  -0.881   4.101   9.444  2.0202  1.6411 -1.7241
  172MOL0     H23183  -1.014   4.022   9.359 -0.1741  0.7784  1.6704
  172MOL0     H23184  -1.175   4.606   9.107 -0.1999 -1.6500 -0.2939
  172MOL0     H23185  -1.327   4.808   9.177 -0.1337  0.3231  1.0234
  172MOL0     H23186  -1.533   4.787   9.582 -0.8211  1.9139  0.3238
  172MOL0     H23187  -1.369   4.849   9.594 -0.6175 -0.6438  1.2157
  172MOL0     H23188  -1.600   5.012   9.475  2.1883 -1.7521 -3.8873
  172MOL0     H23189  -1.553   5.030   9.650 -0.9317 -1.1551 -0.9755
  172MOL0     H23190  -1.381   5.063   9.393 -0.9791  0.7081 -1.5387
  172MOL0     H23191  -1.321   5.068   9.563  0.4467 -2.6352 -0.5529
  172MOL0     H23192  -1.461   5.288   9.588  1.3518 -0.9183  1.1538
  172MOL0     H23193  -1.350   5.301   9.445 -0.3988  1.5857  0.3543
  172MOL0     H23194  -1.605   5.362   9.436  0.2480 -1.3294  2.5864
  172MOL0     H23195  -1.627   5.203   9.400  0.3269  0.4860  1.9425
  172MOL0     H23196  -1.413   5.343   9.230 -1.5244  2.6451  0.9268
  172MOL0     H23197  -1.480   5.173   9.219  1.4277  0.4048  0.1544
  172MOL0     H23198  -1.671   5.247   9.128 -1.0283  1.4661  0.8981
  172MOL0     H23199  -1.549   5.343   9.049 -0.3861  1.2772 -0.0194
  172MOL0     H23200  -1.567   5.527   9.211  2.0635 -0.6316 -2.4192
  172MOL0     H23201  -1.718   5.438   9.270 -1.1513 -1.9995 -0.9773
  172MOL0     H23202  -1.363   4.612   9.557  0.6201  0.0505 -0.1350
  172MOL0     H23203  -1.214   4.431   9.494  0.8308  0.3708  1.1982
  172MOL0     H23204  -0.957   4.379   9.029  0.9782 -0.2674  1.2658
  172MOL0     H23205  -0.782   4.286   8.891  1.0010  1.1898  0.6839
  172MOL0     H23206   0.427   4.926   8.345 -0.5038  0.9670  1.8825
  172MOL0     H23207   0.658   5.001   8.322 -0.2186  1.1983  1.5254
  172MOL0     H23208   1.132   4.558   8.248  1.3335  0.4299 -1.3096
  172MOL0     H23209   1.352   4.611   8.183 -0.9929 -0.6926  1.7599
  172MOL0     H23210   1.572   4.683   8.260 -1.4201 -0.4579  0.5357
  172MOL0     H23211   1.672   4.824   8.202 -1.4546  3.0059 -1.8231
  172MOL0     H23212   1.681   4.768   8.454  1.1841  1.2393  0.0402
  172MOL0     H23213   1.512   4.818   8.462  0.3176  3.4028  1.2756
  172MOL0     H23214   1.580   5.040   8.364 -1.7651  1.0903  1.3685
  172MOL0     H23215   1.756   4.995   8.393 -0.6282  0.5876  1.2528
  172MOL0     H23216   1.546   5.014   8.598  2.5822 -0.3965  4.4635
  172MOL0     H23217   1.678   5.119   8.562  0.2104  0.2719 -0.3588
  172MOL0     H23218   1.811   4.846   8.854 -0.5201 -1.9260 -0.5110
  172MOL0     H23219   1.328   4.999   8.324 -0.4882  0.3124 -1.9023
  172MOL0     H23220   1.064   4.951   8.409 -3.9773 -2.3285 -1.8836
  173MOL0     O23221  11.133   6.542   1.206  0.6152 -0.3178 -0.5607
  173MOL0     C23222  11.081   6.582   1.312 -0.2357 -0.9209  0.4095
  173MOL0     O23223  11.145   6.653   1.413  0.3547 -0.4923 -0.3401
  173MOL0     C23224  11.267   6.721   1.401 -0.8613  0.3540  0.0028
  173MOL0     C23225  11.253   6.859   1.407  0.3923  0.8107  0.1885
  173MOL0     C23226  11.368   6.935   1.412 -0.5620 -0.8177 -0.1081
  173MOL0     C23227  11.499   6.880   1.381  0.6569 -1.2869  0.3637
  173MOL0     O23228  11.604   6.959   1.378  0.1381 -0.3503  1.1275
  173MOL0     C23229  11.700   6.920   1.283 -0.1204  0.0568 -0.1562
  173MOL0     C23230  11.810   7.027   1.267 -0.1653  0.6476  0.0344
  173MOL0     C23231  11.761   7.154   1.206 -0.1235  0.1212 -0.6703
  173MOL0     C23232  11.746   7.154   1.047  0.5857  0.1160 -0.1242
  173MOL0     C23233  11.655   7.277   1.005  0.0619 -0.3067 -0.2054
  173MOL0     C23234  11.508   7.280   1.062 -0.0815  0.4451  0.1939
  173MOL0     C23235  11.424   7.152   1.034  0.0518  0.5257 -0.1942
  173MOL0     C23236  11.282   7.189   1.078 -0.3459  1.2809 -0.0262
  173MOL0     N23237  11.206   7.064   1.095 -0.5342 -0.9311  0.0175
  173MOL0     C23238  11.087   7.048   1.160 -0.2960  0.4999 -0.2400
  173MOL0     C23239  11.044   6.921   1.126  0.2665  0.2915  0.1937
  173MOL0     C23240  10.910   6.871   1.178 -0.7501 -0.3422 -0.1510
  173MOL0     C23241  10.795   6.947   1.116  0.2288 -0.1767 -0.0620
  173MOL0     C23242  10.664   6.881   1.166  0.2579 -0.3133 -0.7455
  173MOL0     C23243  10.546   6.980   1.132  0.2860  0.2253  0.2085
  173MOL0     O23244  10.446   6.966   1.230 -0.9429  0.7891  0.6052
  173MOL0     C23245  10.322   7.000   1.194  0.1583  0.5997  0.1916
  173MOL0     C23246  10.293   7.125   1.126  0.3171  0.4507 -0.1060
  173MOL0     C23247  10.157   7.142   1.076 -0.5608 -0.1617 -0.1756
  173MOL0     C23248  10.130   7.283   1.021  0.1922 -0.0956 -0.0158
  173MOL0     C23249  10.055   7.042   1.101  0.8606  0.3592  0.4904
  173MOL0     C23250   9.917   7.060   1.055  0.7668  1.3424 -0.8572
  173MOL0     O23251   9.817   6.995   1.120 -0.2046 -0.1255 -0.0895
  173MOL0     C23252   9.681   7.013   1.082 -0.0744  0.0029  0.7079
  173MOL0     C23253   9.608   6.893   1.084 -0.0712 -0.7370  0.8216
  173MOL0     C23254   9.476   6.902   1.049  0.3645 -0.5101  0.5892
  173MOL0     C23255   9.411   7.018   0.998 -0.2324  0.2997  0.0221
  173MOL0     O23256   9.284   7.023   0.944 -0.2922  0.2134 -0.3666
  173MOL0     C23257   9.206   6.908   0.941  0.0646 -0.4564  0.3789
  173MOL0     C23258   9.064   6.942   0.877  0.1023  0.2260  0.2292
  173MOL0     C23259   9.000   6.805   0.837  0.0354 -0.1598  0.3261
  173MOL0     C23260   8.855   6.834   0.779 -0.0321  0.6125  0.0576
  173MOL0     C23261   8.770   6.705   0.758  0.4694 -0.9936 -0.7951
  173MOL0     C23262   8.635   6.745   0.694 -0.1909 -0.3785  0.0054
  173MOL0     C23263   8.529   6.628   0.691 -0.3307 -0.1395  0.2825
  173MOL0     C23264   8.551   6.496   0.612  0.6742  0.0921  0.0222
  173MOL0    Cl23265   8.391   6.415   0.601  0.6179 -0.0844  0.1293
  173MOL0     C23266   9.489   7.130   1.002 -0.4739 -0.1784  0.2444
  173MOL0     C23267   9.622   7.134   1.057 -0.0779  0.1318 -0.5111
  173MOL0     O23268   9.901   7.124   0.950 -0.3610  0.4050  0.0682
  173MOL0     C23269  10.096   6.923   1.154 -0.1377  0.3509 -0.4581
  173MOL0     C23270  10.226   6.900   1.206  0.1152 -0.2766  0.2115
  173MOL0     N23271  11.121   6.871   1.018 -0.3246 -0.0165 -0.7423
  173MOL0     N23272  11.217   6.962   1.008  0.0385 -0.0835  0.3102
  173MOL0     C23273  11.504   6.741   1.366 -0.1412  0.5634  0.2624
  173MOL0     C23274  11.388   6.665   1.377  0.5676 -0.4964 -1.0957
  173MOL0     C23275  10.941   6.540   1.328 -0.4386 -0.0154 -0.3428
  173MOL0     C23276  10.867   6.575   1.445 -0.0515  1.2687 -0.1606
  173MOL0     C23277  10.729   6.534   1.458 -0.8291  0.0834  0.2771
  173MOL0     C23278  10.668   6.460   1.360 -0.0156 -0.5657  0.2327
  173MOL0     O23279  10.536   6.423   1.381 -0.7087 -0.1604  0.6080
  173MOL0     C23280  10.455   6.413   1.264 -1.3972  0.1988 -0.3331
  173MOL0     C23281  10.303   6.428   1.290  0.2357 -0.4401  0.8869
  173MOL0     C23282  10.231   6.460   1.159  0.4365  0.6574  0.0272
  173MOL0     C23283  10.081   6.409   1.174 -0.3497  0.5209 -0.1096
  173MOL0     C23284  10.006   6.472   1.286  0.5361  0.0588  0.5608
  173MOL0     C23285   9.944   6.537   1.376 -0.3174  0.2559 -0.9542
  173MOL0     C23286  10.739   6.435   1.248 -0.1771  0.9871  0.6400
  173MOL0     C23287  10.867   6.477   1.233  0.1904  0.5407  0.7120
  173MOL0     H23288  11.156   6.904   1.422 -0.7754 -0.8910 -1.6253
  173MOL0     H23289  11.355   7.043   1.415 -1.0972 -0.8779  3.5487
  173MOL0     H23290  11.758   6.839   1.327  1.5592  1.6473  0.6570
  173MOL0     H23291  11.656   6.895   1.185  1.0180  0.1903 -0.7136
  173MOL0     H23292  11.856   7.053   1.363  0.2752 -0.3483  0.1050
  173MOL0     H23293  11.891   6.983   1.210 -0.0262  2.2586 -1.0838
  173MOL0     H23294  11.666   7.168   1.259  1.2226  0.2219  1.8688
  173MOL0     H23295  11.828   7.237   1.231  2.1001 -1.5972 -0.5827
  173MOL0     H23296  11.840   7.173   0.995 -1.0024  5.5776 -1.7014
  173MOL0     H23297  11.712   7.054   1.021 -2.8043  0.8655  0.9537
  173MOL0     H23298  11.695   7.371   1.044  0.8605  0.1538 -2.0359
  173MOL0     H23299  11.646   7.289   0.897  0.2907  1.0339 -0.0919
  173MOL0     H23300  11.516   7.299   1.169 -2.7629  6.9665 -0.3484
  173MOL0     H23301  11.462   7.365   1.011 -2.5873 -1.6675 -1.3141
  173MOL0     H23302  11.421   7.119   0.930  0.6568  2.0206 -0.7112
  173MOL0     H23303  11.468   7.072   1.094  2.7750  2.6056  0.7966
  173MOL0     H23304  11.230   7.252   1.005 -0.0963  1.0911 -0.3654
  173MOL0     H23305  11.278   7.249   1.169 -2.6434  0.7650  0.2760
  173MOL0     H23306  11.033   7.127   1.212  1.1009  2.1444 -1.1958
  173MOL0     H23307  10.909   6.763   1.163  0.1446 -0.8541  2.8958
  173MOL0     H23308  10.895   6.885   1.286 -2.2772  2.6151 -0.6390
  173MOL0     H23309  10.795   6.929   1.008 -1.4984 -1.8056  0.1661
  173MOL0     H23310  10.796   7.054   1.142 -2.6406  0.2996 -1.5694
  173MOL0     H23311  10.664   6.859   1.273 -0.9737 -1.3024 -0.9225
  173MOL0     H23312  10.650   6.778   1.132 -2.2933 -1.4591  3.1066
  173MOL0     H23313  10.510   6.969   1.029 -1.5621 -0.3289  0.8798
  173MOL0     H23314  10.593   7.078   1.138  1.2729 -0.2372  0.3482
  173MOL0     H23315  10.375   7.195   1.118  1.6726 -1.2097 -1.5007
  173MOL0     H23316  10.209   7.348   1.058 -0.1634  0.4750 -0.2511
  173MOL0     H23317  10.124   7.287   0.912 -1.7717 -1.0793  0.0010
  173MOL0     H23318  10.038   7.328   1.061  0.2239 -0.8120  0.8950
  173MOL0     H23319   9.658   6.802   1.116 -0.9027 -1.2090  0.8124
  173MOL0     H23320   9.425   6.806   1.044 -0.2899 -0.1170 -0.9981
  173MOL0     H23321   9.252   6.831   0.878 -1.7526 -3.4770  2.4733
  173MOL0     H23322   9.194   6.874   1.045  0.9976  1.3813  1.1357
  173MOL0     H23323   8.988   6.969   0.950  1.7239  0.9467  1.7035
  173MOL0     H23324   9.073   7.019   0.800  0.6894  3.5362  3.3721
  173MOL0     H23325   8.997   6.740   0.925 -0.6760 -3.6494 -2.0647
  173MOL0     H23326   9.051   6.752   0.757  2.2496  1.3952  0.6193
  173MOL0     H23327   8.801   6.888   0.857  0.1728 -0.8419  1.2393
  173MOL0     H23328   8.866   6.896   0.690  3.3219 -1.1511 -0.9109
  173MOL0     H23329   8.758   6.657   0.856  3.0792  1.6265  0.9854
  173MOL0     H23330   8.828   6.631   0.703  1.4789 -0.8474  0.0316
  173MOL0     H23331   8.587   6.827   0.748 -1.4439 -0.5117 -0.8656
  173MOL0     H23332   8.666   6.776   0.594  0.9341  0.3236  0.5471
  173MOL0     H23333   8.433   6.663   0.650 -0.0319  0.0268 -0.2860
  173MOL0     H23334   8.507   6.606   0.796 -1.9617 -1.0680 -0.2126
  173MOL0     H23335   8.619   6.436   0.673  1.0137 -0.4092 -0.8297
  173MOL0     H23336   8.587   6.506   0.510 -1.3378 -2.7563 -1.0938
  173MOL0     H23337   9.447   7.223   0.967 -0.3929 -1.1567 -2.7275
  173MOL0     H23338   9.692   7.217   1.056  0.3263 -0.2045 -0.7360
  173MOL0     H23339  10.031   6.836   1.156  0.2034  0.0426  2.7728
  173MOL0     H23340  10.250   6.804   1.251  1.6399  0.2871  0.6671
  173MOL0     H23341  11.593   6.683   1.343 -0.2686  0.2441  0.5698
  173MOL0     H23342  11.388   6.557   1.376  1.3118 -0.5183 -0.0518
  173MOL0     H23343  10.916   6.626   1.528 -0.1027 -1.8078  1.9433
  173MOL0     H23344  10.679   6.576   1.545  2.5046 -1.2255  3.0754
  173MOL0     H23345  10.475   6.489   1.188 -1.9737  3.3145  2.4085
  173MOL0     H23346  10.469   6.315   1.217 -2.0261 -0.5368  0.9549
  173MOL0     H23347  10.280   6.511   1.357  0.7250  0.5791 -0.1539
  173MOL0     H23348  10.275   6.335   1.339  1.1938 -0.6429  1.0796
  173MOL0     H23349  10.264   6.390   1.082  0.1888 -0.0779  0.5872
  173MOL0     H23350  10.240   6.567   1.135  1.6902  1.2379  2.6939
  173MOL0     H23351  10.079   6.300   1.186 -0.1372  0.5164 -0.1095
  173MOL0     H23352  10.026   6.409   1.079 -0.6319 -1.6787 -0.0077
  173MOL0     H23353   9.894   6.595   1.451  0.8062  0.4639 -0.3482
  173MOL0     H23354  10.691   6.374   1.172 -1.6413 -0.3694  2.5456
  173MOL0     H23355  10.918   6.449   1.142  0.6983  0.0861  1.1354
  174MOL0     O23356   5.508   5.853   9.174 -0.1741 -0.0827 -0.3720
  174MOL0     C23357   5.416   5.779   9.133  0.2467  0.7543 -0.0519
  174MOL0     O23358   5.291   5.766   9.192  0.6338  0.0999  0.5708
  174MOL0     C23359   5.241   5.841   9.291 -0.5821 -0.2846  0.9461
  174MOL0     C23360   5.292   5.958   9.341 -0.7158  0.3045 -0.1873
  174MOL0     C23361   5.218   6.025   9.435 -0.6404  0.1079 -0.9482
  174MOL0     C23362   5.099   5.978   9.493 -0.8064  1.3998  0.6152
  174MOL0     O23363   5.009   6.030   9.582 -0.5255 -0.5499  0.2992
  174MOL0     C23364   4.976   6.165   9.552  0.5019 -0.0301  0.3847
  174MOL0     C23365   4.881   6.230   9.648  0.6611  0.4343 -0.5635
  174MOL0     C23366   4.747   6.157   9.672 -0.6477 -0.4583 -0.3437
  174MOL0     C23367   4.669   6.249   9.770 -0.4289 -0.0951  0.1137
  174MOL0     C23368   4.546   6.177   9.827  0.0388 -0.7664 -0.4175
  174MOL0     C23369   4.450   6.148   9.711 -0.4322  0.5785  0.8054
  174MOL0     C23370   4.318   6.091   9.769  0.2837 -0.9224 -0.7494
  174MOL0     C23371   4.217   6.048   9.661  0.3337  0.4534 -0.3009
  174MOL0     N23372   4.106   5.975   9.738 -0.1167 -0.6979  0.7557
  174MOL0     C23373   3.978   6.009   9.758  0.7439  0.1076  0.0322
  174MOL0     C23374   3.911   5.909   9.826 -0.3325  0.2654 -0.5020
  174MOL0     C23375   3.778   5.898   9.899 -0.2443 -0.0997 -0.3811
  174MOL0     C23376   3.681   6.019   9.877  0.8090 -0.7891  0.0597
  174MOL0     C23377   3.541   5.981   9.917  0.3979  0.5282  0.5239
  174MOL0     C23378   3.439   6.084   9.872  0.0698  0.0508  0.3289
  174MOL0     O23379   3.310   6.056   9.930  0.3308 -0.1348  0.3207
  174MOL0     C23380   3.213   6.148   9.911 -0.5730 -0.0403 -0.9055
  174MOL0     C23381   3.233   6.277   9.862 -0.0197 -0.0558  0.2102
  174MOL0     C23382   3.134   6.376   9.855  0.5447 -0.1140 -0.4410
  174MOL0     C23383   3.164   6.508   9.804 -0.1218 -0.4167 -0.3292
  174MOL0     C23384   3.009   6.338   9.913  1.4829  0.2297  0.5114
  174MOL0     C23385   2.887   6.418   9.901  0.6909 -0.1868  0.4218
  174MOL0     O23386   2.859   6.465   9.774  0.3368 -0.8209  0.2849
  174MOL0     C23387   2.767   6.562   9.753 -0.2181  0.2661  0.2073
  174MOL0     C23388   2.676   6.537   9.640 -0.1355  0.2560  0.4648
  174MOL0     C23389   2.577   6.621   9.620  0.7207  0.0177  0.4806
  174MOL0     C23390   2.556   6.734   9.700  0.0458  0.2411 -0.7684
  174MOL0     O23391   2.450   6.819   9.666 -0.2551 -0.0726  0.4936
  174MOL0     C23392   2.429   6.941   9.733  0.1129  0.2249 -0.2422
  174MOL0     C23393   2.312   7.013   9.665 -0.2074 -0.6749  0.1299
  174MOL0     C23394   2.182   6.935   9.670  0.3054  0.9012  1.3110
  174MOL0     C23395   2.081   7.002   9.574 -0.1407 -0.1060 -1.2194
  174MOL0     C23396   1.935   6.955   9.587 -0.5571 -0.4017 -0.3927
  174MOL0     C23397   1.897   6.971   9.737  0.6514  0.3132 -0.1187
  174MOL0     C23398   1.914   7.109   9.790 -0.4489  0.4124 -0.3725
  174MOL0     C23399   1.879   7.134   9.931 -0.1807  0.1491  1.0221
  174MOL0    Cl23400   1.968   7.018  10.036  0.0655  0.4185 -0.0511
  174MOL0     C23401   2.628   6.754   9.814 -0.5017 -0.7412 -0.0488
  174MOL0     C23402   2.739   6.673   9.835  0.6495 -0.3772 -0.1390
  174MOL0     O23403   2.821   6.436  10.002  0.3738  0.5765  0.4099
  174MOL0     C23404   2.988   6.211   9.976  0.1869  0.1392 -0.4703
  174MOL0     C23405   3.098   6.119   9.978  1.0893 -0.0020  0.3670
  174MOL0     N23406   4.001   5.809   9.838  0.5614 -0.6652  0.4719
  174MOL0     N23407   4.113   5.856   9.794 -0.1881 -0.1541  0.7396
  174MOL0     C23408   5.066   5.850   9.447 -0.6302 -0.1946  0.6281
  174MOL0     C23409   5.132   5.784   9.347 -0.0902  0.4725 -0.3161
  174MOL0     C23410   5.446   5.693   9.024 -0.0177 -0.9896 -0.2287
  174MOL0     C23411   5.350   5.597   8.975  0.0487 -0.1904  0.6899
  174MOL0     C23412   5.375   5.524   8.864 -0.3825 -0.0763  0.5141
  174MOL0     C23413   5.503   5.543   8.800  0.1766  0.8116 -0.1193
  174MOL0     O23414   5.544   5.477   8.682 -0.6825 -0.6861  0.2807
  174MOL0     C23415   5.469   5.366   8.646  0.1718  0.4917 -0.1330
  174MOL0     C23416   5.489   5.247   8.745  0.1191  0.7879  0.4729
  174MOL0     C23417   5.414   5.114   8.695  0.0233  0.5356  0.2505
  174MOL0     C23418   5.413   5.006   8.805  0.3352  0.0949  1.0925
  174MOL0     C23419   5.549   4.956   8.806 -0.8833 -0.1693 -0.3602
  174MOL0     C23420   5.659   4.906   8.797 -0.2696 -0.1765  0.3800
  174MOL0     C23421   5.600   5.634   8.848  0.1831 -0.6087  0.8072
  174MOL0     C23422   5.570   5.702   8.959 -0.1927 -0.8371  0.7242
  174MOL0     H23423   5.388   5.996   9.308  0.0383 -1.9618 -0.7603
  174MOL0     H23424   5.269   6.117   9.462 -0.2760 -0.5808  0.8055
  174MOL0     H23425   5.062   6.232   9.562 -0.1974  0.7903  0.9838
  174MOL0     H23426   4.939   6.159   9.450 -2.2553  2.4999  1.1070
  174MOL0     H23427   4.930   6.208   9.744 -0.0315 -0.8926 -0.4926
  174MOL0     H23428   4.863   6.336   9.633  2.3438  0.8886  0.2993
  174MOL0     H23429   4.705   6.141   9.571 -2.5717 -0.1364  0.3553
  174MOL0     H23430   4.765   6.061   9.721  0.5273  0.8179  1.8793
  174MOL0     H23431   4.733   6.285   9.852  0.6915  1.0913 -1.2417
  174MOL0     H23432   4.638   6.342   9.721  0.5204 -0.2853 -0.8762
  174MOL0     H23433   4.574   6.084   9.878 -1.4045 -0.6444  0.6539
  174MOL0     H23434   4.500   6.250   9.894 -2.5980 -0.5383 -2.2933
  174MOL0     H23435   4.430   6.243   9.660 -0.7946 -0.0166 -0.1957
  174MOL0     H23436   4.484   6.079   9.634  1.1950  3.1442 -0.9619
  174MOL0     H23437   4.331   6.011   9.842 -4.3325 -0.0691  1.3507
  174MOL0     H23438   4.262   6.173   9.815 -3.1929 -2.0841 -2.4754
  174MOL0     H23439   4.252   5.971   9.591  1.9384  1.0116 -0.1494
  174MOL0     H23440   4.189   6.134   9.601  0.0917  1.2044  0.8499
  174MOL0     H23441   3.916   6.094   9.731 -0.5924 -0.2069  1.9619
  174MOL0     H23442   3.728   5.807   9.868 -0.7052 -0.3269  0.9660
  174MOL0     H23443   3.798   5.886  10.006  1.8259  0.0285 -0.7107
  174MOL0     H23444   3.682   6.048   9.771 -0.0128 -2.0580 -0.3275
  174MOL0     H23445   3.716   6.099   9.943 -0.1634 -0.6238  0.3789
  174MOL0     H23446   3.525   5.960  10.023  0.5926 -1.5962  0.1800
  174MOL0     H23447   3.518   5.893   9.856 -1.1385  1.5498 -0.4295
  174MOL0     H23448   3.434   6.086   9.763  0.4614  1.9196  0.3133
  174MOL0     H23449   3.474   6.182   9.907 -0.8689 -0.1225  1.8388
  174MOL0     H23450   3.327   6.303   9.815  0.7014 -1.2552  0.9373
  174MOL0     H23451   3.183   6.587   9.877  0.0101  2.2100 -3.0511
  174MOL0     H23452   3.255   6.509   9.744 -1.4087  0.5702 -2.4000
  174MOL0     H23453   3.092   6.551   9.734 -0.2009  0.8325  0.4966
  174MOL0     H23454   2.687   6.448   9.579 -1.8962 -0.3765  1.0138
  174MOL0     H23455   2.513   6.614   9.532  0.6099  0.4863  0.5202
  174MOL0     H23456   2.404   6.936   9.839  0.6296 -0.0185 -0.1246
  174MOL0     H23457   2.509   7.013   9.716 -0.2393  0.4566 -0.9665
  174MOL0     H23458   2.298   7.103   9.726  3.0638 -1.0265  1.5581
  174MOL0     H23459   2.338   7.045   9.563  1.3437 -0.8518  0.4624
  174MOL0     H23460   2.146   6.924   9.773  0.0205  0.9127  1.2136
  174MOL0     H23461   2.196   6.837   9.623 -4.9416  0.7980 -0.6744
  174MOL0     H23462   2.074   7.108   9.598 -2.7739 -0.0409 -1.9932
  174MOL0     H23463   2.121   7.008   9.472 -1.5302 -1.3853 -1.8821
  174MOL0     H23464   1.929   6.853   9.547  3.0814 -0.3931 -1.2798
  174MOL0     H23465   1.866   7.020   9.531 -0.5197  0.0526  0.0844
  174MOL0     H23466   1.795   6.946   9.766  0.7281  0.4342  0.2602
  174MOL0     H23467   1.959   6.897   9.789  0.8219  0.0259 -0.7202
  174MOL0     H23468   1.851   7.176   9.730 -1.2490 -0.6496 -0.7587
  174MOL0     H23469   2.018   7.140   9.786  0.4354 -2.4465 -3.2444
  174MOL0     H23470   1.772   7.115   9.942  0.0468 -0.1988  2.8973
  174MOL0     H23471   1.910   7.236   9.957 -0.6878  1.0754 -1.6591
  174MOL0     H23472   2.607   6.837   9.880 -0.3443 -0.5078 -0.2961
  174MOL0     H23473   2.807   6.678   9.920  0.3274 -2.1365  0.2447
  174MOL0     H23474   2.894   6.188  10.026  0.1455  2.1357  0.4549
  174MOL0     H23475   3.089   6.027  10.034 -1.9903  0.1275  0.2602
  174MOL0     H23476   4.972   5.807   9.481 -0.8788  1.7749  2.7247
  174MOL0     H23477   5.092   5.689   9.313  0.8404 -0.2050  0.4257
  174MOL0     H23478   5.253   5.591   9.023 -0.5101  1.3937 -0.1634
  174MOL0     H23479   5.310   5.456   8.809  0.1926  0.8681 -1.3970
  174MOL0     H23480   5.366   5.391   8.620 -0.5214  0.2013  2.1823
  174MOL0     H23481   5.504   5.328   8.549 -2.7357  0.7366 -1.3896
  174MOL0     H23482   5.436   5.258   8.840  2.2920  0.2750  1.8032
  174MOL0     H23483   5.594   5.223   8.763  0.0756  0.5591  0.4206
  174MOL0     H23484   5.461   5.077   8.603 -0.1116 -0.2976  0.5116
  174MOL0     H23485   5.311   5.148   8.679 -0.2429 -1.1083 -2.0466
  174MOL0     H23486   5.342   4.929   8.773  0.9624  0.1628 -0.5688
  174MOL0     H23487   5.390   5.040   8.907 -1.0229 -1.2062  1.2509
  174MOL0     H23488   5.756   4.869   8.771 -2.0070 -4.9993 -0.3792
  174MOL0     H23489   5.699   5.650   8.807 -0.9578 -0.4946 -2.1408
  174MOL0     H23490   5.647   5.772   8.993 -2.4195  1.0587  2.1989
  175MOL0     O23491   2.985   9.300  10.212 -0.1703 -0.5738 -0.1200
  175MOL0     C23492   2.937   9.404  10.267 -0.5429 -0.4831  0.6257
  175MOL0     O23493   2.808   9.427  10.297  0.5305 -0.2240 -0.4026
  175MOL0     C23494   2.710   9.329  10.277  0.1334  0.2770 -0.0343
  175MOL0     C23495   2.580   9.386  10.265  1.1304 -0.4785  0.0800
  175MOL0     C23496   2.465   9.303  10.247 -0.3622  0.1831  1.1264
  175MOL0     C23497   2.491   9.167  10.219  0.0286  0.4081 -0.0545
  175MOL0     O23498   2.398   9.076  10.179  0.2772 -0.2739 -0.1985
  175MOL0     C23499   2.257   9.107  10.209  1.6389  0.7063  0.1435
  175MOL0     C23500   2.182   9.193  10.108  0.1616  0.0801  0.6107
  175MOL0     C23501   2.083   9.284  10.160  0.3930  0.6646  0.7783
  175MOL0     C23502   2.032   9.375  10.045 -0.8253  0.4043  0.0656
  175MOL0     C23503   1.943   9.482  10.104 -0.4944  0.5010  0.5035
  175MOL0     C23504   1.888   9.575  10.001  1.0302  0.2939  0.1160
  175MOL0     C23505   1.765   9.647  10.056  0.5478  0.9839  0.1763
  175MOL0     C23506   1.798   9.740  10.177 -0.2241  0.4900  0.8170
  175MOL0     N23507   1.902   9.829  10.142 -0.1407 -0.0964 -0.7396
  175MOL0     C23508   1.878   9.947  10.067 -0.4821  1.2001 -0.5108
  175MOL0     C23509   1.999  10.006  10.071 -0.1727 -0.3606 -0.3487
  175MOL0     C23510   2.021  10.139  10.009  0.1037 -0.0568  0.0274
  175MOL0     C23511   1.941  10.253  10.058 -0.1614  0.8256  0.2643
  175MOL0     C23512   1.923  10.367   9.954  0.7107  0.0868 -0.1823
  175MOL0     C23513   1.838  10.481  10.007 -0.2433  0.0568 -0.2039
  175MOL0     O23514   1.893  10.528  10.131  0.2748 -0.0161 -0.4079
  175MOL0     C23515   2.013  10.582  10.143 -0.2508  0.0317 -0.1503
  175MOL0     C23516   2.036  10.611  10.281 -0.5681 -0.1962 -0.0777
  175MOL0     C23517   2.141  10.697  10.308 -0.6233  0.6303 -0.3669
  175MOL0     C23518   2.161  10.722  10.457  0.5469 -1.0604 -0.4865
  175MOL0     C23519   2.236  10.745  10.211  1.0391 -1.1510 -1.1128
  175MOL0     C23520   2.364  10.815  10.237 -0.3429 -0.2242  0.2034
  175MOL0     O23521   2.422  10.792  10.352  0.4793  0.7963  0.1246
  175MOL0     C23522   2.543  10.842  10.383 -0.8286 -0.5745  0.5107
  175MOL0     C23523   2.655  10.770  10.362  0.4675 -0.0220  1.3063
  175MOL0     C23524   2.779  10.829  10.390 -0.3945 -0.4658 -0.2915
  175MOL0     C23525   2.785  10.938  10.472  0.6691 -0.1851 -0.4636
  175MOL0     O23526   2.911  10.988  10.493  0.1130  0.0121 -0.1744
  175MOL0     C23527   2.922  11.106  10.572 -0.7101 -0.1324 -0.8653
  175MOL0     C23528   3.069  11.153  10.590  0.5279 -0.6524  0.3108
  175MOL0     C23529   3.073  11.305  10.616 -0.7513 -0.1194  0.7497
  175MOL0     C23530   3.211  11.359  10.643 -0.2032  1.0818 -0.6346
  175MOL0     C23531   3.221  11.516  10.605  0.2110  0.4604  0.1710
  175MOL0     C23532   3.123  11.614  10.666 -1.0025 -0.1021  0.1761
  175MOL0     C23533   3.156  11.752  10.625  0.5487  0.1067 -0.1925
  175MOL0     C23534   3.064  11.862  10.674 -0.1517  0.5192  0.1232
  175MOL0    Cl23535   2.884  11.816  10.663 -0.3774  0.2057 -0.0095
  175MOL0     C23536   2.664  11.003  10.506  0.6824 -0.7596  0.0773
  175MOL0     C23537   2.541  10.958  10.462  0.2925 -0.0254  0.5362
  175MOL0     O23538   2.415  10.883  10.147  0.4690 -0.5155 -0.7799
  175MOL0     C23539   2.202  10.715  10.077 -0.5619 -0.9675 -0.2553
  175MOL0     C23540   2.088  10.644  10.047  0.3158 -0.0201  0.1559
  175MOL0     N23541   2.089   9.937  10.160 -0.2274  0.3619 -0.0025
  175MOL0     N23542   2.026   9.824  10.198 -0.4100  0.3415 -0.3894
  175MOL0     C23543   2.616   9.123  10.237  0.7437  0.7029  0.3812
  175MOL0     C23544   2.725   9.194  10.265 -0.0742  0.0100  1.2926
  175MOL0     C23545   3.052   9.492  10.300  0.8181  0.0804  0.3405
  175MOL0     C23546   3.036   9.600  10.383  0.0499 -0.6665  0.0513
  175MOL0     C23547   3.143   9.677  10.427 -0.6013 -0.7743  0.0695
  175MOL0     C23548   3.268   9.661  10.382  0.0553 -0.7267  0.1191
  175MOL0     O23549   3.366   9.744  10.429  0.3853  0.2455  0.0003
  175MOL0     C23550   3.507   9.708  10.404 -0.5055  0.5898 -0.4871
  175MOL0     C23551   3.600   9.815  10.472  1.0006  0.8968  0.1321
  175MOL0     C23552   3.545   9.874  10.601  0.2606 -0.0833  0.1722
  175MOL0     C23553   3.535   9.777  10.725 -0.4165 -0.6266 -0.0596
  175MOL0     C23554   3.669   9.724  10.759  0.8622  0.1139 -0.1832
  175MOL0     C23555   3.784   9.683  10.774  0.0516 -0.7583  0.0559
  175MOL0     C23556   3.287   9.556  10.289 -0.4022 -0.7704  0.4378
  175MOL0     C23557   3.189   9.473  10.248  0.5170  0.5473 -0.1542
  175MOL0     H23558   2.562   9.492  10.257 -0.7514 -0.7658  0.0701
  175MOL0     H23559   2.373   9.358  10.236 -0.3208 -0.1138 -1.1351
  175MOL0     H23560   2.208   9.010  10.196 -0.7306  1.7347  0.8453
  175MOL0     H23561   2.241   9.148  10.309 -0.9811 -0.1635  0.1467
  175MOL0     H23562   2.252   9.252  10.049 -0.9908  0.0668 -0.8318
  175MOL0     H23563   2.135   9.125  10.035  1.8212 -1.6676  1.0821
  175MOL0     H23564   1.993   9.246  10.210 -0.9548  3.4670  0.6497
  175MOL0     H23565   2.122   9.353  10.235 -0.9432  4.6879 -1.9258
  175MOL0     H23566   2.106   9.423   9.980 -2.8716  0.8014 -2.1184
  175MOL0     H23567   1.969   9.316   9.978  0.1851 -0.6591  0.0228
  175MOL0     H23568   1.861   9.442  10.164  0.6477  0.4041  2.0596
  175MOL0     H23569   2.000   9.540  10.176  1.2225  0.1082 -0.4744
  175MOL0     H23570   1.970   9.639   9.970  0.6026  1.2670  0.9310
  175MOL0     H23571   1.850   9.513   9.919  1.1169  1.1543 -0.5823
  175MOL0     H23572   1.729   9.710   9.974  0.3211 -0.0689 -0.5475
  175MOL0     H23573   1.680   9.585  10.086  0.7195  0.8814  0.4547
  175MOL0     H23574   1.823   9.690  10.271  1.6682 -0.2931 -0.0623
  175MOL0     H23575   1.709   9.802  10.195  0.2171  0.5248  3.2555
  175MOL0     H23576   1.795   9.983  10.006 -2.4157  1.4524  2.1053
  175MOL0     H23577   2.127  10.164  10.016  0.5627 -1.9590  0.4152
  175MOL0     H23578   1.992  10.136   9.904 -0.1534  1.9165 -0.0054
  175MOL0     H23579   1.980  10.288  10.154 -0.3220  1.5226  0.0859
  175MOL0     H23580   1.844  10.205  10.074  1.7095 -3.5591 -0.3822
  175MOL0     H23581   1.869  10.332   9.866  3.0989  1.0665 -2.1414
  175MOL0     H23582   2.021  10.397   9.916  0.7568 -0.4417 -0.4924
  175MOL0     H23583   1.734  10.461  10.035 -0.6050  2.1282  0.1250
  175MOL0     H23584   1.824  10.566   9.939 -0.6859  0.8073  0.7898
  175MOL0     H23585   1.975  10.573  10.363 -1.4274  2.2335  0.4962
  175MOL0     H23586   2.240  10.661  10.501 -0.7217 -2.2217  0.2606
  175MOL0     H23587   2.193  10.825  10.477 -0.4101 -0.6447 -0.9827
  175MOL0     H23588   2.070  10.706  10.516  1.6497 -0.7922  1.3616
  175MOL0     H23589   2.658  10.671  10.318  0.8840 -0.3147  1.9720
  175MOL0     H23590   2.874  10.782  10.369 -0.5675 -0.4831 -1.0809
  175MOL0     H23591   2.870  11.184  10.515 -1.8215 -0.9495 -1.0049
  175MOL0     H23592   2.874  11.097  10.670 -0.3068  0.5378 -0.6029
  175MOL0     H23593   3.105  11.109  10.684 -1.1768  1.1683  1.9272
  175MOL0     H23594   3.123  11.122  10.501  2.0416 -0.4499  1.1317
  175MOL0     H23595   3.007  11.317  10.702  0.4832 -1.6522  1.9744
  175MOL0     H23596   3.027  11.355  10.530 -0.0050  0.2013  0.5344
  175MOL0     H23597   3.231  11.342  10.750  1.0623 -1.2794 -1.1651
  175MOL0     H23598   3.278  11.289  10.592 -1.8309 -2.1218  1.2994
  175MOL0     H23599   3.198  11.531  10.499 -2.5551  0.0893  0.6574
  175MOL0     H23600   3.327  11.523  10.631  0.6443 -2.6611 -0.3621
  175MOL0     H23601   3.019  11.596  10.639 -0.4813 -1.4666 -1.0976
  175MOL0     H23602   3.136  11.603  10.774  1.7513 -1.9934 -0.2396
  175MOL0     H23603   3.159  11.765  10.516  2.4738 -0.6043 -0.2720
  175MOL0     H23604   3.256  11.775  10.664  0.5348  0.5946 -0.4320
  175MOL0     H23605   3.072  11.950  10.610 -0.1764  0.0981 -0.4761
  175MOL0     H23606   3.087  11.887  10.778  2.6103 -0.5050 -0.1498
  175MOL0     H23607   2.672  11.092  10.568 -0.0273 -0.1879 -0.6365
  175MOL0     H23608   2.449  11.005  10.496 -0.1791 -0.4510 -0.1111
  175MOL0     H23609   2.266  10.759  10.002 -0.5617  3.2034  1.9277
  175MOL0     H23610   2.064  10.639   9.941  1.3424 -0.0907 -0.0881
  175MOL0     H23611   2.649   9.022  10.215 -1.0600  0.1251  0.0786
  175MOL0     H23612   2.822   9.146  10.277  0.5336  0.8450  0.0203
  175MOL0     H23613   2.939   9.624  10.426 -0.3290  0.8939 -1.5764
  175MOL0     H23614   3.124   9.745  10.510 -0.0437  2.0620 -1.9627
  175MOL0     H23615   3.534   9.612  10.449  3.1429  1.6292 -0.1198
  175MOL0     H23616   3.524   9.707  10.296 -0.4584  0.8331 -0.4824
  175MOL0     H23617   3.615   9.900  10.405 -0.3000  1.9418  1.1259
  175MOL0     H23618   3.698   9.772  10.495 -0.0213 -1.8974 -0.2438
  175MOL0     H23619   3.443   9.913  10.590 -0.6716 -2.0453  1.3679
  175MOL0     H23620   3.614   9.956  10.625  1.4501 -1.2145  0.6916
  175MOL0     H23621   3.464   9.696  10.710 -0.3323 -0.5557 -0.9064
  175MOL0     H23622   3.490   9.841  10.802  0.3103  3.6189 -2.7967
  175MOL0     H23623   3.880   9.653  10.809 -0.1336 -0.6964  0.6271
  175MOL0     H23624   3.385   9.542  10.246  0.3199  0.9293  1.4163
  175MOL0     H23625   3.208   9.391  10.179 -0.7205  1.7567 -2.0240
  176MOL0     O23626  11.102   1.101   5.397  0.3273 -0.1694  0.0135
  176MOL0     C23627  11.124   0.987   5.358 -0.5060 -0.0283 -0.7208
  176MOL0     O23628  11.238   0.912   5.362  0.4348  0.3325  0.5889
  176MOL0     C23629  11.343   0.949   5.434 -0.1876  0.0325 -0.0398
  176MOL0     C23630  11.360   1.049   5.527  0.2008 -0.0156 -0.2957
  176MOL0     C23631  11.481   1.063   5.598  0.5728 -0.6177  0.3068
  176MOL0     C23632  11.593   0.991   5.564 -0.5821 -0.0227 -0.5475
  176MOL0     O23633  11.694   1.009   5.654 -0.3920  0.4199  0.2022
  176MOL0     C23634  11.808   0.931   5.638 -0.1294 -0.2615 -0.6019
  176MOL0     C23635  11.797   0.793   5.701 -0.5237 -0.1090  0.4318
  176MOL0     C23636  11.914   0.706   5.669 -0.1801 -0.0714  0.0775
  176MOL0     C23637  11.900   0.647   5.524 -1.1082  0.1383  0.8922
  176MOL0     C23638  12.015   0.551   5.494 -0.6243  1.1752  0.5760
  176MOL0     C23639  12.014   0.510   5.344  0.8319 -0.5316 -0.1305
  176MOL0     C23640  12.120   0.594   5.261  0.6479 -0.0983 -0.4160
  176MOL0     C23641  12.141   0.542   5.124  0.6612  0.9307  0.3704
  176MOL0     N23642  12.159   0.638   5.013 -0.3026 -0.0665  0.0713
  176MOL0     C23643  12.080   0.747   4.977 -0.0299 -0.8894 -0.2836
  176MOL0     C23644  12.160   0.828   4.903  0.3213  1.1630 -0.9837
  176MOL0     C23645  12.133   0.955   4.843 -0.2008 -0.5720  0.4212
  176MOL0     C23646  12.041   0.950   4.720 -0.0925 -0.2461  0.1485
  176MOL0     C23647  11.895   0.951   4.762 -0.8459  0.1465 -0.8514
  176MOL0     C23648  11.808   0.980   4.646 -0.9106 -0.5235  0.2259
  176MOL0     O23649  11.793   0.852   4.575 -0.3848 -0.1891 -0.2293
  176MOL0     C23650  11.687   0.837   4.480  0.8157 -0.5386 -0.3232
  176MOL0     C23651  11.615   0.946   4.430  0.6016  0.0955 -0.5977
  176MOL0     C23652  11.516   0.938   4.323  0.0475  0.1802 -0.2490
  176MOL0     C23653  11.469   1.071   4.268  0.3758  1.2427 -0.6513
  176MOL0     C23654  11.492   0.806   4.274  0.5576  0.2514 -0.8173
  176MOL0     C23655  11.393   0.783   4.157 -0.0387  0.3093  0.3747
  176MOL0     O23656  11.376   0.657   4.110  0.6551 -0.0521 -0.3013
  176MOL0     C23657  11.270   0.642   4.031  0.4397  0.2200  0.1239
  176MOL0     C23658  11.291   0.648   3.897 -1.4228  0.9274 -0.6348
  176MOL0     C23659  11.194   0.606   3.806  0.1278  0.0674 -0.3860
  176MOL0     C23660  11.064   0.580   3.852 -0.7509  0.8234  0.5428
  176MOL0     O23661  10.957   0.553   3.763  0.6024 -0.0438  0.3359
  176MOL0     C23662  10.836   0.618   3.795  0.3211  0.6698 -0.0125
  176MOL0     C23663  10.766   0.684   3.670 -1.5550  0.1978  0.0445
  176MOL0     C23664  10.665   0.587   3.603 -0.0999 -1.0016 -0.2975
  176MOL0     C23665  10.526   0.572   3.668 -0.8692  0.1980 -0.1087
  176MOL0     C23666  10.435   0.691   3.672 -0.3786 -0.4857 -0.1938
  176MOL0     C23667  10.403   0.752   3.529 -0.0272  0.3108 -0.0365
  176MOL0     C23668  10.328   0.654   3.432  0.3231  0.0585  0.0072
  176MOL0     C23669  10.285   0.715   3.290  0.2415  0.8069 -0.1447
  176MOL0    Cl23670  10.166   0.603   3.217 -0.0406  0.6931 -0.0324
  176MOL0     C23671  11.041   0.576   3.993  0.3467 -0.7312 -0.7862
  176MOL0     C23672  11.150   0.600   4.086 -0.1129  0.3273  0.0232
  176MOL0     O23673  11.319   0.884   4.135  0.6801  0.3926 -0.2650
  176MOL0     C23674  11.556   0.693   4.338 -0.4180 -0.1175  0.7209
  176MOL0     C23675  11.656   0.708   4.435 -0.1668 -0.0161 -0.0108
  176MOL0     N23676  12.274   0.763   4.873  0.0204 -0.0822 -0.4534
  176MOL0     N23677  12.271   0.648   4.936 -0.7323  0.0979  0.8631
  176MOL0     C23678  11.578   0.897   5.452 -0.1430 -0.1073  0.4938
  176MOL0     C23679  11.458   0.877   5.391  0.1828 -0.4607 -0.1433
  176MOL0     C23680  11.007   0.927   5.289 -0.1399  0.2789  0.3896
  176MOL0     C23681  10.880   0.982   5.304  0.9074  0.4501 -0.2077
  176MOL0     C23682  10.775   0.941   5.218  0.0080 -0.6327  0.0951
  176MOL0     C23683  10.790   0.838   5.122 -0.6944 -0.0745 -0.4819
  176MOL0     O23684  10.678   0.793   5.048 -0.2824 -0.1833  0.0678
  176MOL0     C23685  10.696   0.703   4.938  0.1652  0.3585  0.8709
  176MOL0     C23686  10.569   0.728   4.831 -0.6876  0.8968  0.5939
  176MOL0     C23687  10.558   0.633   4.715 -0.2929  1.0815  0.9941
  176MOL0     C23688  10.605   0.680   4.577 -0.3923  0.4502 -0.6608
  176MOL0     C23689  10.749   0.698   4.582  0.1833 -0.4605  0.3406
  176MOL0     C23690  10.867   0.692   4.580  0.6260 -0.6639 -0.0093
  176MOL0     C23691  10.920   0.780   5.116 -0.0016  0.5419  0.1011
  176MOL0     C23692  11.016   0.820   5.208 -0.2928  0.6352 -0.5878
  176MOL0     H23693  11.266   1.098   5.552 -1.6307 -1.1178 -4.2493
  176MOL0     H23694  11.463   1.126   5.685 -2.5976  1.4674 -1.6333
  176MOL0     H23695  11.830   0.925   5.532  1.2477  2.7151 -0.5729
  176MOL0     H23696  11.903   0.968   5.677  1.1278 -4.5170  0.9839
  176MOL0     H23697  11.796   0.817   5.808  1.2654 -1.3471  0.7616
  176MOL0     H23698  11.703   0.746   5.672 -1.5521  2.1852 -0.2306
  176MOL0     H23699  12.010   0.758   5.666  0.6771 -1.6407 -1.6547
  176MOL0     H23700  11.920   0.630   5.746  1.6065  0.3092  0.3414
  176MOL0     H23701  11.805   0.598   5.503 -0.6164 -1.7743  2.7221
  176MOL0     H23702  11.902   0.733   5.457 -2.1078  0.5002  1.3114
  176MOL0     H23703  12.104   0.614   5.507  1.3007 -0.9503 -1.4533
  176MOL0     H23704  12.034   0.465   5.559  0.7369 -0.6386 -2.0640
  176MOL0     H23705  12.036   0.404   5.354 -0.4654 -0.6776  1.5498
  176MOL0     H23706  11.914   0.535   5.306 -0.1022  0.9501  2.9583
  176MOL0     H23707  12.089   0.699   5.272 -1.2719 -0.6804  0.2472
  176MOL0     H23708  12.215   0.591   5.314  0.4800  3.3914  0.3137
  176MOL0     H23709  12.050   0.485   5.106 -1.0430  2.8109  2.5003
  176MOL0     H23710  12.227   0.474   5.122  0.2720  0.4438 -1.0447
  176MOL0     H23711  11.979   0.781   5.001  0.8914  1.9789 -0.0538
  176MOL0     H23712  12.073   1.020   4.908 -1.4715  0.1969 -1.4364
  176MOL0     H23713  12.222   1.006   4.806 -0.1095 -0.1050  1.2542
  176MOL0     H23714  12.068   0.865   4.656  4.0034  1.1362 -0.2787
  176MOL0     H23715  12.054   1.044   4.666 -2.7253 -0.5788 -1.2231
  176MOL0     H23716  11.876   1.033   4.832 -1.9837  1.5564 -2.7239
  176MOL0     H23717  11.866   0.859   4.814  0.4307 -0.2278 -0.7577
  176MOL0     H23718  11.837   1.064   4.582  0.0928 -1.3071 -0.3787
  176MOL0     H23719  11.711   1.018   4.679  0.2089  1.5460  1.4067
  176MOL0     H23720  11.637   1.047   4.464  1.6488  0.2165 -1.5760
  176MOL0     H23721  11.494   1.157   4.331 -1.1480 -1.2175  3.6912
  176MOL0     H23722  11.515   1.088   4.170 -1.4321 -3.0347 -2.4962
  176MOL0     H23723  11.360   1.084   4.263  0.5476  2.6632 -1.4181
  176MOL0     H23724  11.392   0.679   3.872 -0.8479 -1.1659 -1.1005
  176MOL0     H23725  11.212   0.622   3.700 -0.4759  1.1541 -0.3346
  176MOL0     H23726  10.767   0.549   3.845 -0.0367  0.8339 -0.2799
  176MOL0     H23727  10.853   0.695   3.871  3.0556  0.8003 -0.6293
  176MOL0     H23728  10.711   0.774   3.697 -1.7919 -0.5026  2.1260
  176MOL0     H23729  10.850   0.706   3.604 -2.2474 -0.9904 -1.2882
  176MOL0     H23730  10.714   0.490   3.616  2.2425  0.0967 -0.4808
  176MOL0     H23731  10.662   0.610   3.496  1.7449 -2.0121 -0.6093
  176MOL0     H23732  10.462   0.490   3.635 -1.6777  1.8200 -2.9351
  176MOL0     H23733  10.552   0.534   3.767  0.0010 -1.0361 -0.7833
  176MOL0     H23734  10.487   0.764   3.735 -1.5947  1.3682 -1.2444
  176MOL0     H23735  10.350   0.667   3.736  0.9257  0.6876  2.1430
  176MOL0     H23736  10.347   0.845   3.545 -0.4645  0.2430 -1.0832
  176MOL0     H23737  10.500   0.772   3.483 -0.9700  0.0135 -2.2882
  176MOL0     H23738  10.235   0.622   3.480  0.1619 -0.2212 -0.4845
  176MOL0     H23739  10.382   0.559   3.421  2.2883  1.1303  0.0464
  176MOL0     H23740  10.368   0.731   3.221  1.9076  1.8895  1.9690
  176MOL0     H23741  10.240   0.815   3.302  0.9560  1.0411  0.6278
  176MOL0     H23742  10.939   0.554   4.023 -0.6205  3.1756 -0.7211
  176MOL0     H23743  11.131   0.585   4.192  1.0814  0.6861  0.2940
  176MOL0     H23744  11.528   0.594   4.306  1.8208 -0.4027 -0.6070
  176MOL0     H23745  11.703   0.618   4.474  0.8636 -0.5416 -2.2837
  176MOL0     H23746  11.655   0.822   5.438 -1.4461 -1.0215 -2.5255
  176MOL0     H23747  11.459   0.809   5.306  0.7107 -2.0812  1.1249
  176MOL0     H23748  10.877   1.066   5.372 -0.2973  1.7944 -1.8467
  176MOL0     H23749  10.679   0.991   5.212  0.9564  1.1818 -0.7379
  176MOL0     H23750  10.790   0.731   4.890 -0.7070  4.1306  1.0726
  176MOL0     H23751  10.698   0.595   4.957 -2.4316 -0.6376 -3.3063
  176MOL0     H23752  10.559   0.833   4.804 -1.0245  0.4625 -1.0578
  176MOL0     H23753  10.486   0.705   4.900 -0.0717  0.0048  1.0690
  176MOL0     H23754  10.458   0.588   4.714 -0.0573  0.4653  2.1641
  176MOL0     H23755  10.617   0.541   4.726 -1.8161 -0.2245 -0.9693
  176MOL0     H23756  10.556   0.773   4.545  1.1619  1.8134  0.7075
  176MOL0     H23757  10.579   0.608   4.499 -0.1628  2.1413 -2.3944
  176MOL0     H23758  10.971   0.675   4.560  0.3074 -0.8774 -1.6070
  176MOL0     H23759  10.955   0.709   5.042  0.4626  1.3448 -0.4647
  176MOL0     H23760  11.108   0.763   5.206 -1.7360 -1.8236 -2.9661
  177MOL0     O23761   3.620   0.960   5.471 -0.6494  0.8503 -0.1372
  177MOL0     C23762   3.608   0.903   5.358 -0.0101  0.1970 -0.6422
  177MOL0     O23763   3.488   0.898   5.299  0.1216  0.3007 -0.1957
  177MOL0     C23764   3.375   0.961   5.354  0.0589 -0.9114  0.1337
  177MOL0     C23765   3.374   1.095   5.385 -0.8543  0.2707 -0.2576
  177MOL0     C23766   3.260   1.152   5.445  0.7509 -0.1261  0.2986
  177MOL0     C23767   3.143   1.082   5.454  0.7614 -1.1441 -0.0245
  177MOL0     O23768   3.028   1.154   5.494  0.3295  0.5691 -0.0087
  177MOL0     C23769   2.895   1.094   5.475  0.3642 -0.3612 -0.5270
  177MOL0     C23770   2.810   1.198   5.394 -0.2167 -0.4576 -0.0073
  177MOL0     C23771   2.841   1.182   5.253 -0.8607 -0.2017 -0.0441
  177MOL0     C23772   2.725   1.246   5.170  0.0716  0.5412  0.3103
  177MOL0     C23773   2.765   1.257   5.021  0.8680  0.6245 -0.3388
  177MOL0     C23774   2.643   1.329   4.943 -0.1871 -0.0100 -0.7721
  177MOL0     C23775   2.659   1.331   4.784 -0.0830 -0.1877  0.1836
  177MOL0     C23776   2.545   1.412   4.721  0.0397  0.1892  0.5860
  177MOL0     N23777   2.572   1.555   4.745 -0.2776  1.1688 -0.2632
  177MOL0     C23778   2.495   1.643   4.819 -0.9213  0.2224 -0.2047
  177MOL0     C23779   2.558   1.758   4.802  0.7862 -0.6618 -1.2842
  177MOL0     C23780   2.509   1.878   4.875  0.5713  0.2375  0.5516
  177MOL0     C23781   2.624   1.946   4.950  0.8423 -0.1977 -0.0272
  177MOL0     C23782   2.574   2.066   5.045 -0.7432  0.3951  0.5799
  177MOL0     C23783   2.704   2.130   5.100  0.6591 -0.0405  0.4281
  177MOL0     O23784   2.758   2.061   5.212 -0.2353 -0.2535  0.3119
  177MOL0     C23785   2.875   2.099   5.273 -0.1278 -0.0330 -0.7981
  177MOL0     C23786   2.896   2.034   5.399 -0.6202  0.2386  0.3015
  177MOL0     C23787   3.012   2.052   5.470 -0.6569  1.0027  0.4667
  177MOL0     C23788   3.037   1.967   5.592 -0.2168 -0.2879 -0.0161
  177MOL0     C23789   3.115   2.132   5.404  0.4934 -1.2283  0.1962
  177MOL0     C23790   3.250   2.151   5.460  0.7776 -1.3019 -0.1458
  177MOL0     O23791   3.356   2.133   5.367  0.4175 -0.3684  0.0616
  177MOL0     C23792   3.466   2.203   5.412 -0.0844  0.1803  1.0481
  177MOL0     C23793   3.565   2.147   5.486 -0.2840 -0.0608  0.1687
  177MOL0     C23794   3.674   2.227   5.524  0.1217 -0.8653 -0.8102
  177MOL0     C23795   3.676   2.357   5.482  0.4804  0.4499 -0.0733
  177MOL0     O23796   3.787   2.426   5.530  0.0947 -0.6099  0.5252
  177MOL0     C23797   3.859   2.508   5.434 -0.2699 -0.4652  0.0274
  177MOL0     C23798   3.948   2.607   5.518 -1.1748 -0.1718  0.2488
  177MOL0     C23799   4.064   2.534   5.587 -0.3584  0.8161 -0.7212
  177MOL0     C23800   4.171   2.633   5.629 -0.8619  0.4164  0.2638
  177MOL0     C23801   4.287   2.574   5.717 -0.4622 -0.4715 -0.9102
  177MOL0     C23802   4.235   2.553   5.863  0.0012 -0.3841  0.2996
  177MOL0     C23803   4.177   2.683   5.936 -0.1173  0.8918  0.1690
  177MOL0     C23804   4.174   2.656   6.090  0.1629 -0.3803  0.6083
  177MOL0    Cl23805   4.099   2.500   6.120  0.0707  0.1240 -0.4818
  177MOL0     C23806   3.572   2.425   5.413  0.2016  0.6770 -0.9102
  177MOL0     C23807   3.471   2.335   5.378 -0.5603  0.4428  0.6452
  177MOL0     O23808   3.267   2.176   5.581 -0.3650  0.7322 -0.0616
  177MOL0     C23809   3.102   2.183   5.272  0.1436  0.4505  0.7450
  177MOL0     C23810   2.976   2.174   5.213  0.3661 -0.2923 -0.0022
  177MOL0     N23811   2.677   1.745   4.733  0.8933 -0.3708  0.6161
  177MOL0     N23812   2.681   1.619   4.693 -0.6097 -0.1480 -0.1617
  177MOL0     C23813   3.142   0.950   5.422  1.1369  0.7365 -0.3539
  177MOL0     C23814   3.257   0.886   5.372  1.1216 -0.3682  0.7147
  177MOL0     C23815   3.730   0.840   5.294  0.3797 -0.7523 -1.1480
  177MOL0     C23816   3.856   0.832   5.370 -0.0402 -0.0419 -0.2733
  177MOL0     C23817   3.966   0.773   5.309  0.2886  0.3711 -0.0902
  177MOL0     C23818   3.967   0.744   5.167  0.5849  0.0560  0.2538
  177MOL0     O23819   4.078   0.706   5.101  0.1019  0.6755  1.2023
  177MOL0     C23820   4.173   0.615   5.165  0.1577 -0.2288 -0.3905
  177MOL0     C23821   4.261   0.550   5.057 -0.1299 -0.4242  0.1976
  177MOL0     C23822   4.381   0.646   5.031  0.2135 -0.6778  0.0486
  177MOL0     C23823   4.491   0.606   4.935 -0.2272 -0.2465 -0.7368
  177MOL0     C23824   4.552   0.482   4.988  0.3540  0.6081  0.4326
  177MOL0     C23825   4.592   0.376   5.016  0.3467  0.8730 -0.3312
  177MOL0     C23826   3.847   0.757   5.097 -0.7818 -0.2260  0.8897
  177MOL0     C23827   3.730   0.804   5.157 -0.3146 -0.2346 -0.2419
  177MOL0     H23828   3.464   1.156   5.390 -0.4095 -0.3581 -0.5579
  177MOL0     H23829   3.250   1.259   5.462 -1.9189 -0.2667  0.1054
  177MOL0     H23830   2.890   0.997   5.423  0.8374 -1.8623  2.0298
  177MOL0     H23831   2.853   1.065   5.572  2.4965 -0.3365  0.4653
  177MOL0     H23832   2.707   1.167   5.413  0.0927 -1.1865  0.5543
  177MOL0     H23833   2.831   1.298   5.431 -0.7817 -0.7566  1.1708
  177MOL0     H23834   2.933   1.240   5.244 -2.0908  2.6075  3.0725
  177MOL0     H23835   2.843   1.076   5.227  2.2796  0.3445 -2.6385
  177MOL0     H23836   2.642   1.174   5.177  2.2811 -1.9748  2.9124
  177MOL0     H23837   2.690   1.344   5.204  1.0086 -0.2867  4.1645
  177MOL0     H23838   2.859   1.312   5.015  1.2919  0.0851  1.0217
  177MOL0     H23839   2.760   1.156   4.980 -4.6545  0.8297 -0.9440
  177MOL0     H23840   2.550   1.279   4.968  0.4570 -1.1222 -0.5273
  177MOL0     H23841   2.643   1.428   4.988 -0.4453 -0.3389 -0.0383
  177MOL0     H23842   2.758   1.363   4.750  0.3618 -1.9814 -0.3097
  177MOL0     H23843   2.654   1.226   4.753 -0.5358  0.1260 -0.8797
  177MOL0     H23844   2.448   1.379   4.760  0.4615 -2.2177 -0.2278
  177MOL0     H23845   2.538   1.403   4.612 -1.6700  0.6991  0.6173
  177MOL0     H23846   2.407   1.628   4.881 -1.4131 -0.2758 -0.9992
  177MOL0     H23847   2.462   1.948   4.805  0.3024 -0.5029 -0.0165
  177MOL0     H23848   2.425   1.846   4.937  2.1539 -2.2238  1.5649
  177MOL0     H23849   2.704   1.980   4.885 -0.0532  2.2937  0.0826
  177MOL0     H23850   2.659   1.873   5.024 -0.7614 -1.0198 -0.0380
  177MOL0     H23851   2.490   2.040   5.110 -1.8715 -0.7011 -1.2072
  177MOL0     H23852   2.534   2.147   4.982 -1.5409  1.1342  1.9984
  177MOL0     H23853   2.682   2.232   5.134  0.3410  0.1292 -0.2566
  177MOL0     H23854   2.785   2.118   5.028  0.8964 -3.0220  1.0620
  177MOL0     H23855   2.825   1.967   5.449 -0.0009 -1.4663 -1.0104
  177MOL0     H23856   2.948   1.934   5.647 -0.8632  3.3616  1.4145
  177MOL0     H23857   3.102   1.884   5.564  0.2560  0.3980 -0.9977
  177MOL0     H23858   3.086   2.026   5.669 -1.8240 -1.0240  1.6521
  177MOL0     H23859   3.567   2.040   5.506 -2.0355  0.1830  1.9639
  177MOL0     H23860   3.754   2.189   5.587 -1.0635 -0.3463  1.0931
  177MOL0     H23861   3.921   2.449   5.366  1.3142 -0.4257  1.3687
  177MOL0     H23862   3.785   2.560   5.372 -0.5836 -3.2972 -2.1688
  177MOL0     H23863   3.985   2.684   5.450  2.7418 -0.1926  2.1012
  177MOL0     H23864   3.884   2.657   5.591 -2.2979 -0.3660 -0.5640
  177MOL0     H23865   4.102   2.460   5.516 -1.2227 -0.3692  0.0246
  177MOL0     H23866   4.036   2.478   5.676  1.1358  2.8348  1.1488
  177MOL0     H23867   4.213   2.673   5.536 -2.2979  1.6892  0.1194
  177MOL0     H23868   4.130   2.720   5.680 -1.0521  0.4795  0.0080
  177MOL0     H23869   4.372   2.643   5.713 -1.4100  1.1660  2.7920
  177MOL0     H23870   4.326   2.481   5.675 -0.1743 -0.2719 -1.0856
  177MOL0     H23871   4.156   2.477   5.864  0.7923 -1.2282  1.2943
  177MOL0     H23872   4.320   2.515   5.920 -0.5400 -0.6557  0.9466
  177MOL0     H23873   4.080   2.699   5.890 -0.6601 -3.3335 -0.5304
  177MOL0     H23874   4.243   2.768   5.912  0.6745 -0.1645 -1.5736
  177MOL0     H23875   4.127   2.734   6.150 -0.6593 -0.2430 -0.1999
  177MOL0     H23876   4.280   2.647   6.115  0.5149  0.2707 -0.5814
  177MOL0     H23877   3.559   2.533   5.406 -0.3565  0.8881  2.0847
  177MOL0     H23878   3.385   2.373   5.323 -1.5489 -1.2535  0.9694
  177MOL0     H23879   3.180   2.238   5.221  0.1777  1.3029  1.6901
  177MOL0     H23880   2.959   2.207   5.111  0.6358  4.4732  1.2706
  177MOL0     H23881   3.057   0.884   5.430  1.6877  0.1560  1.1800
  177MOL0     H23882   3.263   0.785   5.334 -2.9971 -0.4105 -0.3049
  177MOL0     H23883   3.854   0.872   5.471 -1.0139 -0.7974  0.0287
  177MOL0     H23884   4.055   0.767   5.371  0.0809  0.5321  0.2286
  177MOL0     H23885   4.235   0.667   5.239  0.1349 -1.0698  0.2225
  177MOL0     H23886   4.122   0.540   5.226  2.6981 -1.5532  0.2291
  177MOL0     H23887   4.197   0.526   4.972 -0.6108 -0.4404  0.5645
  177MOL0     H23888   4.299   0.458   5.104  0.5230 -1.2381 -1.8083
  177MOL0     H23889   4.425   0.672   5.128 -0.1028 -0.6080  0.1746
  177MOL0     H23890   4.326   0.733   4.996  3.6410  0.9242 -1.8847
  177MOL0     H23891   4.571   0.680   4.931 -2.2189  2.1963  1.1597
  177MOL0     H23892   4.450   0.603   4.834 -0.2831  0.5913 -0.7404
  177MOL0     H23893   4.626   0.275   5.027 -1.3239  0.2978 -0.0806
  177MOL0     H23894   3.848   0.741   4.990 -0.1836  2.7484  0.3572
  177MOL0     H23895   3.647   0.828   5.093  0.0837  1.5984 -0.1301
  178MOL0     O23896   2.971   2.687   2.800  0.6737 -0.6083 -0.3815
  178MOL0     C23897   2.854   2.703   2.835  0.3869 -0.4150 -0.4640
  178MOL0     O23898   2.732   2.692   2.764  0.0845 -0.1514  0.8458
  178MOL0     C23899   2.731   2.656   2.630  0.1177  0.1745 -0.0036
  178MOL0     C23900   2.826   2.576   2.575  0.3739  1.0539  0.3407
  178MOL0     C23901   2.823   2.548   2.439  0.5389 -0.4772  0.0247
  178MOL0     C23902   2.725   2.605   2.358  0.5915 -0.5300 -0.6155
  178MOL0     O23903   2.724   2.588   2.222  0.6875  0.5253  0.3790
  178MOL0     C23904   2.728   2.716   2.152  0.1274  0.4386 -0.7159
  178MOL0     C23905   2.709   2.692   2.007  0.1541 -0.4049  0.6389
  178MOL0     C23906   2.695   2.828   1.932  0.0208  0.4118 -0.8504
  178MOL0     C23907   2.714   2.798   1.781  0.3056  1.0433  1.0546
  178MOL0     C23908   2.799   2.903   1.710  0.0654 -0.6275  0.2716
  178MOL0     C23909   2.835   2.843   1.575  0.6191 -0.4280 -0.7617
  178MOL0     C23910   2.843   2.950   1.462  0.5348  1.3057  0.3534
  178MOL0     C23911   2.958   2.906   1.361  1.0917 -0.5307  0.6536
  178MOL0     N23912   2.987   3.005   1.251 -0.9152  0.1634  0.3046
  178MOL0     C23913   3.038   2.958   1.135 -0.7846 -0.0511 -0.1242
  178MOL0     C23914   3.013   3.057   1.043  0.6139  0.7025 -0.0389
  178MOL0     C23915   3.000   3.049   0.891  0.2346 -0.2634  0.1203
  178MOL0     C23916   2.850   3.039   0.843  0.1823 -0.2265 -0.9057
  178MOL0     C23917   2.786   2.903   0.853  0.1500  1.1297 -0.8561
  178MOL0     C23918   2.751   2.848   0.994 -0.1545  0.4541  0.1164
  178MOL0     O23919   2.808   2.717   0.997 -0.0851 -0.7960 -0.1741
  178MOL0     C23920   2.754   2.636   1.096  0.1404 -0.0541 -0.1598
  178MOL0     C23921   2.758   2.504   1.083  0.4213 -0.5531 -0.0631
  178MOL0     C23922   2.708   2.407   1.177 -0.4314 -1.4796  0.7442
  178MOL0     C23923   2.725   2.259   1.153  1.3837  0.2816 -0.1528
  178MOL0     C23924   2.648   2.464   1.299 -0.8965  0.5094 -0.4337
  178MOL0     C23925   2.592   2.379   1.410  0.3335  0.8427  0.9531
  178MOL0     O23926   2.598   2.430   1.531  0.1473  0.5494  0.0347
  178MOL0     C23927   2.594   2.353   1.643 -0.0736 -0.4780  0.6877
  178MOL0     C23928   2.576   2.427   1.760  0.2320 -0.2047 -0.6123
  178MOL0     C23929   2.572   2.359   1.883  0.1314  0.3430  0.0133
  178MOL0     C23930   2.594   2.218   1.889  0.1265 -0.1079 -0.2636
  178MOL0     O23931   2.600   2.141   2.000  0.4876 -0.0732  0.0096
  178MOL0     C23932   2.560   2.189   2.125 -0.7579 -0.3376  0.5555
  178MOL0     C23933   2.543   2.072   2.218 -0.5654 -0.0412  0.0110
  178MOL0     C23934   2.500   2.132   2.348 -0.0270 -0.2903  0.6347
  178MOL0     C23935   2.614   2.183   2.430 -0.6004  0.4495  0.1895
  178MOL0     C23936   2.583   2.226   2.576 -1.0816  0.6392 -1.0147
  178MOL0     C23937   2.713   2.215   2.660 -0.2614  0.4369  0.2785
  178MOL0     C23938   2.683   2.267   2.809  0.4394 -0.3206 -0.3450
  178MOL0     C23939   2.801   2.286   2.901  0.2030 -0.0463  1.0398
  178MOL0    Cl23940   2.779   2.410   3.017 -0.1838  0.0191  0.0680
  178MOL0     C23941   2.617   2.148   1.769  0.4995  0.2437 -0.3245
  178MOL0     C23942   2.609   2.207   1.644  0.4791  0.0293 -0.2353
  178MOL0     O23943   2.531   2.275   1.377 -0.3074 -0.3860 -0.2513
  178MOL0     C23944   2.660   2.601   1.321  0.7328 -0.7408 -0.1185
  178MOL0     C23945   2.701   2.689   1.219 -1.0148 -0.4220 -0.1523
  178MOL0     N23946   2.982   3.162   1.112  0.3386 -0.1134 -0.4443
  178MOL0     N23947   2.973   3.133   1.236  0.2498 -0.2483  0.0638
  178MOL0     C23948   2.616   2.663   2.418  0.1507 -0.2483  0.2299
  178MOL0     C23949   2.616   2.696   2.553  0.8782  0.5639  0.0890
  178MOL0     C23950   2.847   2.730   2.978  0.8334  0.0281  0.1930
  178MOL0     C23951   2.721   2.763   3.031 -0.1836  0.3011  1.0233
  178MOL0     C23952   2.685   2.760   3.168  0.5596  0.7451  0.3137
  178MOL0     C23953   2.783   2.732   3.258  0.4596 -0.5339 -0.9758
  178MOL0     O23954   2.767   2.726   3.390 -0.3443 -0.8954  0.2391
  178MOL0     C23955   2.680   2.807   3.470  0.7265  1.7351 -0.4558
  178MOL0     C23956   2.605   2.703   3.561  0.0189  0.2051 -0.0488
  178MOL0     C23957   2.514   2.618   3.475 -0.0614 -0.0483 -0.5446
  178MOL0     C23958   2.444   2.507   3.557  0.8827  0.1312 -0.0148
  178MOL0     C23959   2.354   2.566   3.662 -0.3839  0.3857 -0.0439
  178MOL0     C23960   2.279   2.603   3.748 -0.9473  0.3564 -0.4173
  178MOL0     C23961   2.909   2.692   3.215 -0.4370  0.2844 -0.6979
  178MOL0     C23962   2.948   2.699   3.076  0.9037  0.0008 -0.1889
  178MOL0     H23963   2.915   2.530   2.618  0.7061  0.4616 -0.9315
  178MOL0     H23964   2.886   2.483   2.381 -0.9784 -0.5687 -1.5872
  178MOL0     H23965   2.644   2.780   2.179 -0.9048 -0.5304 -1.5328
  178MOL0     H23966   2.821   2.767   2.177 -1.1929  3.5374 -1.6408
  178MOL0     H23967   2.797   2.637   1.972 -0.4419 -1.1788  0.2935
  178MOL0     H23968   2.626   2.625   1.978  2.7430 -2.8896 -1.7615
  178MOL0     H23969   2.592   2.862   1.947 -0.3394 -1.4984  1.8187
  178MOL0     H23970   2.759   2.910   1.968  0.4357 -0.0911 -0.4319
  178MOL0     H23971   2.771   2.705   1.770  4.0054  2.7839  3.4498
  178MOL0     H23972   2.623   2.788   1.720 -0.1013  0.3864  1.7539
  178MOL0     H23973   2.737   2.993   1.704 -0.7092 -1.1299  0.5932
  178MOL0     H23974   2.895   2.925   1.759 -0.9991  0.4701  1.9573
  178MOL0     H23975   2.934   2.797   1.586  0.4238 -1.1670 -1.8850
  178MOL0     H23976   2.763   2.769   1.538 -0.6853 -1.3555  3.0858
  178MOL0     H23977   2.745   2.975   1.420  0.4441 -1.3076 -1.2622
  178MOL0     H23978   2.884   3.043   1.501  3.2917  1.2779 -2.1209
  178MOL0     H23979   2.913   2.817   1.315 -0.3990  1.7676 -2.6936
  178MOL0     H23980   3.048   2.876   1.417  1.9916 -2.6796 -1.7123
  178MOL0     H23981   3.060   2.854   1.112 -2.8490 -0.3059 -1.1254
  178MOL0     H23982   3.022   3.147   0.849 -2.7184  0.0762 -0.8420
  178MOL0     H23983   3.075   2.981   0.849  0.5100  0.8490 -1.2333
  178MOL0     H23984   2.844   3.073   0.740  0.2455  2.1825 -0.1950
  178MOL0     H23985   2.784   3.112   0.890 -2.0173 -1.3160 -2.1607
  178MOL0     H23986   2.858   2.838   0.802  1.1525  2.0496 -0.6611
  178MOL0     H23987   2.691   2.894   0.801  0.1139 -1.6278 -0.4743
  178MOL0     H23988   2.644   2.842   1.015 -0.4338  1.9679 -0.7402
  178MOL0     H23989   2.802   2.905   1.072 -0.1185  2.0727 -1.0624
  178MOL0     H23990   2.807   2.466   0.993  0.0086  0.7391 -0.8582
  178MOL0     H23991   2.624   2.229   1.122  0.4307  2.8831  0.1776
  178MOL0     H23992   2.797   2.240   1.073  0.4056 -3.1337 -0.3691
  178MOL0     H23993   2.766   2.207   1.240 -0.9580 -1.7224 -0.1498
  178MOL0     H23994   2.564   2.535   1.760 -0.3638 -0.2607 -0.0037
  178MOL0     H23995   2.562   2.419   1.973 -2.6980 -0.6395  0.4471
  178MOL0     H23996   2.636   2.255   2.168  0.6958 -2.4473  1.3720
  178MOL0     H23997   2.464   2.242   2.119 -2.0371 -2.6224 -0.1105
  178MOL0     H23998   2.466   2.005   2.177  0.4338 -0.9138 -0.4859
  178MOL0     H23999   2.633   2.011   2.218  0.2004  0.9541  2.8167
  178MOL0     H24000   2.452   2.048   2.401  1.6830 -1.4718  0.3929
  178MOL0     H24001   2.416   2.202   2.336 -2.3755 -3.0316 -0.1767
  178MOL0     H24002   2.693   2.107   2.431 -2.1624 -1.2356  0.3813
  178MOL0     H24003   2.648   2.278   2.387 -1.9438  0.0668 -1.8695
  178MOL0     H24004   2.532   2.143   2.626  2.0497 -1.1683 -0.5934
  178MOL0     H24005   2.526   2.320   2.576 -1.8783  0.1879 -2.4385
  178MOL0     H24006   2.742   2.110   2.665 -1.4540  0.1282  1.1326
  178MOL0     H24007   2.788   2.283   2.618 -1.1738  0.6861 -1.0016
  178MOL0     H24008   2.600   2.216   2.858 -0.5479  1.2441 -0.3534
  178MOL0     H24009   2.648   2.370   2.802 -0.6684 -0.6355  0.4854
  178MOL0     H24010   2.887   2.312   2.839 -2.0650  1.8456 -1.6163
  178MOL0     H24011   2.829   2.190   2.945  0.4105  0.1296  1.2945
  178MOL0     H24012   2.626   2.040   1.771 -2.4720 -0.1004 -0.6263
  178MOL0     H24013   2.617   2.140   1.560  2.7365 -0.2620  0.1507
  178MOL0     H24014   2.628   2.658   1.407 -0.3362  0.4317 -1.2607
  178MOL0     H24015   2.688   2.794   1.247 -1.7673 -0.8970  1.4205
  178MOL0     H24016   2.530   2.691   2.358 -1.4520  1.9318  3.2561
  178MOL0     H24017   2.526   2.733   2.600  2.6475  1.2433  3.2116
  178MOL0     H24018   2.645   2.796   2.961 -0.9203  1.9771  2.5089
  178MOL0     H24019   2.584   2.779   3.202  0.5822  0.9913  0.2492
  178MOL0     H24020   2.739   2.870   3.538  1.2677 -1.0849  1.9130
  178MOL0     H24021   2.615   2.868   3.406  0.1384 -0.5130 -2.1015
  178MOL0     H24022   2.550   2.770   3.628 -0.4418 -0.4625  0.2620
  178MOL0     H24023   2.676   2.646   3.623 -0.9316  1.3282  2.1933
  178MOL0     H24024   2.580   2.573   3.400  0.9492 -0.1246  0.3682
  178MOL0     H24025   2.438   2.682   3.429 -0.7945 -0.3369  0.2419
  178MOL0     H24026   2.527   2.458   3.609 -1.1570  1.2056  4.8136
  178MOL0     H24027   2.387   2.435   3.499 -0.1971 -0.9480  2.2489
  178MOL0     H24028   2.196   2.635   3.808 -0.0260 -0.5711  1.4490
  178MOL0     H24029   2.978   2.642   3.283  0.6449 -0.4298 -2.2769
  178MOL0     H24030   3.041   2.656   3.041  0.1915  0.2518 -2.6304
  179MOL0     O24031   6.484   0.327   0.032 -0.4072  0.2049 -0.2286
  179MOL0     C24032   6.488   0.442   0.084 -0.4974  1.5687 -0.3420
  179MOL0     O24033   6.596   0.493   0.150  0.3101  0.4371 -1.5228
  179MOL0     C24034   6.676   0.395   0.215  0.5296 -0.1058 -0.9252
  179MOL0     C24035   6.811   0.381   0.188 -0.0319 -0.3683  1.1564
  179MOL0     C24036   6.890   0.291   0.253 -1.1019 -0.0341 -0.2516
  179MOL0     C24037   6.839   0.210   0.351 -0.3190 -0.0172 -0.2505
  179MOL0     O24038   6.936   0.135   0.411  0.3279 -0.1037  0.2205
  179MOL0     C24039   6.886   0.006   0.462  0.6179  0.0678 -0.8226
  179MOL0     C24040   6.999  -0.079   0.512 -0.1631  0.1705  0.7041
  179MOL0     C24041   7.064  -0.171   0.409 -0.3637 -1.2676 -0.5081
  179MOL0     C24042   7.180  -0.235   0.487  0.1221  0.3084  0.3968
  179MOL0     C24043   7.247  -0.355   0.414 -0.5850 -0.1916  0.5615
  179MOL0     C24044   7.358  -0.417   0.501 -0.3017  0.1689 -0.0246
  179MOL0     C24045   7.307  -0.481   0.633 -0.2139 -0.7859 -0.2774
  179MOL0     C24046   7.413  -0.563   0.706 -0.4663  0.5064  0.4979
  179MOL0     N24047   7.369  -0.588   0.843  0.4318  0.5529 -0.5242
  179MOL0     C24048   7.435  -0.541   0.950  1.0369 -0.6272  0.2571
  179MOL0     C24049   7.364  -0.590   1.058 -0.6700 -0.0999 -0.0355
  179MOL0     C24050   7.392  -0.579   1.206  0.7182 -0.3972  0.7974
  179MOL0     C24051   7.393  -0.434   1.263  1.7331  0.2933 -0.2615
  179MOL0     C24052   7.437  -0.435   1.411  0.0345 -0.0068  0.0548
  179MOL0     C24053   7.323  -0.440   1.511  0.1406  0.7284  0.6042
  179MOL0     O24054   7.248  -0.563   1.492  0.3284  0.3116  0.1399
  179MOL0     C24055   7.140  -0.585   1.573  0.0237  0.3778  0.5450
  179MOL0     C24056   7.091  -0.719   1.560  0.7779 -0.3769  0.1908
  179MOL0     C24057   6.975  -0.761   1.623 -1.0602  0.4232 -0.4558
  179MOL0     C24058   6.940  -0.912   1.625  0.1866  0.5356 -0.0383
  179MOL0     C24059   6.891  -0.664   1.677 -0.5297  0.4314  0.7751
  179MOL0     C24060   6.758  -0.695   1.739 -0.9111  0.3968 -0.4916
  179MOL0     O24061   6.708  -0.613   1.829  0.3118 -0.1643 -0.2545
  179MOL0     C24062   6.600  -0.653   1.913 -0.1882 -0.3243  0.4116
  179MOL0     C24063   6.618  -0.764   2.007  0.6915  0.5443 -0.0721
  179MOL0     C24064   6.519  -0.805   2.098 -0.1146 -0.9663  0.0275
  179MOL0     C24065   6.394  -0.739   2.093 -0.1918  0.1044 -0.6614
  179MOL0     O24066   6.281  -0.765   2.175 -0.2262  0.1674 -0.5022
  179MOL0     C24067   6.320  -0.837   2.294  0.5003 -0.0793 -0.4224
  179MOL0     C24068   6.200  -0.825   2.390  0.6762 -0.0292 -0.3623
  179MOL0     C24069   6.206  -0.856   2.540  0.7450  1.1313 -0.7315
  179MOL0     C24070   6.313  -0.775   2.610  0.7568  0.2310 -0.2987
  179MOL0     C24071   6.316  -0.792   2.755  0.3614  0.0095 -0.4060
  179MOL0     C24072   6.194  -0.746   2.838  0.1110 -0.8523 -0.5930
  179MOL0     C24073   6.162  -0.597   2.832  0.5165 -1.4994 -0.2753
  179MOL0     C24074   6.284  -0.493   2.825 -0.1579  0.1643  0.4628
  179MOL0    Cl24075   6.411  -0.509   2.951  0.1692  0.2361  0.4976
  179MOL0     C24076   6.365  -0.638   1.999  0.0645  0.6984 -0.0062
  179MOL0     C24077   6.472  -0.594   1.917 -0.7738  0.5036  0.0380
  179MOL0     O24078   6.706  -0.797   1.696 -0.6890 -0.1627 -0.3492
  179MOL0     C24079   6.947  -0.530   1.694  0.1005  0.3192 -0.7273
  179MOL0     C24080   7.069  -0.498   1.649  0.6809  0.8808  0.0167
  179MOL0     N24081   7.262  -0.665   1.015  0.0903 -0.3995  0.3380
  179MOL0     N24082   7.257  -0.657   0.886  0.1715  0.1113 -0.5100
  179MOL0     C24083   6.698   0.219   0.383  0.7330  0.3273 -0.2845
  179MOL0     C24084   6.616   0.308   0.307 -0.4281 -0.5460 -1.1887
  179MOL0     C24085   6.368   0.520   0.072  0.0770  0.3216 -0.2943
  179MOL0     C24086   6.379   0.659   0.098  0.4074  0.3777  0.0965
  179MOL0     C24087   6.270   0.753   0.086 -0.0173  0.8780  0.3854
  179MOL0     C24088   6.149   0.702   0.035 -0.2676  0.2717  0.5603
  179MOL0     O24089   6.044   0.784  -0.001  1.4194 -0.7883  0.4201
  179MOL0     C24090   5.984   0.854   0.104  0.4587 -0.1100  0.2050
  179MOL0     C24091   5.900   0.968   0.044  0.5759 -0.6922 -0.0833
  179MOL0     C24092   5.835   1.061   0.148  0.1326 -0.0804 -0.9636
  179MOL0     C24093   5.931   1.098   0.260  0.3759  0.6153 -1.0429
  179MOL0     C24094   6.055   1.156   0.201 -0.5989 -0.0008  0.3249
  179MOL0     C24095   6.169   1.187   0.168 -0.2629  0.8630  0.2016
  179MOL0     C24096   6.138   0.567   0.016  0.4385 -0.0044 -0.5930
  179MOL0     C24097   6.240   0.476   0.032  0.3623  0.8213 -0.4878
  179MOL0     H24098   6.848   0.440   0.105  0.2334 -4.3807 -1.8751
  179MOL0     H24099   6.997   0.281   0.236 -1.1599 -2.5577  0.5490
  179MOL0     H24100   6.829   0.027   0.553  3.0232 -0.6408  0.9580
  179MOL0     H24101   6.829  -0.047   0.386  3.4922 -2.4074 -1.4158
  179MOL0     H24102   7.066  -0.003   0.555 -1.5817  0.9969  1.5536
  179MOL0     H24103   6.960  -0.141   0.593 -3.6927 -3.3314 -3.2402
  179MOL0     H24104   6.996  -0.248   0.373 -0.5397 -1.1620 -0.4014
  179MOL0     H24105   7.085  -0.117   0.316 -0.1282 -0.2633  0.1128
  179MOL0     H24106   7.255  -0.159   0.512 -1.4425  2.3599 -0.7951
  179MOL0     H24107   7.144  -0.277   0.582  0.2651 -0.1936  0.2287
  179MOL0     H24108   7.170  -0.427   0.384  0.8126 -1.2794 -0.6050
  179MOL0     H24109   7.293  -0.323   0.319  0.3375 -0.1882  0.9971
  179MOL0     H24110   7.423  -0.494   0.457  5.8637  3.7195  1.6600
  179MOL0     H24111   7.427  -0.341   0.539  2.8594 -1.8388 -1.2955
  179MOL0     H24112   7.282  -0.399   0.702  2.4541 -1.1244  1.2148
  179MOL0     H24113   7.223  -0.550   0.620 -0.9843  0.0150  0.3133
  179MOL0     H24114   7.505  -0.508   0.686  0.2092 -0.5284  0.6972
  179MOL0     H24115   7.422  -0.663   0.665 -0.0837  1.0613 -0.8137
  179MOL0     H24116   7.530  -0.488   0.948  0.5236  0.3937 -2.6475
  179MOL0     H24117   7.324  -0.644   1.261  1.5175  0.2005  2.5823
  179MOL0     H24118   7.493  -0.623   1.213  1.4356  0.5018 -2.3679
  179MOL0     H24119   7.289  -0.400   1.261  1.7134  0.5586  1.9664
  179MOL0     H24120   7.453  -0.364   1.206 -2.4188  3.0455 -1.6806
  179MOL0     H24121   7.500  -0.350   1.439 -1.2215  0.9971 -0.0899
  179MOL0     H24122   7.504  -0.519   1.432  0.9613  0.8104  0.4239
  179MOL0     H24123   7.257  -0.353   1.511 -1.7532 -0.6459  1.4481
  179MOL0     H24124   7.363  -0.431   1.613 -2.7009 -0.1531  1.8939
  179MOL0     H24125   7.151  -0.796   1.512 -0.2365 -1.4035  0.5184
  179MOL0     H24126   7.011  -0.961   1.557 -1.2028 -1.0787 -0.3771
  179MOL0     H24127   6.958  -0.949   1.727  0.5987 -0.0189 -0.3056
  179MOL0     H24128   6.842  -0.937   1.585 -0.0168 -0.1463  0.8413
  179MOL0     H24129   6.712  -0.817   2.000  1.2982  1.7878 -2.2827
  179MOL0     H24130   6.537  -0.893   2.159  2.1703 -3.4340 -3.7563
  179MOL0     H24131   6.346  -0.942   2.278 -0.9142 -0.3092 -1.3687
  179MOL0     H24132   6.408  -0.787   2.334  2.1229 -1.5388 -2.0002
  179MOL0     H24133   6.154  -0.726   2.383  0.1806 -0.3421 -1.9192
  179MOL0     H24134   6.123  -0.890   2.349 -2.2885  1.4762  2.3691
  179MOL0     H24135   6.226  -0.964   2.546  1.0136  1.1710 -0.9246
  179MOL0     H24136   6.107  -0.844   2.586  0.7419 -2.2544  0.4359
  179MOL0     H24137   6.409  -0.814   2.572 -1.4913 -4.0688 -2.3336
  179MOL0     H24138   6.303  -0.669   2.585 -0.7507  0.2286  0.2099
  179MOL0     H24139   6.403  -0.744   2.801 -2.5580  1.8044  3.9249
  179MOL0     H24140   6.328  -0.898   2.777  1.1060  0.4594  1.6586
  179MOL0     H24141   6.099  -0.799   2.819  0.4998 -1.8411  0.1025
  179MOL0     H24142   6.211  -0.775   2.942 -4.2839 -2.4401 -0.0688
  179MOL0     H24143   6.103  -0.565   2.919 -0.3256 -2.6402 -0.3964
  179MOL0     H24144   6.109  -0.581   2.738 -1.8195 -3.2697  0.6338
  179MOL0     H24145   6.252  -0.389   2.831  2.4130  0.9907  0.8345
  179MOL0     H24146   6.345  -0.507   2.735  0.5371 -0.6084  1.0329
  179MOL0     H24147   6.262  -0.605   1.997 -0.8697 -1.8477  1.6023
  179MOL0     H24148   6.446  -0.518   1.843  0.2335  2.2408  1.4030
  179MOL0     H24149   6.897  -0.449   1.746 -1.3831  0.0860 -1.7042
  179MOL0     H24150   7.101  -0.395   1.653 -3.2538  2.2298  1.4494
  179MOL0     H24151   6.656   0.144   0.449  1.8577 -0.5793 -0.5620
  179MOL0     H24152   6.510   0.324   0.326  0.4187  3.6739  1.0378
  179MOL0     H24153   6.470   0.704   0.137 -0.8976  1.4677  2.0868
  179MOL0     H24154   6.278   0.861   0.088 -3.4289  1.2238 -0.0788
  179MOL0     H24155   5.916   0.783   0.151  0.7531  0.8491  2.2001
  179MOL0     H24156   6.052   0.893   0.180  1.4691  2.5723 -1.8753
  179MOL0     H24157   5.829   0.922  -0.025  0.6567  1.3395 -1.6079
  179MOL0     H24158   5.953   1.034  -0.026 -0.6513  3.0425  2.2077
  179MOL0     H24159   5.746   1.017   0.192  1.7815 -2.1766  0.4932
  179MOL0     H24160   5.808   1.154   0.097  0.6033  0.4917 -0.1872
  179MOL0     H24161   5.965   1.020   0.329 -0.5478  1.1626  0.0769
  179MOL0     H24162   5.885   1.172   0.325  2.4224  1.0678 -0.0324
  179MOL0     H24163   6.269   1.219   0.144 -1.3851  3.4961 -1.5595
  179MOL0     H24164   6.043   0.525  -0.017 -0.7608  2.4805 -0.5867
  179MOL0     H24165   6.213   0.373   0.011 -3.4141  1.5598  0.0692
  180MOL0     O24166   2.859   6.746   2.483  0.6302 -0.4840  0.4776
  180MOL0     C24167   2.840   6.674   2.573 -0.3636  0.3070 -0.3354
  180MOL0     O24168   2.933   6.616   2.654  0.0513  0.3583 -0.0748
  180MOL0     C24169   3.070   6.640   2.650  0.7985 -0.0061 -0.5596
  180MOL0     C24170   3.137   6.634   2.526 -1.5870 -0.3790  0.0359
  180MOL0     C24171   3.273   6.676   2.528  0.2882 -0.7989  0.1937
  180MOL0     C24172   3.345   6.687   2.649 -0.0345  0.6329  0.3910
  180MOL0     O24173   3.483   6.711   2.658 -0.0915  0.8924  0.0125
  180MOL0     C24174   3.507   6.844   2.693  0.1975  0.1556 -0.2516
  180MOL0     C24175   3.661   6.833   2.714  0.0359 -0.2385 -0.5157
  180MOL0     C24176   3.734   6.799   2.576  0.0207  0.2148  0.4559
  180MOL0     C24177   3.884   6.811   2.565  0.1422  0.5208  0.3777
  180MOL0     C24178   3.952   6.719   2.665 -0.3915 -1.0917 -1.0937
  180MOL0     C24179   4.108   6.721   2.642  0.4244 -0.4550  0.7851
  180MOL0     C24180   4.197   6.819   2.724 -0.0057 -0.0136  0.2535
  180MOL0     C24181   4.170   6.959   2.679  0.5871  0.0146  0.0304
  180MOL0     N24182   4.089   7.047   2.764  0.3497 -0.7415 -0.0038
  180MOL0     C24183   3.986   7.010   2.858 -0.0942 -0.1905  1.0168
  180MOL0     C24184   3.914   7.132   2.870 -0.2554  0.0367  0.0969
  180MOL0     C24185   3.799   7.144   2.960 -0.0200  0.1036  0.7307
  180MOL0     C24186   3.672   7.217   2.896  0.2500 -0.1642  0.2923
  180MOL0     C24187   3.556   7.248   2.993 -0.1843  0.1349 -0.1695
  180MOL0     C24188   3.431   7.289   2.914  0.9048 -1.3488  0.6585
  180MOL0     O24189   3.355   7.165   2.877 -0.0901 -0.0302  0.6803
  180MOL0     C24190   3.227   7.175   2.831 -0.1577 -0.4319 -0.2006
  180MOL0     C24191   3.153   7.288   2.829 -0.2731 -0.3816  0.7134
  180MOL0     C24192   3.023   7.294   2.787 -0.1579 -0.2423  0.3819
  180MOL0     C24193   2.945   7.421   2.802  0.3872 -0.1779  0.0574
  180MOL0     C24194   2.960   7.174   2.741 -0.1201 -0.8539  0.3905
  180MOL0     C24195   2.817   7.177   2.706 -0.2952 -1.0078  0.1920
  180MOL0     O24196   2.774   7.143   2.578 -0.2545 -0.0480  0.0957
  180MOL0     C24197   2.640   7.133   2.544  0.4560  0.3492  0.1920
  180MOL0     C24198   2.603   7.029   2.458 -0.8679 -1.1731 -0.0071
  180MOL0     C24199   2.474   6.995   2.427 -0.6411  0.0123 -0.2393
  180MOL0     C24200   2.366   7.077   2.480  0.0979  0.1719 -0.2521
  180MOL0     O24201   2.238   7.055   2.434  0.6193  0.0298 -0.1324
  180MOL0     C24202   2.133   7.154   2.436  0.3501 -0.1334 -0.3106
  180MOL0     C24203   2.017   7.116   2.340 -0.2611  0.5436  0.8144
  180MOL0     C24204   1.896   7.202   2.371 -0.4223 -0.1342  0.0361
  180MOL0     C24205   1.787   7.192   2.269  0.7067  0.1830 -0.1523
  180MOL0     C24206   1.820   7.275   2.149 -0.9241  0.0126 -0.5663
  180MOL0     C24207   1.750   7.238   2.029 -0.3596 -0.0670 -0.2336
  180MOL0     C24208   1.751   7.330   1.908  0.6075  0.4247  0.7706
  180MOL0     C24209   1.768   7.257   1.780 -0.0182 -0.6783  0.2644
  180MOL0    Cl24210   1.927   7.208   1.755 -0.1618  0.0378  0.0692
  180MOL0     C24211   2.402   7.197   2.554  0.7269  0.4433  0.2990
  180MOL0     C24212   2.535   7.214   2.589  0.8182  1.0996 -0.7037
  180MOL0     O24213   2.741   7.198   2.799  0.2142  0.2286 -0.3057
  180MOL0     C24214   3.035   7.059   2.734  0.2421 -0.2071  0.6352
  180MOL0     C24215   3.163   7.054   2.781 -0.6723 -0.4923  1.2728
  180MOL0     N24216   3.986   7.232   2.810 -0.0967  0.7904  0.6950
  180MOL0     N24217   4.089   7.183   2.744  0.0726 -0.2609  0.0580
  180MOL0     C24218   3.277   6.703   2.768  0.0019  1.1990 -0.3134
  180MOL0     C24219   3.142   6.673   2.767 -1.1101 -0.4541  0.0742
  180MOL0     C24220   2.701   6.638   2.616 -0.5113  1.0994  0.8480
  180MOL0     C24221   2.596   6.699   2.541  0.0095 -0.1369 -0.1067
  180MOL0     C24222   2.463   6.696   2.590  0.4037  0.7064  0.4922
  180MOL0     C24223   2.429   6.614   2.700  0.9091  0.0267  0.4830
  180MOL0     O24224   2.294   6.579   2.729 -0.8571  0.3168  0.7342
  180MOL0     C24225   2.263   6.446   2.772  0.9864 -0.7462  0.7382
  180MOL0     C24226   2.106   6.434   2.769 -0.7389 -0.6632  0.4038
  180MOL0     C24227   2.049   6.432   2.625 -0.1088  0.6730 -0.3714
  180MOL0     C24228   2.075   6.297   2.555 -0.3631  0.2578  0.1462
  180MOL0     C24229   2.008   6.180   2.609 -0.4424  0.5084 -1.2045
  180MOL0     C24230   1.965   6.081   2.663  0.0049 -0.0003 -0.5644
  180MOL0     C24231   2.527   6.561   2.777  0.7696 -0.4973  0.0762
  180MOL0     C24232   2.664   6.574   2.739  0.8058  0.1788  0.6550
  180MOL0     H24233   3.089   6.618   2.430 -2.1160 -2.4431  0.5891
  180MOL0     H24234   3.328   6.694   2.437 -0.8596 -0.0386 -0.3583
  180MOL0     H24235   3.489   6.912   2.609  0.2751  0.2166 -0.2178
  180MOL0     H24236   3.462   6.873   2.788 -0.8274 -1.8076 -0.0746
  180MOL0     H24237   3.695   6.927   2.758  1.7409 -0.6013 -1.0022
  180MOL0     H24238   3.678   6.751   2.784 -0.9874 -2.1227 -2.3583
  180MOL0     H24239   3.723   6.691   2.559 -2.0409  0.5771 -0.8120
  180MOL0     H24240   3.690   6.853   2.492  1.9040  3.0964  1.1900
  180MOL0     H24241   3.923   6.792   2.464  1.5656 -0.5113  1.0884
  180MOL0     H24242   3.901   6.917   2.586  0.7319  0.4554  0.2455
  180MOL0     H24243   3.923   6.750   2.765  0.1495 -0.8609 -1.0051
  180MOL0     H24244   3.917   6.616   2.654 -1.5813 -0.7990 -0.2613
  180MOL0     H24245   4.140   6.618   2.664  3.5137 -0.6333 -3.3499
  180MOL0     H24246   4.116   6.725   2.533 -0.0963 -1.0188  0.7225
  180MOL0     H24247   4.183   6.806   2.832 -1.2731 -0.0981  0.0979
  180MOL0     H24248   4.301   6.795   2.703 -0.1483  1.7075 -2.9911
  180MOL0     H24249   4.115   6.956   2.584  0.1469 -2.6487  0.2954
  180MOL0     H24250   4.266   7.005   2.656  0.9398 -0.1998  1.0297
  180MOL0     H24251   3.959   6.911   2.893  0.3069 -0.9314 -0.6533
  180MOL0     H24252   3.778   7.039   2.986  0.7013 -0.0661  0.6421
  180MOL0     H24253   3.829   7.211   3.040  1.6160  2.5190 -1.7492
  180MOL0     H24254   3.638   7.153   2.814  0.9455 -2.7288  1.8682
  180MOL0     H24255   3.705   7.315   2.860 -0.1008  0.1643  0.8514
  180MOL0     H24256   3.579   7.333   3.058  2.1485 -1.4024  1.1929
  180MOL0     H24257   3.533   7.158   3.050 -1.3444 -0.4880 -1.5609
  180MOL0     H24258   3.459   7.345   2.825  2.6772 -3.1078  0.0393
  180MOL0     H24259   3.373   7.359   2.975 -0.8523  0.3539 -2.7353
  180MOL0     H24260   3.192   7.381   2.870  1.4452  0.4430 -2.3883
  180MOL0     H24261   2.887   7.442   2.711 -1.2743  0.2283  1.1570
  180MOL0     H24262   2.877   7.417   2.888  1.5883 -1.1366  0.9904
  180MOL0     H24263   2.999   7.513   2.827  0.3678 -0.4542  1.1556
  180MOL0     H24264   2.683   6.962   2.428 -0.9811 -0.9928 -0.7268
  180MOL0     H24265   2.457   6.906   2.367 -0.3611 -1.5798  1.9152
  180MOL0     H24266   2.111   7.166   2.542 -0.5002  0.4612 -0.5381
  180MOL0     H24267   2.170   7.251   2.402 -1.3271  1.5633  2.3994
  180MOL0     H24268   2.048   7.128   2.236 -0.4771 -1.9594  0.4117
  180MOL0     H24269   1.986   7.012   2.357  0.6004  0.1859  0.2387
  180MOL0     H24270   1.920   7.309   2.379 -1.4714  0.2082 -1.0796
  180MOL0     H24271   1.862   7.176   2.472  0.6219 -2.2222 -0.0996
  180MOL0     H24272   1.785   7.089   2.234 -0.5469  0.2357 -0.2774
  180MOL0     H24273   1.692   7.223   2.313 -0.8978 -1.4081 -2.2686
  180MOL0     H24274   1.926   7.272   2.126 -0.7765  0.2897  0.0601
  180MOL0     H24275   1.790   7.379   2.167  4.3145  1.3058  2.9084
  180MOL0     H24276   1.779   7.139   1.994  1.3970  0.1053  0.6567
  180MOL0     H24277   1.643   7.220   2.046 -0.2272  0.1172  0.8714
  180MOL0     H24278   1.845   7.385   1.910  2.2719 -2.0917 -1.1577
  180MOL0     H24279   1.663   7.395   1.906 -0.8670 -1.4427  1.7113
  180MOL0     H24280   1.739   7.326   1.701 -0.3937 -1.4881 -0.3200
  180MOL0     H24281   1.700   7.174   1.760 -0.2412 -0.4297 -0.0110
  180MOL0     H24282   2.330   7.270   2.589 -1.5744 -0.9468 -1.2181
  180MOL0     H24283   2.540   7.300   2.655 -2.8100  1.6564 -0.9162
  180MOL0     H24284   2.995   6.969   2.688  1.5150 -1.0763  1.1786
  180MOL0     H24285   3.218   6.966   2.747  0.8737  0.9707 -0.2741
  180MOL0     H24286   3.330   6.723   2.860  2.8868 -1.9023 -1.1136
  180MOL0     H24287   3.095   6.701   2.861 -0.3874  0.8314  0.0804
  180MOL0     H24288   2.618   6.752   2.449  0.0933 -0.5827 -0.3494
  180MOL0     H24289   2.380   6.734   2.531 -0.3542  0.1331  1.1633
  180MOL0     H24290   2.318   6.380   2.703  1.3450 -0.4740  0.7573
  180MOL0     H24291   2.307   6.421   2.869 -0.5788 -0.9843  1.4127
  180MOL0     H24292   2.051   6.507   2.828  0.5871 -0.9040  2.0130
  180MOL0     H24293   2.081   6.336   2.812  1.0642 -1.9468 -1.2721
  180MOL0     H24294   2.088   6.520   2.572  0.1752  0.0243 -1.2671
  180MOL0     H24295   1.941   6.447   2.629 -0.2023  0.3348 -1.3009
  180MOL0     H24296   2.184   6.296   2.543 -0.4227  1.3688 -0.7499
  180MOL0     H24297   2.037   6.312   2.453  1.5813  1.1874 -0.4947
  180MOL0     H24298   1.917   5.994   2.701 -2.0201  2.1407  2.1690
  180MOL0     H24299   2.504   6.526   2.877 -0.6691  3.3632  1.2684
  180MOL0     H24300   2.738   6.560   2.817  1.6031  3.7789  0.7096
  181MOL0     O24301  10.460  10.945   6.087 -0.0185  0.0436  0.5747
  181MOL0     C24302  10.443  10.936   5.970  0.4331  0.1928 -0.6129
  181MOL0     O24303  10.341  10.997   5.904 -0.3634  0.7677 -0.9547
  181MOL0     C24304  10.245  11.062   5.980 -0.0691 -0.9542 -0.3761
  181MOL0     C24305  10.183  11.168   5.917 -0.5582 -0.5863 -0.4450
  181MOL0     C24306  10.068  11.236   5.965 -0.6258  0.5260 -0.4357
  181MOL0     C24307   9.999  11.174   6.078  0.2361 -1.1135 -0.5325
  181MOL0     O24308   9.888  11.237   6.123 -0.1827  0.7826 -0.2019
  181MOL0     C24309   9.765  11.171   6.113 -0.4629  0.1089  0.4904
  181MOL0     C24310   9.689  11.187   6.238  0.7666  1.2048 -0.4281
  181MOL0     C24311   9.590  11.066   6.247  0.1877 -0.4186  0.0694
  181MOL0     C24312   9.618  10.981   6.371 -0.1770  0.1919  0.0605
  181MOL0     C24313   9.593  11.049   6.510 -0.4928  0.7681 -0.0995
  181MOL0     C24314   9.450  11.059   6.553  0.2601  0.0431  0.5522
  181MOL0     C24315   9.437  11.120   6.688 -0.1652 -0.6770 -0.8002
  181MOL0     C24316   9.438  11.012   6.801 -0.4472 -1.0137  0.1613
  181MOL0     N24317   9.453  11.071   6.935 -0.3630  0.5675 -0.1484
  181MOL0     C24318   9.538  11.172   6.973 -1.5444 -0.9581 -0.4290
  181MOL0     C24319   9.511  11.198   7.105  0.8905  0.3163  0.4617
  181MOL0     C24320   9.555  11.323   7.178  0.0640  0.5562 -0.1926
  181MOL0     C24321   9.535  11.454   7.098  0.6943 -0.2477  0.3567
  181MOL0     C24322   9.654  11.561   7.111 -0.6798  0.6437 -0.0523
  181MOL0     C24323   9.765  11.524   7.014 -0.2567 -0.7772 -0.5905
  181MOL0     O24324   9.834  11.648   6.986  0.5291 -0.0302  0.4804
  181MOL0     C24325   9.958  11.636   6.935 -0.4636  0.0497 -1.5532
  181MOL0     C24326  10.032  11.752   6.914  0.3501  0.6729 -0.6851
  181MOL0     C24327  10.162  11.747   6.852  0.2445 -0.2544  0.0283
  181MOL0     C24328  10.229  11.870   6.800  0.1388  0.0491  0.0790
  181MOL0     C24329  10.222  11.626   6.812 -0.8994  0.4973  0.4995
  181MOL0     C24330  10.367  11.610   6.775  0.2242  0.9583 -0.0778
  181MOL0     O24331  10.400  11.501   6.706  0.1881  0.0960 -0.6848
  181MOL0     C24332  10.529  11.467   6.674 -0.5927 -0.3674  0.1514
  181MOL0     C24333  10.630  11.563   6.640  0.4574 -0.0419 -0.0773
  181MOL0     C24334  10.761  11.524   6.599 -0.1525 -0.5748  0.3795
  181MOL0     C24335  10.790  11.388   6.579 -0.3917  0.0484  0.1377
  181MOL0     O24336  10.924  11.367   6.548  1.0536 -0.0513 -0.9930
  181MOL0     C24337  10.976  11.228   6.536  0.6815  0.0553 -0.9164
  181MOL0     C24338  11.121  11.226   6.495  0.8976 -0.2312 -0.8836
  181MOL0     C24339  11.198  11.102   6.522  0.7629 -0.5805  0.0230
  181MOL0     C24340  11.347  11.120   6.530 -0.7717  0.5871  0.6366
  181MOL0     C24341  11.427  10.985   6.551  0.5695  0.1289 -0.0628
  181MOL0     C24342  11.569  11.023   6.575  0.2718  0.3276  0.5898
  181MOL0     C24343  11.657  10.894   6.590 -0.5643 -0.0009  0.9841
  181MOL0     C24344  11.801  10.940   6.576  0.5083  0.0278 -0.2663
  181MOL0    Cl24345  11.833  10.982   6.407  0.3525 -0.1973  0.0678
  181MOL0     C24346  10.702  11.292   6.617 -0.1254 -0.0847  0.8104
  181MOL0     C24347  10.570  11.333   6.647  0.2113  0.0156  0.4231
  181MOL0     O24348  10.445  11.693   6.826  0.6771 -0.5645  0.3540
  181MOL0     C24349  10.142  11.506   6.839 -0.7320 -0.8197  0.2390
  181MOL0     C24350  10.021  11.515   6.898 -1.0635 -0.0515 -0.3402
  181MOL0     N24351   9.412  11.109   7.149 -0.5440 -0.4402  0.4307
  181MOL0     N24352   9.383  11.033   7.046 -0.0630  0.5833 -0.6205
  181MOL0     C24353  10.054  11.062   6.144 -1.3245 -0.2290  0.1148
  181MOL0     C24354  10.175  11.007   6.092 -1.0480  0.5141  0.1003
  181MOL0     C24355  10.566  10.909   5.885  0.2990 -0.1213  0.0385
  181MOL0     C24356  10.691  10.876   5.942  0.0141  0.5183 -0.0651
  181MOL0     C24357  10.810  10.873   5.862  0.7435 -0.3400 -0.2152
  181MOL0     C24358  10.800  10.897   5.724 -1.0915 -0.3798  1.0572
  181MOL0     O24359  10.913  10.904   5.642  0.5132  0.6058  1.0779
  181MOL0     C24360  11.033  10.831   5.675 -0.0076 -0.3138 -0.4884
  181MOL0     C24361  11.131  10.847   5.556  0.8155 -0.3150 -0.3838
  181MOL0     C24362  11.267  10.792   5.564 -0.8017 -0.4907 -0.5286
  181MOL0     C24363  11.268  10.643   5.582  0.8049  0.3781  0.0048
  181MOL0     C24364  11.399  10.586   5.598 -0.2145 -0.4828 -0.6837
  181MOL0     C24365  11.508  10.546   5.627  1.3981  0.0654  0.6260
  181MOL0     C24366  10.673  10.908   5.667 -0.4566  0.2992  0.6525
  181MOL0     C24367  10.564  10.921   5.747 -0.4034 -0.1206 -0.3837
  181MOL0     H24368  10.238  11.210   5.834 -0.3756  0.3026  0.1135
  181MOL0     H24369  10.030  11.323   5.914  2.0714  1.3679 -1.1982
  181MOL0     H24370   9.697  11.212   6.038 -0.4878 -0.2136  0.3329
  181MOL0     H24371   9.777  11.063   6.096  1.8749  0.2291  1.0661
  181MOL0     H24372   9.760  11.177   6.320 -2.5369 -3.9919  2.3493
  181MOL0     H24373   9.636  11.282   6.251  0.1405  0.8160 -0.0846
  181MOL0     H24374   9.489  11.106   6.257  0.5945  0.1535  2.8413
  181MOL0     H24375   9.595  10.995   6.164  1.3920  0.6539 -0.8020
  181MOL0     H24376   9.554  10.893   6.375 -0.5498  0.5089  2.2763
  181MOL0     H24377   9.723  10.948   6.366 -0.2084 -0.1270  1.1977
  181MOL0     H24378   9.648  10.986   6.580  3.7722  0.1714 -3.5550
  181MOL0     H24379   9.638  11.149   6.506  2.6455 -0.5805 -2.1876
  181MOL0     H24380   9.409  11.138   6.489  1.6246  4.3490  4.4545
  181MOL0     H24381   9.395  10.966   6.537 -1.2267  0.4431  2.7930
  181MOL0     H24382   9.521  11.188   6.708  0.3300 -1.4554 -0.1776
  181MOL0     H24383   9.345  11.176   6.706  0.5748  0.6672 -1.0636
  181MOL0     H24384   9.521  10.945   6.778 -0.9844 -1.8725  0.6979
  181MOL0     H24385   9.341  10.963   6.792 -1.7716  1.4200  0.1453
  181MOL0     H24386   9.598  11.242   6.916 -0.8549 -0.9193  0.3378
  181MOL0     H24387   9.486  11.322   7.262  1.1479 -1.6867  0.7496
  181MOL0     H24388   9.658  11.310   7.210  0.7540  0.8133 -2.1301
  181MOL0     H24389   9.441  11.491   7.140 -0.9404 -3.8079  0.2004
  181MOL0     H24390   9.511  11.435   6.993 -0.9841  0.8254  0.5023
  181MOL0     H24391   9.708  11.565   7.206  2.8343 -1.4933 -1.7475
  181MOL0     H24392   9.606  11.659   7.100 -1.8696  0.2805  1.5506
  181MOL0     H24393   9.723  11.468   6.930 -0.8603  0.4202 -1.1116
  181MOL0     H24394   9.821  11.445   7.065 -2.3593 -3.6299 -2.3272
  181MOL0     H24395   9.997  11.846   6.955  1.5542  1.2017 -0.8293
  181MOL0     H24396  10.156  11.951   6.804 -0.7720 -0.5349 -2.7336
  181MOL0     H24397  10.303  11.899   6.875  0.0800 -2.5579  1.2542
  181MOL0     H24398  10.266  11.847   6.700  0.2157 -1.7453  0.4826
  181MOL0     H24399  10.619  11.670   6.629 -1.5343 -0.3276 -1.2553
  181MOL0     H24400  10.829  11.607   6.589 -0.9457  0.1622  0.9498
  181MOL0     H24401  10.972  11.172   6.630  0.4046 -1.1170 -1.6109
  181MOL0     H24402  10.926  11.174   6.456 -0.4069  1.8717 -1.5330
  181MOL0     H24403  11.140  11.245   6.389  0.2198 -2.1186 -1.3811
  181MOL0     H24404  11.166  11.298   6.565 -1.6636  2.0438 -1.4028
  181MOL0     H24405  11.174  11.035   6.439  1.1673  2.1726 -2.4838
  181MOL0     H24406  11.160  11.058   6.614  1.4613 -0.4922  0.3586
  181MOL0     H24407  11.385  11.159   6.435  0.8957  1.1908  1.5052
  181MOL0     H24408  11.381  11.194   6.603 -1.9830  0.7424  1.0638
  181MOL0     H24409  11.417  10.914   6.468  0.5021  2.1189 -1.8558
  181MOL0     H24410  11.394  10.925   6.636 -0.6064 -0.2924 -0.7956
  181MOL0     H24411  11.606  11.075   6.486 -2.8192  1.5046 -0.1340
  181MOL0     H24412  11.576  11.085   6.664  2.6423 -0.9069  1.3299
  181MOL0     H24413  11.649  10.820   6.510  0.9138  1.1777 -0.3229
  181MOL0     H24414  11.649  10.839   6.684  1.6654  0.1456  1.3080
  181MOL0     H24415  11.857  10.853   6.610 -1.6788 -1.9327 -1.3733
  181MOL0     H24416  11.828  11.024   6.641  2.9122 -0.0718 -1.0727
  181MOL0     H24417  10.739  11.189   6.615  1.6401  0.3207 -4.4112
  181MOL0     H24418  10.507  11.250   6.679  0.4104 -0.7454 -1.0819
  181MOL0     H24419  10.182  11.410   6.808 -0.9511 -1.8321  2.8996
  181MOL0     H24420   9.969  11.421   6.917 -1.4481  0.1969 -0.1525
  181MOL0     H24421  10.002  11.019   6.229  1.9438 -1.5638  1.6389
  181MOL0     H24422  10.219  10.912   6.119 -0.6920 -0.1706 -2.5363
  181MOL0     H24423  10.707  10.858   6.048  0.8458  0.3249 -0.2240
  181MOL0     H24424  10.902  10.864   5.918 -0.7047  1.0500  2.6171
  181MOL0     H24425  11.082  10.879   5.761  0.9214 -1.3167 -0.4333
  181MOL0     H24426  11.009  10.730   5.712  1.5298 -1.1335 -1.6071
  181MOL0     H24427  11.126  10.956   5.544 -0.6007 -0.3470 -0.1903
  181MOL0     H24428  11.088  10.805   5.464 -1.5465 -1.5029  1.1642
  181MOL0     H24429  11.316  10.838   5.651 -0.7059 -0.0791 -0.7969
  181MOL0     H24430  11.334  10.822   5.483  0.7514 -0.3611  0.7404
  181MOL0     H24431  11.216  10.590   5.502  2.1010 -0.1509 -0.5147
  181MOL0     H24432  11.207  10.622   5.671  1.5337  4.1425  1.5970
  181MOL0     H24433  11.594  10.493   5.661  0.9622 -0.6130  0.6740
  181MOL0     H24434  10.656  10.902   5.560  1.9170  1.2551  0.1744
  181MOL0     H24435  10.468  10.933   5.698 -0.6390 -3.0410 -0.8399
  182MOL0     O24436   7.088   6.045   1.325  0.1948  0.5126 -0.2625
  182MOL0     C24437   6.994   5.972   1.347  0.3860  0.8655 -1.4492
  182MOL0     O24438   6.879   6.011   1.418 -0.4956 -0.5732  0.0811
  182MOL0     C24439   6.872   6.140   1.459  0.0314 -0.8369  0.3539
  182MOL0     C24440   6.818   6.153   1.592 -0.1948 -0.1984  0.2040
  182MOL0     C24441   6.813   6.284   1.646  0.2370 -0.6000 -0.2790
  182MOL0     C24442   6.841   6.396   1.567 -0.3923  0.3643 -0.5703
  182MOL0     O24443   6.848   6.514   1.636 -0.0468 -0.3851  0.3769
  182MOL0     C24444   6.909   6.628   1.576 -0.6324 -1.2360 -0.2237
  182MOL0     C24445   6.824   6.713   1.484  0.2052 -0.5953 -0.1038
  182MOL0     C24446   6.701   6.762   1.556  0.2692 -0.7397 -1.0754
  182MOL0     C24447   6.629   6.871   1.464  0.2209 -0.5062 -0.2421
  182MOL0     C24448   6.498   6.940   1.503 -0.3755  0.1750  0.1462
  182MOL0     C24449   6.444   7.045   1.397 -0.8014 -0.3087 -0.3248
  182MOL0     C24450   6.418   6.975   1.264  0.1181  0.0965  0.0550
  182MOL0     C24451   6.307   7.043   1.177 -0.2798  0.4764  0.0592
  182MOL0     N24452   6.172   7.014   1.231 -0.4376 -0.7193 -1.3597
  182MOL0     C24453   6.102   6.898   1.245 -0.3191 -0.0808 -0.1928
  182MOL0     C24454   5.989   6.912   1.310 -0.5813 -0.3231  0.3501
  182MOL0     C24455   5.882   6.811   1.348 -1.0818  0.2209 -0.3763
  182MOL0     C24456   5.800   6.862   1.470 -0.3434  0.0801 -0.3104
  182MOL0     C24457   5.717   6.749   1.526 -0.1821  0.1235 -0.7876
  182MOL0     C24458   5.649   6.783   1.659  0.3032 -0.7916 -0.0003
  182MOL0     O24459   5.585   6.671   1.735 -0.6542 -0.5628 -0.9121
  182MOL0     C24460   5.652   6.602   1.831  0.7254 -0.0574 -0.6234
  182MOL0     C24461   5.578   6.531   1.930 -0.2224 -0.3269 -0.0506
  182MOL0     C24462   5.640   6.452   2.032 -0.8689 -0.7451 -0.3686
  182MOL0     C24463   5.541   6.389   2.131  0.0773 -1.0643  0.0968
  182MOL0     C24464   5.776   6.433   2.036  0.1447 -0.0297  0.6390
  182MOL0     C24465   5.857   6.371   2.144  0.1080 -1.0516  0.0681
  182MOL0     O24466   5.992   6.389   2.141  0.6222 -0.1238 -0.0515
  182MOL0     C24467   6.062   6.296   2.216  0.5010 -0.9514 -0.2749
  182MOL0     C24468   6.133   6.199   2.152  0.8419  0.0584 -0.1510
  182MOL0     C24469   6.217   6.115   2.222 -0.5001  0.6808  0.0492
  182MOL0     C24470   6.247   6.128   2.357 -0.0307 -0.4497 -0.5029
  182MOL0     O24471   6.337   6.044   2.424  0.2719  0.0140  0.1579
  182MOL0     C24472   6.422   6.105   2.519  0.5286  0.9830 -0.1627
  182MOL0     C24473   6.517   5.998   2.579  0.4666  0.4744 -0.6484
  182MOL0     C24474   6.626   6.053   2.671 -0.2815  0.7188  0.8805
  182MOL0     C24475   6.682   5.953   2.771 -0.0281  0.5150  0.2137
  182MOL0     C24476   6.791   6.020   2.860 -0.5365  0.7029 -0.1112
  182MOL0     C24477   6.814   5.952   2.990  0.0418 -0.5699  0.4113
  182MOL0     C24478   6.883   5.818   2.962 -0.1378 -0.5563 -0.0627
  182MOL0     C24479   6.948   5.761   3.092  0.2719  0.2163 -0.6240
  182MOL0    Cl24480   6.823   5.735   3.220  0.5040  0.2431  0.0006
  182MOL0     C24481   6.176   6.232   2.424  0.1357  0.3915 -0.0658
  182MOL0     C24482   6.086   6.317   2.354  0.7118 -0.0166  0.2586
  182MOL0     O24483   5.796   6.304   2.223 -0.4786  0.4392 -0.2132
  182MOL0     C24484   5.850   6.498   1.928 -0.0255  0.1180 -0.6181
  182MOL0     C24485   5.787   6.582   1.834 -0.6515  0.0162  0.7341
  182MOL0     N24486   5.986   7.044   1.345  0.3600 -0.2475  0.0239
  182MOL0     N24487   6.099   7.105   1.307  0.0579 -0.5899  0.0037
  182MOL0     C24488   6.890   6.378   1.435  0.5971 -0.4566  0.4079
  182MOL0     C24489   6.903   6.251   1.381  0.4981  0.1301  0.1043
  182MOL0     C24490   6.988   5.841   1.280  0.0621  0.1196 -0.8086
  182MOL0     C24491   7.077   5.798   1.179 -0.0348  0.0657  0.3295
  182MOL0     C24492   7.061   5.675   1.121 -0.4418  0.0994 -0.2149
  182MOL0     C24493   6.966   5.587   1.170  0.2948 -0.3544 -0.7163
  182MOL0     O24494   6.961   5.452   1.136  0.0170  0.2939  0.9440
  182MOL0     C24495   6.852   5.412   1.046  0.3683 -0.3105  1.1848
  182MOL0     C24496   6.886   5.287   0.960 -0.2268  0.3522  0.1311
  182MOL0     C24497   6.990   5.304   0.856  0.1081 -0.7274 -0.2789
  182MOL0     C24498   6.943   5.378   0.727 -0.2116  0.1424  0.0012
  182MOL0     C24499   6.838   5.302   0.661 -0.2147 -0.2158  0.2013
  182MOL0     C24500   6.752   5.233   0.611  0.3374  0.3774  0.6544
  182MOL0     C24501   6.879   5.630   1.265  0.4564 -0.1568 -0.5217
  182MOL0     C24502   6.889   5.758   1.319  0.6872 -0.3718 -0.1230
  182MOL0     H24503   6.801   6.069   1.658  0.5913  2.3956  4.0769
  182MOL0     H24504   6.807   6.292   1.754  1.3823  0.1678 -0.2439
  182MOL0     H24505   6.940   6.701   1.651 -1.9178  0.3353 -1.1592
  182MOL0     H24506   7.000   6.596   1.523 -1.1534 -2.2618 -0.5380
  182MOL0     H24507   6.879   6.800   1.447 -1.2310  0.8943  1.1356
  182MOL0     H24508   6.782   6.652   1.403 -2.3058 -0.9775  1.3924
  182MOL0     H24509   6.629   6.681   1.568 -0.7792  0.1265 -1.3686
  182MOL0     H24510   6.731   6.809   1.650 -2.2745  0.1597 -0.6336
  182MOL0     H24511   6.711   6.942   1.455 -1.0718  1.3647  1.8414
  182MOL0     H24512   6.623   6.817   1.369  1.8198 -0.5206 -0.3711
  182MOL0     H24513   6.423   6.862   1.523  1.4444 -1.4615  0.8645
  182MOL0     H24514   6.514   6.986   1.601  1.1468  0.6439 -0.3124
  182MOL0     H24515   6.349   7.088   1.428 -0.4020  1.1985 -1.0849
  182MOL0     H24516   6.513   7.129   1.387 -0.8715 -0.3524 -1.2820
  182MOL0     H24517   6.519   6.984   1.224 -1.1473  1.3241 -3.2043
  182MOL0     H24518   6.390   6.872   1.287 -0.1832  0.5081  1.6245
  182MOL0     H24519   6.310   6.994   1.079 -0.4944 -0.6199  0.5871
  182MOL0     H24520   6.315   7.151   1.169  0.4301  0.2855 -3.0339
  182MOL0     H24521   6.146   6.805   1.208  0.4405  0.7762 -1.5121
  182MOL0     H24522   5.807   6.806   1.269  1.5124 -0.8555 -2.9656
  182MOL0     H24523   5.923   6.712   1.369  0.7321  1.4856  2.7695
  182MOL0     H24524   5.738   6.947   1.439 -2.0665  0.3770  3.4550
  182MOL0     H24525   5.867   6.893   1.550 -0.8518  1.1839 -0.2922
  182MOL0     H24526   5.773   6.655   1.532 -1.7254 -0.7766  0.2409
  182MOL0     H24527   5.645   6.728   1.447  1.1009 -0.0255 -1.9506
  182MOL0     H24528   5.571   6.857   1.640  0.4026 -0.9401 -1.0221
  182MOL0     H24529   5.720   6.834   1.725 -1.4519  4.9190 -1.9657
  182MOL0     H24530   5.471   6.542   1.938 -0.2256 -0.7308  0.5217
  182MOL0     H24531   5.438   6.402   2.094  1.0981  1.6237 -2.1110
  182MOL0     H24532   5.559   6.281   2.128 -1.9836 -1.6015  2.7401
  182MOL0     H24533   5.556   6.425   2.233  0.4376 -2.9144  0.7272
  182MOL0     H24534   6.094   6.192   2.051  0.3355 -2.4821  0.1390
  182MOL0     H24535   6.274   6.043   2.164 -0.1174  1.7559 -0.9321
  182MOL0     H24536   6.479   6.184   2.470  0.7256  0.1315 -1.3546
  182MOL0     H24537   6.359   6.132   2.604 -2.0146  0.1226 -1.6895
  182MOL0     H24538   6.454   5.929   2.636  0.8770  1.9148  1.6962
  182MOL0     H24539   6.572   5.956   2.494  0.0529  0.1893 -0.7762
  182MOL0     H24540   6.591   6.142   2.723  0.3919  1.3965  0.1972
  182MOL0     H24541   6.707   6.088   2.607 -2.2058  1.3557 -1.3748
  182MOL0     H24542   6.605   5.921   2.842  0.7033 -1.2956  0.2387
  182MOL0     H24543   6.715   5.859   2.727 -3.9925 -1.0842  0.2295
  182MOL0     H24544   6.774   6.127   2.875  0.1123  1.1283 -2.1239
  182MOL0     H24545   6.886   6.017   2.806  1.0804  0.8951  2.5407
  182MOL0     H24546   6.876   6.014   3.056 -0.3493 -0.8135  1.0115
  182MOL0     H24547   6.713   5.930   3.026 -0.2136 -0.5278 -0.2669
  182MOL0     H24548   6.963   5.825   2.889 -0.3330 -2.3158 -0.4931
  182MOL0     H24549   6.807   5.741   2.941 -1.4224 -0.7464  4.2335
  182MOL0     H24550   7.011   5.847   3.118 -0.6726  1.3367 -1.8882
  182MOL0     H24551   7.000   5.666   3.080 -1.1084 -1.1746  2.9380
  182MOL0     H24552   6.190   6.242   2.532  0.3388 -4.0304  0.5420
  182MOL0     H24553   6.031   6.397   2.403  0.7848 -1.6174  3.1869
  182MOL0     H24554   5.955   6.472   1.923 -0.7964 -3.7168 -0.0115
  182MOL0     H24555   5.855   6.618   1.758  0.7281  0.4400  2.1128
  182MOL0     H24556   6.916   6.466   1.376  0.5597  0.2739  1.4340
  182MOL0     H24557   6.938   6.247   1.279  0.0717  0.3982 -0.0535
  182MOL0     H24558   7.163   5.862   1.159  0.4512 -0.7580 -0.2812
  182MOL0     H24559   7.135   5.630   1.057 -0.5909  1.2887 -1.2698
  182MOL0     H24560   6.769   5.376   1.108 -0.3712 -0.1702  0.2900
  182MOL0     H24561   6.818   5.497   0.986 -0.6291 -0.2566  1.7958
  182MOL0     H24562   6.789   5.256   0.919 -0.7786  0.5620  1.2504
  182MOL0     H24563   6.937   5.213   1.022  0.2128  1.5402  1.2426
  182MOL0     H24564   7.044   5.213   0.830 -0.2842 -2.1629  3.2919
  182MOL0     H24565   7.071   5.365   0.899  1.6223 -3.3932  0.9351
  182MOL0     H24566   7.029   5.394   0.661 -0.1921 -2.7742 -0.7978
  182MOL0     H24567   6.902   5.476   0.754  1.0606  0.3625  1.2911
  182MOL0     H24568   6.667   5.180   0.573 -0.1690 -0.4889  2.8357
  182MOL0     H24569   6.805   5.559   1.298  0.6430  1.1110  3.0516
  182MOL0     H24570   6.834   5.783   1.409  1.3266 -2.6999  0.9859
  183MOL0     O24571   0.765   0.865   5.430 -0.4693 -0.6643  0.9171
  183MOL0     C24572   0.777   0.972   5.489 -0.5658 -0.1518 -0.2832
  183MOL0     O24573   0.691   1.077   5.488  0.5841 -0.7024  0.5511
  183MOL0     C24574   0.592   1.100   5.390 -0.5999  0.9596 -0.1073
  183MOL0     C24575   0.533   1.229   5.390 -0.0731 -0.6125  0.2591
  183MOL0     C24576   0.458   1.280   5.282 -0.2460 -0.3186  0.4749
  183MOL0     C24577   0.399   1.179   5.202  0.1816  0.1518  0.1645
  183MOL0     O24578   0.297   1.211   5.111  0.2320  0.3554  0.0199
  183MOL0     C24579   0.166   1.200   5.176  0.8352  0.2345 -0.4884
  183MOL0     C24580   0.058   1.190   5.072  0.1885  0.1407  0.0272
  183MOL0     C24581  -0.079   1.202   5.134 -0.1369  0.6929  0.1939
  183MOL0     C24582  -0.185   1.241   5.027  0.2430  0.0372 -0.1457
  183MOL0     C24583  -0.339   1.262   5.076 -0.0509  0.2571 -0.1156
  183MOL0     C24584  -0.357   1.366   5.185 -0.7234 -0.6793 -0.1624
  183MOL0     C24585  -0.482   1.450   5.172  0.1447 -0.5064 -0.2265
  183MOL0     C24586  -0.590   1.356   5.191  0.0554 -0.6494 -0.0764
  183MOL0     N24587  -0.716   1.435   5.207 -0.1886 -0.6731 -0.0082
  183MOL0     C24588  -0.767   1.473   5.331  0.6420  0.0914  0.1446
  183MOL0     C24589  -0.905   1.497   5.303  0.4411 -0.0269 -0.7700
  183MOL0     C24590  -1.016   1.521   5.407  0.3264  0.4558 -0.2447
  183MOL0     C24591  -1.094   1.392   5.435  0.5771 -0.7422 -0.5434
  183MOL0     C24592  -1.210   1.406   5.541 -0.0283  0.5516  0.4670
  183MOL0     C24593  -1.181   1.458   5.678 -0.0178 -0.6351 -0.6471
  183MOL0     O24594  -1.099   1.362   5.740 -0.5466 -0.0864 -1.0693
  183MOL0     C24595  -0.996   1.403   5.817  0.4054  0.1762  0.9984
  183MOL0     C24596  -0.998   1.512   5.908  0.4534 -0.0497  0.2636
  183MOL0     C24597  -0.892   1.534   5.993  0.5724 -0.8849  0.4738
  183MOL0     C24598  -0.896   1.653   6.094  0.0862  0.2010  0.1769
  183MOL0     C24599  -0.777   1.459   5.982 -0.6247 -0.1935  0.2453
  183MOL0     C24600  -0.657   1.479   6.064 -0.1919  0.4817 -0.0881
  183MOL0     O24601  -0.592   1.365   6.109  0.2058 -0.4444  0.3540
  183MOL0     C24602  -0.461   1.375   6.149  0.4793  0.6785  0.3975
  183MOL0     C24603  -0.360   1.410   6.060 -0.3003 -0.1724 -0.5951
  183MOL0     C24604  -0.234   1.406   6.095  0.2020  0.0369  0.0562
  183MOL0     C24605  -0.200   1.372   6.224 -0.3432  0.5800  0.0108
  183MOL0     O24606  -0.059   1.378   6.239  0.2149  0.0773  0.1046
  183MOL0     C24607  -0.012   1.397   6.374 -0.2143  0.2894  0.1788
  183MOL0     C24608   0.109   1.490   6.387 -0.1103 -0.2931  0.1518
  183MOL0     C24609   0.242   1.440   6.313 -0.1697  0.7243  0.2287
  183MOL0     C24610   0.377   1.509   6.356 -0.2215  0.2073 -0.3006
  183MOL0     C24611   0.506   1.463   6.281 -0.1464 -0.4588  0.7288
  183MOL0     C24612   0.619   1.533   6.344 -1.0407 -0.2333  0.0688
  183MOL0     C24613   0.751   1.501   6.263  0.2922 -0.9431 -0.4301
  183MOL0     C24614   0.863   1.590   6.331  0.1139  0.7611  0.0341
  183MOL0    Cl24615   1.016   1.573   6.248 -0.0385  0.1119 -0.2666
  183MOL0     C24616  -0.295   1.344   6.318 -0.2554 -0.4812 -0.1484
  183MOL0     C24617  -0.428   1.339   6.278 -0.2767  1.0091 -0.5770
  183MOL0     O24618  -0.606   1.595   6.080  0.2548 -0.4364 -0.4349
  183MOL0     C24619  -0.771   1.354   5.886 -0.0125 -0.1167 -0.3854
  183MOL0     C24620  -0.881   1.327   5.805  0.1007  0.1517  0.5923
  183MOL0     N24621  -0.919   1.474   5.167 -0.5551 -0.6354 -1.0315
  183MOL0     N24622  -0.815   1.440   5.118  1.1719  0.2284  0.0240
  183MOL0     C24623   0.439   1.050   5.215 -0.0931 -0.1372  1.0595
  183MOL0     C24624   0.541   1.005   5.300 -0.1474  0.1845 -0.1584
  183MOL0     C24625   0.892   0.987   5.578 -0.2002 -0.2750  0.0418
  183MOL0     C24626   0.963   0.876   5.615  0.0527  0.6373  0.1751
  183MOL0     C24627   1.094   0.891   5.676  0.7232  0.0752 -0.0918
  183MOL0     C24628   1.147   1.022   5.701 -0.8271  0.2082 -0.4447
  183MOL0     O24629   1.259   1.048   5.764 -0.1493  0.2715  0.0833
  183MOL0     C24630   1.370   0.958   5.733  0.0889 -1.0607 -0.2398
  183MOL0     C24631   1.498   1.009   5.789 -0.1346 -1.2322 -1.1411
  183MOL0     C24632   1.604   0.916   5.760 -0.2096  1.3485  0.5445
  183MOL0     C24633   1.648   0.903   5.612 -0.4298 -0.4687 -0.0204
  183MOL0     C24634   1.774   0.827   5.606  0.6622  1.1010  0.4043
  183MOL0     C24635   1.879   0.765   5.589 -1.4143 -0.2452  0.4218
  183MOL0     C24636   1.065   1.130   5.683  1.0482 -0.8033  0.4522
  183MOL0     C24637   0.934   1.110   5.625  0.5419  0.5665  0.3760
  183MOL0     H24638   0.560   1.296   5.471  1.4193  0.9604 -1.4442
  183MOL0     H24639   0.423   1.383   5.276  1.6286  0.4349  1.5456
  183MOL0     H24640   0.161   1.119   5.249 -0.0492  0.5302 -0.2120
  183MOL0     H24641   0.151   1.299   5.220 -1.4548 -0.0906 -0.4169
  183MOL0     H24642   0.074   1.271   5.001  3.1981  0.3773  0.8271
  183MOL0     H24643   0.059   1.104   5.005  1.5901  1.9165 -2.3981
  183MOL0     H24644  -0.103   1.103   5.175  0.0613  0.5090 -0.1313
  183MOL0     H24645  -0.070   1.291   5.196  0.6182  1.7900 -1.4104
  183MOL0     H24646  -0.169   1.338   4.977 -5.6273  2.1574  1.3105
  183MOL0     H24647  -0.174   1.166   4.948  1.7004 -1.6615  1.5599
  183MOL0     H24648  -0.408   1.290   4.995 -0.8341  2.1801  1.1343
  183MOL0     H24649  -0.375   1.164   5.108  0.6233  0.3355  0.9384
  183MOL0     H24650  -0.348   1.322   5.285  1.5211  3.0716  1.4922
  183MOL0     H24651  -0.277   1.441   5.185 -4.4696  3.7967 -1.8343
  183MOL0     H24652  -0.477   1.526   5.251 -0.4349  1.4197 -1.9375
  183MOL0     H24653  -0.492   1.505   5.078  0.3536 -1.0901 -0.5910
  183MOL0     H24654  -0.573   1.279   5.266  1.5479  1.1339  1.5013
  183MOL0     H24655  -0.601   1.292   5.103 -0.4512 -0.6973  0.0195
  183MOL0     H24656  -0.718   1.476   5.427  0.6912  2.6207  0.1142
  183MOL0     H24657  -0.972   1.567   5.496  0.0298 -0.9258  0.6665
  183MOL0     H24658  -1.088   1.590   5.363 -2.7815 -3.3309 -1.6797
  183MOL0     H24659  -1.025   1.316   5.472 -0.2627 -0.6872  1.2283
  183MOL0     H24660  -1.138   1.355   5.342 -0.5443  0.8375 -0.6971
  183MOL0     H24661  -1.252   1.306   5.554 -1.8990  1.3164  0.5232
  183MOL0     H24662  -1.291   1.474   5.513 -0.0401  0.1180 -0.5881
  183MOL0     H24663  -1.278   1.466   5.729  0.3262 -0.3437 -0.0250
  183MOL0     H24664  -1.130   1.554   5.685 -4.2748  1.7738  1.1144
  183MOL0     H24665  -1.079   1.584   5.908  1.9911  1.7848  1.0340
  183MOL0     H24666  -0.837   1.733   6.048  1.8439 -2.0725 -1.7344
  183MOL0     H24667  -1.002   1.678   6.098  0.3625  1.4279  0.3065
  183MOL0     H24668  -0.864   1.633   6.197  2.3859  1.7947 -0.1555
  183MOL0     H24669  -0.395   1.433   5.959  2.7399  0.0442 -1.6792
  183MOL0     H24670  -0.162   1.436   6.019 -0.8137  0.8886 -0.5894
  183MOL0     H24671  -0.086   1.441   6.440 -0.2056 -1.9838  1.8173
  183MOL0     H24672   0.014   1.297   6.410 -2.9012  0.5091  3.1406
  183MOL0     H24673   0.081   1.583   6.336 -1.1430 -0.3067  0.6722
  183MOL0     H24674   0.124   1.517   6.492  1.3896  0.8036 -0.3084
  183MOL0     H24675   0.223   1.461   6.208 -0.2841 -0.7823 -0.0738
  183MOL0     H24676   0.237   1.331   6.314 -1.6482  0.7582 -0.8622
  183MOL0     H24677   0.362   1.616   6.339  1.7518  0.3619 -1.4045
  183MOL0     H24678   0.384   1.495   6.464  0.8251 -0.0072 -0.3803
  183MOL0     H24679   0.495   1.493   6.177  0.8136  1.5601  1.1634
  183MOL0     H24680   0.528   1.356   6.281 -0.9675 -0.6908 -1.8688
  183MOL0     H24681   0.607   1.641   6.329 -1.4663 -0.2988 -0.0676
  183MOL0     H24682   0.619   1.514   6.452 -0.1905  2.1228  0.5531
  183MOL0     H24683   0.747   1.539   6.160 -0.1174  1.1546  0.2961
  183MOL0     H24684   0.786   1.398   6.271 -0.4540 -1.0540  2.4178
  183MOL0     H24685   0.889   1.565   6.435  1.4929  4.4161  0.7321
  183MOL0     H24686   0.823   1.691   6.326  0.6335  0.9499 -0.3320
  183MOL0     H24687  -0.266   1.324   6.420 -1.2688  1.2739  0.5350
  183MOL0     H24688  -0.504   1.300   6.345 -1.7735  0.6161 -2.3946
  183MOL0     H24689  -0.679   1.297   5.871  1.7037  2.6303 -1.1408
  183MOL0     H24690  -0.882   1.245   5.734  0.3142 -0.3364  1.1474
  183MOL0     H24691   0.401   0.972   5.150 -0.3339  0.5584  0.3439
  183MOL0     H24692   0.567   0.899   5.299  0.1051  0.2224  0.9710
  183MOL0     H24693   0.929   0.777   5.585 -1.4129  1.4129 -0.8305
  183MOL0     H24694   1.140   0.805   5.724  1.0545  0.5413  0.4401
  183MOL0     H24695   1.357   0.855   5.768  1.0121 -0.4376  2.1413
  183MOL0     H24696   1.376   0.950   5.624 -2.0873 -1.7680 -0.3628
  183MOL0     H24697   1.482   1.021   5.896 -1.3292 -0.1848 -1.4203
  183MOL0     H24698   1.517   1.102   5.735  3.0431 -2.1962 -1.8821
  183MOL0     H24699   1.579   0.815   5.795 -0.9635  0.8665 -1.2562
  183MOL0     H24700   1.684   0.950   5.825  1.1565 -0.5486 -0.0658
  183MOL0     H24701   1.667   0.991   5.550  2.3694 -0.0962  1.2387
  183MOL0     H24702   1.576   0.840   5.559 -0.1454 -0.5233 -0.3436
  183MOL0     H24703   1.968   0.709   5.569 -1.6236 -1.7907  3.2129
  183MOL0     H24704   1.112   1.223   5.712  2.2650 -1.5993  1.1076
  183MOL0     H24705   0.882   1.197   5.586  0.4719 -0.2105 -1.3586
  184MOL0     O24706   3.163   9.442   9.725  0.2545  0.2974 -0.1328
  184MOL0     C24707   3.254   9.508   9.681  1.0328 -1.4292 -0.4965
  184MOL0     O24708   3.244   9.598   9.580  0.1651  0.0823  0.0272
  184MOL0     C24709   3.119   9.609   9.523  0.4861 -0.5291 -1.4946
  184MOL0     C24710   3.070   9.526   9.426  0.6422  1.6320 -0.5987
  184MOL0     C24711   2.938   9.539   9.371  0.5049  0.9247 -0.2913
  184MOL0     C24712   2.856   9.633   9.430 -0.0060 -0.3078  0.2999
  184MOL0     O24713   2.730   9.647   9.368  0.1013  1.0485  0.4862
  184MOL0     C24714   2.628   9.712   9.440  0.8864 -0.1421 -0.3965
  184MOL0     C24715   2.492   9.657   9.383  0.7265 -0.2603  0.6797
  184MOL0     C24716   2.363   9.726   9.448 -0.9891 -0.1728  0.2383
  184MOL0     C24717   2.341   9.859   9.378  0.2983 -0.2890  0.9825
  184MOL0     C24718   2.264   9.962   9.452  0.0671  0.4818 -0.4337
  184MOL0     C24719   2.228  10.077   9.356  0.2491 -0.5719 -0.3513
  184MOL0     C24720   2.151  10.189   9.433 -0.6608  0.4673  0.5933
  184MOL0     C24721   2.251  10.279   9.508 -0.9992 -0.4963 -1.5000
  184MOL0     N24722   2.174  10.402   9.546  0.0341 -0.1150 -0.0500
  184MOL0     C24723   2.223  10.528   9.524  0.4327 -0.1916  0.2833
  184MOL0     C24724   2.136  10.619   9.586  0.2157  0.0838  0.5716
  184MOL0     C24725   2.157  10.766   9.587 -0.8455 -0.7517  0.6500
  184MOL0     C24726   2.197  10.821   9.726  0.8759 -0.0585 -0.0331
  184MOL0     C24727   2.229  10.975   9.713 -0.0933 -0.3057  0.2207
  184MOL0     C24728   2.256  11.038   9.852 -0.1424  0.2638 -0.5973
  184MOL0     O24729   2.249  11.180   9.832  0.1287  0.0688  0.1347
  184MOL0     C24730   2.132  11.249   9.835  0.4290 -0.0862 -0.5248
  184MOL0     C24731   2.139  11.388   9.852  0.2810 -0.0943  0.0358
  184MOL0     C24732   2.029  11.470   9.864  0.5347  0.0775 -1.0720
  184MOL0     C24733   2.055  11.617   9.906 -0.2830  0.4196  0.5932
  184MOL0     C24734   1.899  11.413   9.848  0.2080  0.2140 -0.2469
  184MOL0     C24735   1.782  11.498   9.853  0.4158  0.9410 -0.0983
  184MOL0     O24736   1.676  11.422   9.885  0.0633 -0.9560  0.5315
  184MOL0     C24737   1.555  11.476   9.929  0.4808  0.3114  0.3242
  184MOL0     C24738   1.447  11.384   9.915 -0.1645  0.6152  0.9005
  184MOL0     C24739   1.316  11.405   9.964  0.4527  0.5339  0.4179
  184MOL0     C24740   1.290  11.527  10.027 -0.3906 -0.1366  0.6563
  184MOL0     O24741   1.168  11.570  10.057  0.3969  0.0721  0.4987
  184MOL0     C24742   1.067  11.554   9.958  0.2749 -0.1416 -0.6560
  184MOL0     C24743   0.932  11.588  10.028 -1.5260  1.0244 -0.4264
  184MOL0     C24744   0.844  11.614   9.911 -0.0145 -0.6432  0.4035
  184MOL0     C24745   0.702  11.586   9.943  0.4931 -0.0821 -0.4232
  184MOL0     C24746   0.605  11.615   9.833 -0.8480  0.0468 -0.2816
  184MOL0     C24747   0.459  11.597   9.882 -0.2447  0.5527  0.5924
  184MOL0     C24748   0.355  11.674   9.806 -0.2252 -0.0267  0.2699
  184MOL0     C24749   0.219  11.665   9.854 -0.1027 -1.1831 -0.3138
  184MOL0    Cl24750   0.191  11.641  10.029 -0.1295  0.0127  0.2036
  184MOL0     C24751   1.400  11.614  10.041  0.2584  0.6629  0.0452
  184MOL0     C24752   1.533  11.604   9.991 -0.3020  0.7015  0.3106
  184MOL0     O24753   1.782  11.620   9.847  0.3886  0.3993 -0.4388
  184MOL0     C24754   1.886  11.272   9.835 -0.1340  0.1668 -0.3114
  184MOL0     C24755   2.004  11.194   9.823 -1.0612  0.0719 -0.0905
  184MOL0     N24756   2.037  10.549   9.650  0.0790  1.0786  0.7554
  184MOL0     N24757   2.067  10.420   9.627 -0.0513  0.4218 -0.2237
  184MOL0     C24758   2.899   9.716   9.534 -0.7316  0.7997 -0.4127
  184MOL0     C24759   3.036   9.706   9.574  0.2597  0.2133  0.6316
  184MOL0     C24760   3.370   9.526   9.769  0.5221  0.5226  0.2313
  184MOL0     C24761   3.375   9.480   9.898 -0.7323 -0.5116 -1.4017
  184MOL0     C24762   3.491   9.505   9.977 -0.1447 -0.0583  0.2484
  184MOL0     C24763   3.607   9.566   9.926  0.5612 -0.0446  0.4147
  184MOL0     O24764   3.719   9.587  10.001  0.1487 -0.6586  0.8553
  184MOL0     C24765   3.839   9.637   9.940  0.1726  0.5701 -0.0930
  184MOL0     C24766   3.942   9.647  10.049 -0.7298  0.3130 -0.0497
  184MOL0     C24767   4.063   9.718   9.992  0.7177  0.0918 -1.2391
  184MOL0     C24768   4.131   9.647   9.882  0.5242 -0.0386  0.3233
  184MOL0     C24769   4.072   9.672   9.746  0.6308 -1.0977  0.0173
  184MOL0     C24770   4.010   9.685   9.644  0.1278  0.5836  0.1554
  184MOL0     C24771   3.595   9.606   9.788 -0.3179  0.4591 -0.3411
  184MOL0     C24772   3.479   9.587   9.716 -1.2221 -0.0332  0.5121
  184MOL0     H24773   3.137   9.456   9.376 -1.2883  1.0122 -2.4745
  184MOL0     H24774   2.894   9.479   9.293  2.6496  0.7286 -1.4423
  184MOL0     H24775   2.620   9.686   9.546  0.1875  2.0417  0.1488
  184MOL0     H24776   2.623   9.821   9.428 -0.8694  0.0356  1.2585
  184MOL0     H24777   2.477   9.677   9.276 -0.4751 -0.6944  0.7478
  184MOL0     H24778   2.479   9.549   9.389 -0.6562 -0.1258  0.4516
  184MOL0     H24779   2.283   9.653   9.432  1.2119 -2.7528  0.3082
  184MOL0     H24780   2.380   9.731   9.556  0.6877  1.0896 -0.0403
  184MOL0     H24781   2.436   9.899   9.341 -0.2252 -2.7036 -3.6411
  184MOL0     H24782   2.292   9.835   9.284  1.0095  0.2939  0.4477
  184MOL0     H24783   2.171   9.914   9.486 -0.1176  2.7472  2.7103
  184MOL0     H24784   2.326   9.996   9.536 -1.3359 -3.4203  2.4587
  184MOL0     H24785   2.319  10.116   9.310  1.3213  0.4065  2.3969
  184MOL0     H24786   2.158  10.037   9.282 -1.6190 -0.7407  1.4298
  184MOL0     H24787   2.090  10.246   9.362 -0.0068  0.4863  0.0346
  184MOL0     H24788   2.088  10.141   9.508 -0.7675 -1.4142 -0.6323
  184MOL0     H24789   2.331  10.310   9.441 -0.3877  1.8368  0.1943
  184MOL0     H24790   2.297  10.238   9.598 -0.9056  1.0747 -0.8093
  184MOL0     H24791   2.314  10.558   9.473 -0.8025 -0.7492 -2.3794
  184MOL0     H24792   2.237  10.799   9.520 -2.3190  1.5498 -0.0542
  184MOL0     H24793   2.056  10.797   9.561 -0.6609  0.3030  1.1327
  184MOL0     H24794   2.283  10.768   9.766 -0.0772 -0.3715  1.6910
  184MOL0     H24795   2.108  10.797   9.785  0.9052  0.5293  0.2575
  184MOL0     H24796   2.144  11.028   9.668  1.1477  1.0749 -0.5715
  184MOL0     H24797   2.315  10.998   9.650  0.4491 -0.0218  1.0428
  184MOL0     H24798   2.356  11.015   9.892 -0.1693  1.3316  0.1349
  184MOL0     H24799   2.188  11.004   9.930  1.8803  0.2980  1.2901
  184MOL0     H24800   2.233  11.439   9.872  0.2768 -1.0603  3.1509
  184MOL0     H24801   2.000  11.641   9.998 -2.0705 -1.9844  0.2579
  184MOL0     H24802   2.160  11.645   9.916 -0.3230  0.1781  1.8391
  184MOL0     H24803   2.015  11.683   9.828 -2.6015 -1.9186 -0.3203
  184MOL0     H24804   1.494  11.308   9.853 -1.3386  0.6481 -0.0717
  184MOL0     H24805   1.237  11.332   9.955 -0.5147  1.7524 -1.8838
  184MOL0     H24806   1.085  11.611   9.867 -1.0415 -0.1270 -0.9338
  184MOL0     H24807   1.068  11.452   9.919  1.4372  0.8543 -3.3983
  184MOL0     H24808   0.909  11.502  10.092  1.6104  0.0264 -0.4778
  184MOL0     H24809   0.942  11.681  10.086  0.7884 -0.4547  1.7703
  184MOL0     H24810   0.867  11.554   9.822  0.2144  2.3205 -1.6768
  184MOL0     H24811   0.869  11.714   9.875  2.0229 -1.4341 -0.5247
  184MOL0     H24812   0.706  11.481   9.974 -1.0460  0.7434  3.1378
  184MOL0     H24813   0.668  11.642  10.030  0.4080  0.0524 -0.5427
  184MOL0     H24814   0.617  11.555   9.742 -1.7715  0.3636 -0.6169
  184MOL0     H24815   0.608  11.722   9.811 -1.5287  0.5731  1.8698
  184MOL0     H24816   0.429  11.492   9.881 -1.2449  0.7567 -2.9801
  184MOL0     H24817   0.450  11.626   9.987  1.3166 -1.5230  1.3592
  184MOL0     H24818   0.356  11.648   9.699  1.1405  3.2050 -0.6182
  184MOL0     H24819   0.387  11.777   9.794  2.9384 -1.0086 -0.6763
  184MOL0     H24820   0.174  11.582   9.799 -0.1703 -0.2461 -1.7218
  184MOL0     H24821   0.166  11.757   9.829  2.2826  0.0991 -0.8950
  184MOL0     H24822   1.360  11.701  10.093  1.1965  0.7517  0.6290
  184MOL0     H24823   1.620  11.667  10.009  1.8537 -2.4048  1.6785
  184MOL0     H24824   1.788  11.229   9.820 -0.0773  0.1455 -0.6271
  184MOL0     H24825   1.989  11.087   9.813 -0.2747  0.0500 -1.2669
  184MOL0     H24826   2.833   9.787   9.583  1.7742  1.4404  2.3006
  184MOL0     H24827   3.069   9.783   9.643  1.2913  0.4614 -0.1180
  184MOL0     H24828   3.282   9.456   9.948  0.5578 -0.6325  1.0480
  184MOL0     H24829   3.480   9.487  10.084  0.2665  2.0066  0.6810
  184MOL0     H24830   3.863   9.552   9.875  0.3841  2.3710 -2.5081
  184MOL0     H24831   3.817   9.726   9.882  0.5670  0.1986 -0.8314
  184MOL0     H24832   3.958   9.549  10.095 -0.4956  0.1159 -0.5428
  184MOL0     H24833   3.899   9.714  10.123 -2.0626 -0.0771 -0.4394
  184MOL0     H24834   4.129   9.728  10.078  0.8220  2.3106 -1.5307
  184MOL0     H24835   4.041   9.823   9.970  1.6318  0.6259  0.2504
  184MOL0     H24836   4.151   9.542   9.906  2.9655 -0.0950 -1.5483
  184MOL0     H24837   4.230   9.693   9.882  1.5779 -2.1572 -0.9142
  184MOL0     H24838   3.942   9.689   9.562  1.9682  0.3210 -1.4462
  184MOL0     H24839   3.679   9.658   9.743 -0.7455 -0.8522 -2.8875
  184MOL0     H24840   3.470   9.631   9.618  2.1288 -0.1095  0.0336
  185MOL0     O24841   2.291   1.392  11.246 -0.2276  0.1725 -1.0250
  185MOL0     C24842   2.303   1.498  11.311  1.1553  0.3398 -0.7790
  185MOL0     O24843   2.203   1.567  11.372 -0.3193 -0.2433 -0.3336
  185MOL0     C24844   2.080   1.516  11.367 -0.3458 -0.6222 -0.2573
  185MOL0     C24845   2.032   1.441  11.480 -0.6684  0.2494  0.1691
  185MOL0     C24846   1.907   1.386  11.475  0.0640 -0.2660 -0.3902
  185MOL0     C24847   1.832   1.394  11.359  0.0644  0.3364  1.5051
  185MOL0     O24848   1.706   1.347  11.359  0.0699 -0.0510  0.4265
  185MOL0     C24849   1.678   1.222  11.414  0.7439 -0.0667  1.1161
  185MOL0     C24850   1.561   1.167  11.335 -0.2551 -0.5700 -0.1401
  185MOL0     C24851   1.607   1.154  11.195  0.2956 -0.0185 -0.1102
  185MOL0     C24852   1.504   1.094  11.108 -0.3040  0.6296  0.5381
  185MOL0     C24853   1.562   1.090  10.971  0.4545 -0.2331  0.0318
  185MOL0     C24854   1.601   1.226  10.897 -0.4814  0.0844  0.1751
  185MOL0     C24855   1.484   1.320  10.895 -0.0515  0.1794  0.4075
  185MOL0     C24856   1.513   1.429  10.784  0.4143  0.3569 -0.2248
  185MOL0     N24857   1.603   1.533  10.836 -0.4643  0.1136 -0.0574
  185MOL0     C24858   1.571   1.638  10.927 -0.2755  0.2519 -0.0927
  185MOL0     C24859   1.688   1.689  10.969 -0.3254 -0.4705 -0.5861
  185MOL0     C24860   1.705   1.816  11.047  0.3479 -0.8685 -0.8556
  185MOL0     C24861   1.775   1.795  11.178  0.7173 -0.3043 -0.3436
  185MOL0     C24862   1.688   1.773  11.305 -1.1090 -0.4940  0.0961
  185MOL0     C24863   1.570   1.675  11.271  0.3723 -0.5421 -0.6295
  185MOL0     O24864   1.502   1.606  11.382 -0.4084 -1.0761  0.0222
  185MOL0     C24865   1.392   1.531  11.366 -0.8415 -0.6386  0.4309
  185MOL0     C24866   1.312   1.523  11.249 -0.0584  0.9408  0.2334
  185MOL0     C24867   1.202   1.443  11.229  0.0660  0.1903 -0.6641
  185MOL0     C24868   1.134   1.448  11.094 -0.5913 -0.6389 -0.0221
  185MOL0     C24869   1.157   1.357  11.331 -0.6879 -0.4266  0.1274
  185MOL0     C24870   1.032   1.286  11.342 -0.3177 -0.1218 -0.2662
  185MOL0     O24871   1.032   1.195  11.444 -0.3001  0.5566 -0.8560
  185MOL0     C24872   0.915   1.130  11.461  0.2018  0.2923  0.2306
  185MOL0     C24873   0.864   1.040  11.365 -0.3602  0.5133  0.5537
  185MOL0     C24874   0.743   0.964  11.393 -0.6501  0.0418  0.8066
  185MOL0     C24875   0.684   0.972  11.521  0.5401  1.3643 -0.1529
  185MOL0     O24876   0.555   0.923  11.542 -0.7646 -0.1418  0.4568
  185MOL0     C24877   0.548   0.804  11.613 -0.6586 -0.2663 -0.6592
  185MOL0     C24878   0.394   0.759  11.632  0.0956 -0.2206 -1.3030
  185MOL0     C24879   0.314   0.740  11.505 -0.7018  0.3243  1.1442
  185MOL0     C24880   0.181   0.679  11.548  0.1096 -0.0531  0.3024
  185MOL0     C24881   0.111   0.612  11.428  0.5887 -1.1451  0.4378
  185MOL0     C24882   0.063   0.721  11.328  0.7558  0.9270 -1.3197
  185MOL0     C24883  -0.053   0.682  11.222 -0.5698  0.3129  0.3129
  185MOL0     C24884  -0.063   0.778  11.111  0.0068 -0.7363  0.2827
  185MOL0    Cl24885  -0.164   0.909  11.172 -0.1871 -0.3155 -0.1097
  185MOL0     C24886   0.738   1.060  11.614 -0.2404 -0.3974 -0.1313
  185MOL0     C24887   0.856   1.137  11.589  0.0098  0.4899  1.0080
  185MOL0     O24888   0.937   1.323  11.276 -0.5551  0.3739  0.8887
  185MOL0     C24889   1.242   1.363  11.451  0.7858 -0.0200 -0.1185
  185MOL0     C24890   1.357   1.440  11.465  0.1703 -0.3915 -0.3345
  185MOL0     N24891   1.789   1.605  10.926  0.3420 -0.0238  0.1139
  185MOL0     N24892   1.738   1.513  10.850 -0.4583  0.1967 -0.3446
  185MOL0     C24893   1.875   1.467  11.247 -0.5303  0.0166  0.1687
  185MOL0     C24894   2.007   1.526  11.254  0.1650 -0.1536  0.9103
  185MOL0     C24895   2.439   1.539  11.327  0.4191  0.2570  0.1041
  185MOL0     C24896   2.546   1.453  11.332 -0.1692 -0.0604 -0.7346
  185MOL0     C24897   2.681   1.488  11.364 -0.1485  0.1282 -0.1439
  185MOL0     C24898   2.711   1.626  11.364  0.1675  0.1636  0.6291
  185MOL0     O24899   2.837   1.674  11.365  0.3353  0.0616 -0.3294
  185MOL0     C24900   2.952   1.593  11.353 -0.2703  0.4018 -0.0760
  185MOL0     C24901   3.077   1.667  11.310 -0.4577 -0.3889  0.5856
  185MOL0     C24902   3.151   1.745  11.426  0.5740  0.4355  0.1452
  185MOL0     C24903   3.266   1.835  11.370 -0.0148 -1.0290 -0.1861
  185MOL0     C24904   3.379   1.770  11.302 -0.1202  1.0380 -0.0598
  185MOL0     C24905   3.470   1.706  11.247 -0.5235  0.0119 -0.1589
  185MOL0     C24906   2.604   1.714  11.359 -0.6572 -0.2304  0.0475
  185MOL0     C24907   2.470   1.673  11.351 -0.2867  0.4943  1.1467
  185MOL0     H24908   2.106   1.415  11.556  0.7995 -1.1054 -1.6144
  185MOL0     H24909   1.867   1.325  11.555  3.8944  1.0420  2.8430
  185MOL0     H24910   1.761   1.151  11.405  1.2522  0.8464 -3.2074
  185MOL0     H24911   1.657   1.230  11.521  0.9437  0.3877  1.1208
  185MOL0     H24912   1.525   1.070  11.370 -2.4037  0.5737  1.0574
  185MOL0     H24913   1.481   1.242  11.341  0.7547  0.4614  1.3533
  185MOL0     H24914   1.628   1.255  11.159 -0.3624  0.1670  0.0083
  185MOL0     H24915   1.701   1.101  11.175  1.8833  2.3173  0.6926
  185MOL0     H24916   1.486   0.991  11.139  2.0922 -0.1139 -0.3230
  185MOL0     H24917   1.411   1.152  11.107 -1.6269 -1.3859 -0.1264
  185MOL0     H24918   1.653   1.029  10.973 -0.4048 -1.5489  0.6274
  185MOL0     H24919   1.490   1.030  10.913  0.7878 -0.5258 -0.0854
  185MOL0     H24920   1.686   1.277  10.943 -1.3346 -0.1757  2.1397
  185MOL0     H24921   1.647   1.199  10.802  1.3790  1.6220  0.5684
  185MOL0     H24922   1.389   1.271  10.872 -0.8254  1.1685  1.3596
  185MOL0     H24923   1.465   1.363  10.994  2.2807  0.8243  0.6401
  185MOL0     H24924   1.421   1.477  10.750  2.1095  1.6562 -3.2770
  185MOL0     H24925   1.555   1.372  10.701 -2.7059 -3.2690  0.3689
  185MOL0     H24926   1.475   1.684  10.947 -0.9696 -0.3158 -1.9588
  185MOL0     H24927   1.741   1.900  10.988 -0.3016  2.3000  2.8528
  185MOL0     H24928   1.610   1.858  11.082  0.6934  0.1205 -1.0716
  185MOL0     H24929   1.837   1.882  11.202  1.1081 -0.3112 -1.2750
  185MOL0     H24930   1.828   1.699  11.171 -0.1290 -0.7684 -0.4961
  185MOL0     H24931   1.656   1.871  11.340 -0.2879  0.1985 -1.0323
  185MOL0     H24932   1.749   1.726  11.384  2.7209 -1.0648 -2.9207
  185MOL0     H24933   1.620   1.590  11.224 -1.4344 -1.4579 -0.9805
  185MOL0     H24934   1.498   1.725  11.205  0.3412 -1.3756 -1.2532
  185MOL0     H24935   1.335   1.591  11.167 -3.2847  0.4708 -1.2032
  185MOL0     H24936   1.203   1.395  11.028  0.6385 -0.6982  1.2542
  185MOL0     H24937   1.046   1.383  11.090  0.6646 -2.3976 -0.2164
  185MOL0     H24938   1.107   1.551  11.071  0.6821 -0.5418 -1.1938
  185MOL0     H24939   0.907   1.042  11.265 -2.4670  1.6645 -0.3754
  185MOL0     H24940   0.690   0.911  11.314  0.5870  2.9609 -2.2408
  185MOL0     H24941   0.602   0.727  11.557  0.7753  1.1425 -1.2844
  185MOL0     H24942   0.604   0.815  11.706  0.0609 -1.4205 -0.9465
  185MOL0     H24943   0.396   0.664  11.686  0.1000 -0.4186 -1.6464
  185MOL0     H24944   0.339   0.831  11.693  1.3112  0.0328 -0.4662
  185MOL0     H24945   0.371   0.667  11.446  0.1041  1.0532  0.9995
  185MOL0     H24946   0.301   0.823  11.435 -1.5372 -1.3991 -0.8489
  185MOL0     H24947   0.209   0.604  11.622  0.8836  1.2766  1.4074
  185MOL0     H24948   0.119   0.750  11.605  0.7532 -0.4259  1.4960
  185MOL0     H24949   0.023   0.554  11.456 -2.5515  2.4030 -1.0776
  185MOL0     H24950   0.179   0.547  11.373  2.4481  0.8654  0.2133
  185MOL0     H24951   0.020   0.803  11.386  0.0571 -1.3878  1.7082
  185MOL0     H24952   0.154   0.765  11.286  0.0325  0.7801 -3.1077
  185MOL0     H24953  -0.145   0.668  11.279 -1.2313 -1.6737 -1.1012
  185MOL0     H24954  -0.020   0.587  11.179  0.8431 -0.2054  2.3423
  185MOL0     H24955  -0.111   0.736  11.023 -4.0342  0.7079  1.5243
  185MOL0     H24956   0.035   0.818  11.085 -1.1615  1.9723 -0.3097
  185MOL0     H24957   0.687   1.069  11.709 -1.5635  0.3750 -0.9021
  185MOL0     H24958   0.900   1.197  11.667  5.3742 -0.5735 -0.7807
  185MOL0     H24959   1.225   1.298  11.536  3.7970  1.9035  2.1493
  185MOL0     H24960   1.415   1.423  11.555 -0.8319 -0.8494  0.2495
  185MOL0     H24961   1.829   1.472  11.149  2.1839  0.6778 -1.1717
  185MOL0     H24962   2.042   1.576  11.165 -2.4725  0.5395  0.1838
  185MOL0     H24963   2.526   1.347  11.325  0.0177 -0.1272 -0.2849
  185MOL0     H24964   2.756   1.410  11.374  0.2766  0.7668  2.2674
  185MOL0     H24965   2.978   1.543  11.447  1.1269 -2.2474 -1.7363
  185MOL0     H24966   2.926   1.511  11.286  1.3045 -0.1888 -0.0138
  185MOL0     H24967   3.060   1.736  11.226 -1.7175 -2.6312 -1.0975
  185MOL0     H24968   3.160   1.601  11.284 -0.6900 -0.4632  0.0157
  185MOL0     H24969   3.188   1.684  11.509  0.7651 -0.5436 -0.6488
  185MOL0     H24970   3.076   1.815  11.464 -0.2930  0.0966 -0.9029
  185MOL0     H24971   3.307   1.883  11.460 -0.1619 -2.0592  0.4509
  185MOL0     H24972   3.218   1.911  11.308  1.4047  2.1350  2.3258
  185MOL0     H24973   3.557   1.658  11.208  0.5605  0.4883  1.5470
  185MOL0     H24974   2.634   1.817  11.370 -1.3527 -0.2520  2.9396
  185MOL0     H24975   2.384   1.740  11.343  0.5551  1.4882 -0.0465
  186MOL0     O24976   3.508   5.357   1.174  1.0999 -0.1695  0.0103
  186MOL0     C24977   3.517   5.472   1.124  1.1401  0.1253  0.2770
  186MOL0     O24978   3.419   5.544   1.066 -0.9542  0.5695 -0.1701
  186MOL0     C24979   3.301   5.483   1.050 -0.9061  0.4096  0.6028
  186MOL0     C24980   3.238   5.434   1.152  0.4643 -0.4519 -0.1858
  186MOL0     C24981   3.121   5.356   1.132 -0.5128 -0.8733 -0.3291
  186MOL0     C24982   3.062   5.338   1.009  0.2166  0.4918 -0.4957
  186MOL0     O24983   2.942   5.279   0.989  0.3558 -0.0970 -1.2019
  186MOL0     C24984   2.845   5.318   0.898 -1.2308  0.0778  0.4224
  186MOL0     C24985   2.715   5.244   0.923  1.1043  0.0899  0.0694
  186MOL0     C24986   2.698   5.094   0.937  0.4044 -0.6302 -0.3265
  186MOL0     C24987   2.770   5.052   1.066  0.3799  0.6236 -0.0350
  186MOL0     C24988   2.709   4.928   1.142  0.7206  0.2448 -0.0121
  186MOL0     C24989   2.571   4.966   1.209 -0.2233  0.1547 -0.0388
  186MOL0     C24990   2.491   4.845   1.229 -0.2744  0.4625  0.8676
  186MOL0     C24991   2.349   4.864   1.278 -0.5368 -1.1245 -0.2527
  186MOL0     N24992   2.350   4.904   1.419 -0.3513 -0.8039 -0.2684
  186MOL0     C24993   2.339   5.033   1.467  0.0357  0.6466 -0.3438
  186MOL0     C24994   2.370   5.024   1.597 -0.4078 -0.5393 -0.6696
  186MOL0     C24995   2.359   5.130   1.710  0.0881  0.2097  0.1508
  186MOL0     C24996   2.224   5.191   1.748 -0.0775  0.1660 -0.5964
  186MOL0     C24997   2.116   5.077   1.764 -0.3099 -0.1398  0.6167
  186MOL0     C24998   1.988   5.118   1.816 -0.4269 -0.3331  0.4863
  186MOL0     O24999   1.914   5.202   1.726  1.0188 -0.4824  0.5568
  186MOL0     C25000   1.777   5.233   1.760  0.6366 -0.0094 -0.0093
  186MOL0     C25001   1.699   5.308   1.673 -1.2903 -0.2613  0.3171
  186MOL0     C25002   1.567   5.343   1.714 -0.5014  0.0850  0.9699
  186MOL0     C25003   1.479   5.421   1.626  0.1782 -1.2251  0.1718
  186MOL0     C25004   1.515   5.303   1.836 -0.5606  0.4148 -0.1710
  186MOL0     C25005   1.373   5.335   1.885 -0.1729  0.1264 -0.7598
  186MOL0     O25006   1.339   5.462   1.880 -0.7372 -0.2571 -0.1209
  186MOL0     C25007   1.206   5.491   1.923  0.3974  0.7847 -0.4036
  186MOL0     C25008   1.176   5.573   2.028  0.5459 -0.4553 -0.0884
  186MOL0     C25009   1.044   5.588   2.069  0.8136 -0.3556 -0.5921
  186MOL0     C25010   0.928   5.531   2.005 -0.9015  0.9021 -0.0285
  186MOL0     O25011   0.804   5.553   2.058  0.2516 -0.0984 -0.5155
  186MOL0     C25012   0.692   5.579   1.970 -0.2247 -0.0159  0.5934
  186MOL0     C25013   0.596   5.453   1.972  0.0374 -0.0574  0.5298
  186MOL0     C25014   0.532   5.446   2.111 -0.0450  0.4641 -0.5777
  186MOL0     C25015   0.418   5.345   2.111  0.9711  0.0018 -0.2525
  186MOL0     C25016   0.286   5.419   2.082  0.6785 -0.1893  0.4097
  186MOL0     C25017   0.177   5.311   2.087  0.1211 -0.5712  0.3827
  186MOL0     C25018   0.037   5.369   2.087 -0.6013 -0.1717 -0.7767
  186MOL0     C25019  -0.065   5.274   2.162  0.4905 -0.7126 -0.1337
  186MOL0    Cl25020  -0.113   5.140   2.053  0.1368 -0.0274  0.0396
  186MOL0     C25021   0.956   5.447   1.897 -0.1567  0.1189  0.0728
  186MOL0     C25022   1.094   5.436   1.850  0.5293 -0.4505  0.3752
  186MOL0     O25023   1.301   5.240   1.907 -0.2911  0.0235 -0.1273
  186MOL0     C25024   1.595   5.227   1.926  0.0610 -0.8981  0.9246
  186MOL0     C25025   1.723   5.200   1.891 -0.8280  0.5905  0.2541
  186MOL0     N25026   2.394   4.893   1.629  0.1703 -0.0348  0.3942
  186MOL0     N25027   2.387   4.819   1.521  0.0161 -0.1449 -0.3127
  186MOL0     C25028   3.133   5.403   0.899 -0.1666 -0.4414 -0.0241
  186MOL0     C25029   3.253   5.473   0.922 -1.1242  0.0109 -0.6223
  186MOL0     C25030   3.646   5.525   1.114  0.1896 -0.7643  0.2313
  186MOL0     C25031   3.748   5.465   1.185  0.0007  0.2563 -0.6955
  186MOL0     C25032   3.884   5.492   1.156  0.4948  0.1162 -0.3146
  186MOL0     C25033   3.921   5.585   1.068  0.7463  0.7460  0.0328
  186MOL0     O25034   4.057   5.608   1.059  0.0607 -0.2760 -0.0453
  186MOL0     C25035   4.104   5.701   0.959  0.3015  0.3716  0.3583
  186MOL0     C25036   4.258   5.694   0.947 -0.4228  0.6966 -0.0182
  186MOL0     C25037   4.317   5.752   0.816 -0.2638 -0.5877 -0.0013
  186MOL0     C25038   4.442   5.682   0.789 -0.1544  0.2282  0.3905
  186MOL0     C25039   4.518   5.771   0.693  0.3930 -0.7684 -0.9752
  186MOL0     C25040   4.587   5.859   0.635 -0.0516  0.5667 -0.6509
  186MOL0     C25041   3.815   5.649   0.994 -0.6195 -0.7150  0.2969
  186MOL0     C25042   3.679   5.622   1.023 -0.0702  0.2593 -0.0598
  186MOL0     H25043   3.270   5.448   1.255 -1.3271 -1.5657  0.5745
  186MOL0     H25044   3.072   5.311   1.217 -3.1437  2.2235  0.0055
  186MOL0     H25045   2.840   5.427   0.899  0.1244  0.1680 -0.3133
  186MOL0     H25046   2.870   5.291   0.795 -2.5550  0.0384  0.1004
  186MOL0     H25047   2.680   5.282   1.020 -0.1748 -0.2349 -0.2462
  186MOL0     H25048   2.641   5.279   0.850 -0.8276 -0.6596  1.5603
  186MOL0     H25049   2.592   5.068   0.926  0.0316  0.4093  0.6445
  186MOL0     H25050   2.749   5.057   0.847 -0.6673  1.5616 -1.9201
  186MOL0     H25051   2.867   5.019   1.030  1.5371 -1.0996  4.1135
  186MOL0     H25052   2.781   5.129   1.143 -0.3056  0.5896  0.1056
  186MOL0     H25053   2.703   4.853   1.062  0.9094  1.5799 -1.3254
  186MOL0     H25054   2.770   4.882   1.219  3.2589  0.1341 -1.9726
  186MOL0     H25055   2.583   5.019   1.304 -3.4193  4.0595 -1.4912
  186MOL0     H25056   2.511   5.029   1.143 -0.6414  1.8040  1.8231
  186MOL0     H25057   2.481   4.796   1.132 -0.2665 -2.4485  2.2375
  186MOL0     H25058   2.542   4.779   1.300 -0.7540 -2.1071 -1.0428
  186MOL0     H25059   2.291   4.771   1.271 -1.2836 -0.6000 -1.4246
  186MOL0     H25060   2.302   4.944   1.219  0.8403  1.4992  1.9388
  186MOL0     H25061   2.321   5.127   1.417  3.1872  0.5977 -1.8402
  186MOL0     H25062   2.380   5.067   1.797  0.1067  0.4898  0.3529
  186MOL0     H25063   2.430   5.213   1.702  1.7104 -0.9973  1.2851
  186MOL0     H25064   2.187   5.261   1.673  2.8993  2.2211 -0.3374
  186MOL0     H25065   2.243   5.250   1.839 -1.9358 -1.9912  1.3250
  186MOL0     H25066   2.149   4.992   1.826 -2.8459 -1.2177  0.6094
  186MOL0     H25067   2.088   5.043   1.664  1.3125 -1.4779  0.5697
  186MOL0     H25068   2.009   5.166   1.912 -1.4196  0.7412  0.1969
  186MOL0     H25069   1.920   5.034   1.831 -3.1617  1.4598 -0.9712
  186MOL0     H25070   1.759   5.342   1.589  3.8527  0.9221  3.9838
  186MOL0     H25071   1.514   5.523   1.642  0.4548 -1.0247 -1.5050
  186MOL0     H25072   1.502   5.391   1.523  2.0261 -2.8370  0.9759
  186MOL0     H25073   1.372   5.411   1.645  0.1612  0.9862  1.6085
  186MOL0     H25074   1.250   5.635   2.078  1.5492 -0.9387 -0.9497
  186MOL0     H25075   1.020   5.648   2.156  2.4084 -0.9958  0.3252
  186MOL0     H25076   0.630   5.660   2.011 -1.5767  0.7311 -2.6321
  186MOL0     H25077   0.728   5.598   1.869 -1.6937  0.9829  0.2295
  186MOL0     H25078   0.519   5.463   1.895  0.8641  1.3446 -0.1638
  186MOL0     H25079   0.657   5.363   1.958 -0.7653 -0.7667  1.4368
  186MOL0     H25080   0.493   5.542   2.146  0.8187 -0.3174  2.9081
  186MOL0     H25081   0.606   5.407   2.181 -2.8525  0.5390  2.7234
  186MOL0     H25082   0.427   5.260   2.043 -1.8529 -0.6854  0.1053
  186MOL0     H25083   0.417   5.298   2.209  0.3394  1.3145  0.3930
  186MOL0     H25084   0.306   5.456   1.981  2.9339 -2.8223 -0.2604
  186MOL0     H25085   0.267   5.499   2.154  0.9363  0.7935 -0.6013
  186MOL0     H25086   0.197   5.237   2.009 -3.8830 -0.2497 -1.1996
  186MOL0     H25087   0.186   5.261   2.183 -2.3619 -3.5138 -0.7472
  186MOL0     H25088   0.001   5.387   1.986  0.4898  1.3073 -0.9412
  186MOL0     H25089   0.042   5.462   2.144 -0.4665 -1.5096  1.5610
  186MOL0     H25090  -0.157   5.329   2.184  0.9865  0.3541 -0.6173
  186MOL0     H25091  -0.012   5.240   2.252  1.3481  0.8906  0.0092
  186MOL0     H25092   0.875   5.395   1.848  1.3827 -2.5907  0.1782
  186MOL0     H25093   1.118   5.381   1.760 -2.3640 -0.9458 -0.1990
  186MOL0     H25094   1.564   5.182   2.020  1.2874 -2.6641  0.5472
  186MOL0     H25095   1.773   5.149   1.972 -2.4820  0.1517  1.0536
  186MOL0     H25096   3.085   5.408   0.802 -1.0677  2.3466  0.4699
  186MOL0     H25097   3.292   5.508   0.827 -0.1740  0.5990 -0.0323
  186MOL0     H25098   3.727   5.387   1.258 -0.3613  1.4864  0.5418
  186MOL0     H25099   3.961   5.435   1.205  2.8536  2.3134 -1.2577
  186MOL0     H25100   4.054   5.680   0.863 -3.3404  1.3704  1.8435
  186MOL0     H25101   4.085   5.805   0.987 -0.7302 -0.3719  2.6792
  186MOL0     H25102   4.285   5.589   0.958  1.2108  1.1096  0.1911
  186MOL0     H25103   4.296   5.747   1.035 -1.6747 -0.4947  1.2899
  186MOL0     H25104   4.334   5.860   0.824 -0.0401 -0.6235  0.0127
  186MOL0     H25105   4.248   5.737   0.732 -1.8213 -0.3603  1.1829
  186MOL0     H25106   4.424   5.585   0.742 -1.5812  1.9108 -2.8824
  186MOL0     H25107   4.494   5.663   0.883 -0.0613 -2.0960 -0.0810
  186MOL0     H25108   4.667   5.925   0.609  0.9825 -0.0810  0.7364
  186MOL0     H25109   3.842   5.733   0.932 -2.4857  0.7449  1.3333
  186MOL0     H25110   3.597   5.684   0.988  0.3163  0.4057 -0.7048
  187MOL0     O25111   2.186   4.235   0.242  0.3449 -0.8001  0.4586
  187MOL0     C25112   2.103   4.148   0.243 -0.7734  0.2538 -0.0094
  187MOL0     O25113   2.130   4.022   0.294  0.3399 -0.1174  0.2840
  187MOL0     C25114   2.252   3.970   0.312  0.5436  0.2291  0.4526
  187MOL0     C25115   2.363   4.011   0.233  0.7526 -0.0044  0.1483
  187MOL0     C25116   2.484   3.944   0.264  0.1244  0.2741 -0.0499
  187MOL0     C25117   2.501   3.859   0.371  0.6721 -0.3715 -0.2734
  187MOL0     O25118   2.624   3.812   0.418 -0.0105  0.2713 -0.4000
  187MOL0     C25119   2.647   3.812   0.559  0.2187  0.2017 -0.9195
  187MOL0     C25120   2.648   3.666   0.615 -0.0739 -1.0209 -0.7227
  187MOL0     C25121   2.725   3.665   0.756 -0.7765  0.1148 -1.2844
  187MOL0     C25122   2.868   3.610   0.718 -0.4363 -1.1978 -0.3704
  187MOL0     C25123   2.939   3.594   0.856  0.0548  0.5351 -0.0865
  187MOL0     C25124   3.081   3.531   0.833 -0.8823 -0.3434  0.4816
  187MOL0     C25125   3.101   3.432   0.940  0.8485 -0.6947 -0.8955
  187MOL0     C25126   3.147   3.494   1.069  0.1370  0.2614 -0.8734
  187MOL0     N25127   3.037   3.550   1.147 -0.0623 -1.1201  0.3296
  187MOL0     C25128   2.923   3.482   1.187  0.5846 -0.2312 -0.9182
  187MOL0     C25129   2.860   3.569   1.272 -0.4056 -1.1603  0.2556
  187MOL0     C25130   2.758   3.521   1.368  0.1575 -0.7462  0.1561
  187MOL0     C25131   2.636   3.471   1.297 -1.2093 -0.1853  1.1142
  187MOL0     C25132   2.508   3.479   1.384  0.9176 -0.2370 -1.0475
  187MOL0     C25133   2.396   3.417   1.308  0.5387 -0.0829 -0.2396
  187MOL0     O25134   2.265   3.459   1.355  0.1006  0.7084  0.3692
  187MOL0     C25135   2.150   3.432   1.299  1.0898 -0.0183  0.2419
  187MOL0     C25136   2.126   3.306   1.238 -0.8354 -0.0254  0.4923
  187MOL0     C25137   2.013   3.273   1.168  0.5426 -0.4146  0.1468
  187MOL0     C25138   2.017   3.151   1.075 -1.1707  0.6303 -0.5701
  187MOL0     C25139   1.895   3.355   1.184 -0.1016 -0.2060  0.3746
  187MOL0     C25140   1.754   3.321   1.127  0.0212  0.4736  0.2609
  187MOL0     O25141   1.666   3.415   1.163  0.6146 -0.7356  0.0913
  187MOL0     C25142   1.532   3.401   1.120  0.1088  0.4856  0.4614
  187MOL0     C25143   1.469   3.488   1.047  0.1257 -0.0206  0.3017
  187MOL0     C25144   1.332   3.495   1.023  0.6067  0.4912 -0.5708
  187MOL0     C25145   1.247   3.391   1.082 -0.6917 -0.4293  0.2819
  187MOL0     O25146   1.118   3.386   1.077  0.2728 -0.7012  0.2352
  187MOL0     C25147   1.045   3.514   1.076  0.6541 -0.8840 -0.0241
  187MOL0     C25148   0.907   3.498   1.127  0.4144  0.5863 -0.3196
  187MOL0     C25149   0.831   3.435   1.020  0.2698  0.2710 -0.9816
  187MOL0     C25150   0.683   3.409   1.056 -0.8938 -0.5388 -0.7105
  187MOL0     C25151   0.598   3.358   0.942 -0.3328 -0.0686  1.1328
  187MOL0     C25152   0.452   3.358   0.967 -0.0304  0.2112 -0.0233
  187MOL0     C25153   0.376   3.298   0.854  0.4401  0.7949 -0.0830
  187MOL0     C25154   0.229   3.341   0.867  0.0046 -0.6633  1.1196
  187MOL0    Cl25155   0.152   3.261   1.005 -0.2101 -0.3689 -0.1737
  187MOL0     C25156   1.321   3.285   1.131 -0.5239 -0.0063 -0.5510
  187MOL0     C25157   1.454   3.284   1.149  0.2192 -0.3053 -0.3124
  187MOL0     O25158   1.735   3.232   1.039 -0.1893 -0.0600  0.0943
  187MOL0     C25159   1.915   3.476   1.258 -0.4086  0.6478  0.2532
  187MOL0     C25160   2.031   3.510   1.313  0.7294 -0.3947 -0.1492
  187MOL0     N25161   2.923   3.694   1.267  0.5253 -0.6788 -0.4837
  187MOL0     N25162   3.034   3.683   1.191  0.1769  0.5297 -0.8869
  187MOL0     C25163   2.380   3.822   0.430  0.2040  0.5007 -0.5730
  187MOL0     C25164   2.259   3.871   0.408 -1.3573  0.0208  0.3761
  187MOL0     C25165   1.969   4.177   0.207 -0.3695 -0.3113 -0.1495
  187MOL0     C25166   1.933   4.304   0.160  0.1831  0.7319  0.7354
  187MOL0     C25167   1.804   4.329   0.122  0.4457 -0.3057 -0.1398
  187MOL0     C25168   1.719   4.232   0.094 -0.4182  0.7220 -0.3300
  187MOL0     O25169   1.608   4.231   0.018  1.0352  0.1314 -0.1940
  187MOL0     C25170   1.591   4.336  -0.082  0.1524  0.5582  0.3339
  187MOL0     C25171   1.463   4.318  -0.168  0.9229 -0.2766 -0.1187
  187MOL0     C25172   1.470   4.421  -0.283 -1.0344  0.6698  0.3862
  187MOL0     C25173   1.342   4.449  -0.351  0.4187 -0.3335 -0.3704
  187MOL0     C25174   1.245   4.513  -0.260 -0.3505  0.5393 -0.0744
  187MOL0     C25175   1.182   4.558  -0.167 -0.0712 -0.4878  0.1827
  187MOL0     C25176   1.742   4.104   0.145  0.1101 -0.3853  0.7229
  187MOL0     C25177   1.872   4.070   0.191 -0.1301  0.1063 -0.1589
  187MOL0     H25178   2.343   4.084   0.155  0.1865 -0.7223 -0.3947
  187MOL0     H25179   2.567   3.960   0.196  0.3573 -1.4362 -0.2036
  187MOL0     H25180   2.749   3.851   0.554  0.9808 -1.1668  2.0497
  187MOL0     H25181   2.584   3.876   0.621  1.3541  0.5848 -0.1312
  187MOL0     H25182   2.547   3.629   0.635  0.5998 -3.7357 -1.9553
  187MOL0     H25183   2.686   3.599   0.538  0.0835  1.6740 -3.1479
  187MOL0     H25184   2.733   3.762   0.806  0.9136 -0.8020  0.3735
  187MOL0     H25185   2.680   3.589   0.821  0.8658  1.2266  1.3166
  187MOL0     H25186   2.858   3.514   0.666  0.7567 -1.8472  0.5340
  187MOL0     H25187   2.922   3.683   0.657  1.1544 -0.8844  1.3145
  187MOL0     H25188   2.957   3.691   0.904  2.4715 -0.2895  0.8251
  187MOL0     H25189   2.879   3.528   0.918  0.3353  2.6239  2.5756
  187MOL0     H25190   3.074   3.486   0.733 -1.6823  0.6611  0.0719
  187MOL0     H25191   3.172   3.591   0.838 -1.1812  0.0076  2.5600
  187MOL0     H25192   3.009   3.376   0.959  2.9762 -3.7144  1.6316
  187MOL0     H25193   3.184   3.364   0.918  2.5022  0.0577  2.3011
  187MOL0     H25194   3.225   3.570   1.057  2.6652 -1.8873  0.9070
  187MOL0     H25195   3.188   3.422   1.140 -3.5423 -0.9363  0.2684
  187MOL0     H25196   2.897   3.377   1.183 -2.9704  0.5231 -0.5286
  187MOL0     H25197   2.805   3.446   1.432 -0.9450  0.3899  2.4013
  187MOL0     H25198   2.727   3.598   1.439 -0.2068  0.0510 -0.8428
  187MOL0     H25199   2.644   3.367   1.265 -3.0141  0.0851 -0.3728
  187MOL0     H25200   2.611   3.525   1.204 -1.0360  1.0873  1.7784
  187MOL0     H25201   2.473   3.581   1.405 -1.4390 -1.3620  1.0377
  187MOL0     H25202   2.519   3.440   1.486  0.0802 -0.3435 -0.9920
  187MOL0     H25203   2.407   3.310   1.331 -2.6675 -0.3495  0.5093
  187MOL0     H25204   2.402   3.436   1.200  0.3919  0.3967 -0.1628
  187MOL0     H25205   2.214   3.243   1.226 -0.9400  0.1482 -1.7406
  187MOL0     H25206   2.114   3.100   1.075 -0.9656  0.7545  2.8654
  187MOL0     H25207   1.943   3.076   1.101 -0.7122 -0.3220 -1.9331
  187MOL0     H25208   2.011   3.179   0.969 -1.4998 -1.1425 -1.0397
  187MOL0     H25209   1.526   3.572   1.008  0.3121 -1.2081 -2.2375
  187MOL0     H25210   1.302   3.578   0.960 -0.3119  0.1495 -0.5904
  187MOL0     H25211   1.098   3.591   1.133 -1.4498  0.2089  0.5689
  187MOL0     H25212   1.038   3.552   0.973 -1.4848 -2.1745 -0.4165
  187MOL0     H25213   0.898   3.428   1.210 -3.1588 -0.1638 -1.1665
  187MOL0     H25214   0.858   3.593   1.151  0.0215  0.4439 -0.5569
  187MOL0     H25215   0.876   3.338   0.997 -0.7113 -0.1165 -1.3005
  187MOL0     H25216   0.836   3.499   0.932  4.3589 -1.8234 -2.5434
  187MOL0     H25217   0.681   3.343   1.143  1.5135  2.2095  1.6290
  187MOL0     H25218   0.637   3.504   1.083 -2.9774 -1.4390 -0.8930
  187MOL0     H25219   0.628   3.255   0.925 -2.3866 -0.5343  0.0796
  187MOL0     H25220   0.615   3.419   0.852  1.3156  0.9040  2.0484
  187MOL0     H25221   0.440   3.312   1.066  0.9484  0.1884  0.0923
  187MOL0     H25222   0.423   3.463   0.981  0.4805  0.1407  1.8718
  187MOL0     H25223   0.375   3.190   0.842 -1.6581  0.7735 -0.1604
  187MOL0     H25224   0.417   3.331   0.758  0.0040  0.2010 -0.4791
  187MOL0     H25225   0.172   3.302   0.783  0.9594 -1.1362  0.6759
  187MOL0     H25226   0.222   3.450   0.881 -0.7760 -0.4646 -0.5743
  187MOL0     H25227   1.264   3.193   1.141 -1.8332  0.9423  1.0261
  187MOL0     H25228   1.509   3.193   1.173  2.3943  1.3488  1.3915
  187MOL0     H25229   1.827   3.537   1.271 -0.8750 -0.2007  1.1845
  187MOL0     H25230   2.039   3.605   1.367 -0.1588  1.2477 -2.7135
  187MOL0     H25231   2.397   3.760   0.517  0.1889  0.2823 -0.7261
  187MOL0     H25232   2.168   3.847   0.463 -0.7420 -1.7344  0.7167
  187MOL0     H25233   1.997   4.391   0.159  0.1190  0.8193 -1.3979
  187MOL0     H25234   1.788   4.433   0.096 -1.1884 -0.5486 -0.2090
  187MOL0     H25235   1.581   4.435  -0.036  1.3919  0.5268  0.6921
  187MOL0     H25236   1.678   4.335  -0.149  1.4341 -1.1855  1.9306
  187MOL0     H25237   1.376   4.329  -0.103  0.8337 -0.5156 -0.1972
  187MOL0     H25238   1.458   4.216  -0.206 -0.1349  0.4197 -1.9401
  187MOL0     H25239   1.533   4.364  -0.352 -2.2214 -2.6086  1.8394
  187MOL0     H25240   1.522   4.515  -0.262  1.5831 -0.7453  0.6947
  187MOL0     H25241   1.310   4.353  -0.393 -1.6905  0.9954 -1.9936
  187MOL0     H25242   1.350   4.523  -0.431 -3.5675 -1.9800 -2.5802
  187MOL0     H25243   1.139   4.608  -0.083 -1.1960 -1.1067 -0.0082
  187MOL0     H25244   1.664   4.030   0.128  0.1820 -0.1378 -0.8589
  187MOL0     H25245   1.889   3.967   0.220 -1.1014  0.4986  2.0762
  188MOL0     O25246   6.924   6.956   3.146  0.3245 -1.0928 -0.0562
  188MOL0     C25247   6.846   6.883   3.084 -0.3829  0.6926  0.4701
  188MOL0     O25248   6.864   6.838   2.956 -0.0794  0.0307 -0.1894
  188MOL0     C25249   6.992   6.866   2.903 -1.0451 -0.0863 -0.1844
  188MOL0     C25250   7.025   6.980   2.831  0.4885  0.8211 -0.3391
  188MOL0     C25251   7.153   7.003   2.772  1.4594 -0.2147  0.4252
  188MOL0     C25252   7.248   6.903   2.777 -0.2723 -1.0554 -0.9777
  188MOL0     O25253   7.383   6.912   2.744  0.1314 -0.7015  0.6357
  188MOL0     C25254   7.443   7.023   2.676 -0.2263 -0.6453 -0.4936
  188MOL0     C25255   7.584   7.002   2.612  0.3983  0.2547 -0.1244
  188MOL0     C25256   7.634   7.105   2.509 -1.1604 -0.2348  0.0085
  188MOL0     C25257   7.595   7.242   2.540  0.4095 -0.1068 -0.1762
  188MOL0     C25258   7.698   7.353   2.510  0.3669  1.0944 -0.3685
  188MOL0     C25259   7.821   7.326   2.603 -0.0775 -0.1390 -0.2741
  188MOL0     C25260   7.936   7.435   2.616  0.5943  0.1870  0.2208
  188MOL0     C25261   8.023   7.468   2.491  1.0548  0.1506 -0.2432
  188MOL0     N25262   8.109   7.589   2.503  0.9394  0.1599  0.3368
  188MOL0     C25263   8.238   7.584   2.495 -0.6992 -0.0801  0.6410
  188MOL0     C25264   8.285   7.704   2.538  0.3475  0.4638 -0.1811
  188MOL0     C25265   8.422   7.725   2.573  0.2318 -0.7862 -0.5081
  188MOL0     C25266   8.468   7.867   2.525 -0.2692 -0.0645 -0.2179
  188MOL0     C25267   8.611   7.890   2.489  0.8820  0.1953 -0.3746
  188MOL0     C25268   8.632   8.019   2.421 -0.7408 -0.7227  0.4143
  188MOL0     O25269   8.780   8.054   2.420  0.7412 -0.7868  0.2309
  188MOL0     C25270   8.852   8.003   2.319 -0.6987 -0.9118  0.7558
  188MOL0     C25271   8.823   7.901   2.224  0.1648 -0.6529  0.0463
  188MOL0     C25272   8.904   7.868   2.120 -0.1411 -0.8895  0.8515
  188MOL0     C25273   8.855   7.761   2.030 -0.2985 -0.2766  0.6778
  188MOL0     C25274   9.030   7.936   2.111 -0.5651 -0.5881  0.2191
  188MOL0     C25275   9.134   7.904   2.004  0.5332 -0.1064 -0.3715
  188MOL0     O25276   9.142   7.771   1.978  0.0956  0.4955 -0.1387
  188MOL0     C25277   9.232   7.710   1.891  0.8074  0.3653 -0.2155
  188MOL0     C25278   9.179   7.602   1.815  0.0466 -0.4720 -0.2543
  188MOL0     C25279   9.262   7.519   1.748 -0.5002 -0.1811 -0.0143
  188MOL0     C25280   9.406   7.528   1.772  0.7666  0.8238  0.2287
  188MOL0     O25281   9.493   7.433   1.718  0.2336  0.2063 -0.3268
  188MOL0     C25282   9.519   7.427   1.576  0.0021 -0.5425 -0.7445
  188MOL0     C25283   9.514   7.280   1.527  0.1442  0.4169  0.5758
  188MOL0     C25284   9.371   7.216   1.529  1.3592 -0.9164 -0.2569
  188MOL0     C25285   9.296   7.247   1.410 -0.3031  0.4209  1.1756
  188MOL0     C25286   9.183   7.144   1.400  0.8424 -0.4014 -0.0637
  188MOL0     C25287   9.235   7.010   1.352  0.3131  0.0982  0.2696
  188MOL0     C25288   9.128   6.903   1.346 -0.1679 -0.3160  0.5743
  188MOL0     C25289   9.069   6.874   1.489 -0.4425 -0.1357 -0.1113
  188MOL0    Cl25290   9.199   6.874   1.614 -0.1878  0.0868 -0.0669
  188MOL0     C25291   9.462   7.629   1.854  0.4304  0.7140 -0.5319
  188MOL0     C25292   9.375   7.721   1.903  0.0730 -0.7719  0.0848
  188MOL0     O25293   9.190   7.998   1.943  0.1837  0.3368 -0.3147
  188MOL0     C25294   9.070   8.032   2.211  0.2994  0.0688  0.7971
  188MOL0     C25295   8.977   8.073   2.304  0.0572  0.4203 -0.8292
  188MOL0     N25296   8.176   7.782   2.565  0.0238  0.8211 -0.0833
  188MOL0     N25297   8.070   7.717   2.542  0.1733  0.5413 -0.9046
  188MOL0     C25298   7.222   6.790   2.857 -0.9118 -0.5835  0.7283
  188MOL0     C25299   7.095   6.773   2.910  0.2791 -0.4477 -0.5494
  188MOL0     C25300   6.706   6.850   3.136 -0.6650  0.1828  0.6583
  188MOL0     C25301   6.606   6.818   3.041  0.8395  0.8657 -0.1046
  188MOL0     C25302   6.471   6.803   3.087 -0.2895 -0.0209  0.6983
  188MOL0     C25303   6.435   6.833   3.225 -1.3284  0.0040  0.4389
  188MOL0     O25304   6.307   6.816   3.261 -0.0383 -0.5241  0.1007
  188MOL0     C25305   6.252   6.859   3.391 -0.7287  1.3238 -0.7976
  188MOL0     C25306   6.113   6.817   3.423 -0.0064  0.1005 -1.0406
  188MOL0     C25307   6.036   6.731   3.322  0.5019  0.3619  0.0018
  188MOL0     C25308   5.976   6.804   3.202  1.0970 -0.4676 -0.9743
  188MOL0     C25309   5.851   6.871   3.255  0.1145  0.6796 -0.4423
  188MOL0     C25310   5.760   6.932   3.306 -0.0143 -0.7599  0.6405
  188MOL0     C25311   6.535   6.872   3.306 -0.1565 -0.7821 -0.2610
  188MOL0     C25312   6.670   6.885   3.267 -0.4138  0.3027 -0.6158
  188MOL0     H25313   6.943   7.050   2.817  1.1641  1.3782 -1.6973
  188MOL0     H25314   7.177   7.103   2.735  1.7329 -0.6225 -0.5515
  188MOL0     H25315   7.372   7.064   2.604  0.0065  0.6688 -0.0080
  188MOL0     H25316   7.462   7.107   2.745  1.4986  0.7534 -2.5375
  188MOL0     H25317   7.658   6.990   2.691  1.1068 -0.0975 -0.8287
  188MOL0     H25318   7.582   6.904   2.561  2.5124 -1.2434  2.4378
  188MOL0     H25319   7.742   7.097   2.491 -0.5010  0.9840  2.7979
  188MOL0     H25320   7.583   7.073   2.418 -1.4800 -2.3885  0.8713
  188MOL0     H25321   7.501   7.257   2.485  1.0054 -0.7000 -1.3986
  188MOL0     H25322   7.574   7.241   2.647 -0.2024  0.5223 -0.2854
  188MOL0     H25323   7.723   7.354   2.403 -3.0497  0.9678 -1.2822
  188MOL0     H25324   7.652   7.451   2.530 -1.9435  0.5454 -2.5230
  188MOL0     H25325   7.775   7.312   2.701 -1.2906  0.9421 -0.6668
  188MOL0     H25326   7.875   7.234   2.578  1.7280  0.5711  0.8367
  188MOL0     H25327   7.883   7.527   2.644 -3.0086 -1.3782 -0.8189
  188MOL0     H25328   8.004   7.404   2.695  0.2550  0.5419  0.6573
  188MOL0     H25329   7.961   7.501   2.406  0.3139  0.6868  0.4923
  188MOL0     H25330   8.083   7.382   2.460 -0.5361 -0.6374 -1.2653
  188MOL0     H25331   8.303   7.500   2.470  0.2828  0.7742  0.2345
  188MOL0     H25332   8.440   7.708   2.679 -2.1259 -3.1192 -0.3463
  188MOL0     H25333   8.483   7.655   2.515  1.7044  0.9964 -1.1884
  188MOL0     H25334   8.445   7.948   2.595  1.6933  0.7030 -0.3868
  188MOL0     H25335   8.404   7.886   2.438 -0.4864 -1.6176 -0.4320
  188MOL0     H25336   8.646   7.809   2.424 -1.5544 -1.0307 -0.2581
  188MOL0     H25337   8.675   7.888   2.578  0.9499 -1.3871 -0.4283
  188MOL0     H25338   8.573   8.097   2.471  0.5223 -0.8376  2.1484
  188MOL0     H25339   8.595   8.038   2.319  0.4563  1.8641  0.3715
  188MOL0     H25340   8.729   7.846   2.227  0.0609 -0.5974 -1.5349
  188MOL0     H25341   8.885   7.788   1.929  0.6600 -3.5149 -0.0396
  188MOL0     H25342   8.900   7.664   2.057  0.5415 -0.3269 -0.8322
  188MOL0     H25343   8.746   7.758   2.038 -0.1760 -2.2259  3.4034
  188MOL0     H25344   9.073   7.580   1.828  0.2112 -0.8889  0.4284
  188MOL0     H25345   9.222   7.432   1.697  1.0677 -0.7573 -0.3131
  188MOL0     H25346   9.447   7.491   1.523  0.4794  0.4778 -0.1985
  188MOL0     H25347   9.616   7.475   1.560  0.2962 -1.0286 -0.4158
  188MOL0     H25348   9.562   7.271   1.430  3.2008 -3.7166  2.1892
  188MOL0     H25349   9.567   7.222   1.603 -1.2280  0.8883  1.9553
  188MOL0     H25350   9.312   7.272   1.603  3.3141  0.0380  0.6823
  188MOL0     H25351   9.362   7.111   1.557  0.7347 -1.3044 -1.8636
  188MOL0     H25352   9.254   7.347   1.421  0.5837  1.0907 -0.9132
  188MOL0     H25353   9.360   7.230   1.322  0.0850  0.5013  1.4419
  188MOL0     H25354   9.104   7.187   1.339  0.9871 -1.2713 -0.8838
  188MOL0     H25355   9.135   7.121   1.496 -2.1066  0.4857 -1.2407
  188MOL0     H25356   9.282   7.027   1.255  0.2645  0.9933  0.3912
  188MOL0     H25357   9.313   6.975   1.420  3.1887  1.9313 -1.8338
  188MOL0     H25358   9.166   6.807   1.310 -2.5840 -1.0028 -0.3444
  188MOL0     H25359   9.055   6.921   1.266  0.3241 -3.1521 -0.6144
  188MOL0     H25360   9.027   6.773   1.479  1.4363 -1.0287  0.6247
  188MOL0     H25361   8.988   6.945   1.510  0.3370  0.9625 -0.7663
  188MOL0     H25362   9.566   7.626   1.885  0.5937  0.8150 -1.0575
  188MOL0     H25363   9.395   7.802   1.973  0.6557  0.0941 -1.0468
  188MOL0     H25364   9.165   8.085   2.205  1.7903 -2.5616 -0.5179
  188MOL0     H25365   8.991   8.156   2.372  1.6989 -1.0633  0.7883
  188MOL0     H25366   7.298   6.712   2.869  0.9840  0.5872 -2.2962
  188MOL0     H25367   7.070   6.677   2.954 -0.2230 -0.1933 -0.2766
  188MOL0     H25368   6.616   6.800   2.934  1.6178  4.4309 -0.7787
  188MOL0     H25369   6.382   6.787   3.026 -2.0631 -2.1859  3.6127
  188MOL0     H25370   6.318   6.821   3.470  2.1560  1.9114 -2.7769
  188MOL0     H25371   6.258   6.968   3.395 -1.7611  1.3772 -0.3441
  188MOL0     H25372   6.058   6.907   3.450 -0.6578 -1.0688  1.9416
  188MOL0     H25373   6.112   6.761   3.517  1.1530  2.6970  0.6018
  188MOL0     H25374   5.957   6.676   3.374 -1.0790  2.4354 -0.0926
  188MOL0     H25375   6.101   6.653   3.281 -0.6362 -0.4453 -0.3325
  188MOL0     H25376   5.957   6.735   3.119 -0.3160 -2.3552  0.7909
  188MOL0     H25377   6.039   6.884   3.162 -0.9705  1.8016  0.1053
  188MOL0     H25378   5.677   6.983   3.351  1.9294  2.3504  0.9982
  188MOL0     H25379   6.512   6.892   3.410  0.9143 -4.0948  0.7320
  188MOL0     H25380   6.742   6.931   3.334 -0.5048 -1.7427  1.0050
  189MOL0     O25381   2.764   1.737   0.502  0.7508  0.2627  0.7445
  189MOL0     C25382   2.825   1.631   0.494  0.4705  0.5980 -0.3828
  189MOL0     O25383   2.762   1.500   0.474 -0.4485  0.1462  0.3030
  189MOL0     C25384   2.625   1.502   0.489  0.3734  0.0654 -1.6657
  189MOL0     C25385   2.544   1.576   0.396  0.6671  0.1642  0.0150
  189MOL0     C25386   2.404   1.582   0.410 -0.2472 -0.9254 -0.3011
  189MOL0     C25387   2.344   1.497   0.497  0.1593  0.6290 -0.5117
  189MOL0     O25388   2.211   1.484   0.507  0.1852  0.5963 -0.8433
  189MOL0     C25389   2.151   1.353   0.492  0.1955  0.7301 -0.5606
  189MOL0     C25390   2.003   1.344   0.518 -0.3007 -0.5226  0.2119
  189MOL0     C25391   1.928   1.460   0.457  0.3120  0.1860  0.3671
  189MOL0     C25392   1.783   1.460   0.494  0.3571  0.2438  0.6971
  189MOL0     C25393   1.709   1.575   0.439 -0.2673  0.9136 -1.1536
  189MOL0     C25394   1.554   1.542   0.449 -0.5427 -0.2045 -0.2151
  189MOL0     C25395   1.488   1.662   0.382  0.7526  0.4826  0.0594
  189MOL0     C25396   1.332   1.647   0.379 -0.1897  0.7405 -0.2337
  189MOL0     N25397   1.257   1.750   0.314 -0.0703 -0.3709  0.3089
  189MOL0     C25398   1.266   1.773   0.180  0.1404  0.2082 -0.3022
  189MOL0     C25399   1.181   1.869   0.157  0.2524 -0.2080 -0.3801
  189MOL0     C25400   1.162   1.939   0.025 -0.6848 -1.4559  0.6763
  189MOL0     C25401   1.131   1.856  -0.098 -0.6203  0.2555 -0.2187
  189MOL0     C25402   1.023   1.744  -0.077 -0.1184 -0.2348  0.5042
  189MOL0     C25403   0.903   1.816  -0.017  0.0722  0.4610 -0.5796
  189MOL0     O25404   0.778   1.736  -0.035  0.6026  0.0432  0.5995
  189MOL0     C25405   0.656   1.780   0.020 -0.0242  0.3770  0.3870
  189MOL0     C25406   0.632   1.764   0.157 -0.4749  0.5133  0.6073
  189MOL0     C25407   0.505   1.790   0.212 -0.2122 -0.9095  0.0323
  189MOL0     C25408   0.496   1.756   0.359 -0.8475  0.0624 -0.0552
  189MOL0     C25409   0.402   1.851   0.138  0.1647 -0.8039  0.7279
  189MOL0     C25410   0.264   1.876   0.171 -0.1394 -1.7896 -0.6488
  189MOL0     O25411   0.199   1.978   0.102  0.3239 -0.0437  0.2964
  189MOL0     C25412   0.064   1.979   0.102 -0.6668 -0.3883 -0.3500
  189MOL0     C25413   0.013   2.108   0.123  1.3496 -0.0872  0.3316
  189MOL0     C25414  -0.121   2.124   0.147 -0.2177 -0.5491 -0.1693
  189MOL0     C25415  -0.215   2.025   0.118  0.1818 -0.5481  0.6197
  189MOL0     O25416  -0.349   2.047   0.129 -0.1578 -0.1566 -0.4684
  189MOL0     C25417  -0.423   2.087   0.018  0.5710 -0.5641  0.3703
  189MOL0     C25418  -0.560   2.100   0.075 -0.7705 -0.5264  0.3126
  189MOL0     C25419  -0.647   2.159  -0.028 -0.6093  0.5736 -0.4724
  189MOL0     C25420  -0.792   2.168   0.016  0.9314  1.3418 -0.3906
  189MOL0     C25421  -0.901   2.193  -0.084 -0.2679  0.3084  0.5379
  189MOL0     C25422  -0.909   2.087  -0.189  0.0135  0.7734  0.0881
  189MOL0     C25423  -1.002   2.128  -0.303 -0.0137  0.0705 -0.2157
  189MOL0     C25424  -1.025   2.016  -0.407 -0.0088  1.1133 -0.7937
  189MOL0    Cl25425  -1.098   2.071  -0.554  0.3010 -0.2061 -0.4372
  189MOL0     C25426  -0.164   1.898   0.083  0.0234 -0.0202 -0.1057
  189MOL0     C25427  -0.024   1.874   0.081  0.9756 -0.2151 -0.7666
  189MOL0     O25428   0.212   1.796   0.247  0.2998 -0.0277  0.5556
  189MOL0     C25429   0.446   1.888   0.007  0.0946  0.1659  0.9130
  189MOL0     C25430   0.567   1.854  -0.050  0.5464  0.0731 -1.1455
  189MOL0     N25431   1.115   1.906   0.273 -0.7632 -0.5707  0.2831
  189MOL0     N25432   1.153   1.824   0.364 -0.4750  0.0233 -0.0431
  189MOL0     C25433   2.416   1.412   0.580 -0.0028  0.1931  0.4366
  189MOL0     C25434   2.555   1.415   0.572 -0.0923 -0.0453 -0.0226
  189MOL0     C25435   2.967   1.644   0.487  0.2356 -0.2291 -0.4848
  189MOL0     C25436   3.034   1.764   0.520 -0.1693  0.3611  1.0483
  189MOL0     C25437   3.170   1.778   0.488 -1.1119  0.4240 -0.5355
  189MOL0     C25438   3.253   1.673   0.444  0.1007 -0.6151 -0.7608
  189MOL0     O25439   3.383   1.681   0.418  0.1588  0.0195 -0.3579
  189MOL0     C25440   3.442   1.809   0.406  0.4124  0.0431 -0.1923
  189MOL0     C25441   3.580   1.806   0.329  0.3888  0.6810 -0.4783
  189MOL0     C25442   3.699   1.752   0.405 -0.7906  0.3590  0.5585
  189MOL0     C25443   3.816   1.736   0.304  0.6778 -0.7234  0.1875
  189MOL0     C25444   3.782   1.644   0.194 -0.1474 -0.1751  0.2370
  189MOL0     C25445   3.732   1.561   0.117 -1.0519 -0.0890  0.0966
  189MOL0     C25446   3.186   1.552   0.429 -0.1131 -0.8785  0.7228
  189MOL0     C25447   3.048   1.538   0.445  0.3392  0.3374  0.1440
  189MOL0     H25448   2.589   1.659   0.343 -1.8076  1.4328 -0.2445
  189MOL0     H25449   2.352   1.660   0.356  1.2683 -0.7224 -1.5482
  189MOL0     H25450   2.168   1.353   0.384 -2.5369  3.7172 -1.1431
  189MOL0     H25451   2.205   1.273   0.542  0.5292  0.5470 -1.2037
  189MOL0     H25452   1.958   1.252   0.479  1.6693 -0.7154 -1.8407
  189MOL0     H25453   1.994   1.335   0.627  0.7802 -3.0428  0.1572
  189MOL0     H25454   1.979   1.557   0.471 -1.6050  1.3881 -0.5968
  189MOL0     H25455   1.932   1.441   0.350 -0.8151 -0.1829  0.3859
  189MOL0     H25456   1.722   1.382   0.447 -2.6569  1.4320  2.3223
  189MOL0     H25457   1.763   1.458   0.601 -4.0291  2.5218  0.1656
  189MOL0     H25458   1.726   1.673   0.486  0.5334 -0.1412  0.8499
  189MOL0     H25459   1.728   1.585   0.331 -3.6462 -3.1267 -2.3920
  189MOL0     H25460   1.541   1.446   0.397 -0.3197 -0.8580  0.9089
  189MOL0     H25461   1.531   1.527   0.555  2.2902  0.2550  0.5346
  189MOL0     H25462   1.516   1.753   0.434  0.6616 -0.5208  1.9523
  189MOL0     H25463   1.518   1.665   0.277  0.2973 -2.8000 -0.2747
  189MOL0     H25464   1.297   1.635   0.482  0.8011 -0.2848  0.0134
  189MOL0     H25465   1.301   1.560   0.320  0.4502 -0.9067  1.7378
  189MOL0     H25466   1.341   1.736   0.110 -1.1376  0.0940 -1.6573
  189MOL0     H25467   1.081   2.013   0.031  0.9063  0.6022 -1.3020
  189MOL0     H25468   1.252   1.998   0.005 -2.6573  1.8572  0.7859
  189MOL0     H25469   1.221   1.806  -0.135 -0.9738  1.1786 -2.5721
  189MOL0     H25470   1.108   1.927  -0.178  1.1647  1.5450  0.3304
  189MOL0     H25471   1.052   1.661  -0.011 -2.0807 -1.3416  0.0418
  189MOL0     H25472   0.994   1.698  -0.171 -2.9057 -0.2613  1.2956
  189MOL0     H25473   0.878   1.910  -0.067  0.9720  2.8500  3.0577
  189MOL0     H25474   0.918   1.842   0.088  2.3833  1.0128 -0.9939
  189MOL0     H25475   0.713   1.717   0.212  0.0183  0.3075 -0.2698
  189MOL0     H25476   0.469   1.651   0.374  0.0211 -0.2673 -0.7332
  189MOL0     H25477   0.592   1.781   0.404 -1.9113  3.0531  0.7857
  189MOL0     H25478   0.409   1.809   0.398 -3.1690 -0.8138 -3.5320
  189MOL0     H25479   0.086   2.187   0.136  0.9163  0.2853  0.5246
  189MOL0     H25480  -0.158   2.223   0.174 -0.0446  0.3790 -3.0302
  189MOL0     H25481  -0.377   2.174  -0.031  6.0676 -2.9102  0.6832
  189MOL0     H25482  -0.430   1.998  -0.045  0.0361 -1.6600  1.9283
  189MOL0     H25483  -0.587   2.001   0.111  0.9607 -1.7006 -1.4110
  189MOL0     H25484  -0.560   2.169   0.160  2.3766  1.4549 -1.0727
  189MOL0     H25485  -0.636   2.080  -0.102 -1.3882 -1.7914  1.7691
  189MOL0     H25486  -0.613   2.261  -0.051 -0.6450  1.7206  3.6734
  189MOL0     H25487  -0.818   2.072   0.062 -3.4136  1.8591 -1.3447
  189MOL0     H25488  -0.779   2.248   0.089 -0.0079  0.3892  0.8692
  189MOL0     H25489  -0.879   2.286  -0.137  1.1975 -1.5162 -2.3621
  189MOL0     H25490  -0.999   2.207  -0.039 -3.1519 -0.2443 -4.8060
  189MOL0     H25491  -0.813   2.082  -0.241 -0.3173  2.1293 -0.6867
  189MOL0     H25492  -0.928   1.984  -0.155  1.1593  0.1745 -0.9869
  189MOL0     H25493  -0.969   2.221  -0.351 -0.1583  0.3345  0.1886
  189MOL0     H25494  -1.096   2.154  -0.253  1.0043  1.0223  1.2951
  189MOL0     H25495  -1.081   1.933  -0.363 -0.5933  0.9981 -1.7110
  189MOL0     H25496  -0.927   1.970  -0.425 -1.2467 -2.2341  0.2307
  189MOL0     H25497  -0.239   1.821   0.063 -0.6043 -0.4449  3.1943
  189MOL0     H25498   0.014   1.775   0.060  2.5553  0.1614  0.1946
  189MOL0     H25499   0.381   1.940  -0.063  1.7000 -1.2728 -1.7784
  189MOL0     H25500   0.583   1.889  -0.151  3.4706  0.2157 -0.7422
  189MOL0     H25501   2.365   1.344   0.647  0.1778 -0.3766  0.0027
  189MOL0     H25502   2.610   1.349   0.638 -1.8954 -3.0646 -1.3650
  189MOL0     H25503   2.975   1.845   0.562 -1.0667 -0.6096  1.7172
  189MOL0     H25504   3.209   1.871   0.526 -1.9468  2.1374 -3.5734
  189MOL0     H25505   3.369   1.874   0.357 -1.3053 -0.6218  1.3534
  189MOL0     H25506   3.463   1.858   0.502 -1.9712  3.5422 -1.2702
  189MOL0     H25507   3.601   1.908   0.295  1.3151  0.9824  0.9331
  189MOL0     H25508   3.561   1.746   0.240 -0.7192  3.0047 -1.9132
  189MOL0     H25509   3.670   1.657   0.451  1.2304 -1.9020 -2.4640
  189MOL0     H25510   3.738   1.831   0.471  2.9843 -0.3425 -0.6071
  189MOL0     H25511   3.901   1.701   0.364  0.6047 -1.4277 -0.1057
  189MOL0     H25512   3.838   1.829   0.251 -1.6572  0.6502  1.4545
  189MOL0     H25513   3.685   1.494   0.047 -2.3966 -0.4533  1.2866
  189MOL0     H25514   3.250   1.468   0.405 -0.4402 -0.5286 -1.6886
  189MOL0     H25515   2.985   1.456   0.414  1.2076  0.5194 -2.3260
  190MOL0     O25516   6.798   4.268   6.115 -0.0419  0.1746  0.2206
  190MOL0     C25517   6.811   4.181   6.026 -0.0054 -0.1815  0.0190
  190MOL0     O25518   6.717   4.135   5.938 -0.4465  0.3412  0.0591
  190MOL0     C25519   6.583   4.150   5.975 -0.4966 -0.3261 -0.1198
  190MOL0     C25520   6.495   4.136   5.863  0.6756 -0.3374 -0.2571
  190MOL0     C25521   6.355   4.137   5.874 -0.1505  0.2351 -0.0569
  190MOL0     C25522   6.300   4.144   6.007 -0.2109  1.0300  0.3583
  190MOL0     O25523   6.159   4.116   6.013 -0.3087  0.2820  0.0388
  190MOL0     C25524   6.112   4.063   6.138 -0.7626 -0.2394 -0.0933
  190MOL0     C25525   5.964   4.032   6.124  0.1527  0.0959  0.0546
  190MOL0     C25526   5.859   4.141   6.148 -0.1129  0.0908 -0.0020
  190MOL0     C25527   5.726   4.082   6.140  0.3134  1.0320 -0.6236
  190MOL0     C25528   5.623   4.189   6.124 -0.3315  0.0102  0.6344
  190MOL0     C25529   5.481   4.137   6.139  1.1649  0.3137 -0.3235
  190MOL0     C25530   5.378   4.216   6.063 -0.3204  0.2944  0.5638
  190MOL0     C25531   5.384   4.190   5.912  0.2810 -0.5968  0.3803
  190MOL0     N25532   5.261   4.148   5.843 -0.1533 -0.4576  0.2544
  190MOL0     C25533   5.136   4.219   5.834 -0.3695 -0.5785 -0.8766
  190MOL0     C25534   5.066   4.133   5.760 -1.1078 -0.0665  0.6870
  190MOL0     C25535   4.932   4.150   5.687 -0.0695  0.7414  0.3686
  190MOL0     C25536   4.944   4.215   5.549  0.1214 -0.3342 -0.4145
  190MOL0     C25537   4.803   4.266   5.518  0.1565 -0.1564  0.1227
  190MOL0     C25538   4.802   4.327   5.380 -0.3590  0.6358  0.3782
  190MOL0     O25539   4.691   4.412   5.353  0.5290  0.1191  0.3714
  190MOL0     C25540   4.596   4.350   5.274 -0.2019 -0.1542  0.1935
  190MOL0     C25541   4.473   4.328   5.325  0.2965 -0.7062  0.1067
  190MOL0     C25542   4.364   4.283   5.256 -0.5542  0.9370 -0.4223
  190MOL0     C25543   4.229   4.278   5.326 -1.0146  0.0828 -0.5636
  190MOL0     C25544   4.378   4.251   5.112 -0.2950  0.0118 -0.2376
  190MOL0     C25545   4.264   4.212   5.020 -0.1387 -1.3320  0.0891
  190MOL0     O25546   4.285   4.238   4.884  0.5570  0.0898  0.4208
  190MOL0     C25547   4.201   4.164   4.810  0.4608  0.5964  0.6481
  190MOL0     C25548   4.073   4.206   4.780  0.8655 -0.8364  0.2680
  190MOL0     C25549   3.988   4.114   4.710  0.7801 -0.0453  0.7995
  190MOL0     C25550   4.037   3.993   4.662  0.0250 -0.7698 -0.2634
  190MOL0     O25551   3.951   3.904   4.609 -0.5812 -0.1535  0.4370
  190MOL0     C25552   3.843   3.854   4.686  0.1649 -0.2872 -0.5552
  190MOL0     C25553   3.880   3.779   4.812  0.1062  0.3615 -0.2980
  190MOL0     C25554   3.757   3.757   4.903  0.7640 -0.8597  0.5171
  190MOL0     C25555   3.646   3.672   4.845 -0.1076  0.6308 -0.7529
  190MOL0     C25556   3.527   3.649   4.943 -0.3117 -0.4239 -1.1059
  190MOL0     C25557   3.411   3.569   4.877 -0.7564 -0.0261 -0.6363
  190MOL0     C25558   3.292   3.557   4.977 -0.3629 -0.2930 -0.0051
  190MOL0     C25559   3.192   3.464   4.922 -0.2007 -0.1539  0.8755
  190MOL0    Cl25560   3.049   3.467   5.020 -0.3120 -0.2847 -0.0300
  190MOL0     C25561   4.173   3.961   4.687 -0.3834  0.4642 -0.3193
  190MOL0     C25562   4.257   4.047   4.759  0.2213 -0.5603 -0.2169
  190MOL0     O25563   4.165   4.161   5.072 -0.8008 -0.7814 -0.2253
  190MOL0     C25564   4.510   4.254   5.057 -0.4980 -0.2474  1.1183
  190MOL0     C25565   4.616   4.311   5.138 -0.7794 -0.0616  0.1443
  190MOL0     N25566   5.135   4.013   5.744  0.3925 -0.2500  0.0729
  190MOL0     N25567   5.249   4.024   5.794 -0.5867  0.2574 -0.1794
  190MOL0     C25568   6.387   4.165   6.123 -0.0000  0.2099 -0.1170
  190MOL0     C25569   6.531   4.161   6.107  0.6773 -0.2657 -0.6639
  190MOL0     C25570   6.933   4.094   6.021  0.2845  0.7371  0.7282
  190MOL0     C25571   7.056   4.151   6.044 -0.0998  0.8921  0.2434
  190MOL0     C25572   7.179   4.085   6.028 -0.2669  0.3545  0.0986
  190MOL0     C25573   7.180   3.942   5.986  0.2523 -0.8817 -0.8778
  190MOL0     O25574   7.293   3.869   5.963  0.1513  0.0687 -0.4133
  190MOL0     C25575   7.413   3.931   5.999 -0.5915  0.6531  0.1952
  190MOL0     C25576   7.525   3.832   5.979 -0.7820  0.4560 -0.2587
  190MOL0     C25577   7.663   3.905   5.944  0.5286  0.7441 -0.5971
  190MOL0     C25578   7.783   3.800   5.940  0.5747 -0.2379  0.8886
  190MOL0     C25579   7.814   3.754   6.083 -0.7612  0.3475 -0.0963
  190MOL0     C25580   7.850   3.708   6.189 -0.4878  0.5979  0.3580
  190MOL0     C25581   7.055   3.887   5.962 -0.4014 -0.2523  0.2787
  190MOL0     C25582   6.935   3.963   5.975 -0.0707  0.5933 -0.7404
  190MOL0     H25583   6.532   4.139   5.761 -2.8840  0.7544 -1.6719
  190MOL0     H25584   6.279   4.119   5.798 -0.5065  1.1505  0.0715
  190MOL0     H25585   6.180   3.982   6.165  1.1052  1.1289 -0.4830
  190MOL0     H25586   6.126   4.149   6.206  0.3327 -0.4072 -0.0884
  190MOL0     H25587   5.965   3.984   6.025  0.2779 -0.0975  0.1477
  190MOL0     H25588   5.947   3.952   6.197  3.6999 -1.4677 -0.6124
  190MOL0     H25589   5.873   4.186   6.247  1.1573  0.6874 -0.4290
  190MOL0     H25590   5.879   4.217   6.072  3.0552  0.9328  1.4882
  190MOL0     H25591   5.718   4.012   6.056  0.0903 -1.0207  1.0226
  190MOL0     H25592   5.709   4.020   6.228 -0.0467  2.3622  0.2712
  190MOL0     H25593   5.635   4.281   6.182 -1.9718  2.5734 -2.7575
  190MOL0     H25594   5.643   4.221   6.022  0.0030  0.9477  0.9810
  190MOL0     H25595   5.479   4.040   6.089  1.2666  1.2678 -2.2933
  190MOL0     H25596   5.454   4.118   6.243  0.8856  0.2109 -0.4144
  190MOL0     H25597   5.287   4.170   6.105 -1.1626  0.0573 -1.4154
  190MOL0     H25598   5.377   4.323   6.082  0.9868  0.3425  0.4330
  190MOL0     H25599   5.457   4.114   5.883  3.4432  2.9686 -2.0358
  190MOL0     H25600   5.415   4.286   5.869 -1.2966  0.5171  1.6072
  190MOL0     H25601   5.111   4.320   5.866  4.2451  0.7831 -0.8055
  190MOL0     H25602   4.891   4.050   5.668  0.5763  0.1497  1.9490
  190MOL0     H25603   4.855   4.201   5.745 -1.6923  0.4550 -1.4193
  190MOL0     H25604   4.966   4.136   5.476 -3.2355 -2.2194  0.3811
  190MOL0     H25605   5.022   4.291   5.551  3.1106 -3.1725  0.1169
  190MOL0     H25606   4.778   4.349   5.585 -2.6221 -0.4293 -0.4706
  190MOL0     H25607   4.725   4.192   5.540 -0.2557  0.6979  1.7020
  190MOL0     H25608   4.817   4.244   5.311  0.8847 -0.6924  2.1464
  190MOL0     H25609   4.893   4.388   5.370 -1.1919  2.1488  1.5471
  190MOL0     H25610   4.455   4.353   5.429 -0.0417  0.7141 -0.2721
  190MOL0     H25611   4.251   4.317   5.425  2.6942 -1.1436 -0.7351
  190MOL0     H25612   4.161   4.352   5.282 -0.6372  0.4312 -0.5625
  190MOL0     H25613   4.181   4.180   5.333  0.7328 -0.7445  0.4432
  190MOL0     H25614   4.038   4.306   4.801 -0.5051 -0.8100 -1.8389
  190MOL0     H25615   3.879   4.121   4.706  0.6356 -1.5671  1.4847
  190MOL0     H25616   3.780   3.941   4.706  1.0112  1.2931 -3.9589
  190MOL0     H25617   3.785   3.787   4.623 -1.9061  0.2338  0.7089
  190MOL0     H25618   3.925   3.688   4.772 -3.8453 -1.8596 -0.2641
  190MOL0     H25619   3.951   3.841   4.867 -2.4548  2.2357  1.0980
  190MOL0     H25620   3.707   3.853   4.917 -3.1788 -2.2905 -1.9759
  190MOL0     H25621   3.796   3.705   4.990  3.5458 -0.3556 -0.3300
  190MOL0     H25622   3.618   3.711   4.747  0.9976  0.3613 -1.1934
  190MOL0     H25623   3.695   3.574   4.842  3.0239  1.8728  2.3240
  190MOL0     H25624   3.488   3.750   4.959  2.8139  0.7950 -0.5859
  190MOL0     H25625   3.558   3.590   5.029  2.2182  0.0274 -1.6246
  190MOL0     H25626   3.380   3.601   4.777  1.3908 -1.2185 -1.7516
  190MOL0     H25627   3.446   3.469   4.851 -0.5746  0.2816 -1.6295
  190MOL0     H25628   3.256   3.660   4.986  1.4076  0.4404 -0.7205
  190MOL0     H25629   3.324   3.516   5.073  2.0282 -1.2660 -1.1406
  190MOL0     H25630   3.225   3.360   4.919 -0.5973 -0.2566 -0.2303
  190MOL0     H25631   3.177   3.485   4.816 -1.0573  0.3134  1.0804
  190MOL0     H25632   4.211   3.868   4.647  2.9797  0.7852  1.7887
  190MOL0     H25633   4.362   4.035   4.781  0.7709  0.0711 -2.3228
  190MOL0     H25634   4.517   4.236   4.950 -0.5167  3.5221  0.3315
  190MOL0     H25635   4.717   4.320   5.098  0.7708 -1.6641  3.3465
  190MOL0     H25636   6.350   4.162   6.225 -1.0824  1.3624 -0.4525
  190MOL0     H25637   6.592   4.159   6.197  1.1261 -5.1241 -0.8083
  190MOL0     H25638   7.067   4.258   6.062  1.7933  1.1701 -2.0574
  190MOL0     H25639   7.271   4.140   6.048  0.5276 -1.1431  0.7291
  190MOL0     H25640   7.420   4.017   5.932  0.5441 -0.0371 -0.6027
  190MOL0     H25641   7.411   3.980   6.097  2.1843 -0.0606  0.7030
  190MOL0     H25642   7.507   3.759   5.899 -3.3951 -1.2123  1.6976
  190MOL0     H25643   7.542   3.767   6.065 -2.8001  0.6492  0.3253
  190MOL0     H25644   7.685   3.988   6.012 -2.6054  1.0088  0.2445
  190MOL0     H25645   7.643   3.953   5.848 -2.7992  1.1073  0.1414
  190MOL0     H25646   7.869   3.850   5.894 -0.0940 -0.9377 -1.1993
  190MOL0     H25647   7.768   3.713   5.875 -0.3310  1.3595 -1.1514
  190MOL0     H25648   7.902   3.650   6.262 -1.5137 -1.3747 -0.4195
  190MOL0     H25649   7.057   3.785   5.924  1.0640  0.9679 -3.3080
  190MOL0     H25650   6.844   3.908   5.952 -0.6618  1.1064  0.2947
  191MOL0     O25651   3.380   8.967   6.325  0.5225  0.0051  0.2061
  191MOL0     C25652   3.404   8.846   6.326 -0.0207 -0.9466  0.7398
  191MOL0     O25653   3.347   8.753   6.404 -0.8066  0.1936  0.4457
  191MOL0     C25654   3.294   8.786   6.522 -0.0666  0.6354 -1.4980
  191MOL0     C25655   3.197   8.698   6.563 -0.1820 -0.2408  0.1452
  191MOL0     C25656   3.146   8.713   6.690 -0.5614  0.3714 -0.6789
  191MOL0     C25657   3.175   8.819   6.784  0.1242  0.8125 -0.8618
  191MOL0     O25658   3.102   8.829   6.909 -0.2231  0.1173  0.7679
  191MOL0     C25659   3.032   8.705   6.954  0.0460 -1.3920  0.7847
  191MOL0     C25660   2.934   8.736   7.062 -0.3158  0.1916 -0.7520
  191MOL0     C25661   2.858   8.873   7.064 -0.0735 -0.3907 -0.0678
  191MOL0     C25662   2.931   8.995   7.143  0.8452  0.7929 -0.5251
  191MOL0     C25663   2.942   8.958   7.294 -0.4131 -0.4040 -0.1414
  191MOL0     C25664   3.005   9.071   7.370  0.0610 -0.0350 -1.5311
  191MOL0     C25665   3.047   9.020   7.506  0.1336  0.6930  0.0731
  191MOL0     C25666   2.928   8.994   7.604  0.0604  0.3586  0.2178
  191MOL0     N25667   2.840   9.117   7.626 -0.4206  1.1998  0.3100
  191MOL0     C25668   2.734   9.149   7.550  0.2187  0.4444 -0.1785
  191MOL0     C25669   2.686   9.252   7.621  0.4723 -0.2127 -0.1736
  191MOL0     C25670   2.553   9.329   7.595 -0.6712  0.7258 -0.4508
  191MOL0     C25671   2.445   9.287   7.698 -0.1669  0.1756 -0.2449
  191MOL0     C25672   2.397   9.145   7.667 -0.1116 -0.6599 -0.2600
  191MOL0     C25673   2.363   9.130   7.512  0.4128 -0.3644 -0.3294
  191MOL0     O25674   2.282   9.238   7.451 -0.3912 -0.1281  0.0169
  191MOL0     C25675   2.158   9.270   7.503 -0.2268  0.6053 -0.0335
  191MOL0     C25676   2.078   9.185   7.576  0.3796  0.0844 -0.3161
  191MOL0     C25677   1.951   9.224   7.621  0.6496  0.6381 -0.1494
  191MOL0     C25678   1.861   9.108   7.672  0.1036 -0.0278 -0.9289
  191MOL0     C25679   1.902   9.359   7.601  0.2847  0.7069 -0.5097
  191MOL0     C25680   1.766   9.418   7.629  1.1562 -0.0959 -0.1724
  191MOL0     O25681   1.757   9.548   7.643 -0.3352 -0.2108 -0.1822
  191MOL0     C25682   1.632   9.604   7.649  0.1150 -0.2367 -0.6076
  191MOL0     C25683   1.526   9.578   7.744 -0.2182 -0.7655 -1.4322
  191MOL0     C25684   1.405   9.647   7.746 -0.1002  0.2209  0.2362
  191MOL0     C25685   1.386   9.753   7.649  1.2722  0.3190 -0.9215
  191MOL0     O25686   1.263   9.818   7.633 -0.9410  0.2739  0.5480
  191MOL0     C25687   1.183   9.848   7.750  0.0074 -0.1370 -0.5407
  191MOL0     C25688   1.075   9.935   7.694 -0.4821  0.1762  1.0671
  191MOL0     C25689   0.952   9.965   7.789  0.5136  0.2842 -0.2262
  191MOL0     C25690   0.869   9.834   7.798  0.4916  0.0188 -0.8159
  191MOL0     C25691   0.724   9.856   7.855 -0.2443  0.7884 -0.1510
  191MOL0     C25692   0.627   9.754   7.795 -0.1195 -0.5257 -0.3582
  191MOL0     C25693   0.478   9.770   7.835  0.5781 -0.1330 -0.0619
  191MOL0     C25694   0.458   9.788   7.983 -0.1300  0.0279  0.5910
  191MOL0    Cl25695   0.290   9.793   8.025 -0.0648  0.2397  0.3597
  191MOL0     C25696   1.484   9.774   7.559 -0.0669 -0.0276  0.4744
  191MOL0     C25697   1.609   9.713   7.556 -0.1820  0.8770  0.1115
  191MOL0     O25698   1.665   9.346   7.619  0.3334  0.6835 -0.0735
  191MOL0     C25699   1.989   9.438   7.527 -0.6079 -0.8096 -0.9603
  191MOL0     C25700   2.108   9.395   7.475  0.1676  0.1022  0.1001
  191MOL0     N25701   2.774   9.290   7.717 -0.2258  1.1003  0.4418
  191MOL0     N25702   2.859   9.203   7.727  0.4829  0.5672 -0.1801
  191MOL0     C25703   3.275   8.913   6.736  0.1253  1.1967  0.3299
  191MOL0     C25704   3.329   8.900   6.600  0.7659  0.7399 -0.9676
  191MOL0     C25705   3.507   8.798   6.223 -0.4644 -0.0299  0.1081
  191MOL0     C25706   3.568   8.883   6.129  0.3441  1.4135 -0.0735
  191MOL0     C25707   3.682   8.846   6.051  0.7794  0.1351 -0.0628
  191MOL0     C25708   3.731   8.714   6.066  0.3036 -0.0081 -0.9707
  191MOL0     O25709   3.842   8.672   5.992 -0.2983 -0.0501 -0.0080
  191MOL0     C25710   3.904   8.541   6.003 -0.6496 -0.0997  0.2407
  191MOL0     C25711   4.033   8.539   5.918  0.6598  0.2687  0.1971
  191MOL0     C25712   4.092   8.396   5.914  0.5764  0.1598 -0.4139
  191MOL0     C25713   4.239   8.385   5.859  0.1985  0.5272  1.0417
  191MOL0     C25714   4.218   8.401   5.715  0.3688  0.0016 -0.4939
  191MOL0     C25715   4.228   8.426   5.595  0.1172 -0.0440 -0.5659
  191MOL0     C25716   3.665   8.629   6.154 -0.1877  0.9365 -0.6490
  191MOL0     C25717   3.553   8.669   6.236 -0.3417 -0.6017 -0.5896
  191MOL0     H25718   3.174   8.609   6.505 -3.1914 -0.5683  1.6280
  191MOL0     H25719   3.076   8.633   6.714 -0.6332  1.2189  2.3486
  191MOL0     H25720   2.978   8.661   6.870  1.2555 -1.8581  0.2303
  191MOL0     H25721   3.117   8.639   6.976  0.6416 -1.4774 -1.5602
  191MOL0     H25722   2.861   8.655   7.058 -0.6576  0.5491 -2.4010
  191MOL0     H25723   2.977   8.730   7.163 -3.4460 -0.2579  0.6792
  191MOL0     H25724   2.834   8.889   6.958 -0.4624  3.3591  0.4297
  191MOL0     H25725   2.759   8.862   7.110  0.4808 -3.2768  0.5928
  191MOL0     H25726   3.029   9.017   7.100  1.1945 -0.4453 -0.4221
  191MOL0     H25727   2.869   9.084   7.139 -1.3641 -0.6780 -0.9500
  191MOL0     H25728   2.844   8.928   7.332  0.1507 -0.8504  1.0100
  191MOL0     H25729   3.015   8.876   7.303  0.7008  0.4189 -1.2933
  191MOL0     H25730   3.095   9.108   7.320 -0.1465  3.3046  0.2671
  191MOL0     H25731   2.939   9.158   7.370 -0.5870 -0.4961  0.1931
  191MOL0     H25732   3.106   8.928   7.493  0.3846  0.9200 -0.4312
  191MOL0     H25733   3.109   9.091   7.560  1.4618 -1.5631  1.7041
  191MOL0     H25734   2.973   8.974   7.701  1.0471  0.2462 -0.2579
  191MOL0     H25735   2.863   8.910   7.579 -2.5598  2.0212  0.9629
  191MOL0     H25736   2.672   9.080   7.494 -0.8098 -0.4159  1.9043
  191MOL0     H25737   2.574   9.435   7.606  0.2398  0.3468  2.0140
  191MOL0     H25738   2.522   9.312   7.491  0.9466  2.7153 -1.3058
  191MOL0     H25739   2.362   9.357   7.688 -0.0930  0.3702  0.4768
  191MOL0     H25740   2.473   9.286   7.804  0.0390 -3.0942 -0.2265
  191MOL0     H25741   2.316   9.118   7.734  2.4409 -1.2200  2.8097
  191MOL0     H25742   2.479   9.077   7.688 -0.4831 -0.4388  2.0914
  191MOL0     H25743   2.300   9.041   7.506 -1.3997  0.8742 -0.5589
  191MOL0     H25744   2.458   9.117   7.460  1.0757 -0.5871  0.8898
  191MOL0     H25745   2.120   9.085   7.587 -1.8641 -1.2068 -2.3951
  191MOL0     H25746   1.914   9.014   7.690 -1.1546  0.0792  7.7632
  191MOL0     H25747   1.826   9.137   7.771  1.8013  0.2500 -0.3664
  191MOL0     H25748   1.779   9.084   7.604 -0.3777 -1.5208  0.1352
  191MOL0     H25749   1.544   9.502   7.819 -0.1596  1.0277  0.4637
  191MOL0     H25750   1.323   9.635   7.817 -1.2536 -0.2880 -1.1418
  191MOL0     H25751   1.141   9.754   7.786  1.6408 -1.1587 -1.1444
  191MOL0     H25752   1.245   9.893   7.828 -4.2781 -0.6900  3.6496
  191MOL0     H25753   1.122  10.029   7.664 -1.1617  0.4456  0.8310
  191MOL0     H25754   1.046   9.886   7.600  1.0708 -0.9950  1.1492
  191MOL0     H25755   0.898  10.050   7.747 -0.0507 -0.3953 -0.9158
  191MOL0     H25756   0.996   9.995   7.884  0.8966  2.0890 -0.9273
  191MOL0     H25757   0.861   9.808   7.692  1.0948 -5.0000  0.1302
  191MOL0     H25758   0.917   9.756   7.857 -0.8855  0.3681  0.8713
  191MOL0     H25759   0.695   9.956   7.822  1.8544  0.4171 -3.5447
  191MOL0     H25760   0.732   9.854   7.965 -1.0597  2.7766 -0.0234
  191MOL0     H25761   0.640   9.777   7.689 -0.8940 -1.5093 -0.6777
  191MOL0     H25762   0.674   9.657   7.817  2.2480  0.8394  1.1755
  191MOL0     H25763   0.433   9.679   7.793  3.0401 -0.8010 -1.4099
  191MOL0     H25764   0.438   9.859   7.785  5.1941  1.1031 -2.0842
  191MOL0     H25765   0.500   9.886   8.009 -3.2348  1.6574 -0.0341
  191MOL0     H25766   0.512   9.712   8.040 -1.1760  0.7841  2.7157
  191MOL0     H25767   1.479   9.855   7.487 -0.7680  0.7556  1.3642
  191MOL0     H25768   1.689   9.738   7.487  0.5978  1.1763  1.0916
  191MOL0     H25769   1.951   9.535   7.496  1.3598  0.4784  0.4650
  191MOL0     H25770   2.165   9.465   7.415 -1.6864  4.4550  2.9764
  191MOL0     H25771   3.297   9.001   6.795  2.8247  0.1556  1.0371
  191MOL0     H25772   3.414   8.962   6.572  1.2105  1.4836  1.7210
  191MOL0     H25773   3.517   8.978   6.118 -1.6358  0.7768  2.6680
  191MOL0     H25774   3.728   8.916   5.984 -2.4974  1.1970 -1.4112
  191MOL0     H25775   3.924   8.519   6.108  1.1074 -2.0067 -0.4417
  191MOL0     H25776   3.838   8.462   5.966  0.7855 -1.5848  0.7373
  191MOL0     H25777   4.105   8.611   5.957  0.0696 -0.2631  2.3686
  191MOL0     H25778   4.014   8.573   5.815 -0.5211  1.5677  0.8177
  191MOL0     H25779   4.020   8.329   5.866 -1.7512  3.6499 -2.1577
  191MOL0     H25780   4.120   8.364   6.015  2.4037  2.0920 -0.2389
  191MOL0     H25781   4.283   8.286   5.873 -0.1542 -0.0436 -1.4306
  191MOL0     H25782   4.312   8.459   5.891  0.0434  0.8329  0.6912
  191MOL0     H25783   4.244   8.441   5.490  2.3798 -3.2407 -0.8173
  191MOL0     H25784   3.695   8.526   6.172  0.7326  1.4794  1.1609
  191MOL0     H25785   3.507   8.602   6.309 -2.7477 -2.4690 -3.5585
  192MOL0     O25786   0.888   4.240   6.971 -0.4038  0.6011  0.0556
  192MOL0     C25787   0.886   4.210   6.854 -0.0336 -0.5039 -0.4591
  192MOL0     O25788   0.774   4.184   6.783 -0.7327  0.1655  0.0516
  192MOL0     C25789   0.650   4.181   6.839  0.3347  0.4467 -0.6581
  192MOL0     C25790   0.549   4.243   6.777  0.0850  0.0816 -1.0964
  192MOL0     C25791   0.417   4.230   6.826  0.2776 -0.5136 -0.4100
  192MOL0     C25792   0.385   4.149   6.934 -0.3085 -1.5102 -0.3019
  192MOL0     O25793   0.258   4.124   6.985 -0.7660 -0.2395 -1.2794
  192MOL0     C25794   0.149   4.109   6.889  0.0438  0.1001 -0.1113
  192MOL0     C25795   0.033   4.033   6.949 -0.7053  0.2339  0.6120
  192MOL0     C25796   0.085   3.914   7.020 -0.5568 -0.0050  0.1089
  192MOL0     C25797   0.156   3.800   6.936  0.3517  0.4703 -0.1824
  192MOL0     C25798   0.218   3.694   7.031 -0.4084  1.0096  0.0060
  192MOL0     C25799   0.321   3.607   6.958 -0.3782  0.2481  0.4064
  192MOL0     C25800   0.448   3.693   6.915  0.0709  0.3381 -0.7302
  192MOL0     C25801   0.584   3.618   6.890 -0.0938 -0.1525 -0.1903
  192MOL0     N25802   0.579   3.516   6.787  0.4665  0.1761  0.4002
  192MOL0     C25803   0.518   3.394   6.798  0.3514 -0.3570 -0.1750
  192MOL0     C25804   0.526   3.328   6.683 -0.8202 -0.9327  0.2687
  192MOL0     C25805   0.501   3.187   6.662  1.3989 -0.0193 -0.2651
  192MOL0     C25806   0.361   3.145   6.689 -0.0971  0.1860  0.2801
  192MOL0     C25807   0.266   3.191   6.575  0.2214 -0.1662  0.7664
  192MOL0     C25808   0.124   3.133   6.576  0.4998 -1.0435 -0.2486
  192MOL0     O25809   0.134   2.997   6.569  0.2223 -0.1757  0.1213
  192MOL0     C25810   0.013   2.928   6.548  0.4525  0.2772  0.9837
  192MOL0     C25811   0.010   2.795   6.504  0.6775  0.4249  0.1235
  192MOL0     C25812  -0.107   2.719   6.484 -1.2296  0.0359 -0.1132
  192MOL0     C25813  -0.090   2.574   6.444 -0.5299  0.1667  0.0867
  192MOL0     C25814  -0.226   2.785   6.511  0.0740  0.4729 -0.6573
  192MOL0     C25815  -0.358   2.725   6.494  0.0094  0.3558 -0.1938
  192MOL0     O25816  -0.450   2.746   6.595 -0.3842 -0.6346  0.4616
  192MOL0     C25817  -0.568   2.686   6.583  1.0609  0.6075 -0.5024
  192MOL0     C25818  -0.580   2.555   6.591  0.0084  0.4571 -0.2290
  192MOL0     C25819  -0.706   2.494   6.575  0.8022 -0.4458  0.6669
  192MOL0     C25820  -0.820   2.574   6.551 -0.3407 -0.4198  0.7118
  192MOL0     O25821  -0.934   2.517   6.508  0.0865  0.0072 -0.0196
  192MOL0     C25822  -0.986   2.425   6.606 -0.4545  0.2882 -0.3720
  192MOL0     C25823  -1.103   2.341   6.555 -0.3090 -0.1706  0.2141
  192MOL0     C25824  -1.244   2.404   6.553  0.5192  0.4152  0.4645
  192MOL0     C25825  -1.352   2.292   6.523  0.6158 -1.2160  0.2022
  192MOL0     C25826  -1.478   2.364   6.462 -0.4124  0.9821 -0.8075
  192MOL0     C25827  -1.609   2.270   6.468  0.3492 -0.5398  0.3016
  192MOL0     C25828  -1.676   2.274   6.605 -0.4622  0.0805 -0.7020
  192MOL0     C25829  -1.787   2.171   6.622 -0.7178  0.9934 -0.8391
  192MOL0    Cl25830  -1.736   2.019   6.565 -0.1461  0.5267  0.2829
  192MOL0     C25831  -0.810   2.709   6.546 -0.7142 -0.0397 -0.1113
  192MOL0     C25832  -0.688   2.761   6.576 -0.6311 -0.4050  0.8132
  192MOL0     O25833  -0.377   2.661   6.389  1.0146 -0.9440  0.2176
  192MOL0     C25834  -0.234   2.917   6.544  0.8383 -0.4363  0.4717
  192MOL0     C25835  -0.118   2.994   6.558 -0.4044  0.3214  0.2677
  192MOL0     N25836   0.587   3.423   6.598 -0.0212  0.2029  0.0509
  192MOL0     N25837   0.614   3.534   6.660 -0.7396  1.0168 -0.7936
  192MOL0     C25838   0.493   4.087   6.992 -1.2888  0.7511  0.1715
  192MOL0     C25839   0.625   4.091   6.939  0.3704  0.7066 -0.8006
  192MOL0     C25840   1.016   4.183   6.796  0.7324 -0.3803 -0.1458
  192MOL0     C25841   1.015   4.094   6.684 -0.2069  0.5777  1.6019
  192MOL0     C25842   1.141   4.047   6.637 -0.0516  0.9639 -0.6793
  192MOL0     C25843   1.258   4.089   6.699  0.3623  0.2012 -0.0018
  192MOL0     O25844   1.381   4.048   6.666  0.0886  0.2956  0.3861
  192MOL0     C25845   1.380   3.902   6.683 -0.8689 -0.0511  0.4784
  192MOL0     C25846   1.527   3.840   6.673  0.1543  0.1022  0.5646
  192MOL0     C25847   1.584   3.853   6.821  0.3988  0.1318  0.5017
  192MOL0     C25848   1.634   3.992   6.853  0.8120  0.2731 -0.6043
  192MOL0     C25849   1.746   4.037   6.762 -0.6122  0.9265  0.1946
  192MOL0     C25850   1.827   4.083   6.685  0.1596 -0.2074 -0.2719
  192MOL0     C25851   1.250   4.187   6.796  0.2952  0.0460  0.1115
  192MOL0     C25852   1.128   4.236   6.844  0.4340 -0.3687 -0.5052
  192MOL0     H25853   0.571   4.318   6.701 -0.4068 -0.0892 -1.4129
  192MOL0     H25854   0.348   4.298   6.776 -0.6432 -0.9193  0.2717
  192MOL0     H25855   0.118   4.209   6.857 -0.5951 -0.3918 -1.1044
  192MOL0     H25856   0.174   4.058   6.795  0.9550  1.5226 -0.6703
  192MOL0     H25857  -0.021   4.087   7.027 -1.4587  1.6906 -0.8679
  192MOL0     H25858  -0.049   4.016   6.879 -3.3127  0.9128  3.3012
  192MOL0     H25859   0.163   3.930   7.094  1.8627 -2.8950 -1.5787
  192MOL0     H25860  -0.002   3.864   7.063 -0.8835  0.9032  0.5328
  192MOL0     H25861   0.081   3.753   6.872 -0.5823  0.1121  1.1312
  192MOL0     H25862   0.234   3.846   6.874 -0.9065 -0.0219 -2.2132
  192MOL0     H25863   0.257   3.761   7.107 -2.0097  2.4456 -0.3719
  192MOL0     H25864   0.143   3.627   7.075  0.7870 -0.3221  0.0661
  192MOL0     H25865   0.371   3.542   7.031  0.8865  2.8242  1.9988
  192MOL0     H25866   0.282   3.553   6.872  5.3238 -1.9096 -1.3063
  192MOL0     H25867   0.420   3.749   6.826 -0.7038  1.7617  0.3536
  192MOL0     H25868   0.474   3.768   6.991 -1.8881 -0.4884  0.8289
  192MOL0     H25869   0.608   3.563   6.981 -0.6461 -1.0438 -0.5678
  192MOL0     H25870   0.672   3.682   6.878  0.9063 -1.4209  0.1709
  192MOL0     H25871   0.464   3.353   6.883 -0.9643 -0.6390 -1.1064
  192MOL0     H25872   0.535   3.160   6.562  1.3796 -0.9527 -0.0356
  192MOL0     H25873   0.550   3.117   6.731 -0.7822 -0.4715  0.9208
  192MOL0     H25874   0.325   3.195   6.779  0.5710  0.5131  0.3729
  192MOL0     H25875   0.344   3.039   6.712  2.3504 -1.4302 -4.1063
  192MOL0     H25876   0.307   3.158   6.480 -1.9815 -2.3706  0.4882
  192MOL0     H25877   0.257   3.300   6.570 -2.5364 -0.1351  3.3242
  192MOL0     H25878   0.066   3.167   6.491 -1.1113  0.3625  1.3281
  192MOL0     H25879   0.086   3.163   6.674 -0.0873 -2.1395 -0.1253
  192MOL0     H25880   0.110   2.760   6.482 -0.4674 -0.5231 -4.3733
  192MOL0     H25881  -0.149   2.566   6.352  0.5334 -0.6365 -0.5472
  192MOL0     H25882   0.009   2.546   6.407 -0.4330  1.5340 -0.7568
  192MOL0     H25883  -0.114   2.510   6.529  0.7295  0.2600  0.5317
  192MOL0     H25884  -0.489   2.498   6.601 -0.6152 -0.3263  1.2469
  192MOL0     H25885  -0.705   2.388   6.550  0.2889  0.3200 -3.3105
  192MOL0     H25886  -0.910   2.355   6.641 -0.4627  0.9454  0.9965
  192MOL0     H25887  -1.016   2.490   6.689  0.0269  1.4300 -1.0706
  192MOL0     H25888  -1.085   2.309   6.451 -2.0316 -4.5567  1.0512
  192MOL0     H25889  -1.121   2.254   6.618 -1.6185  0.0511  0.1802
  192MOL0     H25890  -1.245   2.477   6.471 -1.6722  1.2505  1.1667
  192MOL0     H25891  -1.268   2.450   6.649  0.4028  2.0948 -0.3309
  192MOL0     H25892  -1.310   2.216   6.457  1.1368 -0.8642  0.1274
  192MOL0     H25893  -1.374   2.247   6.621 -3.6975 -1.4330 -0.6555
  192MOL0     H25894  -1.445   2.388   6.361  4.0369  2.0074  0.6636
  192MOL0     H25895  -1.494   2.454   6.522 -2.5659 -0.7827  1.4982
  192MOL0     H25896  -1.683   2.296   6.392  1.5531 -3.5557 -2.1044
  192MOL0     H25897  -1.569   2.172   6.440 -0.0901 -0.0995 -2.0482
  192MOL0     H25898  -1.723   2.370   6.628 -0.7813 -0.2057 -0.1126
  192MOL0     H25899  -1.601   2.262   6.684 -1.0692 -0.1538 -0.1484
  192MOL0     H25900  -1.888   2.182   6.581 -1.0616  0.7317 -0.0798
  192MOL0     H25901  -1.800   2.157   6.730 -1.5218  1.4696 -0.8634
  192MOL0     H25902  -0.892   2.776   6.524  0.0515  0.6978 -0.8182
  192MOL0     H25903  -0.682   2.869   6.588  2.5009 -0.4607  0.4017
  192MOL0     H25904  -0.333   2.962   6.547  0.7460 -0.6720  1.1655
  192MOL0     H25905  -0.127   3.097   6.593  3.3148 -0.1648  3.4310
  192MOL0     H25906   0.476   4.023   7.078  1.8539  0.7404  0.9006
  192MOL0     H25907   0.703   4.036   6.991 -1.2696 -2.5433 -1.5215
  192MOL0     H25908   0.923   4.077   6.628  0.9566  1.2721 -0.6095
  192MOL0     H25909   1.148   3.978   6.554 -1.7667  0.0244 -0.0980
  192MOL0     H25910   1.347   3.868   6.781  3.0291 -3.0246  0.9897
  192MOL0     H25911   1.320   3.858   6.603 -0.4729  0.1492  0.0668
  192MOL0     H25912   1.582   3.891   6.594  1.1063 -1.2427  0.3232
  192MOL0     H25913   1.532   3.734   6.647  0.9114  0.5375 -1.2082
  192MOL0     H25914   1.667   3.782   6.829  0.7649  0.5204  0.2232
  192MOL0     H25915   1.504   3.827   6.890 -4.4440  0.5280 -4.3339
  192MOL0     H25916   1.668   3.991   6.957 -0.8857 -3.3366  0.0889
  192MOL0     H25917   1.547   4.058   6.849  0.2899 -0.1792  1.6822
  192MOL0     H25918   1.913   4.127   6.639 -0.8320 -0.6117 -2.6406
  192MOL0     H25919   1.338   4.236   6.838 -0.7085  2.6193 -0.6019
  192MOL0     H25920   1.119   4.309   6.925  0.2914 -0.9717  0.0340
  193MOL0     O25921   9.828   3.908   5.301 -1.4426 -0.2489  0.8120
  193MOL0     C25922   9.888   3.944   5.403  0.4086 -0.1486  1.2072
  193MOL0     O25923   9.842   4.039   5.495 -0.6784  0.7471 -0.0224
  193MOL0     C25924   9.728   4.110   5.474  0.1954 -0.3786  0.7413
  193MOL0     C25925   9.643   4.135   5.580  0.2018 -0.2461 -0.7026
  193MOL0     C25926   9.527   4.204   5.558  0.4566 -0.6062  0.5292
  193MOL0     C25927   9.488   4.250   5.436  0.6157  0.0143 -0.2696
  193MOL0     O25928   9.360   4.318   5.423 -0.1758  0.0792  0.5718
  193MOL0     C25929   9.308   4.381   5.542  0.1737  0.0983  0.1662
  193MOL0     C25930   9.182   4.449   5.500  0.7853  0.5849  0.3106
  193MOL0     C25931   9.106   4.500   5.624  0.1578 -0.0835  0.0295
  193MOL0     C25932   8.973   4.556   5.570  0.0656 -0.0010 -0.6377
  193MOL0     C25933   8.876   4.612   5.676  0.0918  0.4637 -0.4830
  193MOL0     C25934   8.823   4.500   5.765 -0.1846 -0.1669 -0.3030
  193MOL0     C25935   8.730   4.563   5.870  0.7971 -0.2134 -0.1077
  193MOL0     C25936   8.595   4.584   5.816  0.6507  0.5138  0.6057
  193MOL0     N25937   8.514   4.631   5.924  0.0215 -1.6976 -0.6067
  193MOL0     C25938   8.455   4.577   6.039  0.8548  0.3560 -0.0663
  193MOL0     C25939   8.399   4.688   6.097 -0.2551 -0.3994  0.1872
  193MOL0     C25940   8.307   4.699   6.223 -0.2431  0.1210 -0.4865
  193MOL0     C25941   8.177   4.760   6.189  0.4901 -0.7513 -0.1697
  193MOL0     C25942   8.072   4.758   6.304  0.2934 -0.2215  0.3745
  193MOL0     C25943   7.930   4.799   6.255 -1.4241 -0.0423 -1.0048
  193MOL0     O25944   7.880   4.743   6.131 -0.2574 -0.9034  0.5925
  193MOL0     C25945   7.748   4.758   6.131 -1.4395  0.3549 -1.0042
  193MOL0     C25946   7.675   4.641   6.138 -0.2205 -0.2402  0.4492
  193MOL0     C25947   7.531   4.641   6.128 -0.3771 -0.9088  0.3639
  193MOL0     C25948   7.475   4.501   6.111  1.0151 -0.0536  0.0025
  193MOL0     C25949   7.462   4.765   6.124 -0.1418 -0.7776  0.7465
  193MOL0     C25950   7.310   4.788   6.127  0.3179  1.4182  0.7788
  193MOL0     O25951   7.275   4.916   6.131 -0.0394 -0.0359  0.1654
  193MOL0     C25952   7.141   4.943   6.155  0.1342 -0.2245  0.2607
  193MOL0     C25953   7.101   4.995   6.275 -0.0301  0.1027 -0.0247
  193MOL0     C25954   6.966   5.019   6.313  0.0009  0.6426 -0.1458
  193MOL0     C25955   6.867   5.010   6.213  0.0650  0.6517 -0.1682
  193MOL0     O25956   6.740   5.062   6.232 -0.5162  0.5108 -0.2178
  193MOL0     C25957   6.641   5.001   6.152  0.0735 -0.6481 -0.1558
  193MOL0     C25958   6.509   5.052   6.206  0.0418 -0.1927  0.0405
  193MOL0     C25959   6.384   4.990   6.144  0.6496  0.0368  0.8356
  193MOL0     C25960   6.265   5.087   6.161 -0.1597 -0.9364  0.4178
  193MOL0     C25961   6.129   5.022   6.112 -0.9967  0.8714  0.0114
  193MOL0     C25962   6.147   4.968   5.968  0.2060 -1.1400  0.0581
  193MOL0     C25963   6.005   4.954   5.895  0.8921  0.8308  0.3195
  193MOL0     C25964   5.916   5.071   5.872  0.2063  0.1211 -0.7379
  193MOL0    Cl25965   5.774   5.019   5.784  0.7699 -0.0553  0.2460
  193MOL0     C25966   6.914   4.963   6.086 -0.4855  1.1522 -0.0722
  193MOL0     C25967   7.045   4.927   6.056 -0.3081  0.2023  0.1558
  193MOL0     O25968   7.237   4.692   6.143 -0.3106  0.0365  0.4280
  193MOL0     C25969   7.543   4.884   6.117 -0.0177  0.6129  0.2609
  193MOL0     C25970   7.684   4.874   6.118 -0.1971 -0.6076  0.7982
  193MOL0     N25971   8.409   4.805   6.021 -0.5095 -0.0750  0.4914
  193MOL0     N25972   8.482   4.766   5.921 -0.4758 -0.4039 -0.3709
  193MOL0     C25973   9.570   4.223   5.328 -0.3113 -0.3116  0.0835
  193MOL0     C25974   9.690   4.156   5.342 -0.0495 -0.1903  0.0506
  193MOL0     C25975  10.009   3.877   5.437 -0.6643 -0.7961 -0.1616
  193MOL0     C25976  10.075   3.794   5.345 -0.0451  0.1054  0.5865
  193MOL0     C25977  10.181   3.716   5.387  0.2515  0.4897  0.5123
  193MOL0     C25978  10.236   3.731   5.511 -0.1708  0.3521  0.7656
  193MOL0     O25979  10.345   3.650   5.551  0.0489 -0.0251  0.3158
  193MOL0     C25980  10.467   3.719   5.567 -0.7777  0.3962  0.4335
  193MOL0     C25981  10.513   3.759   5.437 -0.3965 -0.2686 -0.4846
  193MOL0     C25982  10.668   3.810   5.427  0.9229  0.3932 -1.0079
  193MOL0     C25983  10.731   3.756   5.295  0.6471  0.6461 -0.5987
  193MOL0     C25984  10.661   3.793   5.172  1.0025  0.0181  0.1617
  193MOL0     C25985  10.619   3.819   5.062  0.0318 -0.1685 -1.1692
  193MOL0     C25986  10.172   3.816   5.604  0.1082 -0.7130 -0.1010
  193MOL0     C25987  10.064   3.892   5.567  0.0219  0.3602 -0.2737
  193MOL0     H25988   9.662   4.093   5.678 -1.3862  0.1735 -0.1824
  193MOL0     H25989   9.461   4.215   5.644  2.3983 -0.9728  2.1479
  193MOL0     H25990   9.277   4.308   5.617  0.5159  0.6790  0.8858
  193MOL0     H25991   9.379   4.451   5.586  1.9753 -2.0460  0.8313
  193MOL0     H25992   9.194   4.528   5.424  1.5580 -2.4238 -2.9942
  193MOL0     H25993   9.123   4.380   5.440  1.1062  0.9209 -0.4148
  193MOL0     H25994   9.092   4.421   5.698  1.8439  2.0583  2.8501
  193MOL0     H25995   9.160   4.580   5.675 -0.3391 -0.2885  0.8808
  193MOL0     H25996   9.011   4.639   5.510 -0.7693 -0.3167 -1.6414
  193MOL0     H25997   8.926   4.486   5.501  2.9464  0.2494 -3.0394
  193MOL0     H25998   8.917   4.692   5.738  0.8570 -1.2940  1.3824
  193MOL0     H25999   8.783   4.649   5.630 -1.2128 -0.9567  0.8979
  193MOL0     H26000   8.760   4.425   5.717  0.2078 -0.2920 -0.6286
  193MOL0     H26001   8.912   4.457   5.811  0.5602  3.2260  1.8584
  193MOL0     H26002   8.723   4.503   5.962 -2.4244  1.0579  0.6185
  193MOL0     H26003   8.775   4.656   5.907  2.6755 -1.1596  0.0927
  193MOL0     H26004   8.557   4.486   5.788  0.2993  0.8046  0.0405
  193MOL0     H26005   8.604   4.659   5.736  3.8795  0.4944  0.7871
  193MOL0     H26006   8.449   4.475   6.077 -3.2489  0.8507  1.0857
  193MOL0     H26007   8.282   4.602   6.266 -3.1264  0.3959 -1.3503
  193MOL0     H26008   8.349   4.745   6.313 -2.9741  0.0442  0.9301
  193MOL0     H26009   8.134   4.713   6.101  0.0069 -0.8136  0.0957
  193MOL0     H26010   8.185   4.867   6.168 -1.4684 -0.2387  1.4039
  193MOL0     H26011   8.101   4.825   6.386  1.4475 -0.2774  0.0329
  193MOL0     H26012   8.063   4.660   6.353  0.5324  0.6517  2.2597
  193MOL0     H26013   7.935   4.907   6.244  1.3149  0.1698  0.9880
  193MOL0     H26014   7.864   4.772   6.338  2.3717 -0.7486  2.1272
  193MOL0     H26015   7.731   4.548   6.142 -0.6123 -0.4603  1.1091
  193MOL0     H26016   7.535   4.440   6.044 -0.1935 -0.2073 -0.9646
  193MOL0     H26017   7.489   4.442   6.202 -2.2800 -2.2837 -0.7816
  193MOL0     H26018   7.374   4.489   6.072  1.2303 -3.6171  0.2457
  193MOL0     H26019   7.174   4.996   6.355  0.2470  2.2582 -0.2484
  193MOL0     H26020   6.940   5.049   6.414 -0.8431  2.4363 -0.8609
  193MOL0     H26021   6.640   5.025   6.045  0.3327 -0.6261 -0.1527
  193MOL0     H26022   6.646   4.892   6.160 -0.1410 -0.5382  1.9507
  193MOL0     H26023   6.507   5.035   6.314  1.1881  0.0885  0.1255
  193MOL0     H26024   6.504   5.159   6.182  1.1534 -0.0764  0.2335
  193MOL0     H26025   6.376   4.896   6.200  1.7429 -0.7338 -0.2476
  193MOL0     H26026   6.405   4.967   6.039 -1.0527 -1.8446  0.8542
  193MOL0     H26027   6.252   5.130   6.261 -2.6328  0.8337 -0.5617
  193MOL0     H26028   6.289   5.172   6.096 -0.0161 -1.3370 -0.0544
  193MOL0     H26029   6.049   5.097   6.104 -1.1678  0.6833 -0.0502
  193MOL0     H26030   6.098   4.951   6.189 -2.1240  0.9489 -0.3478
  193MOL0     H26031   6.217   5.025   5.906 -0.8641 -1.9480 -2.0099
  193MOL0     H26032   6.190   4.870   5.987  1.3775 -0.0482  3.9554
  193MOL0     H26033   5.950   4.883   5.957  2.5964  0.3966  1.4146
  193MOL0     H26034   6.038   4.919   5.796 -0.5844  0.1843  0.0236
  193MOL0     H26035   5.972   5.144   5.812  0.5942  0.4668  0.0356
  193MOL0     H26036   5.898   5.111   5.972  0.4380 -1.1059 -0.1921
  193MOL0     H26037   6.837   4.941   6.012 -1.0763  1.1986  0.5174
  193MOL0     H26038   7.066   4.899   5.953 -0.7841  0.0098  0.1048
  193MOL0     H26039   7.504   4.985   6.117 -1.1388  0.2150  1.4474
  193MOL0     H26040   7.743   4.965   6.123  3.1887 -2.6581  1.2178
  193MOL0     H26041   9.531   4.246   5.230  0.6067 -0.6259 -0.3681
  193MOL0     H26042   9.741   4.116   5.255 -1.9571 -1.9039 -0.3543
  193MOL0     H26043  10.030   3.779   5.247 -3.1326 -0.4901  1.9692
  193MOL0     H26044  10.220   3.645   5.315 -1.6263  0.4564 -0.5246
  193MOL0     H26045  10.466   3.809   5.629  2.7517  1.2612 -0.5271
  193MOL0     H26046  10.541   3.651   5.609  0.3174  0.5519 -1.1537
  193MOL0     H26047  10.454   3.847   5.410 -0.6671  0.0758  1.1373
  193MOL0     H26048  10.496   3.690   5.353  0.8882  2.3975 -3.1376
  193MOL0     H26049  10.723   3.775   5.515 -4.3157  0.4759  2.7908
  193MOL0     H26050  10.663   3.920   5.430 -0.8867  0.3055  0.8595
  193MOL0     H26051  10.750   3.649   5.288 -1.5169  0.0354  1.5916
  193MOL0     H26052  10.828   3.807   5.299  0.8885  0.3017 -1.6382
  193MOL0     H26053  10.575   3.846   4.969 -2.2049 -1.9311 -0.6888
  193MOL0     H26054  10.204   3.817   5.708  3.2783 -0.0279 -0.9622
  193MOL0     H26055  10.030   3.957   5.647 -0.3999  0.0300 -0.1815
  194MOL0     O26056   4.826   1.913   0.802 -0.6361 -0.0240  0.4993
  194MOL0     C26057   4.823   1.819   0.882  0.9982  0.2143  0.3657
  194MOL0     O26058   4.933   1.739   0.932  0.6275  0.3353  0.4488
  194MOL0     C26059   5.058   1.775   0.890 -0.7532 -0.0249  1.1114
  194MOL0     C26060   5.164   1.752   0.986 -0.6210  1.0554  0.6526
  194MOL0     C26061   5.291   1.730   0.939  0.4991 -0.1898  0.2440
  194MOL0     C26062   5.337   1.758   0.805  0.2062 -0.3633  1.2301
  194MOL0     O26063   5.469   1.749   0.770  1.0874 -0.6240 -0.7204
  194MOL0     C26064   5.509   1.841   0.666 -0.6562 -0.3602 -0.1886
  194MOL0     C26065   5.642   1.906   0.706 -0.3438  0.4908 -0.0014
  194MOL0     C26066   5.717   1.976   0.595 -0.1396  0.2041  0.2238
  194MOL0     C26067   5.857   2.014   0.638 -0.4368  0.3193  0.4836
  194MOL0     C26068   5.926   2.118   0.545  0.1434 -0.8699  0.2307
  194MOL0     C26069   6.051   2.183   0.603 -0.1978 -1.2677 -0.5356
  194MOL0     C26070   6.124   2.282   0.505 -0.0033  0.2210 -0.4432
  194MOL0     C26071   6.242   2.210   0.447  0.4089 -0.8433 -0.5236
  194MOL0     N26072   6.311   2.301   0.352  0.3246  0.2334  0.1985
  194MOL0     C26073   6.436   2.345   0.363 -0.3638 -0.3932 -0.7819
  194MOL0     C26074   6.450   2.445   0.272  0.4355  0.5375  0.7613
  194MOL0     C26075   6.582   2.525   0.247 -0.2031  0.3620  0.3575
  194MOL0     C26076   6.574   2.677   0.286  0.1500 -0.4041  0.5567
  194MOL0     C26077   6.493   2.705   0.415  0.1429 -1.0994 -0.1322
  194MOL0     C26078   6.389   2.815   0.397  0.3110  0.6452  0.6228
  194MOL0     O26079   6.458   2.936   0.405 -0.0447 -0.4571  0.3158
  194MOL0     C26080   6.437   3.046   0.482 -0.1437  0.0441 -0.5546
  194MOL0     C26081   6.538   3.136   0.484 -0.3535  0.1509 -0.0100
  194MOL0     C26082   6.543   3.248   0.563 -0.3250 -0.4911 -0.5067
  194MOL0     C26083   6.665   3.336   0.564  0.2357  0.3276  0.4963
  194MOL0     C26084   6.414   3.287   0.612  0.4671  0.4308  0.0088
  194MOL0     C26085   6.392   3.433   0.647  0.1677  0.8401 -0.1646
  194MOL0     O26086   6.309   3.465   0.752 -0.0967  0.0383  0.5345
  194MOL0     C26087   6.255   3.589   0.754 -0.4440  0.9748 -0.7064
  194MOL0     C26088   6.117   3.604   0.764  0.1584  0.2930  1.0624
  194MOL0     C26089   6.060   3.729   0.788 -0.3093 -0.3294 -1.0151
  194MOL0     C26090   6.145   3.845   0.788  0.0286 -0.2056 -0.8456
  194MOL0     O26091   6.079   3.958   0.814 -0.9114 -0.0816  0.6741
  194MOL0     C26092   6.084   4.054   0.709 -0.1928 -0.0233 -0.2006
  194MOL0     C26093   5.967   4.023   0.608 -0.2723 -0.9997 -0.0520
  194MOL0     C26094   5.963   4.129   0.497  0.0270 -0.1471  0.2976
  194MOL0     C26095   5.895   4.263   0.523 -0.9597  0.1874 -0.1717
  194MOL0     C26096   5.910   4.368   0.412  0.2208 -0.6647 -0.1866
  194MOL0     C26097   6.052   4.425   0.392  0.3722 -0.2381  0.2881
  194MOL0     C26098   6.037   4.517   0.268 -0.1172 -0.1379 -0.1737
  194MOL0     C26099   6.157   4.594   0.245 -0.0321 -0.9008 -0.4935
  194MOL0    Cl26100   6.292   4.481   0.209  0.0227 -0.0583  0.1354
  194MOL0     C26101   6.283   3.830   0.786  0.7996  0.5223 -0.7455
  194MOL0     C26102   6.340   3.706   0.762  0.6451  0.9452  0.1007
  194MOL0     O26103   6.425   3.515   0.564 -0.1483  0.0561 -0.0763
  194MOL0     C26104   6.304   3.201   0.595  0.1585  0.5834 -0.7038
  194MOL0     C26105   6.310   3.078   0.537 -0.5229  0.6782  0.5820
  194MOL0     N26106   6.334   2.453   0.199  0.4821  0.4312  0.3085
  194MOL0     N26107   6.256   2.365   0.247  0.7626 -0.1223 -0.2724
  194MOL0     C26108   5.230   1.778   0.715  0.1830 -1.0890  0.1539
  194MOL0     C26109   5.096   1.786   0.753  0.4830  0.0331 -0.3405
  194MOL0     C26110   4.690   1.782   0.937 -0.4641  0.8597  0.1208
  194MOL0     C26111   4.682   1.676   1.034  0.1262 -0.0714  0.2137
  194MOL0     C26112   4.558   1.646   1.089  0.0007  0.4945  0.0798
  194MOL0     C26113   4.441   1.702   1.045 -0.0081 -0.5007 -0.1717
  194MOL0     O26114   4.313   1.668   1.085  0.0593 -0.6426  0.0469
  194MOL0     C26115   4.295   1.590   1.200 -0.1417 -0.6353 -0.5767
  194MOL0     C26116   4.338   1.672   1.322  0.3414  0.9842 -0.4277
  194MOL0     C26117   4.273   1.620   1.444  0.6113  0.0948 -0.1888
  194MOL0     C26118   4.332   1.684   1.570 -0.7087  0.1673 -0.1033
  194MOL0     C26119   4.283   1.622   1.693 -1.0054  0.4382 -0.3037
  194MOL0     C26120   4.253   1.572   1.797 -0.2668  0.7493 -0.1345
  194MOL0     C26121   4.455   1.798   0.948 -0.2329 -0.6444  0.5397
  194MOL0     C26122   4.581   1.841   0.896  0.6890  0.2311  0.1018
  194MOL0     H26123   5.153   1.731   1.092 -2.2865 -1.6763  0.0332
  194MOL0     H26124   5.369   1.705   1.010  2.0965  0.2038 -1.3043
  194MOL0     H26125   5.524   1.773   0.581  3.7281 -1.2489  1.0543
  194MOL0     H26126   5.426   1.910   0.646 -0.5352 -0.1083  0.1798
  194MOL0     H26127   5.622   1.971   0.792  1.3855 -1.9685  2.4454
  194MOL0     H26128   5.703   1.828   0.754 -0.5757  0.7676  0.7702
  194MOL0     H26129   5.736   1.906   0.513  2.2508  1.6613 -0.5887
  194MOL0     H26130   5.667   2.062   0.549 -0.8293  0.7508  1.8993
  194MOL0     H26131   5.860   2.056   0.740  0.2847  1.5743 -0.0254
  194MOL0     H26132   5.920   1.925   0.628 -1.0665 -0.7173  4.1555
  194MOL0     H26133   5.956   2.063   0.456  1.9484  0.4375 -0.0259
  194MOL0     H26134   5.861   2.195   0.500  0.8642 -1.3360 -1.7378
  194MOL0     H26135   6.023   2.249   0.686 -1.1975 -2.5740  0.1844
  194MOL0     H26136   6.120   2.101   0.627  0.5081 -1.4911 -3.0148
  194MOL0     H26137   6.057   2.301   0.421 -0.5442  0.4014  0.0305
  194MOL0     H26138   6.158   2.379   0.542  1.8253 -0.7721  0.6578
  194MOL0     H26139   6.216   2.120   0.391 -0.1486  1.1390 -3.7465
  194MOL0     H26140   6.317   2.194   0.525  0.8258 -0.5065 -0.8484
  194MOL0     H26141   6.512   2.302   0.428 -1.0535 -0.9050 -0.3081
  194MOL0     H26142   6.666   2.474   0.295  0.0511 -2.1786 -2.4797
  194MOL0     H26143   6.604   2.518   0.140  1.4142  0.5256  0.6591
  194MOL0     H26144   6.536   2.743   0.208  0.1985 -1.0543 -0.0266
  194MOL0     H26145   6.680   2.704   0.298  0.0450 -0.1399  0.8889
  194MOL0     H26146   6.567   2.721   0.494 -1.3541 -0.1083  1.1015
  194MOL0     H26147   6.443   2.616   0.455  0.9840 -1.1768  0.8074
  194MOL0     H26148   6.315   2.815   0.477 -0.3011 -0.6520  0.0924
  194MOL0     H26149   6.323   2.806   0.310  0.5461  1.0237  0.4029
  194MOL0     H26150   6.634   3.100   0.448 -2.0097 -0.0110 -5.0395
  194MOL0     H26151   6.660   3.406   0.648  2.7774  1.1504  0.0513
  194MOL0     H26152   6.756   3.278   0.584  0.0850  0.4914  1.7498
  194MOL0     H26153   6.673   3.391   0.470 -3.1823 -1.8401 -1.2743
  194MOL0     H26154   6.053   3.517   0.760  1.5408 -0.6987 -1.0893
  194MOL0     H26155   5.953   3.747   0.797 -0.5310 -2.0197  0.3227
  194MOL0     H26156   6.058   4.150   0.754  3.0331 -0.0605  2.0502
  194MOL0     H26157   6.182   4.070   0.664 -0.0152  3.2823  1.1151
  194MOL0     H26158   5.982   3.925   0.563  2.8016 -1.3507  1.4242
  194MOL0     H26159   5.869   4.027   0.656  0.4356  0.8424  1.4042
  194MOL0     H26160   5.917   4.077   0.413  0.4922 -1.4748  0.8420
  194MOL0     H26161   6.065   4.146   0.463 -0.0048 -0.7529 -0.1001
  194MOL0     H26162   5.789   4.246   0.540 -0.5099 -1.7014  1.0081
  194MOL0     H26163   5.933   4.316   0.610  1.9479  0.8465 -1.7007
  194MOL0     H26164   5.834   4.444   0.431 -0.3091 -1.9842  4.0609
  194MOL0     H26165   5.881   4.314   0.321  0.5594 -0.0555 -0.6669
  194MOL0     H26166   6.085   4.481   0.481  1.0397 -1.6253  0.9468
  194MOL0     H26167   6.118   4.344   0.361  0.6066  0.4848 -1.1812
  194MOL0     H26168   5.943   4.572   0.269 -0.6757 -1.0734  0.0568
  194MOL0     H26169   6.026   4.455   0.179  1.0337  1.4704 -1.4912
  194MOL0     H26170   6.183   4.662   0.327  0.2437 -0.6840 -0.7566
  194MOL0     H26171   6.152   4.658   0.156 -0.9539  0.6543  0.6192
  194MOL0     H26172   6.342   3.915   0.816 -1.7416  1.0721  3.5584
  194MOL0     H26173   6.448   3.708   0.745  0.7737 -4.6141 -2.0772
  194MOL0     H26174   6.210   3.229   0.641 -1.4615 -4.0904 -0.5895
  194MOL0     H26175   6.236   3.002   0.515  1.5433 -1.2562 -0.1805
  194MOL0     H26176   5.251   1.778   0.609 -1.7438  1.3435 -0.3213
  194MOL0     H26177   5.012   1.795   0.686 -0.0921  3.0638  0.6282
  194MOL0     H26178   4.763   1.611   1.068  0.5296  1.5567  2.5297
  194MOL0     H26179   4.554   1.565   1.162 -0.2595  0.3203 -0.1254
  194MOL0     H26180   4.191   1.563   1.220  0.0203 -1.2183 -0.5041
  194MOL0     H26181   4.360   1.502   1.202  1.1784  0.2851  1.8130
  194MOL0     H26182   4.316   1.778   1.305  0.9034  0.8448 -2.2816
  194MOL0     H26183   4.446   1.659   1.328  0.0236 -1.4538  1.8053
  194MOL0     H26184   4.277   1.511   1.445 -0.6601  0.0154 -1.1481
  194MOL0     H26185   4.171   1.659   1.431 -0.2625 -0.8094  2.9948
  194MOL0     H26186   4.312   1.791   1.578  2.7477  0.8740  1.1078
  194MOL0     H26187   4.441   1.685   1.559 -0.6643 -0.1461  0.2962
  194MOL0     H26188   4.222   1.508   1.877  2.0468 -0.8544 -0.4243
  194MOL0     H26189   4.364   1.838   0.905  0.1413  0.6542  0.9065
  194MOL0     H26190   4.585   1.927   0.829  0.0720 -0.7194 -1.2058
  195MOL0     O26191   3.295   1.436   4.825  0.3528 -0.5555  0.7069
  195MOL0     C26192   3.327   1.547   4.865  0.1132 -0.0379  0.1980
  195MOL0     O26193   3.252   1.636   4.942 -0.2494  0.5383  0.3155
  195MOL0     C26194   3.142   1.590   4.994  0.3461  0.6513 -0.1440
  195MOL0     C26195   3.022   1.593   4.913 -0.0400 -0.7548  0.2891
  195MOL0     C26196   2.896   1.590   4.974 -0.3263  0.3189  0.3138
  195MOL0     C26197   2.891   1.588   5.108  0.4441  0.1152 -0.0078
  195MOL0     O26198   2.765   1.579   5.166 -0.5579 -0.2386 -0.0837
  195MOL0     C26199   2.733   1.682   5.262 -0.9209  0.7003 -1.1015
  195MOL0     C26200   2.583   1.670   5.292  0.9559  0.2630 -0.6732
  195MOL0     C26201   2.522   1.805   5.331  0.7383  0.8134 -0.5118
  195MOL0     C26202   2.368   1.789   5.350 -0.7590  0.3288  0.1322
  195MOL0     C26203   2.296   1.761   5.213 -1.1586 -0.5350 -0.7393
  195MOL0     C26204   2.155   1.717   5.231  0.3755 -0.7008 -0.5829
  195MOL0     C26205   2.098   1.672   5.096 -0.5139 -0.0492 -0.6088
  195MOL0     C26206   2.127   1.522   5.077 -0.3796 -0.6189  0.2191
  195MOL0     N26207   2.094   1.492   4.939  0.0321 -0.6297 -0.8753
  195MOL0     C26208   1.978   1.459   4.878  0.7491 -0.1477  0.7410
  195MOL0     C26209   1.992   1.476   4.742 -1.2180  0.9255 -0.7412
  195MOL0     C26210   1.888   1.437   4.637 -0.2777 -0.4513 -0.4250
  195MOL0     C26211   1.802   1.559   4.609  0.6591  0.9340  1.0559
  195MOL0     C26212   1.700   1.535   4.496 -0.0066  0.1980 -0.8067
  195MOL0     C26213   1.572   1.620   4.493 -0.0241  0.5387  0.3359
  195MOL0     O26214   1.619   1.751   4.492 -0.4550 -0.7981  0.4278
  195MOL0     C26215   1.522   1.850   4.467 -0.1066  0.8798 -0.4438
  195MOL0     C26216   1.386   1.830   4.443 -0.6805 -0.2515 -0.7860
  195MOL0     C26217   1.294   1.935   4.426 -0.6250 -0.3731  0.0699
  195MOL0     C26218   1.158   1.885   4.394 -0.6410  0.5806 -0.5048
  195MOL0     C26219   1.335   2.069   4.445 -0.1764  0.6640 -0.1972
  195MOL0     C26220   1.239   2.184   4.425 -0.3290 -0.5029 -0.2440
  195MOL0     O26221   1.130   2.177   4.339 -0.6274  0.2054  1.1234
  195MOL0     C26222   1.039   2.271   4.350  0.7356  0.1351 -0.8735
  195MOL0     C26223   0.958   2.279   4.470  0.5288 -0.3841 -1.0971
  195MOL0     C26224   0.856   2.376   4.469  1.1195 -0.3077 -1.1031
  195MOL0     C26225   0.835   2.473   4.370  0.2527  0.3921  0.6377
  195MOL0     O26226   0.732   2.567   4.368 -0.8608 -0.3931 -0.5774
  195MOL0     C26227   0.773   2.699   4.329  1.0814 -0.3301 -0.1172
  195MOL0     C26228   0.714   2.755   4.202 -0.0043 -0.6068  0.0205
  195MOL0     C26229   0.558   2.741   4.203  1.1399 -0.4216  0.1225
  195MOL0     C26230   0.511   2.619   4.132  0.2575 -0.3723 -0.1428
  195MOL0     C26231   0.359   2.593   4.157  0.1877  0.2426  0.7512
  195MOL0     C26232   0.311   2.491   4.055 -0.0606  0.4245  0.0780
  195MOL0     C26233   0.174   2.430   4.069  0.4322  0.4322 -0.8066
  195MOL0     C26234   0.160   2.333   4.181  1.1847  0.9865 -0.5916
  195MOL0    Cl26235   0.015   2.227   4.177  0.5611  0.1799 -0.3800
  195MOL0     C26236   0.922   2.465   4.260  0.4776  0.7741 -0.2854
  195MOL0     C26237   1.025   2.363   4.248  0.4666  0.4182 -0.6980
  195MOL0     O26238   1.272   2.285   4.493  0.4528 -0.4394  0.8534
  195MOL0     C26239   1.473   2.084   4.483  0.6124 -0.1251  0.1818
  195MOL0     C26240   1.560   1.980   4.495  0.0968 -0.1980  0.0691
  195MOL0     N26241   2.124   1.516   4.722  0.1940  0.4962  0.4200
  195MOL0     N26242   2.185   1.516   4.843  0.7020  0.0134  0.8361
  195MOL0     C26243   3.011   1.566   5.188  1.1483  0.2625 -0.1845
  195MOL0     C26244   3.136   1.579   5.136  0.3821  0.1074 -0.1458
  195MOL0     C26245   3.455   1.603   4.829 -0.3739  0.0827  0.3826
  195MOL0     C26246   3.547   1.518   4.763 -0.3400 -0.1070  0.1683
  195MOL0     C26247   3.666   1.572   4.702 -0.4495  0.2248 -0.7259
  195MOL0     C26248   3.698   1.701   4.721 -0.7287 -0.2297  0.2473
  195MOL0     O26249   3.812   1.751   4.662 -1.1254  0.1492 -0.6095
  195MOL0     C26250   3.824   1.896   4.658 -0.6310  0.5879 -0.3026
  195MOL0     C26251   3.958   1.924   4.604  0.3353  0.3458  0.2454
  195MOL0     C26252   3.962   2.068   4.567 -0.1768  0.8372 -0.0435
  195MOL0     C26253   3.894   2.102   4.433  0.8733  0.1288  0.5525
  195MOL0     C26254   3.959   2.041   4.317  0.0019 -0.7809 -0.7373
  195MOL0     C26255   4.014   1.996   4.221  0.2938 -0.5835 -0.2080
  195MOL0     C26256   3.604   1.783   4.787 -0.7354 -0.4612  1.0465
  195MOL0     C26257   3.485   1.741   4.835  0.4640  0.1204  0.1400
  195MOL0     H26258   3.028   1.596   4.805 -1.0414  0.2148  0.2396
  195MOL0     H26259   2.808   1.589   4.910 -1.0020  0.3969  1.2242
  195MOL0     H26260   2.787   1.664   5.355 -2.6469  1.3397  0.0687
  195MOL0     H26261   2.768   1.784   5.244  0.7072  0.0372 -1.9685
  195MOL0     H26262   2.542   1.635   5.197  3.0793 -3.0493 -0.5276
  195MOL0     H26263   2.555   1.601   5.372 -0.5456  0.9287 -0.5796
  195MOL0     H26264   2.564   1.830   5.429 -1.9287 -2.6970  1.7490
  195MOL0     H26265   2.543   1.881   5.255  1.2653  1.7868  0.5645
  195MOL0     H26266   2.342   1.708   5.419  1.3853 -1.3148 -0.8734
  195MOL0     H26267   2.328   1.881   5.393 -0.2169  0.1967  0.9397
  195MOL0     H26268   2.304   1.858   5.164  0.3480  0.1270  0.7229
  195MOL0     H26269   2.353   1.687   5.156  1.0397 -0.0565  0.7045
  195MOL0     H26270   2.132   1.640   5.305 -1.5189 -0.7452 -1.1815
  195MOL0     H26271   2.087   1.799   5.255  0.4179 -0.7033 -0.4525
  195MOL0     H26272   1.991   1.693   5.087 -1.1287 -2.7157 -0.1870
  195MOL0     H26273   2.153   1.730   5.021  1.0800 -1.7816 -0.8563
  195MOL0     H26274   2.077   1.463   5.155 -3.8512  0.2973 -1.1286
  195MOL0     H26275   2.235   1.503   5.083  0.4290  2.8075 -1.3260
  195MOL0     H26276   1.882   1.428   4.916  1.8557 -2.3129  1.9322
  195MOL0     H26277   1.940   1.406   4.547 -0.5506  1.2679 -1.2166
  195MOL0     H26278   1.831   1.347   4.664 -2.6030  0.1019 -3.0318
  195MOL0     H26279   1.868   1.642   4.582  0.9902  1.1257  2.3900
  195MOL0     H26280   1.744   1.587   4.697 -4.0516 -1.3822 -0.9334
  195MOL0     H26281   1.669   1.432   4.515  1.1886 -0.1663 -0.7681
  195MOL0     H26282   1.755   1.541   4.402  0.7998  1.1642 -0.2945
  195MOL0     H26283   1.498   1.597   4.570  1.4798  0.7068  1.8803
  195MOL0     H26284   1.518   1.606   4.398 -2.0686 -0.7181  1.5978
  195MOL0     H26285   1.346   1.731   4.422  1.2450 -0.7944 -2.1589
  195MOL0     H26286   1.096   1.910   4.481 -0.6320 -1.6452  0.1891
  195MOL0     H26287   1.119   1.919   4.298  1.3479  2.5307 -0.6944
  195MOL0     H26288   1.155   1.776   4.385 -0.0653  0.1774  2.9086
  195MOL0     H26289   0.947   2.215   4.558 -1.7931  2.7369  1.1019
  195MOL0     H26290   0.780   2.362   4.545  0.8790 -2.5301 -1.6605
  195MOL0     H26291   0.729   2.755   4.412 -0.3096 -4.2662  2.0876
  195MOL0     H26292   0.882   2.712   4.321  1.2147 -0.8218  0.7097
  195MOL0     H26293   0.725   2.864   4.205  1.0282 -0.7240  1.3565
  195MOL0     H26294   0.764   2.716   4.112 -3.6418 -0.5481 -2.2183
  195MOL0     H26295   0.506   2.826   4.160  1.1941 -0.8891 -0.8998
  195MOL0     H26296   0.523   2.734   4.306  2.1288  2.0431  0.6846
  195MOL0     H26297   0.535   2.637   4.027 -1.2292  3.0015 -0.0119
  195MOL0     H26298   0.571   2.531   4.157 -0.4260 -0.2935  1.9707
  195MOL0     H26299   0.302   2.686   4.150 -1.2146 -0.4467  2.2761
  195MOL0     H26300   0.342   2.542   4.252  3.1650 -0.1529  1.1534
  195MOL0     H26301   0.310   2.542   3.958 -1.8527  0.4825  0.1018
  195MOL0     H26302   0.387   2.413   4.052 -0.8561 -0.3385 -1.3221
  195MOL0     H26303   0.165   2.371   3.978  0.8913 -1.2765  0.2224
  195MOL0     H26304   0.093   2.504   4.073  0.4189  0.5162 -2.2517
  195MOL0     H26305   0.163   2.382   4.278  1.4039 -0.2904  0.0695
  195MOL0     H26306   0.251   2.273   4.192  0.4088 -0.0169  0.5680
  195MOL0     H26307   0.917   2.535   4.176 -2.0218  1.4270  0.3339
  195MOL0     H26308   1.087   2.348   4.160  0.0755  0.9843 -1.0763
  195MOL0     H26309   1.509   2.182   4.514 -1.7715  0.2592  2.0770
  195MOL0     H26310   1.662   2.007   4.521 -0.3142 -0.8324  2.6562
  195MOL0     H26311   2.996   1.532   5.290 -1.5140 -2.0987 -1.2478
  195MOL0     H26312   3.222   1.579   5.203  0.7824 -0.1164 -0.6585
  195MOL0     H26313   3.531   1.412   4.748  0.4223 -1.0154  4.5223
  195MOL0     H26314   3.739   1.500   4.664 -1.3535  0.0813 -2.3012
  195MOL0     H26315   3.748   1.940   4.593  1.0961  2.3072 -1.2667
  195MOL0     H26316   3.812   1.945   4.755 -1.6902  1.1738 -0.7168
  195MOL0     H26317   3.980   1.863   4.516 -2.7129 -0.2479 -0.2014
  195MOL0     H26318   4.034   1.908   4.682 -0.5122  1.1444  1.2687
  195MOL0     H26319   4.067   2.096   4.557 -0.0392  0.1123 -0.7067
  195MOL0     H26320   3.922   2.140   4.639 -2.1633  0.0825 -0.3324
  195MOL0     H26321   3.900   2.211   4.428  3.9863 -0.0264 -1.4474
  195MOL0     H26322   3.790   2.070   4.417  0.8688  0.8466 -1.0396
  195MOL0     H26323   4.055   1.966   4.127 -0.1429 -0.6967 -0.3648
  195MOL0     H26324   3.612   1.891   4.796 -0.0772 -0.3562 -0.4808
  195MOL0     H26325   3.410   1.809   4.873 -0.2362 -0.5199 -0.0760
  196MOL0     O26326  10.904   4.105   1.873  0.0129 -0.2898 -0.2488
  196MOL0     C26327  10.917   4.223   1.864 -0.0021 -0.0194  0.6721
  196MOL0     O26328  10.924   4.294   1.749 -0.0725 -0.2515 -0.0953
  196MOL0     C26329  10.948   4.223   1.632 -0.1895 -1.3632 -0.3381
  196MOL0     C26330  10.841   4.165   1.571 -0.5492  0.3045 -0.2337
  196MOL0     C26331  10.852   4.086   1.454 -0.0406  0.1523  0.5208
  196MOL0     C26332  10.977   4.062   1.400  0.1383 -0.7755 -0.1939
  196MOL0     O26333  10.972   3.980   1.294 -0.1939  0.1801 -0.0612
  196MOL0     C26334  11.094   3.922   1.239  0.0335 -0.1651  0.1090
  196MOL0     C26335  11.050   3.837   1.122 -0.2896  0.3034 -0.1319
  196MOL0     C26336  10.942   3.727   1.163  0.4006  0.6050 -0.3175
  196MOL0     C26337  10.889   3.656   1.044 -0.2305  0.1552  0.4554
  196MOL0     C26338  10.751   3.590   1.061 -0.7866 -0.6194 -0.0630
  196MOL0     C26339  10.731   3.483   1.166  0.1102 -0.2522  0.7734
  196MOL0     C26340  10.602   3.401   1.130 -1.4721  0.6181  0.3311
  196MOL0     C26341  10.565   3.308   1.241 -0.7746  0.2403 -0.8813
  196MOL0     N26342  10.454   3.221   1.198  0.2033 -0.4184 -0.3806
  196MOL0     C26343  10.487   3.085   1.168 -1.5342  0.1623  0.9221
  196MOL0     C26344  10.367   3.013   1.173  0.2316  0.3223 -0.2000
  196MOL0     C26345  10.351   2.872   1.123  0.0389  0.1502 -0.1288
  196MOL0     C26346  10.277   2.793   1.229 -0.2127 -0.2663 -0.3089
  196MOL0     C26347  10.330   2.647   1.222  0.5481  0.2847  0.2906
  196MOL0     C26348  10.237   2.534   1.266  0.3290 -0.3752 -1.0670
  196MOL0     O26349  10.168   2.586   1.388  0.2496  0.5962  0.2668
  196MOL0     C26350  10.053   2.523   1.426  0.7322 -0.1813 -0.2217
  196MOL0     C26351  10.002   2.571   1.543  0.3479  0.1279 -0.8994
  196MOL0     C26352   9.875   2.527   1.591  0.5017  0.2408 -0.3614
  196MOL0     C26353   9.819   2.580   1.714 -0.3548  0.7581 -0.1100
  196MOL0     C26354   9.804   2.424   1.516  0.0860 -0.7924  0.4444
  196MOL0     C26355   9.662   2.383   1.530  0.5969 -0.1685 -0.0547
  196MOL0     O26356   9.602   2.319   1.420 -0.2132  0.0045  0.6240
  196MOL0     C26357   9.471   2.280   1.417 -0.2244 -0.4966 -0.3921
  196MOL0     C26358   9.414   2.218   1.529  0.2238 -0.5603 -0.0123
  196MOL0     C26359   9.274   2.200   1.522  0.0833  0.8035  0.2195
  196MOL0     C26360   9.197   2.241   1.418  0.8250 -0.5024  0.4502
  196MOL0     O26361   9.061   2.230   1.417  0.0265  0.6228 -0.2926
  196MOL0     C26362   9.011   2.145   1.316  0.5100  0.1882 -0.9294
  196MOL0     C26363   8.865   2.178   1.301  0.7133  0.2801  1.0278
  196MOL0     C26364   8.800   2.135   1.171 -0.1229  0.2317 -0.5513
  196MOL0     C26365   8.784   1.980   1.160  0.0753  0.1280 -1.4878
  196MOL0     C26366   8.678   1.939   1.066  0.2006 -0.2509 -0.1732
  196MOL0     C26367   8.534   1.964   1.119 -1.0106  0.9523 -0.0153
  196MOL0     C26368   8.426   1.947   1.009 -0.3629  0.6799  0.1030
  196MOL0     C26369   8.423   1.813   0.937 -0.8613 -0.3527  0.2515
  196MOL0    Cl26370   8.360   1.692   1.052  0.3207  0.4728 -0.0855
  196MOL0     C26371   9.259   2.297   1.305 -0.1559  0.1055  0.7298
  196MOL0     C26372   9.394   2.322   1.310  0.3150  0.0273  0.0688
  196MOL0     O26373   9.598   2.407   1.635  0.1196  0.0061  0.7060
  196MOL0     C26374   9.868   2.372   1.399 -0.4088  0.0318 -0.1675
  196MOL0     C26375   9.988   2.423   1.349  1.0833  0.1708 -0.3762
  196MOL0     N26376  10.265   3.103   1.212  0.0437  0.6623  0.7669
  196MOL0     N26377  10.322   3.223   1.235  0.3011 -0.2535 -0.1342
  196MOL0     C26378  11.087   4.134   1.448  0.1553 -0.2793  0.5610
  196MOL0     C26379  11.072   4.212   1.570  0.4552  1.3441  0.4959
  196MOL0     C26380  10.926   4.294   1.994  1.1275 -0.6414  0.6260
  196MOL0     C26381  10.877   4.424   2.007 -0.1765 -0.4066 -1.1291
  196MOL0     C26382  10.892   4.498   2.130 -0.1253 -0.1362  1.0924
  196MOL0     C26383  10.966   4.425   2.235 -0.2322 -0.0107  0.8726
  196MOL0     O26384  11.011   4.472   2.357  0.3898 -0.6531  0.5171
  196MOL0     C26385  10.995   4.614   2.377 -0.6023 -0.3073  0.4868
  196MOL0     C26386  11.100   4.676   2.472 -0.1788  0.8456 -0.3469
  196MOL0     C26387  11.089   4.824   2.494 -0.0642  0.1163 -0.7487
  196MOL0     C26388  11.173   4.895   2.391 -0.1068 -1.0157  0.6844
  196MOL0     C26389  11.165   5.040   2.426  0.3873  0.3151 -1.1047
  196MOL0     C26390  11.154   5.156   2.446  0.5055  0.1031  0.2643
  196MOL0     C26391  11.015   4.289   2.218  0.1493  0.0012 -0.3916
  196MOL0     C26392  10.992   4.228   2.100 -0.2249  0.0213  0.0573
  196MOL0     H26393  10.748   4.175   1.625 -1.7009  0.8459 -2.2078
  196MOL0     H26394  10.766   4.034   1.413 -0.3178  1.3096 -0.4292
  196MOL0     H26395  11.167   3.995   1.203  1.6278 -0.4628  2.4834
  196MOL0     H26396  11.141   3.876   1.327  0.1911 -0.3928 -0.0910
  196MOL0     H26397  11.008   3.898   1.041 -1.6438 -1.3073 -0.6988
  196MOL0     H26398  11.133   3.783   1.075  0.1851 -0.8053  1.8489
  196MOL0     H26399  10.987   3.641   1.214  0.1724  0.1037 -0.9394
  196MOL0     H26400  10.857   3.778   1.209  0.2785 -0.2156  0.3982
  196MOL0     H26401  10.882   3.714   0.951  0.6074  0.1882  0.4106
  196MOL0     H26402  10.963   3.583   1.011 -0.4205  0.4726 -0.7132
  196MOL0     H26403  10.690   3.678   1.082  1.0814  0.3637  1.5535
  196MOL0     H26404  10.733   3.541   0.965  0.3219  0.1341 -0.6739
  196MOL0     H26405  10.821   3.420   1.164  1.7164  1.9669 -0.8415
  196MOL0     H26406  10.719   3.522   1.268  0.4799 -1.9592  1.5105
  196MOL0     H26407  10.516   3.461   1.100 -1.0925  0.4631 -1.1485
  196MOL0     H26408  10.625   3.332   1.048  1.0814 -1.1362  2.3598
  196MOL0     H26409  10.529   3.372   1.322 -0.9042 -1.0181  0.0892
  196MOL0     H26410  10.650   3.248   1.275  0.2458  2.6815  1.2310
  196MOL0     H26411  10.586   3.041   1.155 -0.4641  1.9765  2.4462
  196MOL0     H26412  10.304   2.867   1.025 -0.2707 -2.3338  0.0776
  196MOL0     H26413  10.451   2.829   1.117 -0.5474 -1.1255 -1.2205
  196MOL0     H26414  10.172   2.783   1.202 -0.7873 -0.4886  1.7915
  196MOL0     H26415  10.297   2.833   1.329 -0.2782  1.3303 -0.9188
  196MOL0     H26416  10.415   2.621   1.286 -0.3529 -2.9679  0.3797
  196MOL0     H26417  10.366   2.632   1.119 -0.9492  1.8905 -0.5176
  196MOL0     H26418  10.305   2.451   1.287  0.3239 -0.0951  0.1420
  196MOL0     H26419  10.173   2.497   1.186 -2.7714 -1.5885  1.7294
  196MOL0     H26420  10.057   2.634   1.612 -1.0780 -0.3261  0.7206
  196MOL0     H26421   9.762   2.502   1.766  1.2620 -0.7181 -0.4468
  196MOL0     H26422   9.902   2.608   1.781  0.0473 -0.8367  0.0994
  196MOL0     H26423   9.754   2.667   1.706 -2.1842 -0.5073  0.3559
  196MOL0     H26424   9.471   2.204   1.621 -0.6337  2.3434  1.0590
  196MOL0     H26425   9.223   2.162   1.610 -1.0117  1.0194 -0.3107
  196MOL0     H26426   9.056   2.173   1.220  1.2916  1.7511 -0.1643
  196MOL0     H26427   9.027   2.040   1.342  1.5505  0.9981  2.2026
  196MOL0     H26428   8.804   2.143   1.385  0.6821  3.1556  2.3292
  196MOL0     H26429   8.872   2.287   1.305  1.5323  0.2149  1.6575
  196MOL0     H26430   8.859   2.170   1.085  0.4836 -1.6586 -0.9505
  196MOL0     H26431   8.708   2.193   1.169 -0.1278  0.9131  4.9550
  196MOL0     H26432   8.875   1.923   1.138 -0.3862 -2.0066  1.5477
  196MOL0     H26433   8.746   1.948   1.257 -1.2814  0.7639 -1.7873
  196MOL0     H26434   8.697   1.832   1.051  2.2027 -0.1333  1.1948
  196MOL0     H26435   8.701   1.990   0.972  0.0687  0.0174 -0.0591
  196MOL0     H26436   8.513   1.897   1.202  3.5185  1.2067  1.5889
  196MOL0     H26437   8.533   2.067   1.156 -1.2833  1.4819 -1.4063
  196MOL0     H26438   8.448   2.024   0.934  1.6083 -1.0062 -1.1628
  196MOL0     H26439   8.326   1.963   1.049 -0.6904  1.3369 -0.9430
  196MOL0     H26440   8.527   1.791   0.913 -0.4400 -0.1744  1.7726
  196MOL0     H26441   8.362   1.822   0.847 -2.0621  1.4774  1.1896
  196MOL0     H26442   9.202   2.312   1.214 -2.0406  1.2113  2.0059
  196MOL0     H26443   9.427   2.383   1.227  1.4375 -0.8093 -0.1104
  196MOL0     H26444   9.820   2.298   1.335  0.7449  1.4130 -2.7901
  196MOL0     H26445  10.015   2.385   1.251 -0.6498  2.6414 -1.9150
  196MOL0     H26446  11.185   4.143   1.402  0.8926 -1.6951  1.7737
  196MOL0     H26447  11.149   4.276   1.611  1.3871  1.6830 -1.6158
  196MOL0     H26448  10.815   4.464   1.928 -2.5232 -1.8103 -0.1113
  196MOL0     H26449  10.866   4.603   2.118  1.8213  0.1616 -1.0983
  196MOL0     H26450  11.024   4.660   2.282  1.8745 -2.4523  0.0957
  196MOL0     H26451  10.889   4.639   2.393 -0.7325 -0.1453 -0.5333
  196MOL0     H26452  11.201   4.665   2.431  0.5886  0.6666  1.4621
  196MOL0     H26453  11.096   4.619   2.566  0.6706 -2.7261 -2.2687
  196MOL0     H26454  11.137   4.846   2.589 -0.9790 -1.3006  0.0654
  196MOL0     H26455  10.985   4.856   2.493 -1.1733 -3.1074 -2.9639
  196MOL0     H26456  11.130   4.889   2.291 -1.3931 -2.4727  1.2743
  196MOL0     H26457  11.278   4.868   2.403  1.0502  2.7548  0.3880
  196MOL0     H26458  11.126   5.259   2.452  2.5168  0.6436  1.4827
  196MOL0     H26459  11.076   4.240   2.293  0.2104  2.1501  1.0466
  196MOL0     H26460  11.036   4.130   2.089  3.7332  1.7985 -1.5561
  197MOL0     O26461   0.329   4.081   6.259  0.3867  0.4491  0.2822
  197MOL0     C26462   0.400   3.983   6.232  0.7089  1.3217  0.1544
  197MOL0     O26463   0.371   3.891   6.140 -0.2028  0.4595 -0.5746
  197MOL0     C26464   0.253   3.866   6.075 -0.6425  0.0538  0.3698
  197MOL0     C26465   0.153   3.958   6.062 -1.1714  0.1261  0.2373
  197MOL0     C26466   0.043   3.936   5.985  0.6613  0.2929 -0.9017
  197MOL0     C26467   0.024   3.819   5.916  0.7483  0.4519  0.6147
  197MOL0     O26468  -0.079   3.790   5.825 -0.3317 -0.0680 -0.1323
  197MOL0     C26469  -0.123   3.889   5.727  0.0484 -0.0684 -0.2944
  197MOL0     C26470  -0.252   3.966   5.781 -0.3407  0.0609 -0.0337
  197MOL0     C26471  -0.352   3.870   5.847 -0.5524 -0.2027 -0.6677
  197MOL0     C26472  -0.475   3.936   5.877  0.0323 -0.7374 -0.1825
  197MOL0     C26473  -0.566   3.834   5.964 -0.3718  0.9384 -0.3255
  197MOL0     C26474  -0.683   3.908   6.027 -0.1193 -0.0972  0.1048
  197MOL0     C26475  -0.752   3.822   6.122 -0.1921 -1.1650 -0.4817
  197MOL0     C26476  -0.832   3.900   6.235  0.2861  0.1538 -0.2240
  197MOL0     N26477  -0.969   3.918   6.190 -0.1601  0.1925  0.3780
  197MOL0     C26478  -1.070   3.935   6.285 -0.5893 -1.0845 -0.1795
  197MOL0     C26479  -1.179   3.947   6.207  0.4503 -0.3011  0.7613
  197MOL0     C26480  -1.320   3.978   6.248  0.0289  0.0644 -0.0893
  197MOL0     C26481  -1.337   4.130   6.270 -1.1577 -0.1148 -0.0153
  197MOL0     C26482  -1.452   4.162   6.361  0.7585 -0.4260  0.6818
  197MOL0     C26483  -1.587   4.130   6.293  0.1454 -0.6246 -0.5808
  197MOL0     O26484  -1.697   4.152   6.382 -0.2336 -0.0346  0.3592
  197MOL0     C26485  -1.821   4.179   6.329 -0.4145 -0.1047 -0.3500
  197MOL0     C26486  -1.886   4.288   6.372  0.0223  0.5622 -0.3586
  197MOL0     C26487  -2.021   4.315   6.339 -0.8252 -0.2373 -0.3786
  197MOL0     C26488  -2.074   4.444   6.389 -0.5845 -0.0732  0.8664
  197MOL0     C26489  -2.092   4.217   6.273 -0.5177 -0.1172  0.3753
  197MOL0     C26490  -2.233   4.218   6.246 -0.0288 -0.8383  0.0746
  197MOL0     O26491  -2.300   4.099   6.251  0.4164  0.6595 -0.1552
  197MOL0     C26492  -2.434   4.080   6.263 -0.1185 -0.3313  0.7183
  197MOL0     C26493  -2.477   3.948   6.224 -0.8611 -0.3077  0.5709
  197MOL0     C26494  -2.604   3.903   6.256  0.7463  0.0823  0.8958
  197MOL0     C26495  -2.702   3.987   6.315 -0.3476  0.8373 -0.6777
  197MOL0     O26496  -2.824   3.947   6.380 -0.0073 -0.0949  0.0581
  197MOL0     C26497  -2.833   3.819   6.448 -0.4772  0.2709  0.0548
  197MOL0     C26498  -2.875   3.706   6.354 -0.0936  0.0210  0.1452
  197MOL0     C26499  -3.007   3.720   6.273  0.0209 -0.1665 -0.0019
  197MOL0     C26500  -3.057   3.577   6.242 -0.4574  0.6578  0.2435
  197MOL0     C26501  -3.191   3.565   6.165  0.2617  0.5001 -0.4874
  197MOL0     C26502  -3.215   3.419   6.117  0.0857 -1.0616  0.6396
  197MOL0     C26503  -3.345   3.423   6.048  0.9620  0.2024 -0.6940
  197MOL0     C26504  -3.406   3.286   6.030  0.0945 -0.4735 -0.2321
  197MOL0    Cl26505  -3.478   3.223   6.183 -0.2207 -0.1961 -0.1498
  197MOL0     C26506  -2.658   4.118   6.342 -0.3120 -1.2446 -0.0498
  197MOL0     C26507  -2.526   4.162   6.324 -0.1245  0.6058  0.4111
  197MOL0     O26508  -2.277   4.326   6.203 -0.6196 -0.5453 -0.7220
  197MOL0     C26509  -2.023   4.111   6.217  0.2852 -0.6119 -0.6398
  197MOL0     C26510  -1.890   4.089   6.247  0.2835  0.1991 -0.6703
  197MOL0     N26511  -1.147   3.919   6.075 -0.1929 -0.5749 -0.1199
  197MOL0     N26512  -1.020   3.915   6.062  1.4988 -0.3474  0.2534
  197MOL0     C26513   0.121   3.716   5.925 -0.8465  0.8155 -0.8797
  197MOL0     C26514   0.231   3.741   6.009  0.4008  0.1295 -1.3796
  197MOL0     C26515   0.520   3.949   6.310  0.0644 -0.1336 -0.6361
  197MOL0     C26516   0.599   3.837   6.288 -0.9314  0.4695 -0.3222
  197MOL0     C26517   0.715   3.811   6.361 -0.1172  0.7869  0.4636
  197MOL0     C26518   0.749   3.882   6.471  0.2733 -1.2197 -0.5491
  197MOL0     O26519   0.859   3.857   6.541 -1.0306  0.3047  0.1756
  197MOL0     C26520   0.919   3.727   6.515  0.9839  0.2463  0.1554
  197MOL0     C26521   1.018   3.695   6.635  0.1168 -0.2172  0.2590
  197MOL0     C26522   0.941   3.624   6.751  0.5635  0.2183  0.1344
  197MOL0     C26523   1.025   3.593   6.874  0.7697  0.7482  0.5309
  197MOL0     C26524   1.065   3.709   6.949 -0.4920 -0.6983 -1.3116
  197MOL0     C26525   1.116   3.809   6.999  0.2935 -0.3231  0.2410
  197MOL0     C26526   0.668   3.988   6.511 -0.2206  0.0931  0.8692
  197MOL0     C26527   0.556   4.021   6.426  0.0768 -0.1487  0.1512
  197MOL0     H26528   0.165   4.055   6.109 -0.7922  1.4408 -2.3847
  197MOL0     H26529  -0.028   4.018   5.982  0.3198  0.0329 -0.0754
  197MOL0     H26530  -0.040   3.949   5.688  0.4796 -0.5474 -0.1173
  197MOL0     H26531  -0.158   3.826   5.645 -0.1186  0.4290 -0.6126
  197MOL0     H26532  -0.226   4.038   5.860  0.0785 -1.9927  1.7957
  197MOL0     H26533  -0.300   4.016   5.696 -0.0061 -1.1495 -0.9630
  197MOL0     H26534  -0.372   3.780   5.788 -3.4152 -0.8112  1.0232
  197MOL0     H26535  -0.305   3.840   5.941  3.3843 -0.1764 -2.4361
  197MOL0     H26536  -0.459   4.027   5.935 -2.1851  0.2595 -1.0102
  197MOL0     H26537  -0.535   3.962   5.789 -1.2243 -1.3782  0.4591
  197MOL0     H26538  -0.601   3.752   5.902  3.1223 -1.2877  0.3644
  197MOL0     H26539  -0.510   3.795   6.050 -1.7633 -0.0845  0.1342
  197MOL0     H26540  -0.645   3.989   6.091 -1.8511  0.1326  0.9041
  197MOL0     H26541  -0.752   3.942   5.950  1.1992  2.0589 -0.2052
  197MOL0     H26542  -0.810   3.752   6.062 -1.9263  0.8721 -1.2879
  197MOL0     H26543  -0.665   3.785   6.178 -0.4847 -0.4429  0.4851
  197MOL0     H26544  -0.773   3.990   6.253  0.0854  0.0612  0.9379
  197MOL0     H26545  -0.827   3.831   6.319 -0.1919 -0.2358 -0.5117
  197MOL0     H26546  -1.066   3.930   6.394 -0.4904  0.9919 -0.0582
  197MOL0     H26547  -1.393   3.941   6.175  2.6731 -4.3226 -0.8946
  197MOL0     H26548  -1.331   3.929   6.346 -1.1267  0.0657 -0.2062
  197MOL0     H26549  -1.340   4.187   6.177  0.1836 -1.8690 -1.2005
  197MOL0     H26550  -1.253   4.170   6.329 -1.0783  0.7576 -0.7042
  197MOL0     H26551  -1.434   4.269   6.369 -0.7117 -0.0895 -0.1826
  197MOL0     H26552  -1.433   4.111   6.456 -1.6464 -1.8813  0.4658
  197MOL0     H26553  -1.587   4.023   6.269  4.2659 -1.1476  0.9685
  197MOL0     H26554  -1.587   4.188   6.200  0.5691  2.6601  1.3380
  197MOL0     H26555  -1.844   4.355   6.447  0.1161 -0.9853  1.0284
  197MOL0     H26556  -2.087   4.520   6.311 -1.9801  1.4407  2.4833
  197MOL0     H26557  -2.166   4.419   6.442 -1.6950 -0.4669 -1.1366
  197MOL0     H26558  -2.010   4.492   6.464  0.9956 -1.5140  0.4970
  197MOL0     H26559  -2.410   3.880   6.173 -0.3538 -2.5493  3.9414
  197MOL0     H26560  -2.633   3.799   6.240 -0.4516  0.5842 -0.3622
  197MOL0     H26561  -2.739   3.796   6.499 -1.6991 -0.2790  2.1916
  197MOL0     H26562  -2.907   3.814   6.528 -0.6097  0.1112 -0.0768
  197MOL0     H26563  -2.789   3.681   6.292 -0.0367 -1.6862  0.8512
  197MOL0     H26564  -2.874   3.614   6.414 -0.7607 -0.9235 -1.2396
  197MOL0     H26565  -3.003   3.783   6.183 -1.3090 -0.5837 -0.3892
  197MOL0     H26566  -3.074   3.768   6.345  4.4814  3.9498  1.9717
  197MOL0     H26567  -2.975   3.538   6.181  0.5364  0.9475  1.3430
  197MOL0     H26568  -3.060   3.516   6.332  1.1886  1.4091  0.8445
  197MOL0     H26569  -3.195   3.634   6.080  0.5637 -0.5284 -1.3720
  197MOL0     H26570  -3.269   3.585   6.238 -0.0967 -1.8035 -0.1635
  197MOL0     H26571  -3.141   3.385   6.045 -1.7650  1.1486 -2.5603
  197MOL0     H26572  -3.222   3.355   6.205 -1.7872 -0.5796  0.8939
  197MOL0     H26573  -3.340   3.476   5.952  1.5419  0.0147 -0.7678
  197MOL0     H26574  -3.418   3.473   6.113  0.6467 -1.5284  0.3277
  197MOL0     H26575  -3.328   3.219   5.994  0.8638  2.0711 -3.7749
  197MOL0     H26576  -3.487   3.282   5.956  0.6342  0.8722 -0.9191
  197MOL0     H26577  -2.724   4.184   6.397  0.7632 -1.2338  1.2924
  197MOL0     H26578  -2.495   4.263   6.349 -0.4172  0.8476 -0.1811
  197MOL0     H26579  -2.073   4.029   6.166 -0.5544 -1.8001  1.9115
  197MOL0     H26580  -1.840   3.996   6.221 -0.7617 -0.7150  0.4987
  197MOL0     H26581   0.115   3.626   5.865  1.7949  0.6089 -0.9193
  197MOL0     H26582   0.299   3.658   6.024 -0.3669 -0.3892 -0.6607
  197MOL0     H26583   0.581   3.767   6.208 -1.6749 -1.3925  1.3923
  197MOL0     H26584   0.776   3.726   6.330 -0.4365 -0.1454  2.2216
  197MOL0     H26585   0.849   3.644   6.507 -1.6657  2.0990  2.2488
  197MOL0     H26586   0.987   3.744   6.431  0.1184  1.8580 -0.2475
  197MOL0     H26587   1.072   3.784   6.669  2.1866 -0.9242 -1.0251
  197MOL0     H26588   1.095   3.622   6.607  0.5233 -0.2772  1.5083
  197MOL0     H26589   0.913   3.530   6.704  1.3992 -1.5165  2.8267
  197MOL0     H26590   0.846   3.675   6.772 -0.3312 -1.1151 -0.5737
  197MOL0     H26591   1.116   3.541   6.841  2.0732  2.1166  1.8501
  197MOL0     H26592   0.970   3.529   6.943  0.0522  0.3347 -0.3882
  197MOL0     H26593   1.147   3.900   7.046  0.1006 -1.0294  1.7837
  197MOL0     H26594   0.680   4.049   6.599 -2.6236  1.8551  0.0802
  197MOL0     H26595   0.495   4.103   6.462  0.0621  0.0139 -0.2436
  198MOL0     O26596   4.988   3.885   8.002 -0.5344  0.4590 -0.0695
  198MOL0     C26597   4.947   3.815   8.090 -0.8173  0.3761  0.6183
  198MOL0     O26598   4.846   3.731   8.085  0.3740 -0.5772 -0.0374
  198MOL0     C26599   4.741   3.773   8.007 -0.0937 -0.3493  0.4757
  198MOL0     C26600   4.658   3.880   8.047 -0.0810 -0.7767 -0.2876
  198MOL0     C26601   4.550   3.920   7.963 -0.3214 -0.2675 -0.0324
  198MOL0     C26602   4.527   3.850   7.842 -0.1740 -0.1351  0.0200
  198MOL0     O26603   4.415   3.863   7.768  0.3706  0.8200  0.3186
  198MOL0     C26604   4.328   3.974   7.777  0.4667 -0.1802 -0.5208
  198MOL0     C26605   4.223   3.985   7.666 -0.2642  0.0944  0.3474
  198MOL0     C26606   4.158   4.127   7.671 -0.8515  0.1685 -0.2203
  198MOL0     C26607   4.265   4.216   7.609 -0.2208 -0.3668 -0.1134
  198MOL0     C26608   4.196   4.335   7.550 -0.2125 -0.4451  0.5709
  198MOL0     C26609   4.296   4.427   7.473 -1.2074 -0.2790 -0.1486
  198MOL0     C26610   4.245   4.567   7.473 -0.4656  0.2011  0.2039
  198MOL0     C26611   4.348   4.662   7.411  0.5937 -0.3532  0.9969
  198MOL0     N26612   4.333   4.654   7.260  0.3143 -0.2910 -0.9849
  198MOL0     C26613   4.231   4.717   7.189 -1.2027 -0.7001 -0.1482
  198MOL0     C26614   4.242   4.670   7.063  0.8362 -0.5991 -0.5413
  198MOL0     C26615   4.156   4.702   6.950 -0.3302 -0.7767  0.1239
  198MOL0     C26616   4.023   4.630   6.980 -0.4315 -0.1227 -0.8791
  198MOL0     C26617   4.040   4.486   6.945 -0.8473  0.2148 -0.2051
  198MOL0     C26618   3.905   4.414   6.982 -0.0222  0.3915 -0.4491
  198MOL0     O26619   3.804   4.439   6.885 -0.4131 -0.4313 -0.4282
  198MOL0     C26620   3.700   4.350   6.869  0.5316  1.0344  0.0795
  198MOL0     C26621   3.595   4.393   6.794 -0.0992 -0.0622  1.0737
  198MOL0     C26622   3.471   4.335   6.792  0.1927 -0.2826 -0.0335
  198MOL0     C26623   3.361   4.410   6.707  0.3912 -0.5172 -0.1264
  198MOL0     C26624   3.451   4.205   6.858 -0.3586 -0.0827  0.0091
  198MOL0     C26625   3.327   4.124   6.852  0.0834  0.1465  0.1852
  198MOL0     O26626   3.221   4.165   6.788  0.5845  0.5054  0.2133
  198MOL0     C26627   3.109   4.086   6.806  0.2369  0.5974  0.6957
  198MOL0     C26628   3.051   4.073   6.932 -0.8445 -0.9438 -0.5444
  198MOL0     C26629   2.913   4.029   6.955 -0.4053  0.2378  1.2609
  198MOL0     C26630   2.837   3.995   6.842  1.6505 -0.7361 -0.3307
  198MOL0     O26631   2.711   3.938   6.867  0.5749 -0.0106  0.3033
  198MOL0     C26632   2.595   3.967   6.786  0.2170  0.5477 -0.1872
  198MOL0     C26633   2.472   3.887   6.843 -0.4761 -0.9300  0.2366
  198MOL0     C26634   2.481   3.733   6.845  0.0049 -0.1729  0.8958
  198MOL0     C26635   2.460   3.678   6.697 -0.3597 -0.4260 -0.1303
  198MOL0     C26636   2.422   3.535   6.690 -0.2733  0.4205  0.0908
  198MOL0     C26637   2.412   3.487   6.549  0.2185  0.2952 -0.5528
  198MOL0     C26638   2.540   3.500   6.463  0.1952  1.0277 -0.0802
  198MOL0     C26639   2.521   3.400   6.342 -0.1173 -0.5696 -0.4940
  198MOL0    Cl26640   2.641   3.455   6.208 -0.3341 -0.0858 -0.1518
  198MOL0     C26641   2.890   4.021   6.718 -0.7427  0.0589 -0.2417
  198MOL0     C26642   3.024   4.066   6.696  0.0244  0.3118  0.1886
  198MOL0     O26643   3.332   4.013   6.910  0.1929  0.0854  0.2059
  198MOL0     C26644   3.560   4.162   6.933 -0.5486  0.0139 -0.5629
  198MOL0     C26645   3.681   4.231   6.942  0.7754  0.1767  0.6214
  198MOL0     N26646   4.352   4.581   7.066 -0.0331  0.6208  0.5573
  198MOL0     N26647   4.400   4.567   7.181 -0.1942  0.1412 -0.6601
  198MOL0     C26648   4.611   3.750   7.802 -0.2728  1.2275  0.3203
  198MOL0     C26649   4.721   3.706   7.886 -0.6613 -0.4617  0.2330
  198MOL0     C26650   5.037   3.795   8.200  0.0571 -0.0060 -0.0923
  198MOL0     C26651   5.128   3.897   8.245 -0.2518  0.7980  0.7839
  198MOL0     C26652   5.205   3.873   8.357  0.2558  0.0238  0.2599
  198MOL0     C26653   5.181   3.762   8.439  0.1799 -0.5324 -0.4183
  198MOL0     O26654   5.232   3.748   8.563  0.4935 -0.3522  0.1830
  198MOL0     C26655   5.364   3.786   8.588  0.4001  0.2149  0.3259
  198MOL0     C26656   5.402   3.736   8.730  0.3606  0.2666 -0.1657
  198MOL0     C26657   5.537   3.788   8.775  0.1185 -0.9742 -0.8240
  198MOL0     C26658   5.612   3.679   8.860 -0.3070  0.0888  0.8548
  198MOL0     C26659   5.584   3.693   8.999  0.2036  1.2638  0.2743
  198MOL0     C26660   5.553   3.697   9.119 -0.0868 -1.0840 -0.1371
  198MOL0     C26661   5.091   3.668   8.400 -0.2917  0.0470  0.5842
  198MOL0     C26662   5.023   3.675   8.278 -0.6448  0.0997 -0.8107
  198MOL0     H26663   4.661   3.937   8.140 -0.5592  1.9289 -1.8114
  198MOL0     H26664   4.473   3.986   8.004 -1.1376 -1.9177  1.2243
  198MOL0     H26665   4.280   3.963   7.875  0.8268 -0.8594 -0.4208
  198MOL0     H26666   4.379   4.071   7.786 -5.8568  3.6898  0.4675
  198MOL0     H26667   4.257   3.976   7.563 -0.1794 -0.4128  0.4155
  198MOL0     H26668   4.149   3.908   7.690 -0.0042 -0.9168 -1.8561
  198MOL0     H26669   4.081   4.122   7.593  1.8602  0.6226 -3.1100
  198MOL0     H26670   4.138   4.168   7.771  6.4148  2.6776  0.7731
  198MOL0     H26671   4.336   4.251   7.685  0.7923 -1.7252 -0.4203
  198MOL0     H26672   4.320   4.173   7.526 -0.9035  0.4273 -0.9989
  198MOL0     H26673   4.139   4.310   7.461  3.0047  2.9426 -2.8082
  198MOL0     H26674   4.141   4.383   7.632 -0.8716  0.0593 -0.1503
  198MOL0     H26675   4.397   4.418   7.513 -0.8086 -1.2246 -1.2941
  198MOL0     H26676   4.319   4.378   7.378  3.6435 -0.5133  0.9308
  198MOL0     H26677   4.147   4.577   7.427  0.0075  2.2822 -0.4702
  198MOL0     H26678   4.218   4.586   7.577 -3.5906 -0.6403 -0.3596
  198MOL0     H26679   4.447   4.641   7.452 -0.0318  1.5487  3.6991
  198MOL0     H26680   4.336   4.765   7.446  0.7212  0.1216 -0.2929
  198MOL0     H26681   4.158   4.789   7.223 -1.8609 -1.3241 -0.2122
  198MOL0     H26682   4.146   4.811   6.957  1.3894 -0.4493 -1.8717
  198MOL0     H26683   4.206   4.676   6.857  0.7153  0.9964  0.1533
  198MOL0     H26684   3.955   4.683   6.913 -1.6898  0.8088  1.0415
  198MOL0     H26685   4.002   4.651   7.086 -0.9612 -2.7188 -0.4165
  198MOL0     H26686   4.122   4.443   7.003 -1.5780 -1.9834 -0.7261
  198MOL0     H26687   4.073   4.480   6.840  2.2784  2.2805  0.5080
  198MOL0     H26688   3.873   4.455   7.079  1.4549  0.5299  0.0016
  198MOL0     H26689   3.935   4.309   6.988  1.2309  0.7999  1.4290
  198MOL0     H26690   3.607   4.476   6.725 -1.4074 -1.9089 -1.5222
  198MOL0     H26691   3.258   4.396   6.742  0.1554  0.0936 -0.5695
  198MOL0     H26692   3.377   4.517   6.697 -3.7487  0.2570 -0.5336
  198MOL0     H26693   3.378   4.395   6.600  3.6607  1.3307  0.0108
  198MOL0     H26694   3.109   4.109   7.016  0.5086 -1.4805 -1.2085
  198MOL0     H26695   2.875   4.029   7.057  1.9943 -1.4944  2.2647
  198MOL0     H26696   2.580   4.075   6.790  0.4882  0.5934 -0.4004
  198MOL0     H26697   2.612   3.925   6.686  1.3810  2.5128 -0.8849
  198MOL0     H26698   2.459   3.923   6.946 -2.4347  0.7514 -0.5369
  198MOL0     H26699   2.395   3.928   6.777 -0.1048 -2.0662 -0.9531
  198MOL0     H26700   2.400   3.698   6.910 -1.5956  3.1288  0.9187
  198MOL0     H26701   2.568   3.687   6.892  0.3061 -0.3692  0.1509
  198MOL0     H26702   2.387   3.745   6.652  1.6019  1.0496 -1.3032
  198MOL0     H26703   2.552   3.702   6.642  0.0615  0.7710  1.0374
  198MOL0     H26704   2.327   3.530   6.745 -0.9719 -0.4188 -1.1558
  198MOL0     H26705   2.495   3.470   6.739 -1.2113 -0.8452 -0.1108
  198MOL0     H26706   2.383   3.382   6.563  0.2366  0.0791 -1.9264
  198MOL0     H26707   2.320   3.520   6.499 -1.8747  0.3368  2.9790
  198MOL0     H26708   2.636   3.478   6.512  1.6617  1.8018 -2.4583
  198MOL0     H26709   2.541   3.596   6.410  0.0751  1.0457 -0.0484
  198MOL0     H26710   2.415   3.408   6.314 -0.2047  2.7724  0.3409
  198MOL0     H26711   2.549   3.299   6.371  4.9760 -0.0865 -2.6928
  198MOL0     H26712   2.830   4.017   6.628  0.2148 -2.1208 -0.8454
  198MOL0     H26713   3.061   4.096   6.599  0.9196 -2.8264 -0.5676
  198MOL0     H26714   3.555   4.069   6.989  0.1290  1.1250  1.4206
  198MOL0     H26715   3.754   4.202   7.017 -1.3782  1.3427  3.2992
  198MOL0     H26716   4.586   3.695   7.712 -0.3449 -1.0205  1.6190
  198MOL0     H26717   4.807   3.653   7.846 -1.9010 -0.0546 -3.3493
  198MOL0     H26718   5.123   3.998   8.208  1.6848 -0.4488 -3.6531
  198MOL0     H26719   5.267   3.950   8.402  3.0025 -2.0998  0.4396
  198MOL0     H26720   5.422   3.736   8.510  0.6262  0.9782 -0.0104
  198MOL0     H26721   5.380   3.894   8.581  1.4316  0.1251  1.1144
  198MOL0     H26722   5.396   3.627   8.726 -0.3863  0.2747  0.4102
  198MOL0     H26723   5.328   3.774   8.801  1.9586  0.8569  1.2538
  198MOL0     H26724   5.540   3.871   8.847  5.2607 -1.3543 -0.2223
  198MOL0     H26725   5.593   3.798   8.682  0.3468  0.6953 -0.5376
  198MOL0     H26726   5.720   3.676   8.847 -0.1953 -0.4087  1.8286
  198MOL0     H26727   5.578   3.581   8.825  1.3691  0.1422 -1.0796
  198MOL0     H26728   5.546   3.723   9.223  2.7245  0.4370 -0.2211
  198MOL0     H26729   5.084   3.578   8.461 -2.0461  0.7763  1.5353
  198MOL0     H26730   4.939   3.616   8.243 -0.4595  0.8898 -2.6962
  199MOL0     O26731   6.685   6.203   5.874 -0.6973  0.4009 -0.1867
  199MOL0     C26732   6.782   6.229   5.939 -0.4089 -0.0874  0.6650
  199MOL0     O26733   6.780   6.307   6.046 -0.0374  0.4380 -0.0017
  199MOL0     C26734   6.668   6.382   6.088  1.3039 -0.6488  1.1000
  199MOL0     C26735   6.603   6.464   6.004  0.7919 -0.0359  0.9063
  199MOL0     C26736   6.479   6.516   6.039 -0.4554 -0.1878  0.1068
  199MOL0     C26737   6.434   6.502   6.166  0.1091  1.2643 -0.4382
  199MOL0     O26738   6.320   6.560   6.220 -0.1070 -0.1241  0.6518
  199MOL0     C26739   6.322   6.704   6.224  0.3565 -0.4667 -0.4628
  199MOL0     C26740   6.224   6.743   6.336  0.4104  0.2630 -0.3370
  199MOL0     C26741   6.203   6.891   6.357  1.2706  0.3406 -0.1380
  199MOL0     C26742   6.069   6.920   6.421  0.0791  0.3247  0.4438
  199MOL0     C26743   6.059   7.069   6.472  0.3415  0.2483 -0.5555
  199MOL0     C26744   6.081   7.166   6.353 -0.0612  0.4376 -0.0301
  199MOL0     C26745   6.033   7.318   6.362  0.3720 -0.3815 -0.3602
  199MOL0     C26746   6.031   7.375   6.218  0.3623 -0.0700 -0.0073
  199MOL0     N26747   6.017   7.524   6.216 -0.7229 -0.1164 -0.0165
  199MOL0     C26748   5.906   7.602   6.243  1.0492 -0.1981 -0.4576
  199MOL0     C26749   5.945   7.730   6.219 -0.5723 -0.0432 -0.7509
  199MOL0     C26750   5.859   7.844   6.219  0.2053 -0.5293  0.0716
  199MOL0     C26751   5.919   7.973   6.273 -0.5526  0.0854  0.7993
  199MOL0     C26752   5.821   8.089   6.267 -0.2856 -0.8985 -0.0364
  199MOL0     C26753   5.780   8.143   6.121 -0.7328  0.3268 -0.0728
  199MOL0     O26754   5.671   8.057   6.091 -0.5755  0.9210 -0.2127
  199MOL0     C26755   5.556   8.114   6.046 -0.2261 -0.7879 -0.8255
  199MOL0     C26756   5.444   8.117   6.134  0.6479 -0.1902  0.0392
  199MOL0     C26757   5.322   8.182   6.105  0.0535 -0.3935 -0.3479
  199MOL0     C26758   5.201   8.188   6.206  0.0943  0.7951 -0.9083
  199MOL0     C26759   5.311   8.241   5.971 -0.0306  0.7542 -0.7634
  199MOL0     C26760   5.189   8.300   5.917  0.3902 -0.6526 -0.1915
  199MOL0     O26761   5.189   8.335   5.788  0.3802  0.3981  1.0883
  199MOL0     C26762   5.077   8.419   5.741 -0.5753  0.7635 -0.3187
  199MOL0     C26763   5.047   8.531   5.812 -0.0718 -1.1093  0.8243
  199MOL0     C26764   4.937   8.601   5.766 -0.3654 -0.1237  0.2887
  199MOL0     C26765   4.864   8.561   5.654 -0.0496 -0.2363  0.9699
  199MOL0     O26766   4.760   8.632   5.590  0.0083  0.2563 -0.8353
  199MOL0     C26767   4.664   8.702   5.668 -0.4227 -1.1595 -0.5110
  199MOL0     C26768   4.576   8.784   5.566 -0.1646  0.4091  0.1512
  199MOL0     C26769   4.488   8.886   5.641 -0.2405  0.6071  0.5880
  199MOL0     C26770   4.405   8.965   5.545 -0.5505  0.0495  0.2277
  199MOL0     C26771   4.361   9.095   5.610 -0.6587 -0.4196 -0.9816
  199MOL0     C26772   4.289   9.189   5.519  0.6339  0.2114  0.3014
  199MOL0     C26773   4.375   9.234   5.402  0.0388  0.7506  0.6408
  199MOL0     C26774   4.519   9.284   5.416  0.4654 -0.5492  0.3545
  199MOL0    Cl26775   4.524   9.442   5.512 -0.3412 -0.4113  0.3077
  199MOL0     C26776   4.894   8.443   5.592 -1.0867 -0.2427  0.3288
  199MOL0     C26777   5.004   8.375   5.629  0.3703  0.8866  0.4488
  199MOL0     O26778   5.100   8.325   5.991  0.2691 -0.0103 -0.3127
  199MOL0     C26779   5.417   8.232   5.879  0.1469  0.3310  0.4299
  199MOL0     C26780   5.541   8.171   5.914  0.4467  0.5460  0.3118
  199MOL0     N26781   6.074   7.731   6.176  0.7511  0.2762  0.1202
  199MOL0     N26782   6.120   7.607   6.175 -0.1358 -0.1691 -0.4405
  199MOL0     C26783   6.499   6.417   6.261  0.1101 -0.1499 -0.1794
  199MOL0     C26784   6.609   6.355   6.210 -0.3135 -0.0156  0.3868
  199MOL0     C26785   6.906   6.178   5.896  0.3541  0.3940  0.3177
  199MOL0     C26786   6.936   6.159   5.761 -0.6069 -1.2825  0.2964
  199MOL0     C26787   7.057   6.096   5.717 -0.3326  0.9039 -0.6583
  199MOL0     C26788   7.153   6.061   5.817  0.6899 -0.5777  0.2386
  199MOL0     O26789   7.274   6.021   5.767  0.4879 -0.0820  0.0420
  199MOL0     C26790   7.397   6.023   5.841 -0.5400  0.0873  0.4577
  199MOL0     C26791   7.514   5.951   5.775 -0.8973 -0.1918 -0.3101
  199MOL0     C26792   7.529   5.989   5.624  0.0998  0.5188 -0.0894
  199MOL0     C26793   7.609   5.884   5.546  0.0353 -0.1536 -0.8104
  199MOL0     C26794   7.755   5.875   5.569  1.2259 -0.4255 -0.3358
  199MOL0     C26795   7.874   5.876   5.547 -0.0303  0.0264 -0.0991
  199MOL0     C26796   7.126   6.089   5.948 -0.1912  0.5666 -0.3380
  199MOL0     C26797   7.006   6.149   5.985 -0.5579 -0.3312  1.0101
  199MOL0     H26798   6.642   6.475   5.903  0.6916  0.8726  0.9582
  199MOL0     H26799   6.424   6.574   5.966  0.5218 -1.0883 -1.3875
  199MOL0     H26800   6.424   6.736   6.250 -0.4511 -0.0156  2.4311
  199MOL0     H26801   6.286   6.743   6.128 -1.7340 -0.4361  0.2881
  199MOL0     H26802   6.133   6.682   6.338 -0.7521  1.9481  0.1645
  199MOL0     H26803   6.289   6.709   6.417 -2.1006  0.5050  1.9607
  199MOL0     H26804   6.279   6.920   6.430 -0.9121 -3.0015  3.8765
  199MOL0     H26805   6.199   6.947   6.263 -3.4862 -1.7506 -1.4936
  199MOL0     H26806   5.988   6.901   6.350 -0.6639 -0.5028  1.4669
  199MOL0     H26807   6.048   6.858   6.509 -3.3756  0.2175 -0.3295
  199MOL0     H26808   5.964   7.088   6.522  0.5672  1.5654 -0.6081
  199MOL0     H26809   6.135   7.082   6.551  0.1162 -2.9908  0.3381
  199MOL0     H26810   6.188   7.166   6.329  0.0519  2.0515  0.3697
  199MOL0     H26811   6.034   7.134   6.260  0.6945  0.2885 -0.3699
  199MOL0     H26812   5.937   7.323   6.414 -0.3039  1.3073 -1.6677
  199MOL0     H26813   6.099   7.379   6.425 -3.1006  0.8866  2.4150
  199MOL0     H26814   5.945   7.338   6.161  0.2484 -0.0375  0.1435
  199MOL0     H26815   6.127   7.350   6.170  2.2678  2.0702  2.3995
  199MOL0     H26816   5.812   7.571   6.286  2.1462 -2.5132  0.4749
  199MOL0     H26817   5.842   7.858   6.112 -1.0734 -1.3008  0.1414
  199MOL0     H26818   5.763   7.826   6.268 -1.1633  0.8078 -1.9556
  199MOL0     H26819   6.016   7.994   6.228 -1.1013 -0.3552 -0.6435
  199MOL0     H26820   5.935   7.956   6.380  0.9070  0.6225  0.6866
  199MOL0     H26821   5.857   8.175   6.324 -0.5627 -0.7583 -0.0686
  199MOL0     H26822   5.730   8.070   6.324 -1.5688  1.1661 -1.2730
  199MOL0     H26823   5.862   8.146   6.049 -0.3181  5.0063  0.2797
  199MOL0     H26824   5.756   8.248   6.139  3.1191  0.8102  3.7616
  199MOL0     H26825   5.463   8.061   6.225  3.1204  0.0363 -0.2575
  199MOL0     H26826   5.168   8.288   6.236 -0.6784  1.3771 -3.4110
  199MOL0     H26827   5.112   8.128   6.183 -1.4271  1.2892  2.9054
  199MOL0     H26828   5.247   8.138   6.291  0.6873 -1.8846 -2.6818
  199MOL0     H26829   5.119   8.579   5.878  0.6142 -0.1384 -0.5694
  199MOL0     H26830   4.900   8.694   5.809 -1.6223 -0.1702 -0.6283
  199MOL0     H26831   4.600   8.635   5.726 -0.5025  0.0380  0.8356
  199MOL0     H26832   4.719   8.764   5.740 -0.7041  0.1820 -1.4083
  199MOL0     H26833   4.638   8.846   5.501 -2.5789  3.1304  0.2340
  199MOL0     H26834   4.506   8.727   5.504 -1.5764  1.3454  0.8386
  199MOL0     H26835   4.552   8.947   5.706  1.5783  1.1806 -1.6052
  199MOL0     H26836   4.414   8.834   5.703 -1.8321  2.4696  0.3478
  199MOL0     H26837   4.464   8.982   5.455  0.4992  0.2634  0.9382
  199MOL0     H26838   4.314   8.912   5.515 -0.9330  2.3780 -3.2763
  199MOL0     H26839   4.457   9.140   5.638  0.2764 -1.2662 -2.6983
  199MOL0     H26840   4.296   9.069   5.694  1.1583 -0.0153  0.6282
  199MOL0     H26841   4.202   9.134   5.480 -0.4398  1.9584  0.1291
  199MOL0     H26842   4.254   9.273   5.580 -1.1020 -0.1411 -0.1451
  199MOL0     H26843   4.318   9.316   5.357  1.9767  1.8719  0.0924
  199MOL0     H26844   4.375   9.148   5.335 -1.7239  1.3472 -0.1840
  199MOL0     H26845   4.543   9.293   5.310 -1.0801 -3.0859 -0.2831
  199MOL0     H26846   4.577   9.203   5.460  3.6096  1.1548 -0.3556
  199MOL0     H26847   4.838   8.410   5.505 -0.4839 -1.5655  0.4164
  199MOL0     H26848   5.023   8.288   5.567  1.1133  2.9967 -2.4972
  199MOL0     H26849   5.412   8.296   5.792  1.9032  1.6068  1.2004
  199MOL0     H26850   5.606   8.177   5.827 -2.8973 -0.0569 -2.4734
  199MOL0     H26851   6.469   6.410   6.365 -1.5993  0.2493 -0.6110
  199MOL0     H26852   6.661   6.275   6.261 -0.5370 -0.4701 -0.0873
  199MOL0     H26853   6.858   6.189   5.692 -0.1810  1.0208  0.7238
  199MOL0     H26854   7.073   6.075   5.612 -0.5520  1.1949 -0.7519
  199MOL0     H26855   7.415   6.131   5.843 -1.5429  0.3274 -1.2897
  199MOL0     H26856   7.382   5.984   5.943  0.1645 -2.1200 -0.2150
  199MOL0     H26857   7.486   5.845   5.782 -2.3525  0.1382 -0.8221
  199MOL0     H26858   7.607   5.957   5.833  0.9102 -1.4430 -2.8735
  199MOL0     H26859   7.571   6.089   5.616  1.8218  0.0515  2.3521
  199MOL0     H26860   7.431   6.008   5.578 -1.2416 -0.9084  2.0304
  199MOL0     H26861   7.588   5.893   5.439 -2.4759  1.0905 -0.2814
  199MOL0     H26862   7.562   5.789   5.569 -0.9868  0.6044  0.3753
  199MOL0     H26863   7.975   5.856   5.520  0.8858  2.8209  0.8366
  199MOL0     H26864   7.202   6.088   6.025 -0.2163  0.2909 -0.3161
  199MOL0     H26865   6.989   6.174   6.089  0.0398  1.7954  0.6313
  200MOL0     O26866   9.523   0.569   4.955 -0.3225 -0.0130 -1.0043
  200MOL0     C26867   9.578   0.537   5.066 -0.4204 -1.1177 -0.0123
  200MOL0     O26868   9.537   0.430   5.150  0.2547 -0.0602 -0.2175
  200MOL0     C26869   9.421   0.373   5.117 -0.0461  0.9048 -0.3549
  200MOL0     C26870   9.301   0.426   5.160 -0.2320 -0.0052  0.1288
  200MOL0     C26871   9.184   0.352   5.145 -0.3654 -0.2038 -0.7932
  200MOL0     C26872   9.189   0.218   5.096 -0.1410  0.2699  0.0788
  200MOL0     O26873   9.075   0.139   5.081  0.2621 -0.5953 -0.1599
  200MOL0     C26874   9.049   0.096   4.950 -0.0967  0.3228 -0.5391
  200MOL0     C26875   8.929  -0.005   4.949 -0.8183 -0.2514 -1.5417
  200MOL0     C26876   8.808   0.066   5.000 -0.3420 -0.3953 -0.1947
  200MOL0     C26877   8.700  -0.040   5.029 -0.3239 -0.1717 -0.6537
  200MOL0     C26878   8.574   0.007   5.103 -0.1655  0.2090 -0.7428
  200MOL0     C26879   8.450  -0.081   5.060  0.0976 -0.6032 -0.4650
  200MOL0     C26880   8.312  -0.048   5.120 -0.6342  0.7707  0.1453
  200MOL0     C26881   8.278  -0.090   5.263  0.3676  0.2178  0.4460
  200MOL0     N26882   8.129  -0.070   5.291  0.2008 -0.4384  0.6972
  200MOL0     C26883   8.034  -0.050   5.190  0.4315 -0.1796  0.7501
  200MOL0     C26884   7.924   0.003   5.256  0.1213  0.2840  0.4677
  200MOL0     C26885   7.801   0.064   5.200  0.0566  0.5006 -0.0350
  200MOL0     C26886   7.684  -0.038   5.217  0.5155  0.5289  0.2471
  200MOL0     C26887   7.572  -0.017   5.118  0.5048 -0.6665 -0.6019
  200MOL0     C26888   7.452  -0.110   5.144 -0.6491  0.3285  0.4708
  200MOL0     O26889   7.487  -0.251   5.115 -0.5920 -0.4024 -0.1611
  200MOL0     C26890   7.391  -0.344   5.080 -1.6777  0.2722  1.0132
  200MOL0     C26891   7.440  -0.470   5.067  0.3827 -0.2105 -0.1553
  200MOL0     C26892   7.359  -0.587   5.040  0.1376 -0.2063 -0.2595
  200MOL0     C26893   7.433  -0.713   5.010 -1.0271 -0.1071  0.6134
  200MOL0     C26894   7.223  -0.569   5.015  0.8095 -0.2616  0.2012
  200MOL0     C26895   7.134  -0.683   4.972 -0.2564 -0.5770  0.7503
  200MOL0     O26896   7.026  -0.638   4.904  0.3399  0.3172  0.3998
  200MOL0     C26897   6.910  -0.709   4.897  0.2808  0.2951  0.0199
  200MOL0     C26898   6.884  -0.790   4.784 -0.2838 -0.8398  0.6257
  200MOL0     C26899   6.762  -0.858   4.770 -1.4055  0.1156  0.2341
  200MOL0     C26900   6.658  -0.851   4.871 -0.5636 -0.4103 -0.7407
  200MOL0     O26901   6.530  -0.893   4.868  0.1812  0.0056 -0.2486
  200MOL0     C26902   6.496  -0.974   4.754 -0.0394 -0.2762 -0.9943
  200MOL0     C26903   6.347  -1.006   4.769  0.1496 -0.1084 -0.8339
  200MOL0     C26904   6.313  -1.124   4.673  0.0290  0.0010  0.6309
  200MOL0     C26905   6.160  -1.152   4.676 -0.3921  0.5576  0.0542
  200MOL0     C26906   6.137  -1.262   4.574 -0.4981 -0.5312  0.5962
  200MOL0     C26907   5.983  -1.279   4.563  0.0095  0.0900  0.0414
  200MOL0     C26908   5.909  -1.320   4.698 -0.1811 -0.7258  0.7974
  200MOL0     C26909   5.968  -1.442   4.778 -0.6231  0.2207 -0.4588
  200MOL0    Cl26910   5.871  -1.470   4.922  0.4892 -0.4077 -0.3144
  200MOL0     C26911   6.693  -0.786   4.989  0.7832  0.0953 -0.2376
  200MOL0     C26912   6.816  -0.714   4.998 -0.6038  0.3529 -0.1903
  200MOL0     O26913   7.156  -0.799   5.005 -0.0433 -0.2287 -0.5562
  200MOL0     C26914   7.168  -0.436   5.020 -0.3107 -0.2387 -0.2773
  200MOL0     C26915   7.253  -0.328   5.056  0.6473  1.1648  0.4966
  200MOL0     N26916   7.947   0.007   5.390  0.4340 -0.3755  0.0542
  200MOL0     N26917   8.071  -0.036   5.413  0.4494  0.6648 -0.1286
  200MOL0     C26918   9.310   0.173   5.048 -0.3713  0.1352 -0.4379
  200MOL0     C26919   9.429   0.242   5.068 -0.0347 -0.3366 -0.2572
  200MOL0     C26920   9.685   0.624   5.129  0.2165  0.6264  0.1288
  200MOL0     C26921   9.725   0.603   5.265 -0.0818 -0.9200  0.1958
  200MOL0     C26922   9.807   0.699   5.319 -0.7128 -0.8434  0.1515
  200MOL0     C26923   9.851   0.814   5.248 -0.4233  0.5496 -0.5707
  200MOL0     O26924   9.930   0.922   5.301 -0.1580 -0.4324 -0.0385
  200MOL0     C26925  10.028   0.882   5.391 -1.5113 -0.1379  0.5308
  200MOL0     C26926  10.098   1.004   5.449  0.4983  0.1282  0.4289
  200MOL0     C26927  10.234   0.979   5.520  0.4144 -0.0201 -0.6735
  200MOL0     C26928  10.364   0.945   5.437 -0.3578  0.4980 -1.2332
  200MOL0     C26929  10.409   1.048   5.338 -0.9665 -0.1117  0.1229
  200MOL0     C26930  10.441   1.135   5.260 -0.3646 -0.1296  0.2412
  200MOL0     C26931   9.808   0.829   5.120 -0.5829  0.8150 -0.6545
  200MOL0     C26932   9.725   0.737   5.054  0.1316 -0.1856 -0.9996
  200MOL0     H26933   9.304   0.524   5.205  0.9465 -0.2699  0.6632
  200MOL0     H26934   9.088   0.398   5.170  0.3309  1.3606 -0.8702
  200MOL0     H26935   9.014   0.174   4.881  2.5745  0.2256 -2.1443
  200MOL0     H26936   9.137   0.047   4.909 -0.3656  0.2809 -1.0731
  200MOL0     H26937   8.901  -0.045   4.851  0.2556 -0.2185 -1.8716
  200MOL0     H26938   8.962  -0.090   5.009 -1.4592  0.2932 -0.3974
  200MOL0     H26939   8.831   0.131   5.085  2.7636  2.1602 -2.7348
  200MOL0     H26940   8.766   0.131   4.923 -2.1628 -1.6862 -0.3603
  200MOL0     H26941   8.671  -0.086   4.934 -1.5010  1.3824 -1.0978
  200MOL0     H26942   8.746  -0.122   5.085 -2.1908  0.6718  2.3738
  200MOL0     H26943   8.586  -0.011   5.210 -4.4604 -2.0701 -0.4283
  200MOL0     H26944   8.562   0.113   5.081  1.8714  0.4780 -0.7269
  200MOL0     H26945   8.426  -0.061   4.955  1.2065  0.6094 -0.5118
  200MOL0     H26946   8.474  -0.187   5.072  1.3812 -0.1467  1.3663
  200MOL0     H26947   8.303   0.060   5.105  0.8899  0.9696  0.5277
  200MOL0     H26948   8.243  -0.095   5.049 -0.9995  1.5033  0.0122
  200MOL0     H26949   8.330  -0.031   5.339  0.8348 -1.3923  1.4062
  200MOL0     H26950   8.306  -0.194   5.277  0.1625 -0.1557 -1.6272
  200MOL0     H26951   8.048  -0.060   5.083  5.0613  1.6852  0.9676
  200MOL0     H26952   7.786   0.154   5.260 -1.7395 -0.6888  1.4075
  200MOL0     H26953   7.814   0.088   5.095  0.7891  1.4627  0.2657
  200MOL0     H26954   7.640  -0.036   5.317 -1.9188  3.7745 -0.7017
  200MOL0     H26955   7.726  -0.137   5.200 -0.5904  0.0498  0.2971
  200MOL0     H26956   7.607  -0.017   5.014  4.4591  1.5225  0.5481
  200MOL0     H26957   7.532   0.083   5.135  1.6514 -0.1747 -0.7165
  200MOL0     H26958   7.362  -0.078   5.089 -0.3862  1.8659  0.8781
  200MOL0     H26959   7.426  -0.108   5.250 -3.8146 -0.6856 -0.1923
  200MOL0     H26960   7.546  -0.478   5.087  0.1603  1.4205  2.0991
  200MOL0     H26961   7.539  -0.684   5.006 -0.6290 -1.4379  1.0288
  200MOL0     H26962   7.427  -0.783   5.093 -4.4761 -0.3528  0.2915
  200MOL0     H26963   7.396  -0.764   4.921 -2.4579  0.5995  0.7781
  200MOL0     H26964   6.951  -0.791   4.698 -1.4389 -2.8269 -0.3221
  200MOL0     H26965   6.755  -0.921   4.682  0.0435  2.4379 -1.6697
  200MOL0     H26966   6.504  -0.913   4.664 -1.3143  1.0929 -0.2147
  200MOL0     H26967   6.549  -1.070   4.761 -0.4509 -0.4436  0.1162
  200MOL0     H26968   6.312  -1.024   4.871 -1.1526  2.0952 -0.8088
  200MOL0     H26969   6.295  -0.914   4.740  0.6365  0.3364 -0.3193
  200MOL0     H26970   6.362  -1.216   4.707 -0.5132  0.5891  3.2112
  200MOL0     H26971   6.353  -1.110   4.572 -1.4860 -3.0871 -0.5152
  200MOL0     H26972   6.120  -1.185   4.773 -1.2074 -2.5699 -1.2315
  200MOL0     H26973   6.120  -1.057   4.642  1.5761  1.8812  1.2160
  200MOL0     H26974   6.182  -1.356   4.608 -0.5618 -1.2823 -1.2521
  200MOL0     H26975   6.182  -1.236   4.477 -3.1059 -0.6149 -0.7385
  200MOL0     H26976   5.931  -1.190   4.528 -1.6160  0.8696  3.9335
  200MOL0     H26977   5.951  -1.357   4.492 -0.4741  0.0868  0.2558
  200MOL0     H26978   5.801  -1.324   4.679 -0.9403  3.7519  2.7617
  200MOL0     H26979   5.908  -1.227   4.758 -2.5509  1.2366 -2.0196
  200MOL0     H26980   6.071  -1.420   4.809 -0.6687 -1.0046  0.6721
  200MOL0     H26981   5.969  -1.527   4.710  0.5765 -0.1226 -0.0455
  200MOL0     H26982   6.624  -0.782   5.073  0.0299 -0.0437 -0.8412
  200MOL0     H26983   6.836  -0.660   5.090 -2.2545  0.4748  0.1297
  200MOL0     H26984   7.063  -0.426   4.995 -0.4540 -3.1950 -1.2434
  200MOL0     H26985   7.205  -0.232   5.065 -0.7518  0.3222  2.6975
  200MOL0     H26986   9.313   0.071   5.010  1.9525 -0.5108  1.2856
  200MOL0     H26987   9.528   0.205   5.041  0.9119  1.1048  1.0704
  200MOL0     H26988   9.696   0.516   5.323  0.3330 -1.5620 -0.5432
  200MOL0     H26989   9.835   0.691   5.423 -2.9429  2.1864  1.1238
  200MOL0     H26990   9.985   0.820   5.469 -2.7491 -0.1060 -0.0997
  200MOL0     H26991  10.102   0.820   5.340 -3.1154 -2.3423  0.7495
  200MOL0     H26992  10.029   1.048   5.522  0.0107  0.1096 -0.0127
  200MOL0     H26993  10.125   1.078   5.373  2.3261  1.1512  1.9982
  200MOL0     H26994  10.230   0.900   5.596  1.0750  0.5839  0.0158
  200MOL0     H26995  10.246   1.072   5.576 -0.4298  0.2451 -0.9201
  200MOL0     H26996  10.340   0.849   5.390 -0.5388 -1.1961  2.0154
  200MOL0     H26997  10.444   0.936   5.512 -2.1688 -0.2218  0.7119
  200MOL0     H26998  10.472   1.208   5.188  2.5442  0.3016  1.8077
  200MOL0     H26999   9.851   0.914   5.068  0.6927  0.8427  0.3879
  200MOL0     H27000   9.689   0.774   4.958 -0.5709  2.5360  0.2196
  201MOL0     O27001   8.700   2.137  10.380  0.3713 -0.0140 -0.9036
  201MOL0     C27002   8.780   2.224  10.404 -0.8056 -0.5372  0.6267
  201MOL0     O27003   8.765   2.355  10.358  0.2678 -0.9835  0.7550
  201MOL0     C27004   8.635   2.392  10.322 -0.7150  0.8299 -0.6372
  201MOL0     C27005   8.535   2.389  10.414  1.0643  0.4805  0.1161
  201MOL0     C27006   8.403   2.427  10.385  0.6030 -0.5193 -0.3674
  201MOL0     C27007   8.370   2.463  10.249 -0.0808 -1.1242 -0.7530
  201MOL0     O27008   8.246   2.502  10.207  0.4586 -0.1178 -1.1156
  201MOL0     C27009   8.174   2.398  10.140  0.0449  1.1707  0.4755
  201MOL0     C27010   8.026   2.432  10.136  0.5889  0.1745  0.1522
  201MOL0     C27011   7.966   2.436  10.280 -0.6300  0.2928 -0.4240
  201MOL0     C27012   7.817   2.466  10.278 -0.0882 -0.5749  0.1117
  201MOL0     C27013   7.756   2.502  10.414 -0.0346 -0.2015  0.2799
  201MOL0     C27014   7.752   2.389  10.520 -0.1857  0.2362  0.3979
  201MOL0     C27015   7.695   2.260  10.479 -1.0976 -0.9038  0.5360
  201MOL0     C27016   7.692   2.155  10.592  0.5990  0.1641 -0.1878
  201MOL0     N27017   7.601   2.045  10.550 -0.3173 -0.3318 -0.2155
  201MOL0     C27018   7.491   1.997  10.624 -0.2816 -0.2505  0.4102
  201MOL0     C27019   7.413   1.928  10.538  0.2918  0.6143  0.1591
  201MOL0     C27020   7.302   1.836  10.571  0.4199 -0.7111 -0.0087
  201MOL0     C27021   7.172   1.880  10.498 -1.6683 -0.1434  0.1860
  201MOL0     C27022   7.074   1.779  10.554  0.3360 -0.0656  0.4895
  201MOL0     C27023   6.923   1.836  10.543 -0.5026 -0.4698  0.2206
  201MOL0     O27024   6.845   1.720  10.557 -0.6244 -0.5920 -0.7585
  201MOL0     C27025   6.715   1.713  10.513 -0.2928 -0.1870  0.0390
  201MOL0     C27026   6.663   1.592  10.473  0.3979  0.1398  0.2047
  201MOL0     C27027   6.536   1.579  10.420  0.3578  0.7583  0.2220
  201MOL0     C27028   6.485   1.440  10.405  0.4582 -0.8113  0.6713
  201MOL0     C27029   6.459   1.693  10.408 -0.5407  0.0853 -0.0499
  201MOL0     C27030   6.325   1.704  10.336 -0.0915  0.9848  0.8436
  201MOL0     O27031   6.245   1.810  10.359  0.1083  0.2409 -0.1673
  201MOL0     C27032   6.137   1.824  10.277  0.1897  0.4485  0.3536
  201MOL0     C27033   6.014   1.785  10.331  0.8029  0.2532  0.8395
  201MOL0     C27034   5.905   1.791  10.248  1.0092  0.3710  0.1744
  201MOL0     C27035   5.909   1.851  10.119  0.3851 -0.3792 -0.8133
  201MOL0     O27036   5.792   1.867  10.048 -0.1778  0.0741  0.0790
  201MOL0     C27037   5.797   1.823   9.907 -0.6415 -0.0414 -0.0870
  201MOL0     C27038   5.653   1.774   9.877  0.3387 -0.2033  0.2468
  201MOL0     C27039   5.546   1.897   9.877 -0.8956 -0.3404  0.4325
  201MOL0     C27040   5.525   1.955   9.741  0.2444  0.6555 -0.5556
  201MOL0     C27041   5.455   2.090   9.756 -0.1237 -0.4483  0.4370
  201MOL0     C27042   5.510   2.190   9.655  0.9214  0.2048  0.5040
  201MOL0     C27043   5.428   2.318   9.654 -1.2647  0.8388 -0.6761
  201MOL0     C27044   5.438   2.417   9.775  0.2130  0.1401 -0.8981
  201MOL0    Cl27045   5.361   2.583   9.725  0.1539  0.2471 -0.0409
  201MOL0     C27046   6.026   1.908  10.080 -0.4929  0.1871  0.2677
  201MOL0     C27047   6.141   1.884  10.152  0.2026  0.3330 -0.7316
  201MOL0     O27048   6.306   1.618  10.245  0.2226  0.6042 -0.3691
  201MOL0     C27049   6.511   1.816  10.449 -0.4564 -0.0048 -0.6513
  201MOL0     C27050   6.638   1.828  10.506  0.0163  0.6265  0.5765
  201MOL0     N27051   7.469   1.937  10.412  0.1062  0.5170  0.1460
  201MOL0     N27052   7.577   2.013  10.426  0.2248  0.9043 -0.1376
  201MOL0     C27053   8.483   2.481  10.161  0.4711 -0.1677  0.1032
  201MOL0     C27054   8.619   2.456  10.203  0.0775  0.6029  0.2969
  201MOL0     C27055   8.904   2.198  10.469  1.0154  0.3934 -0.7734
  201MOL0     C27056   8.923   2.074  10.521  0.3891  0.1793 -0.1764
  201MOL0     C27057   9.034   2.038  10.580  0.5818 -0.3767 -0.1343
  201MOL0     C27058   9.143   2.129  10.607 -0.4555  0.2851 -0.1012
  201MOL0     O27059   9.242   2.110  10.700  0.2197 -0.4903  0.4765
  201MOL0     C27060   9.277   1.976  10.736 -0.3789 -0.5649 -0.1887
  201MOL0     C27061   9.413   1.952  10.805 -0.7113 -0.8072  0.0267
  201MOL0     C27062   9.441   1.795  10.830 -0.4332 -0.9914 -0.5626
  201MOL0     C27063   9.409   1.714  10.701 -0.2643 -0.1175  1.0456
  201MOL0     C27064   9.495   1.759  10.592 -0.1138 -0.3816  0.1238
  201MOL0     C27065   9.568   1.808  10.510 -0.6186 -0.1866  0.3012
  201MOL0     C27066   9.128   2.257  10.554 -0.1430 -0.8160  0.0531
  201MOL0     C27067   9.009   2.293  10.489 -0.5810 -0.6610 -0.0014
  201MOL0     H27068   8.553   2.348  10.513 -0.4035 -1.5410 -0.3857
  201MOL0     H27069   8.334   2.428  10.469 -0.5661 -1.7630 -1.2486
  201MOL0     H27070   8.201   2.394  10.034  0.2985  0.7148  0.5564
  201MOL0     H27071   8.187   2.300  10.186 -0.1177  1.7029  1.6947
  201MOL0     H27072   8.007   2.524  10.080  3.4431  0.2835 -0.8308
  201MOL0     H27073   7.980   2.366  10.061  0.2228  5.0953 -4.6451
  201MOL0     H27074   7.996   2.346  10.335  0.5132  1.5773  1.1644
  201MOL0     H27075   8.008   2.519  10.338  0.3724 -1.6238  1.7547
  201MOL0     H27076   7.807   2.557  10.218  4.1447 -0.3264 -0.4650
  201MOL0     H27077   7.766   2.383  10.227  2.1873 -1.0564 -1.4967
  201MOL0     H27078   7.799   2.589  10.464 -2.4764  1.9246 -1.0737
  201MOL0     H27079   7.649   2.523  10.404  0.2047  0.9428 -0.0150
  201MOL0     H27080   7.857   2.378  10.549 -0.8577 -2.4822  2.2273
  201MOL0     H27081   7.695   2.434  10.602 -0.8270  5.0044 -2.2904
  201MOL0     H27082   7.596   2.291  10.443 -0.3332  2.8628  1.2645
  201MOL0     H27083   7.759   2.220  10.400  1.9233 -0.3347  2.5436
  201MOL0     H27084   7.654   2.201  10.684 -2.6263  0.9450 -1.7512
  201MOL0     H27085   7.785   2.102  10.613  0.2175 -1.1446 -1.6549
  201MOL0     H27086   7.478   1.990  10.731  0.5179 -0.1844  0.5158
  201MOL0     H27087   7.340   1.742  10.530  1.4484 -0.2966 -0.0165
  201MOL0     H27088   7.305   1.838  10.680  3.6017  0.4700 -0.0174
  201MOL0     H27089   7.174   1.866  10.389 -5.1543 -0.7614  0.0844
  201MOL0     H27090   7.151   1.985  10.520 -0.5769 -0.1145  1.2065
  201MOL0     H27091   7.097   1.775  10.661  3.2659 -0.9541 -0.0661
  201MOL0     H27092   7.079   1.678  10.515 -1.6003  0.2573 -0.7164
  201MOL0     H27093   6.898   1.883  10.447  0.4891 -0.3037  0.0352
  201MOL0     H27094   6.899   1.910  10.619 -3.1599  0.4391 -1.3350
  201MOL0     H27095   6.723   1.502  10.490 -0.5843 -0.1617  2.4283
  201MOL0     H27096   6.549   1.378  10.468  0.3009  0.0451  1.7007
  201MOL0     H27097   6.387   1.434  10.452 -0.4833 -1.3389 -1.2567
  201MOL0     H27098   6.486   1.400  10.303  3.5697 -0.5490  0.4982
  201MOL0     H27099   6.022   1.760  10.436  3.0166  2.0579  1.1757
  201MOL0     H27100   5.804   1.761  10.273  1.1291 -2.5024 -2.1819
  201MOL0     H27101   5.831   1.903   9.841 -0.3718 -0.3333 -0.3058
  201MOL0     H27102   5.853   1.732   9.884 -0.9978 -0.3897  0.4016
  201MOL0     H27103   5.656   1.723   9.780  0.6856 -0.6819  0.5091
  201MOL0     H27104   5.629   1.704   9.958 -3.1598  2.0136  1.3461
  201MOL0     H27105   5.589   1.969   9.946 -2.2598 -1.2601  2.3242
  201MOL0     H27106   5.453   1.854   9.915 -1.8770  1.2097 -0.1180
  201MOL0     H27107   5.620   1.952   9.687  0.1771 -1.7394 -0.6440
  201MOL0     H27108   5.454   1.887   9.693 -0.5134  0.7178  0.4396
  201MOL0     H27109   5.472   2.133   9.855  1.6663  0.8850 -0.4059
  201MOL0     H27110   5.348   2.083   9.732  0.5646 -0.0769 -3.4029
  201MOL0     H27111   5.610   2.225   9.682 -0.2527  1.6409  3.4278
  201MOL0     H27112   5.519   2.140   9.558 -1.2095 -2.2975  1.4683
  201MOL0     H27113   5.321   2.295   9.651 -1.2983  1.0510 -1.1170
  201MOL0     H27114   5.462   2.376   9.568  3.4231  1.8042  1.5058
  201MOL0     H27115   5.540   2.439   9.809  0.1366 -0.9837  0.1295
  201MOL0     H27116   5.392   2.372   9.863 -1.4288  1.9154 -0.7608
  201MOL0     H27117   6.022   1.960   9.985 -0.9019  1.2033  0.8296
  201MOL0     H27118   6.237   1.912  10.110  1.7304 -2.6216  0.5426
  201MOL0     H27119   6.454   1.907  10.432 -0.5957 -0.2680 -1.6310
  201MOL0     H27120   6.669   1.927  10.536  5.1720 -0.2371 -0.9489
  201MOL0     H27121   8.475   2.522  10.061  1.5424 -0.8101 -0.2600
  201MOL0     H27122   8.699   2.468  10.131 -2.4260 -0.5392 -2.8829
  201MOL0     H27123   8.853   1.992  10.510  0.3794  0.0140  0.9434
  201MOL0     H27124   9.036   1.938  10.623 -1.4444 -1.1250 -1.6141
  201MOL0     H27125   9.200   1.939  10.805 -0.6875  1.1150  0.4395
  201MOL0     H27126   9.260   1.922  10.643 -2.8998 -3.7056  1.8703
  201MOL0     H27127   9.419   2.004  10.901  1.1909 -0.8570 -0.0391
  201MOL0     H27128   9.490   1.995  10.740  0.2437 -1.3755  0.7683
  201MOL0     H27129   9.383   1.750  10.911 -1.6637  1.1808 -0.1564
  201MOL0     H27130   9.547   1.785  10.855  0.1517  0.6022 -2.1648
  201MOL0     H27131   9.307   1.729  10.666  0.3602  0.1164 -0.7616
  201MOL0     H27132   9.431   1.610  10.727 -0.3675 -0.3310  0.3104
  201MOL0     H27133   9.629   1.841  10.429  0.4369 -1.0440  0.7221
  201MOL0     H27134   9.212   2.325  10.560  0.5920 -1.4974 -1.7031
  201MOL0     H27135   8.998   2.390  10.442  2.1447 -0.2410  0.0202
  202MOL0     O27136  10.703  10.642   3.748  0.4026  0.6423 -0.1665
  202MOL0     C27137  10.687  10.678   3.864  0.6272 -0.6043 -0.7241
  202MOL0     O27138  10.566  10.709   3.919  0.1537  0.5190  0.2400
  202MOL0     C27139  10.444  10.717   3.850  0.0925 -0.0759  0.2975
  202MOL0     C27140  10.316  10.671   3.896 -0.0759 -0.1238  0.1038
  202MOL0     C27141  10.201  10.687   3.819 -0.0607  0.3490 -0.3093
  202MOL0     C27142  10.196  10.761   3.701 -0.4013 -0.1402  0.2305
  202MOL0     O27143  10.093  10.790   3.623  0.4209  0.7234  0.3040
  202MOL0     C27144  10.085  10.712   3.503  0.7579  0.9973 -0.7616
  202MOL0     C27145  10.073  10.557   3.532  0.2713  0.0038 -0.3173
  202MOL0     C27146  10.018  10.467   3.418  0.3962  0.2194  0.7548
  202MOL0     C27147  10.040  10.313   3.444  0.3570  0.0491  0.0879
  202MOL0     C27148   9.919  10.219   3.401  0.0858  0.2759 -0.0276
  202MOL0     C27149   9.925  10.086   3.471  0.1128  0.2208 -0.2817
  202MOL0     C27150   9.825   9.986   3.411 -0.5269 -0.3541 -0.5050
  202MOL0     C27151   9.693  10.027   3.452 -0.4137  0.6334 -0.4210
  202MOL0     N27152   9.585   9.936   3.405 -0.6452 -0.1234  0.0396
  202MOL0     C27153   9.539   9.830   3.493 -0.3500  0.4809  0.2524
  202MOL0     C27154   9.465   9.759   3.401  0.3396 -0.7066  0.9667
  202MOL0     C27155   9.394   9.637   3.434 -0.0331 -0.3629  0.9236
  202MOL0     C27156   9.261   9.668   3.509  0.3775  0.3593  0.5440
  202MOL0     C27157   9.145   9.682   3.404 -0.4599 -0.6296  0.6081
  202MOL0     C27158   9.023   9.597   3.437 -0.1716 -0.7160 -0.1272
  202MOL0     O27159   9.000   9.606   3.579  0.8282 -0.1563 -0.4465
  202MOL0     C27160   8.887   9.550   3.637  0.1847 -0.2770 -0.2637
  202MOL0     C27161   8.777   9.491   3.562  0.3356 -0.3383 -1.1576
  202MOL0     C27162   8.667   9.429   3.625  0.2081 -0.3136  0.1547
  202MOL0     C27163   8.573   9.364   3.524  0.8651 -0.4801 -0.9333
  202MOL0     C27164   8.652   9.431   3.762 -0.0524 -0.3136 -0.1295
  202MOL0     C27165   8.531   9.387   3.827  0.4685 -1.6341  0.3127
  202MOL0     O27166   8.418   9.379   3.749 -0.6430  0.2031 -0.4027
  202MOL0     C27167   8.294   9.380   3.805 -0.9105  0.3915  0.4442
  202MOL0     C27168   8.242   9.266   3.875  0.2518  0.2305  0.2530
  202MOL0     C27169   8.109   9.286   3.941  0.2547  1.6625  0.3259
  202MOL0     C27170   8.042   9.410   3.924  0.5911 -0.4243 -0.2939
  202MOL0     O27171   7.915   9.424   3.971 -0.0415  0.2747 -0.7055
  202MOL0     C27172   7.908   9.451   4.111  0.9227  0.6133 -1.4664
  202MOL0     C27173   7.915   9.334   4.223 -0.0375  0.2371 -0.3120
  202MOL0     C27174   7.789   9.253   4.202 -0.3508  0.3067  0.2886
  202MOL0     C27175   7.792   9.126   4.291 -0.9275  0.3678 -0.4845
  202MOL0     C27176   7.675   9.040   4.241 -0.8527  0.0214 -0.2609
  202MOL0     C27177   7.664   8.912   4.327  0.0808  0.0658  0.3916
  202MOL0     C27178   7.568   8.813   4.276  0.0486 -0.1278 -0.2328
  202MOL0     C27179   7.569   8.688   4.357  0.6284  0.0485 -0.9090
  202MOL0    Cl27180   7.436   8.580   4.282  0.1607  0.0002 -0.0101
  202MOL0     C27181   8.107   9.515   3.866  0.4406  0.2566 -0.1670
  202MOL0     C27182   8.229   9.498   3.805  0.3542  0.0986 -0.6847
  202MOL0     O27183   8.546   9.354   3.948  0.4154 -0.7129 -0.2364
  202MOL0     C27184   8.760   9.494   3.836 -0.9526  0.3607  0.0463
  202MOL0     C27185   8.880   9.552   3.774 -0.1879  0.0039 -0.0023
  202MOL0     N27186   9.454   9.835   3.286 -0.2924 -0.1238  0.3080
  202MOL0     N27187   9.521   9.941   3.293  0.1064  0.0502  0.1098
  202MOL0     C27188  10.323  10.799   3.649 -0.1885 -1.0598 -0.1108
  202MOL0     C27189  10.443  10.776   3.718  0.3738 -0.6195 -0.1098
  202MOL0     C27190  10.801  10.672   3.958  0.0491 -1.0944 -0.1615
  202MOL0     C27191  10.930  10.685   3.919 -0.5122  0.0598  0.6333
  202MOL0     C27192  11.040  10.707   4.005 -0.1791  0.5448  0.4355
  202MOL0     C27193  11.015  10.721   4.137  0.3690  1.0478 -0.4723
  202MOL0     O27194  11.126  10.748   4.214 -0.2206 -0.2938 -0.3492
  202MOL0     C27195  11.106  10.808   4.343 -0.2799 -0.2332  0.7159
  202MOL0     C27196  11.240  10.813   4.416  0.6366 -0.1435 -0.0161
  202MOL0     C27197  11.210  10.860   4.558 -0.2073  0.9135  0.6233
  202MOL0     C27198  11.346  10.912   4.618 -0.3358 -0.5413 -0.1782
  202MOL0     C27199  11.315  10.994   4.745 -0.1891  0.7582  0.3853
  202MOL0     C27200  11.320  11.063   4.845 -0.6648  0.4104  0.4881
  202MOL0     C27201  10.884  10.705   4.181 -0.3352 -0.4439 -0.4523
  202MOL0     C27202  10.779  10.674   4.098 -0.0542  0.2430  0.1864
  202MOL0     H27203  10.300  10.612   3.986 -0.1401 -0.7884 -0.3338
  202MOL0     H27204  10.118  10.627   3.856  0.7625  1.6445  4.2252
  202MOL0     H27205  10.001  10.754   3.447 -1.9815  0.0674  2.3278
  202MOL0     H27206  10.177  10.726   3.446  1.6524  2.1491  0.9063
  202MOL0     H27207  10.176  10.535   3.561  1.3640  2.1190 -2.2680
  202MOL0     H27208  10.014  10.533   3.621 -1.5487  0.2335 -1.4029
  202MOL0     H27209   9.914  10.491   3.394  0.3195  0.2772  1.1351
  202MOL0     H27210  10.071  10.488   3.325 -1.8519  0.9895 -0.4054
  202MOL0     H27211  10.129  10.285   3.387 -0.4447 -0.3280 -1.0436
  202MOL0     H27212  10.062  10.296   3.549  1.8696 -1.2350 -0.3953
  202MOL0     H27213   9.826  10.275   3.415  0.0835  0.9130 -2.2462
  202MOL0     H27214   9.918  10.219   3.291 -0.2120  2.7038 -0.0799
  202MOL0     H27215  10.032  10.063   3.472  1.1775  4.0190  3.2922
  202MOL0     H27216   9.906  10.094   3.579 -0.2344 -2.0808 -0.1180
  202MOL0     H27217   9.831   9.987   3.302  3.4762  2.6155 -0.4651
  202MOL0     H27218   9.845   9.880   3.431  0.4473 -0.0274  0.3475
  202MOL0     H27219   9.677  10.131   3.422  0.0158 -0.0580 -3.4137
  202MOL0     H27220   9.694  10.027   3.561  3.8292 -0.3429 -0.2951
  202MOL0     H27221   9.567   9.801   3.594 -3.6837 -1.3313  0.8094
  202MOL0     H27222   9.380   9.567   3.352  1.0623 -1.1953  1.4258
  202MOL0     H27223   9.466   9.591   3.502 -0.5490  0.3946  2.0140
  202MOL0     H27224   9.267   9.761   3.565  1.6370 -0.7106  2.3027
  202MOL0     H27225   9.246   9.584   3.578 -1.3561  1.1528  1.1837
  202MOL0     H27226   9.180   9.643   3.308 -0.1719 -2.8157  1.5348
  202MOL0     H27227   9.106   9.784   3.391 -0.3440 -0.8792 -2.3460
  202MOL0     H27228   9.039   9.492   3.413 -0.1433 -0.8990  0.6673
  202MOL0     H27229   8.936   9.637   3.384  0.6609  0.0561 -0.9426
  202MOL0     H27230   8.799   9.489   3.456 -0.5506 -1.5083 -1.3476
  202MOL0     H27231   8.477   9.416   3.528  0.3749 -1.3614  2.8265
  202MOL0     H27232   8.606   9.362   3.420 -2.5202 -1.4553 -2.1257
  202MOL0     H27233   8.559   9.258   3.548  1.9108 -0.9291 -2.1883
  202MOL0     H27234   8.294   9.171   3.868 -3.7513 -2.1946 -0.3822
  202MOL0     H27235   8.063   9.200   3.988  3.5251  0.4857  1.7040
  202MOL0     H27236   7.981   9.528   4.138  0.3511  1.7445 -3.0136
  202MOL0     H27237   7.810   9.499   4.113  1.3832  1.7119 -3.1359
  202MOL0     H27238   7.999   9.267   4.205 -1.0091 -0.5846 -2.0866
  202MOL0     H27239   7.920   9.386   4.319 -0.9907 -0.5687  0.1929
  202MOL0     H27240   7.784   9.213   4.101 -1.6059  0.7114  0.1717
  202MOL0     H27241   7.698   9.311   4.223 -0.4191 -0.4330  2.3162
  202MOL0     H27242   7.892   9.086   4.272  0.3432  4.2111 -2.9754
  202MOL0     H27243   7.779   9.153   4.396  1.0946  0.9039 -0.3323
  202MOL0     H27244   7.682   9.024   4.133 -1.8993 -0.0829 -0.3169
  202MOL0     H27245   7.591   9.108   4.253 -1.0803 -0.2331 -0.4019
  202MOL0     H27246   7.759   8.857   4.323 -0.8601 -1.5661 -1.1589
  202MOL0     H27247   7.641   8.946   4.428 -0.5109 -1.4638  0.8013
  202MOL0     H27248   7.592   8.785   4.173 -4.4786 -0.3704 -1.4374
  202MOL0     H27249   7.470   8.859   4.263 -0.8650 -1.9309  0.0069
  202MOL0     H27250   7.538   8.714   4.459 -1.2406 -2.1141 -0.8340
  202MOL0     H27251   7.666   8.638   4.358 -0.7733 -2.9084 -0.5900
  202MOL0     H27252   8.046   9.604   3.869  0.6175  0.4003 -0.7749
  202MOL0     H27253   8.268   9.594   3.771 -3.2043  3.0273  2.5687
  202MOL0     H27254   8.762   9.486   3.944  1.3479 -1.2462 -0.0477
  202MOL0     H27255   8.966   9.566   3.839 -1.0387  0.8763  0.9595
  202MOL0     H27256  10.326  10.860   3.559 -1.0954  0.7126  1.0027
  202MOL0     H27257  10.532  10.812   3.668  1.1896 -0.5750  1.3355
  202MOL0     H27258  10.940  10.687   3.811  1.8306 -2.4371  0.6796
  202MOL0     H27259  11.138  10.726   3.964  0.5875  0.1411  2.0216
  202MOL0     H27260  11.088  10.915   4.328 -1.0172 -0.6368 -1.8403
  202MOL0     H27261  11.031  10.751   4.398 -0.0659  0.2927  1.5835
  202MOL0     H27262  11.296  10.894   4.368  0.3537  0.8952  1.3492
  202MOL0     H27263  11.297  10.720   4.420 -0.9857 -1.1335  2.4112
  202MOL0     H27264  11.187  10.768   4.613 -1.9309  0.8934 -0.0766
  202MOL0     H27265  11.135  10.938   4.570 -1.5936 -0.2384 -0.1547
  202MOL0     H27266  11.390  10.981   4.546  1.0566  0.6739  1.7234
  202MOL0     H27267  11.415  10.830   4.643 -0.9574 -1.5439 -1.6596
  202MOL0     H27268  11.327  11.110   4.941 -1.3551 -0.3148  0.9080
  202MOL0     H27269  10.869  10.719   4.288 -0.9598 -2.3760 -0.2464
  202MOL0     H27270  10.685  10.663   4.152  0.3773 -1.4632  0.6542
  203MOL0     O27271   4.540   2.432   9.434 -0.3534 -0.4431 -0.4388
  203MOL0     C27272   4.542   2.550   9.473  1.3600  0.3662 -0.6769
  203MOL0     O27273   4.431   2.636   9.478 -0.6440 -0.3260  0.2404
  203MOL0     C27274   4.308   2.581   9.458 -0.4119 -0.0073 -0.1279
  203MOL0     C27275   4.220   2.661   9.387 -0.0325 -0.3359  0.0017
  203MOL0     C27276   4.096   2.616   9.348  0.6269  0.2434 -0.2153
  203MOL0     C27277   4.049   2.489   9.386 -0.5182  0.4091  0.2412
  203MOL0     O27278   3.927   2.449   9.339 -0.3251  0.3695 -0.0121
  203MOL0     C27279   3.914   2.306   9.313 -0.3254 -0.0390 -0.0561
  203MOL0     C27280   3.784   2.276   9.257  0.0791  0.5835 -0.6044
  203MOL0     C27281   3.674   2.277   9.374  0.3208  0.2800 -0.1796
  203MOL0     C27282   3.553   2.179   9.353  0.0464 -0.0250  0.6961
  203MOL0     C27283   3.442   2.171   9.460 -0.5407 -0.5389 -0.3193
  203MOL0     C27284   3.328   2.088   9.410  0.1379 -0.4813 -0.2985
  203MOL0     C27285   3.208   2.085   9.518 -0.3305  0.2199 -0.4693
  203MOL0     C27286   3.082   2.010   9.470 -0.1556 -0.0262  0.3072
  203MOL0     N27287   2.975   1.989   9.571  1.0971 -0.1687 -0.0454
  203MOL0     C27288   3.000   1.913   9.681 -0.1274  1.0392  0.4933
  203MOL0     C27289   2.908   1.963   9.772  0.1224 -0.0340 -0.1186
  203MOL0     C27290   2.898   1.940   9.924 -0.1575 -0.2850  0.5826
  203MOL0     C27291   2.839   1.795   9.958  0.4338  0.0338  0.5162
  203MOL0     C27292   2.689   1.794   9.930  0.3278 -0.3715 -0.9965
  203MOL0     C27293   2.615   1.704  10.029  1.1503  0.4631 -0.1774
  203MOL0     O27294   2.637   1.735  10.173 -0.1084 -0.2283  1.1977
  203MOL0     C27295   2.652   1.641  10.268  0.0188  0.4400 -0.3766
  203MOL0     C27296   2.557   1.535  10.273 -0.3438 -0.3195  0.5814
  203MOL0     C27297   2.568   1.435  10.365  0.4329  0.3575 -1.1125
  203MOL0     C27298   2.463   1.335  10.348 -1.3538  0.1425 -0.2682
  203MOL0     C27299   2.683   1.428  10.452 -0.1314 -0.8788  0.0342
  203MOL0     C27300   2.710   1.309  10.546 -0.6880 -0.3122 -0.5198
  203MOL0     O27301   2.650   1.190  10.524 -0.1495 -0.5011 -0.4630
  203MOL0     C27302   2.671   1.089  10.605  0.2684  0.9104  0.9112
  203MOL0     C27303   2.564   1.015  10.653 -0.1787  0.2868  0.1085
  203MOL0     C27304   2.583   0.899  10.730  0.0268 -0.3416 -0.5856
  203MOL0     C27305   2.713   0.841  10.752  0.3542  0.0246 -0.4636
  203MOL0     O27306   2.747   0.736  10.836 -0.9639  0.4742 -0.6661
  203MOL0     C27307   2.656   0.673  10.920 -0.1540  0.3245 -0.3324
  203MOL0     C27308   2.596   0.544  10.848  0.3302  0.0592 -0.8100
  203MOL0     C27309   2.484   0.479  10.927  0.7063 -0.3317  0.3275
  203MOL0     C27310   2.457   0.335  10.896  0.7878  0.9039  0.9652
  203MOL0     C27311   2.315   0.286  10.958 -0.5652 -0.6923 -0.1204
  203MOL0     C27312   2.303   0.143  10.939  0.4507 -0.0522 -0.7202
  203MOL0     C27313   2.170   0.085  10.977  0.2501 -0.5221 -0.3196
  203MOL0     C27314   2.135   0.084  11.119 -1.3319 -1.1663 -0.0431
  203MOL0    Cl27315   2.223  -0.035  11.215 -0.0467  0.4947 -0.2829
  203MOL0     C27316   2.820   0.924  10.708  0.6289 -1.0536 -0.3160
  203MOL0     C27317   2.796   1.043  10.634 -0.1631  0.2283 -0.2319
  203MOL0     O27318   2.783   1.326  10.642 -0.2173 -0.7413 -0.8100
  203MOL0     C27319   2.763   1.541  10.455 -0.6639 -0.0419  0.4849
  203MOL0     C27320   2.750   1.641  10.364  0.3936  0.2053 -0.1853
  203MOL0     N27321   2.838   2.057   9.712  0.6423  0.0696  0.1048
  203MOL0     N27322   2.870   2.076   9.593  0.5327 -0.5704  1.0430
  203MOL0     C27323   4.134   2.408   9.473 -0.0778 -0.3916  0.7120
  203MOL0     C27324   4.261   2.458   9.510  0.6785 -0.0765 -0.8121
  203MOL0     C27325   4.666   2.592   9.533 -0.8958  0.5355 -0.4056
  203MOL0     C27326   4.672   2.721   9.588  0.1527  0.0305  0.4251
  203MOL0     C27327   4.799   2.770   9.629  0.3217 -0.5796  0.2710
  203MOL0     C27328   4.917   2.693   9.615  0.8995 -0.2905 -0.6255
  203MOL0     O27329   5.044   2.747   9.623  0.1548  0.2628 -0.1652
  203MOL0     C27330   5.072   2.868   9.687 -0.3435  0.1121  1.1535
  203MOL0     C27331   5.039   2.871   9.831  0.2051 -0.3378  0.0164
  203MOL0     C27332   5.138   2.771   9.899  0.2782 -0.4661  0.3879
  203MOL0     C27333   5.123   2.738  10.046  0.1777 -0.1154 -0.2603
  203MOL0     C27334   5.219   2.633  10.091  0.8645  0.0740 -0.6088
  203MOL0     C27335   5.303   2.551  10.119  0.2557  0.3702  0.5236
  203MOL0     C27336   4.902   2.569   9.564 -0.3284  0.7713  0.8138
  203MOL0     C27337   4.781   2.509   9.533  0.6228 -0.0953  0.1028
  203MOL0     H27338   4.257   2.756   9.348  2.2642 -1.0662  0.2191
  203MOL0     H27339   4.030   2.684   9.295 -0.1228  0.1822  0.6212
  203MOL0     H27340   3.990   2.276   9.240  0.7341 -1.8089  1.6869
  203MOL0     H27341   3.928   2.244   9.401  0.0304  0.3673  0.1771
  203MOL0     H27342   3.771   2.355   9.182 -1.0008 -0.5455 -1.6547
  203MOL0     H27343   3.793   2.181   9.203  3.6322 -1.9495  3.7952
  203MOL0     H27344   3.710   2.232   9.467 -1.4115 -1.1568 -0.1515
  203MOL0     H27345   3.643   2.380   9.395  1.3676  0.2753  1.5952
  203MOL0     H27346   3.506   2.205   9.258 -0.4068 -2.0188  0.3313
  203MOL0     H27347   3.605   2.084   9.342  0.8715  0.5599 -0.5593
  203MOL0     H27348   3.487   2.147   9.557  2.3364  2.1980 -0.8063
  203MOL0     H27349   3.400   2.269   9.482 -1.8350 -0.7531 -1.6995
  203MOL0     H27350   3.283   2.125   9.317  2.3374 -0.0173 -1.2343
  203MOL0     H27351   3.363   1.986   9.392 -2.0972 -1.1644 -1.0638
  203MOL0     H27352   3.243   2.031   9.606 -1.9350  0.9897  0.7054
  203MOL0     H27353   3.185   2.188   9.548  1.2941  1.1768 -2.2602
  203MOL0     H27354   3.099   1.918   9.413 -1.7271 -0.3029  0.2471
  203MOL0     H27355   3.032   2.066   9.390 -1.7875 -1.9002 -0.0747
  203MOL0     H27356   3.079   1.846   9.712  0.7766  0.4899 -2.6104
  203MOL0     H27357   2.996   1.958   9.970  0.7775 -2.8865 -0.1777
  203MOL0     H27358   2.830   2.006   9.978  0.5095  0.2104  0.8299
  203MOL0     H27359   2.851   1.775  10.065  0.3188  1.4890  0.8299
  203MOL0     H27360   2.891   1.722   9.896 -0.2402  0.2798 -0.3642
  203MOL0     H27361   2.674   1.761   9.827  0.3034 -1.1187 -0.7622
  203MOL0     H27362   2.649   1.894   9.949 -0.7538 -0.8518 -0.6523
  203MOL0     H27363   2.633   1.601   9.999  1.5755  0.2868  0.6484
  203MOL0     H27364   2.507   1.714  10.016  0.3455 -2.9773  2.4723
  203MOL0     H27365   2.471   1.550  10.208 -0.4792  0.5227  0.9557
  203MOL0     H27366   2.497   1.261  10.275  2.8847  0.7780  0.7908
  203MOL0     H27367   2.439   1.288  10.444  0.0120  1.9570  1.0242
  203MOL0     H27368   2.365   1.381  10.330 -1.0794  0.1229 -2.0438
  203MOL0     H27369   2.468   1.064  10.637 -1.5330 -2.3902 -0.4723
  203MOL0     H27370   2.493   0.858  10.777  0.4560 -1.7914 -0.9807
  203MOL0     H27371   2.708   0.648  11.014  0.6074  1.3288 -0.4671
  203MOL0     H27372   2.567   0.730  10.949 -0.2090  0.0698  0.0044
  203MOL0     H27373   2.552   0.574  10.753 -0.8169  3.4783  0.6096
  203MOL0     H27374   2.682   0.479  10.828  0.7425  0.3073  0.0808
  203MOL0     H27375   2.394   0.540  10.923  1.4741  0.8422  0.6077
  203MOL0     H27376   2.512   0.479  11.033 -0.1467 -1.3849  0.5749
  203MOL0     H27377   2.456   0.321  10.787 -1.4577 -0.3389  1.0945
  203MOL0     H27378   2.539   0.286  10.949  0.8634 -0.2488 -0.1793
  203MOL0     H27379   2.240   0.347  10.908  0.0395  0.5708  0.4648
  203MOL0     H27380   2.315   0.307  11.066 -2.7882 -1.5140  0.0827
  203MOL0     H27381   2.318   0.115  10.834  2.6426  4.1181 -1.7363
  203MOL0     H27382   2.376   0.092  11.002 -0.2019 -0.2577 -0.1209
  203MOL0     H27383   2.147  -0.009  10.926 -2.8089  0.4915 -0.9906
  203MOL0     H27384   2.099   0.159  10.940 -0.4241  0.2513  2.3011
  203MOL0     H27385   2.032   0.046  11.124 -1.0873 -2.2004 -1.9950
  203MOL0     H27386   2.149   0.184  11.160  0.9924 -0.4590 -2.3378
  203MOL0     H27387   2.921   0.888  10.726 -0.1618 -1.9114  3.0728
  203MOL0     H27388   2.880   1.098  10.592  1.3622  0.2055  2.5998
  203MOL0     H27389   2.842   1.549  10.529  2.7993 -0.6504 -2.8223
  203MOL0     H27390   2.814   1.728  10.373  0.9675 -0.3113  0.9607
  203MOL0     H27391   4.111   2.302   9.485  0.8238 -0.8982 -1.4644
  203MOL0     H27392   4.323   2.391   9.568 -1.9386  0.0446  2.4080
  203MOL0     H27393   4.583   2.781   9.598  1.1047  2.1787 -2.4472
  203MOL0     H27394   4.807   2.874   9.659  1.3179 -0.1092 -1.5231
  203MOL0     H27395   5.180   2.885   9.676 -0.4876  0.1403 -0.4206
  203MOL0     H27396   5.023   2.955   9.642  0.6099  0.5310  0.8816
  203MOL0     H27397   4.937   2.837   9.853  1.2916 -3.5002  0.6662
  203MOL0     H27398   5.052   2.974   9.864  1.3861 -0.0896 -1.1486
  203MOL0     H27399   5.240   2.809   9.890  0.7553 -1.6043  0.9054
  203MOL0     H27400   5.124   2.677   9.845 -0.5753 -0.5044  0.6483
  203MOL0     H27401   5.017   2.711  10.050 -0.6306  2.3249 -2.2672
  203MOL0     H27402   5.133   2.825  10.111 -0.3570  1.9797 -2.7840
  203MOL0     H27403   5.389   2.491  10.143  0.0340  0.9622  3.1435
  203MOL0     H27404   4.991   2.511   9.538 -0.2326  0.1374  2.4341
  203MOL0     H27405   4.776   2.408   9.492 -2.1817 -0.6982  1.6652
  204MOL0     O27406   3.677   9.501   0.063 -0.2478 -0.4169 -0.1491
  204MOL0     C27407   3.775   9.474   0.136 -0.0398  0.6846 -0.2524
  204MOL0     O27408   3.864   9.563   0.195  1.0779 -0.4996 -0.0761
  204MOL0     C27409   3.834   9.700   0.208 -0.2883  1.1155  0.1098
  204MOL0     C27410   3.933   9.791   0.190 -0.9566 -1.0021 -0.1889
  204MOL0     C27411   3.902   9.926   0.196  0.1646  0.3207  0.6648
  204MOL0     C27412   3.781   9.974   0.234  1.1070  1.0381  0.7269
  204MOL0     O27413   3.785  10.107   0.250 -0.8721 -0.3909  0.4776
  204MOL0     C27414   3.662  10.167   0.298  0.0368 -0.3510  0.4603
  204MOL0     C27415   3.690  10.319   0.308  0.6049 -0.9660 -0.2593
  204MOL0     C27416   3.563  10.405   0.345  0.2648  0.1210 -1.4088
  204MOL0     C27417   3.621  10.543   0.354 -0.0341  0.2426  1.1998
  204MOL0     C27418   3.512  10.653   0.348  0.5470 -0.4417 -0.9935
  204MOL0     C27419   3.467  10.685   0.207 -0.1613 -0.7960 -0.0181
  204MOL0     C27420   3.341  10.779   0.215 -0.5001  0.2005  0.1827
  204MOL0     C27421   3.291  10.836   0.081  0.6063 -0.5772  0.0526
  204MOL0     N27422   3.391  10.910   0.008  0.1828 -0.0119 -0.9456
  204MOL0     C27423   3.484  10.844  -0.068  0.1882 -0.2945  0.0198
  204MOL0     C27424   3.567  10.943  -0.102 -0.1003  1.1103  0.2606
  204MOL0     C27425   3.683  10.912  -0.194 -0.0063  0.0935 -0.1606
  204MOL0     C27426   3.809  10.864  -0.124 -0.5872  0.6000 -0.4410
  204MOL0     C27427   3.791  10.709  -0.091 -0.2889  0.1285 -0.6729
  204MOL0     C27428   3.926  10.634  -0.120 -0.1462  0.9743 -0.4251
  204MOL0     O27429   3.912  10.493  -0.098  0.2139  0.8162 -0.2734
  204MOL0     C27430   4.013  10.398  -0.099 -0.8009  0.0461  0.0065
  204MOL0     C27431   4.122  10.402  -0.184  0.2710 -0.1306  0.3918
  204MOL0     C27432   4.223  10.302  -0.193  0.7517  0.4496  0.9135
  204MOL0     C27433   4.340  10.320  -0.285  0.6044  0.4508  0.2296
  204MOL0     C27434   4.214  10.186  -0.118  0.2756  0.0415 -0.0619
  204MOL0     C27435   4.301  10.071  -0.111 -1.0784 -0.4600  0.0371
  204MOL0     O27436   4.258   9.964  -0.030  0.1065  0.2845  0.0647
  204MOL0     C27437   4.333   9.850  -0.013 -0.7571 -0.3955  0.2365
  204MOL0     C27438   4.378   9.791  -0.129 -0.1162  0.1214  1.1450
  204MOL0     C27439   4.470   9.686  -0.127  0.2951  0.1128 -0.3031
  204MOL0     C27440   4.516   9.632  -0.007  0.8575 -0.5560  0.4956
  204MOL0     O27441   4.607   9.526  -0.013  0.7210 -1.0519  0.4571
  204MOL0     C27442   4.621   9.443   0.100  0.2502  0.6226 -0.7656
  204MOL0     C27443   4.719   9.331   0.075 -0.6419 -0.4386  1.4584
  204MOL0     C27444   4.666   9.231  -0.031  0.4605  1.7031  0.1429
  204MOL0     C27445   4.764   9.120  -0.060  0.5295  0.6297 -0.1033
  204MOL0     C27446   4.709   9.031  -0.175  0.3183 -0.5779 -0.1728
  204MOL0     C27447   4.756   8.888  -0.171 -0.3696  0.4127  0.1996
  204MOL0     C27448   4.911   8.866  -0.191  0.7825  0.1128 -0.7727
  204MOL0     C27449   4.930   8.750  -0.292  0.1707 -0.6757 -0.1537
  204MOL0    Cl27450   5.101   8.744  -0.348  0.2103 -0.0594  0.2231
  204MOL0     C27451   4.469   9.690   0.114  0.1776 -0.1445  0.8720
  204MOL0     C27452   4.381   9.796   0.112 -0.1498  0.0677  0.6198
  204MOL0     O27453   4.408  10.077  -0.176  0.9584  0.2425  0.3103
  204MOL0     C27454   4.091  10.176  -0.041 -0.2085 -0.2828 -1.0663
  204MOL0     C27455   3.994  10.277  -0.035  0.6331  0.6691  0.1449
  204MOL0     N27456   3.525  11.057  -0.035 -0.7963  0.5183  0.2950
  204MOL0     N27457   3.421  11.040   0.030  0.0370  0.7582  0.0538
  204MOL0     C27458   3.674   9.877   0.248 -0.1689 -1.0106  0.3153
  204MOL0     C27459   3.701   9.744   0.226 -0.5146  0.2864 -0.0771
  204MOL0     C27460   3.799   9.330   0.174 -0.7388  0.5208  1.0611
  204MOL0     C27461   3.895   9.281   0.267 -0.3471  0.0701  1.1749
  204MOL0     C27462   3.900   9.147   0.290 -0.1517  0.2424 -0.0649
  204MOL0     C27463   3.809   9.057   0.231 -0.2155 -0.1212 -0.7858
  204MOL0     O27464   3.826   8.930   0.278  0.3890 -0.7187  0.6168
  204MOL0     C27465   3.715   8.832   0.270  0.7015 -1.0449  0.4885
  204MOL0     C27466   3.713   8.771   0.410  0.8421  0.2042  0.6795
  204MOL0     C27467   3.608   8.659   0.405 -0.0357  0.7344 -0.3032
  204MOL0     C27468   3.621   8.556   0.514  0.2112 -0.0084 -0.0292
  204MOL0     C27469   3.745   8.481   0.511 -0.8451 -0.9278  0.3280
  204MOL0     C27470   3.843   8.415   0.492  0.4307 -0.3717 -0.6133
  204MOL0     C27471   3.715   9.103   0.143  0.0337 -0.4432  0.6232
  204MOL0     C27472   3.719   9.233   0.115  0.4006 -0.3313  0.2110
  204MOL0     H27473   4.031   9.758   0.155 -1.1047 -2.2270  0.4892
  204MOL0     H27474   3.982   9.998   0.181 -1.8709  2.1221 -2.8031
  204MOL0     H27475   3.585  10.151   0.222 -1.1852 -0.1022  1.6112
  204MOL0     H27476   3.635  10.127   0.396 -3.4152 -0.5224 -0.4354
  204MOL0     H27477   3.775  10.347   0.371  1.0650 -1.4571 -0.6480
  204MOL0     H27478   3.721  10.356   0.210  0.2105 -0.6284 -0.2574
  204MOL0     H27479   3.479  10.397   0.276 -1.1158  1.3641  0.0413
  204MOL0     H27480   3.522  10.373   0.442 -0.1776  0.3254 -1.5289
  204MOL0     H27481   3.677  10.546   0.448  0.0323  0.0233  1.1697
  204MOL0     H27482   3.697  10.561   0.279 -2.9570  1.2951 -1.7412
  204MOL0     H27483   3.429  10.627   0.414  3.3086 -1.0227  2.5695
  204MOL0     H27484   3.555  10.738   0.402 -0.2070 -0.2012 -0.7670
  204MOL0     H27485   3.545  10.752   0.169  0.3883 -1.7054 -0.5304
  204MOL0     H27486   3.453  10.596   0.146 -1.9496 -0.4539 -0.1717
  204MOL0     H27487   3.266  10.712   0.258  0.2425 -0.4601  0.4840
  204MOL0     H27488   3.366  10.856   0.288  0.8190 -1.2765  1.3603
  204MOL0     H27489   3.199  10.896   0.088  0.7304  0.5952 -4.9747
  204MOL0     H27490   3.264  10.756   0.012 -0.5968  0.6183 -0.9137
  204MOL0     H27491   3.480  10.737  -0.086  2.9758 -0.3582 -0.8143
  204MOL0     H27492   3.651  10.852  -0.280 -0.9567  0.7065 -0.2430
  204MOL0     H27493   3.714  11.009  -0.232  2.6751  0.1875  1.9618
  204MOL0     H27494   3.823  10.920  -0.031 -0.7027  0.8568 -0.5761
  204MOL0     H27495   3.896  10.869  -0.190  0.2720 -3.2301  0.1812
  204MOL0     H27496   3.719  10.659  -0.157 -0.3484 -1.3216  0.4550
  204MOL0     H27497   3.758  10.706   0.013 -0.0807  1.8051 -0.5255
  204MOL0     H27498   4.010  10.677  -0.065 -0.9902  2.3853 -0.1803
  204MOL0     H27499   3.955  10.656  -0.223 -1.7194  2.6928 -0.5571
  204MOL0     H27500   4.133  10.494  -0.241 -0.9078  2.1614  3.5781
  204MOL0     H27501   4.335  10.248  -0.367  2.3842  0.4185  0.0957
  204MOL0     H27502   4.352  10.416  -0.337  1.6841 -0.7799 -1.9684
  204MOL0     H27503   4.435  10.308  -0.232  1.2637  1.3107 -0.7237
  204MOL0     H27504   4.351   9.834  -0.225 -1.0229  0.7980  1.6932
  204MOL0     H27505   4.502   9.632  -0.216 -1.8235 -4.1414  1.2498
  204MOL0     H27506   4.663   9.486   0.191 -1.6608 -0.7320  0.8235
  204MOL0     H27507   4.528   9.394   0.131  0.3561 -0.4100 -2.0004
  204MOL0     H27508   4.807   9.372   0.026 -0.6707 -1.6680  0.3028
  204MOL0     H27509   4.741   9.275   0.166 -1.4501 -1.5888  0.9766
  204MOL0     H27510   4.633   9.279  -0.124 -4.3439 -0.6625  0.3187
  204MOL0     H27511   4.570   9.190   0.003  0.6300 -1.1317 -2.3446
  204MOL0     H27512   4.860   9.163  -0.090  1.1017  0.5757  1.5349
  204MOL0     H27513   4.775   9.063   0.033 -2.0174 -0.4168 -0.3853
  204MOL0     H27514   4.748   9.076  -0.266  1.4771 -0.5233  0.3366
  204MOL0     H27515   4.600   9.030  -0.178  0.2038 -1.9900  1.9187
  204MOL0     H27516   4.729   8.840  -0.076 -0.7324 -0.2705 -0.2319
  204MOL0     H27517   4.699   8.827  -0.242 -1.7463  0.0951  1.5279
  204MOL0     H27518   4.966   8.845  -0.099  0.0627 -0.2961 -0.4300
  204MOL0     H27519   4.952   8.957  -0.237  0.5154 -0.4173 -2.1119
  204MOL0     H27520   4.865   8.784  -0.373 -1.3732 -1.2510  0.7905
  204MOL0     H27521   4.902   8.653  -0.247  1.3502 -0.2405  1.6179
  204MOL0     H27522   4.508   9.654   0.209 -1.0778 -1.0636  1.0686
  204MOL0     H27523   4.342   9.834   0.206 -0.5139  0.6907  0.2241
  204MOL0     H27524   4.065  10.086   0.014  0.8295 -0.7621 -1.3332
  204MOL0     H27525   3.900  10.259   0.016  0.3830 -1.5777 -0.9784
  204MOL0     H27526   3.577   9.916   0.279 -0.0143 -0.5838  0.2658
  204MOL0     H27527   3.618   9.674   0.226 -1.3615  1.2702 -0.6172
  204MOL0     H27528   3.948   9.365   0.312  0.1708  1.5617 -1.9184
  204MOL0     H27529   3.965   9.116   0.371 -1.3298 -2.4621 -0.0476
  204MOL0     H27530   3.616   8.875   0.255  0.2599 -1.4892  1.9717
  204MOL0     H27531   3.740   8.757   0.195 -2.9034 -1.4867 -0.4415
  204MOL0     H27532   3.694   8.851   0.481 -1.0883  0.1236  0.3301
  204MOL0     H27533   3.813   8.733   0.431  1.7057  3.0049  2.1160
  204MOL0     H27534   3.615   8.611   0.307  3.6161  4.5645 -2.2450
  204MOL0     H27535   3.510   8.707   0.410  0.1002  1.3064 -2.1647
  204MOL0     H27536   3.538   8.484   0.515 -1.1615  1.5047  1.4910
  204MOL0     H27537   3.612   8.612   0.608 -1.1653  2.7526 -1.6846
  204MOL0     H27538   3.919   8.340   0.487  1.2762  0.4919 -1.1889
  204MOL0     H27539   3.651   9.029   0.096 -0.2391  0.1177  0.1059
  204MOL0     H27540   3.636   9.259   0.049 -2.0008 -3.0007  1.9349
  205MOL0     O27541   3.487  11.242   4.188 -0.6429 -0.0115 -0.1643
  205MOL0     C27542   3.542  11.205   4.083  0.2871 -0.0248 -0.3937
  205MOL0     O27543   3.496  11.101   3.994  0.5538 -0.5119  0.0859
  205MOL0     C27544   3.364  11.089   3.958 -0.3349 -0.0575 -0.0425
  205MOL0     C27545   3.263  11.180   3.984  0.4074  0.0227  0.1200
  205MOL0     C27546   3.134  11.153   3.931 -0.4696 -0.1883 -0.4497
  205MOL0     C27547   3.107  11.035   3.868 -0.2416 -0.3495  0.0273
  205MOL0     O27548   2.990  11.001   3.805 -0.0250  0.1334 -0.3479
  205MOL0     C27549   2.868  11.059   3.858 -0.8487 -0.5728 -0.3492
  205MOL0     C27550   2.819  11.180   3.778 -0.1011 -0.1030  0.5130
  205MOL0     C27551   2.708  11.257   3.843 -0.5173 -0.0307  0.1098
  205MOL0     C27552   2.678  11.376   3.753 -0.3457  0.0776 -0.4179
  205MOL0     C27553   2.766  11.496   3.805 -0.3081  0.3983  0.2682
  205MOL0     C27554   2.705  11.588   3.910 -0.0916 -0.3775  0.4858
  205MOL0     C27555   2.768  11.728   3.895  0.6539 -0.1189 -0.3987
  205MOL0     C27556   2.693  11.832   3.964  0.5174 -0.5589 -0.0259
  205MOL0     N27557   2.567  11.879   3.880 -0.4267 -0.6042 -0.0991
  205MOL0     C27558   2.428  11.859   3.898 -0.3149 -0.3067 -0.8195
  205MOL0     C27559   2.363  11.904   3.789 -0.2811  0.1066 -0.4978
  205MOL0     C27560   2.216  11.893   3.752  0.3917  0.3692  0.5310
  205MOL0     C27561   2.181  11.963   3.620  0.1048 -0.5221  0.9477
  205MOL0     C27562   2.033  11.931   3.579 -0.0740 -0.2919 -0.4858
  205MOL0     C27563   1.989  11.983   3.440 -0.3300  0.4674  1.2101
  205MOL0     O27564   1.875  12.067   3.445 -0.8485  0.3826  0.1211
  205MOL0     C27565   1.772  12.031   3.359  0.1452 -1.2234  0.3862
  205MOL0     C27566   1.694  11.921   3.397 -0.5692 -0.4271 -0.0216
  205MOL0     C27567   1.567  11.900   3.329 -0.6155  0.0004 -0.2349
  205MOL0     C27568   1.459  11.809   3.391 -0.0859 -0.8914  0.0609
  205MOL0     C27569   1.537  11.977   3.208  0.1123  0.1724  0.8857
  205MOL0     C27570   1.409  11.958   3.129  0.8924 -0.4065 -0.1522
  205MOL0     O27571   1.378  12.064   3.050 -0.3418  0.4125  0.1279
  205MOL0     C27572   1.281  12.055   2.961 -0.3069 -0.2031 -0.9228
  205MOL0     C27573   1.162  12.110   2.996  0.5576 -0.0149 -0.1406
  205MOL0     C27574   1.053  12.107   2.906  0.9655 -1.0550 -0.2076
  205MOL0     C27575   1.068  12.060   2.778 -0.1641  0.0261  0.2329
  205MOL0     O27576   0.970  12.043   2.675 -0.5067 -0.1462 -0.2390
  205MOL0     C27577   0.837  12.026   2.728  0.5671  0.1108 -0.1052
  205MOL0     C27578   0.755  11.949   2.621 -0.3808  0.3796 -0.2587
  205MOL0     C27579   0.777  11.801   2.631 -1.4091  0.4506 -0.1809
  205MOL0     C27580   0.678  11.740   2.532 -0.9807 -0.1921 -0.8946
  205MOL0     C27581   0.702  11.585   2.520  0.0415 -0.4484  0.6534
  205MOL0     C27582   0.586  11.517   2.444  0.1086  0.4498 -0.2801
  205MOL0     C27583   0.602  11.372   2.432 -0.3406 -0.1844  0.2645
  205MOL0     C27584   0.479  11.306   2.362 -0.3015 -0.6287  0.1005
  205MOL0    Cl27585   0.496  11.128   2.368 -0.0302  0.0425 -0.0338
  205MOL0     C27586   1.192  12.009   2.735 -0.2042 -1.1356 -0.4161
  205MOL0     C27587   1.298  11.998   2.834 -0.2431  0.3390  1.6728
  205MOL0     O27588   1.329  11.864   3.140 -0.5047  0.2847 -0.0322
  205MOL0     C27589   1.628  12.081   3.169 -0.4797  0.2125  0.5091
  205MOL0     C27590   1.745  12.106   3.252 -0.4474  0.5203 -0.5289
  205MOL0     N27591   2.457  11.986   3.715  0.0839 -0.8074 -0.7197
  205MOL0     N27592   2.575  11.962   3.770  0.2398  0.2930 -0.0932
  205MOL0     C27593   3.207  10.951   3.829 -0.3611  0.6001 -0.4763
  205MOL0     C27594   3.336  10.978   3.872  0.5773  0.3145 -0.8693
  205MOL0     C27595   3.675  11.263   4.062 -0.7003  0.5005 -0.2472
  205MOL0     C27596   3.785  11.190   4.008  0.4567 -0.3069  0.2176
  205MOL0     C27597   3.911  11.236   3.985  0.1480 -0.0029 -0.2051
  205MOL0     C27598   3.937  11.367   4.028  0.3540  0.4348 -0.1570
  205MOL0     O27599   4.064  11.420   4.022 -0.4009 -0.2332 -0.1303
  205MOL0     C27600   4.131  11.440   4.145 -0.0975 -0.0461  0.1336
  205MOL0     C27601   4.179  11.584   4.143 -0.0931  0.5728 -0.1166
  205MOL0     C27602   4.312  11.612   4.070  0.5557 -0.6785 -0.6128
  205MOL0     C27603   4.311  11.754   4.017  0.3768 -0.2828 -0.6167
  205MOL0     C27604   4.436  11.787   3.955  1.0946 -0.1386 -1.2568
  205MOL0     C27605   4.547  11.821   3.912 -0.3741  1.5334  0.7217
  205MOL0     C27606   3.836  11.434   4.096 -0.0146 -0.2780  0.1276
  205MOL0     C27607   3.709  11.396   4.113  0.1053  0.9811 -1.0406
  205MOL0     H27608   3.271  11.280   4.026  2.6937 -0.8252  1.8706
  205MOL0     H27609   3.060  11.229   3.956 -0.1689 -0.1951  0.5308
  205MOL0     H27610   2.793  10.979   3.856  0.8139 -2.2097  0.2763
  205MOL0     H27611   2.876  11.091   3.963 -3.4117  0.3700 -0.3642
  205MOL0     H27612   2.902  11.247   3.753 -1.7174  2.1367  0.8758
  205MOL0     H27613   2.796  11.156   3.674 -0.4725 -2.7529  1.1501
  205MOL0     H27614   2.619  11.196   3.855  0.1310 -0.8562  0.8948
  205MOL0     H27615   2.734  11.300   3.940 -2.8599  0.9118  0.3820
  205MOL0     H27616   2.699  11.351   3.649  2.7916 -2.5477  0.6642
  205MOL0     H27617   2.573  11.403   3.767 -0.1052  0.7561  0.1519
  205MOL0     H27618   2.861  11.460   3.847  1.3212  2.7744 -1.1521
  205MOL0     H27619   2.781  11.560   3.717  2.0620  0.1774  0.4340
  205MOL0     H27620   2.599  11.603   3.887  0.8311  0.9317 -3.7268
  205MOL0     H27621   2.702  11.541   4.009 -0.5331 -0.1923  0.5615
  205MOL0     H27622   2.869  11.718   3.937 -0.2971 -0.7565  1.8946
  205MOL0     H27623   2.770  11.762   3.791 -2.5010  0.0619 -0.4739
  205MOL0     H27624   2.764  11.913   3.983 -0.1710  0.6474 -2.3480
  205MOL0     H27625   2.660  11.797   4.063  0.7457 -3.1601 -0.7836
  205MOL0     H27626   2.385  11.797   3.976  1.2539 -0.7511 -0.2641
  205MOL0     H27627   2.187  11.788   3.751 -0.7952  0.6892 -0.8700
  205MOL0     H27628   2.167  11.935   3.840 -1.3654  1.0193 -0.7082
  205MOL0     H27629   2.243  11.921   3.540 -1.6878  1.1574 -1.4995
  205MOL0     H27630   2.203  12.070   3.634 -1.2326 -0.2263  0.8995
  205MOL0     H27631   1.979  11.996   3.649  1.6647  1.5516 -0.7538
  205MOL0     H27632   2.019  11.823   3.570  2.0854 -0.4735 -2.5417
  205MOL0     H27633   1.972  11.900   3.371  3.1678  0.7737 -0.2297
  205MOL0     H27634   2.066  12.042   3.390  1.3517 -1.1747  1.7532
  205MOL0     H27635   1.732  11.844   3.462  0.5669 -0.4735 -0.7149
  205MOL0     H27636   1.503  11.776   3.486 -0.8264 -0.7357  0.4675
  205MOL0     H27637   1.370  11.866   3.420  0.8108  0.3432  0.4566
  205MOL0     H27638   1.427  11.729   3.324 -0.3212 -0.5852 -0.2000
  205MOL0     H27639   1.150  12.159   3.092  1.9785 -1.4940  0.8384
  205MOL0     H27640   0.964  12.161   2.938  0.4554 -1.6509 -0.5885
  205MOL0     H27641   0.836  11.977   2.825 -3.7858  0.1671  0.0693
  205MOL0     H27642   0.791  12.124   2.744 -4.0475 -2.0579  1.6677
  205MOL0     H27643   0.652  11.971   2.648 -0.0659  3.9386 -1.4074
  205MOL0     H27644   0.774  11.987   2.520  1.1118 -2.2597 -1.0867
  205MOL0     H27645   0.766  11.761   2.733 -0.8043 -1.2099 -0.7398
  205MOL0     H27646   0.876  11.769   2.597 -1.5430  1.4204 -1.5411
  205MOL0     H27647   0.576  11.753   2.569 -0.6687 -2.7602  1.2024
  205MOL0     H27648   0.687  11.785   2.433  1.3039  0.7608 -0.3088
  205MOL0     H27649   0.707  11.532   2.615  3.0607 -1.1199  0.2044
  205MOL0     H27650   0.802  11.578   2.476  0.0435  2.2690  0.0314
  205MOL0     H27651   0.506  11.524   2.519 -0.4565 -1.8418 -0.5953
  205MOL0     H27652   0.563  11.565   2.349  0.2793  1.4717  0.1799
  205MOL0     H27653   0.615  11.313   2.523 -0.1150 -3.4385 -1.7325
  205MOL0     H27654   0.686  11.351   2.364 -0.1119 -0.2148  0.5578
  205MOL0     H27655   0.493  11.337   2.258 -0.5515 -1.5071 -0.1961
  205MOL0     H27656   0.384  11.339   2.404 -0.5383  1.5409 -1.9394
  205MOL0     H27657   1.216  11.981   2.633  0.6564  3.1563 -1.6005
  205MOL0     H27658   1.383  11.938   2.804  1.2829  1.4760  3.5300
  205MOL0     H27659   1.608  12.153   3.090  1.6752 -0.4137 -0.6882
  205MOL0     H27660   1.815  12.183   3.224  0.7187 -0.5986 -0.8043
  205MOL0     H27661   3.170  10.867   3.772 -2.8140  0.0246  1.7539
  205MOL0     H27662   3.415  10.909   3.845  1.4058 -0.8940  3.7318
  205MOL0     H27663   3.762  11.085   3.988  0.6686 -0.1862 -0.6775
  205MOL0     H27664   3.999  11.178   3.959 -0.5410 -0.9879 -0.3882
  205MOL0     H27665   4.066  11.430   4.232  1.5140 -1.8064  1.2248
  205MOL0     H27666   4.211  11.366   4.154  0.0333  0.2483  1.8796
  205MOL0     H27667   4.180  11.623   4.245 -1.0617  1.4982 -0.4319
  205MOL0     H27668   4.102  11.642   4.090  0.0389  2.2875  1.4807
  205MOL0     H27669   4.314  11.532   3.995 -1.1494 -1.6563  0.3278
  205MOL0     H27670   4.393  11.598   4.142  1.9730  1.3907 -1.7129
  205MOL0     H27671   4.303  11.821   4.103  2.4157 -1.5810  0.6628
  205MOL0     H27672   4.222  11.757   3.953  0.1909  0.2160 -0.3427
  205MOL0     H27673   4.648  11.837   3.882  0.2187 -0.4961  1.4414
  205MOL0     H27674   3.872  11.527   4.140  0.2210  1.9662 -4.1850
  205MOL0     H27675   3.644  11.466   4.164  0.9745  0.0973  1.4432
  206MOL0     O27676   7.894   4.551   3.211  0.2155 -0.7436 -0.2618
  206MOL0     C27677   7.878   4.442   3.156  0.7858 -0.0950 -0.6507
  206MOL0     O27678   7.749   4.382   3.137 -0.2618  0.0893  0.1507
  206MOL0     C27679   7.638   4.437   3.197  0.2326 -0.4993  0.3372
  206MOL0     C27680   7.621   4.541   3.293  0.0657 -0.4003  1.0082
  206MOL0     C27681   7.496   4.571   3.338  0.3898 -1.0832 -0.2024
  206MOL0     C27682   7.380   4.516   3.294  0.1529  0.7378 -0.0589
  206MOL0     O27683   7.251   4.547   3.326 -0.0467 -0.0130 -1.0384
  206MOL0     C27684   7.212   4.624   3.444  0.3806 -0.5596  0.0710
  206MOL0     C27685   7.068   4.671   3.422  0.1985 -1.2666 -0.1031
  206MOL0     C27686   7.029   4.790   3.511 -0.2613  0.0131 -0.3472
  206MOL0     C27687   6.882   4.820   3.495 -0.2680  0.2925  0.6610
  206MOL0     C27688   6.828   4.922   3.585  0.8876 -0.1364 -0.3846
  206MOL0     C27689   6.692   4.965   3.535  0.6644  0.2722  0.6577
  206MOL0     C27690   6.626   5.074   3.623  0.3781  0.0580  0.8825
  206MOL0     C27691   6.488   5.108   3.575 -0.7012  0.4515 -0.5789
  206MOL0     N27692   6.424   5.206   3.661  0.2051 -0.4339  0.9121
  206MOL0     C27693   6.471   5.332   3.689  0.2534  0.0926 -0.4523
  206MOL0     C27694   6.371   5.383   3.773 -0.1992 -0.0721  0.1003
  206MOL0     C27695   6.382   5.523   3.836  0.6915 -0.0436  0.1013
  206MOL0     C27696   6.250   5.584   3.897  0.0897 -0.0012 -0.4114
  206MOL0     C27697   6.208   5.484   4.011  0.4739 -1.0183  0.3444
  206MOL0     C27698   6.081   5.531   4.062  0.3895  0.0391  0.2602
  206MOL0     O27699   5.969   5.495   3.974 -0.6556 -0.2457 -0.0662
  206MOL0     C27700   5.845   5.547   4.006  0.3864 -0.1341 -1.1282
  206MOL0     C27701   5.737   5.528   3.923 -0.3427 -0.1150  0.4890
  206MOL0     C27702   5.618   5.598   3.937 -0.4557  0.0005  0.2954
  206MOL0     C27703   5.498   5.553   3.843  0.1477 -0.1207 -0.6678
  206MOL0     C27704   5.603   5.684   4.054  0.3601 -0.7262  0.4444
  206MOL0     C27705   5.478   5.760   4.083 -0.5716 -0.7945 -0.2477
  206MOL0     O27706   5.461   5.814   4.203 -0.1089  0.3631 -1.0170
  206MOL0     C27707   5.344   5.885   4.229 -0.6357  0.2875  0.2505
  206MOL0     C27708   5.337   6.024   4.210 -0.0105 -0.0990 -0.1545
  206MOL0     C27709   5.219   6.082   4.235  0.2950  0.1527  0.3626
  206MOL0     C27710   5.106   6.004   4.278  0.0813 -0.3933  0.4680
  206MOL0     O27711   4.995   6.070   4.336 -0.1671  0.3320 -0.0638
  206MOL0     C27712   4.883   6.112   4.248  0.2627  0.3353  0.1052
  206MOL0     C27713   4.852   6.252   4.256  0.3680 -0.8887  0.7973
  206MOL0     C27714   4.724   6.283   4.169  0.5209  0.2329  0.2917
  206MOL0     C27715   4.685   6.430   4.179  0.0977 -0.2934  0.9045
  206MOL0     C27716   4.555   6.465   4.120 -0.1649  0.2446 -0.2223
  206MOL0     C27717   4.487   6.591   4.188  0.5095 -0.3998 -0.0449
  206MOL0     C27718   4.550   6.728   4.175 -0.1799  0.9898  0.0155
  206MOL0     C27719   4.578   6.761   4.025 -0.5784 -0.3628  0.1972
  206MOL0    Cl27720   4.688   6.906   4.031 -0.1886  0.0664  0.1482
  206MOL0     C27721   5.121   5.875   4.302  0.6094  0.8604 -0.0300
  206MOL0     C27722   5.240   5.807   4.270 -0.1055  0.4851  0.4438
  206MOL0     O27723   5.397   5.774   3.992 -0.2292 -0.3928  0.4945
  206MOL0     C27724   5.714   5.709   4.131 -0.3400  0.3946 -0.6626
  206MOL0     C27725   5.834   5.651   4.106 -0.0187 -0.2946  0.0060
  206MOL0     N27726   6.268   5.292   3.780 -0.1891  0.2048 -0.3113
  206MOL0     N27727   6.306   5.192   3.717 -1.0891  0.2262  0.3194
  206MOL0     C27728   7.392   4.426   3.188 -0.3937  0.9025  1.4120
  206MOL0     C27729   7.514   4.377   3.149 -0.7775  0.3542 -0.1500
  206MOL0     C27730   7.992   4.369   3.090 -0.7914 -1.3781 -0.2379
  206MOL0     C27731   7.966   4.270   2.991  0.1565 -0.2753 -0.2520
  206MOL0     C27732   8.072   4.213   2.929 -0.2181 -0.2156 -0.3430
  206MOL0     C27733   8.206   4.235   2.967  0.7228 -0.3513  0.8571
  206MOL0     O27734   8.303   4.176   2.885 -0.4169 -0.1502  0.5018
  206MOL0     C27735   8.400   4.104   2.960 -0.4260  0.0354 -0.0750
  206MOL0     C27736   8.534   4.088   2.876  0.3265  0.4770 -0.4825
  206MOL0     C27737   8.600   4.213   2.825  0.3512 -0.5524  0.9530
  206MOL0     C27738   8.747   4.182   2.835 -1.1467 -0.4787  0.7561
  206MOL0     C27739   8.797   4.061   2.761  0.9917 -0.5371  0.8649
  206MOL0     C27740   8.845   3.954   2.719 -0.7227 -0.5515 -0.3512
  206MOL0     C27741   8.225   4.325   3.072  0.0387 -0.1102 -0.5363
  206MOL0     C27742   8.121   4.391   3.134 -0.6047 -0.2036 -0.0427
  206MOL0     H27743   7.702   4.603   3.331  0.2662 -0.9325  1.4705
  206MOL0     H27744   7.475   4.652   3.407  1.3507  0.2247 -1.3825
  206MOL0     H27745   7.210   4.556   3.530  0.2026 -1.2271 -0.4456
  206MOL0     H27746   7.271   4.713   3.466 -1.2304  0.2728  1.2764
  206MOL0     H27747   7.059   4.711   3.320  3.8825 -0.1929 -0.1538
  206MOL0     H27748   6.998   4.589   3.440  0.3548 -1.6461 -1.1288
  206MOL0     H27749   7.050   4.766   3.616  0.3684  0.1898 -0.4277
  206MOL0     H27750   7.090   4.878   3.486 -2.0633  0.7842 -2.3196
  206MOL0     H27751   6.880   4.864   3.395 -0.2330 -2.8887 -0.8676
  206MOL0     H27752   6.825   4.726   3.490  2.9733 -1.8275  0.3142
  206MOL0     H27753   6.822   4.885   3.688  2.0900 -0.8094 -0.5321
  206MOL0     H27754   6.896   5.008   3.582  1.6014 -0.7167 -1.5220
  206MOL0     H27755   6.691   4.987   3.428  0.4768 -1.3486  0.3031
  206MOL0     H27756   6.640   4.869   3.545  0.5894  0.1472 -0.7765
  206MOL0     H27757   6.628   5.053   3.731  1.5107 -1.2781  0.6201
  206MOL0     H27758   6.683   5.167   3.613 -0.8814  0.6210 -1.9510
  206MOL0     H27759   6.424   5.020   3.584 -2.0611  1.4233 -0.4100
  206MOL0     H27760   6.498   5.150   3.475  0.4586 -0.6600 -0.9503
  206MOL0     H27761   6.557   5.383   3.647  0.9672 -0.7091  0.0093
  206MOL0     H27762   6.461   5.514   3.910  0.0086  0.7376  0.9456
  206MOL0     H27763   6.407   5.593   3.755 -1.9406  1.0686  0.1568
  206MOL0     H27764   6.168   5.596   3.826  1.5926  1.8509 -1.9468
  206MOL0     H27765   6.264   5.681   3.945  0.5792  0.5031 -1.5531
  206MOL0     H27766   6.268   5.501   4.101  1.1330  0.7318 -0.3684
  206MOL0     H27767   6.199   5.379   3.983  0.7655 -0.5929 -1.5004
  206MOL0     H27768   6.103   5.638   4.076  2.7297 -0.6288  2.3622
  206MOL0     H27769   6.067   5.491   4.163  0.8609 -1.7737 -0.3623
  206MOL0     H27770   5.747   5.469   3.832  3.5191  2.3625 -0.9547
  206MOL0     H27771   5.398   5.551   3.886 -0.4457 -0.4283 -2.0147
  206MOL0     H27772   5.489   5.634   3.770  1.1183  2.7090  2.1035
  206MOL0     H27773   5.515   5.454   3.800  3.0542  0.0178 -0.1068
  206MOL0     H27774   5.421   6.080   4.173  1.3888 -1.7910  0.3197
  206MOL0     H27775   5.227   6.190   4.223 -0.3313 -0.0242 -2.5540
  206MOL0     H27776   4.899   6.087   4.143 -1.0228  2.5260 -0.6878
  206MOL0     H27777   4.791   6.061   4.277 -0.6451  0.6709 -2.0115
  206MOL0     H27778   4.819   6.284   4.356 -0.5304  0.5017  0.0903
  206MOL0     H27779   4.935   6.317   4.230  1.6219 -2.3725  0.9417
  206MOL0     H27780   4.638   6.224   4.203  0.5872 -1.6539 -2.5460
  206MOL0     H27781   4.734   6.250   4.066  3.8713  1.3279  0.1475
  206MOL0     H27782   4.670   6.453   4.285  2.7035  2.4158  0.8100
  206MOL0     H27783   4.762   6.495   4.137  0.8301 -0.5842  1.7520
  206MOL0     H27784   4.495   6.376   4.142  1.9773 -1.2056  0.1305
  206MOL0     H27785   4.565   6.486   4.013 -2.6510 -0.7169 -0.7196
  206MOL0     H27786   4.387   6.595   4.144 -1.1438 -1.6658  3.2350
  206MOL0     H27787   4.467   6.563   4.292  0.9677 -0.0550  0.1395
  206MOL0     H27788   4.647   6.730   4.225 -0.4576 -0.2892  0.6570
  206MOL0     H27789   4.486   6.807   4.216 -0.8997  0.9605 -1.0072
  206MOL0     H27790   4.483   6.786   3.977 -0.5335 -0.6640 -0.0523
  206MOL0     H27791   4.625   6.677   3.973 -2.2890 -0.5808 -1.0990
  206MOL0     H27792   5.047   5.816   4.356 -0.7501  0.5243 -2.1040
  206MOL0     H27793   5.239   5.701   4.293 -0.0119  0.7710  1.8471
  206MOL0     H27794   5.709   5.784   4.209  0.2785 -1.1516  0.9079
  206MOL0     H27795   5.919   5.671   4.170 -0.5500 -1.9368  1.2869
  206MOL0     H27796   7.306   4.378   3.141  0.9634 -0.1748 -0.1069
  206MOL0     H27797   7.516   4.299   3.073 -2.3962 -1.1377  1.2751
  206MOL0     H27798   7.868   4.250   2.949  0.4875  1.4846 -2.0584
  206MOL0     H27799   8.052   4.143   2.848 -0.0362  0.1431 -0.7045
  206MOL0     H27800   8.427   4.165   3.047  0.2829  0.9371 -0.9027
  206MOL0     H27801   8.348   4.011   2.985 -2.9973  1.0281 -1.3003
  206MOL0     H27802   8.522   4.018   2.793 -0.2323 -1.6517  1.2992
  206MOL0     H27803   8.601   4.035   2.944  0.4860 -1.9116 -2.3538
  206MOL0     H27804   8.570   4.300   2.884 -1.5865  0.2348 -1.0725
  206MOL0     H27805   8.562   4.227   2.724  0.4817  0.5671  1.0492
  206MOL0     H27806   8.782   4.172   2.938  2.2211  0.0188 -0.2296
  206MOL0     H27807   8.805   4.262   2.789 -3.2124  0.5363 -0.2381
  206MOL0     H27808   8.890   3.867   2.678  0.2227 -0.2441  0.0054
  206MOL0     H27809   8.323   4.347   3.113  1.6883 -2.4059 -2.9130
  206MOL0     H27810   8.140   4.480   3.194  0.3705 -1.7678  2.1280
  207MOL0     O27811   7.004   8.129   8.576 -0.2674 -0.4461 -0.0099
  207MOL0     C27812   7.045   8.164   8.464 -0.5640 -0.2158 -0.1533
  207MOL0     O27813   6.992   8.258   8.389  0.2742  0.3184  0.6920
  207MOL0     C27814   6.860   8.287   8.397 -0.4205 -0.6280 -0.2430
  207MOL0     C27815   6.814   8.390   8.487  0.0412 -0.1055  0.2258
  207MOL0     C27816   6.685   8.433   8.481 -0.4368  0.4002 -0.3439
  207MOL0     C27817   6.597   8.381   8.387 -0.1227  1.1505  0.2835
  207MOL0     O27818   6.469   8.420   8.379 -0.8138  0.3620 -0.0726
  207MOL0     C27819   6.450   8.571   8.387  0.3596  0.2139  0.1428
  207MOL0     C27820   6.304   8.602   8.379  0.1105  0.5976 -0.5919
  207MOL0     C27821   6.206   8.495   8.304 -0.2261 -1.2435  0.6241
  207MOL0     C27822   6.233   8.508   8.157  0.6842  0.5177 -0.0330
  207MOL0     C27823   6.127   8.439   8.074  0.2599 -0.6965  0.7054
  207MOL0     C27824   6.089   8.294   8.103  0.2892 -0.7294  0.1334
  207MOL0     C27825   5.974   8.249   8.008  0.8048 -0.2268  0.4554
  207MOL0     C27826   5.954   8.092   8.009 -0.8751  0.0947  0.2394
  207MOL0     N27827   5.836   8.049   7.938 -0.0924  0.7527 -0.2024
  207MOL0     C27828   5.711   8.097   7.982  1.0862  0.4881 -0.1265
  207MOL0     C27829   5.639   8.061   7.879 -0.0210 -0.3290  0.6211
  207MOL0     C27830   5.499   8.115   7.855  0.3402 -0.3440 -0.1544
  207MOL0     C27831   5.397   8.010   7.919  0.0421 -0.4578 -0.2340
  207MOL0     C27832   5.264   8.091   7.927  0.0665  0.1407  0.4183
  207MOL0     C27833   5.164   7.999   8.004  0.0019 -0.4391  0.2398
  207MOL0     O27834   5.040   8.075   8.036  0.3869  0.1612  1.1132
  207MOL0     C27835   4.936   8.012   8.093  1.5171  0.2110 -0.6771
  207MOL0     C27836   4.936   7.889   8.147  0.9130  0.4419 -0.9267
  207MOL0     C27837   4.826   7.825   8.207  0.0266  0.1299 -0.2352
  207MOL0     C27838   4.834   7.677   8.245 -0.1840 -0.1897 -0.9332
  207MOL0     C27839   4.711   7.907   8.208  0.5847  0.2332  0.6233
  207MOL0     C27840   4.585   7.860   8.281 -0.6894 -0.7393 -0.1919
  207MOL0     O27841   4.580   7.741   8.329 -0.3093  0.6890 -0.7540
  207MOL0     C27842   4.484   7.734   8.428 -0.2337 -0.7854 -0.3066
  207MOL0     C27843   4.519   7.709   8.563  0.2421  0.7884 -0.1605
  207MOL0     C27844   4.422   7.688   8.660 -0.3355 -0.5841  0.0598
  207MOL0     C27845   4.283   7.672   8.623  0.2816 -0.8970 -0.0803
  207MOL0     O27846   4.184   7.645   8.715 -0.6432  0.4441 -0.1786
  207MOL0     C27847   4.204   7.629   8.856 -0.6548 -0.1368 -0.0103
  207MOL0     C27848   4.259   7.488   8.888 -0.1738  0.8860 -0.2006
  207MOL0     C27849   4.258   7.462   9.037 -0.2343  0.5177 -0.8912
  207MOL0     C27850   4.306   7.322   9.065  0.8864 -0.8973 -0.3622
  207MOL0     C27851   4.302   7.293   9.222  0.6364  0.2860 -0.1273
  207MOL0     C27852   4.363   7.155   9.257  0.5141  0.3717 -0.3690
  207MOL0     C27853   4.334   7.127   9.405 -0.0024 -0.4468  0.6276
  207MOL0     C27854   4.438   7.036   9.444 -0.6629 -0.1672 -0.2365
  207MOL0    Cl27855   4.384   6.952   9.598 -0.0162 -0.0607  0.4875
  207MOL0     C27856   4.252   7.695   8.490  0.4851  1.3328  0.0019
  207MOL0     C27857   4.343   7.732   8.392 -0.0352  0.0559  0.0294
  207MOL0     O27858   4.496   7.943   8.282  0.1325 -0.3456  0.7892
  207MOL0     C27859   4.705   8.037   8.159 -0.1621 -1.0439  1.1676
  207MOL0     C27860   4.817   8.088   8.102 -1.4905  0.0829 -0.1657
  207MOL0     N27861   5.701   7.983   7.788  0.2374 -0.1609 -0.2177
  207MOL0     N27862   5.822   7.963   7.833 -0.9262 -0.2365  0.2352
  207MOL0     C27863   6.635   8.270   8.308 -0.6312 -0.4402  0.5249
  207MOL0     C27864   6.765   8.230   8.304 -0.2184  0.0446  0.3886
  207MOL0     C27865   7.165   8.109   8.417 -0.8075 -0.7378  0.0763
  207MOL0     C27866   7.265   8.181   8.331 -0.4279 -0.7152  0.0318
  207MOL0     C27867   7.379   8.115   8.306 -0.5575 -0.4223 -0.5292
  207MOL0     C27868   7.414   7.988   8.343  0.6901  0.4558 -0.0074
  207MOL0     O27869   7.539   7.919   8.339  0.5012  0.1227  0.0701
  207MOL0     C27870   7.658   7.984   8.302  0.1641 -0.1524 -0.2771
  207MOL0     C27871   7.776   7.894   8.320 -0.0751  0.4182  0.7033
  207MOL0     C27872   7.802   7.837   8.462  1.5654  0.2618  0.8360
  207MOL0     C27873   7.939   7.757   8.459  0.2069  0.4556  0.0034
  207MOL0     C27874   7.973   7.709   8.589 -0.5740  1.1348 -0.5594
  207MOL0     C27875   7.993   7.681   8.708  0.4180  0.2002  0.4685
  207MOL0     C27876   7.326   7.919   8.427  0.1737 -0.5143 -0.0125
  207MOL0     C27877   7.203   7.978   8.464  0.1065  1.0443  0.3905
  207MOL0     H27878   6.890   8.432   8.552  2.1909 -0.1637 -2.1130
  207MOL0     H27879   6.647   8.499   8.558  0.2269  1.1803 -0.6766
  207MOL0     H27880   6.481   8.609   8.485  1.9689  1.6313 -0.8703
  207MOL0     H27881   6.521   8.606   8.311 -0.1442 -0.7422 -0.8007
  207MOL0     H27882   6.277   8.612   8.484  0.5674  1.8383 -0.5852
  207MOL0     H27883   6.280   8.698   8.333  0.1590  0.7303 -0.3411
  207MOL0     H27884   6.215   8.393   8.341 -0.8657 -1.0468  1.3282
  207MOL0     H27885   6.101   8.518   8.324 -0.3577  0.8211 -1.8352
  207MOL0     H27886   6.247   8.613   8.128  1.6757  0.2439 -0.6111
  207MOL0     H27887   6.324   8.450   8.142 -1.1968 -2.4181 -0.8315
  207MOL0     H27888   6.041   8.506   8.069  0.6480 -0.1887  0.6913
  207MOL0     H27889   6.171   8.433   7.974 -1.6655  0.9548 -0.3145
  207MOL0     H27890   6.184   8.241   8.089  0.5290 -1.1454  2.7560
  207MOL0     H27891   6.056   8.278   8.206 -0.7684 -0.4425 -0.1475
  207MOL0     H27892   5.876   8.287   8.035 -0.0308 -1.6185 -0.4744
  207MOL0     H27893   6.005   8.276   7.907  1.1539 -4.0234 -0.6385
  207MOL0     H27894   5.944   8.052   8.110 -2.8685  1.3667  0.5911
  207MOL0     H27895   6.042   8.053   7.957 -0.5240  3.4844 -2.0415
  207MOL0     H27896   5.684   8.150   8.073 -0.9255 -1.2220  0.3296
  207MOL0     H27897   5.484   8.214   7.899 -1.1793 -1.9484  3.3048
  207MOL0     H27898   5.473   8.117   7.749 -4.4629 -0.5083  0.7606
  207MOL0     H27899   5.435   7.986   8.019 -0.2611  2.8154  0.7814
  207MOL0     H27900   5.400   7.915   7.865  2.3598 -0.2237 -0.6085
  207MOL0     H27901   5.223   8.098   7.826  0.6002 -1.2563  0.0746
  207MOL0     H27902   5.278   8.192   7.967  0.7924 -0.2282  1.1006
  207MOL0     H27903   5.207   7.970   8.100  1.7071 -3.1774 -1.2170
  207MOL0     H27904   5.141   7.908   7.947 -2.3225  0.7883 -0.9494
  207MOL0     H27905   5.026   7.828   8.152  0.7292 -0.0546 -2.8580
  207MOL0     H27906   4.833   7.657   8.352 -0.9485 -1.5246 -1.1742
  207MOL0     H27907   4.744   7.623   8.215 -1.5357  0.9302  0.9058
  207MOL0     H27908   4.925   7.629   8.208  0.0136 -0.6375  0.1139
  207MOL0     H27909   4.622   7.726   8.591  1.0095 -0.5315 -1.9951
  207MOL0     H27910   4.436   7.671   8.766  0.0736  0.8353  0.2532
  207MOL0     H27911   4.275   7.700   8.899  0.3777 -2.5111  2.5450
  207MOL0     H27912   4.115   7.652   8.915  0.9697  1.6383  1.8927
  207MOL0     H27913   4.196   7.406   8.853  1.5791 -0.7232  0.2111
  207MOL0     H27914   4.361   7.472   8.851  0.9721 -1.8015  3.5585
  207MOL0     H27915   4.155   7.476   9.070  0.1752 -0.4934  0.9373
  207MOL0     H27916   4.323   7.535   9.088  1.8845 -1.3145 -0.8110
  207MOL0     H27917   4.251   7.244   9.011 -1.2897  0.7055 -0.6100
  207MOL0     H27918   4.409   7.304   9.032  0.1555 -1.6729 -2.3998
  207MOL0     H27919   4.197   7.296   9.253  0.5166 -2.0220 -0.1692
  207MOL0     H27920   4.357   7.371   9.275  0.9352 -1.4009  2.1965
  207MOL0     H27921   4.329   7.074   9.192  1.8337 -1.6625  1.3492
  207MOL0     H27922   4.471   7.165   9.243  0.8533  1.9471  2.5962
  207MOL0     H27923   4.233   7.093   9.429 -0.4765  0.5073  0.0510
  207MOL0     H27924   4.334   7.225   9.452  2.0337 -0.1391  0.0815
  207MOL0     H27925   4.535   7.082   9.461 -0.0207 -0.7104 -2.1378
  207MOL0     H27926   4.453   6.954   9.372  0.2674 -1.0291  0.9106
  207MOL0     H27927   4.149   7.707   8.460 -0.0625 -2.3187  0.0521
  207MOL0     H27928   4.310   7.741   8.289  0.9413  3.3738 -0.1132
  207MOL0     H27929   4.613   8.094   8.147  0.4256 -0.5828 -1.9374
  207MOL0     H27930   4.814   8.188   8.061  3.4341  0.3871 -0.4283
  207MOL0     H27931   6.564   8.217   8.245 -1.9177 -0.0864  1.6257
  207MOL0     H27932   6.797   8.154   8.234 -1.2167 -3.1759  3.1722
  207MOL0     H27933   7.249   8.277   8.283  1.1159  0.1097  1.0974
  207MOL0     H27934   7.452   8.169   8.247  0.8175 -0.2304  1.2440
  207MOL0     H27935   7.655   8.033   8.204 -0.5087  1.3895  0.4710
  207MOL0     H27936   7.676   8.066   8.373 -2.2177  2.2430 -2.2119
  207MOL0     H27937   7.856   7.965   8.298 -1.4305  0.6079 -5.5311
  207MOL0     H27938   7.793   7.815   8.246  2.6163  1.8230 -0.2769
  207MOL0     H27939   7.720   7.770   8.490  1.0285  0.2581 -0.6586
  207MOL0     H27940   7.799   7.908   8.545 -0.9941  1.2029  0.0388
  207MOL0     H27941   8.018   7.822   8.419 -0.9425  2.4217  0.7597
  207MOL0     H27942   7.909   7.677   8.391 -2.4390  1.8956 -0.6702
  207MOL0     H27943   7.994   7.650   8.811 -0.5941  0.7995  0.6757
  207MOL0     H27944   7.350   7.818   8.459 -2.3607 -2.0003 -2.3247
  207MOL0     H27945   7.137   7.923   8.530 -1.9445 -0.6376 -2.8284
  208MOL0     O27946  10.963   5.934   1.723 -0.2546  0.0285 -0.3925
  208MOL0     C27947  10.958   5.973   1.835 -0.4036 -0.1359 -0.3409
  208MOL0     O27948  10.858   5.948   1.925 -0.4421  0.0583  1.2654
  208MOL0     C27949  10.751   5.876   1.887  0.2200  0.3474 -0.8685
  208MOL0     C27950  10.630   5.939   1.898 -0.5781 -0.4975  0.1209
  208MOL0     C27951  10.510   5.859   1.880 -0.5807  0.3518 -0.2457
  208MOL0     C27952  10.519   5.715   1.853  0.5857  0.1623  0.3266
  208MOL0     O27953  10.411   5.631   1.836 -0.0325  0.2662  0.4109
  208MOL0     C27954  10.283   5.686   1.808  0.2369  0.3230  0.0453
  208MOL0     C27955  10.174   5.568   1.760  0.3926 -1.2265 -0.0138
  208MOL0     C27956  10.091   5.631   1.649 -0.5507  0.4014 -0.0332
  208MOL0     C27957   9.966   5.548   1.607 -0.3672  0.2686 -0.1370
  208MOL0     C27958   9.892   5.625   1.491 -0.9769 -0.4976 -0.0613
  208MOL0     C27959   9.763   5.555   1.458 -0.6194 -0.3694  0.0913
  208MOL0     C27960   9.680   5.656   1.375  0.3609  0.4316 -0.3130
  208MOL0     C27961   9.558   5.585   1.310  0.0125 -0.8094 -0.8828
  208MOL0     N27962   9.452   5.550   1.407 -0.1032 -0.6143 -0.0703
  208MOL0     C27963   9.364   5.446   1.379  0.6561  0.3586  0.8871
  208MOL0     C27964   9.276   5.445   1.475 -0.5837  0.4724 -0.1413
  208MOL0     C27965   9.161   5.344   1.494 -0.3409  1.1637 -0.3367
  208MOL0     C27966   9.016   5.394   1.468  0.2495 -0.0197 -0.5923
  208MOL0     C27967   8.977   5.474   1.590  0.1343 -0.7421  0.6498
  208MOL0     C27968   8.851   5.552   1.568  0.4424 -0.7946  0.2083
  208MOL0     O27969   8.836   5.671   1.647  0.4913 -0.1753 -0.4982
  208MOL0     C27970   8.922   5.778   1.633 -0.2758  0.2558  0.5377
  208MOL0     C27971   8.890   5.885   1.701  0.1285 -0.6856  0.6383
  208MOL0     C27972   8.965   6.006   1.711  1.4028 -0.5770  1.0604
  208MOL0     C27973   8.914   6.112   1.797 -0.3603  0.1045  0.2333
  208MOL0     C27974   9.082   6.019   1.630 -0.2185  0.1638 -0.8197
  208MOL0     C27975   9.164   6.146   1.618 -0.5771  0.8356  0.8557
  208MOL0     O27976   9.239   6.155   1.505  0.1385 -0.3875  0.3129
  208MOL0     C27977   9.317   6.261   1.480 -0.0534 -0.3361 -0.0155
  208MOL0     C27978   9.273   6.391   1.493  0.2463  0.0514 -0.1223
  208MOL0     C27979   9.344   6.501   1.459 -0.1997 -0.2379 -0.1633
  208MOL0     C27980   9.476   6.489   1.410 -0.0915 -0.2043 -0.3506
  208MOL0     O27981   9.563   6.590   1.397 -0.9205 -0.1078  0.0378
  208MOL0     C27982   9.513   6.721   1.365 -0.5146 -0.0049  0.5179
  208MOL0     C27983   9.631   6.808   1.382  0.4887  0.1409  0.5356
  208MOL0     C27984   9.653   6.833   1.523  0.2772 -0.1016  0.5306
  208MOL0     C27985   9.769   6.941   1.552 -0.2247  0.3930  0.0958
  208MOL0     C27986   9.902   6.878   1.537  0.1446  0.0582  0.9934
  208MOL0     C27987  10.013   6.965   1.595  0.5447 -0.2111 -0.2970
  208MOL0     C27988  10.156   6.929   1.559  0.3347 -0.2753  1.4710
  208MOL0     C27989  10.178   6.778   1.558  0.2665 -0.0745 -0.3766
  208MOL0    Cl27990  10.352   6.750   1.531 -0.2610  0.2200  0.2042
  208MOL0     C27991   9.520   6.356   1.393  0.1131  0.3719  0.3391
  208MOL0     C27992   9.439   6.243   1.420  0.8332 -0.8523  0.4301
  208MOL0     O27993   9.168   6.228   1.706  0.8917 -0.1271 -0.0513
  208MOL0     C27994   9.120   5.901   1.548  0.1892 -0.8249  1.0476
  208MOL0     C27995   9.033   5.791   1.547  0.1922  0.2596  0.0346
  208MOL0     N27996   9.307   5.552   1.563  0.0581  0.0899  0.3490
  208MOL0     N27997   9.420   5.606   1.528 -0.0899 -0.1085  0.7723
  208MOL0     C27998  10.647   5.667   1.836 -0.0882 -0.1249 -0.1098
  208MOL0     C27999  10.760   5.746   1.856 -0.0760  0.0084  0.5562
  208MOL0     C28000  11.079   6.028   1.891  0.9143 -0.3053 -0.3384
  208MOL0     C28001  11.076   6.075   2.024  0.0089 -0.3244 -1.1196
  208MOL0     C28002  11.200   6.117   2.093  0.2911  0.1893  0.4372
  208MOL0     C28003  11.327   6.125   2.018  0.6596 -0.3148 -0.0484
  208MOL0     O28004  11.437   6.176   2.082 -0.0064 -1.0551  0.0407
  208MOL0     C28005  11.569   6.168   2.023 -0.7155  0.2902 -0.2922
  208MOL0     C28006  11.674   6.194   2.132 -0.9175  0.2996 -0.4294
  208MOL0     C28007  11.674   6.348   2.181  0.4359  0.0764 -0.2370
  208MOL0     C28008  11.756   6.375   2.313  0.2003 -0.4969 -0.2086
  208MOL0     C28009  11.899   6.366   2.274  0.7975  0.1524 -0.5388
  208MOL0     C28010  12.010   6.350   2.233  0.5983  0.1202 -0.2578
  208MOL0     C28011  11.325   6.065   1.885  0.3207  0.1967  0.2855
  208MOL0     C28012  11.204   6.029   1.825 -0.9256  0.1312 -0.1256
  208MOL0     H28013  10.627   6.042   1.933 -3.1842 -0.4051 -0.1622
  208MOL0     H28014  10.412   5.905   1.881 -0.4358  0.6644  0.2501
  208MOL0     H28015  10.260   5.736   1.902  0.4198 -0.2410  0.3971
  208MOL0     H28016  10.298   5.752   1.722  1.9470  1.0882  0.8992
  208MOL0     H28017  10.244   5.489   1.732  2.3701  0.2109  0.6057
  208MOL0     H28018  10.115   5.533   1.845  3.8747 -0.9852  2.7621
  208MOL0     H28019  10.074   5.739   1.662  3.0780  1.1465 -0.3056
  208MOL0     H28020  10.152   5.640   1.559 -0.5058  1.8340  0.1062
  208MOL0     H28021   9.994   5.451   1.564  0.3625  0.6715 -0.5966
  208MOL0     H28022   9.908   5.531   1.698  0.0952  4.3346  1.0913
  208MOL0     H28023   9.854   5.722   1.526 -1.9989 -0.5181 -1.0553
  208MOL0     H28024   9.959   5.629   1.405 -1.1019  1.0926 -0.1225
  208MOL0     H28025   9.793   5.468   1.400  2.1264  0.0549  0.7383
  208MOL0     H28026   9.713   5.523   1.551  1.0489 -0.4945  0.9849
  208MOL0     H28027   9.646   5.740   1.437 -3.1938 -1.1296  0.0989
  208MOL0     H28028   9.743   5.678   1.289  1.2007 -0.8945 -0.0622
  208MOL0     H28029   9.595   5.496   1.259  2.5029 -0.1114 -0.4584
  208MOL0     H28030   9.504   5.655   1.245 -1.4013 -0.9551  0.0754
  208MOL0     H28031   9.353   5.376   1.297  2.1671  0.0319  0.9222
  208MOL0     H28032   9.174   5.252   1.436 -3.5451 -1.2117  2.3014
  208MOL0     H28033   9.170   5.312   1.598  1.0453  2.5810  0.0115
  208MOL0     H28034   8.949   5.309   1.458  0.3513 -0.7940  3.4686
  208MOL0     H28035   9.013   5.459   1.380  0.1029  0.2428 -0.3938
  208MOL0     H28036   9.061   5.543   1.602  0.4493 -1.2377  1.3505
  208MOL0     H28037   8.963   5.419   1.683  0.7314  0.2043  1.3212
  208MOL0     H28038   8.758   5.495   1.574 -1.2082  1.6617 -0.4772
  208MOL0     H28039   8.850   5.579   1.462 -2.6222 -1.0474  0.0822
  208MOL0     H28040   8.802   5.873   1.763  0.7612 -1.2442  1.4498
  208MOL0     H28041   8.914   6.212   1.754  1.4547 -0.6489 -1.6572
  208MOL0     H28042   8.809   6.097   1.826 -0.4014  2.1618  1.3388
  208MOL0     H28043   8.969   6.098   1.891  2.8863 -0.5292 -1.6286
  208MOL0     H28044   9.166   6.390   1.511  0.6014 -1.1049  2.2104
  208MOL0     H28045   9.300   6.598   1.477  1.4791  0.1465  2.3053
  208MOL0     H28046   9.481   6.727   1.260  0.0889  1.2603  0.3868
  208MOL0     H28047   9.419   6.753   1.411 -2.7849 -1.4548 -2.7027
  208MOL0     H28048   9.717   6.758   1.337 -1.3254 -0.9674 -1.8961
  208MOL0     H28049   9.613   6.901   1.327 -0.9493 -1.1512 -1.3102
  208MOL0     H28050   9.672   6.740   1.578  2.3565 -0.8972 -1.3918
  208MOL0     H28051   9.555   6.869   1.557 -0.0844 -0.9138  0.3812
  208MOL0     H28052   9.761   7.017   1.474 -0.0755 -0.4650 -0.7692
  208MOL0     H28053   9.757   6.994   1.647  2.0578  4.6564 -1.7179
  208MOL0     H28054   9.913   6.853   1.431 -0.9362  3.2029  0.0107
  208MOL0     H28055   9.903   6.780   1.586 -0.7438 -1.4733 -1.7895
  208MOL0     H28056  10.009   7.066   1.553 -2.9576  0.3753  1.1620
  208MOL0     H28057  10.005   6.970   1.704 -2.0351  2.1484 -0.4875
  208MOL0     H28058  10.228   6.976   1.627  1.4396  1.4964 -0.7974
  208MOL0     H28059  10.191   6.971   1.465 -2.1053 -1.0595  0.1272
  208MOL0     H28060  10.118   6.729   1.481 -0.8627  2.1756 -1.0259
  208MOL0     H28061  10.146   6.729   1.650  1.6067  2.0594  1.3373
  208MOL0     H28062   9.623   6.344   1.362  0.1642  1.1943  0.1636
  208MOL0     H28063   9.473   6.143   1.396 -1.7008 -1.6816 -0.0060
  208MOL0     H28064   9.210   5.917   1.490 -0.4586  1.5896  0.6393
  208MOL0     H28065   9.062   5.712   1.478 -1.8411 -0.0883 -0.4840
  208MOL0     H28066  10.661   5.561   1.819  0.4838  0.0123 -0.5412
  208MOL0     H28067  10.859   5.703   1.839 -0.9211 -0.9311 -2.8270
  208MOL0     H28068  10.982   6.076   2.079  0.2513  3.7905 -0.4438
  208MOL0     H28069  11.207   6.142   2.198 -2.3115 -0.6289  0.8816
  208MOL0     H28070  11.587   6.067   1.985  1.0586  0.7374 -0.7083
  208MOL0     H28071  11.588   6.238   1.941  2.2315 -0.2818 -0.2139
  208MOL0     H28072  11.775   6.172   2.098 -1.2914 -0.4052 -1.1321
  208MOL0     H28073  11.655   6.124   2.214 -0.7564 -4.0265 -3.7425
  208MOL0     H28074  11.575   6.391   2.197  1.0232  0.5817  2.6053
  208MOL0     H28075  11.702   6.412   2.097  0.4421 -0.3079 -0.5325
  208MOL0     H28076  11.735   6.301   2.390 -0.1461  1.0972  1.3002
  208MOL0     H28077  11.720   6.470   2.352  0.9849 -0.7043  1.0670
  208MOL0     H28078  12.102   6.315   2.193 -0.2874  0.9029 -3.2020
  208MOL0     H28079  11.418   6.050   1.833  0.1285  1.7232 -0.5684
  208MOL0     H28080  11.209   5.991   1.723 -1.5843  2.0808 -0.9312
  209MOL0     O28081   1.272   4.921   0.969  0.2684  0.5412 -0.2429
  209MOL0     C28082   1.261   4.909   0.845  0.7940  0.7712 -0.2285
  209MOL0     O28083   1.357   4.872   0.759 -0.4385  0.3357 -0.5735
  209MOL0     C28084   1.490   4.886   0.795 -1.1871 -0.4568 -0.0927
  209MOL0     C28085   1.547   4.998   0.855  0.5569 -0.2886 -0.6358
  209MOL0     C28086   1.685   5.027   0.854 -1.0195 -0.4138 -0.4045
  209MOL0     C28087   1.779   4.930   0.802 -0.1773  0.5281 -0.3414
  209MOL0     O28088   1.911   4.957   0.831 -0.3999  0.9054  0.7589
  209MOL0     C28089   1.978   5.066   0.769 -0.0063  0.3285 -0.4562
  209MOL0     C28090   2.118   5.073   0.835  0.1383  0.5412  0.6286
  209MOL0     C28091   2.201   4.955   0.795  0.6402  0.6022 -0.5752
  209MOL0     C28092   2.330   4.915   0.865  0.2000  0.1306  0.0811
  209MOL0     C28093   2.416   4.822   0.783  0.3448  0.4648  0.1488
  209MOL0     C28094   2.482   4.878   0.656 -0.7267 -0.2438 -0.6576
  209MOL0     C28095   2.558   4.757   0.590  0.0500 -0.4620  0.0426
  209MOL0     C28096   2.637   4.800   0.469 -0.5887 -0.4932 -0.1483
  209MOL0     N28097   2.744   4.899   0.500 -0.4789 -0.8550  0.0930
  209MOL0     C28098   2.827   4.915   0.610  0.4123  0.2614  1.1647
  209MOL0     C28099   2.921   5.006   0.566 -0.3533  0.7273  0.1497
  209MOL0     C28100   3.049   5.032   0.638  0.8243  0.1387 -0.1310
  209MOL0     C28101   3.114   4.910   0.710 -0.6635  0.1487 -0.2102
  209MOL0     C28102   3.065   4.902   0.850  0.4069  0.0588  0.4655
  209MOL0     C28103   3.153   4.806   0.929 -0.3900  0.4323 -0.1088
  209MOL0     O28104   3.145   4.661   0.895  0.3401  0.1639 -0.3488
  209MOL0     C28105   3.022   4.599   0.905  0.9842  0.4598  0.0940
  209MOL0     C28106   2.929   4.617   1.003 -0.4163 -0.6206  0.8415
  209MOL0     C28107   2.810   4.550   1.004  0.2750  0.2424 -0.3424
  209MOL0     C28108   2.723   4.578   1.136  0.4079  0.4219 -0.2246
  209MOL0     C28109   2.766   4.468   0.902  0.0029  0.2326 -0.3470
  209MOL0     C28110   2.635   4.408   0.885  0.1384  0.0899 -0.8478
  209MOL0     O28111   2.603   4.356   0.762  0.1157  0.1044 -0.4607
  209MOL0     C28112   2.479   4.304   0.735  0.3812 -0.4086 -0.0704
  209MOL0     C28113   2.360   4.369   0.777 -0.1377  0.4262 -0.3394
  209MOL0     C28114   2.234   4.312   0.751  0.9974 -0.1659 -0.4068
  209MOL0     C28115   2.222   4.196   0.677  0.5386  0.0929  0.2333
  209MOL0     O28116   2.095   4.155   0.651 -0.3490  0.1667  0.1881
  209MOL0     C28117   2.042   4.081   0.763  0.6145 -1.6724  0.5691
  209MOL0     C28118   1.996   3.943   0.709  0.4699 -0.5011 -0.5946
  209MOL0     C28119   1.896   3.937   0.592  0.2782  0.6607  0.3137
  209MOL0     C28120   1.779   4.033   0.608  0.3067  0.0280  0.8464
  209MOL0     C28121   1.657   4.022   0.509  0.2664  1.3335  0.4944
  209MOL0     C28122   1.567   4.140   0.530 -0.3985  0.3410  1.3894
  209MOL0     C28123   1.432   4.128   0.471  0.0644  0.5429 -0.5812
  209MOL0     C28124   1.428   4.161   0.323  0.2027  0.3076 -0.0337
  209MOL0    Cl28125   1.264   4.109   0.262  0.7158  0.0281 -0.0073
  209MOL0     C28126   2.336   4.137   0.624  0.8566 -0.5258 -0.1418
  209MOL0     C28127   2.462   4.200   0.649 -0.9383 -0.1227  0.6715
  209MOL0     O28128   2.583   4.376   0.984  0.8051  0.0976 -0.9496
  209MOL0     C28129   2.857   4.453   0.797  0.2767  0.0616  0.2531
  209MOL0     C28130   2.981   4.514   0.797 -0.4667  0.4477  1.0079
  209MOL0     N28131   2.885   5.047   0.447 -0.2257 -0.7739  0.1608
  209MOL0     N28132   2.780   4.997   0.405  1.3764  0.4016  0.0599
  209MOL0     C28133   1.721   4.815   0.745 -0.1711 -0.2203 -0.6409
  209MOL0     C28134   1.579   4.796   0.746 -0.3452  1.1199  0.2900
  209MOL0     C28135   1.126   4.938   0.782  0.8925 -0.3904 -0.1485
  209MOL0     C28136   1.012   4.956   0.862 -0.5890  0.5607 -0.2064
  209MOL0     C28137   0.889   4.990   0.801 -0.1865  0.7235 -0.3883
  209MOL0     C28138   0.882   5.025   0.669  0.0623 -0.7510 -0.0562
  209MOL0     O28139   0.765   5.069   0.605  0.0894 -0.1974 -0.0985
  209MOL0     C28140   0.650   5.005   0.651 -0.0908  1.0697  0.9369
  209MOL0     C28141   0.541   4.996   0.544 -0.3892 -0.4684 -0.2426
  209MOL0     C28142   0.485   5.135   0.496  0.7447 -0.4879 -0.3083
  209MOL0     C28143   0.363   5.131   0.416 -0.3652  0.4187  0.0939
  209MOL0     C28144   0.248   5.128   0.509 -0.3501  0.6328  0.3482
  209MOL0     C28145   0.156   5.120   0.592  0.2034 -1.2002  0.7284
  209MOL0     C28146   0.999   5.026   0.596  0.3364  0.4501  0.4367
  209MOL0     C28147   1.110   4.966   0.646 -0.1657  0.1281  0.2309
  209MOL0     H28148   1.480   5.077   0.888  0.6787  0.7185 -2.6239
  209MOL0     H28149   1.731   5.118   0.891  3.7342 -2.9873  0.8494
  209MOL0     H28150   1.982   5.040   0.662  0.0412 -1.9704  0.0494
  209MOL0     H28151   1.921   5.159   0.774 -3.9012 -1.8629  0.0411
  209MOL0     H28152   2.182   5.155   0.802  3.1075 -1.9522 -0.3685
  209MOL0     H28153   2.111   5.086   0.944  0.5121  1.3940  0.5593
  209MOL0     H28154   2.137   4.867   0.807  3.0434 -1.4077 -1.7017
  209MOL0     H28155   2.218   4.956   0.687 -1.2375  0.5647 -0.9017
  209MOL0     H28156   2.394   5.003   0.882  0.0537 -0.1590  2.5005
  209MOL0     H28157   2.315   4.867   0.962 -0.0744 -1.4152 -0.7098
  209MOL0     H28158   2.503   4.800   0.845  1.9907  4.0625 -0.6138
  209MOL0     H28159   2.358   4.733   0.757 -1.0403  1.4498 -0.2375
  209MOL0     H28160   2.402   4.903   0.585 -2.0036  0.9257  1.1018
  209MOL0     H28161   2.540   4.966   0.683 -0.1712 -1.2132  1.5355
  209MOL0     H28162   2.626   4.712   0.662  1.1652  1.8281  0.5211
  209MOL0     H28163   2.487   4.679   0.560  0.3220 -0.5088 -0.4948
  209MOL0     H28164   2.562   4.839   0.399 -1.7713  0.2068  1.4604
  209MOL0     H28165   2.687   4.710   0.431  2.3217  0.9696 -0.0163
  209MOL0     H28166   2.811   4.852   0.696 -2.9383 -4.7627 -2.5534
  209MOL0     H28167   3.115   5.069   0.560 -1.7624  1.5278 -1.8073
  209MOL0     H28168   3.028   5.113   0.708  0.6954 -1.2554  1.5060
  209MOL0     H28169   3.223   4.921   0.710 -0.6341  0.2248 -1.9625
  209MOL0     H28170   3.093   4.813   0.663  1.0445 -0.9549  1.1867
  209MOL0     H28171   2.965   4.860   0.864 -0.1732  1.4714  0.6574
  209MOL0     H28172   3.065   4.997   0.903 -3.8178  0.1551  0.6741
  209MOL0     H28173   3.133   4.815   1.037 -0.3499 -0.9955  0.0357
  209MOL0     H28174   3.252   4.838   0.897 -1.2612 -0.2464 -3.9600
  209MOL0     H28175   2.975   4.658   1.092  1.6447 -3.6902  1.3624
  209MOL0     H28176   2.723   4.496   1.208 -0.3885 -0.2311 -0.9491
  209MOL0     H28177   2.763   4.663   1.192 -0.9472  0.4902  0.6772
  209MOL0     H28178   2.619   4.606   1.114 -0.6024 -2.8943 -0.1693
  209MOL0     H28179   2.374   4.452   0.847  4.7997  0.6852 -1.2505
  209MOL0     H28180   2.142   4.350   0.795 -0.4280 -0.8217 -2.6625
  209MOL0     H28181   2.109   4.069   0.848  1.2026 -0.3777  0.3000
  209MOL0     H28182   1.948   4.130   0.790  0.4359 -1.8858  0.3473
  209MOL0     H28183   2.082   3.893   0.664  0.4838  0.5195 -1.7312
  209MOL0     H28184   1.954   3.889   0.794 -0.2151 -1.4678 -1.5262
  209MOL0     H28185   1.864   3.834   0.574 -4.8400  2.0896 -0.5442
  209MOL0     H28186   1.952   3.981   0.509 -1.7781  1.6439 -0.6500
  209MOL0     H28187   1.742   4.017   0.709  2.8359  1.7683  2.1691
  209MOL0     H28188   1.813   4.136   0.597 -0.7410  0.4305  1.2874
  209MOL0     H28189   1.603   3.928   0.515 -2.3647  2.5318 -2.0329
  209MOL0     H28190   1.693   4.028   0.406 -2.1928  2.6537 -0.3773
  209MOL0     H28191   1.548   4.162   0.636  1.3073  4.9320  0.9884
  209MOL0     H28192   1.600   4.238   0.493 -0.8893  0.7423  1.9728
  209MOL0     H28193   1.368   4.196   0.528 -0.6349 -0.7319  0.1861
  209MOL0     H28194   1.396   4.027   0.491  0.6910  0.4467  0.1324
  209MOL0     H28195   1.504   4.095   0.280  0.1674 -2.6737  3.8920
  209MOL0     H28196   1.444   4.267   0.300 -2.4567  0.6199 -0.7106
  209MOL0     H28197   2.342   4.054   0.554  0.1603  0.0987 -0.9751
  209MOL0     H28198   2.559   4.159   0.623 -1.2674 -2.0316  2.1645
  209MOL0     H28199   2.824   4.398   0.710 -2.9361 -1.2206  2.1082
  209MOL0     H28200   3.053   4.504   0.717 -1.4964  1.7549 -0.1395
  209MOL0     H28201   1.792   4.745   0.701  2.2989  1.3669  0.5767
  209MOL0     H28202   1.543   4.707   0.695  1.6951 -0.2056  1.0127
  209MOL0     H28203   1.010   4.917   0.964  1.6312 -0.0819 -0.3618
  209MOL0     H28204   0.796   5.011   0.854 -1.2906  0.9633 -2.3152
  209MOL0     H28205   0.671   4.901   0.678  1.1003 -1.1153 -6.4092
  209MOL0     H28206   0.612   5.063   0.736 -2.6405  0.5468  0.2473
  209MOL0     H28207   0.467   4.937   0.599 -0.2098 -0.0372  0.4726
  209MOL0     H28208   0.571   4.936   0.458 -3.5105 -1.7993 -0.5492
  209MOL0     H28209   0.564   5.180   0.435  1.8126 -2.0090 -0.1179
  209MOL0     H28210   0.460   5.199   0.581 -2.1274 -0.0812 -1.3635
  209MOL0     H28211   0.364   5.045   0.348  0.7348  0.2880  0.2473
  209MOL0     H28212   0.353   5.223   0.357  1.8996  0.1794 -0.7657
  209MOL0     H28213   0.076   5.119   0.663 -1.6377  2.2364 -1.0321
  209MOL0     H28214   0.985   5.036   0.489  0.9058 -2.8546 -0.0658
  209MOL0     H28215   1.190   4.948   0.575  0.8774  2.7140  0.6620
  210MOL0     O28216   2.484  10.245   2.773  0.0190  0.2410  0.2538
  210MOL0     C28217   2.512  10.141   2.717  0.2438  0.3122  1.1766
  210MOL0     O28218   2.433  10.074   2.626 -0.2295 -0.2872  0.3627
  210MOL0     C28219   2.325  10.145   2.576  0.9363  0.2660 -0.4471
  210MOL0     C28220   2.350  10.221   2.463 -0.2899 -1.1806 -0.9518
  210MOL0     C28221   2.249  10.295   2.407  0.4756 -0.1228 -0.4881
  210MOL0     C28222   2.130  10.314   2.473  0.9835 -0.5068  1.9119
  210MOL0     O28223   2.033  10.391   2.401  0.2277  0.6855 -0.3866
  210MOL0     C28224   1.891  10.367   2.436  0.0446  0.3658  0.0407
  210MOL0     C28225   1.843  10.242   2.373 -0.2462 -0.4244  0.9935
  210MOL0     C28226   1.696  10.219   2.418  0.7227  1.0164  0.0733
  210MOL0     C28227   1.620  10.109   2.338 -1.2363 -0.4630 -0.5474
  210MOL0     C28228   1.470  10.098   2.350  0.5584 -0.6925 -0.5906
  210MOL0     C28229   1.405  10.002   2.249 -0.3022  0.1785  0.1205
  210MOL0     C28230   1.257  10.006   2.272  0.2916 -0.7387 -0.4192
  210MOL0     C28231   1.188   9.901   2.186  0.2641 -0.4009 -0.2995
  210MOL0     N28232   1.047   9.899   2.216  0.0966 -0.0593  0.6407
  210MOL0     C28233   1.001   9.827   2.325  0.7909  0.0380  0.6626
  210MOL0     C28234   0.865   9.828   2.307 -0.4673 -0.2915  0.6669
  210MOL0     C28235   0.771   9.761   2.404 -0.4117  0.1338  0.3130
  210MOL0     C28236   0.663   9.856   2.465  0.2824  0.3209  0.0627
  210MOL0     C28237   0.613   9.804   2.596 -0.9423 -0.4616  0.5377
  210MOL0     C28238   0.507   9.691   2.592  0.1324 -0.1820  0.0601
  210MOL0     O28239   0.384   9.739   2.528 -0.3855  0.3027  0.3624
  210MOL0     C28240   0.266   9.671   2.562 -0.2119  0.2711 -0.0114
  210MOL0     C28241   0.272   9.552   2.640 -0.6985  0.2004 -0.0500
  210MOL0     C28242   0.159   9.487   2.681 -0.0146 -0.9839 -0.0523
  210MOL0     C28243   0.171   9.358   2.754  1.2044 -0.3374 -0.1011
  210MOL0     C28244   0.032   9.544   2.660 -0.7140 -0.2286  0.1262
  210MOL0     C28245  -0.105   9.479   2.690  0.2181 -0.1949  0.8626
  210MOL0     O28246  -0.210   9.522   2.610  0.0576  0.1793 -0.0979
  210MOL0     C28247  -0.339   9.480   2.630 -0.1127 -0.9931 -1.1898
  210MOL0     C28248  -0.393   9.416   2.521  0.2493 -0.2004  0.4074
  210MOL0     C28249  -0.522   9.348   2.520  0.6080 -0.2562  0.4289
  210MOL0     C28250  -0.592   9.349   2.643  1.3301  0.9916  0.5670
  210MOL0     O28251  -0.720   9.308   2.659  0.7733  0.6806 -0.2894
  210MOL0     C28252  -0.800   9.233   2.567 -0.1411  0.0219  0.5312
  210MOL0     C28253  -0.948   9.209   2.622 -0.4877 -0.8248 -0.2645
  210MOL0     C28254  -1.036   9.102   2.553 -0.5476 -0.9158 -0.2210
  210MOL0     C28255  -1.141   9.043   2.640 -0.0253  0.6107  0.0234
  210MOL0     C28256  -1.241   8.964   2.560  0.1795 -0.2252  0.5130
  210MOL0     C28257  -1.186   8.846   2.486  0.6498  0.4638  0.5198
  210MOL0     C28258  -1.305   8.770   2.418 -0.0500 -0.2236  1.1878
  210MOL0     C28259  -1.260   8.632   2.368 -0.2164 -1.0512  0.1293
  210MOL0    Cl28260  -1.135   8.544   2.460 -0.2842  0.0094  0.0212
  210MOL0     C28261  -0.539   9.423   2.757  0.3752 -0.0752  0.4089
  210MOL0     C28262  -0.413   9.490   2.749 -0.0661  0.2762 -0.2838
  210MOL0     O28263  -0.119   9.412   2.788  0.4860 -0.4145 -0.1009
  210MOL0     C28264   0.027   9.663   2.581 -0.8463 -0.2568  0.5343
  210MOL0     C28265   0.140   9.721   2.528 -0.1173 -0.4943 -0.4627
  210MOL0     N28266   0.830   9.917   2.197  0.6139 -0.2771 -0.8651
  210MOL0     N28267   0.945   9.959   2.148 -0.6510  0.2580  0.0475
  210MOL0     C28268   2.115  10.263   2.599  0.0423  0.4895  0.8947
  210MOL0     C28269   2.207  10.168   2.649 -0.2243 -0.3643 -0.9653
  210MOL0     C28270   2.635  10.079   2.756  0.0779 -0.7408  0.0562
  210MOL0     C28271   2.726  10.146   2.844  0.9942 -0.1935  0.1568
  210MOL0     C28272   2.835  10.075   2.885 -0.1771 -0.7144  0.4449
  210MOL0     C28273   2.872   9.951   2.828 -0.2827  0.2898 -0.8122
  210MOL0     O28274   2.998   9.903   2.862 -0.2853 -0.4885  0.4710
  210MOL0     C28275   3.015   9.764   2.860  0.3939  0.3163 -0.5444
  210MOL0     C28276   3.098   9.723   2.745 -0.6515 -0.0346  1.3436
  210MOL0     C28277   3.133   9.569   2.744 -0.7577 -0.0967  0.0000
  210MOL0     C28278   3.268   9.547   2.812 -0.0543  0.0121  0.0315
  210MOL0     C28279   3.305   9.405   2.800  0.1236  0.0961  0.4394
  210MOL0     C28280   3.353   9.297   2.787 -0.5147  0.3734 -0.8557
  210MOL0     C28281   2.772   9.879   2.755  1.1625 -0.0064 -0.0811
  210MOL0     C28282   2.660   9.947   2.718 -0.5641  0.0684  0.2174
  210MOL0     H28283   2.449  10.214   2.417  1.2773 -0.1973  2.0200
  210MOL0     H28284   2.269  10.347   2.314  0.8567 -2.3523 -1.7282
  210MOL0     H28285   1.875  10.366   2.545 -0.8059  3.7491  0.0502
  210MOL0     H28286   1.825  10.450   2.409 -0.7684 -0.5960 -0.9851
  210MOL0     H28287   1.865  10.236   2.266  0.2502  1.1118  0.9929
  210MOL0     H28288   1.900  10.153   2.403  1.7355  1.4815  3.3309
  210MOL0     H28289   1.691  10.212   2.527  0.7947  3.4614  0.2971
  210MOL0     H28290   1.652  10.316   2.394 -1.4927 -0.2257 -1.1148
  210MOL0     H28291   1.647  10.121   2.232 -0.6367  0.0844 -0.3396
  210MOL0     H28292   1.652  10.013   2.380 -1.0413  0.1594  0.7843
  210MOL0     H28293   1.446  10.064   2.451 -1.9004 -1.0580 -1.2280
  210MOL0     H28294   1.417  10.193   2.337  0.2480 -0.5927  1.1999
  210MOL0     H28295   1.428  10.037   2.148  0.6287 -0.6310  0.0295
  210MOL0     H28296   1.465   9.912   2.266  3.3663  2.8182  2.7799
  210MOL0     H28297   1.235   9.985   2.378 -1.0675  1.8311 -0.1164
  210MOL0     H28298   1.218  10.105   2.247 -1.8331 -1.0435  1.3501
  210MOL0     H28299   1.234   9.803   2.201 -0.9147 -1.0109 -0.5812
  210MOL0     H28300   1.201   9.932   2.082  4.4763 -1.6651 -0.3739
  210MOL0     H28301   1.060   9.772   2.398  0.2831 -3.8085 -1.5001
  210MOL0     H28302   0.720   9.675   2.359 -2.0513 -0.5238  3.1632
  210MOL0     H28303   0.834   9.722   2.485  0.5412  1.4705  0.2395
  210MOL0     H28304   0.573   9.861   2.402  1.4044  0.2495 -1.5965
  210MOL0     H28305   0.704   9.955   2.486 -0.7040  0.4836  1.3762
  210MOL0     H28306   0.566   9.886   2.651  0.3137  0.0293  0.9237
  210MOL0     H28307   0.693   9.766   2.660  0.5688 -1.5669 -1.8550
  210MOL0     H28308   0.505   9.661   2.697 -1.1286  1.7099  0.6139
  210MOL0     H28309   0.541   9.605   2.533  0.4564 -0.0205  0.0067
  210MOL0     H28310   0.365   9.518   2.684 -0.1565  1.2964 -0.3260
  210MOL0     H28311   0.275   9.337   2.781  1.3672 -1.4388 -1.4838
  210MOL0     H28312   0.130   9.370   2.855  2.0499  1.2960  0.0803
  210MOL0     H28313   0.123   9.273   2.705  0.0528  0.5020 -0.4774
  210MOL0     H28314  -0.327   9.416   2.435 -1.2470  0.5207 -0.7792
  210MOL0     H28315  -0.559   9.291   2.436  2.3205 -1.4768  0.4734
  210MOL0     H28316  -0.804   9.292   2.475  0.8682 -1.0301 -0.2031
  210MOL0     H28317  -0.763   9.131   2.549 -3.5678 -1.3377  0.4006
  210MOL0     H28318  -0.937   9.190   2.729  0.2529 -1.1850 -0.3952
  210MOL0     H28319  -0.996   9.307   2.612  0.0574 -0.6643 -1.5413
  210MOL0     H28320  -0.968   9.032   2.504 -0.1199 -0.6338 -0.0347
  210MOL0     H28321  -1.086   9.155   2.471 -2.5792 -1.3478  0.6751
  210MOL0     H28322  -1.110   8.974   2.719 -3.0796 -3.2537 -1.7829
  210MOL0     H28323  -1.200   9.124   2.684  0.6369  1.2470 -0.2422
  210MOL0     H28324  -1.285   9.026   2.481 -1.2068  0.1961  1.5675
  210MOL0     H28325  -1.319   8.941   2.633  0.5844  0.2108  1.0992
  210MOL0     H28326  -1.111   8.882   2.415  0.8398  2.6752  1.7406
  210MOL0     H28327  -1.133   8.789   2.564 -1.1918  1.5970  2.7275
  210MOL0     H28328  -1.346   8.824   2.332 -1.1901 -0.8589  1.3177
  210MOL0     H28329  -1.385   8.758   2.492 -0.0033 -0.6551  1.1680
  210MOL0     H28330  -1.234   8.637   2.262 -3.6928  0.3118 -0.8003
  210MOL0     H28331  -1.355   8.577   2.372 -0.3472 -0.7874  1.1029
  210MOL0     H28332  -0.597   9.427   2.849  1.4036  1.5984  1.0264
  210MOL0     H28333  -0.374   9.544   2.835  0.2961 -2.4774  1.4118
  210MOL0     H28334  -0.065   9.718   2.565 -0.4126  0.1813 -0.5241
  210MOL0     H28335   0.136   9.815   2.475  0.7336  0.1786  0.6054
  210MOL0     H28336   2.028  10.273   2.662 -0.0324  1.2896  0.6816
  210MOL0     H28337   2.190  10.121   2.745  0.2161  3.4821  1.1645
  210MOL0     H28338   2.700  10.248   2.870 -3.2334 -0.6557 -1.3788
  210MOL0     H28339   2.908  10.116   2.954 -0.6271  0.8129  0.0413
  210MOL0     H28340   3.081   9.750   2.946  2.4881 -2.6284 -2.4509
  210MOL0     H28341   2.929   9.698   2.873 -2.9857  4.4208  0.2039
  210MOL0     H28342   3.192   9.779   2.737 -1.5537  1.4604  0.9133
  210MOL0     H28343   3.046   9.737   2.650 -1.2608 -0.8055  1.5565
  210MOL0     H28344   3.146   9.519   2.647  2.7993 -0.3165  0.4458
  210MOL0     H28345   3.054   9.519   2.800 -0.7160 -0.7759 -0.5291
  210MOL0     H28346   3.267   9.590   2.913 -2.0404  0.8020 -0.2774
  210MOL0     H28347   3.341   9.609   2.759 -2.2860  0.5982 -2.6340
  210MOL0     H28348   3.392   9.198   2.774 -0.8235  0.0764  0.4208
  210MOL0     H28349   2.782   9.780   2.712  1.4220 -0.6335  1.3639
  210MOL0     H28350   2.592   9.893   2.653  0.9574 -1.2472 -0.3448
  211MOL0     O28351   4.286   1.521   2.838 -0.0289 -0.4362 -0.3011
  211MOL0     C28352   4.176   1.580   2.831  0.1464  0.5553  0.4770
  211MOL0     O28353   4.093   1.576   2.730  0.1687  0.2930 -0.5250
  211MOL0     C28354   4.128   1.495   2.624 -0.2000 -0.3008  0.2479
  211MOL0     C28355   4.136   1.551   2.495  0.7248  0.6924 -0.3515
  211MOL0     C28356   4.142   1.474   2.383  0.7937  0.2734 -0.9076
  211MOL0     C28357   4.165   1.337   2.390 -0.1640  0.9236 -0.9058
  211MOL0     O28358   4.166   1.266   2.270  0.2303 -0.4615  0.5396
  211MOL0     C28359   4.229   1.137   2.269  0.3048 -0.2112  0.0406
  211MOL0     C28360   4.223   1.087   2.121 -1.0344  0.0891 -0.1561
  211MOL0     C28361   4.289   1.187   2.022  0.6496  0.7567  0.0417
  211MOL0     C28362   4.287   1.119   1.888  0.5271  0.0618  0.4455
  211MOL0     C28363   4.337   1.215   1.781 -0.4126 -0.1934  0.5265
  211MOL0     C28364   4.337   1.151   1.644 -0.0323  0.2620  1.0875
  211MOL0     C28365   4.464   1.069   1.612 -0.0696 -1.0433  0.5391
  211MOL0     C28366   4.493   1.040   1.460 -0.1168  0.4616  0.6620
  211MOL0     N28367   4.538   1.163   1.392 -0.0158 -0.3354  0.1242
  211MOL0     C28368   4.666   1.211   1.413 -0.5839 -0.1387 -0.1080
  211MOL0     C28369   4.671   1.334   1.358 -0.5674 -0.4694  0.5119
  211MOL0     C28370   4.779   1.433   1.334  0.2749 -0.3288 -0.1589
  211MOL0     C28371   4.864   1.391   1.218 -0.0584 -0.0604  0.4810
  211MOL0     C28372   4.998   1.457   1.214 -0.6949 -0.6440 -0.2137
  211MOL0     C28373   5.067   1.434   1.078  0.0206 -0.1395  0.7468
  211MOL0     O28374   5.098   1.293   1.060  0.6596 -0.2998  0.5668
  211MOL0     C28375   5.189   1.261   0.962  0.0477 -0.3254 -0.2214
  211MOL0     C28376   5.236   1.346   0.862 -0.1299  0.4901 -0.1398
  211MOL0     C28377   5.333   1.304   0.771  0.2039  0.2730 -0.0359
  211MOL0     C28378   5.357   1.407   0.666 -0.1330 -0.5274 -0.0694
  211MOL0     C28379   5.393   1.174   0.771 -0.2147  0.4815  0.1459
  211MOL0     C28380   5.503   1.139   0.683 -0.3253  0.8562  0.0856
  211MOL0     O28381   5.534   1.002   0.679 -0.2368 -1.2424 -0.2255
  211MOL0     C28382   5.628   0.951   0.601  0.2372  0.9102 -0.3639
  211MOL0     C28383   5.604   0.861   0.504  0.1198  0.8250  0.3544
  211MOL0     C28384   5.710   0.786   0.450 -0.7583 -0.3395  0.3828
  211MOL0     C28385   5.852   0.818   0.477 -0.4812  0.5591  0.3682
  211MOL0     O28386   5.946   0.743   0.410  0.7476  0.7824  0.1885
  211MOL0     C28387   6.050   0.698   0.496 -0.1145  0.9069  0.9459
  211MOL0     C28388   6.139   0.608   0.409 -0.3520  0.1568 -0.0698
  211MOL0     C28389   6.277   0.564   0.486  0.5023  0.4256  0.0149
  211MOL0     C28390   6.268   0.449   0.587  0.7668  0.2355 -0.3688
  211MOL0     C28391   6.388   0.447   0.682 -0.1862  0.1417  0.6700
  211MOL0     C28392   6.399   0.314   0.749  0.8813 -1.2987 -0.4219
  211MOL0     C28393   6.478   0.207   0.660  0.8046 -1.0771 -0.5991
  211MOL0     C28394   6.498   0.079   0.740  0.0715  0.7922  0.4385
  211MOL0    Cl28395   6.557  -0.061   0.632 -0.0128 -0.2898 -0.2341
  211MOL0     C28396   5.877   0.922   0.575 -0.5327 -0.3385 -0.0642
  211MOL0     C28397   5.764   0.983   0.636  0.0018 -0.1663  0.5323
  211MOL0     O28398   5.555   1.223   0.614 -0.3678 -0.7588 -0.1461
  211MOL0     C28399   5.354   1.096   0.879 -0.7783  0.6226 -0.1503
  211MOL0     C28400   5.252   1.132   0.967  0.0367 -0.2503  0.0498
  211MOL0     N28401   4.543   1.362   1.310  0.1506  0.1342  0.3808
  211MOL0     N28402   4.462   1.258   1.332  0.0168  0.0950  0.7226
  211MOL0     C28403   4.181   1.272   2.523 -0.1995 -0.8188  0.3954
  211MOL0     C28404   4.158   1.358   2.637  0.5148  0.0553  0.5630
  211MOL0     C28405   4.136   1.685   2.928 -0.2576  0.1010 -0.1891
  211MOL0     C28406   4.235   1.728   3.017  0.0710 -0.0485 -0.3406
  211MOL0     C28407   4.217   1.828   3.115  0.0611 -0.3089  0.6886
  211MOL0     C28408   4.092   1.893   3.127 -1.0911  0.3499  0.8067
  211MOL0     O28409   4.079   1.997   3.214 -0.5996 -0.9188  0.2842
  211MOL0     C28410   3.996   2.108   3.181  0.4591  0.0541  0.6259
  211MOL0     C28411   4.045   2.193   3.055 -0.1482 -0.8280 -0.6611
  211MOL0     C28412   4.187   2.244   3.099  0.0045  0.4924 -0.2673
  211MOL0     C28413   4.248   2.341   2.996 -1.0258 -0.1958 -0.5753
  211MOL0     C28414   4.376   2.398   3.048  0.0509  0.5321 -0.3985
  211MOL0     C28415   4.475   2.438   3.107 -0.6980  0.6284  0.7784
  211MOL0     C28416   3.999   1.865   3.029 -0.3732 -0.3211  0.6773
  211MOL0     C28417   4.017   1.754   2.939 -0.0727 -0.6345 -0.1257
  211MOL0     H28418   4.117   1.658   2.489  0.2278  0.6236 -0.0801
  211MOL0     H28419   4.121   1.503   2.281 -1.7028  0.6241 -0.3642
  211MOL0     H28420   4.329   1.129   2.312 -0.0117 -0.0248  0.8422
  211MOL0     H28421   4.153   1.080   2.324 -1.9382 -0.4107 -3.0042
  211MOL0     H28422   4.270   0.988   2.111 -0.7355  0.0576  1.3160
  211MOL0     H28423   4.117   1.077   2.099 -1.3784 -0.2619  1.5141
  211MOL0     H28424   4.237   1.282   2.014 -1.5821 -0.5201 -2.3103
  211MOL0     H28425   4.395   1.209   2.038  1.2195 -1.3549 -0.4722
  211MOL0     H28426   4.344   1.025   1.891 -1.3937 -1.1434  0.6437
  211MOL0     H28427   4.188   1.093   1.849  3.0433 -2.2984 -5.6371
  211MOL0     H28428   4.280   1.307   1.792 -0.7667 -0.5953  2.2737
  211MOL0     H28429   4.443   1.231   1.804  0.4648 -2.4947 -1.5054
  211MOL0     H28430   4.242   1.096   1.634 -0.2239  0.7446  0.1841
  211MOL0     H28431   4.338   1.227   1.566 -1.1749  0.9372  1.6969
  211MOL0     H28432   4.555   1.119   1.647 -1.5019  1.9192  0.3530
  211MOL0     H28433   4.453   0.974   1.666 -0.9596  0.5256  3.3485
  211MOL0     H28434   4.401   1.000   1.415  0.4677 -0.1936  0.0292
  211MOL0     H28435   4.572   0.964   1.460 -0.3654  0.1966  1.1410
  211MOL0     H28436   4.750   1.159   1.458 -0.8964  1.4343  2.4864
  211MOL0     H28437   4.733   1.530   1.311 -3.9749 -1.2822  3.0614
  211MOL0     H28438   4.840   1.440   1.425 -0.1518 -0.4414  0.1386
  211MOL0     H28439   4.804   1.424   1.132  0.1373 -0.3259  0.2404
  211MOL0     H28440   4.882   1.284   1.206 -0.2434  0.0559 -1.0046
  211MOL0     H28441   5.060   1.409   1.290 -1.0787 -3.1734 -1.3804
  211MOL0     H28442   5.007   1.563   1.239 -2.0297  0.0835 -2.5415
  211MOL0     H28443   5.154   1.497   1.058 -0.7493  0.1492 -2.0921
  211MOL0     H28444   4.988   1.460   1.006 -0.8213 -2.0504  0.9033
  211MOL0     H28445   5.206   1.449   0.847  0.1911  0.8856  1.6589
  211MOL0     H28446   5.311   1.502   0.697 -3.3256 -2.3916  1.4057
  211MOL0     H28447   5.464   1.430   0.660  0.9402 -3.5874  3.4421
  211MOL0     H28448   5.321   1.391   0.564  0.0471  0.5722 -0.3210
  211MOL0     H28449   5.503   0.822   0.498  0.0565  0.6539  2.0621
  211MOL0     H28450   5.693   0.695   0.393  0.7128 -0.1736 -0.3581
  211MOL0     H28451   6.118   0.774   0.534  0.8615 -0.2476  1.6036
  211MOL0     H28452   6.006   0.634   0.573 -0.4666 -2.8736 -2.0679
  211MOL0     H28453   6.077   0.524   0.376 -4.0281  3.1043 -1.2962
  211MOL0     H28454   6.172   0.659   0.318  1.4754 -2.3604 -0.9439
  211MOL0     H28455   6.309   0.649   0.546 -1.1642 -0.7166  2.6984
  211MOL0     H28456   6.353   0.542   0.410  1.1807  1.0472  0.5003
  211MOL0     H28457   6.177   0.477   0.640  1.9075  2.8390  0.3994
  211MOL0     H28458   6.260   0.350   0.540  0.5557  0.6962 -1.3336
  211MOL0     H28459   6.367   0.531   0.749 -0.9765  1.4272 -1.0934
  211MOL0     H28460   6.480   0.458   0.624 -0.5561 -4.4272 -1.2220
  211MOL0     H28461   6.451   0.335   0.843  0.0012  0.4823 -0.2745
  211MOL0     H28462   6.306   0.264   0.777  1.7369 -1.0345  3.3515
  211MOL0     H28463   6.575   0.247   0.631 -0.0115  2.5509  1.1073
  211MOL0     H28464   6.420   0.182   0.571  1.1152 -1.2268 -0.7571
  211MOL0     H28465   6.403   0.056   0.790 -0.2383  0.2899 -0.3684
  211MOL0     H28466   6.579   0.098   0.811  2.9859  0.7601 -2.6480
  211MOL0     H28467   5.977   0.962   0.592 -0.4423 -0.5904 -0.0058
  211MOL0     H28468   5.785   1.047   0.721  0.6740 -0.9438  0.9582
  211MOL0     H28469   5.400   1.002   0.906 -1.3128  0.0533 -1.1457
  211MOL0     H28470   5.241   1.063   1.050  1.0756  0.3709  0.7325
  211MOL0     H28471   4.189   1.166   2.542 -0.4319 -0.7262  1.0160
  211MOL0     H28472   4.169   1.306   2.732 -2.9781  0.1697  1.1821
  211MOL0     H28473   4.341   1.706   3.023 -0.0710 -0.5336  0.5522
  211MOL0     H28474   4.290   1.849   3.192 -2.5426  4.0006  2.3723
  211MOL0     H28475   3.898   2.070   3.152  0.3367  2.6023 -2.9145
  211MOL0     H28476   3.970   2.177   3.262  0.5520  3.2093 -1.8334
  211MOL0     H28477   3.975   2.267   3.015  1.1938  1.1241  0.4106
  211MOL0     H28478   4.070   2.127   2.972 -0.9340 -2.1457  0.1165
  211MOL0     H28479   4.255   2.159   3.107  0.0763  0.6775  1.6693
  211MOL0     H28480   4.172   2.300   3.192  2.5882  1.1022 -0.1373
  211MOL0     H28481   4.185   2.428   2.974 -0.8971 -0.2226 -1.0561
  211MOL0     H28482   4.258   2.284   2.903 -2.2467 -1.3679 -0.0189
  211MOL0     H28483   4.551   2.481   3.168  3.1470 -2.9875 -0.9451
  211MOL0     H28484   3.897   1.901   3.025  0.1668  1.4300  1.8246
  211MOL0     H28485   3.938   1.725   2.870 -0.4858 -1.1918  0.5641
  212MOL0     O28486   4.990  11.049   6.416 -0.3186  0.5567  0.3560
  212MOL0     C28487   5.038  11.145   6.480  0.3848  0.4349  0.2801
  212MOL0     O28488   5.019  11.168   6.614  0.0196 -0.7797 -0.3653
  212MOL0     C28489   4.952  11.086   6.697  0.0411 -0.3796  0.2509
  212MOL0     C28490   4.890  11.146   6.806  0.2169 -0.7310 -0.3329
  212MOL0     C28491   4.812  11.069   6.895  0.0422  0.1634 -0.8506
  212MOL0     C28492   4.797  10.929   6.874 -0.9369  0.2759 -0.7093
  212MOL0     O28493   4.729  10.865   6.971  0.1607 -0.3988 -0.8067
  212MOL0     C28494   4.654  10.753   6.931 -0.0199  0.2723  0.5337
  212MOL0     C28495   4.550  10.726   7.046  0.9579 -0.4473 -0.1811
  212MOL0     C28496   4.449  10.842   7.059  0.3050  0.7082  1.3282
  212MOL0     C28497   4.331  10.816   7.145  0.4210  0.2465 -0.3811
  212MOL0     C28498   4.273  10.945   7.184  0.8965  0.4056 -0.3779
  212MOL0     C28499   4.127  10.926   7.225  0.3736 -0.3463 -0.5687
  212MOL0     C28500   4.070  11.064   7.270 -0.7218  0.5471  0.0475
  212MOL0     C28501   3.954  11.041   7.369 -0.9173 -0.5344 -0.6522
  212MOL0     N28502   3.830  10.981   7.327  0.5899 -0.0311 -0.0276
  212MOL0     C28503   3.814  10.850   7.297  0.3301 -0.3508  0.8584
  212MOL0     C28504   3.685  10.854   7.264  0.4073  0.8101 -0.0388
  212MOL0     C28505   3.632  10.731   7.198 -0.4078 -0.3021 -0.4624
  212MOL0     C28506   3.481  10.753   7.158  0.4793 -0.9113  0.2093
  212MOL0     C28507   3.398  10.743   7.285 -1.1179 -0.0380 -0.4216
  212MOL0     C28508   3.242  10.720   7.267 -0.3169 -0.1315 -0.9185
  212MOL0     O28509   3.197  10.849   7.213 -0.3597 -0.6903 -0.4678
  212MOL0     C28510   3.119  10.915   7.307 -0.6674  0.0618  0.0759
  212MOL0     C28511   2.984  10.882   7.300  0.6137 -0.1672  0.1032
  212MOL0     C28512   2.895  10.955   7.377 -0.6782  0.9529  0.6093
  212MOL0     C28513   2.743  10.922   7.370  0.2637  0.5924 -1.3962
  212MOL0     C28514   2.956  11.049   7.470  0.7374  0.0923  0.2695
  212MOL0     C28515   2.866  11.120   7.561  0.1490  0.0818  0.6669
  212MOL0     O28516   2.882  11.096   7.694  0.9267 -0.5027  0.3548
  212MOL0     C28517   2.796  11.149   7.786 -0.2133  0.8286 -0.0611
  212MOL0     C28518   2.838  11.131   7.919  0.0295 -0.1564  0.3801
  212MOL0     C28519   2.751  11.168   8.023 -0.2042  0.2462  0.2406
  212MOL0     C28520   2.632  11.238   8.003 -0.3601  0.4294  0.1913
  212MOL0     O28521   2.545  11.271   8.109 -0.4423  0.0542 -0.0614
  212MOL0     C28522   2.606  11.352   8.213  0.1607  0.0898  0.7148
  212MOL0     C28523   2.647  11.492   8.158 -0.2279 -0.7071 -0.0898
  212MOL0     C28524   2.675  11.588   8.278  0.2735  0.9585 -0.5068
  212MOL0     C28525   2.684  11.734   8.225 -0.2705  0.3383 -0.3159
  212MOL0     C28526   2.725  11.835   8.327  0.8069 -0.0685 -0.0213
  212MOL0     C28527   2.871  11.837   8.374  1.0782 -0.1544 -0.4103
  212MOL0     C28528   2.959  11.816   8.260 -0.8103 -0.2118  0.1286
  212MOL0     C28529   3.110  11.820   8.295 -1.0637  0.3848  0.7593
  212MOL0    Cl28530   3.167  11.649   8.352 -0.0871  0.1315 -0.0574
  212MOL0     C28531   2.588  11.235   7.872 -0.5588  0.4139 -0.1355
  212MOL0     C28532   2.664  11.195   7.767  1.0757 -0.1400 -0.5016
  212MOL0     O28533   2.779  11.190   7.515  0.3588 -0.2517 -0.5615
  212MOL0     C28534   3.093  11.072   7.482  0.1117 -0.2048  0.9392
  212MOL0     C28535   3.177  11.011   7.389 -0.6087  0.3050 -0.5364
  212MOL0     N28536   3.628  10.974   7.292  0.3717  0.4876 -0.1900
  212MOL0     N28537   3.716  11.055   7.334 -0.1573  0.0359 -0.0153
  212MOL0     C28538   4.851  10.871   6.760 -1.0096  0.2241 -0.9746
  212MOL0     C28539   4.937  10.947   6.673  1.2062  0.3012  0.2009
  212MOL0     C28540   5.112  11.246   6.408  0.4638  0.5197  1.6688
  212MOL0     C28541   5.151  11.226   6.273  0.2865  1.7038  0.1669
  212MOL0     C28542   5.216  11.328   6.199  0.0253 -0.5670 -0.6224
  212MOL0     C28543   5.232  11.455   6.257  0.1558  0.3617 -0.5996
  212MOL0     O28544   5.273  11.560   6.179 -0.4313  0.5073 -0.0925
  212MOL0     C28545   5.199  11.679   6.163  0.3956 -0.0348  0.0843
  212MOL0     C28546   5.067  11.676   6.083 -1.1232  0.5466 -0.8648
  212MOL0     C28547   5.095  11.624   5.942  0.4221  0.0328 -1.0008
  212MOL0     C28548   5.145  11.743   5.859 -0.4964 -0.0889  0.8440
  212MOL0     C28549   5.123  11.727   5.715 -0.5406  0.3530 -0.4546
  212MOL0     C28550   5.139  11.706   5.597 -0.3402  1.1374  0.5556
  212MOL0     C28551   5.193  11.474   6.387 -0.3123  0.8491  0.3627
  212MOL0     C28552   5.130  11.375   6.461  0.1798  0.1076  0.5399
  212MOL0     H28553   4.915  11.251   6.819  2.7212 -0.9090 -2.6771
  212MOL0     H28554   4.759  11.127   6.970  0.9919  0.1491 -0.1471
  212MOL0     H28555   4.617  10.776   6.831  1.8426  1.8326  0.1153
  212MOL0     H28556   4.718  10.664   6.931  0.4006  0.5506  1.7475
  212MOL0     H28557   4.483  10.644   7.015 -3.0326  1.9070  1.3846
  212MOL0     H28558   4.593  10.709   7.145  2.4421  0.3086 -0.6676
  212MOL0     H28559   4.499  10.936   7.083 -0.4458  1.8896 -1.3093
  212MOL0     H28560   4.409  10.858   6.958 -1.8342 -0.1898  1.9709
  212MOL0     H28561   4.254  10.771   7.082  0.0512 -0.9399  0.8840
  212MOL0     H28562   4.339  10.753   7.234  1.0882  0.1459 -0.5043
  212MOL0     H28563   4.335  10.995   7.260 -0.1040 -1.9349  2.1488
  212MOL0     H28564   4.264  11.012   7.098 -2.1431 -1.2558 -1.5009
  212MOL0     H28565   4.069  10.886   7.140 -0.0698  0.7043 -0.7795
  212MOL0     H28566   4.121  10.855   7.308  0.4675  0.7752  0.4198
  212MOL0     H28567   4.153  11.110   7.324  0.9508 -3.2003  0.9639
  212MOL0     H28568   4.049  11.120   7.178  1.8786 -1.2479 -1.8123
  212MOL0     H28569   3.930  11.137   7.417 -2.7574 -0.5519 -1.4712
  212MOL0     H28570   3.993  10.968   7.441 -0.6680 -0.7949 -1.0465
  212MOL0     H28571   3.887  10.770   7.287 -2.2092 -2.4689 -3.8998
  212MOL0     H28572   3.684  10.714   7.104 -2.7057 -0.1853 -1.8222
  212MOL0     H28573   3.639  10.647   7.268 -0.1603 -2.0879 -2.5476
  212MOL0     H28574   3.456  10.671   7.090 -0.7671  0.5560 -1.1837
  212MOL0     H28575   3.461  10.845   7.103  0.2960 -1.1405 -0.1141
  212MOL0     H28576   3.411  10.840   7.334  0.0934  1.8014 -4.0860
  212MOL0     H28577   3.433  10.666   7.354  0.9448  0.1742 -1.1692
  212MOL0     H28578   3.201  10.696   7.365  0.6271 -0.3400 -0.5666
  212MOL0     H28579   3.223  10.649   7.186 -1.5814  1.4511 -2.0860
  212MOL0     H28580   2.940  10.803   7.240  0.6418  0.5518 -0.9002
  212MOL0     H28581   2.678  10.972   7.298  1.2019  0.5665 -2.2990
  212MOL0     H28582   2.753  10.815   7.351  1.4471  0.0665  1.5597
  212MOL0     H28583   2.695  10.923   7.468  3.9923  1.7952  0.6169
  212MOL0     H28584   2.932  11.081   7.938 -1.3585 -3.1296  0.0270
  212MOL0     H28585   2.793  11.164   8.123  0.7726  1.2304 -0.0985
  212MOL0     H28586   2.529  11.373   8.287  0.0952  1.0561  0.3894
  212MOL0     H28587   2.696  11.314   8.262 -0.5679 -1.1553  1.1219
  212MOL0     H28588   2.734  11.487   8.093  0.1840 -0.2105  0.4083
  212MOL0     H28589   2.571  11.541   8.098  0.3882  2.9817  1.8285
  212MOL0     H28590   2.771  11.561   8.324 -1.2788 -3.2161  0.6896
  212MOL0     H28591   2.586  11.575   8.340  0.1443  0.0277 -0.8682
  212MOL0     H28592   2.737  11.730   8.130  0.7850 -0.3132  0.2884
  212MOL0     H28593   2.581  11.765   8.203 -1.5195 -3.0655  0.2318
  212MOL0     H28594   2.666  11.823   8.419 -0.9624  0.7173 -0.9977
  212MOL0     H28595   2.710  11.933   8.279  1.5737 -0.4589 -1.1019
  212MOL0     H28596   2.897  11.930   8.425 -1.1329  1.0023 -1.2447
  212MOL0     H28597   2.880  11.766   8.456  2.0758  0.8370  0.3683
  212MOL0     H28598   2.945  11.896   8.186  0.7141  1.2690  1.3591
  212MOL0     H28599   2.944  11.711   8.232 -2.0738  0.0430 -0.1711
  212MOL0     H28600   3.134  11.887   8.377  0.6031  0.3028  0.3659
  212MOL0     H28601   3.180  11.857   8.220 -2.0541  0.2797 -0.2473
  212MOL0     H28602   2.489  11.275   7.849 -1.1814 -1.5562 -1.1339
  212MOL0     H28603   2.619  11.210   7.669 -2.7594  0.5165  1.1889
  212MOL0     H28604   3.139  11.151   7.540  0.2797 -0.5840  1.3232
  212MOL0     H28605   3.277  11.051   7.378 -0.4976  0.3544  0.5070
  212MOL0     H28606   4.838  10.764   6.745 -1.7219  0.2138 -0.3934
  212MOL0     H28607   4.987  10.894   6.593  1.1098 -2.8829  2.0922
  212MOL0     H28608   5.123  11.136   6.219 -3.1376  3.3740 -1.1131
  212MOL0     H28609   5.227  11.318   6.091  1.1545 -1.7701 -0.4067
  212MOL0     H28610   5.164  11.718   6.259 -0.4284  3.1235 -1.3581
  212MOL0     H28611   5.264  11.753   6.115  0.5536 -0.0019  0.3419
  212MOL0     H28612   5.014  11.772   6.075 -0.1644  0.9248 -3.8920
  212MOL0     H28613   4.998  11.607   6.132 -0.4726  0.1304 -0.5233
  212MOL0     H28614   5.008  11.576   5.897  1.7692 -3.0058 -0.6389
  212MOL0     H28615   5.171  11.545   5.940  1.8228  1.3277 -1.5637
  212MOL0     H28616   5.252  11.756   5.874 -0.3196 -1.3935  0.7867
  212MOL0     H28617   5.111  11.840   5.895  1.7603 -0.0587  3.0879
  212MOL0     H28618   5.176  11.698   5.496 -1.7827 -2.3252  0.1361
  212MOL0     H28619   5.210  11.577   6.420  0.1711  1.7356 -2.4200
  212MOL0     H28620   5.102  11.393   6.564 -3.2895 -0.2547 -0.2264
  213MOL0     O28621   8.325   6.987   7.931  0.6312 -0.4083 -0.2738
  213MOL0     C28622   8.334   6.915   7.834 -0.4763  0.7335  0.1279
  213MOL0     O28623   8.228   6.855   7.768  0.1681 -0.0575  0.4344
  213MOL0     C28624   8.104   6.849   7.845 -0.8927  0.1124  0.5821
  213MOL0     C28625   8.074   6.729   7.905  0.8793  0.7431 -0.2295
  213MOL0     C28626   7.954   6.716   7.975  0.3523 -0.4379  0.0906
  213MOL0     C28627   7.861   6.828   7.986  0.2878 -0.6498  0.3533
  213MOL0     O28628   7.742   6.836   8.053  0.5603 -0.0156 -0.3492
  213MOL0     C28629   7.711   6.743   8.150 -0.3253  0.5864  0.0260
  213MOL0     C28630   7.656   6.611   8.078 -0.1141 -0.0316  0.9259
  213MOL0     C28631   7.647   6.480   8.166  0.0904  0.4001  0.3829
  213MOL0     C28632   7.516   6.472   8.246  0.3030  1.0053  0.6702
  213MOL0     C28633   7.521   6.350   8.346 -0.1690 -0.3024  0.3834
  213MOL0     C28634   7.500   6.223   8.269  0.0713  0.3602 -0.6841
  213MOL0     C28635   7.501   6.100   8.364  0.0247  0.5421 -0.0074
  213MOL0     C28636   7.479   5.968   8.284  0.3609  0.1341  1.1533
  213MOL0     N28637   7.575   5.932   8.169 -0.9898  0.4128 -0.9379
  213MOL0     C28638   7.717   5.933   8.193  0.5159 -0.2521 -0.2827
  213MOL0     C28639   7.769   5.886   8.084 -0.5206  0.7935  0.3983
  213MOL0     C28640   7.917   5.867   8.074 -0.7033 -0.2717  0.0676
  213MOL0     C28641   7.995   5.996   8.035  0.9616  0.0157  0.1243
  213MOL0     C28642   8.138   5.963   8.057 -0.1117 -0.1087 -0.2781
  213MOL0     C28643   8.228   6.073   8.021 -0.2977  0.2500 -0.2684
  213MOL0     O28644   8.243   6.175   8.131 -0.1371  0.7226  0.4282
  213MOL0     C28645   8.366   6.210   8.173 -0.5423 -0.4018  0.0058
  213MOL0     C28646   8.480   6.223   8.092 -0.2821  0.0696 -0.6644
  213MOL0     C28647   8.605   6.281   8.140  0.4924 -0.7853  0.1739
  213MOL0     C28648   8.722   6.279   8.046 -0.3049  0.2895 -0.1160
  213MOL0     C28649   8.604   6.340   8.265 -0.0726  0.1274 -0.5541
  213MOL0     C28650   8.718   6.417   8.323 -1.0413 -0.1863  0.3580
  213MOL0     O28651   8.707   6.452   8.450  0.2820 -0.6824 -0.5388
  213MOL0     C28652   8.796   6.544   8.521  0.6063  1.4442  0.1179
  213MOL0     C28653   8.902   6.612   8.472 -0.3047  0.2220  0.4660
  213MOL0     C28654   8.989   6.684   8.551  0.6139  0.8389  0.8522
  213MOL0     C28655   8.963   6.696   8.688 -0.8122 -0.0509  0.0993
  213MOL0     O28656   9.039   6.775   8.772 -0.2411 -0.0187  0.0345
  213MOL0     C28657   9.168   6.811   8.732 -0.2128 -1.1060  0.6554
  213MOL0     C28658   9.229   6.889   8.853 -0.2520  0.3627  0.9269
  213MOL0     C28659   9.387   6.921   8.835  0.2621  0.5102  0.9648
  213MOL0     C28660   9.407   7.057   8.890 -0.5677  0.1537 -0.0086
  213MOL0     C28661   9.559   7.109   8.879  0.1066  1.2189  0.0296
  213MOL0     C28662   9.618   7.128   8.731 -0.0014 -0.8995  0.1273
  213MOL0     C28663   9.754   7.205   8.722  0.2437 -0.2087 -0.1379
  213MOL0     C28664   9.740   7.359   8.731  0.6643  0.1020 -1.0437
  213MOL0    Cl28665   9.643   7.436   8.600  0.2592 -0.2541  0.3331
  213MOL0     C28666   8.861   6.624   8.742  0.3837 -0.2213 -0.4081
  213MOL0     C28667   8.778   6.553   8.656 -0.5463 -0.5758  0.5281
  213MOL0     O28668   8.825   6.425   8.260 -0.6833  0.7151  0.5326
  213MOL0     C28669   8.489   6.322   8.344 -0.3310  0.6983 -0.4016
  213MOL0     C28670   8.374   6.264   8.303 -0.3487 -0.3010  0.2120
  213MOL0     N28671   7.670   5.838   7.998 -0.5890  1.1502  0.2084
  213MOL0     N28672   7.553   5.866   8.050 -0.0283 -0.4448 -0.7120
  213MOL0     C28673   7.908   6.956   7.942 -0.1724  0.4209  0.6321
  213MOL0     C28674   8.025   6.964   7.870 -0.7495  0.0739  0.8416
  213MOL0     C28675   8.465   6.878   7.783 -0.2793 -1.3118 -0.3561
  213MOL0     C28676   8.477   6.796   7.668 -0.7720 -0.8417 -0.3784
  213MOL0     C28677   8.606   6.772   7.613  0.4413  1.2469  0.8928
  213MOL0     C28678   8.717   6.829   7.672  0.1544  0.1927 -0.4189
  213MOL0     O28679   8.844   6.793   7.619  0.1211 -0.5469 -0.5967
  213MOL0     C28680   8.940   6.896   7.624  0.1476  0.4211  0.0788
  213MOL0     C28681   9.087   6.858   7.578  0.0059  0.5952  0.4455
  213MOL0     C28682   9.135   6.734   7.659 -0.0231  0.4441  0.5279
  213MOL0     C28683   9.135   6.747   7.802  0.3099 -0.4766 -0.7493
  213MOL0     C28684   9.213   6.642   7.870 -0.1410  1.1147 -0.6250
  213MOL0     C28685   9.283   6.561   7.932 -0.8101 -0.2931  0.2373
  213MOL0     C28686   8.706   6.909   7.783  0.0226 -0.0090 -0.6875
  213MOL0     C28687   8.579   6.938   7.840 -0.3702 -0.7026  0.3788
  213MOL0     H28688   8.131   6.641   7.880 -0.4519 -1.3441  3.3553
  213MOL0     H28689   7.937   6.622   8.026  0.7039 -0.9310 -0.6927
  213MOL0     H28690   7.795   6.708   8.211 -0.4907  2.7843  1.6428
  213MOL0     H28691   7.633   6.775   8.220 -0.0306 -1.0885  1.1702
  213MOL0     H28692   7.553   6.633   8.052  0.2094  0.9114  0.3917
  213MOL0     H28693   7.708   6.585   7.986 -0.9820 -1.3844  0.7969
  213MOL0     H28694   7.660   6.393   8.101 -0.7971  1.8865 -1.8990
  213MOL0     H28695   7.728   6.475   8.240  0.3366 -1.8747  0.0322
  213MOL0     H28696   7.510   6.560   8.310  1.5657  0.8671  1.0040
  213MOL0     H28697   7.434   6.453   8.176 -0.2192  1.2102  1.2084
  213MOL0     H28698   7.620   6.344   8.393  0.3824  1.6595 -0.4101
  213MOL0     H28699   7.446   6.354   8.425 -1.8072  0.4832 -1.1625
  213MOL0     H28700   7.410   6.239   8.209  1.0520  0.2318 -2.2157
  213MOL0     H28701   7.590   6.208   8.210  1.5589 -2.4196  2.0350
  213MOL0     H28702   7.589   6.081   8.426 -0.8633 -2.0427  0.5961
  213MOL0     H28703   7.425   6.112   8.442  0.4008  0.0672  0.4363
  213MOL0     H28704   7.375   5.971   8.251  0.2164  1.1704  1.6706
  213MOL0     H28705   7.499   5.887   8.355 -0.2664  0.1917  1.3972
  213MOL0     H28706   7.760   5.982   8.280  0.1154  2.4145 -1.4717
  213MOL0     H28707   7.953   5.829   8.170  1.2942  0.4294 -0.3417
  213MOL0     H28708   7.943   5.795   7.995  1.2762  2.4967 -2.0208
  213MOL0     H28709   7.970   6.089   8.086 -4.6748 -0.3696 -1.2572
  213MOL0     H28710   7.970   6.013   7.929 -0.5761 -0.7571  0.3349
  213MOL0     H28711   8.164   5.871   8.003 -1.8438 -0.0871 -1.2176
  213MOL0     H28712   8.156   5.958   8.165  1.4843  0.7759 -0.4705
  213MOL0     H28713   8.187   6.112   7.928  1.3297 -2.0444 -2.0583
  213MOL0     H28714   8.326   6.040   7.984 -0.0273  2.1864 -1.4398
  213MOL0     H28715   8.478   6.180   7.992 -3.8999 -0.9153 -0.3045
  213MOL0     H28716   8.807   6.228   8.091  0.1115 -0.4374 -1.6568
  213MOL0     H28717   8.709   6.222   7.953  1.6150 -0.5078  0.0486
  213MOL0     H28718   8.743   6.383   8.021  1.6391 -0.9088 -4.5451
  213MOL0     H28719   8.932   6.611   8.367 -0.2091 -1.1260  0.4922
  213MOL0     H28720   9.073   6.741   8.513  2.0823  0.4029  3.1905
  213MOL0     H28721   9.226   6.721   8.710 -0.5829 -1.9834  2.9989
  213MOL0     H28722   9.178   6.867   8.639 -0.3233  2.8523  2.8295
  213MOL0     H28723   9.164   6.972   8.883 -0.8386 -0.8196  3.1487
  213MOL0     H28724   9.221   6.826   8.942  1.3099 -1.8493 -0.4132
  213MOL0     H28725   9.420   6.911   8.731  3.2149 -3.5498  2.0483
  213MOL0     H28726   9.445   6.845   8.888  1.2372  1.7301  1.7181
  213MOL0     H28727   9.344   7.120   8.826 -2.2001 -3.6562 -2.4673
  213MOL0     H28728   9.393   7.068   8.998  0.1500  3.4445 -0.1289
  213MOL0     H28729   9.623   7.045   8.940  1.7756  0.6919 -2.1542
  213MOL0     H28730   9.549   7.206   8.927  1.8878  1.3805  0.1480
  213MOL0     H28731   9.633   7.029   8.685  1.3683 -0.8087  0.3430
  213MOL0     H28732   9.548   7.188   8.671 -0.2999  0.1009  1.4335
  213MOL0     H28733   9.800   7.185   8.625  0.2504 -0.1882 -0.1391
  213MOL0     H28734   9.830   7.169   8.793  2.3939  1.8881 -1.2442
  213MOL0     H28735   9.842   7.399   8.737  1.2912 -1.5030 -0.6574
  213MOL0     H28736   9.695   7.397   8.823  3.4793  0.8875  0.1287
  213MOL0     H28737   8.849   6.616   8.849  0.6433 -0.9472 -0.4315
  213MOL0     H28738   8.697   6.497   8.703 -2.0348  1.2175  0.2083
  213MOL0     H28739   8.489   6.357   8.447 -1.7448  0.0660 -0.1545
  213MOL0     H28740   8.291   6.257   8.373 -2.8132  1.3570 -2.3437
  213MOL0     H28741   7.855   7.047   7.968  0.7095  0.2556  3.2544
  213MOL0     H28742   8.067   7.060   7.841  0.9192 -0.7013  0.5618
  213MOL0     H28743   8.392   6.745   7.625 -1.0909 -1.7744  1.2721
  213MOL0     H28744   8.629   6.702   7.533 -0.7059  1.4728  0.3343
  213MOL0     H28745   8.912   6.986   7.568  0.4531 -0.9487 -2.3874
  213MOL0     H28746   8.962   6.930   7.726  0.7535 -0.2581  0.1846
  213MOL0     H28747   9.160   6.938   7.592  0.7285 -0.1302  0.9836
  213MOL0     H28748   9.091   6.822   7.475  2.9614  0.8960  0.3767
  213MOL0     H28749   9.239   6.711   7.635 -0.4545  0.9388 -2.1598
  213MOL0     H28750   9.080   6.646   7.625 -1.0731  0.6266  1.6775
  213MOL0     H28751   9.031   6.747   7.835  0.9219  0.8824  1.3907
  213MOL0     H28752   9.162   6.849   7.831  0.0002 -0.9502  1.3658
  213MOL0     H28753   9.331   6.480   7.983  2.3255 -0.8627 -3.1907
  213MOL0     H28754   8.790   6.952   7.836 -1.3117 -2.3315  3.8344
  213MOL0     H28755   8.579   7.001   7.928  0.7804  0.7030 -0.5996
  214MOL0     O28756   7.199   1.302   6.112 -0.1552 -0.1148  0.3649
  214MOL0     C28757   7.246   1.377   6.031 -0.1844 -0.0207 -0.1458
  214MOL0     O28758   7.189   1.428   5.921  0.6888 -0.2066 -0.0103
  214MOL0     C28759   7.080   1.364   5.874  0.3230  0.6501  0.5271
  214MOL0     C28760   7.103   1.240   5.813  0.2001  0.7194  0.0649
  214MOL0     C28761   6.991   1.165   5.796 -0.0618  0.9187  0.3501
  214MOL0     C28762   6.856   1.192   5.824  0.3418 -0.5465 -0.2199
  214MOL0     O28763   6.764   1.089   5.815 -0.4341 -0.5097  0.1042
  214MOL0     C28764   6.626   1.123   5.777 -0.1364  1.0283 -0.0194
  214MOL0     C28765   6.539   0.997   5.764 -0.5137 -0.2437  0.5084
  214MOL0     C28766   6.388   1.027   5.751 -0.2990  0.1121  0.1827
  214MOL0     C28767   6.314   0.907   5.695  0.3449 -1.7327 -0.0042
  214MOL0     C28768   6.164   0.933   5.703  0.6435  0.3040 -0.7608
  214MOL0     C28769   6.087   1.011   5.590 -0.1023 -0.1496 -0.0253
  214MOL0     C28770   5.936   1.011   5.603 -0.3536 -1.1983  0.4547
  214MOL0     C28771   5.891   1.030   5.745  1.1533  0.1585 -0.5232
  214MOL0     N28772   5.743   1.011   5.752  0.1817 -0.5250 -0.2366
  214MOL0     C28773   5.676   0.886   5.752  0.7485 -0.3907  0.6474
  214MOL0     C28774   5.546   0.918   5.782  0.0812 -0.2193  0.3373
  214MOL0     C28775   5.419   0.826   5.791 -0.5017 -0.8539 -0.3649
  214MOL0     C28776   5.336   0.811   5.662  0.6456  0.6846 -0.5799
  214MOL0     C28777   5.229   0.691   5.665 -0.0748 -1.1811  0.0804
  214MOL0     C28778   5.104   0.727   5.733 -0.1295 -0.1306 -0.1816
  214MOL0     O28779   5.039   0.820   5.644 -1.3493  0.0747 -0.3868
  214MOL0     C28780   4.909   0.855   5.667  0.0426  0.3901  0.0684
  214MOL0     C28781   4.810   0.787   5.744 -0.9383 -0.3423 -0.2845
  214MOL0     C28782   4.676   0.830   5.758  0.9177  0.4169  0.1203
  214MOL0     C28783   4.592   0.737   5.847  0.1310 -1.0908 -0.2537
  214MOL0     C28784   4.638   0.944   5.680 -0.6739  0.2348 -0.2554
  214MOL0     C28785   4.502   0.993   5.658  0.8492  0.7881 -0.1414
  214MOL0     O28786   4.473   1.066   5.544  0.3507  0.2251 -0.0407
  214MOL0     C28787   4.346   1.119   5.531  0.0106 -1.3777  0.0079
  214MOL0     C28788   4.288   1.217   5.616  0.8087 -0.9476  0.6146
  214MOL0     C28789   4.152   1.259   5.597  0.8095  1.0013  0.5805
  214MOL0     C28790   4.073   1.195   5.496 -0.4982  0.1534 -0.1139
  214MOL0     O28791   3.941   1.219   5.480  0.4020  0.3266 -0.3697
  214MOL0     C28792   3.869   1.295   5.580  0.8840  0.5257  0.0076
  214MOL0     C28793   3.726   1.262   5.575  0.5776  0.1011 -0.6638
  214MOL0     C28794   3.637   1.383   5.594 -0.1238  0.0488 -0.0359
  214MOL0     C28795   3.496   1.352   5.654 -1.4827  0.4120 -1.4557
  214MOL0     C28796   3.401   1.465   5.614  0.1345 -0.0150 -0.0062
  214MOL0     C28797   3.257   1.438   5.678 -0.8743  0.9103  0.5563
  214MOL0     C28798   3.148   1.519   5.608 -0.4769 -0.5121  0.2672
  214MOL0     C28799   3.004   1.490   5.648  0.0674  0.1132  0.6361
  214MOL0    Cl28800   2.882   1.616   5.608 -0.5399 -0.3185 -0.1007
  214MOL0     C28801   4.135   1.109   5.408 -0.0839 -0.1032 -0.0822
  214MOL0     C28802   4.269   1.070   5.436  0.2201 -0.2623 -0.6301
  214MOL0     O28803   4.411   0.957   5.736 -0.3785  0.1477 -0.4485
  214MOL0     C28804   4.732   1.018   5.610 -0.1503  0.6160 -0.2629
  214MOL0     C28805   4.865   0.971   5.598  0.3706 -0.5977 -0.6899
  214MOL0     N28806   5.541   1.059   5.794  0.8545  0.7005  0.3158
  214MOL0     N28807   5.658   1.116   5.782 -0.3736 -0.6796 -0.5471
  214MOL0     C28808   6.832   1.323   5.876 -0.2137  0.4360 -1.0345
  214MOL0     C28809   6.949   1.406   5.906 -0.0008 -0.1424  0.3319
  214MOL0     C28810   7.386   1.427   6.070 -0.2121  0.0816 -0.4414
  214MOL0     C28811   7.460   1.499   5.967  0.0357 -0.2246 -0.7974
  214MOL0     C28812   7.584   1.558   6.003  0.7156 -0.4003 -0.4206
  214MOL0     C28813   7.647   1.533   6.128  0.7954 -0.5836 -0.6955
  214MOL0     O28814   7.765   1.585   6.150 -0.4882 -0.5350 -0.3975
  214MOL0     C28815   7.790   1.639   6.274  0.5469 -0.0819  0.5802
  214MOL0     C28816   7.897   1.754   6.268  0.1051 -0.2584  0.2839
  214MOL0     C28817   7.975   1.734   6.131 -0.4764  0.1844 -0.5796
  214MOL0     C28818   8.108   1.794   6.097 -1.0702 -0.1078  0.3996
  214MOL0     C28819   8.218   1.762   6.194  0.4205  1.1735  0.3485
  214MOL0     C28820   8.295   1.722   6.280 -0.1415  0.6418  0.2715
  214MOL0     C28821   7.576   1.459   6.224  0.0651 -0.3614 -0.7986
  214MOL0     C28822   7.444   1.412   6.198  0.0682  0.4819  0.3499
  214MOL0     H28823   7.199   1.191   5.800 -1.1026 -2.3028  0.8808
  214MOL0     H28824   6.992   1.065   5.752 -5.1347  0.9000 -0.3436
  214MOL0     H28825   6.577   1.190   5.848 -2.5936 -0.3357 -0.3123
  214MOL0     H28826   6.627   1.168   5.677 -0.9009  2.1537  0.4701
  214MOL0     H28827   6.558   0.920   5.689 -1.1797 -1.2489  1.3321
  214MOL0     H28828   6.561   0.942   5.856 -0.5157  0.9635  1.2535
  214MOL0     H28829   6.357   1.055   5.852  2.0929 -0.3041  1.0905
  214MOL0     H28830   6.372   1.110   5.682  2.4101 -0.3997 -1.1937
  214MOL0     H28831   6.336   0.898   5.588  1.4361 -2.3672  0.2604
  214MOL0     H28832   6.335   0.814   5.749 -1.2620 -2.6073 -0.8029
  214MOL0     H28833   6.113   0.837   5.694 -1.0044  1.2937 -3.2456
  214MOL0     H28834   6.138   0.979   5.798  2.9514  0.5556 -0.1771
  214MOL0     H28835   6.116   1.117   5.585 -1.1820  0.3953  3.0054
  214MOL0     H28836   6.121   0.964   5.497  0.7915  0.4553 -0.0224
  214MOL0     H28837   5.902   1.091   5.535 -0.5908 -1.6399  0.0441
  214MOL0     H28838   5.901   0.917   5.560  0.9823 -2.1765  1.4361
  214MOL0     H28839   5.920   1.128   5.785 -2.0499  0.0516  2.4924
  214MOL0     H28840   5.928   0.957   5.818  1.8356 -0.0458 -1.0620
  214MOL0     H28841   5.716   0.793   5.715 -1.0757 -0.2615 -1.8413
  214MOL0     H28842   5.456   0.728   5.824 -0.5669  0.0650  2.7425
  214MOL0     H28843   5.355   0.848   5.877 -0.6136 -3.7475  0.4162
  214MOL0     H28844   5.417   0.786   5.593  0.7097 -1.1187  0.0912
  214MOL0     H28845   5.295   0.905   5.624  1.1291  0.7438 -0.9712
  214MOL0     H28846   5.266   0.592   5.696 -2.5866 -2.6181 -1.1721
  214MOL0     H28847   5.194   0.675   5.562 -2.8692 -0.9885  0.9124
  214MOL0     H28848   5.131   0.781   5.824  2.3129 -0.7547 -0.4660
  214MOL0     H28849   5.055   0.634   5.761 -0.5119  0.3416  0.7922
  214MOL0     H28850   4.844   0.718   5.821  2.9743  1.7078  0.1137
  214MOL0     H28851   4.492   0.718   5.804  0.9282 -2.0961 -1.7650
  214MOL0     H28852   4.635   0.639   5.865 -0.4531 -1.3762 -0.3864
  214MOL0     H28853   4.590   0.782   5.946 -1.1506  0.1084 -0.7845
  214MOL0     H28854   4.349   1.267   5.691  0.3781  2.2293 -0.9521
  214MOL0     H28855   4.107   1.348   5.638  0.0540  0.8281  0.1411
  214MOL0     H28856   3.891   1.263   5.683 -1.1916  1.1098  0.6822
  214MOL0     H28857   3.901   1.399   5.573  2.3393  0.1629  0.7631
  214MOL0     H28858   3.699   1.214   5.480  0.4678  1.8999 -1.5904
  214MOL0     H28859   3.702   1.187   5.650  2.6504 -1.1218 -1.1248
  214MOL0     H28860   3.624   1.442   5.502  2.0904  2.2889  0.9568
  214MOL0     H28861   3.687   1.448   5.667 -0.1225  0.5231 -0.4539
  214MOL0     H28862   3.457   1.255   5.622 -0.9105 -1.3424  2.5326
  214MOL0     H28863   3.501   1.338   5.763  1.8423 -4.2427 -1.8991
  214MOL0     H28864   3.393   1.475   5.506  2.4477 -0.3203 -0.2491
  214MOL0     H28865   3.435   1.560   5.656  0.9409 -1.9673  4.3455
  214MOL0     H28866   3.243   1.330   5.690  4.4519  0.1482  2.7937
  214MOL0     H28867   3.275   1.462   5.783 -1.7740 -1.7108  1.3736
  214MOL0     H28868   3.156   1.505   5.500 -3.2273 -1.0586  0.0702
  214MOL0     H28869   3.166   1.622   5.640  2.2967 -2.4038  6.3423
  214MOL0     H28870   2.994   1.471   5.755  1.6518 -1.8154  0.4947
  214MOL0     H28871   2.977   1.399   5.595  0.5999  0.2211  0.1671
  214MOL0     H28872   4.096   1.069   5.315 -0.1991  0.4050 -0.2543
  214MOL0     H28873   4.302   0.998   5.361  1.5786  1.7840 -2.1257
  214MOL0     H28874   4.703   1.107   5.556  0.3664  0.9188 -0.0456
  214MOL0     H28875   4.929   1.038   5.542 -0.3116  0.0186 -0.7460
  214MOL0     H28876   6.731   1.353   5.903 -0.2304 -0.6112  0.1866
  214MOL0     H28877   6.931   1.503   5.953 -0.9925  0.0037 -0.3249
  214MOL0     H28878   7.417   1.526   5.871  0.7912  0.9713 -0.8207
  214MOL0     H28879   7.639   1.624   5.938 -1.2119  1.6355 -0.1103
  214MOL0     H28880   7.701   1.674   6.325 -1.4822 -2.9351 -0.7292
  214MOL0     H28881   7.823   1.562   6.344  1.7249  0.1893  0.3448
  214MOL0     H28882   7.969   1.750   6.350 -1.7556  2.5379  2.2264
  214MOL0     H28883   7.847   1.852   6.269 -1.6936 -1.1211 -0.5945
  214MOL0     H28884   7.903   1.779   6.061 -0.8695 -0.6861 -0.7528
  214MOL0     H28885   7.990   1.626   6.120 -4.3302 -0.8475  2.1293
  214MOL0     H28886   8.102   1.904   6.092  1.1464  0.0206 -0.6577
  214MOL0     H28887   8.146   1.766   5.998  1.2575  2.9630  0.2643
  214MOL0     H28888   8.363   1.686   6.355 -1.4761 -4.0949 -0.4717
  214MOL0     H28889   7.624   1.423   6.315 -1.9885  0.0970  0.5443
  214MOL0     H28890   7.405   1.355   6.281  0.9681 -2.0998 -0.8800
  215MOL0     O28891   5.046   7.050   4.427  0.6730  0.8192  0.4599
  215MOL0     C28892   5.070   7.029   4.549 -0.1476  1.0296 -0.1802
  215MOL0     O28893   4.987   6.962   4.635  0.4553  0.2371  0.0432
  215MOL0     C28894   4.860   6.936   4.589 -0.2065  0.8219 -0.5429
  215MOL0     C28895   4.766   7.034   4.597  0.5265 -0.6130 -1.0515
  215MOL0     C28896   4.625   7.010   4.582 -0.2803  0.1047  0.7902
  215MOL0     C28897   4.589   6.887   4.524  0.2507 -0.0839 -0.2954
  215MOL0     O28898   4.461   6.848   4.485 -1.7131 -0.1160 -0.0479
  215MOL0     C28899   4.350   6.929   4.529 -0.2876  0.8640 -0.5299
  215MOL0     C28900   4.323   7.039   4.427 -1.0607 -0.3647  0.7445
  215MOL0     C28901   4.205   7.142   4.458 -0.4836  0.2456 -0.1165
  215MOL0     C28902   4.251   7.237   4.565 -0.4075 -0.9805 -0.0558
  215MOL0     C28903   4.132   7.322   4.603  0.2858 -0.1635 -0.2463
  215MOL0     C28904   4.148   7.420   4.717 -0.6782  0.0960 -0.8792
  215MOL0     C28905   4.027   7.515   4.742 -0.0805  0.3070  0.5189
  215MOL0     C28906   4.041   7.593   4.875  0.0761  0.3641  0.0854
  215MOL0     N28907   4.014   7.511   4.993  0.7766  0.5006  0.6458
  215MOL0     C28908   3.893   7.490   5.062 -0.1429 -0.1244  0.3563
  215MOL0     C28909   3.921   7.433   5.179  0.7967 -0.2688 -0.6616
  215MOL0     C28910   3.810   7.384   5.280  0.0850 -0.7768  0.3957
  215MOL0     C28911   3.775   7.240   5.239 -0.7043 -0.3971  0.8947
  215MOL0     C28912   3.687   7.152   5.332 -0.3201 -0.2244  0.0805
  215MOL0     C28913   3.670   7.010   5.266  0.5311  0.0857  0.5945
  215MOL0     O28914   3.601   7.025   5.140 -0.2161  0.1870  0.3493
  215MOL0     C28915   3.466   7.055   5.132 -0.6452  0.2925  0.6569
  215MOL0     C28916   3.378   7.087   5.237 -0.5591 -0.8653  0.1316
  215MOL0     C28917   3.243   7.124   5.217 -0.3974 -0.2054 -0.5318
  215MOL0     C28918   3.163   7.155   5.338 -0.4547 -0.8852 -0.2092
  215MOL0     C28919   3.197   7.133   5.082 -0.1654 -0.3385 -0.9200
  215MOL0     C28920   3.061   7.168   5.046  0.4771 -1.2257  0.0860
  215MOL0     O28921   3.030   7.145   4.918  0.4470  0.2525  0.0252
  215MOL0     C28922   2.905   7.173   4.875 -0.1497  0.8153 -0.3642
  215MOL0     C28923   2.886   7.265   4.771  0.1615 -0.0178  0.8196
  215MOL0     C28924   2.754   7.301   4.741  0.4748  0.4962 -0.4990
  215MOL0     C28925   2.645   7.243   4.797  1.1375 -0.5283 -0.3121
  215MOL0     O28926   2.519   7.289   4.758  0.0049  0.8485 -0.3121
  215MOL0     C28927   2.423   7.183   4.728 -0.0523 -0.2198 -0.4444
  215MOL0     C28928   2.302   7.249   4.654 -0.2998 -0.8338 -0.0820
  215MOL0     C28929   2.180   7.156   4.645  0.1031  1.2131  0.0385
  215MOL0     C28930   2.058   7.231   4.611 -0.7023 -0.0033  0.5000
  215MOL0     C28931   1.941   7.138   4.559 -0.6659  0.8355 -0.3502
  215MOL0     C28932   1.816   7.196   4.514  0.3786 -0.0375 -0.4609
  215MOL0     C28933   1.719   7.237   4.637 -0.3517  0.0591  0.3284
  215MOL0     C28934   1.582   7.301   4.597 -0.7740 -0.3414  0.6561
  215MOL0    Cl28935   1.484   7.178   4.485  0.1758 -0.3130  0.3162
  215MOL0     C28936   2.662   7.141   4.898  0.5230 -0.7210 -1.2527
  215MOL0     C28937   2.790   7.108   4.941 -0.7455 -0.6733 -0.9762
  215MOL0     O28938   2.986   7.228   5.124 -0.4884  0.4611 -0.0105
  215MOL0     C28939   3.287   7.100   4.973 -0.0432 -0.9524 -0.1543
  215MOL0     C28940   3.417   7.080   5.004  0.0380  0.3950  0.0825
  215MOL0     N28941   4.056   7.413   5.179  0.2870  0.1372  0.0505
  215MOL0     N28942   4.115   7.453   5.066  0.6544  0.2910 -0.1313
  215MOL0     C28943   4.686   6.785   4.509  0.0987  0.1231 -0.7618
  215MOL0     C28944   4.828   6.807   4.535  0.4368 -0.2001 -0.9072
  215MOL0     C28945   5.207   7.055   4.582  0.7291  0.0300 -0.5082
  215MOL0     C28946   5.243   7.061   4.719 -0.8704 -0.3891  0.4169
  215MOL0     C28947   5.374   7.084   4.753 -0.8769 -0.7797 -0.0649
  215MOL0     C28948   5.475   7.112   4.663  0.0730  0.0378 -0.4466
  215MOL0     O28949   5.590   7.164   4.722 -0.6255  0.1123  0.2805
  215MOL0     C28950   5.700   7.194   4.634 -0.3778 -0.6525  0.4082
  215MOL0     C28951   5.771   7.069   4.588  0.2817  0.2097 -0.6703
  215MOL0     C28952   5.881   7.091   4.486  0.0718  0.0559  0.2815
  215MOL0     C28953   5.980   7.196   4.519 -0.6190 -0.8828  0.5893
  215MOL0     C28954   6.037   7.193   4.658 -0.4144 -0.6688 -0.1370
  215MOL0     C28955   6.110   7.172   4.750 -0.7708  0.4702  1.1183
  215MOL0     C28956   5.438   7.113   4.529 -0.6004 -0.4279 -0.5394
  215MOL0     C28957   5.303   7.083   4.486 -1.1375 -0.4143  1.5983
  215MOL0     H28958   4.790   7.135   4.629 -0.8692  0.2696 -2.6098
  215MOL0     H28959   4.554   7.088   4.607 -2.7456 -0.4584 -3.4030
  215MOL0     H28960   4.265   6.860   4.527  2.5140 -3.2055  3.1737
  215MOL0     H28961   4.362   6.969   4.630 -0.6007 -0.4347  0.0406
  215MOL0     H28962   4.412   7.098   4.409 -1.1588 -0.7484 -1.2728
  215MOL0     H28963   4.298   6.981   4.337  1.6327 -0.7155  0.1368
  215MOL0     H28964   4.176   7.204   4.373 -2.2366 -0.3759  0.0032
  215MOL0     H28965   4.114   7.084   4.476  0.0110  0.5325  4.4452
  215MOL0     H28966   4.289   7.185   4.654  0.3027 -1.2191 -0.4929
  215MOL0     H28967   4.334   7.294   4.522 -0.2007 -2.3625 -1.5537
  215MOL0     H28968   4.107   7.388   4.519  2.1754 -1.0686 -1.5799
  215MOL0     H28969   4.044   7.259   4.618 -1.8102  3.1707  3.1670
  215MOL0     H28970   4.163   7.349   4.798 -0.7086  0.2798 -0.7131
  215MOL0     H28971   4.238   7.474   4.688  1.3783 -2.5476  0.2450
  215MOL0     H28972   4.027   7.587   4.659 -0.6543 -0.2281  0.0534
  215MOL0     H28973   3.935   7.457   4.742  1.0174 -1.5284 -0.2339
  215MOL0     H28974   3.962   7.668   4.878  1.3558  1.8545 -1.8021
  215MOL0     H28975   4.140   7.639   4.881  0.0529  0.5716 -1.0510
  215MOL0     H28976   3.796   7.515   5.022 -0.0860  0.1518  0.3902
  215MOL0     H28977   3.840   7.389   5.385 -0.0217 -3.5568  0.6493
  215MOL0     H28978   3.727   7.453   5.270 -0.9615 -1.8996  1.0738
  215MOL0     H28979   3.861   7.176   5.219 -0.5960 -0.3174  1.1077
  215MOL0     H28980   3.722   7.259   5.145  0.3900 -0.7692  0.1861
  215MOL0     H28981   3.588   7.199   5.337 -0.3322 -0.3584  3.1687
  215MOL0     H28982   3.726   7.158   5.434  2.1484  3.0018 -0.9038
  215MOL0     H28983   3.611   6.940   5.327 -3.4134  3.0668  0.5622
  215MOL0     H28984   3.766   6.965   5.238 -0.2980 -0.9730 -0.6801
  215MOL0     H28985   3.412   7.075   5.339 -0.3269 -2.4951 -0.1132
  215MOL0     H28986   3.150   7.264   5.333  0.5978 -0.7201  0.4235
  215MOL0     H28987   3.064   7.108   5.335 -1.1775  0.4590  0.8861
  215MOL0     H28988   3.214   7.122   5.429 -0.7844 -2.4652 -0.5619
  215MOL0     H28989   2.980   7.299   4.731  1.5953 -1.2956  2.8569
  215MOL0     H28990   2.738   7.376   4.664 -0.9996  0.3851 -0.3201
  215MOL0     H28991   2.467   7.105   4.666 -2.6431  0.0037 -2.7446
  215MOL0     H28992   2.398   7.139   4.825  0.9214  0.2100  0.0222
  215MOL0     H28993   2.278   7.332   4.722 -1.0462 -0.7087 -0.4875
  215MOL0     H28994   2.337   7.285   4.557 -0.4450 -0.2533  0.0786
  215MOL0     H28995   2.167   7.092   4.733  1.5568  0.2561 -0.4202
  215MOL0     H28996   2.198   7.091   4.559  2.4300  0.5697  0.9443
  215MOL0     H28997   2.028   7.274   4.707  0.6249 -3.4277  2.6159
  215MOL0     H28998   2.071   7.309   4.536 -0.0703 -1.3391 -0.8287
  215MOL0     H28999   1.917   7.063   4.634 -0.6249  1.0896 -0.0798
  215MOL0     H29000   1.989   7.085   4.476 -0.0534  1.7228 -0.5828
  215MOL0     H29001   1.844   7.288   4.462  0.0021  0.5087  0.2837
  215MOL0     H29002   1.763   7.128   4.447 -0.4939  0.7393 -0.5895
  215MOL0     H29003   1.772   7.289   4.718  0.2688  1.9599 -1.2090
  215MOL0     H29004   1.677   7.147   4.682 -1.5474  1.5155  2.2697
  215MOL0     H29005   1.580   7.400   4.549 -0.1361  0.6109  2.5057
  215MOL0     H29006   1.529   7.324   4.690 -2.1159 -2.5530  0.5196
  215MOL0     H29007   2.572   7.100   4.944  1.7717 -0.8180  1.2912
  215MOL0     H29008   2.809   7.036   5.019 -0.4698 -1.2706 -1.5791
  215MOL0     H29009   3.256   7.093   4.869 -2.3407 -1.0294  0.4956
  215MOL0     H29010   3.473   7.072   4.911 -1.8301 -1.5667 -0.9750
  215MOL0     H29011   4.655   6.683   4.488 -0.5286  0.2954 -0.6996
  215MOL0     H29012   4.896   6.722   4.530  2.0378  0.7387  2.1042
  215MOL0     H29013   5.158   7.059   4.787  0.2649  2.0211  2.0507
  215MOL0     H29014   5.399   7.104   4.857  1.4900  1.3445 -0.9517
  215MOL0     H29015   5.677   7.257   4.547  1.0520  0.9371  1.1342
  215MOL0     H29016   5.764   7.265   4.687  0.0140 -0.9070  0.2801
  215MOL0     H29017   5.695   6.998   4.554  1.7730 -1.4009 -0.7808
  215MOL0     H29018   5.807   7.024   4.681 -3.3796 -0.4302  0.6023
  215MOL0     H29019   5.841   7.095   4.384 -1.5850 -0.7120  0.8557
  215MOL0     H29020   5.940   6.999   4.488  0.6249  0.4164  1.8540
  215MOL0     H29021   5.937   7.297   4.513 -1.3755 -1.2348 -0.1983
  215MOL0     H29022   6.051   7.195   4.436 -1.6229  0.5644 -0.3470
  215MOL0     H29023   6.186   7.157   4.824  1.7781 -0.1882 -1.4282
  215MOL0     H29024   5.520   7.142   4.464  1.8031  1.0034  2.8530
  215MOL0     H29025   5.278   7.084   4.380  0.2398  0.5393  1.2569
  216MOL0     O29026   8.052   4.484   6.714  0.1353  0.4890  0.0760
  216MOL0     C29027   8.081   4.405   6.621 -0.1515 -0.3402 -0.0244
  216MOL0     O29028   7.980   4.326   6.555  0.4168  0.2546 -0.1237
  216MOL0     C29029   7.855   4.338   6.605 -0.1237 -0.3399 -0.6470
  216MOL0     C29030   7.804   4.243   6.692  0.5649 -0.4410 -0.7380
  216MOL0     C29031   7.676   4.237   6.725  0.5694  0.3582 -0.1592
  216MOL0     C29032   7.588   4.330   6.668 -0.8202 -0.5462  0.3590
  216MOL0     O29033   7.459   4.321   6.705 -0.4590 -0.3248  0.4656
  216MOL0     C29034   7.369   4.409   6.650 -1.0181  0.0960 -0.6281
  216MOL0     C29035   7.230   4.407   6.726 -0.2256 -0.5366  0.0214
  216MOL0     C29036   7.120   4.323   6.660 -1.0916  0.2460 -0.6186
  216MOL0     C29037   6.987   4.370   6.720 -0.0968 -0.2633 -0.3236
  216MOL0     C29038   6.899   4.250   6.700  0.5254 -0.6456  0.5804
  216MOL0     C29039   6.839   4.239   6.561  0.4630 -0.2241  0.4490
  216MOL0     C29040   6.716   4.154   6.557 -0.6132  0.8794 -0.8565
  216MOL0     C29041   6.592   4.206   6.637  0.4646 -0.1256  0.0203
  216MOL0     N29042   6.462   4.144   6.602  0.1859 -0.0565  0.0400
  216MOL0     C29043   6.432   4.010   6.612  0.4586 -0.0282 -0.6702
  216MOL0     C29044   6.306   3.996   6.567 -0.1837 -0.2434  0.3433
  216MOL0     C29045   6.211   3.875   6.580  0.1043  0.9545  0.9626
  216MOL0     C29046   6.111   3.858   6.467 -0.5580  0.1155 -0.0358
  216MOL0     C29047   6.051   3.712   6.487 -0.5293  0.6725 -0.8777
  216MOL0     C29048   5.932   3.688   6.384  0.6334  0.1282  1.1166
  216MOL0     O29049   5.828   3.760   6.439  0.6744 -0.2394  0.5518
  216MOL0     C29050   5.706   3.761   6.375 -0.1135 -0.1478 -0.1106
  216MOL0     C29051   5.683   3.700   6.248 -1.0080 -0.5980 -0.3126
  216MOL0     C29052   5.557   3.712   6.182 -0.3151  0.3463 -0.4096
  216MOL0     C29053   5.556   3.653   6.039 -0.0984 -0.4250  0.1585
  216MOL0     C29054   5.448   3.778   6.245  0.6558  0.2864 -0.0451
  216MOL0     C29055   5.304   3.773   6.192 -0.3982 -0.0188 -0.2134
  216MOL0     O29056   5.228   3.890   6.230  0.3796  0.3265 -0.4326
  216MOL0     C29057   5.096   3.877   6.208  0.2940 -0.3167 -0.2496
  216MOL0     C29058   5.021   3.828   6.312 -0.3052  0.8815 -0.7548
  216MOL0     C29059   4.882   3.804   6.292 -0.4182 -0.2631 -0.0423
  216MOL0     C29060   4.818   3.845   6.171  0.0284  0.1711  0.9218
  216MOL0     O29061   4.682   3.804   6.147 -0.3532  0.4546  0.0820
  216MOL0     C29062   4.602   3.872   6.053  0.7927 -0.0813 -0.4003
  216MOL0     C29063   4.562   4.015   6.063  0.3385 -0.5538 -0.4015
  216MOL0     C29064   4.544   4.102   5.934 -0.6104  0.7616  0.9824
  216MOL0     C29065   4.418   4.193   5.913  0.8415  0.5753  0.2331
  216MOL0     C29066   4.452   4.299   5.802  1.1611  1.0897 -0.1460
  216MOL0     C29067   4.329   4.330   5.722 -0.1411 -0.2737 -0.3353
  216MOL0     C29068   4.215   4.397   5.802  0.0831 -0.7885  0.6401
  216MOL0     C29069   4.105   4.430   5.712  0.0799 -1.0369  0.2463
  216MOL0    Cl29070   4.024   4.287   5.653 -0.0356  0.3064  0.2844
  216MOL0     C29071   4.902   3.899   6.070 -0.2817 -0.0431  0.0324
  216MOL0     C29072   5.040   3.926   6.096  0.3176  0.3685 -0.2530
  216MOL0     O29073   5.262   3.670   6.140  0.0792 -0.0726 -0.7382
  216MOL0     C29074   5.469   3.856   6.355 -1.0304  0.8501  0.9394
  216MOL0     C29075   5.597   3.841   6.419 -0.1797 -0.0687  1.3477
  216MOL0     N29076   6.265   4.117   6.521  0.2776  0.1396  0.0662
  216MOL0     N29077   6.352   4.207   6.552 -0.5114  0.8932  0.5533
  216MOL0     C29078   7.633   4.428   6.587 -0.3351 -0.0234  0.6872
  216MOL0     C29079   7.766   4.429   6.543 -1.1097 -0.7501  0.3272
  216MOL0     C29080   8.214   4.413   6.559  0.3580  0.6495 -0.6252
  216MOL0     C29081   8.242   4.334   6.456 -0.7822  0.1226  0.0824
  216MOL0     C29082   8.369   4.351   6.385  0.2440 -0.4920 -0.0460
  216MOL0     C29083   8.465   4.440   6.420 -0.1166 -0.1344  0.4213
  216MOL0     O29084   8.579   4.442   6.337  0.0267  0.2267  0.5131
  216MOL0     C29085   8.678   4.540   6.365  0.2828 -0.2230  1.4940
  216MOL0     C29086   8.771   4.563   6.242 -0.0337 -0.4522  0.9600
  216MOL0     C29087   8.899   4.643   6.283  0.3720 -0.1138  0.5135
  216MOL0     C29088   9.002   4.657   6.166 -0.0499  0.0828  0.1690
  216MOL0     C29089   9.091   4.770   6.199 -0.4516  0.0951  0.3194
  216MOL0     C29090   9.174   4.841   6.229 -0.2141  0.1437  0.5922
  216MOL0     C29091   8.426   4.531   6.524  1.2720 -0.4971 -0.1302
  216MOL0     C29092   8.307   4.513   6.592  0.5024  1.3623 -0.2114
  216MOL0     H29093   7.876   4.169   6.724  0.2171 -0.8397 -0.8739
  216MOL0     H29094   7.630   4.155   6.779  0.7933 -0.5699 -1.3427
  216MOL0     H29095   7.391   4.516   6.658 -0.8198  0.0657 -0.7737
  216MOL0     H29096   7.350   4.397   6.543  1.2802 -0.8000 -0.9703
  216MOL0     H29097   7.231   4.379   6.831 -2.2961  0.8506  0.4706
  216MOL0     H29098   7.198   4.511   6.736  0.5782 -0.4243  1.8058
  216MOL0     H29099   7.122   4.337   6.552 -3.3322 -1.0891 -0.8997
  216MOL0     H29100   7.148   4.220   6.687  0.7786  0.2745 -2.2622
  216MOL0     H29101   7.007   4.382   6.827  2.2384  2.2634 -0.9237
  216MOL0     H29102   6.955   4.464   6.675 -1.8098 -0.1916  0.9518
  216MOL0     H29103   6.938   4.152   6.726  0.9611 -1.5864 -3.0921
  216MOL0     H29104   6.823   4.284   6.770  0.8239  2.1390 -0.2997
  216MOL0     H29105   6.819   4.339   6.522 -1.4837 -1.2711 -1.4319
  216MOL0     H29106   6.915   4.199   6.492  1.3385  2.3950 -0.2245
  216MOL0     H29107   6.690   4.150   6.451 -1.3992  1.6845 -0.7046
  216MOL0     H29108   6.744   4.058   6.602  1.8623  1.9013  0.0002
  216MOL0     H29109   6.599   4.313   6.615  1.6691 -0.4027 -1.0496
  216MOL0     H29110   6.605   4.194   6.745 -1.0162  0.5823  0.3087
  216MOL0     H29111   6.481   3.927   6.663 -1.1672 -2.1970 -2.4304
  216MOL0     H29112   6.280   3.790   6.579  0.7980  1.4958 -0.3677
  216MOL0     H29113   6.155   3.865   6.673  0.6859 -3.8639  1.0648
  216MOL0     H29114   6.156   3.860   6.367 -1.6460 -3.7070 -0.7732
  216MOL0     H29115   6.039   3.941   6.464 -2.2614 -1.3016 -0.1236
  216MOL0     H29116   6.010   3.696   6.587  0.1231  0.6119 -0.6139
  216MOL0     H29117   6.136   3.644   6.475  0.6519  2.3481 -2.7193
  216MOL0     H29118   5.911   3.582   6.367  0.6407  0.3231 -0.1918
  216MOL0     H29119   5.956   3.728   6.285  1.3589 -3.1949 -0.1702
  216MOL0     H29120   5.759   3.630   6.213 -0.6169 -1.2775  1.7577
  216MOL0     H29121   5.490   3.712   5.975  0.9775  0.6755  0.0230
  216MOL0     H29122   5.659   3.653   6.000  1.0387  0.3247  2.9247
  216MOL0     H29123   5.520   3.550   6.037  3.7012 -1.9647 -2.2582
  216MOL0     H29124   5.068   3.795   6.404  2.0518  0.5859 -1.9871
  216MOL0     H29125   4.806   3.765   6.360 -0.3039  1.6170  1.2208
  216MOL0     H29126   4.643   3.865   5.952  2.6908 -0.1988  0.3268
  216MOL0     H29127   4.510   3.813   6.051  1.3693 -1.0134 -3.0889
  216MOL0     H29128   4.471   4.031   6.121  2.3164  1.4772  2.4157
  216MOL0     H29129   4.636   4.067   6.125  0.4016 -1.0556 -0.0485
  216MOL0     H29130   4.549   4.036   5.847 -0.1927  0.0548  1.5302
  216MOL0     H29131   4.636   4.161   5.935  1.6723 -2.4773  3.0373
  216MOL0     H29132   4.344   4.126   5.868 -0.0366  2.6977 -1.6196
  216MOL0     H29133   4.378   4.233   6.007  0.7256 -1.1744  0.9855
  216MOL0     H29134   4.524   4.266   5.726  0.6563  0.1287 -0.2201
  216MOL0     H29135   4.486   4.385   5.860  0.3254  2.3216 -1.4058
  216MOL0     H29136   4.366   4.410   5.657  3.5123 -1.7205 -0.2865
  216MOL0     H29137   4.303   4.246   5.657  2.3931 -0.2266 -1.5592
  216MOL0     H29138   4.263   4.485   5.847 -0.9851  0.2401 -0.1731
  216MOL0     H29139   4.181   4.331   5.882  1.2403 -5.0038 -2.0350
  216MOL0     H29140   4.150   4.491   5.634  1.0480  0.6469  2.0121
  216MOL0     H29141   4.030   4.490   5.765  0.3752  0.5290 -1.0362
  216MOL0     H29142   4.852   3.929   5.978  1.0697  2.8105  0.1179
  216MOL0     H29143   5.095   3.983   6.023  0.0614  0.6268 -0.2471
  216MOL0     H29144   5.398   3.930   6.392 -1.7904 -0.5090  2.2827
  216MOL0     H29145   5.604   3.912   6.501 -0.5163  2.4737 -0.7032
  216MOL0     H29146   7.575   4.511   6.547 -1.4309 -1.5695 -1.0983
  216MOL0     H29147   7.808   4.504   6.476 -0.8644  0.5241  1.8502
  216MOL0     H29148   8.171   4.266   6.411 -1.0651  1.6888 -1.9952
  216MOL0     H29149   8.382   4.287   6.298 -1.1541 -1.7020  0.5872
  216MOL0     H29150   8.624   4.632   6.389  0.1694  0.5696 -1.3282
  216MOL0     H29151   8.734   4.516   6.456  1.9126 -1.6350  0.1957
  216MOL0     H29152   8.723   4.620   6.161  2.3016  0.8368  0.3928
  216MOL0     H29153   8.800   4.464   6.205  1.1862  0.4312 -0.5448
  216MOL0     H29154   8.961   4.602   6.363  2.2441  1.4482 -0.0504
  216MOL0     H29155   8.879   4.745   6.319  0.5397 -0.6052  2.0403
  216MOL0     H29156   8.950   4.673   6.072 -0.3499 -4.3116 -0.6433
  216MOL0     H29157   9.063   4.567   6.151 -2.9806 -1.5607 -3.3359
  216MOL0     H29158   9.247   4.910   6.266  0.6430 -1.4750  2.0405
  216MOL0     H29159   8.494   4.609   6.556  2.6584 -1.9854  0.7123
  216MOL0     H29160   8.294   4.574   6.681  1.8649  1.1268  0.1778
  217MOL0     O29161   9.239   2.582   5.969  0.4682  0.0494  0.0923
  217MOL0     C29162   9.207   2.640   6.077 -0.8251  0.2880 -0.8622
  217MOL0     O29163   9.109   2.611   6.160 -0.3190  0.4059 -0.6784
  217MOL0     C29164   9.011   2.518   6.136 -0.3287 -0.3761  0.1177
  217MOL0     C29165   8.944   2.478   6.248  0.8528  0.1255  0.2080
  217MOL0     C29166   8.845   2.384   6.241 -0.5344  0.5211 -0.6730
  217MOL0     C29167   8.797   2.341   6.116  0.1367  0.2328 -0.4582
  217MOL0     O29168   8.694   2.259   6.112  1.0946 -0.1921  0.6337
  217MOL0     C29169   8.575   2.284   6.188  0.6918 -0.6700 -0.0780
  217MOL0     C29170   8.481   2.161   6.184  0.6372 -0.2225 -0.0684
  217MOL0     C29171   8.375   2.171   6.296 -0.1118  0.3091  0.1482
  217MOL0     C29172   8.232   2.114   6.266 -0.1486  0.2956  0.1271
  217MOL0     C29173   8.164   2.053   6.394 -0.3780 -0.2027 -0.7567
  217MOL0     C29174   8.113   2.171   6.479 -0.1591  0.1889 -0.1471
  217MOL0     C29175   8.015   2.117   6.577 -0.1409  0.5899  0.3784
  217MOL0     C29176   7.955   2.225   6.661 -0.0842 -0.1414  0.0732
  217MOL0     N29177   7.821   2.189   6.703  0.8678  0.6451  0.7711
  217MOL0     C29178   7.707   2.188   6.635 -0.6892 -0.8549 -0.0938
  217MOL0     C29179   7.617   2.130   6.710 -0.1385  0.0124  0.1448
  217MOL0     C29180   7.480   2.105   6.652  0.8418  0.4442 -0.0084
  217MOL0     C29181   7.373   2.069   6.758 -0.7259  0.0523 -0.4360
  217MOL0     C29182   7.241   2.022   6.702 -0.4290 -0.6681 -0.2638
  217MOL0     C29183   7.129   2.018   6.812 -0.4907 -0.1254 -0.0207
  217MOL0     O29184   7.167   1.909   6.900  0.4803 -0.0433 -0.1919
  217MOL0     C29185   7.172   1.943   7.031 -0.4874 -0.1312  0.4164
  217MOL0     C29186   7.285   1.907   7.111 -0.7700 -0.4371 -0.1577
  217MOL0     C29187   7.279   1.922   7.256  0.2373  0.0245 -0.0848
  217MOL0     C29188   7.373   1.848   7.342 -0.4746  0.4052  0.5305
  217MOL0     C29189   7.173   2.010   7.310  0.6621 -0.4202  1.0801
  217MOL0     C29190   7.152   2.048   7.454  0.2692  0.2064  0.3177
  217MOL0     O29191   7.139   2.182   7.467 -0.6969 -0.1602  0.3788
  217MOL0     C29192   7.060   2.237   7.568  0.1974  0.2287 -0.0537
  217MOL0     C29193   6.956   2.161   7.638 -0.6605 -0.4406 -0.3156
  217MOL0     C29194   6.870   2.228   7.728 -0.1024  0.7764  0.2791
  217MOL0     C29195   6.895   2.362   7.760  1.3665 -0.3383 -0.2111
  217MOL0     O29196   6.799   2.442   7.829 -0.1398 -0.5212  0.7178
  217MOL0     C29197   6.702   2.385   7.921  0.1612 -0.7233  0.0450
  217MOL0     C29198   6.599   2.491   7.945  0.7590 -1.4841  0.7131
  217MOL0     C29199   6.503   2.505   7.825 -0.1307  0.2227  0.6286
  217MOL0     C29200   6.398   2.614   7.851  0.2784  0.6902  0.1279
  217MOL0     C29201   6.291   2.565   7.943 -1.0615  0.3576 -0.2209
  217MOL0     C29202   6.170   2.662   7.934  0.3282  0.1367 -0.6068
  217MOL0     C29203   6.043   2.635   8.018 -0.4013 -0.0614 -0.2086
  217MOL0     C29204   5.938   2.745   7.978 -0.4604  0.2504 -0.2694
  217MOL0    Cl29205   5.990   2.916   8.016  0.5136 -0.4065  0.3992
  217MOL0     C29206   6.998   2.433   7.700  0.2955 -0.5142  0.3602
  217MOL0     C29207   7.072   2.374   7.605 -0.9471  0.3904  1.1281
  217MOL0     O29208   7.144   1.969   7.547 -0.0050 -0.2290 -0.4971
  217MOL0     C29209   7.073   2.053   7.221 -0.3962 -0.0552  0.6043
  217MOL0     C29210   7.074   2.010   7.088  0.2330 -0.3656 -0.4268
  217MOL0     N29211   7.664   2.097   6.835 -0.3271  1.1548 -0.3434
  217MOL0     N29212   7.795   2.133   6.826 -0.5193  0.3428  0.5723
  217MOL0     C29213   8.869   2.383   6.004  0.5056 -0.9035  0.2061
  217MOL0     C29214   8.978   2.469   6.010  0.5552 -0.3514  0.3379
  217MOL0     C29215   9.304   2.745   6.122 -0.0930 -0.6557 -0.2561
  217MOL0     C29216   9.283   2.817   6.239  0.3454  0.2882  0.1970
  217MOL0     C29217   9.365   2.927   6.275  0.0722  0.6245  0.1847
  217MOL0     C29218   9.485   2.955   6.203  0.1251 -0.1941 -0.2451
  217MOL0     O29219   9.583   3.037   6.246  0.3032 -0.5190 -0.1050
  217MOL0     C29220   9.553   3.180   6.226 -0.7966 -0.8696 -0.9287
  217MOL0     C29221   9.498   3.248   6.357  0.2256 -0.8467 -0.3855
  217MOL0     C29222   9.510   3.401   6.368  0.6068 -0.4798 -0.2814
  217MOL0     C29223   9.477   3.457   6.507  0.3850 -0.6222  0.9780
  217MOL0     C29224   9.511   3.601   6.509  0.1348 -0.5824  0.9041
  217MOL0     C29225   9.520   3.718   6.510 -0.6357  0.1935 -0.5796
  217MOL0     C29226   9.503   2.881   6.087 -0.6547  0.8631 -0.9273
  217MOL0     C29227   9.418   2.777   6.050  0.6177  0.5958 -0.3962
  217MOL0     H29228   8.981   2.518   6.341 -0.0887  2.4465 -0.3541
  217MOL0     H29229   8.797   2.344   6.330 -2.5214  1.7192 -1.1256
  217MOL0     H29230   8.585   2.308   6.294  0.9795  1.5497 -0.5611
  217MOL0     H29231   8.525   2.373   6.149  1.7267 -0.8256 -1.8802
  217MOL0     H29232   8.429   2.150   6.088  0.4573 -1.0920  0.1213
  217MOL0     H29233   8.534   2.067   6.195 -0.0521 -0.7462 -1.0876
  217MOL0     H29234   8.408   2.116   6.385 -1.3881 -2.1237 -0.7949
  217MOL0     H29235   8.362   2.275   6.325 -5.5665 -0.9015  3.4695
  217MOL0     H29236   8.171   2.186   6.211  0.4131 -1.0088 -2.3895
  217MOL0     H29237   8.252   2.035   6.193  0.0734  0.3549  0.1202
  217MOL0     H29238   8.079   1.997   6.356 -0.5445 -0.7425  0.3630
  217MOL0     H29239   8.227   1.978   6.443  2.3834  1.2026 -1.9349
  217MOL0     H29240   8.197   2.220   6.529 -0.2153 -0.1049  0.2409
  217MOL0     H29241   8.061   2.239   6.411  1.7806  2.5224  0.5605
  217MOL0     H29242   7.944   2.055   6.521  0.9727 -1.1958  0.8614
  217MOL0     H29243   8.063   2.050   6.649  2.5757  1.2593 -0.7178
  217MOL0     H29244   7.952   2.324   6.615 -0.7841 -0.7373 -1.2179
  217MOL0     H29245   8.023   2.222   6.746  3.8655  0.3180 -2.7754
  217MOL0     H29246   7.692   2.232   6.537  1.9848  2.3856  0.7389
  217MOL0     H29247   7.446   2.197   6.603  3.8576  1.1369 -1.0013
  217MOL0     H29248   7.492   2.024   6.579  1.6142  0.0245  0.5835
  217MOL0     H29249   7.363   2.151   6.828  0.8773  1.4223 -1.7277
  217MOL0     H29250   7.401   1.985   6.823 -0.1028  1.2922  0.9418
  217MOL0     H29251   7.246   1.919   6.664  0.9030 -1.4810  1.9340
  217MOL0     H29252   7.217   2.086   6.617  2.8310 -0.4200 -1.1293
  217MOL0     H29253   7.040   1.981   6.759  0.4945 -2.0076 -0.4615
  217MOL0     H29254   7.119   2.111   6.869 -2.0376 -0.8481  0.9636
  217MOL0     H29255   7.364   1.846   7.069 -1.9655 -1.4441 -1.0200
  217MOL0     H29256   7.316   1.772   7.395 -2.9750  2.8511  1.5613
  217MOL0     H29257   7.450   1.811   7.274 -2.7889 -2.4722 -0.6798
  217MOL0     H29258   7.422   1.907   7.421 -3.5854  2.8312  0.8506
  217MOL0     H29259   6.939   2.058   7.606 -0.1578 -1.3584  2.1798
  217MOL0     H29260   6.790   2.166   7.767 -0.6893 -1.9970 -4.4909
  217MOL0     H29261   6.659   2.289   7.889 -0.2011 -1.0410  1.4177
  217MOL0     H29262   6.765   2.376   8.010  0.7768 -0.3310 -0.3464
  217MOL0     H29263   6.555   2.451   8.037  0.1127  0.8079  1.4750
  217MOL0     H29264   6.650   2.584   7.973 -0.2170 -1.0149  0.9841
  217MOL0     H29265   6.462   2.406   7.804 -0.6826  0.8742 -1.6438
  217MOL0     H29266   6.563   2.540   7.741 -0.7153 -0.1133  0.0671
  217MOL0     H29267   6.439   2.713   7.873 -0.7811  0.9264  1.1358
  217MOL0     H29268   6.354   2.633   7.753  0.9616  0.6832 -0.1802
  217MOL0     H29269   6.335   2.564   8.043  0.3263  1.2818 -0.7975
  217MOL0     H29270   6.249   2.467   7.916 -2.2869  0.8525 -0.1653
  217MOL0     H29271   6.205   2.753   7.984 -0.4088  0.3684 -0.4911
  217MOL0     H29272   6.152   2.690   7.830 -0.1156 -1.4229 -0.9872
  217MOL0     H29273   6.065   2.639   8.125 -0.2111 -0.4446 -0.2344
  217MOL0     H29274   5.997   2.538   7.999  1.7269 -1.2005  0.1598
  217MOL0     H29275   5.842   2.729   8.029 -0.6474 -2.1083 -1.2530
  217MOL0     H29276   5.930   2.740   7.869  2.2528 -2.2756 -0.4913
  217MOL0     H29277   7.024   2.535   7.728 -1.3428 -0.0502  0.3266
  217MOL0     H29278   7.162   2.418   7.562 -0.0588 -3.1071 -1.0814
  217MOL0     H29279   6.987   2.118   7.239  0.9950  1.4661  2.1112
  217MOL0     H29280   6.980   2.031   7.037 -0.9940 -0.0081  1.8687
  217MOL0     H29281   8.831   2.360   5.904  0.3181 -2.9247  0.6999
  217MOL0     H29282   9.024   2.486   5.913 -0.3659 -3.1439 -0.6804
  217MOL0     H29283   9.193   2.802   6.299 -0.8247  2.0227 -1.0194
  217MOL0     H29284   9.351   2.979   6.370 -0.3808 -1.3998  1.2824
  217MOL0     H29285   9.650   3.225   6.203 -2.1082  1.5274 -2.1617
  217MOL0     H29286   9.478   3.197   6.148 -0.1430 -1.3663 -1.6820
  217MOL0     H29287   9.555   3.210   6.442 -0.0401  0.0440  0.2071
  217MOL0     H29288   9.395   3.232   6.389  0.2771  4.8443  4.3501
  217MOL0     H29289   9.439   3.442   6.295  1.9125  1.8011 -0.3668
  217MOL0     H29290   9.608   3.437   6.336  1.7218 -1.8726  1.4128
  217MOL0     H29291   9.533   3.399   6.580 -0.9575 -0.3376  2.2970
  217MOL0     H29292   9.367   3.450   6.509  0.4957 -2.7928  2.2902
  217MOL0     H29293   9.548   3.821   6.522 -0.5718  0.4385 -2.5077
  217MOL0     H29294   9.595   2.901   6.032  0.8996 -2.5281  0.1782
  217MOL0     H29295   9.421   2.738   5.950 -2.7213  0.0331 -0.3952
  218MOL0     O29296   3.638   6.018  10.856  0.0392  0.2711  0.1065
  218MOL0     C29297   3.676   5.907  10.901 -0.4409 -0.2986 -0.0007
  218MOL0     O29298   3.590   5.822  10.968  0.2659 -0.2932  0.1265
  218MOL0     C29299   3.461   5.860  10.975  0.6146  1.0050 -0.4182
  218MOL0     C29300   3.370   5.860  10.865 -0.5322 -0.1263  0.7066
  218MOL0     C29301   3.229   5.875  10.885 -0.0586 -0.3595  1.1312
  218MOL0     C29302   3.178   5.892  11.017 -0.3260  1.1839 -0.4099
  218MOL0     O29303   3.044   5.909  11.057 -0.0340  0.9350 -1.0649
  218MOL0     C29304   2.943   5.887  10.954  1.0102 -0.2502  0.5070
  218MOL0     C29305   2.808   5.917  11.018  0.2002  0.3028  0.8311
  218MOL0     C29306   2.707   5.946  10.898 -0.8413 -0.0907 -0.2604
  218MOL0     C29307   2.558   5.969  10.960 -0.0897  0.9059  0.0738
  218MOL0     C29308   2.526   6.111  11.005 -0.3137 -0.3950  0.0039
  218MOL0     C29309   2.375   6.138  11.015 -0.0081 -0.3807  0.5451
  218MOL0     C29310   2.363   6.300  10.990 -0.4982 -0.7727 -0.3487
  218MOL0     C29311   2.224   6.369  11.007 -0.0970  0.2819  0.1578
  218MOL0     N29312   2.139   6.307  11.103  0.0092  0.0422 -0.5849
  218MOL0     C29313   2.066   6.186  11.094 -0.4881 -0.1185  0.7898
  218MOL0     C29314   1.982   6.186  11.203 -0.0154 -0.6047 -0.4751
  218MOL0     C29315   1.874   6.085  11.243 -0.5496  0.5741  0.4285
  218MOL0     C29316   1.738   6.139  11.245  0.0511  0.0927 -0.2526
  218MOL0     C29317   1.652   6.033  11.308  0.0659  0.2519  0.0910
  218MOL0     C29318   1.511   6.032  11.256  0.4095  0.1900  0.1257
  218MOL0     O29319   1.462   5.920  11.319  0.4815  0.5794  0.4543
  218MOL0     C29320   1.340   5.870  11.274 -0.6068 -0.3745 -0.1165
  218MOL0     C29321   1.299   5.742  11.308 -0.4944 -0.1774  0.2201
  218MOL0     C29322   1.176   5.691  11.260 -0.0747  0.0976  0.2403
  218MOL0     C29323   1.120   5.565  11.324  0.4945  0.1515  0.8419
  218MOL0     C29324   1.097   5.769  11.165 -0.2802  0.1033  0.3248
  218MOL0     C29325   0.971   5.731  11.097 -0.1322 -0.6256 -0.3720
  218MOL0     O29326   0.905   5.845  11.029  0.1504 -0.2181 -0.2254
  218MOL0     C29327   0.772   5.838  10.986  0.0502 -0.7633  0.2835
  218MOL0     C29328   0.733   5.931  10.892  0.3635 -0.0878  0.0347
  218MOL0     C29329   0.600   5.926  10.841  0.1962 -0.3187  0.3756
  218MOL0     C29330   0.502   5.839  10.890  0.4078 -1.2308 -0.1468
  218MOL0     O29331   0.373   5.848  10.838  0.1127 -0.1872  0.5269
  218MOL0     C29332   0.262   5.786  10.912  0.2472 -0.4192  0.1429
  218MOL0     C29333   0.205   5.675  10.822 -1.0217 -1.1324 -1.4227
  218MOL0     C29334   0.079   5.603  10.887  0.5385 -0.0005  0.5904
  218MOL0     C29335  -0.055   5.690  10.867 -0.9414 -0.5985  0.2567
  218MOL0     C29336  -0.177   5.603  10.902 -0.1131 -0.4006  0.7296
  218MOL0     C29337  -0.309   5.669  10.865  0.5762  0.0564 -0.9345
  218MOL0     C29338  -0.446   5.587  10.889 -0.0054 -1.6523  0.1557
  218MOL0     C29339  -0.482   5.537  11.030 -0.0834  0.3230  0.3812
  218MOL0    Cl29340  -0.605   5.412  11.001  0.0454  0.4037  0.4374
  218MOL0     C29341   0.555   5.743  10.980 -0.4406  0.2085 -0.3803
  218MOL0     C29342   0.682   5.747  11.027 -0.1895  1.1924  0.9397
  218MOL0     O29343   0.933   5.615  11.109 -0.1276  0.4825 -0.1205
  218MOL0     C29344   1.138   5.900  11.140 -0.8116  0.3726 -0.8014
  218MOL0     C29345   1.251   5.949  11.199 -0.9600 -0.1668  0.1967
  218MOL0     N29346   2.019   6.299  11.278 -0.1403  0.3254  0.0910
  218MOL0     N29347   2.119   6.360  11.219  0.0920  0.2403 -0.0303
  218MOL0     C29348   3.274   5.884  11.126 -1.1061  0.4126 -0.1924
  218MOL0     C29349   3.410   5.876  11.099  0.5435  0.2733  0.6627
  218MOL0     C29350   3.827   5.875  10.889 -0.4657 -0.4362 -0.0181
  218MOL0     C29351   3.875   5.751  10.947 -0.0500 -1.0023 -0.3464
  218MOL0     C29352   4.018   5.731  10.931  0.8319 -0.2575  0.0861
  218MOL0     C29353   4.108   5.823  10.872  0.3683  0.7799 -0.6685
  218MOL0     O29354   4.242   5.800  10.888  0.1447  0.0825  0.2566
  218MOL0     C29355   4.304   5.772  10.767 -0.1425 -0.2275  0.2899
  218MOL0     C29356   4.277   5.621  10.717 -0.7847 -0.1481 -0.0138
  218MOL0     C29357   4.408   5.572  10.663 -0.0283  0.4352  0.6063
  218MOL0     C29358   4.420   5.607  10.518  0.1227 -0.3821  0.1479
  218MOL0     C29359   4.321   5.557  10.429 -0.0138  0.7394  0.4344
  218MOL0     C29360   4.238   5.504  10.354 -0.2436 -0.2709 -0.7108
  218MOL0     C29361   4.053   5.937  10.814 -0.3174  0.0621 -0.4198
  218MOL0     C29362   3.913   5.957  10.819  0.5024  0.5751 -0.9934
  218MOL0     H29363   3.410   5.836  10.767  0.6510 -3.4248  1.8604
  218MOL0     H29364   3.174   5.885  10.792  0.8840  1.9363  0.7540
  218MOL0     H29365   2.970   5.963  10.881  2.3066  0.6412  1.8575
  218MOL0     H29366   2.934   5.787  10.909 -0.0095  0.0409  0.0311
  218MOL0     H29367   2.773   5.828  11.071  2.4029  0.0811  2.0164
  218MOL0     H29368   2.809   5.996  11.093 -2.2608  2.0076 -0.7575
  218MOL0     H29369   2.747   6.033  10.846 -0.0430 -1.3474 -1.8321
  218MOL0     H29370   2.708   5.863  10.827 -0.9737 -1.5584  1.3846
  218MOL0     H29371   2.491   5.944  10.877  0.2015 -0.9402  0.3522
  218MOL0     H29372   2.553   5.915  11.055 -3.9080  3.7914  1.7662
  218MOL0     H29373   2.579   6.121  11.100  1.0423 -1.5198 -0.5936
  218MOL0     H29374   2.567   6.176  10.928  0.5981 -0.8084  0.1260
  218MOL0     H29375   2.328   6.081  10.934  0.8396 -1.7541  0.9871
  218MOL0     H29376   2.327   6.116  11.111  0.4300  3.1978  1.7474
  218MOL0     H29377   2.439   6.351  11.050 -0.1914  1.1154 -2.2526
  218MOL0     H29378   2.401   6.310  10.888  0.7382 -1.8344 -0.0166
  218MOL0     H29379   2.174   6.359  10.910  0.3736 -0.8342  0.0173
  218MOL0     H29380   2.242   6.475  11.025 -0.5578  0.3539  0.2123
  218MOL0     H29381   2.070   6.113  11.013  1.6832  1.7200 -0.9316
  218MOL0     H29382   1.864   6.005  11.170 -0.0807  2.0967 -1.3789
  218MOL0     H29383   1.907   6.043  11.339  0.3049  0.0579 -0.0769
  218MOL0     H29384   1.702   6.158  11.144 -4.6501  0.0827  1.1968
  218MOL0     H29385   1.735   6.225  11.312  2.0451  1.1418 -1.4130
  218MOL0     H29386   1.659   6.054  11.415  4.9827  3.5740 -0.5897
  218MOL0     H29387   1.691   5.936  11.276  3.0354  2.2026 -2.8215
  218MOL0     H29388   1.503   6.026  11.147 -1.4774  2.3862  0.0633
  218MOL0     H29389   1.448   6.118  11.282  0.4253  0.7544 -1.5406
  218MOL0     H29390   1.360   5.690  11.382 -1.3980 -1.8807 -0.1790
  218MOL0     H29391   1.145   5.476  11.266  0.4386 -1.0169  2.5521
  218MOL0     H29392   1.161   5.549  11.424 -0.2148 -0.9866  0.9613
  218MOL0     H29393   1.013   5.578  11.341  0.5255  1.2278  0.3426
  218MOL0     H29394   0.805   6.004  10.855 -0.4680  0.0890 -1.2855
  218MOL0     H29395   0.572   5.989  10.757 -0.6773  0.9310  1.5602
  218MOL0     H29396   0.302   5.729  10.997  1.9617  0.8335  0.2374
  218MOL0     H29397   0.188   5.857  10.949 -0.8136 -0.6833 -1.3845
  218MOL0     H29398   0.167   5.725  10.732 -2.2216  1.5417  0.4347
  218MOL0     H29399   0.285   5.601  10.812  0.7574  0.2478  1.3857
  218MOL0     H29400   0.097   5.584  10.993  2.8310 -0.0258  0.2475
  218MOL0     H29401   0.059   5.504  10.845 -1.1298  0.4093  0.3506
  218MOL0     H29402  -0.054   5.779  10.932 -0.8755 -0.3987 -0.0155
  218MOL0     H29403  -0.062   5.729  10.765 -0.8394  0.8811  0.7894
  218MOL0     H29404  -0.176   5.591  11.011 -0.9119  1.4493  0.9713
  218MOL0     H29405  -0.171   5.509  10.847  1.6411  0.6649 -0.9908
  218MOL0     H29406  -0.320   5.759  10.926  1.7156  0.5375 -1.4154
  218MOL0     H29407  -0.311   5.702  10.760 -1.0261  0.1270 -0.9142
  218MOL0     H29408  -0.458   5.514  10.809 -1.5732 -0.0353 -1.1663
  218MOL0     H29409  -0.533   5.651  10.871  1.8626  0.4853 -2.1269
  218MOL0     H29410  -0.515   5.618  11.095  4.6171  2.6727  0.3079
  218MOL0     H29411  -0.401   5.479  11.077  0.1633 -1.7403 -2.3638
  218MOL0     H29412   0.494   5.661  11.015  2.4712 -2.2654 -0.7292
  218MOL0     H29413   0.714   5.669  11.096 -0.6229 -0.8832 -1.0593
  218MOL0     H29414   1.088   5.978  11.082 -0.0501  1.1850 -0.3990
  218MOL0     H29415   1.264   6.057  11.189 -2.0547  0.3059  2.9659
  218MOL0     H29416   3.247   5.901  11.230  0.7833 -0.4126  0.4744
  218MOL0     H29417   3.471   5.882  11.188  1.0459  0.1159  0.3338
  218MOL0     H29418   3.815   5.677  10.999  0.3084 -1.6204 -0.7985
  218MOL0     H29419   4.070   5.648  10.978  1.6947 -0.2048 -0.7633
  218MOL0     H29420   4.289   5.846  10.688  1.0661 -2.1330 -1.8601
  218MOL0     H29421   4.411   5.788  10.784  0.3462  3.0898 -4.1058
  218MOL0     H29422   4.192   5.603  10.650 -0.5410  0.6761 -0.5563
  218MOL0     H29423   4.260   5.568  10.812  1.0764 -0.0202  0.4276
  218MOL0     H29424   4.418   5.464  10.673  0.7048  0.4196 -0.1756
  218MOL0     H29425   4.494   5.618  10.714  1.7560  0.9692 -2.6216
  218MOL0     H29426   4.515   5.564  10.483  1.7223  0.7319  2.8613
  218MOL0     H29427   4.425   5.716  10.510  1.0290 -0.3636  0.8271
  218MOL0     H29428   4.167   5.457  10.289 -2.6210  1.4021  0.5303
  218MOL0     H29429   4.106   6.015  10.760 -0.0813 -0.0560 -0.3586
  218MOL0     H29430   3.878   6.051  10.779 -0.4557  0.2281 -1.0073
  219MOL0     O29431   5.857   0.575  10.070  0.1892  0.4414 -0.2925
  219MOL0     C29432   5.901   0.465  10.083  0.3717  0.0141 -0.0589
  219MOL0     O29433   5.843   0.366  10.166 -1.0899  0.2671  0.3410
  219MOL0     C29434   5.715   0.384  10.221  0.1546 -0.3829  0.3709
  219MOL0     C29435   5.699   0.396  10.357 -0.6066  0.6107 -0.2288
  219MOL0     C29436   5.570   0.410  10.408  1.1308 -0.0713  0.0083
  219MOL0     C29437   5.452   0.411  10.326  0.5505 -0.5434  0.1267
  219MOL0     O29438   5.337   0.423  10.386 -0.1206  0.0003 -0.4970
  219MOL0     C29439   5.224   0.453  10.307 -0.3593  0.7331 -0.8839
  219MOL0     C29440   5.133   0.551  10.383  0.1157 -0.2066 -0.5517
  219MOL0     C29441   5.062   0.484  10.504 -0.7912 -0.4656 -0.6228
  219MOL0     C29442   4.942   0.566  10.544  0.1306 -1.1236 -0.6619
  219MOL0     C29443   4.919   0.579  10.700  0.2511 -0.1310  0.5937
  219MOL0     C29444   4.908   0.444  10.779 -0.1926 -0.2484 -0.0457
  219MOL0     C29445   4.946   0.467  10.916 -0.3959 -0.1365 -0.7049
  219MOL0     C29446   4.966   0.348  11.004  0.3331  1.1105  0.1452
  219MOL0     N29447   4.853   0.248  10.991 -0.3099  0.2301 -0.4243
  219MOL0     C29448   4.726   0.259  11.044  0.1118 -0.1020  0.6826
  219MOL0     C29449   4.664   0.142  11.004 -0.3535  0.2563 -0.2469
  219MOL0     C29450   4.531   0.088  11.034  0.4559  0.4947  0.8419
  219MOL0     C29451   4.467   0.179  11.138  0.1066 -0.3998  0.6372
  219MOL0     C29452   4.339   0.104  11.170  0.3014 -0.1426 -0.4357
  219MOL0     C29453   4.240   0.194  11.247 -1.0572 -0.9259 -0.3589
  219MOL0     O29454   4.117   0.123  11.245 -0.8730  0.3325  0.4160
  219MOL0     C29455   3.997   0.181  11.265 -0.1541  0.0024  0.1212
  219MOL0     C29456   3.882   0.108  11.254 -0.5964 -0.1395  0.2183
  219MOL0     C29457   3.759   0.137  11.315 -0.2634 -0.4254  0.2946
  219MOL0     C29458   3.666   0.021  11.310 -0.1405  0.1206  0.0837
  219MOL0     C29459   3.750   0.256  11.385  0.1890 -0.4646  0.2282
  219MOL0     C29460   3.623   0.306  11.445 -0.2307 -0.9584  0.4154
  219MOL0     O29461   3.638   0.367  11.570 -0.3090 -0.1951  0.3215
  219MOL0     C29462   3.541   0.445  11.628 -1.0170  0.0486 -0.4207
  219MOL0     C29463   3.404   0.421  11.653 -0.2821 -0.1762 -0.2787
  219MOL0     C29464   3.318   0.530  11.688  0.8217  0.1602  0.0117
  219MOL0     C29465   3.366   0.656  11.704  0.1820 -0.7788 -0.0876
  219MOL0     O29466   3.268   0.751  11.736 -0.0088  0.2097 -0.5331
  219MOL0     C29467   3.310   0.887  11.726 -0.0420 -0.2575  0.0323
  219MOL0     C29468   3.188   0.993  11.746 -0.1612  0.1476  0.5278
  219MOL0     C29469   3.155   1.012  11.898  0.1532 -0.1341  0.4625
  219MOL0     C29470   3.040   1.103  11.941  0.5628  0.2488 -0.2351
  219MOL0     C29471   3.039   1.142  12.088 -0.6383  0.1607  0.2309
  219MOL0     C29472   3.160   1.226  12.128  1.5732 -0.8384 -0.3567
  219MOL0     C29473   3.156   1.270  12.271 -0.6620  0.6055  0.5241
  219MOL0     C29474   3.050   1.384  12.294  0.6783 -0.1423 -0.4421
  219MOL0    Cl29475   3.104   1.542  12.236  0.5327 -0.2158  0.1125
  219MOL0     C29476   3.500   0.684  11.704 -0.2988  0.3044  0.8940
  219MOL0     C29477   3.583   0.578  11.657  0.6746 -0.0356  0.1847
  219MOL0     O29478   3.518   0.305  11.387  0.2080 -0.2805  0.2209
  219MOL0     C29479   3.860   0.339  11.396 -0.8884 -0.0476 -0.5006
  219MOL0     C29480   3.983   0.301  11.332 -0.0998 -0.3742 -0.5815
  219MOL0     N29481   4.753   0.070  10.924 -0.1371  0.4867  0.2001
  219MOL0     N29482   4.866   0.137  10.915 -0.2662 -0.2110 -0.0785
  219MOL0     C29483   5.475   0.402  10.186 -0.2719 -0.1945  0.0881
  219MOL0     C29484   5.603   0.394  10.134 -0.1016  0.5949 -0.7689
  219MOL0     C29485   6.038   0.419  10.026 -0.0488 -0.2793 -0.2154
  219MOL0     C29486   6.119   0.516   9.957  0.3875 -0.1509  0.3582
  219MOL0     C29487   6.255   0.483   9.939 -0.0984  0.6716 -1.0790
  219MOL0     C29488   6.310   0.357   9.966  0.7104 -0.4482  0.2664
  219MOL0     O29489   6.439   0.320   9.939  0.1234  0.0031  0.3299
  219MOL0     C29490   6.532   0.411   9.883  0.4285  0.4472 -0.0163
  219MOL0     C29491   6.655   0.342   9.830 -0.0920  1.0159  0.2427
  219MOL0     C29492   6.753   0.294   9.934  0.0593 -0.4851 -0.4260
  219MOL0     C29493   6.717   0.165   9.996 -0.7185 -0.0528  0.1527
  219MOL0     C29494   6.829   0.101  10.066  1.5134  0.7815 -0.6042
  219MOL0     C29495   6.917   0.043  10.131  0.4114 -0.2835 -0.4652
  219MOL0     C29496   6.221   0.257   9.995  0.5373 -0.4447  0.3535
  219MOL0     C29497   6.089   0.281  10.036  0.7618 -0.4211 -0.0815
  219MOL0     H29498   5.782   0.386  10.427 -2.1902 -2.1981  1.4131
  219MOL0     H29499   5.555   0.427  10.515 -0.6501  0.0561 -0.2417
  219MOL0     H29500   5.249   0.507  10.215  2.7145 -0.1815 -0.7097
  219MOL0     H29501   5.179   0.358  10.278  2.0873 -0.8478  0.1244
  219MOL0     H29502   5.193   0.635  10.420 -0.4584  0.4762 -1.1471
  219MOL0     H29503   5.053   0.578  10.314 -1.1995 -0.2294  0.9042
  219MOL0     H29504   5.030   0.381  10.491 -0.8479 -0.8578  2.0288
  219MOL0     H29505   5.122   0.495  10.595 -1.3248  1.1303 -0.4181
  219MOL0     H29506   4.960   0.669  10.510  2.1747 -0.3435  2.3571
  219MOL0     H29507   4.856   0.523  10.491  0.4103 -1.1549 -1.1041
  219MOL0     H29508   4.997   0.636  10.751  1.0592 -0.4219 -0.2912
  219MOL0     H29509   4.822   0.631  10.704 -1.1689 -2.4862 -0.6198
  219MOL0     H29510   4.807   0.401  10.774  0.3447 -1.4530 -1.6463
  219MOL0     H29511   4.984   0.379  10.735  3.0557  3.4576 -0.4157
  219MOL0     H29512   5.043   0.517  10.921  0.0094 -0.4364 -3.7909
  219MOL0     H29513   4.868   0.524  10.969  0.1486 -0.7756  0.8522
  219MOL0     H29514   4.983   0.372  11.110 -2.7157  3.6464  0.2076
  219MOL0     H29515   5.051   0.298  10.957 -1.8002 -2.6603 -0.0955
  219MOL0     H29516   4.688   0.341  11.104 -2.3685 -0.2329 -0.5857
  219MOL0     H29517   4.474   0.090  10.941 -0.2755  0.7543  1.2911
  219MOL0     H29518   4.547  -0.016  11.064  0.2745 -0.2561 -1.4837
  219MOL0     H29519   4.463   0.272  11.081  5.9489 -1.8620 -3.0834
  219MOL0     H29520   4.535   0.181  11.223 -0.6216 -0.0265  1.2234
  219MOL0     H29521   4.346   0.013  11.230  1.2258  0.6807  0.7626
  219MOL0     H29522   4.293   0.064  11.080  1.7507 -0.2900 -1.1270
  219MOL0     H29523   4.233   0.300  11.219 -0.0542 -0.4856  0.9695
  219MOL0     H29524   4.274   0.207  11.350 -2.0265  2.5003 -0.3362
  219MOL0     H29525   3.894   0.015  11.200 -0.4026 -0.4430  0.7852
  219MOL0     H29526   3.569   0.034  11.357  0.6478 -3.2999  3.1286
  219MOL0     H29527   3.657  -0.005  11.204  1.0109  1.0958 -0.2834
  219MOL0     H29528   3.713  -0.068  11.354  2.3503  0.6079 -1.3502
  219MOL0     H29529   3.370   0.318  11.644  0.8789 -0.3590 -4.6445
  219MOL0     H29530   3.212   0.510  11.700  0.9084  0.3933  1.2630
  219MOL0     H29531   3.386   0.896  11.804 -0.7657  2.5741  0.4859
  219MOL0     H29532   3.355   0.904  11.628 -4.1625 -2.7999 -2.6171
  219MOL0     H29533   3.206   1.098  11.720 -2.8249  1.1327  2.3065
  219MOL0     H29534   3.103   0.956  11.688 -0.3884 -0.5060  1.2726
  219MOL0     H29535   3.253   1.044  11.935  0.0486 -1.9087  2.4368
  219MOL0     H29536   3.142   0.911  11.939 -0.6538 -0.7754 -1.2544
  219MOL0     H29537   3.036   1.194  11.881  0.7511  0.5085  0.1428
  219MOL0     H29538   2.944   1.057  11.916  0.4487  0.6723 -0.5982
  219MOL0     H29539   3.039   1.048  12.143  2.0398 -1.0202 -1.6214
  219MOL0     H29540   2.945   1.199  12.093 -1.8879 -1.7035 -1.0377
  219MOL0     H29541   3.248   1.163  12.112  2.3642 -0.0910  0.8544
  219MOL0     H29542   3.152   1.323  12.077  0.4843 -0.8302 -0.1877
  219MOL0     H29543   3.254   1.309  12.299 -1.3564  1.2706  2.1071
  219MOL0     H29544   3.144   1.177  12.327  0.9959 -1.1160 -1.7678
  219MOL0     H29545   3.050   1.405  12.401 -3.4430  2.1486 -0.6632
  219MOL0     H29546   2.946   1.362  12.266  0.7755 -0.4529 -0.5618
  219MOL0     H29547   3.535   0.782  11.733 -1.3451  1.0528 -0.2885
  219MOL0     H29548   3.686   0.598  11.629  0.7133 -0.3695  0.0816
  219MOL0     H29549   3.864   0.439  11.440  1.1742  0.6466 -2.0745
  219MOL0     H29550   4.070   0.363  11.350 -1.2236  0.8517  0.9150
  219MOL0     H29551   5.399   0.398  10.108  2.1367 -1.2737 -2.3916
  219MOL0     H29552   5.607   0.368  10.029  1.5144 -3.4546  0.0804
  219MOL0     H29553   6.069   0.606   9.923 -1.2831 -1.5206 -0.9865
  219MOL0     H29554   6.323   0.560   9.905 -0.1221 -0.4779 -4.0449
  219MOL0     H29555   6.482   0.461   9.799  0.2876  0.3869  0.0311
  219MOL0     H29556   6.553   0.481   9.964  0.7963 -1.5204  1.6577
  219MOL0     H29557   6.717   0.402   9.762 -2.0862  0.9860 -1.7040
  219MOL0     H29558   6.629   0.251   9.777  1.7034 -1.5676  3.4190
  219MOL0     H29559   6.770   0.361  10.019  2.9702 -2.7755  0.9709
  219MOL0     H29560   6.857   0.284   9.903  0.2348  2.2578 -0.9464
  219MOL0     H29561   6.682   0.091   9.923  2.4254 -0.7067 -0.8348
  219MOL0     H29562   6.643   0.187  10.073  0.7019  0.6710  1.3608
  219MOL0     H29563   6.992  -0.008  10.187 -0.4323 -0.0782  0.8829
  219MOL0     H29564   6.258   0.156  10.005 -0.4110 -0.8507 -0.0909
  219MOL0     H29565   6.028   0.196  10.067 -1.1670  1.1403  0.5946
  220MOL0     O29566   7.493   5.119   7.900 -0.0036  0.5175  0.2108
  220MOL0     C29567   7.573   5.209   7.935 -0.5640  0.1683 -0.1153
  220MOL0     O29568   7.553   5.339   7.911  0.1839 -0.4769  0.5627
  220MOL0     C29569   7.431   5.390   7.885  0.7597 -0.5083 -0.7334
  220MOL0     C29570   7.326   5.356   7.966 -1.1058  0.5100 -0.6289
  220MOL0     C29571   7.195   5.415   7.942 -0.2991  0.5133  0.2861
  220MOL0     C29572   7.185   5.514   7.841  0.8028  0.1928 -0.8705
  220MOL0     O29573   7.053   5.559   7.832 -0.8656  0.6628  0.2960
  220MOL0     C29574   7.013   5.621   7.711  0.6095 -0.3440  0.2489
  220MOL0     C29575   6.879   5.691   7.744  0.1492  0.8255 -0.7187
  220MOL0     C29576   6.818   5.781   7.631  0.2435  0.9322 -0.3089
  220MOL0     C29577   6.699   5.865   7.688 -0.0033 -0.1286 -0.0272
  220MOL0     C29578   6.596   5.900   7.574  0.0442  0.0768  0.6576
  220MOL0     C29579   6.650   5.977   7.451 -0.0440 -0.2359  0.3496
  220MOL0     C29580   6.723   6.111   7.470  0.0783 -0.7319  0.2203
  220MOL0     C29581   6.771   6.160   7.330 -0.6199 -0.5643  0.6010
  220MOL0     N29582   6.667   6.211   7.234  0.0466 -0.3066  0.4928
  220MOL0     C29583   6.596   6.334   7.253  1.2158  1.2716  0.5953
  220MOL0     C29584   6.496   6.318   7.146 -0.6981  1.0096 -0.1928
  220MOL0     C29585   6.384   6.410   7.135  0.5239 -0.4479  0.2359
  220MOL0     C29586   6.282   6.399   7.252 -0.2118  0.5991  0.6670
  220MOL0     C29587   6.235   6.252   7.254  0.4332 -0.2957 -0.4687
  220MOL0     C29588   6.086   6.235   7.295  0.4768 -0.6349 -0.1692
  220MOL0     O29589   6.004   6.277   7.179  0.6670  0.1084 -0.4750
  220MOL0     C29590   5.876   6.231   7.160  0.2780  0.2182  0.6032
  220MOL0     C29591   5.818   6.289   7.050 -0.3594  0.7234 -0.8165
  220MOL0     C29592   5.680   6.266   7.036  1.0920  0.1868 -0.8984
  220MOL0     C29593   5.605   6.330   6.914  0.5356  0.0151 -0.2619
  220MOL0     C29594   5.599   6.180   7.125 -0.5541 -0.0946  0.6008
  220MOL0     C29595   5.456   6.161   7.110 -0.5963 -1.3027  0.2213
  220MOL0     O29596   5.410   6.038   7.102  0.1443  0.0140  0.2105
  220MOL0     C29597   5.273   6.042   7.079 -0.6184  0.4388 -0.3042
  220MOL0     C29598   5.229   6.004   6.954  1.1360  0.3073  0.6839
  220MOL0     C29599   5.090   6.007   6.924 -0.5755  0.4190 -0.9009
  220MOL0     C29600   5.002   6.061   7.024 -0.1416 -0.3992  0.3802
  220MOL0     O29601   4.871   6.086   6.982 -0.0101  0.5766 -0.4918
  220MOL0     C29602   4.766   6.027   7.063 -0.5210  0.3359  0.6480
  220MOL0     C29603   4.650   5.998   6.968  0.0690  0.3126 -0.1609
  220MOL0     C29604   4.517   5.968   7.033  0.5717  0.2630  0.0106
  220MOL0     C29605   4.464   6.088   7.120  0.0344  0.6079 -1.1458
  220MOL0     C29606   4.313   6.080   7.152  0.4904 -0.6236  0.4991
  220MOL0     C29607   4.267   6.221   7.206 -0.1524  1.0177 -0.2820
  220MOL0     C29608   4.127   6.243   7.254  0.2702  0.3603  0.7144
  220MOL0     C29609   4.093   6.385   7.269  0.0802 -0.0127 -0.9671
  220MOL0    Cl29610   3.914   6.399   7.301 -0.6133 -0.3111  0.6934
  220MOL0     C29611   5.047   6.094   7.142  0.3604 -0.7360  0.3907
  220MOL0     C29612   5.182   6.084   7.177  0.5717 -0.4134  0.0215
  220MOL0     O29613   5.388   6.264   7.088 -0.1758  0.5427  0.2981
  220MOL0     C29614   5.664   6.124   7.230  0.0125  0.8318 -0.5441
  220MOL0     C29615   5.800   6.154   7.250  0.1761 -0.7125 -0.7820
  220MOL0     N29616   6.529   6.205   7.069 -0.4367  0.3264 -0.5916
  220MOL0     N29617   6.626   6.145   7.125  0.0801 -0.4756 -0.3928
  220MOL0     C29618   7.291   5.545   7.752  0.0981  0.2473 -0.3202
  220MOL0     C29619   7.414   5.477   7.781 -0.0856  0.4840 -0.0006
  220MOL0     C29620   7.698   5.177   8.013  0.2158  1.4307  0.4135
  220MOL0     C29621   7.778   5.072   7.976 -0.9654 -0.1948 -0.0778
  220MOL0     C29622   7.897   5.037   8.046 -0.1793 -0.1662 -0.1439
  220MOL0     C29623   7.934   5.108   8.159 -0.1146 -0.2233  0.2795
  220MOL0     O29624   8.038   5.077   8.247  0.1912 -0.7409  0.1396
  220MOL0     C29625   8.107   4.955   8.239  0.3019 -0.0679  0.0758
  220MOL0     C29626   8.219   4.952   8.133  0.0694  0.4065  0.3732
  220MOL0     C29627   8.320   5.061   8.153 -0.6094 -0.4102 -0.6631
  220MOL0     C29628   8.439   5.047   8.063 -0.8595  0.0889  0.7130
  220MOL0     C29629   8.415   5.097   7.930 -0.4306 -0.2784  0.0832
  220MOL0     C29630   8.396   5.144   7.819  0.4732  0.5928  0.6598
  220MOL0     C29631   7.859   5.219   8.192  0.2050  0.3852 -1.1581
  220MOL0     C29632   7.739   5.253   8.123  0.3701  0.0986 -0.0903
  220MOL0     H29633   7.339   5.286   8.048  1.5144 -0.1792 -1.5381
  220MOL0     H29634   7.109   5.395   8.006 -0.1172 -0.5283  0.2212
  220MOL0     H29635   7.080   5.701   7.677 -0.8034  0.2683 -1.2151
  220MOL0     H29636   7.014   5.545   7.633 -1.0687  0.2797 -0.4214
  220MOL0     H29637   6.803   5.616   7.770  1.2641 -0.6241 -1.5164
  220MOL0     H29638   6.883   5.762   7.828 -2.7571  4.3267 -3.1972
  220MOL0     H29639   6.897   5.854   7.610  1.9647 -0.1466  1.9872
  220MOL0     H29640   6.789   5.719   7.546 -0.1193  0.1699  0.3514
  220MOL0     H29641   6.645   5.812   7.766 -1.2360  3.6782  1.9860
  220MOL0     H29642   6.733   5.965   7.719  1.3462  0.5827 -3.3350
  220MOL0     H29643   6.558   5.802   7.543  2.1613 -0.7248  0.4332
  220MOL0     H29644   6.507   5.955   7.606 -0.8539 -0.1601 -1.3405
  220MOL0     H29645   6.719   5.914   7.395  1.8636  1.2820  0.8783
  220MOL0     H29646   6.561   5.992   7.389  0.0152 -1.4609 -0.0490
  220MOL0     H29647   6.662   6.192   7.513 -0.9851  0.0560 -2.5615
  220MOL0     H29648   6.808   6.097   7.537 -1.0622 -0.9181  1.6862
  220MOL0     H29649   6.838   6.083   7.291  1.4479  2.4130 -2.2152
  220MOL0     H29650   6.829   6.251   7.349 -2.6014  0.2022  3.9169
  220MOL0     H29651   6.612   6.419   7.319 -1.2187  1.5611  0.8922
  220MOL0     H29652   6.424   6.512   7.129  4.2578 -1.7432  0.9268
  220MOL0     H29653   6.339   6.383   7.039 -0.2630 -0.0899  0.4929
  220MOL0     H29654   6.205   6.465   7.212 -0.1693 -1.4190 -3.2598
  220MOL0     H29655   6.316   6.429   7.351 -2.7204  1.7581  1.2559
  220MOL0     H29656   6.302   6.201   7.324 -0.1134  0.1063  0.3624
  220MOL0     H29657   6.248   6.207   7.155 -0.6041  0.1147 -0.8065
  220MOL0     H29658   6.053   6.297   7.379  0.8687  1.6509 -1.6335
  220MOL0     H29659   6.067   6.127   7.306 -0.1669 -0.3373  2.3977
  220MOL0     H29660   5.873   6.351   6.980  2.8482  0.8333  1.5899
  220MOL0     H29661   5.669   6.322   6.826 -0.2153  2.5395 -1.1275
  220MOL0     H29662   5.507   6.287   6.892 -0.1002  0.2111  1.9351
  220MOL0     H29663   5.576   6.436   6.917 -2.0021 -0.6173  0.2353
  220MOL0     H29664   5.302   5.981   6.877  0.8155  0.8696  0.2050
  220MOL0     H29665   5.056   5.996   6.822  0.9302  2.8779 -1.7741
  220MOL0     H29666   4.803   5.936   7.110 -0.4821 -0.1246 -0.2642
  220MOL0     H29667   4.745   6.096   7.146  0.1391 -0.3952  1.4424
  220MOL0     H29668   4.632   6.085   6.903 -2.3566 -1.4429 -2.0212
  220MOL0     H29669   4.682   5.914   6.906  3.9925 -0.2561  2.2365
  220MOL0     H29670   4.512   5.873   7.086  1.5228 -1.3406 -2.5767
  220MOL0     H29671   4.440   5.968   6.955 -0.4180  2.0119  0.9337
  220MOL0     H29672   4.521   6.109   7.211  0.6480 -1.0975 -1.1087
  220MOL0     H29673   4.478   6.174   7.055 -0.9295 -0.3863 -2.7354
  220MOL0     H29674   4.298   6.005   7.230  0.2600 -2.4889 -1.2652
  220MOL0     H29675   4.256   6.046   7.065  1.7612 -3.5236  0.6774
  220MOL0     H29676   4.336   6.243   7.288 -1.0610 -0.5667  0.9579
  220MOL0     H29677   4.288   6.296   7.129  1.1005  3.9935  2.7239
  220MOL0     H29678   4.107   6.191   7.349 -1.0144 -2.3309 -0.8956
  220MOL0     H29679   4.069   6.194   7.175  2.5294  0.3901 -1.0783
  220MOL0     H29680   4.112   6.456   7.188  1.4604  1.2140  0.3689
  220MOL0     H29681   4.146   6.436   7.350  0.0527 -0.0725 -0.9110
  220MOL0     H29682   4.980   6.152   7.206  0.2591 -1.9103  1.3944
  220MOL0     H29683   5.227   6.096   7.276 -2.7485  0.3689  1.5577
  220MOL0     H29684   5.607   6.062   7.299  0.4910  3.7398  2.7692
  220MOL0     H29685   5.833   6.106   7.341  0.4179 -1.9829 -1.5179
  220MOL0     H29686   7.289   5.614   7.668 -0.2205  0.2515 -0.3081
  220MOL0     H29687   7.504   5.495   7.723 -1.2279  1.5128 -1.5529
  220MOL0     H29688   7.762   5.018   7.883  1.2804  2.1168 -1.9426
  220MOL0     H29689   7.956   4.954   8.008  1.1598  1.1769 -1.1086
  220MOL0     H29690   8.143   4.943   8.341  3.9923 -1.8006 -1.2370
  220MOL0     H29691   8.040   4.873   8.212  1.5987 -0.1984 -3.2901
  220MOL0     H29692   8.177   4.969   8.034  0.1885  2.9040  0.7079
  220MOL0     H29693   8.270   4.857   8.152 -1.5781 -0.5400  0.2655
  220MOL0     H29694   8.348   5.061   8.258 -1.2123 -2.2699 -0.4522
  220MOL0     H29695   8.271   5.157   8.135  0.9600  0.7774  1.0436
  220MOL0     H29696   8.474   4.943   8.063  2.1357  0.8845  4.0853
  220MOL0     H29697   8.514   5.117   8.102 -2.0880  4.1771 -3.4200
  220MOL0     H29698   8.371   5.163   7.716  0.4640 -2.7751 -0.0851
  220MOL0     H29699   7.894   5.274   8.279 -1.8384  0.3075 -0.2236
  220MOL0     H29700   7.681   5.341   8.151  1.8121  0.5701  1.6301
  221MOL0     O29701   0.508   2.101   6.146  0.1607  0.7811 -0.3133
  221MOL0     C29702   0.435   2.032   6.216 -0.3071  0.8231  0.1054
  221MOL0     O29703   0.472   1.984   6.335  0.0269 -0.9382 -0.3225
  221MOL0     C29704   0.596   1.995   6.387 -1.2650 -0.0982  0.0993
  221MOL0     C29705   0.718   1.931   6.324  0.8204 -0.0261 -0.0656
  221MOL0     C29706   0.840   1.941   6.396 -0.1144 -0.2678 -0.2805
  221MOL0     C29707   0.847   2.012   6.517  0.5352  0.1176  0.4276
  221MOL0     O29708   0.976   2.030   6.572 -0.0858 -0.0548 -0.2929
  221MOL0     C29709   0.997   2.121   6.682 -0.2009  0.9313 -0.9977
  221MOL0     C29710   1.138   2.112   6.736  0.2768 -0.3231 -0.0227
  221MOL0     C29711   1.189   1.970   6.766 -1.2248  0.6643  1.0729
  221MOL0     C29712   1.318   1.976   6.861 -0.6541 -0.5368 -0.3106
  221MOL0     C29713   1.433   2.003   6.769 -0.8158 -0.4335  0.3050
  221MOL0     C29714   1.559   2.054   6.839  0.5633 -0.6143 -0.1309
  221MOL0     C29715   1.612   1.960   6.953 -0.0193 -0.4125  0.4779
  221MOL0     C29716   1.748   2.016   7.004 -0.7339  0.7181 -0.1761
  221MOL0     N29717   1.798   1.942   7.115  0.0552  0.7203  0.5249
  221MOL0     C29718   1.916   1.871   7.118  0.0685  0.4343 -0.5733
  221MOL0     C29719   1.916   1.815   7.240 -1.9237 -0.0829 -0.0975
  221MOL0     C29720   2.022   1.724   7.287  0.3931 -0.0115  0.2690
  221MOL0     C29721   1.965   1.596   7.347 -0.2286 -0.3306 -0.3984
  221MOL0     C29722   2.050   1.521   7.454 -0.6813  0.7132 -0.2205
  221MOL0     C29723   2.206   1.516   7.428  0.3566  0.1467  0.0747
  221MOL0     O29724   2.236   1.436   7.317  0.1917  0.6284 -0.5557
  221MOL0     C29725   2.368   1.423   7.271 -0.3349 -0.2697 -0.0689
  221MOL0     C29726   2.483   1.481   7.325 -0.8346  0.2447 -1.2931
  221MOL0     C29727   2.610   1.474   7.273 -0.4742 -0.3766  1.3331
  221MOL0     C29728   2.716   1.558   7.333  1.1600 -0.3406 -0.0341
  221MOL0     C29729   2.627   1.401   7.155  0.0262 -0.7584  0.4294
  221MOL0     C29730   2.761   1.381   7.088 -0.2983  0.8523  0.8706
  221MOL0     O29731   2.748   1.316   6.960  0.1623 -1.1458 -1.1922
  221MOL0     C29732   2.847   1.233   6.920 -0.2408  0.3440 -0.0309
  221MOL0     C29733   2.921   1.155   7.014 -0.4834  0.3571  0.3210
  221MOL0     C29734   3.010   1.064   6.973  0.4284  0.0136  0.3520
  221MOL0     C29735   3.022   1.035   6.841 -0.1984  0.8956  0.1336
  221MOL0     O29736   3.116   0.944   6.837 -0.2085 -0.4135  0.0136
  221MOL0     C29737   3.177   0.909   6.706  0.0735 -0.7574 -0.5058
  221MOL0     C29738   3.301   0.846   6.738 -0.3696 -0.5929 -0.3157
  221MOL0     C29739   3.403   0.920   6.820 -0.3596  0.5758 -0.5058
  221MOL0     C29740   3.544   0.890   6.788 -1.0386 -0.3787  0.1043
  221MOL0     C29741   3.661   0.973   6.855  1.0609 -0.4715  0.1995
  221MOL0     C29742   3.784   0.982   6.762  0.0008 -0.0270  0.5064
  221MOL0     C29743   3.914   0.990   6.842  0.6310 -0.4442 -0.5622
  221MOL0     C29744   4.039   0.974   6.748  0.1872 -0.1015 -0.0449
  221MOL0    Cl29745   4.032   0.836   6.624  0.1198 -0.5179 -0.4516
  221MOL0     C29746   2.950   1.096   6.739 -0.1931 -0.7247  0.0085
  221MOL0     C29747   2.863   1.197   6.786 -0.1542  0.2254  0.0585
  221MOL0     O29748   2.864   1.429   7.138  0.6019 -1.0110  0.2428
  221MOL0     C29749   2.515   1.339   7.094  0.4134 -0.4970 -0.7828
  221MOL0     C29750   2.392   1.356   7.150  0.5179 -0.2648  0.6705
  221MOL0     N29751   1.796   1.833   7.301  0.0431  0.1424  0.3956
  221MOL0     N29752   1.721   1.910   7.224 -0.3895  0.2466 -0.3759
  221MOL0     C29753   0.734   2.083   6.561 -0.4334  0.0123 -0.2959
  221MOL0     C29754   0.610   2.080   6.496  0.7154  0.6122  0.1702
  221MOL0     C29755   0.306   1.991   6.174  1.0598  0.5571  0.7057
  221MOL0     C29756   0.238   1.879   6.222  0.1708  0.3740  0.0937
  221MOL0     C29757   0.105   1.855   6.181 -0.4085 -0.6707 -0.0058
  221MOL0     C29758   0.024   1.936   6.102 -0.4521 -0.0665 -0.2378
  221MOL0     O29759  -0.114   1.926   6.085 -0.6690  1.0505  0.6234
  221MOL0     C29760  -0.173   1.794   6.106  0.1295 -0.7035 -0.7905
  221MOL0     C29761  -0.302   1.796   6.029 -0.3421  0.7788  0.2035
  221MOL0     C29762  -0.410   1.906   6.062 -0.1107  0.4703 -0.0797
  221MOL0     C29763  -0.509   1.909   5.945  0.5465 -0.5312  0.4381
  221MOL0     C29764  -0.619   2.006   5.966 -0.2116 -0.4249 -0.3587
  221MOL0     C29765  -0.712   2.084   5.972 -0.2187 -0.0666  0.5190
  221MOL0     C29766   0.090   2.050   6.054 -0.6117  0.4899  0.2129
  221MOL0     C29767   0.224   2.074   6.089  0.4001 -0.0016 -0.2186
  221MOL0     H29768   0.692   1.885   6.230 -2.8364 -0.4329  0.9777
  221MOL0     H29769   0.925   1.889   6.351  0.9102 -0.9346  2.2839
  221MOL0     H29770   0.989   2.225   6.652  0.4930  0.6925 -2.0382
  221MOL0     H29771   0.921   2.098   6.758 -2.9450  2.9463 -2.9369
  221MOL0     H29772   1.203   2.163   6.664 -0.8545  0.9306 -0.1919
  221MOL0     H29773   1.147   2.174   6.827 -0.4321  4.0546 -2.6320
  221MOL0     H29774   1.108   1.912   6.811  0.0114 -1.3369  0.8797
  221MOL0     H29775   1.192   1.915   6.671  0.7190  1.0929  0.8312
  221MOL0     H29776   1.318   2.061   6.930 -2.5192  1.5157 -2.6810
  221MOL0     H29777   1.348   1.891   6.923  0.2022 -1.0219 -1.3547
  221MOL0     H29778   1.457   1.918   6.705  1.7092  0.8867 -0.6612
  221MOL0     H29779   1.420   2.082   6.694 -0.0525 -0.5420  0.0518
  221MOL0     H29780   1.626   2.064   6.753  1.7479 -2.5931  0.4898
  221MOL0     H29781   1.529   2.149   6.884  2.3291 -0.3507  0.5780
  221MOL0     H29782   1.538   1.968   7.033 -0.5481  1.6334 -0.1513
  221MOL0     H29783   1.628   1.861   6.910  2.0226 -1.3343  3.0910
  221MOL0     H29784   1.724   2.117   7.038 -3.8623  1.2903 -3.3216
  221MOL0     H29785   1.821   2.006   6.923 -1.6248 -1.2352 -0.8169
  221MOL0     H29786   1.993   1.857   7.043  0.3784  0.9973 -0.3682
  221MOL0     H29787   2.098   1.694   7.215  1.1968  0.1309  1.0396
  221MOL0     H29788   2.074   1.765   7.374  2.2851 -4.8460  1.7715
  221MOL0     H29789   1.957   1.527   7.262  1.1976  1.8269 -2.4141
  221MOL0     H29790   1.868   1.619   7.393  0.2849  3.8834 -1.0237
  221MOL0     H29791   2.007   1.421   7.455 -2.3501  1.1071 -4.8614
  221MOL0     H29792   2.041   1.557   7.557 -1.2762 -2.0325  0.7499
  221MOL0     H29793   2.255   1.477   7.518  0.3652 -3.9797 -1.5016
  221MOL0     H29794   2.251   1.615   7.418 -0.0647  0.6329  2.3430
  221MOL0     H29795   2.477   1.545   7.412  0.6204 -2.2471  0.7515
  221MOL0     H29796   2.685   1.616   7.421  0.2383 -1.6415  0.5214
  221MOL0     H29797   2.789   1.488   7.375  0.2328 -1.8850 -0.9106
  221MOL0     H29798   2.762   1.631   7.266  1.3348 -0.3680  0.0532
  221MOL0     H29799   2.912   1.169   7.122  2.3277 -1.2519  0.8572
  221MOL0     H29800   3.038   0.998   7.055 -3.4645  0.8660  2.6484
  221MOL0     H29801   3.100   0.859   6.647 -1.7255  1.8517 -0.5620
  221MOL0     H29802   3.199   0.998   6.647  2.9800 -0.2899  1.1048
  221MOL0     H29803   3.289   0.743   6.772  0.3138 -0.4324  0.4407
  221MOL0     H29804   3.348   0.826   6.641 -0.1940  0.0976 -0.3744
  221MOL0     H29805   3.381   0.896   6.924 -0.2375 -0.8734 -0.7898
  221MOL0     H29806   3.380   1.025   6.799  1.4218  1.5711  2.0211
  221MOL0     H29807   3.562   0.786   6.816 -0.2951 -0.7656 -1.6478
  221MOL0     H29808   3.567   0.891   6.681  4.0230  0.4833  0.9095
  221MOL0     H29809   3.681   0.952   6.960  1.9090  0.3137  0.2082
  221MOL0     H29810   3.618   1.074   6.858  2.5742  0.1851  2.5193
  221MOL0     H29811   3.786   0.881   6.721 -0.8964 -2.6098  5.9017
  221MOL0     H29812   3.785   1.059   6.684 -0.9602 -3.0198 -2.6806
  221MOL0     H29813   3.914   0.907   6.914 -1.5767 -1.3628 -1.5317
  221MOL0     H29814   3.906   1.088   6.890 -2.1420 -0.2559 -1.2581
  221MOL0     H29815   4.115   0.957   6.825 -2.4162  0.8661  2.9514
  221MOL0     H29816   4.065   1.068   6.700 -0.9156  1.3196  1.9925
  221MOL0     H29817   2.959   1.085   6.631  1.1409  0.2116  0.0022
  221MOL0     H29818   2.809   1.248   6.707 -2.7295 -2.7234 -0.2832
  221MOL0     H29819   2.523   1.271   7.009  3.9360  1.1455 -1.9749
  221MOL0     H29820   2.307   1.305   7.106  0.8335  3.2409 -5.0264
  221MOL0     H29821   0.747   2.162   6.635  0.3577 -0.7484  0.4129
  221MOL0     H29822   0.530   2.146   6.529  0.9268  0.5758  0.7666
  221MOL0     H29823   0.294   1.812   6.286 -0.0207 -0.5160 -0.6500
  221MOL0     H29824   0.059   1.762   6.214 -0.0605 -0.8734 -0.0847
  221MOL0     H29825  -0.113   1.707   6.078  0.6104 -0.3617 -0.8370
  221MOL0     H29826  -0.213   1.788   6.207 -1.6162 -1.2135 -1.4681
  221MOL0     H29827  -0.345   1.696   6.039 -1.2890  0.9730 -1.4797
  221MOL0     H29828  -0.268   1.815   5.927 -0.1886 -0.3987  0.0187
  221MOL0     H29829  -0.367   2.006   6.058 -0.4835  0.6034 -1.5096
  221MOL0     H29830  -0.461   1.877   6.154  1.7267  0.2811  0.9111
  221MOL0     H29831  -0.544   1.807   5.925  0.7800 -0.1346 -2.4294
  221MOL0     H29832  -0.452   1.934   5.855 -0.9134 -2.9851 -1.3041
  221MOL0     H29833  -0.783   2.163   5.982  0.3685  0.3534  1.6619
  221MOL0     H29834   0.032   2.116   5.990 -0.7649 -1.2103 -1.4729
  221MOL0     H29835   0.266   2.163   6.041 -2.5931  1.3065 -0.6594
  222MOL0     O29836   8.014   4.058   8.935 -0.2394 -0.2397  0.1885
  222MOL0     C29837   7.910   4.090   8.992  0.0877  0.0562 -0.3143
  222MOL0     O29838   7.890   4.104   9.126 -0.4914  1.0064  0.5665
  222MOL0     C29839   7.996   4.046   9.208 -0.5988 -0.2255  0.4056
  222MOL0     C29840   8.084   4.137   9.278  1.0441  0.3127 -0.7881
  222MOL0     C29841   8.207   4.097   9.330 -0.7899  0.6284  0.0211
  222MOL0     C29842   8.234   3.957   9.333 -0.7125 -0.7394 -0.1469
  222MOL0     O29843   8.344   3.908   9.390 -0.2656 -0.3990 -0.0287
  222MOL0     C29844   8.472   3.963   9.346  0.5409 -0.0759 -0.3191
  222MOL0     C29845   8.579   3.867   9.390 -0.1992  0.2699 -0.5902
  222MOL0     C29846   8.720   3.870   9.325 -0.7466  0.1127  0.5031
  222MOL0     C29847   8.806   3.748   9.360 -0.2986 -0.5802 -0.1579
  222MOL0     C29848   8.915   3.724   9.258 -0.2449 -1.0051 -0.5117
  222MOL0     C29849   9.021   3.626   9.321  1.0991  0.6293  0.8610
  222MOL0     C29850   9.100   3.546   9.220 -0.5875 -0.1355  0.7090
  222MOL0     C29851   9.226   3.474   9.273  0.6396  0.7278 -0.4755
  222MOL0     N29852   9.337   3.566   9.315 -0.7469 -0.4479  0.3645
  222MOL0     C29853   9.357   3.620   9.436  0.0333  0.6859 -0.5139
  222MOL0     C29854   9.455   3.709   9.411 -0.6817 -1.0050 -0.7025
  222MOL0     C29855   9.515   3.788   9.521  0.4069  0.2482 -0.0313
  222MOL0     C29856   9.668   3.812   9.495 -0.7571 -0.2684  0.1756
  222MOL0     C29857   9.746   3.878   9.606 -1.2690  0.2441  0.4118
  222MOL0     C29858   9.890   3.872   9.559 -0.1211 -0.4907  0.5025
  222MOL0     O29859   9.951   3.741   9.574 -0.4401  0.1405  0.0954
  222MOL0     C29860  10.084   3.729   9.599  0.0773  0.4411  1.1085
  222MOL0     C29861  10.132   3.607   9.645 -0.8068 -0.6025  0.3073
  222MOL0     C29862  10.268   3.582   9.669 -0.0594  0.3252 -0.0540
  222MOL0     C29863  10.303   3.436   9.688 -0.3094 -0.0437  0.7916
  222MOL0     C29864  10.364   3.688   9.658  1.2653 -0.4583  0.1305
  222MOL0     C29865  10.513   3.679   9.669  0.0952  0.0466  0.1986
  222MOL0     O29866  10.599   3.757   9.600 -0.2409  0.5099  0.1118
  222MOL0     C29867  10.732   3.753   9.619  0.4471 -0.2906  0.7922
  222MOL0     C29868  10.797   3.767   9.740 -0.2283 -0.6563  0.3364
  222MOL0     C29869  10.935   3.784   9.739  0.1740  0.4066  0.2120
  222MOL0     C29870  11.014   3.793   9.625 -0.3819  0.0994  0.9486
  222MOL0     O29871  11.152   3.827   9.626  0.1588 -0.7504 -0.1488
  222MOL0     C29872  11.213   3.775   9.744  0.5674 -0.5831  0.7799
  222MOL0     C29873  11.366   3.796   9.728  0.2049 -1.6708 -0.3386
  222MOL0     C29874  11.442   3.722   9.846 -0.3289 -0.3192  0.3313
  222MOL0     C29875  11.431   3.791   9.990  0.3167 -0.5630 -0.4792
  222MOL0     C29876  11.520   3.703  10.086 -0.2140  0.1877 -0.0594
  222MOL0     C29877  11.560   3.772  10.217 -0.1404 -0.8101  0.9156
  222MOL0     C29878  11.642   3.686  10.315 -0.5810  0.9759  0.1193
  222MOL0     C29879  11.562   3.579  10.382  0.1955  0.0859  0.5430
  222MOL0    Cl29880  11.441   3.664  10.489 -0.1781 -0.0538 -0.1410
  222MOL0     C29881  10.946   3.769   9.502 -0.3576  0.2903 -0.3664
  222MOL0     C29882  10.806   3.763   9.493  0.0584 -0.7041 -0.5097
  222MOL0     O29883  10.545   3.610   9.763  0.4247 -0.0799  0.4609
  222MOL0     C29884  10.313   3.814   9.618 -0.4482 -0.5789 -0.0373
  222MOL0     C29885  10.174   3.832   9.586  0.4288 -1.1065 -0.7526
  222MOL0     N29886   9.478   3.724   9.275  0.9224  0.0836  0.1072
  222MOL0     N29887   9.409   3.631   9.219  0.6712 -0.5817  0.0533
  222MOL0     C29888   8.150   3.865   9.273  0.4191 -0.3425 -0.4038
  222MOL0     C29889   8.031   3.908   9.214  0.3620  0.5588 -0.2061
  222MOL0     C29890   7.797   4.127   8.902  0.1033 -0.3153  0.2549
  222MOL0     C29891   7.688   4.196   8.966 -0.5901 -0.4126  0.3590
  222MOL0     C29892   7.588   4.243   8.883  0.1925 -0.3206  0.4327
  222MOL0     C29893   7.579   4.225   8.743 -0.3471 -0.6044  0.1512
  222MOL0     O29894   7.481   4.255   8.653  0.1888  0.4491 -0.5820
  222MOL0     C29895   7.381   4.343   8.694  0.0322  0.7228  0.2908
  222MOL0     C29896   7.313   4.376   8.562 -0.6182 -1.1579  0.1052
  222MOL0     C29897   7.168   4.414   8.598 -0.2190  0.0218 -0.1081
  222MOL0     C29898   7.085   4.462   8.469 -0.2604  0.2946  0.0897
  222MOL0     C29899   6.974   4.543   8.510  0.3981  0.7729  0.1742
  222MOL0     C29900   6.888   4.624   8.529  1.0627 -0.0650  0.4804
  222MOL0     C29901   7.688   4.152   8.685  0.0979  0.0928 -0.3369
  222MOL0     C29902   7.790   4.088   8.764 -0.9080  0.0824  0.0163
  222MOL0     H29903   8.066   4.244   9.268 -1.0814  0.5790  3.4628
  222MOL0     H29904   8.269   4.170   9.379  1.6098 -0.7797 -0.7717
  222MOL0     H29905   8.466   3.975   9.238  0.2355 -1.7044 -0.5019
  222MOL0     H29906   8.492   4.058   9.398 -0.5278  2.0905 -3.5179
  222MOL0     H29907   8.596   3.883   9.497  0.9940  1.8448 -0.9765
  222MOL0     H29908   8.544   3.764   9.379 -1.0155  0.7017 -2.3327
  222MOL0     H29909   8.699   3.872   9.218  0.0895  1.6928  0.3324
  222MOL0     H29910   8.761   3.969   9.347 -1.5638  1.2401 -2.5015
  222MOL0     H29911   8.847   3.773   9.458 -2.9132  1.8056  0.4612
  222MOL0     H29912   8.738   3.663   9.368 -1.4228  0.0995 -1.7909
  222MOL0     H29913   8.877   3.691   9.161  1.7195  0.9431 -2.0382
  222MOL0     H29914   8.962   3.817   9.226 -3.9266  0.1184 -3.2294
  222MOL0     H29915   9.079   3.687   9.391 -1.6137  3.2421  1.0890
  222MOL0     H29916   8.968   3.554   9.383 -4.5231  2.8098 -0.7579
  222MOL0     H29917   9.036   3.477   9.165  1.1200 -0.8513 -0.4334
  222MOL0     H29918   9.142   3.618   9.149 -0.6922 -0.8210 -0.0637
  222MOL0     H29919   9.266   3.402   9.201  0.5367  1.6664 -1.4963
  222MOL0     H29920   9.201   3.417   9.363 -2.1797 -0.1679 -1.7425
  222MOL0     H29921   9.310   3.609   9.533 -1.6534  2.4471 -1.0740
  222MOL0     H29922   9.462   3.884   9.523 -0.9840 -0.4219 -1.7037
  222MOL0     H29923   9.512   3.724   9.609  1.3180  0.0629 -0.1273
  222MOL0     H29924   9.679   3.883   9.413 -2.1351  2.1360  1.9295
  222MOL0     H29925   9.711   3.715   9.468 -2.3592 -1.3545  1.3220
  222MOL0     H29926   9.745   3.818   9.697 -0.3046 -0.7639 -0.2093
  222MOL0     H29927   9.718   3.983   9.618 -1.2178  0.3263 -0.1558
  222MOL0     H29928   9.944   3.946   9.618  1.7996  0.8128 -2.6191
  222MOL0     H29929   9.909   3.894   9.453  0.4970 -1.6934  0.3495
  222MOL0     H29930  10.067   3.520   9.638  0.2470 -1.2475 -3.6585
  222MOL0     H29931  10.393   3.414   9.746 -0.1605 -2.1193 -0.1227
  222MOL0     H29932  10.230   3.382   9.748 -0.6442 -1.1611 -0.5829
  222MOL0     H29933  10.308   3.380   9.594 -2.0403  1.3310 -0.1821
  222MOL0     H29934  10.744   3.760   9.835 -1.8864 -2.4973 -0.6649
  222MOL0     H29935  10.977   3.789   9.838  0.3093  0.5257  0.1490
  222MOL0     H29936  11.174   3.825   9.834 -2.8126 -0.1350 -0.7652
  222MOL0     H29937  11.183   3.672   9.767 -0.6150 -0.1512  1.2632
  222MOL0     H29938  11.397   3.781   9.624  0.4338 -1.4861 -0.2956
  222MOL0     H29939  11.390   3.901   9.746 -2.1874 -0.7494 -1.9674
  222MOL0     H29940  11.547   3.725   9.816 -0.1293  1.2420  1.0559
  222MOL0     H29941  11.416   3.616   9.845  2.2194 -1.0737 -2.7961
  222MOL0     H29942  11.447   3.899   9.998  0.5410 -0.7692  4.7793
  222MOL0     H29943  11.328   3.768  10.018  0.5717 -1.8752 -0.5521
  222MOL0     H29944  11.613   3.675  10.037 -0.1020 -0.6324  0.5788
  222MOL0     H29945  11.462   3.611  10.100 -1.7295  1.1952  0.6546
  222MOL0     H29946  11.637   3.844  10.190 -1.4147 -1.1122 -4.6359
  222MOL0     H29947  11.477   3.826  10.263  0.2883  1.3918 -0.7249
  222MOL0     H29948  11.691   3.748  10.390  1.0352 -0.3868  0.2688
  222MOL0     H29949  11.724   3.638  10.261 -1.3506  0.6826 -0.8097
  222MOL0     H29950  11.632   3.517  10.439  1.8483  2.9598  1.8641
  222MOL0     H29951  11.524   3.508  10.308  0.2708 -0.9808  1.4935
  222MOL0     H29952  11.000   3.764   9.408 -0.0331 -1.8755 -0.1041
  222MOL0     H29953  10.755   3.765   9.397  1.6003 -3.3364 -1.4768
  222MOL0     H29954  10.386   3.892   9.600 -1.2069  0.5985  1.6679
  222MOL0     H29955  10.144   3.930   9.549  2.0645  0.1562  1.0776
  222MOL0     H29956   8.174   3.762   9.294 -2.2917 -1.0541 -0.3826
  222MOL0     H29957   7.969   3.841   9.157 -0.7101  2.4852 -1.4368
  222MOL0     H29958   7.665   4.203   9.072  0.5466 -0.2949  0.6056
  222MOL0     H29959   7.505   4.294   8.932  0.6143 -1.4227  2.3990
  222MOL0     H29960   7.308   4.294   8.758 -1.9962  1.5837 -1.2414
  222MOL0     H29961   7.419   4.429   8.749  1.1189 -1.6942  3.5801
  222MOL0     H29962   7.299   4.285   8.503  0.1956 -1.3548  0.2065
  222MOL0     H29963   7.365   4.463   8.521 -2.2963 -0.4770 -0.6756
  222MOL0     H29964   7.158   4.496   8.670 -1.6850 -0.5784  0.4177
  222MOL0     H29965   7.114   4.330   8.642 -1.7265 -1.0842 -3.7259
  222MOL0     H29966   7.056   4.377   8.406  1.3521  1.5116 -2.4209
  222MOL0     H29967   7.154   4.518   8.406  5.2798 -3.9259  1.5857
  222MOL0     H29968   6.818   4.702   8.549  0.3269 -0.4586 -0.4444
  222MOL0     H29969   7.669   4.129   8.581  3.4622  0.9813 -1.2397
  222MOL0     H29970   7.865   4.029   8.714 -0.1257  0.1204  1.0933
  223MOL0     O29971  11.384   8.225   5.464  0.0467 -0.0882  0.0815
  223MOL0     C29972  11.321   8.217   5.575 -0.9473 -0.3982  0.3434
  223MOL0     O29973  11.370   8.156   5.685  0.4700 -0.6215 -0.1271
  223MOL0     C29974  11.494   8.099   5.696 -0.6007 -0.3700  0.4914
  223MOL0     C29975  11.527   7.989   5.614 -0.0174  1.1302  0.0623
  223MOL0     C29976  11.639   7.914   5.647  0.1284  0.3088  0.6003
  223MOL0     C29977  11.709   7.936   5.761 -0.8551  0.1195  1.1123
  223MOL0     O29978  11.807   7.847   5.793 -0.8116 -0.1055  0.9760
  223MOL0     C29979  11.906   7.836   5.699  0.3380 -0.4150  0.3187
  223MOL0     C29980  12.015   7.757   5.761 -0.2647  0.6011 -0.7311
  223MOL0     C29981  12.068   7.815   5.887 -0.5752  0.6549 -0.6403
  223MOL0     C29982  12.158   7.942   5.872  0.2850 -0.1577  0.1918
  223MOL0     C29983  12.256   7.973   5.983  0.4716 -0.0167 -0.4882
  223MOL0     C29984  12.173   7.991   6.120  0.2308 -0.1391  0.3178
  223MOL0     C29985  12.058   8.099   6.113  0.3811 -0.6277 -0.4122
  223MOL0     C29986  11.997   8.118   6.249  0.0311 -0.3404  0.3087
  223MOL0     N29987  11.860   8.181   6.232 -0.6909 -0.0244  0.2658
  223MOL0     C29988  11.823   8.303   6.181 -0.5117 -0.2152 -0.3575
  223MOL0     C29989  11.686   8.303   6.188  0.4124  0.8374  0.4939
  223MOL0     C29990  11.599   8.418   6.170 -0.6183  0.1179  0.0712
  223MOL0     C29991  11.567   8.484   6.302 -0.3649 -0.0211 -0.9279
  223MOL0     C29992  11.419   8.507   6.319  0.4091 -0.3956  0.1921
  223MOL0     C29993  11.372   8.498   6.470  0.7246 -0.6557 -0.2322
  223MOL0     O29994  11.231   8.512   6.500 -0.6044 -0.4231 -0.0054
  223MOL0     C29995  11.154   8.409   6.466 -1.1721  0.4458  0.8391
  223MOL0     C29996  11.188   8.274   6.440  0.1933 -0.5440  1.0978
  223MOL0     C29997  11.091   8.176   6.404 -0.2559  0.6331 -1.0582
  223MOL0     C29998  11.144   8.035   6.427  0.1015 -0.1933  0.0860
  223MOL0     C29999  10.956   8.211   6.405  0.0327  0.3667  0.2889
  223MOL0     C30000  10.847   8.124   6.337 -0.0239  0.1011  0.0062
  223MOL0     O30001  10.718   8.169   6.360 -0.1012 -0.3362  0.5268
  223MOL0     C30002  10.598   8.128   6.297 -0.0752 -0.1424  0.1025
  223MOL0     C30003  10.591   8.052   6.180 -0.5165 -0.1407  0.5654
  223MOL0     C30004  10.473   8.010   6.113  0.9910 -0.1270  0.6792
  223MOL0     C30005  10.347   8.056   6.168 -0.0806  0.1588  0.3099
  223MOL0     O30006  10.221   8.035   6.116 -0.8754  0.2941  0.8551
  223MOL0     C30007  10.223   7.987   5.980  0.2196 -0.0860  0.3024
  223MOL0     C30008  10.078   7.956   5.939 -0.0331  0.2027 -0.4556
  223MOL0     C30009   9.995   7.891   6.050 -0.6400  0.2632 -0.6261
  223MOL0     C30010   9.863   7.822   5.987 -0.0876 -0.0420 -0.3018
  223MOL0     C30011   9.774   7.771   6.097 -0.2073  0.4431 -0.2844
  223MOL0     C30012   9.632   7.732   6.042 -0.6237 -0.0521 -0.2027
  223MOL0     C30013   9.640   7.581   5.983  0.6618  0.0488 -0.0854
  223MOL0     C30014   9.519   7.540   5.888 -0.2497  0.2270  0.2365
  223MOL0    Cl30015   9.355   7.539   5.966 -0.0201 -0.0350 -0.1908
  223MOL0     C30016  10.355   8.132   6.289  0.6539 -0.1577  0.4056
  223MOL0     C30017  10.475   8.159   6.359  0.6473 -0.4949  0.5822
  223MOL0     O30018  10.875   8.019   6.284  0.6523  0.1226 -0.1071
  223MOL0     C30019  10.922   8.336   6.449  0.8248  0.3061  0.7609
  223MOL0     C30020  11.018   8.430   6.487  1.1690  0.4961  0.5270
  223MOL0     N30021  11.651   8.180   6.229  0.0741 -0.1178  0.2341
  223MOL0     N30022  11.749   8.107   6.261 -0.4047  0.2927 -0.0866
  223MOL0     C30023  11.675   8.048   5.840 -0.4619 -0.0378  0.2602
  223MOL0     C30024  11.564   8.129   5.804 -0.0768  0.7825 -0.3480
  223MOL0     C30025  11.181   8.274   5.576  0.3086  0.3126 -0.3430
  223MOL0     C30026  11.126   8.321   5.454 -0.3521  0.3422  0.2406
  223MOL0     C30027  10.996   8.374   5.448  0.1845 -0.0494  0.1386
  223MOL0     C30028  10.926   8.402   5.574 -0.4318 -0.5244  0.3069
  223MOL0     O30029  10.805   8.467   5.557  0.3397 -0.4440  0.7695
  223MOL0     C30030  10.716   8.496   5.664 -0.1574  0.4493 -0.2753
  223MOL0     C30031  10.636   8.366   5.706 -0.1470 -0.3647 -0.8092
  223MOL0     C30032  10.569   8.300   5.587 -0.1591  0.7061  0.3390
  223MOL0     C30033  10.450   8.211   5.644  0.0232 -0.1069  0.2592
  223MOL0     C30034  10.362   8.155   5.531 -0.0319  0.0925 -0.2188
  223MOL0     C30035  10.288   8.107   5.442 -0.1552 -0.2811 -1.4306
  223MOL0     C30036  10.991   8.376   5.696  0.5927  0.7374 -0.2981
  223MOL0     C30037  11.114   8.312   5.699  0.2160 -0.2753 -0.3398
  223MOL0     H30038  11.461   7.956   5.534  1.2790 -1.1634 -0.1567
  223MOL0     H30039  11.672   7.833   5.583  0.7561 -0.7406  2.1852
  223MOL0     H30040  11.865   7.775   5.618  0.8689 -4.1771  2.6560
  223MOL0     H30041  11.958   7.923   5.657  0.7773 -0.9897 -0.3311
  223MOL0     H30042  11.972   7.657   5.773  0.8691  0.0109 -1.4119
  223MOL0     H30043  12.102   7.731   5.700  0.0857  2.4806 -1.1055
  223MOL0     H30044  11.977   7.845   5.941 -2.7667 -1.3861 -2.9227
  223MOL0     H30045  12.122   7.738   5.942 -0.3675  1.2997  0.0775
  223MOL0     H30046  12.211   7.940   5.776 -2.3759 -0.1636 -1.3891
  223MOL0     H30047  12.085   8.023   5.860 -1.8380 -1.4694  3.1283
  223MOL0     H30048  12.329   7.893   5.995  0.0686 -0.1309  1.7524
  223MOL0     H30049  12.309   8.067   5.966  2.2669 -1.0541 -0.9139
  223MOL0     H30050  12.138   7.890   6.146  2.9099 -0.6039  2.4902
  223MOL0     H30051  12.240   8.013   6.204  2.4594 -2.8099 -0.6356
  223MOL0     H30052  12.107   8.192   6.086  1.6494 -1.4901 -1.1900
  223MOL0     H30053  11.971   8.074   6.051 -2.4079  2.6247  1.8400
  223MOL0     H30054  12.061   8.176   6.317  1.8789 -0.2073 -1.4485
  223MOL0     H30055  11.975   8.024   6.300  0.0173 -0.6697 -0.3093
  223MOL0     H30056  11.876   8.385   6.134 -0.2639 -0.2735 -0.1758
  223MOL0     H30057  11.640   8.495   6.104 -2.8238 -1.2249 -3.0720
  223MOL0     H30058  11.506   8.393   6.118 -2.5449 -0.7995  3.6305
  223MOL0     H30059  11.613   8.582   6.313 -1.9377  0.4525  4.4512
  223MOL0     H30060  11.619   8.441   6.388  2.4537  5.0918  0.3313
  223MOL0     H30061  11.363   8.428   6.268  1.4653  0.1005 -1.8344
  223MOL0     H30062  11.388   8.603   6.276  0.3528 -1.5549 -2.4944
  223MOL0     H30063  11.419   8.575   6.532  0.4805 -1.4487  0.9749
  223MOL0     H30064  11.408   8.404   6.512  2.2909 -0.1175 -0.3004
  223MOL0     H30065  11.293   8.246   6.441 -0.2894 -2.5061  0.8279
  223MOL0     H30066  11.235   8.028   6.487  1.0289 -1.2397 -1.3731
  223MOL0     H30067  11.062   7.972   6.464  0.5463  0.0029  1.4846
  223MOL0     H30068  11.169   7.996   6.328  2.4584 -0.2717  0.6651
  223MOL0     H30069  10.683   8.017   6.132 -0.2149  1.1758  0.1463
  223MOL0     H30070  10.458   7.970   6.014 -2.2870  1.4194  0.4072
  223MOL0     H30071  10.269   8.062   5.915  0.3872  0.2257  0.7745
  223MOL0     H30072  10.287   7.899   5.969  2.0402  1.2570 -0.4320
  223MOL0     H30073  10.028   8.053   5.929  0.0084  0.3547  0.7455
  223MOL0     H30074  10.062   7.892   5.851 -2.6680 -0.1572  0.2058
  223MOL0     H30075   9.964   7.969   6.120  0.5928  1.6229 -1.5409
  223MOL0     H30076  10.054   7.809   6.090  2.0669  0.4305 -3.8081
  223MOL0     H30077   9.798   7.889   5.930 -1.3770 -2.2649 -1.5727
  223MOL0     H30078   9.876   7.741   5.916 -1.3172  1.0405 -1.8348
  223MOL0     H30079   9.760   7.868   6.146 -2.2510  1.1407 -2.1371
  223MOL0     H30080   9.828   7.693   6.152  0.7654  0.3699 -1.3080
  223MOL0     H30081   9.552   7.734   6.117  1.2676 -0.0596  1.9172
  223MOL0     H30082   9.603   7.801   5.962  2.5095 -0.1908 -1.5929
  223MOL0     H30083   9.658   7.509   6.064  1.5675 -1.7836 -1.8074
  223MOL0     H30084   9.730   7.577   5.921 -0.7313  2.0947 -2.4203
  223MOL0     H30085   9.531   7.434   5.863 -0.2918  0.4044 -0.5540
  223MOL0     H30086   9.521   7.596   5.794 -0.0305 -0.2452 -0.0478
  223MOL0     H30087  10.261   8.170   6.330  0.6570  2.4546 -1.7360
  223MOL0     H30088  10.457   8.220   6.447 -0.3189  0.3076 -0.1567
  223MOL0     H30089  10.816   8.355   6.456  0.9714  1.1926  0.6552
  223MOL0     H30090  10.977   8.523   6.527  1.1248 -0.8322  3.8723
  223MOL0     H30091  11.735   8.083   5.923 -0.5955 -0.1750  0.4157
  223MOL0     H30092  11.538   8.207   5.874  4.8050  0.5607  2.1856
  223MOL0     H30093  11.192   8.314   5.368 -0.2362 -3.7278  0.4632
  223MOL0     H30094  10.947   8.409   5.358 -2.4911  1.3532  1.9952
  223MOL0     H30095  10.766   8.549   5.745  0.0862  0.0173 -0.1375
  223MOL0     H30096  10.642   8.564   5.622 -0.0359  1.9441  1.8132
  223MOL0     H30097  10.554   8.395   5.772 -1.4334 -1.5763 -1.8176
  223MOL0     H30098  10.706   8.293   5.748 -0.2553  0.4211  0.8055
  223MOL0     H30099  10.639   8.244   5.525 -1.1409  1.6619 -1.7164
  223MOL0     H30100  10.533   8.377   5.518 -1.7337 -0.8583 -0.6876
  223MOL0     H30101  10.390   8.284   5.697 -0.3885  0.9878 -1.6081
  223MOL0     H30102  10.494   8.133   5.707  0.0479  0.9653  1.5892
  223MOL0     H30103  10.214   8.070   5.374 -0.7828 -1.9882  0.0907
  223MOL0     H30104  10.944   8.390   5.793  2.4604 -0.2913  0.8210
  223MOL0     H30105  11.165   8.298   5.794  0.2081 -0.1855 -0.3223
  224MOL0     O30106   9.570   4.505   3.054 -0.0860  0.7914 -0.3087
  224MOL0     C30107   9.644   4.499   3.145  0.6016  0.3458  0.0080
  224MOL0     O30108   9.611   4.449   3.267  0.0339  0.3453 -0.1805
  224MOL0     C30109   9.479   4.420   3.294  0.1121  0.2926  0.4249
  224MOL0     C30110   9.382   4.520   3.312 -0.9080 -0.1341 -0.5113
  224MOL0     C30111   9.256   4.497   3.370 -0.5974  0.1282 -0.0610
  224MOL0     C30112   9.227   4.367   3.405  0.8499  0.2471  0.8947
  224MOL0     O30113   9.106   4.342   3.453 -0.7094 -0.1092  0.4092
  224MOL0     C30114   9.091   4.249   3.561  0.4571 -0.0907  0.1682
  224MOL0     C30115   8.943   4.251   3.603  0.0215 -0.6686 -0.6443
  224MOL0     C30116   8.887   4.377   3.661 -0.5461  0.0963  0.7344
  224MOL0     C30117   8.741   4.371   3.643  0.6645  0.4624  0.7064
  224MOL0     C30118   8.680   4.505   3.696  0.4311 -0.4353 -0.3085
  224MOL0     C30119   8.529   4.490   3.721  0.4559 -0.9883 -0.3927
  224MOL0     C30120   8.458   4.606   3.811 -1.1105  0.7054 -0.5699
  224MOL0     C30121   8.496   4.607   3.956 -0.1828 -0.9950  0.2856
  224MOL0     N30122   8.466   4.486   4.033  0.4776  0.4461  1.2130
  224MOL0     C30123   8.341   4.454   4.084  0.1742  0.7577 -0.1676
  224MOL0     C30124   8.354   4.337   4.148  0.4193  0.3614 -0.6497
  224MOL0     C30125   8.241   4.265   4.224 -0.7421  0.0989 -0.8501
  224MOL0     C30126   8.260   4.297   4.370  0.7448 -0.1708 -0.1272
  224MOL0     C30127   8.143   4.242   4.457 -0.3184 -0.2845  0.2729
  224MOL0     C30128   8.158   4.271   4.605  0.5862 -0.4180 -1.1326
  224MOL0     O30129   8.188   4.409   4.634 -0.1932  0.3980  0.1483
  224MOL0     C30130   8.097   4.503   4.650 -0.5020 -0.9112  0.4958
  224MOL0     C30131   7.966   4.486   4.620  0.2939 -0.8393  0.4610
  224MOL0     C30132   7.872   4.590   4.619 -0.1316 -1.5357 -0.5434
  224MOL0     C30133   7.733   4.552   4.577 -0.2505 -0.3049 -0.2302
  224MOL0     C30134   7.914   4.723   4.652 -0.6043  0.9720 -0.1263
  224MOL0     C30135   7.814   4.838   4.668 -0.4057  1.0143 -0.1303
  224MOL0     O30136   7.805   4.891   4.790 -0.2541  0.6559  0.1031
  224MOL0     C30137   7.702   4.974   4.827 -0.0972 -0.4298  1.3647
  224MOL0     C30138   7.569   4.943   4.837  0.5157  0.3206 -0.0285
  224MOL0     C30139   7.473   5.034   4.893  0.3632  0.9011 -0.5002
  224MOL0     C30140   7.517   5.154   4.934 -0.0636 -0.2452 -0.2915
  224MOL0     O30141   7.439   5.253   4.984  0.0859  0.4565  0.5420
  224MOL0     C30142   7.339   5.310   4.897  1.2826  0.8475 -0.0269
  224MOL0     C30143   7.221   5.377   4.965 -0.3127  0.1456 -0.3955
  224MOL0     C30144   7.268   5.511   5.026 -0.1014 -0.1121  0.2671
  224MOL0     C30145   7.161   5.574   5.118 -0.0823 -0.4690  0.6687
  224MOL0     C30146   7.205   5.604   5.260 -0.1230 -0.4435  0.5912
  224MOL0     C30147   7.100   5.692   5.332  0.5726 -0.5880 -0.4214
  224MOL0     C30148   7.129   5.722   5.483 -0.5467  0.3814  0.3798
  224MOL0     C30149   7.019   5.794   5.558  0.0919  0.5449 -1.0414
  224MOL0    Cl30150   6.936   5.677   5.656  0.0274 -0.2050 -0.0896
  224MOL0     C30151   7.647   5.184   4.924  0.1932 -0.5330  0.5095
  224MOL0     C30152   7.744   5.102   4.859  1.3621 -0.1299  0.3049
  224MOL0     O30153   7.749   4.871   4.573 -0.0795  0.2503 -0.1888
  224MOL0     C30154   8.045   4.738   4.686 -0.3251 -0.1430  0.9409
  224MOL0     C30155   8.135   4.630   4.696  0.3064 -0.2629 -0.5084
  224MOL0     N30156   8.478   4.293   4.122 -0.5741  0.3283 -0.2539
  224MOL0     N30157   8.543   4.380   4.053 -0.9710  0.2631  0.0121
  224MOL0     C30158   9.313   4.265   3.364  0.2217 -0.3697 -0.1641
  224MOL0     C30159   9.435   4.286   3.309  0.7899 -0.5626  0.4875
  224MOL0     C30160   9.770   4.568   3.132 -0.2659  0.6930 -1.0124
  224MOL0     C30161   9.844   4.603   3.251 -0.4876  0.4293 -0.7887
  224MOL0     C30162   9.969   4.670   3.240 -0.0124  0.2412 -0.1736
  224MOL0     C30163  10.020   4.692   3.106  0.3692  0.5659  0.6815
  224MOL0     O30164  10.132   4.754   3.078  0.7124 -0.3312 -0.4372
  224MOL0     C30165  10.138   4.892   3.123 -0.1469  0.2050 -0.0765
  224MOL0     C30166  10.281   4.957   3.089  1.2460  0.0813  0.0542
  224MOL0     C30167  10.285   5.102   3.115 -1.0727  0.0389  0.1995
  224MOL0     C30168  10.420   5.156   3.064 -1.1524 -0.8242  0.6958
  224MOL0     C30169  10.419   5.301   3.063  0.3872 -0.8995 -0.3588
  224MOL0     C30170  10.450   5.416   3.052  0.0660  0.3619 -0.0229
  224MOL0     C30171   9.943   4.662   2.990 -0.6019 -0.6218 -0.0286
  224MOL0     C30172   9.832   4.591   3.006  1.0929  0.3341 -0.2032
  224MOL0     H30173   9.418   4.619   3.288 -2.5189  0.5092 -0.4107
  224MOL0     H30174   9.178   4.572   3.374 -0.3518  0.3842 -0.1150
  224MOL0     H30175   9.122   4.149   3.531  0.3232 -0.3207  0.7813
  224MOL0     H30176   9.151   4.269   3.650 -0.0061  2.0961  0.0692
  224MOL0     H30177   8.886   4.227   3.513 -0.6050 -0.3671 -0.3370
  224MOL0     H30178   8.933   4.172   3.678 -0.7369  2.5941  3.0011
  224MOL0     H30179   8.908   4.376   3.768  5.0854 -1.5982 -0.0884
  224MOL0     H30180   8.941   4.466   3.627  0.3400  1.5391  5.2775
  224MOL0     H30181   8.706   4.353   3.541 -4.5138  0.1031  2.2404
  224MOL0     H30182   8.692   4.284   3.688 -1.7008  0.4033 -1.7593
  224MOL0     H30183   8.731   4.522   3.791 -0.7157  0.1651  0.2047
  224MOL0     H30184   8.701   4.588   3.628  1.9446  0.5744  1.3016
  224MOL0     H30185   8.475   4.492   3.626 -1.7929 -3.3973  0.6996
  224MOL0     H30186   8.516   4.396   3.775 -1.6426  0.4859  1.8960
  224MOL0     H30187   8.474   4.703   3.764  0.2815  1.5157  1.4371
  224MOL0     H30188   8.350   4.588   3.802 -0.6406 -1.3617 -4.0365
  224MOL0     H30189   8.439   4.692   3.997 -2.8513 -1.9286 -1.1976
  224MOL0     H30190   8.605   4.615   3.964 -0.3359  0.8115  1.2006
  224MOL0     H30191   8.249   4.508   4.066 -0.3814  0.2966  1.2231
  224MOL0     H30192   8.145   4.307   4.193 -1.5463 -0.7123  0.4643
  224MOL0     H30193   8.239   4.157   4.207  0.2090  0.0181 -0.4847
  224MOL0     H30194   8.268   4.405   4.389  1.9080 -0.5134  1.6046
  224MOL0     H30195   8.351   4.256   4.414  0.3536  1.2465  2.1803
  224MOL0     H30196   8.135   4.133   4.458 -0.6436 -0.2786  2.3097
  224MOL0     H30197   8.053   4.291   4.419  0.1291  0.3799  0.0335
  224MOL0     H30198   8.248   4.220   4.639  2.0444  2.1538 -0.8916
  224MOL0     H30199   8.066   4.231   4.650  0.4841  0.6603 -0.3530
  224MOL0     H30200   7.928   4.385   4.624 -1.0850 -0.3236  1.3937
  224MOL0     H30201   7.746   4.482   4.495  2.6972 -3.1445  2.3519
  224MOL0     H30202   7.680   4.505   4.660 -0.4658  0.1896 -0.0841
  224MOL0     H30203   7.691   4.635   4.520  3.0290  1.1871 -0.7581
  224MOL0     H30204   7.535   4.846   4.803 -1.9993  0.7071  1.1856
  224MOL0     H30205   7.368   5.007   4.897  0.4085 -0.0180 -3.3059
  224MOL0     H30206   7.387   5.380   4.828 -0.0357  1.0484 -0.7675
  224MOL0     H30207   7.289   5.227   4.845 -1.2267  2.4712 -0.3792
  224MOL0     H30208   7.137   5.397   4.898 -0.9611  2.6023  1.0268
  224MOL0     H30209   7.182   5.317   5.048  3.0765  0.7612  1.8294
  224MOL0     H30210   7.280   5.582   4.943 -1.2995  0.3291  0.4497
  224MOL0     H30211   7.359   5.483   5.080  0.1063 -0.1065 -0.0761
  224MOL0     H30212   7.132   5.665   5.064 -2.6809 -1.8905 -0.5174
  224MOL0     H30213   7.074   5.508   5.114 -0.2427 -0.2168 -0.2495
  224MOL0     H30214   7.303   5.652   5.252 -1.2653  1.6875 -2.6688
  224MOL0     H30215   7.220   5.516   5.323  3.3936  0.7775  1.6638
  224MOL0     H30216   7.091   5.784   5.274 -0.5654 -0.3796  0.0588
  224MOL0     H30217   7.003   5.642   5.338  0.1989  0.1555 -0.2019
  224MOL0     H30218   7.220   5.782   5.489  0.0676 -0.4301 -0.4795
  224MOL0     H30219   7.165   5.626   5.524 -0.6809 -1.5230 -3.5256
  224MOL0     H30220   6.942   5.833   5.491 -1.1112 -1.9602 -1.2210
  224MOL0     H30221   7.061   5.871   5.623  1.0587 -0.7958 -0.0327
  224MOL0     H30222   7.672   5.287   4.946 -1.0022 -0.1220 -0.0084
  224MOL0     H30223   7.848   5.132   4.849  1.2847 -0.2308 -1.0859
  224MOL0     H30224   8.077   4.839   4.711 -0.1494 -0.2971  1.3468
  224MOL0     H30225   8.235   4.638   4.737 -0.5256 -1.3747  1.9862
  224MOL0     H30226   9.272   4.165   3.349  2.4475 -1.3045 -0.4486
  224MOL0     H30227   9.490   4.209   3.258  0.4767  1.5493 -3.4704
  224MOL0     H30228   9.798   4.582   3.347 -0.1480 -0.7774 -0.8695
  224MOL0     H30229  10.026   4.705   3.325  1.7077 -1.0216 -0.7446
  224MOL0     H30230  10.073   4.944   3.052  0.1825  1.9233  0.8284
  224MOL0     H30231  10.108   4.901   3.228  0.3149 -1.5628  0.2249
  224MOL0     H30232  10.316   4.938   2.987  0.1083  1.1640 -0.5693
  224MOL0     H30233  10.356   4.914   3.156 -0.2721 -1.9394  0.5514
  224MOL0     H30234  10.284   5.116   3.224 -0.3865 -0.1651  0.2386
  224MOL0     H30235  10.196   5.145   3.069 -0.8659 -0.8051 -1.0205
  224MOL0     H30236  10.428   5.128   2.958 -0.9312  1.7467 -0.0232
  224MOL0     H30237  10.506   5.112   3.115  1.3943 -2.6754 -4.4756
  224MOL0     H30238  10.474   5.518   3.031  1.9603  0.3709  1.8448
  224MOL0     H30239   9.987   4.687   2.894 -1.1409 -0.0402 -0.1289
  224MOL0     H30240   9.772   4.565   2.920 -0.4800  0.6039  0.7668
  225MOL0     O30241   3.725   3.660   0.655 -0.5167  0.2642 -0.4768
  225MOL0     C30242   3.730   3.664   0.534 -0.8725  0.6609  0.9191
  225MOL0     O30243   3.843   3.702   0.464  0.0811  0.2995  0.5085
  225MOL0     C30244   3.958   3.731   0.529  0.3936 -1.1590 -0.1963
  225MOL0     C30245   4.078   3.687   0.473  0.2210 -0.0045  0.5308
  225MOL0     C30246   4.199   3.710   0.541 -0.1171 -0.5302 -0.7536
  225MOL0     C30247   4.206   3.801   0.652  0.0271  0.9923 -0.3843
  225MOL0     O30248   4.321   3.820   0.707 -0.5356  0.4738 -0.3784
  225MOL0     C30249   4.315   3.862   0.846 -1.0237  0.3422 -0.5377
  225MOL0     C30250   4.446   3.839   0.916 -0.5343 -0.1264 -0.7038
  225MOL0     C30251   4.554   3.925   0.846 -0.3323  0.2683  0.0648
  225MOL0     C30252   4.678   3.908   0.921  0.2842  0.5195 -0.1684
  225MOL0     C30253   4.801   3.954   0.837  0.8981 -0.0194  0.9589
  225MOL0     C30254   4.846   3.843   0.734  0.4265 -0.1800  0.1268
  225MOL0     C30255   4.974   3.897   0.667  0.5245  1.6503 -0.3604
  225MOL0     C30256   4.969   4.028   0.581  0.2068 -0.2186 -1.8571
  225MOL0     N30257   5.095   4.043   0.507  0.3737 -0.2168  0.7810
  225MOL0     C30258   5.089   4.012   0.368  0.0714 -0.4041  0.0701
  225MOL0     C30259   5.219   3.989   0.334 -0.5393  0.1418  1.0373
  225MOL0     C30260   5.275   3.952   0.197 -0.7016  0.3014  0.3803
  225MOL0     C30261   5.176   3.893   0.103  0.7841 -0.1989 -0.2322
  225MOL0     C30262   5.140   3.753   0.145  1.0631  0.7948  0.5870
  225MOL0     C30263   5.015   3.711   0.081  0.5389  0.3405  0.6934
  225MOL0     O30264   4.986   3.577   0.125 -0.5964 -0.1710 -0.0103
  225MOL0     C30265   4.858   3.529   0.093  0.8510 -0.0617 -0.7401
  225MOL0     C30266   4.821   3.416   0.174 -0.1568  0.2656 -0.0122
  225MOL0     C30267   4.709   3.338   0.140  0.0511 -0.1815 -0.4989
  225MOL0     C30268   4.688   3.228   0.247 -0.8587 -0.9406 -0.0829
  225MOL0     C30269   4.634   3.376   0.026  0.0401 -0.3227 -0.0344
  225MOL0     C30270   4.523   3.294  -0.027  0.5883 -0.2902 -0.4111
  225MOL0     O30271   4.466   3.332  -0.145 -0.3245 -0.5307 -0.0235
  225MOL0     C30272   4.387   3.239  -0.213  0.9973  0.4418  0.5335
  225MOL0     C30273   4.249   3.242  -0.187 -0.9104 -0.2709  0.4565
  225MOL0     C30274   4.167   3.155  -0.255  0.9429 -0.2179 -0.0586
  225MOL0     C30275   4.209   3.065  -0.342  0.4611 -0.5752 -0.1033
  225MOL0     O30276   4.122   2.974  -0.398  0.6958  0.0417  0.3358
  225MOL0     C30277   4.153   2.840  -0.376  0.1166  0.6161  0.2568
  225MOL0     C30278   4.038   2.759  -0.425 -0.2804 -0.3987 -0.8924
  225MOL0     C30279   4.026   2.632  -0.338 -0.7617 -0.6538 -0.0884
  225MOL0     C30280   3.891   2.557  -0.368 -0.7657 -0.8412 -0.3891
  225MOL0     C30281   3.866   2.465  -0.249  0.3970 -0.2663  0.1124
  225MOL0     C30282   3.827   2.550  -0.122 -0.0466 -0.8335 -0.1930
  225MOL0     C30283   3.757   2.452  -0.022 -0.2420  1.3588  0.0137
  225MOL0     C30284   3.701   2.537   0.091  0.7292 -0.6075  0.1224
  225MOL0    Cl30285   3.830   2.597   0.197  0.3964 -0.4030 -0.1268
  225MOL0     C30286   4.348   3.064  -0.366  0.2282  1.3086 -0.4071
  225MOL0     C30287   4.441   3.145  -0.298  0.0391 -1.1116  0.3607
  225MOL0     O30288   4.502   3.186   0.029 -0.0066  0.0505  0.4321
  225MOL0     C30289   4.671   3.489  -0.053  0.6546  0.1076  0.4381
  225MOL0     C30290   4.782   3.563  -0.016  0.5605 -0.8112  0.2059
  225MOL0     N30291   5.290   4.017   0.452 -0.0197 -0.1765  0.5480
  225MOL0     N30292   5.220   4.037   0.554 -0.0135 -0.0523  0.2679
  225MOL0     C30293   4.084   3.848   0.698 -0.1027 -0.4701 -0.4315
  225MOL0     C30294   3.961   3.817   0.640 -0.4218 -0.5055 -0.6908
  225MOL0     C30295   3.608   3.615   0.466  0.1391  0.0903 -0.3932
  225MOL0     C30296   3.478   3.607   0.536  0.1026 -0.3455 -0.1866
  225MOL0     C30297   3.364   3.577   0.464 -0.7509 -0.5172  0.1040
  225MOL0     C30298   3.373   3.541   0.334 -0.6869 -0.2487  0.8750
  225MOL0     O30299   3.256   3.502   0.271  0.0209 -0.6578  0.0442
  225MOL0     C30300   3.266   3.446   0.140 -0.4476 -0.6184 -0.5999
  225MOL0     C30301   3.131   3.383   0.110 -0.5105 -0.3974  0.2678
  225MOL0     C30302   3.135   3.231   0.147 -0.1200  0.0826  0.4561
  225MOL0     C30303   3.189   3.197   0.286 -0.1060  0.6082 -1.1837
  225MOL0     C30304   3.098   3.253   0.396 -0.0997  0.3397 -0.9485
  225MOL0     C30305   3.015   3.279   0.477 -0.7076  0.4194  0.8857
  225MOL0     C30306   3.496   3.552   0.263 -0.5767 -0.3361  1.4429
  225MOL0     C30307   3.610   3.591   0.331 -0.6798  0.3771 -0.0200
  225MOL0     H30308   4.071   3.619   0.389 -2.0036  1.0338 -0.2041
  225MOL0     H30309   4.293   3.667   0.507  1.5147  2.0337  0.2273
  225MOL0     H30310   4.278   3.965   0.842  1.7001  1.4945  1.3017
  225MOL0     H30311   4.244   3.792   0.891 -1.2793  0.7821 -0.2468
  225MOL0     H30312   4.443   3.851   1.024 -1.1887 -2.0786 -0.4769
  225MOL0     H30313   4.468   3.734   0.896 -1.9593 -0.4747 -0.5964
  225MOL0     H30314   4.562   3.875   0.749 -0.8744 -1.8922  1.0665
  225MOL0     H30315   4.543   4.032   0.829  2.4077  0.8820  1.5423
  225MOL0     H30316   4.675   3.972   1.009 -0.0388  0.9514 -0.4951
  225MOL0     H30317   4.690   3.804   0.953 -1.2246  0.2810 -0.3466
  225MOL0     H30318   4.785   4.047   0.782  0.6907 -1.7243 -2.1407
  225MOL0     H30319   4.887   3.963   0.904  0.1249  3.0014  1.6789
  225MOL0     H30320   4.868   3.756   0.797  1.6739 -0.6727 -0.9398
  225MOL0     H30321   4.763   3.807   0.673 -4.3622 -1.7090  6.4991
  225MOL0     H30322   5.062   3.890   0.733  1.0760 -1.1166 -1.2607
  225MOL0     H30323   5.003   3.826   0.589  1.5564  0.2468  1.2195
  225MOL0     H30324   4.970   4.106   0.657 -0.7538  0.7534 -2.8007
  225MOL0     H30325   4.872   4.034   0.530  0.3135 -0.1905 -2.0587
  225MOL0     H30326   4.999   4.014   0.308  0.4255 -1.1054 -0.5014
  225MOL0     H30327   5.304   4.044   0.145 -0.2498 -0.0209  0.0531
  225MOL0     H30328   5.369   3.896   0.199 -0.3387  0.8847  1.9926
  225MOL0     H30329   5.226   3.888   0.006  0.0998  1.3670 -0.7014
  225MOL0     H30330   5.088   3.958   0.095  2.0827  1.4113 -2.3604
  225MOL0     H30331   5.125   3.742   0.252 -2.2532  0.4666  0.1876
  225MOL0     H30332   5.215   3.691   0.095 -0.0288  1.8705 -2.6926
  225MOL0     H30333   5.016   3.716  -0.029  0.1636  1.7024  0.7304
  225MOL0     H30334   4.943   3.787   0.114 -2.0997 -0.8529 -1.8401
  225MOL0     H30335   4.888   3.388   0.255  0.2179 -1.8122 -0.9610
  225MOL0     H30336   4.733   3.250   0.344  1.7432 -0.8237 -1.2134
  225MOL0     H30337   4.581   3.219   0.269 -0.4224  0.4900  3.1945
  225MOL0     H30338   4.723   3.135   0.201 -0.9506 -0.6297 -0.7903
  225MOL0     H30339   4.220   3.329  -0.130  4.0091  1.7158  0.3842
  225MOL0     H30340   4.060   3.152  -0.236  0.6662 -4.0844 -1.2638
  225MOL0     H30341   4.241   2.804  -0.431  0.0963  0.0797  0.5643
  225MOL0     H30342   4.167   2.824  -0.269 -6.4342  0.4100  1.4506
  225MOL0     H30343   3.946   2.814  -0.405 -0.9471 -1.9136  0.4292
  225MOL0     H30344   4.049   2.733  -0.531  0.1426 -0.6620 -0.7857
  225MOL0     H30345   4.027   2.670  -0.235 -2.6136  1.2156 -0.6756
  225MOL0     H30346   4.114   2.569  -0.352  0.1006  0.3993  0.4091
  225MOL0     H30347   3.807   2.626  -0.374 -0.4971 -0.5299 -0.5970
  225MOL0     H30348   3.905   2.492  -0.455 -0.9494 -0.4396 -0.7220
  225MOL0     H30349   3.955   2.405  -0.231  0.1144 -0.5856  0.4787
  225MOL0     H30350   3.794   2.391  -0.286 -1.1987  1.0606  0.4321
  225MOL0     H30351   3.918   2.590  -0.077  0.7682 -0.8237 -1.8017
  225MOL0     H30352   3.764   2.635  -0.153  0.1321 -0.6622 -0.0891
  225MOL0     H30353   3.831   2.378   0.007 -2.2178 -0.8965 -0.4376
  225MOL0     H30354   3.678   2.400  -0.075  0.6683 -0.2835  0.2209
  225MOL0     H30355   3.624   2.488   0.151 -0.4239 -0.0218 -0.8299
  225MOL0     H30356   3.648   2.626   0.054 -0.2128  0.2287  3.1865
  225MOL0     H30357   4.392   2.986  -0.427  0.8631  1.2917  0.0585
  225MOL0     H30358   4.548   3.137  -0.317 -0.0634 -1.8612  0.0763
  225MOL0     H30359   4.618   3.513  -0.145  0.7800 -1.3814 -0.0438
  225MOL0     H30360   4.810   3.642  -0.085  0.4706  0.6264  1.7454
  225MOL0     H30361   4.069   3.922   0.776 -0.8457 -0.3411 -0.6903
  225MOL0     H30362   3.879   3.864   0.694 -0.9029  0.2193 -2.0146
  225MOL0     H30363   3.475   3.636   0.641 -2.9348  1.4970 -0.6573
  225MOL0     H30364   3.276   3.578   0.527  0.6764  0.8026  2.2216
  225MOL0     H30365   3.275   3.536   0.078 -0.6540  1.3183  1.9976
  225MOL0     H30366   3.354   3.383   0.127  0.2864  0.7586 -3.0407
  225MOL0     H30367   3.109   3.401   0.005  0.0067 -1.6405 -0.0770
  225MOL0     H30368   3.056   3.429   0.174  1.5260  0.3655  2.2509
  225MOL0     H30369   3.199   3.183   0.072 -1.0279 -1.1162  0.4133
  225MOL0     H30370   3.033   3.194   0.132 -0.6032  1.4578  0.1478
  225MOL0     H30371   3.293   3.229   0.295  0.3784 -0.6952 -2.0462
  225MOL0     H30372   3.201   3.091   0.306 -0.8802  1.1215  3.0539
  225MOL0     H30373   2.953   3.306   0.559  1.4718  1.5066  2.2621
  225MOL0     H30374   3.510   3.520   0.160 -2.2755 -3.1059  1.9720
  225MOL0     H30375   3.704   3.598   0.278  0.4239 -1.3053  1.5779
  226MOL0     O30376   2.589   2.656   8.697  0.8121 -0.4785 -0.5654
  226MOL0     C30377   2.623   2.536   8.698  0.5325 -0.1161  0.1242
  226MOL0     O30378   2.541   2.431   8.730 -0.3829  0.7354  0.2643
  226MOL0     C30379   2.414   2.453   8.769 -0.2883 -0.4954 -0.1462
  226MOL0     C30380   2.316   2.482   8.675 -0.3214  0.0230 -0.0748
  226MOL0     C30381   2.181   2.500   8.709 -0.4170 -0.7370 -0.0187
  226MOL0     C30382   2.135   2.503   8.843  0.3819  0.0544  0.0560
  226MOL0     O30383   1.999   2.528   8.880  0.3098 -1.1149  0.6269
  226MOL0     C30384   1.951   2.449   8.987 -0.0509 -0.2145 -0.8082
  226MOL0     C30385   1.797   2.440   8.984 -0.0085  0.0543  0.0746
  226MOL0     C30386   1.761   2.367   9.111 -0.3044 -0.0913  0.0880
  226MOL0     C30387   1.612   2.359   9.128  0.9076 -0.2107  0.1714
  226MOL0     C30388   1.568   2.280   9.250 -0.2359 -0.3908  0.3964
  226MOL0     C30389   1.409   2.271   9.270  1.3203  0.6374 -1.3507
  226MOL0     C30390   1.373   2.193   9.397  0.6733 -0.1191 -0.1423
  226MOL0     C30391   1.218   2.199   9.440 -0.5910 -1.1932 -1.3731
  226MOL0     N30392   1.128   2.116   9.356 -0.7767 -0.3003 -0.2318
  226MOL0     C30393   1.089   2.145   9.229 -0.0451  0.3995  0.2449
  226MOL0     C30394   1.014   2.042   9.187  0.2620  0.2945 -0.6312
  226MOL0     C30395   0.944   2.027   9.063  0.2955  0.8349  0.5971
  226MOL0     C30396   0.828   2.120   9.053  0.3950  0.1296  0.3423
  226MOL0     C30397   0.772   2.115   8.910 -0.1865 -0.1955 -0.2860
  226MOL0     C30398   0.627   2.172   8.912 -0.3841 -0.1307 -0.4692
  226MOL0     O30399   0.620   2.305   8.967  0.0601 -0.0321  0.1599
  226MOL0     C30400   0.513   2.380   8.932 -0.3941 -0.4423  0.1612
  226MOL0     C30401   0.501   2.505   8.991 -0.2498  0.1779 -0.0028
  226MOL0     C30402   0.389   2.592   8.976 -0.1739  0.1675 -0.3828
  226MOL0     C30403   0.404   2.721   9.060 -0.0925  0.3966  0.1444
  226MOL0     C30404   0.278   2.556   8.899 -1.1571  0.1880 -0.1344
  226MOL0     C30405   0.159   2.626   8.886  0.2570  0.2336 -0.3876
  226MOL0     O30406   0.151   2.754   8.939  1.1308  0.0643 -0.8284
  226MOL0     C30407   0.048   2.834   8.911 -1.1760 -0.0098  0.7158
  226MOL0     C30408   0.082   2.943   8.822 -0.0670  0.7828 -0.7437
  226MOL0     C30409  -0.021   3.031   8.782  0.5102 -0.0822 -0.7754
  226MOL0     C30410  -0.151   3.012   8.832  0.2181  0.3983 -1.0307
  226MOL0     O30411  -0.249   3.110   8.797 -0.6638 -0.0046 -0.4226
  226MOL0     C30412  -0.333   3.159   8.897 -0.7821 -0.5552  0.4944
  226MOL0     C30413  -0.471   3.091   8.876  0.4987  0.3113 -0.0985
  226MOL0     C30414  -0.577   3.164   8.955  0.7377  0.2785 -0.2679
  226MOL0     C30415  -0.724   3.107   8.944  0.3879 -0.1155 -0.1844
  226MOL0     C30416  -0.830   3.192   9.016  0.1105  0.7632 -0.3573
  226MOL0     C30417  -0.967   3.124   8.989 -0.2319 -0.9505 -0.0492
  226MOL0     C30418  -1.089   3.190   9.067  0.1895 -0.0799 -0.4183
  226MOL0     C30419  -1.219   3.153   8.999 -0.1700  0.0639 -0.1973
  226MOL0    Cl30420  -1.351   3.197   9.086 -0.3762 -0.1588  0.0916
  226MOL0     C30421  -0.182   2.902   8.912 -0.9477 -0.9711  0.0664
  226MOL0     C30422  -0.081   2.808   8.947  0.4718 -0.8074 -0.3621
  226MOL0     O30423   0.074   2.573   8.815  0.3608 -0.0517 -0.3245
  226MOL0     C30424   0.287   2.429   8.834 -0.4177 -0.2174  0.2489
  226MOL0     C30425   0.398   2.346   8.853 -0.2016 -0.4089 -0.4977
  226MOL0     N30426   0.996   1.957   9.300  0.2792 -0.3218  0.1465
  226MOL0     N30427   1.074   1.996   9.393  0.7562  0.0255  0.2762
  226MOL0     C30428   2.238   2.482   8.937 -0.9265  0.1257  0.2756
  226MOL0     C30429   2.376   2.455   8.902 -0.3179 -0.0999  0.6092
  226MOL0     C30430   2.763   2.506   8.663 -0.5083  1.0355  0.8185
  226MOL0     C30431   2.851   2.605   8.626 -0.5029 -1.3947 -0.0497
  226MOL0     C30432   2.987   2.580   8.616 -0.9501 -0.0172 -0.7600
  226MOL0     C30433   3.039   2.451   8.633 -0.0449 -0.2124  0.1095
  226MOL0     O30434   3.174   2.424   8.638  0.6160 -0.0692  0.0502
  226MOL0     C30435   3.259   2.506   8.549 -0.2057 -0.1124 -0.0015
  226MOL0     C30436   3.400   2.467   8.537 -0.5565  0.6945  0.3552
  226MOL0     C30437   3.429   2.321   8.487  0.8216  0.8636 -0.7655
  226MOL0     C30438   3.572   2.281   8.504 -0.1044  0.7780  0.0474
  226MOL0     C30439   3.619   2.291   8.645 -0.2748  0.9497 -0.2129
  226MOL0     C30440   3.654   2.295   8.760  0.6895 -0.0217 -1.0321
  226MOL0     C30441   2.952   2.359   8.672  0.4214  0.8875  0.3613
  226MOL0     C30442   2.811   2.372   8.678  0.1519  0.3359 -0.5075
  226MOL0     H30443   2.350   2.468   8.574 -0.8135 -1.1319 -0.0880
  226MOL0     H30444   2.110   2.520   8.629 -1.9134 -1.6723  1.0041
  226MOL0     H30445   1.988   2.346   8.994 -0.4430 -0.5718 -3.1355
  226MOL0     H30446   1.976   2.494   9.083 -1.1560 -1.1755 -0.0333
  226MOL0     H30447   1.749   2.538   8.986 -0.0752  0.1212 -2.1297
  226MOL0     H30448   1.750   2.406   8.891 -1.8839  0.0911  0.9797
  226MOL0     H30449   1.800   2.265   9.109  2.0884  0.6980  1.6164
  226MOL0     H30450   1.806   2.419   9.196 -0.6931  0.1926  0.1232
  226MOL0     H30451   1.580   2.463   9.138  0.4223  0.0515 -3.0483
  226MOL0     H30452   1.559   2.315   9.043 -1.8133  0.4622  1.4009
  226MOL0     H30453   1.608   2.178   9.250 -0.6054 -0.7432 -3.7500
  226MOL0     H30454   1.605   2.329   9.340 -3.0110  0.6699  1.0650
  226MOL0     H30455   1.357   2.366   9.279  1.2096  0.4351  0.4551
  226MOL0     H30456   1.364   2.213   9.189 -1.0078 -0.0840  0.3606
  226MOL0     H30457   1.397   2.087   9.399 -1.5425 -0.6865  2.6611
  226MOL0     H30458   1.421   2.244   9.481 -0.9928  3.4795 -1.1323
  226MOL0     H30459   1.181   2.302   9.443 -1.4966 -1.4531  2.9947
  226MOL0     H30460   1.198   2.164   9.542  0.8315 -0.0418 -0.6426
  226MOL0     H30461   1.137   2.216   9.161  2.3403 -1.8097 -0.5569
  226MOL0     H30462   1.011   2.032   8.977 -3.2008 -1.7710 -2.6298
  226MOL0     H30463   0.913   1.922   9.069 -0.1768  0.7149 -2.4445
  226MOL0     H30464   0.864   2.220   9.078 -1.0196  0.8520 -0.4029
  226MOL0     H30465   0.750   2.101   9.127  0.2618 -2.4368 -0.3678
  226MOL0     H30466   0.770   2.017   8.862 -2.8352 -2.0758  3.1710
  226MOL0     H30467   0.826   2.183   8.844 -0.0104 -0.6449 -0.6079
  226MOL0     H30468   0.569   2.107   8.978  2.0439 -1.9935 -0.0228
  226MOL0     H30469   0.595   2.173   8.807 -0.1720 -0.3167 -0.5369
  226MOL0     H30470   0.588   2.534   9.049  0.0255 -1.4451  0.4463
  226MOL0     H30471   0.318   2.740   9.125  0.2122  2.2379  0.0503
  226MOL0     H30472   0.497   2.718   9.118 -0.0840 -2.9614  0.1847
  226MOL0     H30473   0.423   2.800   8.987  0.2384  0.1614 -0.0283
  226MOL0     H30474   0.182   2.945   8.781  0.3744 -1.2299  0.1048
  226MOL0     H30475   0.011   3.111   8.716  0.9336  3.1104  2.9107
  226MOL0     H30476  -0.290   3.162   8.998  0.0896 -0.4920  0.1204
  226MOL0     H30477  -0.352   3.264   8.873 -0.4524 -0.4408  0.7295
  226MOL0     H30478  -0.499   3.105   8.772 -0.3326 -1.5492 -0.1632
  226MOL0     H30479  -0.468   2.987   8.909  1.3747  0.2956 -0.2074
  226MOL0     H30480  -0.597   3.266   8.920  1.1490  0.6523  0.5565
  226MOL0     H30481  -0.545   3.164   9.059  3.0802  1.9337 -0.8788
  226MOL0     H30482  -0.752   3.102   8.838  3.7612  1.5148 -1.2703
  226MOL0     H30483  -0.728   3.002   8.976 -1.9866  0.2383  0.9015
  226MOL0     H30484  -0.839   3.293   8.976 -2.6039  0.9438  0.4956
  226MOL0     H30485  -0.810   3.191   9.123 -1.5495 -0.7119 -0.0153
  226MOL0     H30486  -0.988   3.119   8.882 -4.9080  1.6552  0.4631
  226MOL0     H30487  -0.971   3.018   9.016 -1.1042 -0.6841  0.9513
  226MOL0     H30488  -1.077   3.299   9.067 -2.2303  0.2420  0.0989
  226MOL0     H30489  -1.072   3.152   9.168  1.3124 -2.1671 -1.3250
  226MOL0     H30490  -1.224   3.045   8.980 -1.5975 -0.4451  2.5707
  226MOL0     H30491  -1.229   3.196   8.899  1.5083 -1.3338 -1.0351
  226MOL0     H30492  -0.286   2.883   8.938 -1.3385 -0.6696 -1.2498
  226MOL0     H30493  -0.108   2.721   9.005 -1.0073 -0.9379 -1.1914
  226MOL0     H30494   0.212   2.389   8.766  1.1915  0.0332 -1.7663
  226MOL0     H30495   0.388   2.256   8.794  0.4334 -1.2997  0.7029
  226MOL0     H30496   2.208   2.467   9.040  0.9370  1.5916  1.0878
  226MOL0     H30497   2.439   2.431   8.988 -0.3566  2.4340  1.4281
  226MOL0     H30498   2.820   2.702   8.589 -0.4388 -1.0177  0.8433
  226MOL0     H30499   3.050   2.665   8.592  1.1112 -0.3302  2.9525
  226MOL0     H30500   3.206   2.504   8.453 -4.2597  1.1065  1.9562
  226MOL0     H30501   3.260   2.609   8.586  1.9504 -0.0776 -0.0743
  226MOL0     H30502   3.440   2.480   8.638 -3.5042  3.3546  1.3611
  226MOL0     H30503   3.457   2.537   8.475  0.4175  0.6491  1.1853
  226MOL0     H30504   3.398   2.312   8.383  0.8067 -2.9361 -0.5911
  226MOL0     H30505   3.365   2.252   8.543  1.4345  0.0653 -1.0321
  226MOL0     H30506   3.636   2.352   8.450  1.6096 -0.9131 -0.2634
  226MOL0     H30507   3.586   2.178   8.470  2.2193  1.5566 -1.6338
  226MOL0     H30508   3.678   2.309   8.863 -2.4329 -0.0513 -0.1947
  226MOL0     H30509   3.000   2.263   8.693  0.3293  0.2216 -2.1276
  226MOL0     H30510   2.758   2.288   8.722  2.2933 -0.3168  0.9801
  227MOL0     O30511   2.965   1.994   7.817  0.2700 -0.1237  0.3971
  227MOL0     C30512   2.986   1.904   7.898  0.0757 -1.1671  0.8474
  227MOL0     O30513   3.105   1.853   7.919 -0.2738  1.0271 -0.1083
  227MOL0     C30514   3.216   1.921   7.869  0.4534 -0.5352  0.9570
  227MOL0     C30515   3.238   2.059   7.853 -0.3734 -0.0532  0.6414
  227MOL0     C30516   3.348   2.108   7.778  1.1144  0.5146 -0.1059
  227MOL0     C30517   3.435   2.020   7.723 -0.8246  0.2940 -0.6018
  227MOL0     O30518   3.515   2.077   7.622  0.2321  0.2914 -0.0816
  227MOL0     C30519   3.636   2.001   7.586  1.1997 -0.5153  0.0900
  227MOL0     C30520   3.742   2.002   7.694 -0.6929 -0.2400 -0.3402
  227MOL0     C30521   3.774   2.142   7.736  0.2747  0.3465 -0.1949
  227MOL0     C30522   3.886   2.138   7.844  0.3636  0.3921  0.5964
  227MOL0     C30523   3.956   2.280   7.847 -0.1308 -0.5049  0.5764
  227MOL0     C30524   4.044   2.307   7.968  0.5981 -0.3396 -0.2102
  227MOL0     C30525   4.178   2.251   7.945 -0.2322  0.2929 -0.2222
  227MOL0     C30526   4.277   2.288   8.059 -0.8836 -0.4634 -0.0209
  227MOL0     N30527   4.277   2.431   8.065  0.2322  0.0353 -0.3051
  227MOL0     C30528   4.214   2.515   8.152  0.3350 -0.5944  0.4883
  227MOL0     C30529   4.251   2.644   8.114  0.2089 -0.2368  0.6573
  227MOL0     C30530   4.230   2.766   8.198 -0.4182 -0.4255  0.6379
  227MOL0     C30531   4.089   2.802   8.204  1.2388  0.1681  0.0751
  227MOL0     C30532   4.018   2.850   8.070 -0.7119 -0.6246 -1.1739
  227MOL0     C30533   4.019   2.751   7.957  0.2538  0.9291 -0.2254
  227MOL0     O30534   3.943   2.634   8.001  0.4415 -0.6435  1.0306
  227MOL0     C30535   3.806   2.633   8.004 -0.1780  0.4154  0.2890
  227MOL0     C30536   3.745   2.510   8.037  0.5249  0.3019 -0.0028
  227MOL0     C30537   3.608   2.490   8.052 -0.4735  0.6444  0.1196
  227MOL0     C30538   3.576   2.353   8.102 -0.8116  1.0337  0.0424
  227MOL0     C30539   3.524   2.597   8.020  0.3218  0.0242 -0.1077
  227MOL0     C30540   3.374   2.589   8.033 -0.2515  0.2589  0.1540
  227MOL0     O30541   3.302   2.690   8.095  0.2315 -0.2702 -0.1088
  227MOL0     C30542   3.164   2.679   8.080  0.0422  0.6944  0.7487
  227MOL0     C30543   3.110   2.724   7.956  0.0834 -0.1731 -1.0779
  227MOL0     C30544   2.972   2.734   7.944 -0.0939 -0.1894 -0.4292
  227MOL0     C30545   2.886   2.674   8.044  0.2852  0.1396  0.9917
  227MOL0     O30546   2.745   2.675   8.022  0.2890 -0.3162 -0.0575
  227MOL0     C30547   2.690   2.808   8.036 -0.7861 -1.0162  0.2796
  227MOL0     C30548   2.661   2.842   8.181 -0.5735  0.6058  0.0383
  227MOL0     C30549   2.545   2.753   8.223 -0.9529  0.0197  0.3111
  227MOL0     C30550   2.447   2.794   8.339 -0.5579 -0.7481  0.5539
  227MOL0     C30551   2.348   2.903   8.290 -0.1140 -0.1245  0.0736
  227MOL0     C30552   2.251   2.942   8.405 -0.0455 -0.2120 -0.0585
  227MOL0     C30553   2.105   2.958   8.344  0.3409  0.3514  0.0336
  227MOL0     C30554   2.016   2.994   8.462 -0.4458 -0.3907  0.5602
  227MOL0    Cl30555   1.838   3.001   8.411  0.0536 -0.1306  0.6748
  227MOL0     C30556   2.936   2.625   8.161  0.4212  0.1537  0.0838
  227MOL0     C30557   3.076   2.632   8.182 -0.4933  0.6470  0.2537
  227MOL0     O30558   3.323   2.492   7.976 -0.0005 -0.0147  0.3581
  227MOL0     C30559   3.576   2.721   7.981  0.5784  0.8211  0.2710
  227MOL0     C30560   3.719   2.738   7.979  0.5922 -1.1549  0.2256
  227MOL0     N30561   4.344   2.627   8.019 -0.0787 -0.5611 -0.5379
  227MOL0     N30562   4.346   2.508   7.981  0.2697  0.0050  0.1800
  227MOL0     C30563   3.416   1.876   7.737  1.4529 -0.5814 -0.4409
  227MOL0     C30564   3.305   1.833   7.811 -0.5605 -0.2370  0.1375
  227MOL0     C30565   2.863   1.864   7.968 -0.4065  0.2325 -1.1924
  227MOL0     C30566   2.862   1.733   8.027  0.1399  0.1620  0.0649
  227MOL0     C30567   2.751   1.689   8.083  0.3646 -0.0640  0.0273
  227MOL0     C30568   2.642   1.760   8.094 -0.4380 -0.7983 -0.0920
  227MOL0     O30569   2.546   1.717   8.184  0.6889 -0.6759 -0.1131
  227MOL0     C30570   2.499   1.809   8.275  0.2683  0.1158 -0.2538
  227MOL0     C30571   2.347   1.842   8.243 -0.7828  0.3603 -0.5444
  227MOL0     C30572   2.271   1.721   8.190 -0.2589 -0.1707 -0.5119
  227MOL0     C30573   2.228   1.628   8.303 -0.7949 -0.5579 -0.0658
  227MOL0     C30574   2.118   1.533   8.260 -1.7785 -0.0141 -0.3693
  227MOL0     C30575   2.017   1.483   8.233  0.4822  0.5899 -0.6682
  227MOL0     C30576   2.627   1.888   8.019 -0.7353  0.1464  0.4383
  227MOL0     C30577   2.745   1.940   7.968 -0.3092 -0.1692  0.8533
  227MOL0     H30578   3.169   2.132   7.894 -0.7637  0.5456 -0.9827
  227MOL0     H30579   3.353   2.216   7.767 -0.2839  0.4423 -2.0488
  227MOL0     H30580   3.616   1.896   7.561  1.2214 -0.2242 -1.1879
  227MOL0     H30581   3.667   2.053   7.496 -1.3209  1.7416  0.3870
  227MOL0     H30582   3.708   1.931   7.770  0.2012 -3.5589 -2.8563
  227MOL0     H30583   3.833   1.951   7.661 -0.2704  0.3027 -0.0353
  227MOL0     H30584   3.807   2.194   7.645  3.2901  0.7037  1.0163
  227MOL0     H30585   3.693   2.192   7.790  1.3976  0.0740  1.7949
  227MOL0     H30586   3.851   2.109   7.943 -1.1055 -0.2620 -0.0884
  227MOL0     H30587   3.962   2.067   7.810 -1.1779 -0.2088 -1.8077
  227MOL0     H30588   4.002   2.314   7.753  0.7369  2.7046  2.0328
  227MOL0     H30589   3.873   2.351   7.853  0.7203  1.0199 -3.0483
  227MOL0     H30590   4.066   2.414   7.966  2.3055 -0.6429  0.1684
  227MOL0     H30591   4.001   2.284   8.066 -1.9727  1.6356 -0.7821
  227MOL0     H30592   4.178   2.142   7.946  1.9422  0.2385  1.8176
  227MOL0     H30593   4.222   2.279   7.848  1.1544 -0.3539  0.1940
  227MOL0     H30594   4.381   2.255   8.048 -0.5381  0.2293  1.0304
  227MOL0     H30595   4.239   2.250   8.154  1.6850 -1.6509  0.6353
  227MOL0     H30596   4.153   2.484   8.236 -2.6557  2.4405 -0.3167
  227MOL0     H30597   4.259   2.732   8.298  4.8616  1.0267 -0.0875
  227MOL0     H30598   4.291   2.856   8.185 -4.2925  2.2698 -0.5035
  227MOL0     H30599   4.075   2.885   8.273  1.3253  1.3068 -1.2310
  227MOL0     H30600   4.034   2.717   8.246  2.5586  0.1872  1.9401
  227MOL0     H30601   4.069   2.942   8.041  0.4575 -0.5622  0.8869
  227MOL0     H30602   3.917   2.884   8.095 -0.5120  1.0066 -2.4002
  227MOL0     H30603   4.117   2.728   7.914 -1.6319 -3.1701 -2.9818
  227MOL0     H30604   3.959   2.783   7.871 -0.0023 -0.7704 -0.7271
  227MOL0     H30605   3.810   2.424   8.035 -3.2971 -2.8697  0.4968
  227MOL0     H30606   3.605   2.326   8.204  1.7055 -2.2932 -1.3752
  227MOL0     H30607   3.469   2.340   8.087 -0.9402  0.9848  0.9094
  227MOL0     H30608   3.627   2.277   8.042 -1.1190 -0.0513  1.1016
  227MOL0     H30609   3.182   2.766   7.886  2.2334  0.5214  1.3687
  227MOL0     H30610   2.934   2.768   7.848 -1.7619  0.6988  0.5119
  227MOL0     H30611   2.751   2.879   7.980 -2.0878  0.8113  1.0863
  227MOL0     H30612   2.594   2.820   7.986 -2.4250  0.1985  3.4375
  227MOL0     H30613   2.751   2.822   8.239 -0.6445 -0.1188 -0.0867
  227MOL0     H30614   2.636   2.948   8.179 -0.2465  0.6781 -0.4364
  227MOL0     H30615   2.596   2.656   8.223 -0.6736  0.1623  1.0124
  227MOL0     H30616   2.471   2.740   8.143 -4.7548  1.6560  3.2285
  227MOL0     H30617   2.384   2.710   8.371 -3.8750  0.6802 -1.6432
  227MOL0     H30618   2.516   2.829   8.416  1.2514  0.3973 -1.4692
  227MOL0     H30619   2.290   2.863   8.206  1.1138 -2.0253  0.0702
  227MOL0     H30620   2.412   2.981   8.248  0.2750 -1.1927 -1.3951
  227MOL0     H30621   2.257   2.861   8.478 -0.7402  0.0163  0.2559
  227MOL0     H30622   2.277   3.028   8.466 -1.6577 -0.1428  0.5873
  227MOL0     H30623   2.058   2.867   8.306 -0.7503  0.3074  1.4064
  227MOL0     H30624   2.104   3.037   8.268  1.9207 -0.9510 -1.4140
  227MOL0     H30625   2.037   3.094   8.503 -1.6346 -0.4065  1.2658
  227MOL0     H30626   2.027   2.916   8.538  0.1350  1.8010  2.8873
  227MOL0     H30627   2.869   2.580   8.234 -0.1093 -0.7391 -0.9184
  227MOL0     H30628   3.129   2.589   8.266 -1.5269 -1.9504 -0.3267
  227MOL0     H30629   3.498   2.793   7.957 -1.0905 -0.5186  1.4711
  227MOL0     H30630   3.757   2.838   7.959 -0.9768 -0.4965  0.3506
  227MOL0     H30631   3.487   1.804   7.698 -0.9742 -3.1451 -0.4667
  227MOL0     H30632   3.269   1.732   7.825 -0.8836 -0.4554 -1.9120
  227MOL0     H30633   2.948   1.667   8.034 -1.2467 -1.6922  0.5053
  227MOL0     H30634   2.743   1.587   8.120  1.2271  0.5480  2.0101
  227MOL0     H30635   2.496   1.760   8.373  1.9350  0.6907  0.1084
  227MOL0     H30636   2.547   1.906   8.286 -1.6893  0.9005  2.3405
  227MOL0     H30637   2.340   1.920   8.166  1.7700  2.0315  0.7583
  227MOL0     H30638   2.294   1.892   8.324 -0.8152  1.1270 -1.0302
  227MOL0     H30639   2.328   1.661   8.119 -1.3688  0.5534 -2.0786
  227MOL0     H30640   2.184   1.762   8.137 -0.8813 -0.2605  0.4284
  227MOL0     H30641   2.187   1.683   8.388  0.5653  1.7211 -0.7915
  227MOL0     H30642   2.317   1.577   8.339 -0.2637  0.5718  0.2530
  227MOL0     H30643   1.928   1.427   8.214  1.7021 -1.2964 -1.1387
  227MOL0     H30644   2.536   1.946   8.007  0.6405  1.9464 -2.2550
  227MOL0     H30645   2.736   2.031   7.909  0.8357  0.0655  1.0122
  228MOL0     O30646  10.125   3.996   2.775  0.8878  0.2876 -0.1440
  228MOL0     C30647  10.202   3.946   2.692 -0.0474 -0.2880  0.1884
  228MOL0     O30648  10.193   3.962   2.557 -0.6190 -0.3386 -0.2731
  228MOL0     C30649  10.097   4.043   2.508  0.4267  0.3110 -0.5824
  228MOL0     C30650   9.963   4.015   2.510 -0.5148 -0.0690  0.3418
  228MOL0     C30651   9.871   4.098   2.437 -0.5435  0.4373  0.1396
  228MOL0     C30652   9.912   4.213   2.372  0.7355  0.0313  0.1254
  228MOL0     O30653   9.809   4.281   2.305 -0.5737  0.3919  0.0239
  228MOL0     C30654   9.861   4.389   2.225 -0.3035 -0.0378  0.5242
  228MOL0     C30655   9.746   4.447   2.146  0.3058 -0.2751 -0.0961
  228MOL0     C30656   9.632   4.498   2.236 -1.0282 -0.2586 -1.5793
  228MOL0     C30657   9.521   4.558   2.159  0.5510 -0.4353  0.1814
  228MOL0     C30658   9.413   4.633   2.247  0.0589  0.2262  0.4491
  228MOL0     C30659   9.306   4.667   2.144  0.1569  1.1905  1.3636
  228MOL0     C30660   9.201   4.748   2.204 -0.0686  0.2675 -0.4641
  228MOL0     C30661   9.108   4.664   2.290  0.4711 -0.5013  0.9927
  228MOL0     N30662   9.008   4.746   2.354 -0.3573 -0.3942  0.5309
  228MOL0     C30663   9.031   4.807   2.474 -0.0698  0.7311 -0.0221
  228MOL0     C30664   8.933   4.898   2.484  0.2180  0.1862 -0.6602
  228MOL0     C30665   8.927   4.997   2.603 -0.0800  0.3171  0.2496
  228MOL0     C30666   8.793   5.018   2.665 -0.2209  0.4788 -0.2449
  228MOL0     C30667   8.775   5.100   2.795  0.9138 -0.0538 -0.4093
  228MOL0     C30668   8.814   5.020   2.922 -0.2224 -0.1526 -0.9906
  228MOL0     O30669   8.726   4.916   2.944  0.6958 -0.4288  0.1255
  228MOL0     C30670   8.596   4.955   2.994  0.8420  0.5808 -1.1816
  228MOL0     C30671   8.490   4.862   2.966  0.4011 -0.4331  0.1005
  228MOL0     C30672   8.358   4.868   3.025  0.5703 -0.4677 -0.4150
  228MOL0     C30673   8.262   4.769   2.976 -0.6912  0.1283 -0.0487
  228MOL0     C30674   8.334   4.971   3.124  0.3953  0.3350 -0.8554
  228MOL0     C30675   8.202   4.983   3.196  0.1047 -0.0764 -0.4802
  228MOL0     O30676   8.095   4.958   3.114 -0.3643 -0.2329 -0.1947
  228MOL0     C30677   7.966   4.964   3.160  0.5211 -0.4211  0.1290
  228MOL0     C30678   7.877   4.861   3.142  0.5601  0.0759 -0.1077
  228MOL0     C30679   7.739   4.868   3.179  0.1868 -0.3501 -0.0240
  228MOL0     C30680   7.691   4.982   3.242 -0.4072 -0.4402 -0.1360
  228MOL0     O30681   7.562   4.982   3.278  0.1044  0.9198 -0.7241
  228MOL0     C30682   7.523   5.077   3.374  0.8612 -0.4747  0.0198
  228MOL0     C30683   7.376   5.068   3.400 -1.1985 -0.1508 -0.2821
  228MOL0     C30684   7.349   5.152   3.525  0.3313  0.1215 -0.3282
  228MOL0     C30685   7.202   5.183   3.557  0.1418  0.8660  0.3720
  228MOL0     C30686   7.182   5.283   3.674 -1.4413 -0.4561  0.3434
  228MOL0     C30687   7.238   5.225   3.815  0.1374  0.1548  0.5251
  228MOL0     C30688   7.242   5.315   3.940 -0.0062  0.5225  0.3282
  228MOL0     C30689   7.291   5.236   4.060  0.1640 -0.1349  0.2803
  228MOL0    Cl30690   7.256   5.331   4.215  0.2402  0.4566 -0.2846
  228MOL0     C30691   7.781   5.091   3.264 -0.1883  0.1808 -0.4175
  228MOL0     C30692   7.919   5.072   3.240 -0.8062  0.7757  0.3292
  228MOL0     O30693   8.199   5.023   3.314 -0.3294 -0.0656 -0.0874
  228MOL0     C30694   8.437   5.056   3.154 -0.4267  0.2107 -0.4756
  228MOL0     C30695   8.564   5.051   3.090 -0.4440 -0.6121 -0.4772
  228MOL0     N30696   8.849   4.905   2.376 -0.0851 -0.7320 -0.4407
  228MOL0     N30697   8.906   4.822   2.293 -0.8468  0.6491  0.0651
  228MOL0     C30698  10.052   4.230   2.368  0.2333  0.3041  0.0103
  228MOL0     C30699  10.146   4.145   2.431  0.6522 -0.0343 -0.2365
  228MOL0     C30700  10.320   3.871   2.737 -1.2897  0.2676  0.5169
  228MOL0     C30701  10.432   3.836   2.648  0.5960  0.9162  0.0682
  228MOL0     C30702  10.542   3.768   2.694  0.4524 -0.2665 -0.8942
  228MOL0     C30703  10.542   3.731   2.833 -0.7014 -0.5396  0.5193
  228MOL0     O30704  10.654   3.679   2.901 -0.5316 -0.5209  0.2470
  228MOL0     C30705  10.778   3.653   2.828 -1.2242  0.2497  0.0670
  228MOL0     C30706  10.892   3.624   2.926 -0.5317 -0.2970 -0.6574
  228MOL0     C30707  10.847   3.560   3.060  0.0083  0.4547  0.0563
  228MOL0     C30708  10.964   3.507   3.141  0.0141 -0.0992  0.9298
  228MOL0     C30709  10.897   3.415   3.241  0.3195 -0.5050 -0.1619
  228MOL0     C30710  10.843   3.334   3.319  0.0331  0.0123  1.0873
  228MOL0     C30711  10.447   3.777   2.924  0.3404 -0.2266  1.2420
  228MOL0     C30712  10.340   3.853   2.875  0.3076  0.7271  0.0000
  228MOL0     H30713   9.914   3.937   2.567  0.8121 -0.1653  1.4066
  228MOL0     H30714   9.767   4.067   2.435 -0.0778 -1.1851 -0.0644
  228MOL0     H30715   9.887   4.470   2.295 -0.9690  1.2698 -0.6807
  228MOL0     H30716   9.942   4.359   2.158  0.2437  0.2430  1.0455
  228MOL0     H30717   9.778   4.533   2.086  1.2619 -1.4664 -1.3578
  228MOL0     H30718   9.699   4.369   2.086 -1.9470  0.2412  0.8767
  228MOL0     H30719   9.596   4.428   2.312  1.6166  1.6234  1.7259
  228MOL0     H30720   9.677   4.583   2.287 -2.4860  1.8698 -3.6296
  228MOL0     H30721   9.560   4.633   2.090 -2.1795  2.5844  1.6549
  228MOL0     H30722   9.473   4.470   2.115 -0.5982  0.2249  0.0760
  228MOL0     H30723   9.359   4.565   2.314  0.3431 -1.8130 -1.2805
  228MOL0     H30724   9.455   4.721   2.296 -0.4522  0.9247 -0.3232
  228MOL0     H30725   9.355   4.721   2.063  0.3925 -0.6315  0.2624
  228MOL0     H30726   9.265   4.571   2.113 -1.3558  1.7120  1.6555
  228MOL0     H30727   9.243   4.826   2.267  2.4374 -1.3768  0.0726
  228MOL0     H30728   9.135   4.784   2.124 -1.0193  2.7046  1.3298
  228MOL0     H30729   9.170   4.616   2.366  3.8385  2.6149  0.4965
  228MOL0     H30730   9.058   4.590   2.227  2.3524  0.8384 -2.3337
  228MOL0     H30731   9.123   4.797   2.529  0.5057 -1.6785 -1.3040
  228MOL0     H30732   8.995   4.963   2.682 -2.0598  0.9546  2.3236
  228MOL0     H30733   8.961   5.092   2.560  0.0346 -0.3152 -1.1205
  228MOL0     H30734   8.740   4.926   2.687  0.4272  0.0847 -0.3054
  228MOL0     H30735   8.734   5.072   2.590 -0.6152 -0.1092 -0.3578
  228MOL0     H30736   8.669   5.127   2.798  1.3096  2.1187 -2.7812
  228MOL0     H30737   8.841   5.187   2.793 -1.8418  2.2426  1.0162
  228MOL0     H30738   8.813   5.086   3.009 -1.1293 -0.0145 -1.1011
  228MOL0     H30739   8.910   4.969   2.909  0.9914  1.5275  0.8417
  228MOL0     H30740   8.519   4.780   2.902 -0.6638 -2.0898  1.6565
  228MOL0     H30741   8.224   4.793   2.876  0.3817 -0.5987 -0.6493
  228MOL0     H30742   8.312   4.673   2.962  2.3467  1.2495  2.1955
  228MOL0     H30743   8.185   4.746   3.050 -1.1821 -2.8242 -1.3205
  228MOL0     H30744   7.885   4.767   3.088 -1.7529 -0.2159 -0.0843
  228MOL0     H30745   7.677   4.780   3.168 -2.0469  1.0367  0.5961
  228MOL0     H30746   7.584   5.038   3.456 -0.1678 -1.6871  0.2307
  228MOL0     H30747   7.555   5.180   3.354  0.0995 -0.1797  0.3218
  228MOL0     H30748   7.318   5.112   3.318 -4.0047 -0.1946  1.5473
  228MOL0     H30749   7.353   4.962   3.405  1.2411 -0.8946 -2.3094
  228MOL0     H30750   7.401   5.248   3.525 -0.1683  0.4002 -0.0968
  228MOL0     H30751   7.382   5.100   3.615  1.6337  0.1992 -0.7475
  228MOL0     H30752   7.180   5.232   3.462  3.4232 -0.6161 -1.3153
  228MOL0     H30753   7.141   5.093   3.568  2.1719 -0.3266  3.4442
  228MOL0     H30754   7.075   5.308   3.676 -0.7763  2.9449 -0.2356
  228MOL0     H30755   7.244   5.369   3.651 -1.8596 -0.2862 -0.1638
  228MOL0     H30756   7.169   5.145   3.844 -1.7815  2.4107  2.5386
  228MOL0     H30757   7.339   5.187   3.795  1.5882  5.0703 -3.5170
  228MOL0     H30758   7.141   5.353   3.962 -0.8848 -1.2297 -0.4413
  228MOL0     H30759   7.305   5.403   3.926  1.6779 -0.3394  2.1570
  228MOL0     H30760   7.396   5.208   4.049 -1.0359 -5.7537  0.2579
  228MOL0     H30761   7.242   5.139   4.068 -0.2646  0.2028  2.5385
  228MOL0     H30762   7.748   5.181   3.314  1.4011 -0.4084  1.8506
  228MOL0     H30763   7.986   5.149   3.278 -0.2443 -0.3652  1.7852
  228MOL0     H30764   8.432   5.129   3.234  0.2670 -1.1001  0.8240
  228MOL0     H30765   8.638   5.117   3.135 -0.1787  1.0090 -3.0980
  228MOL0     H30766  10.089   4.323   2.326 -1.9009  1.3566  0.2922
  228MOL0     H30767  10.254   4.147   2.427  0.6661 -0.9609 -0.8665
  228MOL0     H30768  10.443   3.846   2.541  5.9006  1.0582  0.3502
  228MOL0     H30769  10.620   3.735   2.626  0.5064  1.7557 -1.8828
  228MOL0     H30770  10.765   3.565   2.766  0.3306 -0.9407  1.3432
  228MOL0     H30771  10.809   3.737   2.765  0.8977  0.0110  0.6830
  228MOL0     H30772  10.951   3.715   2.941  0.2285 -0.8908  0.0436
  228MOL0     H30773  10.968   3.553   2.891  1.7107  1.1883  0.9220
  228MOL0     H30774  10.778   3.482   3.029 -0.5523  0.7785  0.4892
  228MOL0     H30775  10.785   3.632   3.113 -2.9000 -1.8908  0.0645
  228MOL0     H30776  11.017   3.593   3.182  1.2697 -0.4945  0.1673
  228MOL0     H30777  11.034   3.445   3.085  0.1680 -0.2324  1.2698
  228MOL0     H30778  10.777   3.271   3.375 -1.1059 -0.9509 -1.1968
  228MOL0     H30779  10.460   3.735   3.024  0.6934 -1.7058  0.6037
  228MOL0     H30780  10.272   3.877   2.956 -1.1622 -0.6425 -0.7748
  229MOL0     O30781   1.982   1.776   1.731 -0.1578 -0.9245  0.0162
  229MOL0     C30782   2.091   1.830   1.710 -0.0569 -0.8174  0.7809
  229MOL0     O30783   2.183   1.855   1.800  0.1970 -0.4003  0.2956
  229MOL0     C30784   2.182   1.824   1.929  0.7982 -0.1820 -1.2496
  229MOL0     C30785   2.209   1.917   2.030 -0.9726 -0.5470 -0.2605
  229MOL0     C30786   2.204   1.879   2.165  0.6677  0.0168 -0.2057
  229MOL0     C30787   2.203   1.745   2.201  0.1156  0.6754  0.9270
  229MOL0     O30788   2.203   1.726   2.339  0.1548  0.6284  0.4747
  229MOL0     C30789   2.238   1.588   2.374 -0.2248  1.0940  0.4524
  229MOL0     C30790   2.273   1.576   2.528  0.5752  0.5597 -0.2083
  229MOL0     C30791   2.423   1.612   2.552  0.4020 -0.5612 -0.1930
  229MOL0     C30792   2.439   1.656   2.700  0.1904  0.5807 -0.3728
  229MOL0     C30793   2.570   1.708   2.750  0.0899  0.2094 -1.4794
  229MOL0     C30794   2.563   1.772   2.893 -0.2791  1.2702 -0.6685
  229MOL0     C30795   2.670   1.879   2.925  0.0524  0.0828  0.6646
  229MOL0     C30796   2.648   1.946   3.070 -0.2306  0.0010 -0.4164
  229MOL0     N30797   2.670   1.861   3.187  0.4759  0.3621 -0.5193
  229MOL0     C30798   2.794   1.814   3.212  0.0145 -0.1868  1.2215
  229MOL0     C30799   2.784   1.762   3.335  0.7140  0.5067 -0.7954
  229MOL0     C30800   2.889   1.698   3.421  1.2142 -0.3439 -0.7226
  229MOL0     C30801   3.026   1.753   3.392 -0.0110  0.0954  0.4193
  229MOL0     C30802   3.130   1.656   3.450  0.7204 -0.8547  0.2126
  229MOL0     C30803   3.274   1.718   3.446  0.8526 -0.2745 -0.0961
  229MOL0     O30804   3.263   1.833   3.538 -0.0349 -0.0466 -0.1253
  229MOL0     C30805   3.348   1.940   3.518 -0.7962  0.4967  0.2027
  229MOL0     C30806   3.472   1.946   3.447 -0.4830 -0.1826  0.7995
  229MOL0     C30807   3.546   2.067   3.433  0.7026 -0.1868  0.1536
  229MOL0     C30808   3.671   2.061   3.343  0.4942 -0.7682 -0.6430
  229MOL0     C30809   3.512   2.181   3.505  0.9962 -0.6131  0.6795
  229MOL0     C30810   3.589   2.319   3.511  0.3984 -0.2694  0.7891
  229MOL0     O30811   3.677   2.354   3.413 -0.6114 -0.3755  0.1796
  229MOL0     C30812   3.732   2.478   3.402 -0.3824  0.6114 -0.1081
  229MOL0     C30813   3.661   2.602   3.390 -0.5911 -0.1216 -0.0260
  229MOL0     C30814   3.739   2.718   3.368 -0.0079 -0.3067 -0.4648
  229MOL0     C30815   3.877   2.716   3.380 -0.6441 -0.7067 -0.0430
  229MOL0     O30816   3.958   2.824   3.355  0.3094 -0.2091 -0.1408
  229MOL0     C30817   3.901   2.922   3.275  0.1637  0.0528 -0.2757
  229MOL0     C30818   4.003   3.028   3.218  0.3634 -0.0593 -0.3217
  229MOL0     C30819   4.058   3.110   3.330 -0.6613 -0.6084 -0.0794
  229MOL0     C30820   4.167   3.208   3.282  0.8819  0.1188 -0.3753
  229MOL0     C30821   4.220   3.298   3.403 -0.0765 -0.2762 -0.2503
  229MOL0     C30822   4.288   3.225   3.521 -0.1070 -0.2071 -0.5093
  229MOL0     C30823   4.336   3.306   3.636 -0.4448 -0.6241 -0.0336
  229MOL0     C30824   4.415   3.216   3.735 -0.0461  0.0283 -0.1323
  229MOL0    Cl30825   4.515   3.347   3.821 -0.1475 -0.1401 -0.2676
  229MOL0     C30826   3.944   2.598   3.415 -0.3892  0.6709  0.2401
  229MOL0     C30827   3.872   2.478   3.432 -0.1889 -0.1945  1.0892
  229MOL0     O30828   3.574   2.381   3.618 -0.2685  0.2537  0.7819
  229MOL0     C30829   3.388   2.172   3.579 -0.7480 -0.1448 -0.2606
  229MOL0     C30830   3.309   2.059   3.572  0.1447 -0.5707 -0.3543
  229MOL0     N30831   2.649   1.782   3.369  0.5766 -0.5088 -0.6703
  229MOL0     N30832   2.576   1.829   3.279  0.0558 -0.2269  0.1337
  229MOL0     C30833   2.183   1.647   2.094  0.4343 -0.3048  0.4330
  229MOL0     C30834   2.189   1.688   1.960  0.8432 -0.3199  0.8111
  229MOL0     C30835   2.114   1.883   1.579  0.0743  0.2923  0.1835
  229MOL0     C30836   2.216   1.976   1.564 -0.4628 -0.3215  1.4753
  229MOL0     C30837   2.236   2.028   1.430 -0.5317 -0.6799 -0.8488
  229MOL0     C30838   2.148   1.998   1.325  0.0057  0.0003 -0.1281
  229MOL0     O30839   2.152   2.055   1.203 -0.0834  0.5756 -0.6824
  229MOL0     C30840   2.080   2.175   1.202 -0.4924 -0.5561 -0.5289
  229MOL0     C30841   2.120   2.264   1.086 -0.5197 -0.2341  0.2069
  229MOL0     C30842   2.259   2.312   1.109 -0.3003 -0.0690 -0.0373
  229MOL0     C30843   2.322   2.356   0.988  1.3391  0.2399  0.8478
  229MOL0     C30844   2.272   2.483   0.924 -0.2446  1.2519  0.4124
  229MOL0     C30845   2.223   2.570   0.858 -0.7522 -0.4230  0.5693
  229MOL0     C30846   2.046   1.912   1.347 -0.6241 -0.1050 -0.3330
  229MOL0     C30847   2.023   1.855   1.472 -0.6266  0.0149  0.5946
  229MOL0     H30848   2.235   2.018   2.003 -0.1612 -0.4031  0.9848
  229MOL0     H30849   2.221   1.955   2.240 -0.2963 -0.2538  0.3024
  229MOL0     H30850   2.147   1.536   2.344 -1.1478  1.4966  2.3857
  229MOL0     H30851   2.322   1.550   2.315 -1.2873 -0.3364 -0.2027
  229MOL0     H30852   2.210   1.632   2.597  1.6083 -0.0029  1.2447
  229MOL0     H30853   2.257   1.474   2.564 -2.8644  2.1639  3.4655
  229MOL0     H30854   2.481   1.522   2.531 -1.8576 -2.1679  0.0520
  229MOL0     H30855   2.452   1.687   2.477 -1.3127  1.6313  1.2068
  229MOL0     H30856   2.362   1.732   2.713  0.9930  1.4598 -0.5784
  229MOL0     H30857   2.428   1.570   2.766 -1.3094 -0.9664 -2.5087
  229MOL0     H30858   2.650   1.634   2.746  0.2243  0.0539  1.6208
  229MOL0     H30859   2.605   1.787   2.683  4.8846 -0.1355  0.2685
  229MOL0     H30860   2.463   1.813   2.907 -0.8857  0.0710 -1.2860
  229MOL0     H30861   2.568   1.688   2.963 -2.6785 -0.7435 -2.6961
  229MOL0     H30862   2.767   1.830   2.932 -0.3404 -1.2008 -1.8322
  229MOL0     H30863   2.665   1.956   2.847  2.0598  1.4922  1.8246
  229MOL0     H30864   2.546   1.985   3.080 -0.2910 -0.1304 -0.5035
  229MOL0     H30865   2.708   2.036   3.076 -3.3914  2.4951 -2.6103
  229MOL0     H30866   2.882   1.819   3.149 -0.9397 -1.7047 -0.3472
  229MOL0     H30867   2.867   1.698   3.528  4.6623 -1.7609  0.0970
  229MOL0     H30868   2.882   1.590   3.400 -2.8432  0.2210 -3.6383
  229MOL0     H30869   3.035   1.849   3.444 -3.2244  0.8004 -0.1167
  229MOL0     H30870   3.035   1.750   3.283 -4.4235 -0.9242 -0.1042
  229MOL0     H30871   3.129   1.566   3.386 -1.4517 -2.7368  2.6678
  229MOL0     H30872   3.102   1.611   3.546 -1.9408  0.7727  0.2945
  229MOL0     H30873   3.286   1.755   3.343 -0.0193 -1.3747 -0.6240
  229MOL0     H30874   3.348   1.646   3.479 -0.5066 -1.9221 -0.5023
  229MOL0     H30875   3.506   1.855   3.399 -0.7718  0.0385  0.1581
  229MOL0     H30876   3.753   2.116   3.390 -2.9296  2.9975  1.6021
  229MOL0     H30877   3.705   1.963   3.308  0.6603  0.5094 -4.4606
  229MOL0     H30878   3.648   2.121   3.254 -0.0113 -0.4624 -0.3136
  229MOL0     H30879   3.558   2.604   3.357 -0.5375 -1.4525 -0.3674
  229MOL0     H30880   3.699   2.819   3.361 -1.0438 -0.3153  3.2568
  229MOL0     H30881   3.846   2.877   3.192 -0.2859 -2.7257  1.3778
  229MOL0     H30882   3.825   2.981   3.328  0.2423  1.2991 -1.5032
  229MOL0     H30883   4.088   2.975   3.175  1.6560  2.0283 -0.5103
  229MOL0     H30884   3.942   3.084   3.146 -1.0275 -0.1462  0.7616
  229MOL0     H30885   4.096   3.049   3.413  0.6332  0.1413 -0.1033
  229MOL0     H30886   3.976   3.168   3.372 -0.2785 -0.2188  0.1381
  229MOL0     H30887   4.244   3.140   3.245 -1.1502 -1.3816 -2.1093
  229MOL0     H30888   4.131   3.261   3.193 -0.6062 -0.3707 -0.0817
  229MOL0     H30889   4.133   3.355   3.439 -1.3686 -3.3633  2.0206
  229MOL0     H30890   4.288   3.373   3.362 -2.3089  0.7484 -2.3188
  229MOL0     H30891   4.208   3.158   3.553 -0.9317  1.1330  0.3236
  229MOL0     H30892   4.368   3.161   3.481 -0.0530  0.2011 -1.0699
  229MOL0     H30893   4.263   3.373   3.682 -0.2555 -1.1029  1.0135
  229MOL0     H30894   4.413   3.367   3.587  1.5311 -2.0441  1.1351
  229MOL0     H30895   4.478   3.141   3.685  1.1983  0.4995  0.6784
  229MOL0     H30896   4.350   3.158   3.801  3.3020 -0.2738  3.2387
  229MOL0     H30897   4.052   2.598   3.418 -0.2776  1.7587 -1.8665
  229MOL0     H30898   3.932   2.395   3.466 -2.5102 -1.2363  2.8963
  229MOL0     H30899   3.359   2.264   3.629 -0.3909 -0.2809  0.1966
  229MOL0     H30900   3.211   2.040   3.613 -0.3967 -2.6008 -2.3919
  229MOL0     H30901   2.180   1.541   2.119  3.3768 -0.8034 -0.9714
  229MOL0     H30902   2.199   1.619   1.877 -1.0104  1.4325 -0.9950
  229MOL0     H30903   2.280   2.025   1.636 -0.5547  1.8955  0.1409
  229MOL0     H30904   2.319   2.095   1.414  0.2541 -0.6552  2.5492
  229MOL0     H30905   1.973   2.155   1.199 -0.3171 -2.5759  2.3720
  229MOL0     H30906   2.102   2.229   1.294 -2.9367 -2.3383  1.2364
  229MOL0     H30907   2.055   2.350   1.066  1.0306  1.7575  3.0816
  229MOL0     H30908   2.116   2.193   1.003 -1.3341  0.6766 -0.5649
  229MOL0     H30909   2.321   2.227   1.140  0.6989 -0.3431 -2.6049
  229MOL0     H30910   2.260   2.396   1.179 -1.7988 -0.0072 -0.0615
  229MOL0     H30911   2.326   2.269   0.921 -1.7574  1.7010 -1.5211
  229MOL0     H30912   2.424   2.387   1.012  0.7866  3.7587 -0.6900
  229MOL0     H30913   2.186   2.658   0.811  1.3781 -0.1943 -0.8289
  229MOL0     H30914   1.988   1.887   1.258  0.3294  0.4130 -1.1244
  229MOL0     H30915   1.935   1.791   1.464  0.4658 -1.3345 -1.2324
  230MOL0     O30916  10.568   1.437   6.390 -0.6342 -0.1190  0.7413
  230MOL0     C30917  10.615   1.433   6.506  0.2746  0.9886  0.7510
  230MOL0     O30918  10.548   1.394   6.618 -0.7466  0.4578  0.3186
  230MOL0     C30919  10.416   1.353   6.590 -0.1947 -0.0797 -0.8480
  230MOL0     C30920  10.403   1.226   6.538  0.2620 -0.3328 -0.4041
  230MOL0     C30921  10.282   1.168   6.514  0.9414 -0.0710 -0.2631
  230MOL0     C30922  10.163   1.231   6.551  0.7806 -0.0103 -0.0600
  230MOL0     O30923  10.046   1.161   6.524  0.2941 -0.3335  0.1528
  230MOL0     C30924   9.919   1.226   6.572  0.6712  0.0973  0.8797
  230MOL0     C30925   9.856   1.299   6.448 -0.2218  0.7635  0.3015
  230MOL0     C30926   9.816   1.197   6.337 -0.0481  0.0643 -0.1228
  230MOL0     C30927   9.735   1.255   6.216 -0.9102  0.0841 -0.6209
  230MOL0     C30928   9.592   1.289   6.259 -0.2659 -0.1404 -0.2879
  230MOL0     C30929   9.512   1.331   6.141 -0.1370 -0.0999  0.7486
  230MOL0     C30930   9.358   1.297   6.153 -0.4743 -0.4604  0.0475
  230MOL0     C30931   9.278   1.362   6.048 -0.1276 -0.2474 -0.4928
  230MOL0     N30932   9.141   1.319   6.043  0.6907 -0.3397 -0.4281
  230MOL0     C30933   9.097   1.190   6.044 -0.2352 -0.3858  0.5581
  230MOL0     C30934   8.967   1.202   6.016  0.1888 -0.3156  0.3040
  230MOL0     C30935   8.866   1.093   5.994 -0.2122 -0.1455  0.0954
  230MOL0     C30936   8.825   1.027   6.124 -0.3881  0.8371 -0.9616
  230MOL0     C30937   8.699   0.949   6.093 -1.0249  0.3756 -0.6075
  230MOL0     C30938   8.643   0.870   6.220 -0.4551 -0.4191 -0.2375
  230MOL0     O30939   8.715   0.745   6.235 -0.4996 -0.3960  0.4140
  230MOL0     C30940   8.664   0.640   6.311 -0.3829 -0.8842 -0.4150
  230MOL0     C30941   8.692   0.507   6.273 -0.0142  0.1480 -0.0946
  230MOL0     C30942   8.636   0.395   6.344  0.7024  0.3103 -0.1207
  230MOL0     C30943   8.677   0.258   6.289 -0.2581  0.3557 -0.5348
  230MOL0     C30944   8.554   0.423   6.455 -0.6005  0.1722 -0.5629
  230MOL0     C30945   8.477   0.320   6.527  0.1643  0.0988 -0.8035
  230MOL0     O30946   8.466   0.329   6.671 -0.7893  0.6137  0.8538
  230MOL0     C30947   8.371   0.253   6.733  0.2803  0.6988  0.2259
  230MOL0     C30948   8.262   0.325   6.783 -0.4051  0.1625  0.5543
  230MOL0     C30949   8.156   0.264   6.862  0.0980  0.2592  0.0595
  230MOL0     C30950   8.149   0.121   6.864 -0.0280 -0.0533  1.2998
  230MOL0     O30951   8.059   0.057   6.938  0.0472  0.0367  0.4514
  230MOL0     C30952   7.927   0.117   6.964  0.2334 -0.4043  0.0165
  230MOL0     C30953   7.820   0.003   6.960 -0.0883 -0.2165 -0.2359
  230MOL0     C30954   7.676   0.058   6.976  0.4688 -0.7067 -0.2705
  230MOL0     C30955   7.610   0.107   6.839  1.0726 -0.9152 -0.4755
  230MOL0     C30956   7.465   0.154   6.869  0.4298 -0.1547  0.5985
  230MOL0     C30957   7.386   0.185   6.743  0.5156  0.1667  0.2072
  230MOL0     C30958   7.249   0.249   6.771 -0.8451 -0.5161 -0.8831
  230MOL0     C30959   7.167   0.264   6.649  0.9535  0.6273  0.5707
  230MOL0    Cl30960   7.032   0.371   6.700 -0.3502 -0.0405  0.3016
  230MOL0     C30961   8.256   0.043   6.805  0.3451 -0.1420 -0.6746
  230MOL0     C30962   8.364   0.117   6.741  0.1220  0.3307 -0.6100
  230MOL0     O30963   8.424   0.229   6.466  0.0553  0.3610 -0.1212
  230MOL0     C30964   8.530   0.554   6.490  0.3616  0.1253  0.4161
  230MOL0     C30965   8.574   0.663   6.420 -0.1376 -0.1683 -0.2680
  230MOL0     N30966   8.947   1.338   5.992  0.3051  0.1272 -0.4428
  230MOL0     N30967   9.051   1.406   6.005 -0.4429 -0.3097  0.4890
  230MOL0     C30968  10.175   1.365   6.598 -0.3534 -0.6566 -0.5996
  230MOL0     C30969  10.302   1.417   6.627 -0.4354  0.2964 -0.3045
  230MOL0     C30970  10.748   1.484   6.530 -0.2533  0.0404 -0.0493
  230MOL0     C30971  10.807   1.582   6.453  0.6556  1.0597 -0.0783
  230MOL0     C30972  10.928   1.630   6.483 -0.1121 -0.3195  0.1974
  230MOL0     C30973  10.996   1.573   6.588 -0.3897  0.4167 -0.1200
  230MOL0     O30974  11.123   1.605   6.628  0.0742  0.2886 -0.0246
  230MOL0     C30975  11.206   1.680   6.542  0.3952 -0.3436  0.6071
  230MOL0     C30976  11.217   1.821   6.597  0.3641 -0.1423  0.5292
  230MOL0     C30977  11.292   1.835   6.738 -0.2629 -0.0597  0.5644
  230MOL0     C30978  11.440   1.797   6.740 -0.7970  0.0186  1.3205
  230MOL0     C30979  11.517   1.887   6.655  0.1561  0.1339  0.4755
  230MOL0     C30980  11.596   1.969   6.606 -0.5301  0.3968  0.4005
  230MOL0     C30981  10.942   1.479   6.676 -0.3827 -0.1585  0.2694
  230MOL0     C30982  10.816   1.432   6.642  0.6377 -0.1464  0.2797
  230MOL0     H30983  10.495   1.171   6.522  0.0994 -0.4700 -0.9049
  230MOL0     H30984  10.284   1.066   6.479 -0.8435  0.2072 -1.2944
  230MOL0     H30985   9.846   1.151   6.604  2.1103 -0.2492  3.6586
  230MOL0     H30986   9.930   1.288   6.661 -2.2605  2.3677 -0.1801
  230MOL0     H30987   9.763   1.350   6.477 -0.7725 -0.8034  1.4470
  230MOL0     H30988   9.931   1.370   6.412 -0.8429  1.6748  0.7707
  230MOL0     H30989   9.905   1.147   6.299 -0.3671  1.4469 -2.9328
  230MOL0     H30990   9.751   1.119   6.379 -2.0060  2.3319  1.3092
  230MOL0     H30991   9.778   1.349   6.177 -1.3762  0.5421 -0.0468
  230MOL0     H30992   9.751   1.184   6.135  2.7050 -0.9226  0.7833
  230MOL0     H30993   9.537   1.209   6.308 -0.1097  0.8652  1.6238
  230MOL0     H30994   9.592   1.379   6.321  5.4548  2.1644 -2.8528
  230MOL0     H30995   9.515   1.438   6.119 -1.4114  0.1607  1.7594
  230MOL0     H30996   9.546   1.270   6.057 -3.6495 -3.0497  1.2077
  230MOL0     H30997   9.342   1.190   6.140  0.0080 -0.2844 -2.4030
  230MOL0     H30998   9.327   1.340   6.249  1.1147 -2.7631  1.7138
  230MOL0     H30999   9.298   1.338   5.943 -3.0118 -1.5067 -0.8306
  230MOL0     H31000   9.289   1.469   6.064 -2.9036 -0.2682  2.8397
  230MOL0     H31001   9.146   1.101   6.079 -0.3931 -0.5639  0.3318
  230MOL0     H31002   8.785   1.139   5.938 -0.3695  1.5160  1.6081
  230MOL0     H31003   8.916   1.024   5.925  1.7778  2.1446 -0.9391
  230MOL0     H31004   8.804   1.090   6.211  1.3230 -1.6277  1.4126
  230MOL0     H31005   8.911   0.968   6.157 -0.0131  0.7042 -2.1417
  230MOL0     H31006   8.725   0.877   6.014 -1.1860 -3.6096  2.6554
  230MOL0     H31007   8.621   1.018   6.059 -1.0112  0.9713  0.5271
  230MOL0     H31008   8.535   0.857   6.210 -0.9928  2.0055  1.4490
  230MOL0     H31009   8.657   0.929   6.311  1.6785 -0.1847 -0.6697
  230MOL0     H31010   8.764   0.500   6.193  0.5173 -0.0192  0.3901
  230MOL0     H31011   8.608   0.174   6.298  0.3832  0.0782  3.3634
  230MOL0     H31012   8.696   0.269   6.182  2.2357 -2.1008 -0.4580
  230MOL0     H31013   8.774   0.230   6.332 -0.4520 -0.6215 -0.7102
  230MOL0     H31014   8.253   0.433   6.779 -1.1581  0.0732 -0.7218
  230MOL0     H31015   8.090   0.324   6.923  1.3086 -1.8055  3.7363
  230MOL0     H31016   7.918   0.154   7.066  2.4554  0.9087 -0.1981
  230MOL0     H31017   7.896   0.198   6.897 -2.9321 -0.4750  1.2258
  230MOL0     H31018   7.814  -0.060   6.871 -1.3612  0.3659 -0.5789
  230MOL0     H31019   7.851  -0.061   7.044  1.1720  3.4506  2.3584
  230MOL0     H31020   7.675   0.149   7.037  1.8877 -1.0836  0.3607
  230MOL0     H31021   7.607  -0.017   7.014 -0.0874 -0.8672 -1.5455
  230MOL0     H31022   7.673   0.188   6.803 -0.8549  0.4023 -1.0867
  230MOL0     H31023   7.598   0.026   6.767  1.2436 -1.1634 -0.2251
  230MOL0     H31024   7.467   0.244   6.930 -2.7268  1.5210 -1.4991
  230MOL0     H31025   7.412   0.077   6.926  0.0092 -0.4568 -0.1854
  230MOL0     H31026   7.439   0.253   6.677 -0.2511  0.1819 -0.4045
  230MOL0     H31027   7.391   0.085   6.698  1.6327  0.9926 -1.6270
  230MOL0     H31028   7.276   0.352   6.799 -1.8718  0.0062 -1.7595
  230MOL0     H31029   7.195   0.197   6.851  0.4193 -3.2990 -1.7463
  230MOL0     H31030   7.125   0.174   6.603  0.9319  0.9339 -0.0317
  230MOL0     H31031   7.229   0.304   6.568 -0.5760 -1.0283 -1.5268
  230MOL0     H31032   8.239  -0.063   6.816  1.3259 -0.5366 -2.5164
  230MOL0     H31033   8.439   0.046   6.709 -0.0789 -0.4107  0.4960
  230MOL0     H31034   8.472   0.582   6.578 -0.3032  1.1027 -0.3147
  230MOL0     H31035   8.537   0.764   6.436 -0.7961 -0.2983 -0.9060
  230MOL0     H31036  10.097   1.438   6.615  1.7866  2.2266 -2.2102
  230MOL0     H31037  10.310   1.505   6.691  0.3940 -1.5550  2.3183
  230MOL0     H31038  10.757   1.617   6.364 -0.6581  0.8344  0.5408
  230MOL0     H31039  10.977   1.695   6.410 -1.1454 -0.4763 -0.6663
  230MOL0     H31040  11.307   1.639   6.545  0.5474  0.0539  1.3735
  230MOL0     H31041  11.178   1.696   6.438 -1.6418  3.1960  1.5150
  230MOL0     H31042  11.114   1.853   6.614  0.9130  0.9678  2.0220
  230MOL0     H31043  11.268   1.873   6.515  3.5191 -3.5829  0.0430
  230MOL0     H31044  11.249   1.758   6.802  4.3675 -2.9004  0.6682
  230MOL0     H31045  11.294   1.936   6.780  0.7714  0.9045 -1.6660
  230MOL0     H31046  11.474   1.698   6.708  1.4677  0.7631  1.2514
  230MOL0     H31047  11.482   1.811   6.840 -1.9362  2.2639  1.5485
  230MOL0     H31048  11.659   2.043   6.561  0.3514 -0.6580 -0.1574
  230MOL0     H31049  10.996   1.427   6.755 -0.2089  1.2146  1.0845
  230MOL0     H31050  10.774   1.354   6.704  0.5572 -0.4916 -0.2050
  231MOL0     O31051   0.156   1.011   7.073 -0.1706  0.1473  0.8126
  231MOL0     C31052   0.274   0.971   7.060 -0.3649 -0.8010  0.0697
  231MOL0     O31053   0.323   0.873   6.975  0.0273  1.1423 -0.2510
  231MOL0     C31054   0.247   0.826   6.871 -0.9449 -0.5036  0.7503
  231MOL0     C31055   0.121   0.782   6.888 -0.0191 -0.7333 -0.0924
  231MOL0     C31056   0.046   0.737   6.779 -0.0941  0.1697 -0.1785
  231MOL0     C31057   0.112   0.705   6.664  0.9194 -0.6586 -0.3629
  231MOL0     O31058   0.056   0.652   6.556  0.0477 -0.5874 -1.0904
  231MOL0     C31059  -0.065   0.711   6.506 -0.8907  0.4798 -0.1714
  231MOL0     C31060  -0.094   0.653   6.373 -1.1671  0.5738  0.2850
  231MOL0     C31061  -0.209   0.724   6.297  0.9949 -0.7498 -0.7084
  231MOL0     C31062  -0.172   0.870   6.264  0.1237 -0.2209  0.5681
  231MOL0     C31063  -0.272   0.946   6.179 -0.4557  0.2491  0.5554
  231MOL0     C31064  -0.223   0.961   6.038 -0.4116 -0.1610 -0.7719
  231MOL0     C31065  -0.318   1.040   5.954 -0.2202  0.3267  0.2801
  231MOL0     C31066  -0.262   1.072   5.817 -0.2660 -0.0944  0.9956
  231MOL0     N31067  -0.359   1.163   5.742  0.5440  0.1697  0.3961
  231MOL0     C31068  -0.330   1.296   5.699  0.6052 -0.1909 -0.7062
  231MOL0     C31069  -0.449   1.340   5.658  0.4299  1.0504  0.1061
  231MOL0     C31070  -0.454   1.475   5.600  0.8773 -0.2437 -0.2719
  231MOL0     C31071  -0.427   1.588   5.700 -0.2952 -0.3952  1.1704
  231MOL0     C31072  -0.411   1.722   5.632 -0.2334 -0.1444  1.4675
  231MOL0     C31073  -0.532   1.772   5.544  0.0382 -0.4241 -0.1571
  231MOL0     O31074  -0.630   1.838   5.629 -0.2689  0.2585 -0.2882
  231MOL0     C31075  -0.757   1.854   5.603 -0.0418 -0.4923  0.6613
  231MOL0     C31076  -0.848   1.873   5.712 -0.1084 -0.1035  0.0236
  231MOL0     C31077  -0.984   1.872   5.694 -0.0032  0.6945 -0.6985
  231MOL0     C31078  -1.058   1.899   5.817  0.7027 -0.6193 -1.2359
  231MOL0     C31079  -1.036   1.845   5.567  0.3449 -0.5008  0.2500
  231MOL0     C31080  -1.186   1.831   5.548 -0.0343  0.1792  0.3785
  231MOL0     O31081  -1.218   1.848   5.414  0.1266  0.3819 -0.3509
  231MOL0     C31082  -1.352   1.842   5.373 -0.2744  0.6663  0.1072
  231MOL0     C31083  -1.371   1.734   5.292 -0.0572  0.4388  0.1009
  231MOL0     C31084  -1.495   1.720   5.226  0.0339  1.0950  0.4322
  231MOL0     C31085  -1.604   1.803   5.253 -0.6805  0.1282 -0.2522
  231MOL0     O31086  -1.723   1.780   5.186  0.6830 -0.3196 -1.0282
  231MOL0     C31087  -1.839   1.809   5.260 -0.4863 -0.0243  0.5233
  231MOL0     C31088  -1.968   1.732   5.232  0.5315 -0.1224  0.7789
  231MOL0     C31089  -2.038   1.781   5.100  0.6399 -0.3601 -0.0577
  231MOL0     C31090  -2.179   1.747   5.109  0.0789  0.3502  0.5946
  231MOL0     C31091  -2.251   1.791   4.987  0.3878 -0.2969  0.7579
  231MOL0     C31092  -2.348   1.902   5.030 -0.4832 -0.6492  0.0738
  231MOL0     C31093  -2.420   1.990   4.934 -0.4612  0.1587  0.1356
  231MOL0     C31094  -2.534   2.074   5.010 -0.1215  0.2775 -0.0785
  231MOL0    Cl31095  -2.604   2.174   4.876  0.4146  0.2217 -0.3879
  231MOL0     C31096  -1.586   1.915   5.339 -0.0229  0.0751  0.3517
  231MOL0     C31097  -1.460   1.935   5.393 -0.4435 -0.5228 -0.0688
  231MOL0     O31098  -1.263   1.790   5.637 -0.4608  0.4375 -0.0385
  231MOL0     C31099  -0.948   1.833   5.459 -0.5969  0.7520 -0.4653
  231MOL0     C31100  -0.812   1.838   5.472 -0.2645  0.0676 -0.4995
  231MOL0     N31101  -0.543   1.242   5.664  0.4371  0.1385 -0.1386
  231MOL0     N31102  -0.495   1.143   5.718 -0.7760 -0.4872  0.7609
  231MOL0     C31103   0.249   0.733   6.660  0.2249 -0.7556  0.4273
  231MOL0     C31104   0.326   0.795   6.757  0.7480 -0.3152 -0.8373
  231MOL0     C31105   0.377   1.047   7.135 -0.6090 -0.3622 -0.4162
  231MOL0     C31106   0.516   1.015   7.121 -0.1424  0.0573  0.4174
  231MOL0     C31107   0.618   1.074   7.194 -0.7404 -0.2703 -0.3598
  231MOL0     C31108   0.583   1.176   7.286 -0.5419  0.3573 -0.6784
  231MOL0     O31109   0.680   1.236   7.360 -0.0500 -0.0682  0.5815
  231MOL0     C31110   0.821   1.206   7.352 -0.1870  0.6632  0.3767
  231MOL0     C31111   0.892   1.260   7.220  0.2917  0.4687 -0.3258
  231MOL0     C31112   1.030   1.198   7.188 -0.5543 -0.2409 -0.4004
  231MOL0     C31113   1.019   1.070   7.104  0.1203 -0.0914 -0.0632
  231MOL0     C31114   0.961   1.094   6.977  0.0576  0.3074  0.0112
  231MOL0     C31115   0.902   1.094   6.873 -0.9967  1.1036  0.7736
  231MOL0     C31116   0.449   1.212   7.297 -0.0457  0.5908 -0.0818
  231MOL0     C31117   0.346   1.145   7.226 -0.1241  0.8612  0.0586
  231MOL0     H31118   0.074   0.783   6.986 -1.6742  1.2962 -0.8282
  231MOL0     H31119  -0.058   0.706   6.791 -0.3963  0.0269 -2.6219
  231MOL0     H31120  -0.147   0.710   6.578 -0.1247  0.6386  0.7234
  231MOL0     H31121  -0.027   0.811   6.484  0.4748 -0.8087 -4.6990
  231MOL0     H31122  -0.002   0.665   6.316 -1.9334  1.5123 -0.7886
  231MOL0     H31123  -0.113   0.545   6.378  0.1192  0.3857  3.9255
  231MOL0     H31124  -0.230   0.675   6.201 -3.4314  1.2414 -1.0194
  231MOL0     H31125  -0.297   0.716   6.361  1.9443  1.2033  0.9331
  231MOL0     H31126  -0.143   0.917   6.358  2.0005  2.7810 -1.3120
  231MOL0     H31127  -0.077   0.871   6.209  0.9865  1.3629  1.9811
  231MOL0     H31128  -0.370   0.897   6.178 -1.5153  2.2640 -0.9502
  231MOL0     H31129  -0.294   1.046   6.216 -0.6130 -0.0206  1.2076
  231MOL0     H31130  -0.131   1.021   6.043 -0.1492 -0.6112  3.0368
  231MOL0     H31131  -0.193   0.869   5.988  2.7095 -0.4700  1.4287
  231MOL0     H31132  -0.408   0.980   5.939 -0.0764  0.4469 -1.2838
  231MOL0     H31133  -0.332   1.137   6.003  4.2430  0.3227  2.0417
  231MOL0     H31134  -0.268   0.976   5.765  2.0443  1.0460 -1.6008
  231MOL0     H31135  -0.159   1.109   5.812  0.2758 -1.7372 -2.1167
  231MOL0     H31136  -0.247   1.366   5.705 -0.5127  1.2274 -1.0631
  231MOL0     H31137  -0.397   1.484   5.507 -1.8468 -1.5101 -2.1785
  231MOL0     H31138  -0.561   1.479   5.577  1.3258 -0.9263 -2.8106
  231MOL0     H31139  -0.334   1.567   5.755  0.6976 -2.9201 -1.2677
  231MOL0     H31140  -0.514   1.602   5.765  1.1154  1.9130  2.7455
  231MOL0     H31141  -0.322   1.725   5.568 -2.1720  3.5519 -1.4167
  231MOL0     H31142  -0.391   1.795   5.711 -2.0948  0.5040  1.3876
  231MOL0     H31143  -0.583   1.685   5.502 -2.8309  0.2906  1.5887
  231MOL0     H31144  -0.514   1.848   5.468 -2.1618  0.1172 -0.1859
  231MOL0     H31145  -0.803   1.870   5.810 -0.3712  1.2827  0.2133
  231MOL0     H31146  -1.100   1.804   5.850  0.7288  0.4893  2.3429
  231MOL0     H31147  -1.003   1.948   5.898  1.4240 -0.6161 -1.7159
  231MOL0     H31148  -1.133   1.977   5.800 -0.0623 -0.6691  1.4512
  231MOL0     H31149  -1.286   1.672   5.263 -0.7455 -0.3401 -0.2834
  231MOL0     H31150  -1.515   1.638   5.158 -2.9214 -0.9752  3.4322
  231MOL0     H31151  -1.821   1.782   5.364 -2.4270 -0.7292  0.7169
  231MOL0     H31152  -1.858   1.915   5.245 -1.4607 -0.0395  1.5880
  231MOL0     H31153  -1.951   1.625   5.215  0.5833  0.2910 -2.3963
  231MOL0     H31154  -2.033   1.748   5.318 -2.2668 -1.5696 -0.9147
  231MOL0     H31155  -1.981   1.752   5.012  0.8555  0.4267 -0.1872
  231MOL0     H31156  -2.036   1.891   5.104  0.4733 -0.3294  4.4219
  231MOL0     H31157  -2.194   1.640   5.123  2.5420  0.0566  1.4581
  231MOL0     H31158  -2.224   1.788   5.199 -0.6758 -0.3764  0.5639
  231MOL0     H31159  -2.306   1.701   4.956  2.3998 -1.2932 -0.1090
  231MOL0     H31160  -2.191   1.818   4.900  0.6721  0.6781  1.2471
  231MOL0     H31161  -2.424   1.863   5.097  0.5881  0.2594  1.8970
  231MOL0     H31162  -2.286   1.969   5.091 -0.1811 -1.8834  1.1603
  231MOL0     H31163  -2.469   1.924   4.862 -0.5191 -0.5017  0.7730
  231MOL0     H31164  -2.355   2.059   4.879 -1.4319 -1.6761 -3.6175
  231MOL0     H31165  -2.485   2.132   5.089  2.1059  0.3265 -1.4114
  231MOL0     H31166  -2.613   2.008   5.048 -0.8121  1.8783  1.3753
  231MOL0     H31167  -1.662   1.989   5.364 -0.0756  0.9066 -2.0574
  231MOL0     H31168  -1.430   2.024   5.447  0.0882 -0.8193  0.1292
  231MOL0     H31169  -0.977   1.834   5.355 -2.3480  0.0577 -0.0288
  231MOL0     H31170  -0.742   1.810   5.394 -0.9816 -0.4136 -0.9734
  231MOL0     H31171   0.301   0.714   6.567 -0.2583 -2.7610  0.5144
  231MOL0     H31172   0.428   0.826   6.741 -0.4466  4.1429 -1.1296
  231MOL0     H31173   0.531   0.949   7.036 -1.5111  1.2996 -0.8672
  231MOL0     H31174   0.720   1.048   7.170 -0.8760  0.9445 -2.5229
  231MOL0     H31175   0.874   1.247   7.438  0.8100  2.8896 -1.1909
  231MOL0     H31176   0.833   1.097   7.357  0.6476  0.7360  0.2182
  231MOL0     H31177   0.916   1.364   7.244 -1.0208  0.6724  0.2027
  231MOL0     H31178   0.818   1.255   7.139 -0.3263 -3.3887  0.2511
  231MOL0     H31179   1.092   1.181   7.277 -0.8575 -2.9240 -0.6188
  231MOL0     H31180   1.092   1.268   7.132 -3.0246  0.8098 -2.0054
  231MOL0     H31181   0.962   0.994   7.159  1.2114 -1.8748 -1.3045
  231MOL0     H31182   1.116   1.027   7.079  0.8665  0.6621  1.3608
  231MOL0     H31183   0.848   1.092   6.780  0.0405 -2.9757  0.0575
  231MOL0     H31184   0.418   1.282   7.374 -0.9462  1.2272 -0.9995
  231MOL0     H31185   0.245   1.173   7.255 -0.0364  1.2556 -0.0044
  232MOL0     O31186   2.024   2.129   9.563 -0.2646  0.1622  0.2417
  232MOL0     C31187   1.975   2.232   9.516  0.3088  0.0839 -0.0486
  232MOL0     O31188   1.842   2.270   9.527  0.9983 -0.0199  0.1534
  232MOL0     C31189   1.753   2.164   9.548 -0.1683 -0.6856  0.2090
  232MOL0     C31190   1.651   2.179   9.637 -0.6629 -0.7897 -0.4172
  232MOL0     C31191   1.550   2.075   9.660 -1.4289 -0.0140 -0.1576
  232MOL0     C31192   1.555   1.961   9.573 -1.1874 -0.1924 -0.8612
  232MOL0     O31193   1.472   1.855   9.575  0.7326 -0.8533 -0.1252
  232MOL0     C31194   1.426   1.805   9.701  0.8542 -0.5946  0.3915
  232MOL0     C31195   1.288   1.868   9.713 -0.9274  0.2293 -0.2220
  232MOL0     C31196   1.225   1.876   9.857 -0.1756 -0.4902  0.3995
  232MOL0     C31197   1.094   1.941   9.860  0.4897  0.4663  0.8076
  232MOL0     C31198   0.977   1.862   9.800 -0.5492  0.0900 -0.3775
  232MOL0     C31199   0.844   1.931   9.833  1.0048  0.0041 -0.2740
  232MOL0     C31200   0.816   2.080   9.790  0.0345  0.2349 -0.0073
  232MOL0     C31201   0.784   2.080   9.639 -0.1437 -0.1099  0.0780
  232MOL0     N31202   0.821   2.208   9.572  0.4398 -0.6772  0.1161
  232MOL0     C31203   0.758   2.286   9.478  0.4538  0.9792  0.0094
  232MOL0     C31204   0.842   2.389   9.445  0.5619  0.3676  0.0045
  232MOL0     C31205   0.806   2.488   9.329 -0.0661  0.0792  0.0073
  232MOL0     C31206   0.922   2.473   9.227 -0.4571 -0.2599  0.5360
  232MOL0     C31207   1.047   2.556   9.264  0.1767  0.2042 -0.7300
  232MOL0     C31208   1.149   2.590   9.152 -0.3051  0.0529  0.2335
  232MOL0     O31209   1.184   2.470   9.084  0.4652 -0.2622 -0.1819
  232MOL0     C31210   1.253   2.475   8.971 -0.6436 -0.2995  1.1818
  232MOL0     C31211   1.281   2.357   8.896  0.2019  0.1085  0.3877
  232MOL0     C31212   1.363   2.360   8.784 -0.5015 -0.4306 -0.3106
  232MOL0     C31213   1.392   2.216   8.733 -0.2475 -0.3697  0.0422
  232MOL0     C31214   1.408   2.484   8.730 -1.1848  0.7623  0.0622
  232MOL0     C31215   1.487   2.494   8.596  0.4226  0.8529  0.2886
  232MOL0     O31216   1.578   2.585   8.600  0.1391 -0.2429 -0.9206
  232MOL0     C31217   1.666   2.602   8.496  1.0260 -0.2434 -0.2364
  232MOL0     C31218   1.802   2.575   8.507 -0.1302 -0.7124  0.5173
  232MOL0     C31219   1.893   2.583   8.404 -0.2306  0.1222  0.8250
  232MOL0     C31220   1.851   2.629   8.278 -0.2211  0.8913 -0.0508
  232MOL0     O31221   1.944   2.653   8.177  0.2006 -0.4927  0.2505
  232MOL0     C31222   1.921   2.764   8.080  0.9906 -0.1578 -0.3336
  232MOL0     C31223   2.024   2.763   7.967  0.0179  0.6535 -0.0875
  232MOL0     C31224   2.053   2.628   7.912 -1.7940  0.5477  0.5477
  232MOL0     C31225   2.145   2.634   7.793 -0.5649 -0.3675 -0.0963
  232MOL0     C31226   2.167   2.501   7.724 -0.0652 -0.3497 -0.3908
  232MOL0     C31227   2.260   2.411   7.804  0.0974  0.1622 -0.1583
  232MOL0     C31228   2.358   2.327   7.719  0.0497  0.2443 -0.8645
  232MOL0     C31229   2.435   2.217   7.801 -0.1399  0.0120 -0.5798
  232MOL0    Cl31230   2.517   2.105   7.683 -0.1552 -0.1513  0.0050
  232MOL0     C31231   1.710   2.648   8.266 -0.4135 -1.1464 -0.0881
  232MOL0     C31232   1.619   2.642   8.366  0.1513 -1.7728  0.0464
  232MOL0     O31233   1.480   2.412   8.505  0.1683  0.1458 -0.9338
  232MOL0     C31234   1.387   2.604   8.802 -0.3533 -0.8039  0.2673
  232MOL0     C31235   1.316   2.600   8.919  0.6279  0.9831 -0.6788
  232MOL0     N31236   0.952   2.385   9.525  0.5559  0.3851 -0.2556
  232MOL0     N31237   0.943   2.272   9.589  0.8521  0.1880  0.0322
  232MOL0     C31238   1.661   1.952   9.486  0.1850  0.8270 -0.7126
  232MOL0     C31239   1.758   2.046   9.471 -1.4675  0.2372 -0.1392
  232MOL0     C31240   2.065   2.319   9.442 -0.0293  1.4831  0.2945
  232MOL0     C31241   2.201   2.282   9.418 -0.5719  0.2268 -0.5702
  232MOL0     C31242   2.285   2.371   9.349  0.3452  0.2229 -0.2684
  232MOL0     C31243   2.246   2.500   9.312  0.3184 -0.2487  0.2984
  232MOL0     O31244   2.351   2.581   9.275 -0.0282 -0.2141  0.0210
  232MOL0     C31245   2.322   2.709   9.231  0.6400 -0.3207  0.0003
  232MOL0     C31246   2.457   2.782   9.204 -0.6164  0.3641  0.0970
  232MOL0     C31247   2.533   2.722   9.085 -0.9763 -0.5897 -0.3424
  232MOL0     C31248   2.651   2.805   9.045 -0.9963 -0.3636 -0.7109
  232MOL0     C31249   2.767   2.800   9.128  0.1772 -0.1372 -0.8976
  232MOL0     C31250   2.866   2.812   9.193  0.3833 -0.3237 -0.3271
  232MOL0     C31251   2.106   2.533   9.328  0.0785  0.2270 -0.2977
  232MOL0     C31252   2.021   2.448   9.397 -0.5554  0.5738 -0.3343
  232MOL0     H31253   1.645   2.267   9.700  1.5072 -0.5392 -0.5154
  232MOL0     H31254   1.481   2.089   9.743  0.1615  2.0660  0.9410
  232MOL0     H31255   1.415   1.696   9.703 -2.0126 -0.4061 -0.2805
  232MOL0     H31256   1.486   1.838   9.786 -0.2331  0.3309  0.8355
  232MOL0     H31257   1.292   1.974   9.684  0.5924  1.0660  2.5946
  232MOL0     H31258   1.210   1.817   9.657 -3.4536  2.8398  0.6604
  232MOL0     H31259   1.214   1.770   9.885  0.2848 -0.2768  1.4523
  232MOL0     H31260   1.291   1.918   9.933 -2.0447 -1.2225  2.5443
  232MOL0     H31261   1.075   1.961   9.966 -1.8142  3.5751 -0.0510
  232MOL0     H31262   1.095   2.040   9.815 -1.5721  1.0267  1.8570
  232MOL0     H31263   0.998   1.837   9.696  2.2480  1.9971 -0.3677
  232MOL0     H31264   0.973   1.768   9.855  1.4806  1.2563  1.9384
  232MOL0     H31265   0.758   1.873   9.797  1.0207  0.4508 -1.0676
  232MOL0     H31266   0.837   1.935   9.942 -5.0913  2.6599 -0.3564
  232MOL0     H31267   0.720   2.113   9.830 -1.0821 -2.2492 -0.4575
  232MOL0     H31268   0.901   2.146   9.805  0.2698 -0.1128  0.2035
  232MOL0     H31269   0.680   2.054   9.617 -0.4112  0.8884  0.1237
  232MOL0     H31270   0.848   1.999   9.603  0.4590 -0.2696  1.4343
  232MOL0     H31271   0.664   2.271   9.425 -0.3050  0.5031  1.4315
  232MOL0     H31272   0.713   2.456   9.280  0.8334 -1.0074 -1.0429
  232MOL0     H31273   0.795   2.591   9.365 -5.3477  0.4256 -1.7531
  232MOL0     H31274   0.896   2.505   9.126  0.6943 -1.2511 -0.1013
  232MOL0     H31275   0.953   2.370   9.207 -1.2078 -0.6629  1.4078
  232MOL0     H31276   1.096   2.491   9.337 -1.3833 -1.9314 -1.4687
  232MOL0     H31277   1.017   2.649   9.313  0.5411 -0.7011  1.3261
  232MOL0     H31278   1.230   2.635   9.211 -0.8066  0.6858  0.4542
  232MOL0     H31279   1.110   2.670   9.088 -2.5278 -1.5873 -0.5817
  232MOL0     H31280   1.237   2.270   8.945 -0.7891  0.5901  0.3749
  232MOL0     H31281   1.498   2.195   8.716  0.0885  0.0232  1.5189
  232MOL0     H31282   1.371   2.129   8.795  2.5622 -0.0270  1.6570
  232MOL0     H31283   1.336   2.198   8.640  0.1491 -0.1369 -0.2474
  232MOL0     H31284   1.840   2.543   8.604  1.5877 -0.1430  0.0701
  232MOL0     H31285   1.996   2.551   8.422 -0.1387  0.3342  0.6829
  232MOL0     H31286   1.823   2.747   8.034 -0.5510  0.3282  2.5891
  232MOL0     H31287   1.916   2.863   8.125 -1.8557 -0.8488  1.1142
  232MOL0     H31288   1.984   2.824   7.885 -1.7824  0.0640  0.2973
  232MOL0     H31289   2.114   2.808   8.010  0.2592 -0.1791  0.3109
  232MOL0     H31290   1.957   2.579   7.890  0.0884 -3.5251  0.4227
  232MOL0     H31291   2.100   2.571   7.993 -3.3145 -0.0785  1.0394
  232MOL0     H31292   2.102   2.701   7.718  3.0769 -1.9092 -4.0393
  232MOL0     H31293   2.245   2.669   7.821 -0.2969 -0.8955 -0.3554
  232MOL0     H31294   2.226   2.529   7.636 -0.7290  3.6360  0.2531
  232MOL0     H31295   2.078   2.447   7.690  2.4014 -4.4971 -1.0574
  232MOL0     H31296   2.333   2.465   7.864  2.4151 -2.1571 -0.7315
  232MOL0     H31297   2.200   2.352   7.874  0.3127  1.5291  1.2290
  232MOL0     H31298   2.425   2.388   7.658 -0.1853 -0.1893 -1.5683
  232MOL0     H31299   2.297   2.266   7.652  0.6793  1.6165 -2.7700
  232MOL0     H31300   2.360   2.158   7.855  1.2734 -0.9845  0.3735
  232MOL0     H31301   2.497   2.267   7.876 -0.8842 -1.4519  1.0786
  232MOL0     H31302   1.680   2.680   8.167 -0.1129 -0.2112  0.1078
  232MOL0     H31303   1.516   2.672   8.353  1.2946  2.1360 -1.5644
  232MOL0     H31304   1.418   2.696   8.754 -0.1799 -0.5967  0.7746
  232MOL0     H31305   1.305   2.693   8.973  0.1855  0.7040 -0.2779
  232MOL0     H31306   1.676   1.868   9.419  1.9535  0.5598 -0.0420
  232MOL0     H31307   1.837   2.026   9.400 -0.0547 -0.1263  1.4621
  232MOL0     H31308   2.241   2.188   9.455  2.0395  0.8714 -1.5485
  232MOL0     H31309   2.389   2.340   9.341 -0.7299 -3.6850 -1.1933
  232MOL0     H31310   2.257   2.711   9.142 -3.5181 -3.8045  2.5414
  232MOL0     H31311   2.273   2.758   9.316  1.5996 -2.7362  2.0569
  232MOL0     H31312   2.517   2.781   9.295 -0.7375 -1.9301  0.2241
  232MOL0     H31313   2.441   2.886   9.176 -2.1894 -0.0338 -0.5863
  232MOL0     H31314   2.467   2.713   8.997 -3.2542  0.7163  1.1324
  232MOL0     H31315   2.565   2.621   9.114  2.1256  0.7985  1.5101
  232MOL0     H31316   2.623   2.910   9.056 -3.6278 -1.0987  0.4375
  232MOL0     H31317   2.685   2.771   8.947 -1.2009  0.6992 -1.1678
  232MOL0     H31318   2.956   2.814   9.251 -0.9987  0.7839  1.9026
  232MOL0     H31319   2.078   2.634   9.302 -0.7134  0.1133  0.0886
  232MOL0     H31320   1.918   2.472   9.421 -0.1204  0.8862  1.4025
  233MOL0     O31321   9.001   7.862   3.293  0.5112 -0.6028  0.9920
  233MOL0     C31322   9.012   7.808   3.402  0.6891  0.6052  0.9780
  233MOL0     O31323   8.911   7.790   3.493  0.1988 -0.6849  0.8161
  233MOL0     C31324   8.785   7.815   3.453 -0.1485  0.0847  0.7548
  233MOL0     C31325   8.735   7.941   3.466  0.6422 -0.0458  0.0818
  233MOL0     C31326   8.597   7.965   3.455 -0.6654  0.0398 -0.3921
  233MOL0     C31327   8.510   7.862   3.423 -0.0065 -0.0183  0.6201
  233MOL0     O31328   8.374   7.878   3.423 -1.2088  1.0027 -0.1267
  233MOL0     C31329   8.325   8.011   3.398  0.1113 -0.7314 -0.3085
  233MOL0     C31330   8.175   7.997   3.386 -0.6544  0.0179  0.0744
  233MOL0     C31331   8.102   8.135   3.381  0.2906 -0.5865  0.0948
  233MOL0     C31332   7.945   8.116   3.368  1.2260 -0.1832 -0.1831
  233MOL0     C31333   7.905   8.074   3.227  0.2929  0.7523 -0.0886
  233MOL0     C31334   7.995   8.130   3.117  0.1333  0.1173 -0.3954
  233MOL0     C31335   7.933   8.110   2.977 -0.1079 -0.6207  0.5933
  233MOL0     C31336   7.895   7.966   2.939  1.0883 -0.3952  0.1646
  233MOL0     N31337   7.825   7.963   2.809 -0.2672 -0.6332 -0.7978
  233MOL0     C31338   7.886   7.951   2.689  0.0135 -0.3106 -0.6053
  233MOL0     C31339   7.785   7.935   2.600  0.2398 -0.3751  0.1821
  233MOL0     C31340   7.796   7.931   2.451  0.2975  0.6792  0.0684
  233MOL0     C31341   7.713   7.805   2.387  0.7317  0.3126  0.4709
  233MOL0     C31342   7.740   7.774   2.231  0.4264  0.6982 -0.2910
  233MOL0     C31343   7.793   7.882   2.150 -0.3900 -0.8775  0.6566
  233MOL0     O31344   7.928   7.936   2.184 -0.4274 -0.3544  0.1030
  233MOL0     C31345   8.048   7.920   2.113 -0.3100  0.1837  0.1171
  233MOL0     C31346   8.051   7.848   1.996 -0.4780  0.2114  0.1808
  233MOL0     C31347   8.178   7.831   1.937  1.0493  0.4230  0.2452
  233MOL0     C31348   8.169   7.733   1.813  0.3830 -1.0277  0.0533
  233MOL0     C31349   8.290   7.887   1.994 -0.4761 -0.3210 -0.7078
  233MOL0     C31350   8.434   7.860   1.958  0.3892  0.0154 -0.0734
  233MOL0     O31351   8.450   7.776   1.860  0.5237  0.0447 -0.2508
  233MOL0     C31352   8.575   7.750   1.810 -0.1380  0.1813  0.0117
  233MOL0     C31353   8.627   7.621   1.830  0.9452  0.9631  0.1916
  233MOL0     C31354   8.749   7.586   1.764  0.0478  0.0017  0.3457
  233MOL0     C31355   8.815   7.677   1.676  0.4385  1.3533 -0.3335
  233MOL0     O31356   8.928   7.627   1.616  0.8122 -0.5555 -0.5151
  233MOL0     C31357   9.001   7.710   1.517  0.2022 -0.4740  0.9252
  233MOL0     C31358   9.107   7.617   1.449 -0.6676 -0.7369  0.0053
  233MOL0     C31359   9.173   7.678   1.332  0.0349  0.3852 -0.0874
  233MOL0     C31360   9.263   7.580   1.271  0.5970 -0.5436 -0.5520
  233MOL0     C31361   9.354   7.641   1.158  0.0333 -0.5347  0.4440
  233MOL0     C31362   9.461   7.540   1.107  0.0923 -0.1587 -0.3085
  233MOL0     C31363   9.597   7.613   1.088 -0.5255 -0.5745 -0.1883
  233MOL0     C31364   9.716   7.530   1.063 -0.3361  0.9266  0.5218
  233MOL0    Cl31365   9.769   7.434   1.201  0.1110  0.1554 -0.0107
  233MOL0     C31366   8.756   7.804   1.653  0.3925 -0.2479  0.1290
  233MOL0     C31367   8.645   7.844   1.728  0.3287 -0.0050 -0.3174
  233MOL0     O31368   8.525   7.908   2.027 -0.0957  0.2022 -0.7743
  233MOL0     C31369   8.269   7.978   2.096  0.4199  0.0131  0.3813
  233MOL0     C31370   8.149   7.995   2.152 -0.5242  0.3052  0.3760
  233MOL0     N31371   7.662   7.937   2.665  0.5196 -1.0998  0.0197
  233MOL0     N31372   7.685   7.954   2.797  0.4502  0.6696 -0.0291
  233MOL0     C31373   8.560   7.740   3.392  0.1050  0.9093 -0.3683
  233MOL0     C31374   8.701   7.717   3.409 -0.7111  0.3840 -0.6208
  233MOL0     C31375   9.153   7.785   3.449  0.2393  1.2044  1.0840
  233MOL0     C31376   9.257   7.836   3.370 -0.7979 -0.0242  0.1879
  233MOL0     C31377   9.388   7.806   3.404  0.2556 -0.1748 -0.8583
  233MOL0     C31378   9.416   7.719   3.513 -0.1619  0.0926 -0.6447
  233MOL0     O31379   9.546   7.689   3.543  0.2266 -0.6521 -0.2756
  233MOL0     C31380   9.587   7.565   3.485 -0.4724 -0.5239 -0.6122
  233MOL0     C31381   9.733   7.532   3.520 -0.7314  0.4458  0.0666
  233MOL0     C31382   9.827   7.648   3.493 -0.3790 -0.8211  0.8238
  233MOL0     C31383   9.973   7.606   3.501  0.5097  0.3866  0.1627
  233MOL0     C31384  10.041   7.622   3.627  0.0156  0.2370 -0.0541
  233MOL0     C31385  10.096   7.610   3.729 -0.5133 -0.2244 -1.5665
  233MOL0     C31386   9.315   7.650   3.574  1.6551 -0.2964  0.4684
  233MOL0     C31387   9.182   7.680   3.541 -0.7106 -0.4413  0.1125
  233MOL0     H31388   8.811   8.013   3.492  0.6613 -0.3120  0.8009
  233MOL0     H31389   8.566   8.064   3.485 -1.5770  0.2126 -1.8040
  233MOL0     H31390   8.339   8.068   3.490 -4.1978  1.8929 -1.0058
  233MOL0     H31391   8.363   8.075   3.318 -0.1321  1.2255  1.0519
  233MOL0     H31392   8.159   7.936   3.297  5.2270 -0.5147 -1.0232
  233MOL0     H31393   8.126   7.935   3.461 -2.2752  0.2314 -0.7644
  233MOL0     H31394   8.125   8.189   3.473  0.3382  1.7463 -1.2022
  233MOL0     H31395   8.149   8.200   3.306 -0.5338 -0.5989 -0.4445
  233MOL0     H31396   7.905   8.061   3.453  0.1331 -1.8861 -1.7248
  233MOL0     H31397   7.901   8.216   3.374 -0.0146 -0.4701 -2.8436
  233MOL0     H31398   7.889   7.966   3.224  0.6420  0.6296  1.6159
  233MOL0     H31399   7.802   8.104   3.208  0.0374  1.0811  1.6581
  233MOL0     H31400   8.010   8.237   3.133 -0.3111  0.3236 -1.2955
  233MOL0     H31401   8.088   8.075   3.133  1.3714  2.2886  0.1862
  233MOL0     H31402   7.849   8.180   2.965  0.1921  0.0118  1.9778
  233MOL0     H31403   7.994   8.150   2.896 -0.7605  0.3107  0.5415
  233MOL0     H31404   7.822   7.931   3.013  0.5480  2.2399  0.9731
  233MOL0     H31405   7.987   7.907   2.929  2.3239  1.7796 -2.8978
  233MOL0     H31406   7.992   7.957   2.670  0.1058 -0.3045 -0.0963
  233MOL0     H31407   7.764   8.028   2.410 -2.7061  0.3423  1.3970
  233MOL0     H31408   7.903   7.925   2.428  0.1420  1.3546 -0.8926
  233MOL0     H31409   7.609   7.837   2.397  0.8257  0.2214  1.9761
  233MOL0     H31410   7.720   7.712   2.443  1.8923 -2.4522 -3.7253
  233MOL0     H31411   7.644   7.753   2.182  0.5263  0.7340 -0.5001
  233MOL0     H31412   7.804   7.686   2.218  3.2552  2.5709  0.1691
  233MOL0     H31413   7.722   7.965   2.149 -0.4480 -0.9192  0.9625
  233MOL0     H31414   7.799   7.840   2.050 -0.3899 -1.1285  0.7607
  233MOL0     H31415   7.961   7.815   1.946 -0.7120  1.5609 -0.3253
  233MOL0     H31416   8.232   7.766   1.730  1.2047  0.9382  1.3797
  233MOL0     H31417   8.183   7.632   1.854 -2.6744 -0.4675  2.9063
  233MOL0     H31418   8.064   7.729   1.782  0.5397 -3.2211 -0.3813
  233MOL0     H31419   8.581   7.553   1.901 -0.4841  0.2189 -1.3939
  233MOL0     H31420   8.795   7.488   1.766 -3.1188 -1.7008 -1.1185
  233MOL0     H31421   8.940   7.749   1.436  2.4329  1.1509 -0.1051
  233MOL0     H31422   9.057   7.791   1.565  1.8737 -1.6900  1.1469
  233MOL0     H31423   9.188   7.583   1.513 -2.4764 -3.2015  1.1584
  233MOL0     H31424   9.050   7.530   1.415  1.6500 -2.0572 -0.7045
  233MOL0     H31425   9.234   7.762   1.368  2.4113 -1.4701  0.5049
  233MOL0     H31426   9.109   7.726   1.258  0.4562 -2.1191 -2.2146
  233MOL0     H31427   9.323   7.537   1.352  0.3611 -0.6659 -0.4404
  233MOL0     H31428   9.198   7.505   1.226  0.3034  0.3631 -1.6892
  233MOL0     H31429   9.401   7.736   1.188 -0.2629 -0.3002  0.1720
  233MOL0     H31430   9.289   7.670   1.075 -2.1305  0.9240  2.5158
  233MOL0     H31431   9.470   7.470   1.191  0.6576 -0.4956 -0.6471
  233MOL0     H31432   9.426   7.488   1.018  1.1622  4.3171 -3.7261
  233MOL0     H31433   9.621   7.671   1.178  2.2187 -2.3475  0.3386
  233MOL0     H31434   9.594   7.681   1.002  0.6644  1.1397  1.0460
  233MOL0     H31435   9.788   7.603   1.024  0.2426  0.6220  0.9944
  233MOL0     H31436   9.699   7.462   0.979  2.9044  0.3865  0.1519
  233MOL0     H31437   8.807   7.868   1.582  2.2621  0.2034  1.7806
  233MOL0     H31438   8.608   7.945   1.714 -0.7230 -0.4940 -1.1613
  233MOL0     H31439   8.357   8.032   2.128 -0.2968  0.7757  1.1367
  233MOL0     H31440   8.141   8.071   2.230  1.1088  1.8221 -0.8585
  233MOL0     H31441   8.488   7.663   3.367  1.0021  0.3974 -1.5085
  233MOL0     H31442   8.728   7.612   3.414 -2.1354  0.0261  3.5571
  233MOL0     H31443   9.235   7.909   3.293 -2.1059 -0.0809  0.4779
  233MOL0     H31444   9.458   7.853   3.336  0.2416  1.6885  0.3405
  233MOL0     H31445   9.534   7.484   3.536 -0.4286 -1.0513 -1.3895
  233MOL0     H31446   9.572   7.550   3.378 -0.2726 -3.0001 -0.3443
  233MOL0     H31447   9.762   7.438   3.470  1.6205  0.1718  1.7842
  233MOL0     H31448   9.750   7.500   3.623 -2.5330 -0.4646  0.1217
  233MOL0     H31449   9.807   7.739   3.551 -0.4291 -1.1104  1.2582
  233MOL0     H31450   9.823   7.669   3.385  2.5943  0.3150  0.8374
  233MOL0     H31451  10.029   7.663   3.426  2.4206 -2.2461 -0.5650
  233MOL0     H31452   9.970   7.504   3.461 -6.0647 -0.0759  0.7550
  233MOL0     H31453  10.163   7.588   3.810 -1.2743  1.4345 -0.4368
  233MOL0     H31454   9.332   7.605   3.671 -0.3142  2.3897  2.2083
  233MOL0     H31455   9.110   7.639   3.612 -1.0115  0.2444  0.2114
  234MOL0     O31456   1.654   5.309   8.146 -0.3904 -0.1800  0.0114
  234MOL0     C31457   1.668   5.421   8.202  0.0896  0.3890  0.3308
  234MOL0     O31458   1.570   5.497   8.265  0.0255  0.6785  0.2998
  234MOL0     C31459   1.440   5.467   8.239  0.1371 -1.0088  0.3018
  234MOL0     C31460   1.344   5.567   8.232  0.5445 -0.8625  0.0590
  234MOL0     C31461   1.210   5.538   8.223 -0.3251 -0.6941  0.6238
  234MOL0     C31462   1.158   5.408   8.195  0.3442 -0.2464  0.3640
  234MOL0     O31463   1.017   5.377   8.183  0.3320  0.4493 -0.2712
  234MOL0     C31464   0.974   5.245   8.152 -0.0784  0.0307 -0.2013
  234MOL0     C31465   0.812   5.229   8.170 -0.2541 -0.4379 -0.9003
  234MOL0     C31466   0.739   5.318   8.073 -0.9085  0.2151  0.3498
  234MOL0     C31467   0.590   5.342   8.107  0.0621  0.4868 -0.1236
  234MOL0     C31468   0.505   5.209   8.073  0.1909  0.3652  0.1027
  234MOL0     C31469   0.354   5.248   8.102  0.0693  0.2048  0.3977
  234MOL0     C31470   0.264   5.129   8.077  1.1608  0.4159 -0.6015
  234MOL0     C31471   0.122   5.154   8.132 -0.4291  0.8371 -0.1056
  234MOL0     N31472   0.021   5.072   8.069  0.3337  0.3579  0.0831
  234MOL0     C31473  -0.095   5.027   8.128  0.3347 -0.1090 -0.2411
  234MOL0     C31474  -0.138   4.927   8.047  0.3763  0.5231  0.7237
  234MOL0     C31475  -0.258   4.837   8.059  0.3784 -0.6527 -0.5282
  234MOL0     C31476  -0.219   4.695   8.058  0.5754 -0.1569  0.3444
  234MOL0     C31477  -0.336   4.596   8.092  0.5573  0.4326 -0.0368
  234MOL0     C31478  -0.298   4.449   8.054 -0.3887  0.5281 -0.6714
  234MOL0     O31479  -0.412   4.357   8.043 -0.3158 -0.2895 -0.3027
  234MOL0     C31480  -0.512   4.370   8.133  0.5100  0.4054 -0.5565
  234MOL0     C31481  -0.479   4.367   8.269  0.9402 -0.3480  0.6759
  234MOL0     C31482  -0.578   4.366   8.358  0.5046  0.2183  0.0169
  234MOL0     C31483  -0.525   4.352   8.495  0.3546 -0.3921  0.5452
  234MOL0     C31484  -0.715   4.367   8.316  0.1604  0.3140 -0.4216
  234MOL0     C31485  -0.833   4.383   8.418  0.3569 -0.1025  0.7267
  234MOL0     O31486  -0.948   4.446   8.373  0.3934  0.8526 -0.0654
  234MOL0     C31487  -1.073   4.418   8.422  0.0933  0.8161  0.0171
  234MOL0     C31488  -1.113   4.287   8.463 -0.9022 -0.5750 -0.3494
  234MOL0     C31489  -1.239   4.259   8.493  0.8014  1.1204 -0.3073
  234MOL0     C31490  -1.343   4.357   8.476  0.5473 -0.8614  1.1005
  234MOL0     O31491  -1.475   4.326   8.491  0.0133 -0.7287  0.6248
  234MOL0     C31492  -1.520   4.195   8.471 -0.8881  0.2635 -0.2011
  234MOL0     C31493  -1.656   4.178   8.528 -0.1551  0.4473 -0.3750
  234MOL0     C31494  -1.641   4.189   8.686 -0.6117 -0.1593  0.8303
  234MOL0     C31495  -1.586   4.060   8.749  0.6483  1.2376 -0.5219
  234MOL0     C31496  -1.582   4.076   8.903  0.0418  0.3732  0.5321
  234MOL0     C31497  -1.715   4.094   8.978  0.3400  0.2694  0.5440
  234MOL0     C31498  -1.706   4.095   9.134 -0.1728  0.6073 -0.4718
  234MOL0     C31499  -1.844   4.083   9.187 -0.3913 -0.7401  0.0179
  234MOL0    Cl31500  -1.847   4.157   9.347 -0.1944  0.2143  0.2199
  234MOL0     C31501  -1.313   4.482   8.418  0.1142  0.8151 -0.0234
  234MOL0     C31502  -1.173   4.513   8.400  0.0390 -0.1695 -0.2837
  234MOL0     O31503  -0.818   4.332   8.527  0.0976 -0.3239  0.0544
  234MOL0     C31504  -0.747   4.376   8.183  0.0295 -0.7561 -0.3215
  234MOL0     C31505  -0.638   4.374   8.091 -0.4824  0.1230  0.1011
  234MOL0     N31506  -0.055   4.925   7.939 -0.6634  0.1796 -0.5504
  234MOL0     N31507   0.041   5.010   7.946  0.1057  0.0815  0.2434
  234MOL0     C31508   1.257   5.305   8.197  0.6091 -0.1005  0.0758
  234MOL0     C31509   1.389   5.342   8.230  0.7030  0.0502  0.7546
  234MOL0     C31510   1.813   5.469   8.204  1.0055 -0.0323  0.5653
  234MOL0     C31511   1.911   5.390   8.153 -0.3713 -0.0500 -0.1499
  234MOL0     C31512   2.046   5.423   8.151  0.0767 -0.3451 -0.3096
  234MOL0     C31513   2.086   5.544   8.200 -0.5523  0.4989 -0.4872
  234MOL0     O31514   2.221   5.569   8.199  0.8283  0.6343 -0.9326
  234MOL0     C31515   2.283   5.676   8.279  0.2823  0.2672  1.2943
  234MOL0     C31516   2.290   5.643   8.430 -0.4276 -0.1434 -0.2563
  234MOL0     C31517   2.353   5.749   8.522  0.9462 -0.2268 -1.2958
  234MOL0     C31518   2.267   5.884   8.518 -0.0949 -0.9658 -0.1684
  234MOL0     C31519   2.120   5.885   8.543  0.1060  0.0182  1.2383
  234MOL0     C31520   2.001   5.892   8.555 -0.1537  0.9080 -0.4938
  234MOL0     C31521   1.983   5.621   8.264 -1.0238 -0.9903 -0.4072
  234MOL0     C31522   1.848   5.586   8.259 -0.7276 -0.3661 -0.4155
  234MOL0     H31523   1.360   5.674   8.224  1.1486 -0.8206  1.5784
  234MOL0     H31524   1.144   5.624   8.219  1.3241  0.6432  0.8841
  234MOL0     H31525   0.991   5.241   8.044  0.4506  0.3805 -0.1362
  234MOL0     H31526   1.030   5.168   8.205 -1.5139 -1.0262 -0.1958
  234MOL0     H31527   0.783   5.124   8.156  2.6980 -1.5163  0.2971
  234MOL0     H31528   0.792   5.250   8.275  2.9212 -0.6419 -0.1339
  234MOL0     H31529   0.780   5.419   8.072 -2.3208  0.8119  0.6223
  234MOL0     H31530   0.756   5.287   7.970  0.7086 -1.0537  0.9416
  234MOL0     H31531   0.575   5.376   8.210  0.4283 -1.3691  0.5705
  234MOL0     H31532   0.558   5.424   8.042  0.2208  0.6022 -0.0571
  234MOL0     H31533   0.524   5.165   7.975  1.2984 -0.4491  0.6652
  234MOL0     H31534   0.549   5.136   8.141  0.2907  0.6266  0.3218
  234MOL0     H31535   0.347   5.291   8.203  2.0878  1.4605  0.0656
  234MOL0     H31536   0.331   5.325   8.028  0.9562 -0.0893 -0.1928
  234MOL0     H31537   0.264   5.115   7.969 -2.7346  1.7079 -0.8994
  234MOL0     H31538   0.294   5.030   8.113  0.3134  0.7158  1.0301
  234MOL0     H31539   0.105   5.258   8.102 -0.0894  0.7155 -0.7480
  234MOL0     H31540   0.119   5.150   8.241 -0.6776  3.9917  0.0860
  234MOL0     H31541  -0.130   5.059   8.226  1.6440  1.6887 -0.3215
  234MOL0     H31542  -0.311   4.876   8.146  1.3508 -0.0830 -0.1766
  234MOL0     H31543  -0.322   4.867   7.975  1.0814  1.4738 -0.3783
  234MOL0     H31544  -0.145   4.681   8.137 -0.2920 -2.7293  0.8337
  234MOL0     H31545  -0.179   4.676   7.958  1.1302  0.5625  0.4271
  234MOL0     H31546  -0.421   4.618   8.028 -0.7452 -1.0214  1.1014
  234MOL0     H31547  -0.361   4.618   8.197  1.2571  2.0345 -0.1758
  234MOL0     H31548  -0.237   4.407   8.134 -2.4860 -1.9057 -0.2213
  234MOL0     H31549  -0.239   4.450   7.961  0.6367  1.1779 -0.0303
  234MOL0     H31550  -0.374   4.357   8.298  0.9915 -1.2095  0.2251
  234MOL0     H31551  -0.581   4.278   8.554 -2.4099 -0.0820 -1.4992
  234MOL0     H31552  -0.427   4.303   8.499  0.3849 -0.3219  0.7310
  234MOL0     H31553  -0.515   4.449   8.544 -0.6126  0.0644 -0.1367
  234MOL0     H31554  -1.038   4.211   8.480  0.0141  0.8300  2.8097
  234MOL0     H31555  -1.256   4.160   8.533  0.1918  1.9860  1.7071
  234MOL0     H31556  -1.509   4.176   8.363  0.6576  1.2870 -0.2541
  234MOL0     H31557  -1.469   4.117   8.527 -0.0662  1.4373  0.7127
  234MOL0     H31558  -1.740   4.240   8.496  0.4296  1.0858 -0.7070
  234MOL0     H31559  -1.678   4.074   8.505  0.4808 -0.5528  2.9747
  234MOL0     H31560  -1.740   4.208   8.729  0.2023  1.0821  2.2156
  234MOL0     H31561  -1.583   4.271   8.729 -1.3136 -0.9698  3.4853
  234MOL0     H31562  -1.643   3.971   8.718  0.2017  1.1231  0.5743
  234MOL0     H31563  -1.484   4.040   8.714  0.9203  0.2702  0.7484
  234MOL0     H31564  -1.506   4.152   8.924  0.6116  0.0919 -0.4784
  234MOL0     H31565  -1.544   3.985   8.951 -0.1030  0.7616  1.4113
  234MOL0     H31566  -1.777   4.178   8.943 -3.7758 -2.7721 -0.2601
  234MOL0     H31567  -1.766   4.000   8.957  1.4665 -0.7812  2.2880
  234MOL0     H31568  -1.647   4.178   9.172  0.8842 -0.7380  0.9997
  234MOL0     H31569  -1.652   4.001   9.154 -2.8470 -0.9532 -0.0551
  234MOL0     H31570  -1.869   3.976   9.186 -0.8324 -0.6376 -0.1306
  234MOL0     H31571  -1.921   4.123   9.121 -2.1932 -6.6817 -2.1703
  234MOL0     H31572  -1.391   4.556   8.401 -0.7404  0.1944  1.0753
  234MOL0     H31573  -1.153   4.618   8.382 -0.7889  0.6243  2.8314
  234MOL0     H31574  -0.851   4.362   8.153 -0.3982  0.3240  0.6001
  234MOL0     H31575  -0.651   4.392   7.985  1.5012  0.7511 -0.0860
  234MOL0     H31576   1.228   5.201   8.187 -1.3076 -0.0013  3.1158
  234MOL0     H31577   1.451   5.255   8.251  0.4404 -0.2645  0.2211
  234MOL0     H31578   1.886   5.293   8.110  1.1163  0.2597 -1.8170
  234MOL0     H31579   2.120   5.356   8.107 -0.3754 -0.8286 -0.3458
  234MOL0     H31580   2.385   5.684   8.241 -0.3683  0.6446 -0.4763
  234MOL0     H31581   2.238   5.774   8.264 -0.0059 -0.3609 -3.4797
  234MOL0     H31582   2.347   5.550   8.431  0.7721  0.5153  2.6390
  234MOL0     H31583   2.195   5.607   8.470 -0.1006 -0.3781  0.3224
  234MOL0     H31584   2.458   5.768   8.501  1.5540  1.0933  2.2099
  234MOL0     H31585   2.352   5.717   8.627  2.3249 -0.7264 -1.4165
  234MOL0     H31586   2.285   5.934   8.423  3.3560 -1.8616 -0.0954
  234MOL0     H31587   2.310   5.962   8.581  2.8577 -0.6461 -2.3755
  234MOL0     H31588   1.895   5.903   8.569 -0.0321 -0.1573  1.8648
  234MOL0     H31589   2.020   5.702   8.327 -0.9176  1.1146 -2.9981
  234MOL0     H31590   1.781   5.648   8.317 -1.0799 -1.9941  0.9818
  235MOL0     O31591   6.148   9.545   8.043 -0.8808  0.5935 -0.4226
  235MOL0     C31592   6.228   9.553   8.136  0.1269 -0.3439  0.5195
  235MOL0     O31593   6.202   9.614   8.253 -0.4244  0.1666  0.0870
  235MOL0     C31594   6.075   9.623   8.310 -1.2120  0.2261 -0.3188
  235MOL0     C31595   5.962   9.553   8.265 -0.0345  0.0892 -0.1310
  235MOL0     C31596   5.827   9.585   8.318 -0.2207  0.6998 -0.6381
  235MOL0     C31597   5.811   9.681   8.414 -0.4628  0.2197  0.2640
  235MOL0     O31598   5.700   9.724   8.468 -0.1789  0.0537  0.3407
  235MOL0     C31599   5.583   9.662   8.431 -0.0680 -0.3636  0.8001
  235MOL0     C31600   5.454   9.730   8.478  0.2295 -0.3845 -0.1275
  235MOL0     C31601   5.459   9.763   8.624  0.1238  0.0550  0.0931
  235MOL0     C31602   5.345   9.857   8.667 -0.1511 -0.4776 -0.2348
  235MOL0     C31603   5.375   9.922   8.811  0.7509 -0.2086 -0.1529
  235MOL0     C31604   5.514   9.979   8.833 -0.4335 -0.2897  0.1920
  235MOL0     C31605   5.528  10.050   8.967  1.2670 -0.6120  0.2404
  235MOL0     C31606   5.664  10.092   8.987 -0.9120  1.2383  0.0036
  235MOL0     N31607   5.677  10.188   9.097 -0.2218 -0.3348  0.6106
  235MOL0     C31608   5.699  10.327   9.086  0.9224 -0.2699  0.5999
  235MOL0     C31609   5.711  10.360   9.222 -0.3248  1.0026  0.1656
  235MOL0     C31610   5.767  10.478   9.295  0.0660 -0.3657  0.2119
  235MOL0     C31611   5.920  10.498   9.287 -0.0537 -1.0279 -0.0645
  235MOL0     C31612   6.007  10.402   9.362 -0.5084  0.4460 -0.5869
  235MOL0     C31613   6.147  10.461   9.390  0.1837  0.2357  0.8758
  235MOL0     O31614   6.217  10.459   9.263 -0.5634 -0.4283 -0.1541
  235MOL0     C31615   6.354  10.480   9.272 -1.2807 -0.9965 -0.8857
  235MOL0     C31616   6.420  10.566   9.364  0.2622  0.4561  0.2820
  235MOL0     C31617   6.561  10.578   9.375 -0.4338 -0.4034 -0.3592
  235MOL0     C31618   6.606  10.658   9.491  0.2069  0.4914 -0.2644
  235MOL0     C31619   6.639  10.516   9.279  0.1360  0.9939  0.6288
  235MOL0     C31620   6.793  10.520   9.257 -1.0101 -0.5691  0.3914
  235MOL0     O31621   6.851  10.614   9.339 -0.1157  0.1217 -0.2703
  235MOL0     C31622   6.990  10.626   9.340  1.0110  0.4773  0.9992
  235MOL0     C31623   7.050  10.650   9.457  0.4095 -0.1651 -0.6003
  235MOL0     C31624   7.189  10.658   9.475  0.6848 -0.1887  0.1369
  235MOL0     C31625   7.271  10.630   9.369 -0.7566  0.3300  0.1917
  235MOL0     O31626   7.413  10.627   9.366 -0.4635 -0.1230 -0.1521
  235MOL0     C31627   7.494  10.658   9.477  0.6185  0.9162  0.4377
  235MOL0     C31628   7.649  10.664   9.435 -0.1521 -0.3976  0.0037
  235MOL0     C31629   7.716  10.572   9.338  0.2406 -0.8466  0.4937
  235MOL0     C31630   7.871  10.592   9.317  0.0377  0.9980  0.6878
  235MOL0     C31631   7.931  10.501   9.208 -0.1033  0.1478  0.1440
  235MOL0     C31632   7.860  10.520   9.074 -0.0594 -0.5293 -0.1753
  235MOL0     C31633   7.929  10.472   8.946 -0.8773  1.1248 -0.8095
  235MOL0     C31634   7.850  10.505   8.816 -0.8056 -0.1413  0.7549
  235MOL0    Cl31635   7.865  10.362   8.712  0.2829 -0.0450  0.1772
  235MOL0     C31636   7.209  10.617   9.240  0.7743  0.0236  0.3126
  235MOL0     C31637   7.069  10.604   9.220 -0.0935 -1.1059  0.7977
  235MOL0     O31638   6.850  10.431   9.189  0.3098 -0.2908 -0.5671
  235MOL0     C31639   6.569  10.434   9.185  0.2320  0.4368 -0.3776
  235MOL0     C31640   6.429  10.408   9.182  0.1005  0.1345 -0.8244
  235MOL0     N31641   5.699  10.248   9.301 -0.2618  0.2384  0.7207
  235MOL0     N31642   5.692  10.153   9.223 -1.1201 -0.3850  0.6668
  235MOL0     C31643   5.926   9.735   8.471  0.1339  0.0576  0.9726
  235MOL0     C31644   6.051   9.710   8.416 -0.2862 -0.5037  0.2710
  235MOL0     C31645   6.361   9.489   8.102 -0.2431 -0.1957  0.3143
  235MOL0     C31646   6.372   9.392   7.993 -0.5264 -0.1453 -0.4209
  235MOL0     C31647   6.504   9.354   7.961  0.0978  0.0423 -0.1124
  235MOL0     C31648   6.612   9.385   8.046 -0.7970  1.2587  0.9569
  235MOL0     O31649   6.737   9.342   8.023  0.4041  0.5743 -0.0422
  235MOL0     C31650   6.777   9.356   7.888  0.2724  0.2452  0.1609
  235MOL0     C31651   6.927   9.379   7.866  1.1681  0.0216  0.0387
  235MOL0     C31652   7.008   9.246   7.875  1.5182  0.6245 -0.9340
  235MOL0     C31653   7.150   9.291   7.847 -0.4548 -0.2019 -0.7620
  235MOL0     C31654   7.229   9.173   7.885 -0.6781  0.5671  0.4723
  235MOL0     C31655   7.297   9.077   7.921 -0.1133  0.6935  0.9669
  235MOL0     C31656   6.590   9.471   8.153 -0.5802 -1.4225 -0.6291
  235MOL0     C31657   6.469   9.517   8.188 -0.4781 -0.6325  0.9540
  235MOL0     H31658   5.984   9.481   8.187 -0.9840 -1.1594  0.7098
  235MOL0     H31659   5.740   9.528   8.286 -0.4210  0.7978 -0.2732
  235MOL0     H31660   5.578   9.669   8.321 -0.8738 -3.1824  0.5846
  235MOL0     H31661   5.580   9.558   8.462 -2.9010 -1.5359 -2.6160
  235MOL0     H31662   5.446   9.819   8.415  0.1458  1.4726  2.3575
  235MOL0     H31663   5.371   9.665   8.449  0.6821 -1.4655  0.8826
  235MOL0     H31664   5.442   9.667   8.674 -2.1346  0.7780  0.7912
  235MOL0     H31665   5.556   9.811   8.642 -0.1579  0.8756 -0.5419
  235MOL0     H31666   5.326   9.928   8.586 -0.6554  1.6653  1.6740
  235MOL0     H31667   5.250   9.802   8.669 -0.6713  0.4001  0.0190
  235MOL0     H31668   5.307  10.003   8.840  0.2022 -0.7908  0.2267
  235MOL0     H31669   5.370   9.838   8.881  0.0842 -0.0557 -0.0049
  235MOL0     H31670   5.592   9.902   8.820 -0.2422  0.0756 -0.9277
  235MOL0     H31671   5.535  10.049   8.752 -0.6624 -2.0984 -1.5243
  235MOL0     H31672   5.471  10.143   8.972 -1.8418 -2.4304  0.9644
  235MOL0     H31673   5.502   9.976   9.042  2.6238 -0.7711  0.5877
  235MOL0     H31674   5.702  10.132   8.892 -0.0516 -0.1134 -0.2606
  235MOL0     H31675   5.716  10.000   9.016 -2.2659 -0.3129 -2.1618
  235MOL0     H31676   5.723  10.394   9.004 -2.2014  3.3293  2.2597
  235MOL0     H31677   5.733  10.566   9.239 -0.9318  0.2122  1.6390
  235MOL0     H31678   5.718  10.484   9.393  1.6807 -0.4581  1.0525
  235MOL0     H31679   5.943  10.597   9.329  1.7824 -0.3834 -2.3834
  235MOL0     H31680   5.943  10.496   9.180 -3.7985 -0.6326 -1.0139
  235MOL0     H31681   6.015  10.309   9.305  2.4293  0.3631 -0.1907
  235MOL0     H31682   5.962  10.372   9.458  0.1770 -2.2757 -1.0200
  235MOL0     H31683   6.211  10.403   9.457  0.5453  0.9907  1.2018
  235MOL0     H31684   6.138  10.565   9.424  1.9643  0.5087  0.6472
  235MOL0     H31685   6.356  10.622   9.430  1.3599  1.0573  0.8640
  235MOL0     H31686   6.704  10.627   9.529  1.2873  0.8410 -2.6310
  235MOL0     H31687   6.603  10.766   9.474  0.0441  1.0633  2.7090
  235MOL0     H31688   6.544  10.634   9.578  3.4733 -2.6201  1.5150
  235MOL0     H31689   6.982  10.653   9.541  0.1686 -2.4587 -0.6600
  235MOL0     H31690   7.225  10.681   9.575 -0.0469 -0.2757  0.4288
  235MOL0     H31691   7.469  10.754   9.524  0.6906  0.6283  1.0832
  235MOL0     H31692   7.478  10.580   9.552 -1.3729  1.3252  0.4981
  235MOL0     H31693   7.670  10.765   9.398  5.3924 -0.8183  1.0719
  235MOL0     H31694   7.698  10.667   9.533 -1.1421 -0.1489  0.5085
  235MOL0     H31695   7.657  10.583   9.247 -1.0187 -0.7670  1.2885
  235MOL0     H31696   7.693  10.471   9.374 -4.0192  0.0012  0.6821
  235MOL0     H31697   7.901  10.695   9.294  0.7561  0.5052 -0.7236
  235MOL0     H31698   7.916  10.559   9.411 -3.4489  0.0062  2.1517
  235MOL0     H31699   7.913  10.398   9.238 -4.1084 -0.2384 -2.7855
  235MOL0     H31700   8.038  10.521   9.205 -0.1502  0.2357 -1.4446
  235MOL0     H31701   7.771  10.461   9.099  0.2670 -0.8286  0.2822
  235MOL0     H31702   7.826  10.623   9.065 -0.6759 -0.4879  2.0594
  235MOL0     H31703   7.949  10.366   8.962 -0.3430  1.1310 -1.4067
  235MOL0     H31704   8.027  10.520   8.943 -0.7576  0.8619 -1.2784
  235MOL0     H31705   7.890  10.592   8.763  1.1781 -0.9232  0.8962
  235MOL0     H31706   7.751  10.541   8.846 -0.3253  0.2459  1.9292
  235MOL0     H31707   7.267  10.609   9.148  4.0108 -2.9085  2.3520
  235MOL0     H31708   7.013  10.599   9.127 -0.4089  4.1232  0.4053
  235MOL0     H31709   6.626  10.387   9.105  0.5284 -0.4495  0.3397
  235MOL0     H31710   6.373  10.339   9.119 -1.0850  1.8071 -1.7026
  235MOL0     H31711   5.909   9.807   8.550  3.4983  0.8690  1.1051
  235MOL0     H31712   6.145   9.742   8.460  0.3826 -0.8946 -0.8220
  235MOL0     H31713   6.296   9.367   7.919 -1.1974  1.7760 -0.4510
  235MOL0     H31714   6.526   9.296   7.872 -2.6876 -0.8362 -0.3284
  235MOL0     H31715   6.753   9.271   7.823  4.1402 -0.7414 -0.2115
  235MOL0     H31716   6.731   9.445   7.844  0.1854 -0.2737 -0.8323
  235MOL0     H31717   6.964   9.449   7.941  0.8037  2.8519 -2.2479
  235MOL0     H31718   6.947   9.420   7.767  2.1296 -1.3382 -0.3574
  235MOL0     H31719   6.973   9.163   7.813  2.7106 -0.8678  0.3127
  235MOL0     H31720   6.997   9.213   7.978 -0.7721 -0.3502 -1.4308
  235MOL0     H31721   7.179   9.370   7.917 -3.4525 -0.0671  0.4939
  235MOL0     H31722   7.162   9.327   7.745 -0.8692  1.1192 -0.3682
  235MOL0     H31723   7.363   9.000   7.955 -0.3293  0.7842  1.6016
  235MOL0     H31724   6.674   9.507   8.211 -2.4137  1.3759  0.5016
  235MOL0     H31725   6.455   9.577   8.277 -0.4898  1.4051 -0.3374
  236MOL0     O31726   3.170   8.573   7.849  0.0001  0.5639 -0.2027
  236MOL0     C31727   3.100   8.610   7.755 -0.4554 -0.1321 -0.2495
  236MOL0     O31728   2.957   8.595   7.748 -0.2291  0.4407 -0.6494
  236MOL0     C31729   2.902   8.529   7.852  1.2043  0.2447 -0.1916
  236MOL0     C31730   2.865   8.585   7.981 -0.0089 -0.1655 -0.9809
  236MOL0     C31731   2.795   8.503   8.073 -0.0375  0.0691 -0.1718
  236MOL0     C31732   2.758   8.373   8.042  0.0528  0.0724 -0.0824
  236MOL0     O31733   2.692   8.297   8.139 -1.2918 -0.0858  0.1082
  236MOL0     C31734   2.561   8.275   8.094 -0.2350 -0.8887 -1.0764
  236MOL0     C31735   2.486   8.211   8.228  0.1786  0.1481  0.4738
  236MOL0     C31736   2.462   8.308   8.344  0.2814 -1.4189  1.0353
  236MOL0     C31737   2.561   8.301   8.451 -0.4374 -0.2458 -0.6354
  236MOL0     C31738   2.526   8.410   8.558 -0.2858 -0.3073  0.7591
  236MOL0     C31739   2.423   8.356   8.652  0.3267  0.7166  0.1586
  236MOL0     C31740   2.389   8.430   8.785 -0.3158 -0.1342  0.3784
  236MOL0     C31741   2.350   8.577   8.764 -0.0075  0.7525 -0.0613
  236MOL0     N31742   2.239   8.584   8.667 -0.3260 -0.9172  0.1064
  236MOL0     C31743   2.229   8.668   8.557 -0.6584  0.9119  0.2169
  236MOL0     C31744   2.110   8.627   8.498  0.5174 -0.6467 -0.0663
  236MOL0     C31745   2.060   8.694   8.367 -1.2621  0.5762 -0.1735
  236MOL0     C31746   2.141   8.649   8.232  0.3023 -0.2072 -0.0946
  236MOL0     C31747   2.131   8.495   8.231 -0.1104 -0.4202 -0.6685
  236MOL0     C31748   2.154   8.418   8.099 -0.5826 -0.2577 -1.1873
  236MOL0     O31749   2.273   8.480   8.034 -0.0783  0.0312 -0.1502
  236MOL0     C31750   2.314   8.434   7.913 -1.0834 -0.5565 -0.5922
  236MOL0     C31751   2.262   8.323   7.836  0.2011 -0.1349 -0.0551
  236MOL0     C31752   2.325   8.274   7.721  0.0034 -0.1512 -0.1288
  236MOL0     C31753   2.274   8.159   7.652 -0.7419 -0.6113  0.8509
  236MOL0     C31754   2.453   8.339   7.683  0.3908  0.4064  0.1331
  236MOL0     C31755   2.524   8.291   7.567  0.2992 -0.5511 -0.3156
  236MOL0     O31756   2.670   8.286   7.597 -0.1768  1.1052 -0.1818
  236MOL0     C31757   2.751   8.296   7.483 -0.4325  0.7344  0.0098
  236MOL0     C31758   2.800   8.428   7.453 -0.0196  1.2394  0.3589
  236MOL0     C31759   2.877   8.442   7.334 -0.4555 -0.0471  0.6342
  236MOL0     C31760   2.910   8.337   7.248 -0.2785 -0.2311 -0.2568
  236MOL0     O31761   2.986   8.366   7.130 -0.1544  0.1105  0.5319
  236MOL0     C31762   3.017   8.249   7.048 -0.1904 -1.2013 -0.3226
  236MOL0     C31763   3.061   8.306   6.915  0.5547 -0.8098  0.5282
  236MOL0     C31764   3.094   8.202   6.820 -0.2609  0.3829 -0.6540
  236MOL0     C31765   3.131   8.259   6.682 -0.4930  0.0023 -0.0010
  236MOL0     C31766   3.189   8.145   6.586  0.7795 -0.5533 -0.4810
  236MOL0     C31767   3.280   8.197   6.479  0.1724 -0.2727  0.3072
  236MOL0     C31768   3.327   8.079   6.392  0.0718  0.7428 -0.5129
  236MOL0     C31769   3.264   8.069   6.266 -0.0031  0.4117  0.3538
  236MOL0    Cl31770   3.321   7.922   6.179 -0.2088 -0.2595 -0.2713
  236MOL0     C31771   2.878   8.210   7.300 -0.3705 -1.0945 -0.6884
  236MOL0     C31772   2.790   8.187   7.410 -0.3257 -0.3689  0.7518
  236MOL0     O31773   2.479   8.257   7.456  0.2225  0.4108  0.1977
  236MOL0     C31774   2.500   8.446   7.765 -1.0537  0.1042 -0.2029
  236MOL0     C31775   2.435   8.493   7.878 -0.2408 -0.4796  0.4758
  236MOL0     N31776   2.049   8.531   8.580 -0.0682  0.7856  0.2908
  236MOL0     N31777   2.125   8.512   8.681 -0.6434  1.0196 -0.2581
  236MOL0     C31778   2.798   8.313   7.922  0.3589 -1.2200 -0.6510
  236MOL0     C31779   2.864   8.394   7.836 -0.5756 -0.7672 -0.7256
  236MOL0     C31780   3.181   8.642   7.638  1.0688 -0.6123 -0.5760
  236MOL0     C31781   3.312   8.684   7.651  0.1641 -0.2080 -0.2248
  236MOL0     C31782   3.386   8.719   7.540 -0.8483 -0.4142  0.4265
  236MOL0     C31783   3.342   8.709   7.407 -0.0664 -0.7160 -0.0134
  236MOL0     O31784   3.434   8.756   7.311  0.8706  0.0494 -0.6845
  236MOL0     C31785   3.385   8.795   7.174  0.9937  0.1392 -0.0873
  236MOL0     C31786   3.336   8.934   7.187  0.1145  0.0109  0.9185
  236MOL0     C31787   3.445   9.035   7.236  0.3594  0.3648 -0.2156
  236MOL0     C31788   3.413   9.184   7.196 -0.6847  1.7811  0.9030
  236MOL0     C31789   3.383   9.205   7.049 -0.4057  0.8652 -0.6052
  236MOL0     C31790   3.358   9.217   6.930  0.2019 -0.4138  0.5267
  236MOL0     C31791   3.217   8.663   7.390  0.2347 -0.6693 -0.4387
  236MOL0     C31792   3.140   8.631   7.503 -0.4115  0.0168 -0.0181
  236MOL0     H31793   2.897   8.684   8.011  0.4838  0.4978 -3.4662
  236MOL0     H31794   2.776   8.545   8.171  0.7062  0.6764 -0.2746
  236MOL0     H31795   2.513   8.370   8.068 -1.0988 -0.7401  0.8106
  236MOL0     H31796   2.550   8.204   8.012  2.0600 -1.2338 -1.1287
  236MOL0     H31797   2.393   8.170   8.187 -1.8531  5.2168 -0.8354
  236MOL0     H31798   2.556   8.130   8.249 -0.4559 -1.0830 -1.7572
  236MOL0     H31799   2.461   8.405   8.294  1.1362 -2.9972 -2.3285
  236MOL0     H31800   2.358   8.294   8.375 -0.5830 -3.8100 -2.3562
  236MOL0     H31801   2.567   8.199   8.491 -0.0040 -0.3504 -0.9603
  236MOL0     H31802   2.654   8.332   8.403 -1.2446 -1.7458 -3.3411
  236MOL0     H31803   2.612   8.421   8.624 -0.7164 -0.8460  1.4245
  236MOL0     H31804   2.506   8.507   8.510  1.1270 -0.6474 -0.5832
  236MOL0     H31805   2.331   8.356   8.592  1.2453  1.2172 -1.2925
  236MOL0     H31806   2.442   8.250   8.672  0.9605  0.6059 -0.9431
  236MOL0     H31807   2.314   8.371   8.838 -1.3333  1.3847  0.6805
  236MOL0     H31808   2.483   8.437   8.842 -1.2610 -0.5337  2.0454
  236MOL0     H31809   2.434   8.635   8.726  1.1900 -0.2549  0.9302
  236MOL0     H31810   2.331   8.627   8.859  2.2580  0.3159  0.6989
  236MOL0     H31811   2.306   8.736   8.523  1.4646 -1.6301 -0.3659
  236MOL0     H31812   1.958   8.657   8.354 -0.3113 -2.0412 -0.9732
  236MOL0     H31813   2.074   8.801   8.386  1.0878  0.0651  1.3482
  236MOL0     H31814   2.246   8.681   8.229  0.9719 -2.2674 -0.3517
  236MOL0     H31815   2.094   8.691   8.143 -1.4165  1.1503  1.3549
  236MOL0     H31816   2.035   8.454   8.263 -1.2917 -0.3707 -3.8686
  236MOL0     H31817   2.212   8.452   8.292 -0.0431 -0.3631 -0.7167
  236MOL0     H31818   2.061   8.429   8.043 -1.1624  0.5805 -0.0952
  236MOL0     H31819   2.175   8.316   8.133 -0.5763  0.1077 -0.0544
  236MOL0     H31820   2.163   8.286   7.863  0.9006 -1.2571  1.1015
  236MOL0     H31821   2.182   8.124   7.700 -0.3112 -0.4974  1.7835
  236MOL0     H31822   2.262   8.167   7.544  2.1486  2.3614  0.5926
  236MOL0     H31823   2.337   8.071   7.668 -3.7768 -2.9018  1.1900
  236MOL0     H31824   2.767   8.517   7.505 -5.5143  0.8069 -1.7509
  236MOL0     H31825   2.908   8.534   7.286  1.4784 -0.7597  0.4623
  236MOL0     H31826   3.096   8.193   7.099 -0.7924 -1.6886  0.0845
  236MOL0     H31827   2.930   8.182   7.044 -0.1810 -1.2450  0.2530
  236MOL0     H31828   2.975   8.360   6.875  0.1183  0.6908  3.2338
  236MOL0     H31829   3.145   8.376   6.923 -0.6953  0.6762  1.0512
  236MOL0     H31830   3.015   8.126   6.816  2.6670 -3.0284  1.1744
  236MOL0     H31831   3.186   8.156   6.857 -2.3672 -2.0315  2.0614
  236MOL0     H31832   3.045   8.310   6.638 -1.0334  0.2265  1.2553
  236MOL0     H31833   3.207   8.337   6.696  1.4453 -1.5074 -1.6659
  236MOL0     H31834   3.100   8.106   6.535 -0.6791  1.8521  0.0926
  236MOL0     H31835   3.228   8.061   6.645 -0.2218  0.9687  2.5374
  236MOL0     H31836   3.231   8.270   6.414  1.3868 -0.6191 -1.0522
  236MOL0     H31837   3.354   8.254   6.536 -0.4840  1.6173 -0.6509
  236MOL0     H31838   3.326   7.986   6.450 -0.7204  1.6467  0.9868
  236MOL0     H31839   3.433   8.097   6.375  0.6606 -0.0932  1.8805
  236MOL0     H31840   3.286   8.157   6.204  2.2191 -0.3730 -0.0668
  236MOL0     H31841   3.156   8.054   6.270  0.1877 -4.0012 -2.9152
  236MOL0     H31842   2.901   8.125   7.237 -1.0390 -0.8083 -1.3411
  236MOL0     H31843   2.754   8.088   7.438 -0.8903 -0.2494  0.4737
  236MOL0     H31844   2.588   8.493   7.724 -1.3021 -0.2548 -1.1788
  236MOL0     H31845   2.464   8.578   7.939 -0.7566 -0.4977  0.7581
  236MOL0     H31846   2.762   8.216   7.889 -1.1431 -1.3965  1.3253
  236MOL0     H31847   2.889   8.369   7.733 -2.6716 -0.6107 -1.3074
  236MOL0     H31848   3.354   8.702   7.749  0.9795 -0.8347 -0.4451
  236MOL0     H31849   3.492   8.737   7.559 -0.5385 -0.6083 -1.0122
  236MOL0     H31850   3.468   8.778   7.105  0.5731  3.3462 -1.5696
  236MOL0     H31851   3.296   8.740   7.141  0.8503  0.2154  0.1783
  236MOL0     H31852   3.254   8.944   7.259  0.7621  1.3860  1.4962
  236MOL0     H31853   3.300   8.969   7.090  3.4794 -1.2651 -0.9431
  236MOL0     H31854   3.546   9.010   7.202  0.4780 -0.0561  0.4265
  236MOL0     H31855   3.453   9.040   7.345  1.2961 -0.0951 -0.2463
  236MOL0     H31856   3.508   9.233   7.220 -1.3562  2.9289  1.2639
  236MOL0     H31857   3.336   9.222   7.263  1.0571 -0.1980  4.3685
  236MOL0     H31858   3.347   9.221   6.824  0.1921  1.0446  0.5604
  236MOL0     H31859   3.171   8.660   7.292 -2.4276  0.4085  0.6841
  236MOL0     H31860   3.039   8.598   7.481 -0.3576  0.7524 -1.4606
  237MOL0     O31861   6.240  10.906   7.348 -0.1795 -0.0439  0.6411
  237MOL0     C31862   6.298  11.016   7.323 -0.1126  0.5773 -0.3502
  237MOL0     O31863   6.250  11.148   7.320  0.2946 -0.4100  0.2903
  237MOL0     C31864   6.126  11.158   7.384  0.0676 -0.1604 -0.7364
  237MOL0     C31865   6.008  11.170   7.302 -0.5598  0.3104  0.1759
  237MOL0     C31866   5.882  11.187   7.358  1.3625  0.7195 -0.5782
  237MOL0     C31867   5.863  11.201   7.494  0.2729  0.9415 -1.0911
  237MOL0     O31868   5.738  11.197   7.550  0.5586 -0.1548 -0.0796
  237MOL0     C31869   5.634  11.255   7.478 -0.2335  0.0046  1.1930
  237MOL0     C31870   5.542  11.326   7.567  0.3178 -0.3319  0.0061
  237MOL0     C31871   5.422  11.374   7.485 -0.2936  0.3101 -0.1938
  237MOL0     C31872   5.332  11.474   7.559  0.0325 -0.4446 -0.4761
  237MOL0     C31873   5.208  11.522   7.484  0.1732 -0.0493  0.3268
  237MOL0     C31874   5.100  11.587   7.570 -0.2512  0.6856 -0.2621
  237MOL0     C31875   4.961  11.616   7.500  0.5547 -0.6197 -0.2881
  237MOL0     C31876   4.861  11.671   7.589  0.0517 -0.6332  0.7097
  237MOL0     N31877   4.753  11.727   7.509  0.7285  0.1373 -0.2127
  237MOL0     C31878   4.630  11.673   7.492 -0.3529 -1.0271  0.0616
  237MOL0     C31879   4.568  11.774   7.416 -0.3614 -0.3561 -0.0012
  237MOL0     C31880   4.430  11.782   7.353  0.1753 -0.0548  0.3811
  237MOL0     C31881   4.406  11.681   7.242 -0.5192  0.3971 -1.0608
  237MOL0     C31882   4.270  11.663   7.202 -0.4532  1.5416  0.2047
  237MOL0     C31883   4.189  11.559   7.266 -0.0612 -0.2670 -0.4129
  237MOL0     O31884   4.237  11.433   7.250 -1.2592 -0.0638 -0.3270
  237MOL0     C31885   4.272  11.379   7.132 -1.4174 -1.0241  0.7493
  237MOL0     C31886   4.192  11.388   7.023 -0.2306  0.2438  0.4397
  237MOL0     C31887   4.238  11.331   6.905 -1.4923  0.7250  0.3377
  237MOL0     C31888   4.132  11.330   6.798 -1.1621  0.7988 -0.0535
  237MOL0     C31889   4.373  11.285   6.896  0.0402 -0.3735 -0.2567
  237MOL0     C31890   4.428  11.229   6.778 -1.5854 -0.9421 -0.4752
  237MOL0     O31891   4.501  11.117   6.794 -0.0935  0.8977 -0.0188
  237MOL0     C31892   4.511  11.045   6.675 -0.4280 -0.2542  0.6532
  237MOL0     C31893   4.406  10.958   6.633  0.5064 -0.3329 -0.8252
  237MOL0     C31894   4.431  10.878   6.529  0.4059  0.5674 -0.9759
  237MOL0     C31895   4.552  10.886   6.458  1.0561 -0.4734  0.0567
  237MOL0     O31896   4.583  10.813   6.347 -0.3154  0.1852 -0.3184
  237MOL0     C31897   4.529  10.687   6.313 -0.7232  0.0981 -0.0877
  237MOL0     C31898   4.638  10.587   6.335  0.5472  0.1214 -0.0997
  237MOL0     C31899   4.757  10.592   6.237  0.0413 -0.3201 -0.4148
  237MOL0     C31900   4.858  10.479   6.244  0.8848 -0.1262 -0.3085
  237MOL0     C31901   4.977  10.526   6.153  0.1492  0.1065  0.7282
  237MOL0     C31902   5.035  10.402   6.078 -0.8250 -0.5504  0.2330
  237MOL0     C31903   5.119  10.338   6.185  0.2855  0.8067 -0.0060
  237MOL0     C31904   5.188  10.208   6.133 -1.2346 -0.8723 -0.0698
  237MOL0    Cl31905   5.291  10.245   5.994 -0.1002  0.0307 -0.2760
  237MOL0     C31906   4.642  10.987   6.485 -0.0102  0.6638  0.2823
  237MOL0     C31907   4.627  11.064   6.603 -0.2919 -0.4128  0.7128
  237MOL0     O31908   4.430  11.302   6.677  0.0470  0.9644 -0.1759
  237MOL0     C31909   4.447  11.278   7.011  0.3860  0.1072 -0.3345
  237MOL0     C31910   4.401  11.331   7.122  0.0225 -0.8307 -0.3828
  237MOL0     N31911   4.658  11.879   7.388  0.2293  0.1420 -0.0677
  237MOL0     N31912   4.772  11.841   7.437 -0.4591  0.2203 -0.1713
  237MOL0     C31913   5.978  11.189   7.566  0.1274 -0.3636 -0.3189
  237MOL0     C31914   6.108  11.168   7.524  0.3277  0.6629 -0.3849
  237MOL0     C31915   6.438  11.010   7.279  0.1649  0.1976  0.3866
  237MOL0     C31916   6.522  11.121   7.255 -0.1475 -1.2723  0.8674
  237MOL0     C31917   6.655  11.108   7.215  0.3044  0.0865 -0.1050
  237MOL0     C31918   6.703  10.979   7.194  0.1071  0.0671 -0.3335
  237MOL0     O31919   6.833  10.975   7.148  0.0411 -0.1056 -0.6262
  237MOL0     C31920   6.857  10.933   7.013  0.0311 -0.0269 -0.2660
  237MOL0     C31921   6.998  10.937   6.980  0.3178  0.5523  0.7378
  237MOL0     C31922   7.097  10.866   7.074  0.8109 -0.0286  0.5522
  237MOL0     C31923   7.239  10.868   7.032 -1.3194  0.7015 -0.4248
  237MOL0     C31924   7.263  10.796   6.909 -0.0883 -0.0574  0.2076
  237MOL0     C31925   7.276  10.735   6.803  0.1944  0.1401  1.0522
  237MOL0     C31926   6.631  10.867   7.227 -0.4593  0.1538  0.5523
  237MOL0     C31927   6.498  10.877   7.267 -0.0023 -0.1816 -0.8583
  237MOL0     H31928   6.005  11.166   7.194 -0.9256  0.5083  0.1763
  237MOL0     H31929   5.802  11.168   7.286  3.0801 -0.9075 -2.1892
  237MOL0     H31930   5.664  11.324   7.398 -1.6181  1.9223  2.2339
  237MOL0     H31931   5.582  11.172   7.429  0.2245  0.8729 -0.9037
  237MOL0     H31932   5.503  11.261   7.646  2.3366 -0.8111  0.6683
  237MOL0     H31933   5.582  11.421   7.603 -2.9620  1.1488  0.1126
  237MOL0     H31934   5.448  11.430   7.395 -2.4451  1.2529 -0.3019
  237MOL0     H31935   5.370  11.282   7.455  0.8626 -0.5787  0.4458
  237MOL0     H31936   5.311  11.438   7.660  3.7758  1.0719  1.0335
  237MOL0     H31937   5.396  11.560   7.582 -0.7172 -0.6348  2.7808
  237MOL0     H31938   5.228  11.586   7.397 -2.6229  2.4589  1.3461
  237MOL0     H31939   5.156  11.433   7.448  2.1395 -2.0423  2.1655
  237MOL0     H31940   5.083  11.530   7.662 -0.9315  0.6976 -0.3779
  237MOL0     H31941   5.138  11.685   7.601  3.2279 -0.8039  0.7062
  237MOL0     H31942   4.970  11.687   7.418  2.7458 -0.9712 -0.3911
  237MOL0     H31943   4.922  11.522   7.460 -0.0237  0.7700 -3.2582
  237MOL0     H31944   4.915  11.756   7.632  0.4612  0.3952 -1.6427
  237MOL0     H31945   4.828  11.598   7.663 -0.5259  0.5595  1.6668
  237MOL0     H31946   4.589  11.577   7.522  2.8364 -1.9524  1.8817
  237MOL0     H31947   4.360  11.750   7.431  1.1081  2.1872  2.2317
  237MOL0     H31948   4.413  11.883   7.316  0.3234  0.1010  0.7393
  237MOL0     H31949   4.447  11.587   7.279  3.6677  2.3229 -0.2541
  237MOL0     H31950   4.461  11.715   7.154 -0.6004  3.8108  0.0709
  237MOL0     H31951   4.273  11.654   7.093  0.1159  0.5747  0.2817
  237MOL0     H31952   4.212  11.753   7.223 -0.0513  1.7059  0.6526
  237MOL0     H31953   4.084  11.570   7.236 -1.5011 -0.9256  3.7017
  237MOL0     H31954   4.205  11.587   7.371  4.8974  0.4823 -1.1231
  237MOL0     H31955   4.092  11.431   7.020 -1.6970 -2.9210  0.5815
  237MOL0     H31956   4.045  11.279   6.841 -1.4703  0.9595 -0.4794
  237MOL0     H31957   4.103  11.428   6.760 -0.3819  0.5966 -1.2467
  237MOL0     H31958   4.165  11.265   6.716 -1.5228 -1.6789  1.6333
  237MOL0     H31959   4.321  10.945   6.699 -1.6112 -0.0823 -3.3355
  237MOL0     H31960   4.352  10.816   6.489  2.2904 -1.9471 -1.0165
  237MOL0     H31961   4.444  10.664   6.377 -0.8884  0.7568 -0.0623
  237MOL0     H31962   4.496  10.683   6.208 -0.5841  1.0455 -0.1811
  237MOL0     H31963   4.670  10.594   6.440 -3.1519 -0.7465  1.2481
  237MOL0     H31964   4.605  10.483   6.332  1.0845 -0.1694  2.1385
  237MOL0     H31965   4.805  10.688   6.257 -1.4441  0.3393  0.1458
  237MOL0     H31966   4.718  10.593   6.135 -1.6498 -0.6768  0.1979
  237MOL0     H31967   4.895  10.469   6.346  0.4604  0.3673 -0.1053
  237MOL0     H31968   4.809  10.388   6.205  1.2760  0.7649 -3.1170
  237MOL0     H31969   5.056  10.587   6.197 -1.8013  2.8055  0.6999
  237MOL0     H31970   4.925  10.577   6.072  1.3142 -0.2560 -0.2942
  237MOL0     H31971   4.954  10.336   6.047 -0.9585 -0.5150  0.5110
  237MOL0     H31972   5.092  10.441   5.992  0.9911 -3.1787  0.1175
  237MOL0     H31973   5.057  10.310   6.270 -1.1058 -0.0217 -1.2393
  237MOL0     H31974   5.204  10.399   6.218  0.5647 -0.6387  2.1427
  237MOL0     H31975   5.116  10.134   6.098  0.9651 -3.3683  0.3192
  237MOL0     H31976   5.250  10.172   6.216 -1.1814  0.6091  0.5499
  237MOL0     H31977   4.724  11.008   6.417 -0.8063  0.4286 -0.7739
  237MOL0     H31978   4.703  11.139   6.621 -1.2153  0.7113  0.0273
  237MOL0     H31979   4.543  11.229   7.003  1.0066  1.4800 -2.3518
  237MOL0     H31980   4.460  11.333   7.212 -0.8899 -0.0965  0.2210
  237MOL0     H31981   5.948  11.181   7.670  0.9630 -2.1338 -0.1783
  237MOL0     H31982   6.186  11.142   7.595 -1.2385 -0.8964  0.8918
  237MOL0     H31983   6.480  11.218   7.279  0.6939 -0.4517 -0.8364
  237MOL0     H31984   6.721  11.193   7.205  2.1775 -0.6936  3.7219
  237MOL0     H31985   6.815  10.833   7.005 -1.2372  0.4919 -0.2525
  237MOL0     H31986   6.806  11.006   6.950 -0.6684  0.3030  0.6664
  237MOL0     H31987   7.036  11.040   6.988  0.1369  0.5662  1.4633
  237MOL0     H31988   7.002  10.902   6.876 -0.4637 -5.4084  2.3448
  237MOL0     H31989   7.057  10.767   7.099 -1.1585  1.7907  5.9247
  237MOL0     H31990   7.098  10.920   7.169 -2.5028 -0.5579  0.9967
  237MOL0     H31991   7.289  10.816   7.114  1.7827  5.4087  1.0773
  237MOL0     H31992   7.279  10.970   7.027 -1.7892  0.9083 -0.0853
  237MOL0     H31993   7.274  10.681   6.711  1.2223  0.4294  0.8433
  237MOL0     H31994   6.674  10.767   7.232  0.5208  0.3911 -1.8855
  237MOL0     H31995   6.441  10.786   7.280  0.8198 -0.7929 -1.4306
  238MOL0     O31996  10.567   9.944   3.382 -0.3411  0.9626 -0.0863
  238MOL0     C31997  10.624   9.960   3.280  0.0233 -0.4726  0.1162
  238MOL0     O31998  10.576   9.987   3.153  0.1408 -0.1641 -0.0579
  238MOL0     C31999  10.440   9.977   3.127 -0.8780  0.1678  0.3811
  238MOL0     C32000  10.331   9.972   3.216 -0.0055 -0.4547 -0.0837
  238MOL0     C32001  10.200   9.956   3.175  0.7129  0.0840 -1.2505
  238MOL0     C32002  10.173   9.931   3.039 -0.0560  0.1838  0.7755
  238MOL0     O32003  10.048   9.905   3.004 -0.2214  0.0073  0.2710
  238MOL0     C32004  10.002   9.934   2.870  0.3226  0.7811 -0.4884
  238MOL0     C32005  10.004   9.805   2.788 -0.2315  0.1703  0.3791
  238MOL0     C32006   9.949   9.835   2.650  0.3839  0.4872  1.0145
  238MOL0     C32007   9.871   9.705   2.613  0.3587  0.2094  0.3322
  238MOL0     C32008   9.826   9.718   2.466  0.6647  0.0478  0.2061
  238MOL0     C32009   9.758   9.585   2.419  1.1960  0.4825  0.2818
  238MOL0     C32010   9.669   9.597   2.291 -0.3413 -0.6674 -0.6895
  238MOL0     C32011   9.532   9.665   2.319 -0.3007 -0.3972 -0.5630
  238MOL0     N32012   9.446   9.574   2.397 -0.0237 -0.0205 -0.2405
  238MOL0     C32013   9.346   9.503   2.335 -0.1166 -0.2043 -0.0298
  238MOL0     C32014   9.271   9.441   2.433  0.0386 -0.2818 -0.1812
  238MOL0     C32015   9.153   9.355   2.422 -0.4054 -0.3361  0.3390
  238MOL0     C32016   9.101   9.290   2.542  0.3631 -0.4766  0.3534
  238MOL0     C32017   9.173   9.155   2.558  0.7117  0.4473  0.7323
  238MOL0     C32018   9.147   9.104   2.699 -0.4394 -0.9372 -0.7395
  238MOL0     O32019   9.237   8.994   2.717 -0.1589 -0.1259  0.1094
  238MOL0     C32020   9.364   9.004   2.757  0.7228  1.8411 -0.2013
  238MOL0     C32021   9.444   9.109   2.765  0.1474 -0.8521  0.1658
  238MOL0     C32022   9.584   9.105   2.781 -0.4532 -1.0579 -0.0785
  238MOL0     C32023   9.654   9.236   2.778  1.1475  0.3167 -0.1504
  238MOL0     C32024   9.645   8.979   2.813  0.3125 -0.2275 -0.2598
  238MOL0     C32025   9.794   8.954   2.829  0.2511 -0.0312  0.4320
  238MOL0     O32026   9.830   8.825   2.850  0.3540  0.3392  0.0034
  238MOL0     C32027   9.965   8.796   2.878 -0.1073 -0.4131  0.3987
  238MOL0     C32028  10.060   8.889   2.933  0.0231 -0.3170  0.9319
  238MOL0     C32029  10.196   8.854   2.950 -0.0898  0.0227 -0.5995
  238MOL0     C32030  10.240   8.730   2.927 -1.1091 -0.7641 -0.0235
  238MOL0     O32031  10.368   8.710   2.973 -0.7439  0.6928 -0.6696
  238MOL0     C32032  10.432   8.580   2.964 -0.2861 -0.7055  0.4869
  238MOL0     C32033  10.493   8.566   2.822  0.1973 -0.4921 -0.7626
  238MOL0     C32034  10.623   8.470   2.827 -0.7066 -0.2608 -0.3024
  238MOL0     C32035  10.691   8.444   2.687  0.5580  0.0095  0.2535
  238MOL0     C32036  10.833   8.390   2.704  0.0715  0.2346 -0.1298
  238MOL0     C32037  10.884   8.335   2.567 -0.7534 -0.1305  0.1402
  238MOL0     C32038  11.024   8.270   2.597  0.8331  0.7268 -0.5559
  238MOL0     C32039  11.088   8.200   2.475  0.0071 -0.5860 -0.0491
  238MOL0    Cl32040  11.142   8.322   2.350  0.3088  0.0021 -0.1722
  238MOL0     C32041  10.154   8.642   2.867  0.9902  1.0225 -0.0736
  238MOL0     C32042  10.018   8.670   2.841 -0.3484  0.0215 -0.7201
  238MOL0     O32043   9.871   9.045   2.800 -1.0307 -0.9145 -0.0486
  238MOL0     C32044   9.556   8.871   2.819 -0.1165 -0.0013  0.8598
  238MOL0     C32045   9.419   8.876   2.790  0.3007  0.0494 -0.0538
  238MOL0     N32046   9.338   9.474   2.555  0.4249 -0.5056  0.4719
  238MOL0     N32047   9.443   9.546   2.535  0.0750  0.9293  0.0185
  238MOL0     C32048  10.279   9.937   2.946  0.2927 -1.8881  0.5628
  238MOL0     C32049  10.409   9.959   2.993 -0.2455 -0.0545  0.3288
  238MOL0     C32050  10.769   9.981   3.297 -0.9066  0.4621 -0.0219
  238MOL0     C32051  10.833   9.994   3.427  0.3917  1.0119  0.4090
  238MOL0     C32052  10.973   9.996   3.447  0.3082 -0.0732  0.1376
  238MOL0     C32053  11.066   9.987   3.344 -0.4279  1.5000  0.0285
  238MOL0     O32054  11.203   9.979   3.361  0.0594  0.7650  0.3429
  238MOL0     C32055  11.263  10.014   3.489 -0.3319  0.1633 -0.6157
  238MOL0     C32056  11.410  10.044   3.471 -0.1663  0.3035  0.1387
  238MOL0     C32057  11.488   9.938   3.392 -0.6119  0.2056  0.2929
  238MOL0     C32058  11.626   9.985   3.371 -0.3576 -0.6071 -0.6066
  238MOL0     C32059  11.703   9.998   3.494 -0.4549 -1.2834  0.2986
  238MOL0     C32060  11.790   9.990   3.577  0.8378  0.1274  0.2787
  238MOL0     C32061  11.011   9.979   3.209 -0.2330 -0.3517 -0.2892
  238MOL0     C32062  10.871   9.971   3.190 -0.7268  0.0641 -0.1932
  238MOL0     H32063  10.348  10.001   3.319 -0.5600 -0.6579  0.0680
  238MOL0     H32064  10.116   9.958   3.242  1.3539  0.7159 -0.4499
  238MOL0     H32065   9.898   9.964   2.884 -0.0191 -1.1858  1.9781
  238MOL0     H32066  10.062  10.018   2.834  0.6317  0.4550 -0.7439
  238MOL0     H32067  10.107   9.768   2.783  0.3594  1.6038  1.2387
  238MOL0     H32068   9.945   9.730   2.841  1.6220 -1.2213  0.5694
  238MOL0     H32069   9.871   9.912   2.643  2.3504  2.4106 -2.0850
  238MOL0     H32070  10.019   9.875   2.576 -0.8992  2.7100  0.8977
  238MOL0     H32071   9.937   9.619   2.629  1.2657  1.0450  1.2211
  238MOL0     H32072   9.787   9.698   2.683  0.3422  2.6779  0.6404
  238MOL0     H32073   9.757   9.802   2.463 -0.0268 -0.5416 -2.2000
  238MOL0     H32074   9.910   9.739   2.399 -0.6396  0.9728 -1.1795
  238MOL0     H32075   9.841   9.516   2.400  2.4024  2.2113 -0.9475
  238MOL0     H32076   9.708   9.527   2.498  3.0813 -0.2185  1.0288
  238MOL0     H32077   9.731   9.657   2.223  0.3517 -0.0638  0.4385
  238MOL0     H32078   9.645   9.501   2.245  1.2035 -1.6631  0.5022
  238MOL0     H32079   9.471   9.677   2.229 -2.7770 -2.5491  0.7114
  238MOL0     H32080   9.549   9.762   2.367 -0.5886 -1.4886  1.8875
  238MOL0     H32081   9.323   9.506   2.229  1.3531  2.7774 -0.3697
  238MOL0     H32082   9.077   9.426   2.386 -0.1319  0.7709  1.8720
  238MOL0     H32083   9.174   9.287   2.339  0.8541  2.3867 -1.7572
  238MOL0     H32084   8.996   9.269   2.519 -0.1957  1.6862  0.7055
  238MOL0     H32085   9.110   9.357   2.628 -0.8304 -1.9383  1.6848
  238MOL0     H32086   9.278   9.170   2.531  0.5610  0.5583  0.1986
  238MOL0     H32087   9.144   9.075   2.490  3.3184  0.4487 -0.5029
  238MOL0     H32088   9.041   9.081   2.709 -0.3294 -1.2240 -0.2242
  238MOL0     H32089   9.167   9.180   2.776 -0.2759 -2.0377  0.3439
  238MOL0     H32090   9.401   9.202   2.729 -1.1845 -2.1156 -1.7113
  238MOL0     H32091   9.587   9.319   2.752 -1.1265 -1.3852 -0.0412
  238MOL0     H32092   9.709   9.242   2.873 -1.1081  0.1086  1.2706
  238MOL0     H32093   9.724   9.237   2.695  1.1862  0.3298 -0.1180
  238MOL0     H32094  10.028   8.987   2.966  1.1076  0.4578 -0.2026
  238MOL0     H32095  10.278   8.919   2.981  0.0159 -0.2080 -0.3978
  238MOL0     H32096  10.507   8.565   3.042  1.5963 -0.3140 -1.1862
  238MOL0     H32097  10.356   8.505   2.988  0.1619 -0.9699  1.0882
  238MOL0     H32098  10.414   8.530   2.755 -2.9402 -1.9785  3.2306
  238MOL0     H32099  10.518   8.670   2.802 -1.5960  0.3162  0.8048
  238MOL0     H32100  10.601   8.374   2.875  0.2958 -0.1774  0.3631
  238MOL0     H32101  10.700   8.520   2.887 -0.6064  0.8683 -1.3285
  238MOL0     H32102  10.625   8.371   2.639 -0.3877 -0.2161  1.8316
  238MOL0     H32103  10.695   8.528   2.617  0.5432 -3.7780 -4.8996
  238MOL0     H32104  10.843   8.307   2.774  0.2427  1.1346  0.9431
  238MOL0     H32105  10.889   8.479   2.735 -0.3537  0.0254  1.3058
  238MOL0     H32106  10.808   8.269   2.526  0.0213  0.2157 -2.0053
  238MOL0     H32107  10.903   8.414   2.493  1.7449 -1.2638 -0.5237
  238MOL0     H32108  11.001   8.190   2.668  0.3835  0.4716 -0.9796
  238MOL0     H32109  11.095   8.337   2.645 -3.6763  1.9654  5.6231
  238MOL0     H32110  11.020   8.131   2.425  0.0379 -1.1210  0.6381
  238MOL0     H32111  11.173   8.141   2.511 -1.0108 -1.7014  0.6032
  238MOL0     H32112  10.182   8.543   2.830 -1.2608  0.1433  0.4461
  238MOL0     H32113   9.955   8.587   2.809 -0.1057 -0.3934 -0.1298
  238MOL0     H32114   9.593   8.774   2.850 -2.2643 -0.3244  2.6349
  238MOL0     H32115   9.370   8.780   2.777  0.9360 -0.0977 -1.6603
  238MOL0     H32116  10.259   9.906   2.844 -0.1642  0.8729 -0.2749
  238MOL0     H32117  10.492   9.952   2.923 -0.0981 -1.2568  0.5968
  238MOL0     H32118  10.768  10.002   3.514 -0.5191 -2.2671  0.1576
  238MOL0     H32119  11.008   9.982   3.549  0.4177 -3.1977 -0.2452
  238MOL0     H32120  11.221  10.101   3.539 -0.6057  1.5305 -3.0504
  238MOL0     H32121  11.260   9.929   3.557  0.1028  1.1363  0.6434
  238MOL0     H32122  11.451  10.043   3.572  0.6444 -1.4230 -0.1673
  238MOL0     H32123  11.424  10.141   3.422  1.1093 -1.2211 -2.7722
  238MOL0     H32124  11.443   9.940   3.292 -1.4076  0.0942  0.6483
  238MOL0     H32125  11.490   9.843   3.445  0.8386 -0.2141 -0.4274
  238MOL0     H32126  11.623  10.085   3.328  2.4810  0.1692  0.7587
  238MOL0     H32127  11.672   9.919   3.296 -0.7401 -1.7846  0.1627
  238MOL0     H32128  11.877   9.986   3.639  0.6293  0.9774  0.6313
  238MOL0     H32129  11.075   9.968   3.122 -0.5216 -0.8754 -0.4397
  238MOL0     H32130  10.848   9.973   3.084  1.8140  2.5119 -0.8283
  239MOL0     O32131   6.160   4.721   2.733  0.9893  0.7014  0.6298
  239MOL0     C32132   6.228   4.817   2.711  0.3551  0.5807  1.3188
  239MOL0     O32133   6.198   4.914   2.625  0.0376  0.2616  0.2235
  239MOL0     C32134   6.075   4.896   2.556 -0.0923 -0.5291  0.0440
  239MOL0     C32135   6.068   4.879   2.411  0.1315  0.2510 -0.1836
  239MOL0     C32136   5.943   4.855   2.351 -0.5569 -0.4361  0.1668
  239MOL0     C32137   5.821   4.860   2.422 -0.1596  0.6151  0.2915
  239MOL0     O32138   5.704   4.848   2.350  0.1863 -0.0343 -0.6122
  239MOL0     C32139   5.584   4.916   2.408 -0.1245 -0.2361  0.4818
  239MOL0     C32140   5.606   5.068   2.431 -0.2830  0.3001 -0.3803
  239MOL0     C32141   5.482   5.138   2.371 -0.5172 -0.5340  0.3261
  239MOL0     C32142   5.503   5.290   2.392  0.6600  0.0291 -0.2288
  239MOL0     C32143   5.424   5.388   2.309 -0.9292  0.6919 -0.3332
  239MOL0     C32144   5.453   5.543   2.345 -0.6365  0.4832  0.1429
  239MOL0     C32145   5.395   5.588   2.482  0.0210  0.3341 -0.2763
  239MOL0     C32146   5.495   5.581   2.599 -0.2073  0.4068 -0.3668
  239MOL0     N32147   5.603   5.681   2.582  0.3738 -0.4410  0.1811
  239MOL0     C32148   5.725   5.663   2.531  0.0129 -0.9365 -0.3026
  239MOL0     C32149   5.793   5.777   2.546  0.4685  0.1995  0.3191
  239MOL0     C32150   5.939   5.802   2.488  0.1414  1.2006 -0.3689
  239MOL0     C32151   5.927   5.818   2.332 -1.3081 -1.0700 -0.1470
  239MOL0     C32152   5.850   5.943   2.290  0.0085 -0.5771  0.4843
  239MOL0     C32153   5.859   5.949   2.135  0.3204  0.2133 -0.9557
  239MOL0     O32154   5.779   5.833   2.077 -0.3320 -1.0044  0.2459
  239MOL0     C32155   5.645   5.849   2.052 -0.7014  0.7936 -0.3287
  239MOL0     C32156   5.573   5.740   2.004 -1.2312  0.5869  0.4708
  239MOL0     C32157   5.428   5.740   1.996  0.6866  0.3406 -0.6571
  239MOL0     C32158   5.371   5.605   1.959 -0.3568 -0.3880 -0.4237
  239MOL0     C32159   5.356   5.857   2.032  0.1804 -0.2643  0.2333
  239MOL0     C32160   5.211   5.868   2.025  0.1243  0.1855 -0.7821
  239MOL0     O32161   5.160   5.994   2.030  0.1414 -0.5121  0.4835
  239MOL0     C32162   5.028   6.038   2.038 -0.0750  0.5483  0.2684
  239MOL0     C32163   5.001   6.162   2.085  0.4160 -0.4657  0.2326
  239MOL0     C32164   4.871   6.212   2.101  0.6764  0.4537 -0.7698
  239MOL0     C32165   4.757   6.135   2.069 -0.3899 -0.1761  0.2464
  239MOL0     O32166   4.636   6.190   2.099 -0.9715  0.0052 -0.0833
  239MOL0     C32167   4.562   6.250   1.989  0.7919 -0.6365 -0.0915
  239MOL0     C32168   4.415   6.266   2.029  0.3073  0.2741 -0.1771
  239MOL0     C32169   4.326   6.324   1.919 -0.4462 -0.6196 -0.4909
  239MOL0     C32170   4.178   6.337   1.958  0.4778 -0.1320 -0.1492
  239MOL0     C32171   4.125   6.222   2.046  1.3031  0.6979 -0.4180
  239MOL0     C32172   4.120   6.082   1.998  0.7953  0.7822 -1.2317
  239MOL0     C32173   4.010   6.068   1.895 -0.1815 -0.0029  0.2249
  239MOL0     C32174   3.936   5.926   1.914 -0.2498 -0.2758  0.5324
  239MOL0    Cl32175   3.852   5.896   1.757 -0.1090  0.2127 -0.1816
  239MOL0     C32176   4.785   6.008   2.009 -0.0376 -0.8355 -0.0977
  239MOL0     C32177   4.918   5.962   2.000  0.3785 -0.0161 -0.9190
  239MOL0     O32178   5.142   5.768   2.033  0.0362  0.2012 -0.4287
  239MOL0     C32179   5.431   5.963   2.070 -0.3125 -0.2992  1.1668
  239MOL0     C32180   5.570   5.965   2.080  0.2260  0.2043 -0.1426
  239MOL0     N32181   5.713   5.863   2.615  0.1186  0.0890  1.1020
  239MOL0     N32182   5.601   5.807   2.638 -0.4514 -0.0982 -0.5832
  239MOL0     C32183   5.824   4.891   2.557 -0.8111 -0.2411 -0.0319
  239MOL0     C32184   5.956   4.912   2.624 -0.1467 -0.5248 -0.1946
  239MOL0     C32185   6.366   4.800   2.746 -0.0636  0.4197  1.2438
  239MOL0     C32186   6.418   4.693   2.822 -0.1905  1.1239  0.4074
  239MOL0     C32187   6.549   4.699   2.885  0.0285 -0.4869  0.5664
  239MOL0     C32188   6.633   4.808   2.848 -0.3998  1.0361 -0.7715
  239MOL0     O32189   6.770   4.823   2.879  0.1541  0.7026 -0.3483
  239MOL0     C32190   6.844   4.698   2.886  0.2858 -0.1628  0.8946
  239MOL0     C32191   6.849   4.617   2.754 -1.0250 -0.3900  0.0539
  239MOL0     C32192   6.860   4.471   2.774 -0.3478  0.5397  0.4769
  239MOL0     C32193   7.003   4.420   2.805  0.9045  1.1998  0.2136
  239MOL0     C32194   7.034   4.450   2.939  0.0226  0.7589 -0.9607
  239MOL0     C32195   7.070   4.484   3.049  1.0674 -1.0106 -0.8278
  239MOL0     C32196   6.583   4.908   2.776  0.1327 -0.5563  0.0450
  239MOL0     C32197   6.453   4.908   2.725  0.3306 -0.3074  0.7565
  239MOL0     H32198   6.165   4.887   2.363  1.5844 -1.7743  2.1424
  239MOL0     H32199   5.933   4.843   2.243 -0.0547 -1.2822  0.2050
  239MOL0     H32200   5.493   4.896   2.351  0.9337 -3.6839 -0.2278
  239MOL0     H32201   5.556   4.867   2.501 -1.5119 -1.8847 -0.7406
  239MOL0     H32202   5.592   5.078   2.539 -0.9607 -0.0111 -0.4329
  239MOL0     H32203   5.701   5.105   2.392 -0.4112  0.9101 -0.1303
  239MOL0     H32204   5.472   5.111   2.266  0.8926  1.1609 -0.2815
  239MOL0     H32205   5.385   5.116   2.417 -0.3621  1.1712  1.5531
  239MOL0     H32206   5.474   5.309   2.496  1.0837  2.8752 -0.5479
  239MOL0     H32207   5.611   5.304   2.391  0.6280  0.2755 -0.7110
  239MOL0     H32208   5.452   5.373   2.204 -1.7532  1.0988 -0.6196
  239MOL0     H32209   5.316   5.374   2.324 -0.5572  0.7022  3.4117
  239MOL0     H32210   5.557   5.575   2.334 -0.8662  2.4485  2.8012
  239MOL0     H32211   5.403   5.599   2.265 -0.7846 -1.6390 -1.3608
  239MOL0     H32212   5.371   5.693   2.462  0.4094  0.7420  1.2404
  239MOL0     H32213   5.299   5.539   2.501  0.3388 -0.7369 -1.3317
  239MOL0     H32214   5.542   5.483   2.611  0.6118  0.4996 -2.3084
  239MOL0     H32215   5.430   5.596   2.685  0.4595  0.1458  0.1840
  239MOL0     H32216   5.757   5.571   2.484 -0.7604 -1.8462  0.8722
  239MOL0     H32217   5.982   5.895   2.526  1.0707 -0.1516  2.0979
  239MOL0     H32218   6.004   5.717   2.507 -0.2088  1.4661  2.3393
  239MOL0     H32219   5.870   5.730   2.301  0.9324 -3.5780  2.2972
  239MOL0     H32220   6.030   5.816   2.295 -0.3312 -0.3360  2.3165
  239MOL0     H32221   5.896   6.037   2.323  1.5070 -1.3505  0.6822
  239MOL0     H32222   5.743   5.937   2.313 -0.2383  3.3559  1.1110
  239MOL0     H32223   5.961   5.931   2.099  0.4017 -0.1974 -0.5258
  239MOL0     H32224   5.830   6.047   2.098  2.1310  1.0357 -0.3087
  239MOL0     H32225   5.629   5.650   1.980 -1.2241 -0.4492  3.8620
  239MOL0     H32226   5.287   5.610   1.889  0.2286  1.5319 -1.0376
  239MOL0     H32227   5.451   5.546   1.912 -1.2801  0.8876 -3.8808
  239MOL0     H32228   5.336   5.553   2.049 -0.3276  0.3390  0.0142
  239MOL0     H32229   5.090   6.223   2.090  1.9416 -2.4274 -1.2704
  239MOL0     H32230   4.862   6.304   2.158  1.5230 -0.6825  1.3059
  239MOL0     H32231   4.603   6.348   1.962 -0.8366  0.4570  1.2352
  239MOL0     H32232   4.559   6.183   1.902 -0.4199  1.6985 -1.9911
  239MOL0     H32233   4.382   6.165   2.052 -1.9973  0.3743 -2.5323
  239MOL0     H32234   4.409   6.318   2.125 -1.9143  0.5744 -0.4152
  239MOL0     H32235   4.329   6.263   1.829 -0.6034  0.9093 -1.5670
  239MOL0     H32236   4.369   6.421   1.894 -1.3601 -0.0676  0.0059
  239MOL0     H32237   4.160   6.433   2.008  0.5474 -0.2177  0.0412
  239MOL0     H32238   4.119   6.339   1.866  0.8439 -0.4661 -0.3929
  239MOL0     H32239   4.027   6.242   2.090  0.5798 -0.9159 -1.1978
  239MOL0     H32240   4.188   6.215   2.135  0.6981  0.4278 -0.0043
  239MOL0     H32241   4.218   6.057   1.957  1.7689  0.5334  1.1019
  239MOL0     H32242   4.110   6.014   2.083  3.2520  0.5921 -1.0350
  239MOL0     H32243   4.059   6.071   1.797 -2.7822 -0.5142 -1.1697
  239MOL0     H32244   3.939   6.151   1.890 -4.4634 -3.3106  0.5628
  239MOL0     H32245   3.867   5.924   1.999 -0.8159 -1.0871  0.0645
  239MOL0     H32246   4.015   5.851   1.920  2.5445  2.2869 -1.2077
  239MOL0     H32247   4.695   5.951   1.990  0.2062 -0.9641 -0.9009
  239MOL0     H32248   4.928   5.862   1.958 -0.5732  0.3553 -2.0850
  239MOL0     H32249   5.386   6.057   2.099  1.5068  0.8911  0.3132
  239MOL0     H32250   5.607   6.053   2.131 -1.5008  0.8470  0.0596
  239MOL0     H32251   5.730   4.909   2.608 -2.6006  0.3835 -3.2731
  239MOL0     H32252   5.953   4.930   2.731  4.3253  3.1464 -0.4081
  239MOL0     H32253   6.364   4.602   2.848  2.7104 -0.7933  0.1063
  239MOL0     H32254   6.575   4.618   2.951 -0.2703 -0.2362  1.0012
  239MOL0     H32255   6.947   4.705   2.920  0.9507  2.2377 -1.2494
  239MOL0     H32256   6.800   4.634   2.962 -0.6006 -0.2328  0.3374
  239MOL0     H32257   6.928   4.656   2.689 -0.3071 -1.4050  0.2919
  239MOL0     H32258   6.762   4.634   2.689  1.2652 -1.2117 -3.4768
  239MOL0     H32259   6.829   4.414   2.685 -1.3511  0.1787  1.0348
  239MOL0     H32260   6.801   4.443   2.862  0.0492  1.1016  0.9231
  239MOL0     H32261   7.078   4.467   2.740  0.8042  1.3850  0.2289
  239MOL0     H32262   7.020   4.315   2.781  2.2994  1.6916 -1.1512
  239MOL0     H32263   7.097   4.495   3.152  2.0450  2.2098 -1.3351
  239MOL0     H32264   6.655   4.989   2.765 -0.0204 -0.4463 -0.1700
  239MOL0     H32265   6.415   4.996   2.674 -0.2919 -2.3959 -2.7079
  240MOL0     O32266   9.993   4.553   8.839 -0.0319  0.1550  0.1950
  240MOL0     C32267   9.938   4.493   8.932 -0.1211  0.1695  0.0838
  240MOL0     O32268   9.823   4.526   9.003 -0.1411 -0.2279  0.7663
  240MOL0     C32269   9.766   4.646   8.978  0.2065  0.2150  0.0129
  240MOL0     C32270   9.717   4.698   8.860 -0.0482  0.5832  0.1353
  240MOL0     C32271   9.663   4.823   8.848  0.1354  0.9583 -0.4587
  240MOL0     C32272   9.657   4.903   8.957 -0.3254  0.2716  0.3965
  240MOL0     O32273   9.616   5.039   8.957 -0.5011  0.1316  0.8441
  240MOL0     C32274   9.535   5.082   8.849  0.0082 -1.1179 -0.3384
  240MOL0     C32275   9.468   5.208   8.888  0.4273 -0.3416  0.3846
  240MOL0     C32276   9.341   5.249   8.820 -0.1612 -0.0463 -0.1130
  240MOL0     C32277   9.289   5.391   8.872  0.1247  0.5930  0.8447
  240MOL0     C32278   9.181   5.449   8.774 -0.2117 -0.5320 -0.6595
  240MOL0     C32279   9.058   5.366   8.768 -0.4115  0.3449 -0.4921
  240MOL0     C32280   8.933   5.450   8.780  0.5512 -1.1228 -0.8436
  240MOL0     C32281   8.919   5.533   8.909  0.3553  1.0118  1.5094
  240MOL0     N32282   8.788   5.536   8.969  0.3941 -0.2089  0.5451
  240MOL0     C32283   8.698   5.430   9.004 -0.3865  0.6697 -0.5299
  240MOL0     C32284   8.588   5.490   9.038  0.8023  0.7961 -0.4436
  240MOL0     C32285   8.459   5.421   9.085 -0.5534  0.4566  0.8589
  240MOL0     C32286   8.335   5.506   9.055  0.9560  0.3267 -0.0454
  240MOL0     C32287   8.308   5.528   8.899  0.3647  0.8453 -0.7087
  240MOL0     C32288   8.193   5.624   8.864 -0.1386  0.0843  0.5958
  240MOL0     O32289   8.067   5.575   8.906  0.3002 -0.8566 -1.1306
  240MOL0     C32290   7.962   5.660   8.878 -0.6598 -0.0226 -0.3485
  240MOL0     C32291   7.963   5.800   8.858  0.0335 -0.1873  0.1247
  240MOL0     C32292   7.846   5.877   8.823  0.1707  0.2672 -1.1648
  240MOL0     C32293   7.864   6.027   8.814 -1.1787 -0.0384 -0.3672
  240MOL0     C32294   7.724   5.805   8.803 -0.3152  0.5184 -0.8813
  240MOL0     C32295   7.603   5.866   8.754  0.7507  0.1627  0.4195
  240MOL0     O32296   7.482   5.821   8.785  0.1182 -0.4471  0.6730
  240MOL0     C32297   7.380   5.850   8.697  0.2826  0.0435  0.2355
  240MOL0     C32298   7.301   5.967   8.725 -0.8100  0.3436 -0.9035
  240MOL0     C32299   7.204   6.010   8.639 -0.2844 -0.4290  0.1603
  240MOL0     C32300   7.168   5.934   8.523 -0.0346  0.7189  0.3028
  240MOL0     O32301   7.076   5.959   8.432  0.4211 -0.3974 -0.2093
  240MOL0     C32302   7.028   6.093   8.425 -0.0086 -0.1612  0.0753
  240MOL0     C32303   7.143   6.191   8.355  0.8310  0.7763 -0.5841
  240MOL0     C32304   7.111   6.341   8.332  0.6583 -0.0432 -0.0840
  240MOL0     C32305   7.088   6.413   8.462  0.1097  0.9752 -0.2366
  240MOL0     C32306   7.038   6.559   8.434 -0.3349 -0.9630 -0.1628
  240MOL0     C32307   6.894   6.555   8.377 -0.1801  0.1639  0.3896
  240MOL0     C32308   6.824   6.686   8.427 -0.2288 -0.1449  0.8043
  240MOL0     C32309   6.665   6.693   8.404 -0.3908  0.4625  1.2792
  240MOL0    Cl32310   6.595   6.842   8.454 -0.5399  0.2666 -0.0661
  240MOL0     C32311   7.249   5.816   8.494 -0.0226  0.0411 -0.6008
  240MOL0     C32312   7.354   5.772   8.580  0.6883  0.1379  0.1588
  240MOL0     O32313   7.619   5.961   8.671  0.9593  0.6277 -0.1206
  240MOL0     C32314   7.725   5.660   8.830 -0.2104 -0.5240 -0.6627
  240MOL0     C32315   7.841   5.595   8.867  0.2128  0.5952  0.2401
  240MOL0     N32316   8.598   5.626   9.017 -0.1912 -0.0744  0.2401
  240MOL0     N32317   8.722   5.658   8.977  0.1694  0.1947  0.4123
  240MOL0     C32318   9.703   4.853   9.080  0.1385 -0.1111 -0.7831
  240MOL0     C32319   9.754   4.729   9.095  0.3308 -0.3184  0.2764
  240MOL0     C32320  10.011   4.369   8.966 -0.4577  0.4841  0.1485
  240MOL0     C32321  10.105   4.312   8.877  0.2373 -0.8241 -0.1120
  240MOL0     C32322  10.178   4.201   8.909  0.0759  0.1470  0.2854
  240MOL0     C32323  10.166   4.146   9.037 -0.1039  0.0211 -0.2279
  240MOL0     O32324  10.241   4.041   9.081 -0.5516 -0.0415 -0.4738
  240MOL0     C32325  10.287   3.942   8.993 -0.5258 -0.3915 -0.2160
  240MOL0     C32326  10.189   3.837   8.973 -0.5099  0.5155  0.1937
  240MOL0     C32327  10.197   3.731   9.089  0.5288 -0.0754  0.4116
  240MOL0     C32328  10.109   3.751   9.212 -0.3625 -0.7232 -0.2706
  240MOL0     C32329   9.967   3.732   9.176  0.1852  0.0872 -0.0827
  240MOL0     C32330   9.852   3.747   9.142 -0.3772  0.0044 -0.0870
  240MOL0     C32331  10.075   4.196   9.124 -0.1775 -0.1926  0.1430
  240MOL0     C32332   9.996   4.304   9.086 -0.3585 -0.4977  0.5321
  240MOL0     H32333   9.732   4.644   8.768  0.4435  4.2982 -2.1709
  240MOL0     H32334   9.630   4.852   8.748  0.6316  1.7126 -0.4057
  240MOL0     H32335   9.594   5.094   8.758 -1.1527 -0.4404 -1.0166
  240MOL0     H32336   9.460   5.003   8.842  1.7655 -2.7163 -2.3048
  240MOL0     H32337   9.446   5.211   8.995 -0.1747 -1.6634  0.3250
  240MOL0     H32338   9.542   5.284   8.861  0.1813 -1.1297 -2.9933
  240MOL0     H32339   9.361   5.253   8.712  1.0597  0.2069  0.1119
  240MOL0     H32340   9.268   5.167   8.825  0.5472 -0.8999 -2.3118
  240MOL0     H32341   9.248   5.372   8.971 -0.7204 -0.4393  0.3142
  240MOL0     H32342   9.374   5.460   8.867  1.0242 -0.5576 -0.5403
  240MOL0     H32343   9.154   5.546   8.818  1.0735 -0.2006 -0.5688
  240MOL0     H32344   9.219   5.464   8.673 -2.1687 -1.9181 -1.6566
  240MOL0     H32345   9.043   5.322   8.669 -0.5866  0.4865 -0.5281
  240MOL0     H32346   9.063   5.290   8.847 -0.0682  0.8671 -0.0118
  240MOL0     H32347   8.914   5.524   8.702  1.5884  1.4804  1.1984
  240MOL0     H32348   8.849   5.381   8.770 -0.0513 -0.6859  0.7735
  240MOL0     H32349   8.947   5.637   8.892  0.8766  1.1070  2.7791
  240MOL0     H32350   8.994   5.504   8.983  1.1267 -1.6091 -0.1582
  240MOL0     H32351   8.719   5.324   9.014  2.0818  1.2269  1.4304
  240MOL0     H32352   8.449   5.326   9.031  0.8238 -1.6016  3.9259
  240MOL0     H32353   8.467   5.408   9.193 -0.6542  2.9029  1.2161
  240MOL0     H32354   8.342   5.604   9.104  2.3098 -0.2828  1.0455
  240MOL0     H32355   8.245   5.457   9.092  0.4918  1.7134  0.7378
  240MOL0     H32356   8.286   5.432   8.851 -0.8775  0.0697  1.2814
  240MOL0     H32357   8.401   5.557   8.851  1.2328  0.4242  0.6528
  240MOL0     H32358   8.194   5.648   8.757  0.8654 -1.3175  0.2654
  240MOL0     H32359   8.219   5.713   8.923 -1.2629 -0.9809  2.7762
  240MOL0     H32360   8.055   5.854   8.879 -0.4040  1.0603 -1.0935
  240MOL0     H32361   7.823   6.083   8.899 -1.0397 -1.2941  0.5576
  240MOL0     H32362   7.972   6.044   8.807 -0.4164 -4.2203 -1.9979
  240MOL0     H32363   7.814   6.057   8.722 -1.3152 -0.5707 -0.4666
  240MOL0     H32364   7.335   6.007   8.821  3.0090 -3.8123 -0.1252
  240MOL0     H32365   7.160   6.105   8.667  1.1594 -0.2895  2.1140
  240MOL0     H32366   6.943   6.105   8.358  2.1801 -0.5339 -2.9924
  240MOL0     H32367   7.005   6.129   8.525  0.3875 -3.2102  1.3775
  240MOL0     H32368   7.234   6.181   8.414 -0.3612 -0.3238  1.1949
  240MOL0     H32369   7.168   6.154   8.256 -0.1185 -1.2559 -0.1296
  240MOL0     H32370   7.026   6.349   8.263  1.4256  1.5375 -0.9079
  240MOL0     H32371   7.196   6.389   8.282 -0.7387  1.8145 -0.7842
  240MOL0     H32372   7.018   6.364   8.530  0.8962 -1.3056 -0.9785
  240MOL0     H32373   7.186   6.414   8.511  0.5168  0.3338 -1.0160
  240MOL0     H32374   7.103   6.602   8.357 -2.6788 -0.1305 -1.7902
  240MOL0     H32375   7.050   6.612   8.529 -0.2573 -4.3240  1.8561
  240MOL0     H32376   6.892   6.570   8.269 -1.0231  3.2300  0.7332
  240MOL0     H32377   6.834   6.468   8.405 -2.3723  1.4498 -0.0803
  240MOL0     H32378   6.865   6.770   8.369  1.9996 -0.1398  2.2486
  240MOL0     H32379   6.842   6.719   8.530 -0.5628  1.4195  0.3960
  240MOL0     H32380   6.619   6.615   8.465  2.7322 -1.5155  1.3262
  240MOL0     H32381   6.658   6.684   8.295  1.5612  1.5119  1.0273
  240MOL0     H32382   7.222   5.748   8.413  0.6189 -0.5821 -0.2998
  240MOL0     H32383   7.409   5.682   8.555  0.0271 -0.4825  0.8788
  240MOL0     H32384   7.639   5.599   8.809 -0.2108 -0.6977 -0.1624
  240MOL0     H32385   7.843   5.487   8.871 -0.1355  0.5627 -0.4039
  240MOL0     H32386   9.707   4.903   9.176 -0.8818  0.1176 -0.8513
  240MOL0     H32387   9.784   4.688   9.190 -1.4774 -2.2883  0.0756
  240MOL0     H32388  10.108   4.358   8.779  0.1308 -0.2633  0.1475
  240MOL0     H32389  10.246   4.146   8.844  0.5876 -2.9553  3.1739
  240MOL0     H32390  10.332   3.969   8.897  0.2195 -3.0665 -0.6974
  240MOL0     H32391  10.378   3.903   9.039 -1.5723 -1.5491  0.9339
  240MOL0     H32392  10.215   3.789   8.878 -0.2463  1.5888 -0.2925
  240MOL0     H32393  10.091   3.881   8.954 -0.4567  0.0497 -1.3717
  240MOL0     H32394  10.303   3.727   9.115  1.2165  3.4181 -1.2756
  240MOL0     H32395  10.159   3.635   9.051 -0.7057 -0.2237  1.9513
  240MOL0     H32396  10.131   3.841   9.270  3.3053 -2.3853  1.2123
  240MOL0     H32397  10.143   3.678   9.286 -1.7439 -1.1306 -0.0194
  240MOL0     H32398   9.751   3.747   9.106 -0.7107  1.7764  0.7592
  240MOL0     H32399  10.080   4.155   9.224  1.9762 -1.4006 -0.3887
  240MOL0     H32400   9.922   4.332   9.161 -0.3112 -1.0191  0.7796
  241MOL0     O32401   4.566   0.802   5.348  0.0890  0.2219  0.7875
  241MOL0     C32402   4.624   0.701   5.378 -0.4254  0.3883  0.3856
  241MOL0     O32403   4.571   0.585   5.416  0.9178 -0.5172  0.2331
  241MOL0     C32404   4.432   0.574   5.424 -0.4515 -0.0356  0.6303
  241MOL0     C32405   4.357   0.669   5.507  0.6808  0.4579 -0.3014
  241MOL0     C32406   4.227   0.631   5.550 -0.0458  0.0075 -1.6059
  241MOL0     C32407   4.167   0.511   5.507  0.2153  0.1556  0.8869
  241MOL0     O32408   4.040   0.488   5.552 -0.6569  0.1711  0.2179
  241MOL0     C32409   3.947   0.435   5.465  0.4211  0.0101 -0.0582
  241MOL0     C32410   3.808   0.459   5.538 -0.1577  0.1068 -0.1821
  241MOL0     C32411   3.685   0.441   5.451 -0.1473  0.3063  0.0233
  241MOL0     C32412   3.559   0.493   5.513 -0.2753  0.0912  0.1235
  241MOL0     C32413   3.448   0.522   5.412 -0.0393  0.8923  0.3133
  241MOL0     C32414   3.327   0.560   5.495  0.3029  0.0182 -0.1379
  241MOL0     C32415   3.265   0.436   5.567 -0.3968 -0.0197 -0.3030
  241MOL0     C32416   3.124   0.460   5.636 -0.0403  0.5380  0.2321
  241MOL0     N32417   3.028   0.474   5.532  0.6266 -0.3345  1.1895
  241MOL0     C32418   2.936   0.387   5.491  0.2157  1.0148  0.9942
  241MOL0     C32419   2.877   0.448   5.381  0.1266 -0.3894  0.9945
  241MOL0     C32420   2.780   0.399   5.278  0.1881 -0.2495 -0.6196
  241MOL0     C32421   2.656   0.327   5.347 -0.4798 -0.4218 -0.3233
  241MOL0     C32422   2.538   0.296   5.259  0.8163  0.1667 -0.0544
  241MOL0     C32423   2.440   0.410   5.233  0.2936  0.0839 -0.2658
  241MOL0     O32424   2.326   0.363   5.156  0.7027 -0.0091  0.2563
  241MOL0     C32425   2.210   0.432   5.164  0.4434  0.1523 -0.4710
  241MOL0     C32426   2.198   0.570   5.186  0.4929  0.5256  0.0733
  241MOL0     C32427   2.068   0.636   5.188  0.1444  0.5161  0.4674
  241MOL0     C32428   2.058   0.782   5.216 -1.0214  0.8796 -0.5731
  241MOL0     C32429   1.955   0.550   5.162 -0.0548 -0.5703  0.1391
  241MOL0     C32430   1.817   0.592   5.145  0.3895 -0.9151 -0.3386
  241MOL0     O32431   1.730   0.568   5.248 -0.1335  0.8291  0.2607
  241MOL0     C32432   1.593   0.570   5.233 -0.5311 -0.5881 -0.0652
  241MOL0     C32433   1.523   0.655   5.313  0.1829  0.8833  0.3185
  241MOL0     C32434   1.385   0.664   5.307  0.6315 -0.3266  1.1147
  241MOL0     C32435   1.312   0.590   5.219 -0.1038  0.1513  0.7538
  241MOL0     O32436   1.177   0.603   5.182  0.6115  0.0239 -0.0978
  241MOL0     C32437   1.090   0.704   5.229 -1.3457  0.4207  0.0036
  241MOL0     C32438   1.094   0.832   5.148  0.2701  0.4094 -0.7108
  241MOL0     C32439   1.001   0.937   5.209 -0.6515  0.0170 -0.3174
  241MOL0     C32440   0.997   1.064   5.125  0.1669  0.1934  0.0672
  241MOL0     C32441   0.874   1.147   5.154  0.5224 -0.3509 -0.4157
  241MOL0     C32442   0.862   1.265   5.054 -0.2847  0.0146  0.0681
  241MOL0     C32443   0.743   1.351   5.093 -0.4943 -0.5528  0.2545
  241MOL0     C32444   0.754   1.500   5.043  0.1694  0.2804 -0.5892
  241MOL0    Cl32445   0.867   1.592   5.131  0.0837  0.1185 -0.1781
  241MOL0     C32446   1.385   0.498   5.131 -0.2850 -0.0218 -0.3345
  241MOL0     C32447   1.527   0.492   5.140 -0.2156  0.4025 -0.8173
  241MOL0     O32448   1.787   0.643   5.037  0.5492  0.4229 -0.1371
  241MOL0     C32449   1.970   0.414   5.149  0.2063  0.8036  0.3197
  241MOL0     C32450   2.098   0.360   5.140 -1.6931 -0.0210 -1.1659
  241MOL0     N32451   2.923   0.575   5.364 -0.8475 -0.2210  0.3176
  241MOL0     N32452   3.014   0.589   5.458  0.5200 -0.2791  0.3604
  241MOL0     C32453   4.235   0.427   5.427 -1.1341  0.6423  0.4789
  241MOL0     C32454   4.368   0.451   5.393 -0.6081 -0.4551  0.0360
  241MOL0     C32455   4.772   0.713   5.362  0.6175  0.3264  0.2283
  241MOL0     C32456   4.840   0.827   5.318 -0.6305  0.1062 -0.1179
  241MOL0     C32457   4.972   0.826   5.295  0.4174 -0.0017  0.4064
  241MOL0     C32458   5.053   0.718   5.311 -0.3328  0.5791  0.1061
  241MOL0     O32459   5.191   0.733   5.284  0.8229 -0.3070  0.0416
  241MOL0     C32460   5.278   0.615   5.259  0.6186 -0.5532  0.4606
  241MOL0     C32461   5.419   0.650   5.194 -0.2023  0.5576 -0.7750
  241MOL0     C32462   5.410   0.716   5.052 -0.1608  0.2394  0.5851
  241MOL0     C32463   5.401   0.608   4.949  0.0762  0.1850  0.4326
  241MOL0     C32464   5.356   0.659   4.825  0.2353 -0.6734 -0.0352
  241MOL0     C32465   5.331   0.710   4.719  0.7317  0.1661  0.5875
  241MOL0     C32466   4.988   0.597   5.338  0.0048  0.3844 -0.4477
  241MOL0     C32467   4.848   0.596   5.375 -0.2766  0.0495 -0.0021
  241MOL0     H32468   4.408   0.750   5.558 -2.4343  2.0566  0.4740
  241MOL0     H32469   4.184   0.692   5.628 -0.5382 -1.3939 -0.7360
  241MOL0     H32470   3.942   0.499   5.376 -0.0867  0.6624  0.4356
  241MOL0     H32471   3.970   0.331   5.440  1.3264  0.1617  0.0794
  241MOL0     H32472   3.807   0.400   5.630  0.6573  0.5243  0.1063
  241MOL0     H32473   3.810   0.562   5.576  1.5580  0.1105 -0.1729
  241MOL0     H32474   3.708   0.489   5.356 -0.2201  2.5329  1.0496
  241MOL0     H32475   3.668   0.335   5.431  0.1474  0.2741 -0.0507
  241MOL0     H32476   3.524   0.422   5.589  2.9617 -2.1427 -0.3126
  241MOL0     H32477   3.583   0.592   5.555 -0.1856 -0.2015  0.7801
  241MOL0     H32478   3.475   0.610   5.353 -0.5183  2.2083  1.9507
  241MOL0     H32479   3.432   0.433   5.351  0.9419  1.1787 -0.3800
  241MOL0     H32480   3.341   0.629   5.579  1.4994  1.5543 -1.5227
  241MOL0     H32481   3.241   0.600   5.439 -0.2325  0.8988  1.2556
  241MOL0     H32482   3.246   0.363   5.488  1.2834 -0.2385 -0.5413
  241MOL0     H32483   3.323   0.398   5.652 -2.8329 -2.2993  0.4847
  241MOL0     H32484   3.132   0.552   5.695 -0.7661  0.9809 -0.3373
  241MOL0     H32485   3.089   0.375   5.694  0.1430 -1.6730 -2.7032
  241MOL0     H32486   2.915   0.286   5.525  4.0557 -0.3404 -0.2018
  241MOL0     H32487   2.744   0.489   5.226  0.1607 -0.0117 -0.1922
  241MOL0     H32488   2.825   0.337   5.200  0.8516  2.6371 -2.7080
  241MOL0     H32489   2.626   0.387   5.434  1.2842 -0.8509  0.6265
  241MOL0     H32490   2.692   0.236   5.395 -0.0935 -0.5108 -0.7725
  241MOL0     H32491   2.483   0.217   5.310 -0.3015 -0.2635 -1.8512
  241MOL0     H32492   2.568   0.266   5.158 -1.9139 -0.1314 -0.8620
  241MOL0     H32493   2.486   0.491   5.175  2.4820 -2.0222 -1.6656
  241MOL0     H32494   2.415   0.444   5.334  0.2319  1.1379 -0.6261
  241MOL0     H32495   2.286   0.630   5.208  0.3809  1.1544 -1.0813
  241MOL0     H32496   1.954   0.797   5.244 -1.9099 -4.6331  0.1972
  241MOL0     H32497   2.118   0.814   5.302  0.7955  0.4624 -1.6262
  241MOL0     H32498   2.110   0.830   5.133 -0.5097  0.9844 -0.2002
  241MOL0     H32499   1.579   0.708   5.390 -1.3857  3.2164 -0.0459
  241MOL0     H32500   1.345   0.737   5.377  2.6287  4.2037 -1.9907
  241MOL0     H32501   0.991   0.661   5.213 -0.3452 -1.2783 -2.3191
  241MOL0     H32502   1.104   0.716   5.336 -0.0346  1.2363 -0.2257
  241MOL0     H32503   1.196   0.871   5.158 -0.3956  1.5359  3.7749
  241MOL0     H32504   1.080   0.819   5.041  1.2109 -1.5729 -0.6422
  241MOL0     H32505   1.027   0.963   5.312 -3.1841  0.3612  0.2980
  241MOL0     H32506   0.903   0.889   5.206 -0.8085 -0.0684  2.7329
  241MOL0     H32507   1.091   1.119   5.136  0.7429 -0.8838  0.6480
  241MOL0     H32508   0.994   1.038   5.019  1.0605  1.1973 -0.2218
  241MOL0     H32509   0.888   1.173   5.259  1.2772  1.3026 -0.9007
  241MOL0     H32510   0.780   1.092   5.141  0.5108 -0.0830 -1.5349
  241MOL0     H32511   0.958   1.318   5.061  0.0624 -0.2583 -1.9226
  241MOL0     H32512   0.853   1.213   4.958  3.2231 -0.8087  0.0447
  241MOL0     H32513   0.733   1.343   5.202  0.1748  2.3079  0.6293
  241MOL0     H32514   0.652   1.304   5.054  0.4019 -1.1611 -1.1684
  241MOL0     H32515   0.655   1.544   5.057  1.0372  1.2604  4.4017
  241MOL0     H32516   0.790   1.507   4.940  1.1777 -1.6513 -0.4001
  241MOL0     H32517   1.324   0.452   5.054  1.1799 -0.3890 -1.3264
  241MOL0     H32518   1.576   0.424   5.072 -0.4824 -1.8842  1.1158
  241MOL0     H32519   1.886   0.347   5.137  1.2846 -0.8179  1.3502
  241MOL0     H32520   2.116   0.258   5.108 -1.1798  0.2667 -1.8093
  241MOL0     H32521   4.196   0.332   5.392  1.4865  0.0490 -1.1355
  241MOL0     H32522   4.425   0.374   5.342  1.4920  1.0530 -0.0395
  241MOL0     H32523   4.786   0.921   5.307  0.8189  0.6929 -3.2865
  241MOL0     H32524   5.022   0.915   5.258  0.8585  0.0986  1.2290
  241MOL0     H32525   5.286   0.548   5.346  1.1205  0.2447  1.0361
  241MOL0     H32526   5.224   0.553   5.187 -1.7033  3.1039 -1.2647
  241MOL0     H32527   5.472   0.555   5.197 -0.0294  0.4401 -4.0310
  241MOL0     H32528   5.469   0.712   5.269  1.8809 -2.5155  0.5490
  241MOL0     H32529   5.499   0.776   5.035  0.6396 -0.8883  0.7111
  241MOL0     H32530   5.317   0.771   5.035  1.2240  2.5279 -0.0023
  241MOL0     H32531   5.333   0.528   4.981 -1.5104  2.0592  2.0287
  241MOL0     H32532   5.503   0.578   4.926  0.5235  2.1002 -0.2700
  241MOL0     H32533   5.303   0.745   4.621  0.9098 -0.0636  0.4536
  241MOL0     H32534   5.042   0.505   5.357 -4.3142 -2.5140 -0.5449
  241MOL0     H32535   4.808   0.503   5.414  0.8067 -0.6808 -0.6066
  242MOL0     O32536  10.463   0.358   4.945  0.1566 -0.1049 -0.2217
  242MOL0     C32537  10.528   0.272   4.881 -0.2375 -0.0464  0.1148
  242MOL0     O32538  10.516   0.233   4.754 -0.8755 -0.9977  0.6343
  242MOL0     C32539  10.421   0.285   4.674  0.8966  0.0480  0.0439
  242MOL0     C32540  10.464   0.315   4.545 -0.4538  0.0655 -0.4734
  242MOL0     C32541  10.362   0.346   4.451 -0.1058  0.5195 -0.0337
  242MOL0     C32542  10.231   0.373   4.496  0.0642 -0.0823 -0.1941
  242MOL0     O32543  10.131   0.409   4.417  0.1290 -0.3135  0.1609
  242MOL0     C32544  10.137   0.367   4.279 -0.3858  0.0482 -0.5783
  242MOL0     C32545   9.999   0.350   4.226 -0.5900 -0.6480 -0.4292
  242MOL0     C32546   9.936   0.489   4.207 -0.2633 -0.2719 -0.5260
  242MOL0     C32547   9.790   0.495   4.161  0.4753  0.0273 -0.6059
  242MOL0     C32548   9.771   0.451   4.012  0.7057  0.4625  1.0234
  242MOL0     C32549   9.622   0.470   3.972  0.0741  0.8826  0.7075
  242MOL0     C32550   9.594   0.473   3.818 -0.2758  0.9716  0.0796
  242MOL0     C32551   9.631   0.332   3.763 -0.6461  0.4311 -0.4065
  242MOL0     N32552   9.553   0.311   3.640  0.5229  0.0828 -0.2491
  242MOL0     C32553   9.416   0.328   3.619  0.7384  0.6102 -0.8572
  242MOL0     C32554   9.402   0.295   3.489  1.5491  0.1908 -0.5637
  242MOL0     C32555   9.266   0.267   3.441 -0.4915 -0.6726  0.7112
  242MOL0     C32556   9.214   0.132   3.474  0.7904 -0.5893 -0.7421
  242MOL0     C32557   9.278   0.032   3.367 -0.1502 -0.4409  0.1853
  242MOL0     C32558   9.202  -0.101   3.361  0.2541  0.0524  0.1316
  242MOL0     O32559   9.065  -0.068   3.335  0.3811  0.1628  0.0145
  242MOL0     C32560   8.979  -0.170   3.304 -0.0959 -0.1971  0.2018
  242MOL0     C32561   8.845  -0.142   3.264  0.0972  0.4964 -0.1536
  242MOL0     C32562   8.756  -0.239   3.214  0.2389 -0.4637  0.2484
  242MOL0     C32563   8.625  -0.187   3.157  0.2126  0.3487  0.4820
  242MOL0     C32564   8.788  -0.373   3.231 -0.4665 -0.5198 -0.9980
  242MOL0     C32565   8.706  -0.483   3.177 -0.2013 -0.0351 -0.1230
  242MOL0     O32566   8.750  -0.611   3.202 -0.1188  0.0965 -0.6168
  242MOL0     C32567   8.690  -0.725   3.159  0.5852  0.1893 -0.4723
  242MOL0     C32568   8.614  -0.732   3.037  0.3207  0.3901  0.5939
  242MOL0     C32569   8.549  -0.848   2.983  0.2444 -0.2571  0.3174
  242MOL0     C32570   8.578  -0.969   3.046 -0.1714 -0.8036  0.4686
  242MOL0     O32571   8.540  -1.087   2.985 -0.0022 -0.1318 -0.3575
  242MOL0     C32572   8.599  -1.209   3.026 -0.5945  0.5992 -0.1524
  242MOL0     C32573   8.494  -1.322   2.999 -0.4455  0.2979 -0.4620
  242MOL0     C32574   8.380  -1.324   3.099 -0.4502  0.2095 -0.3086
  242MOL0     C32575   8.249  -1.369   3.044  0.2534  0.5004  0.3762
  242MOL0     C32576   8.147  -1.416   3.143  0.0081 -0.6214  0.5188
  242MOL0     C32577   8.008  -1.440   3.076  0.4849  0.2753  0.0323
  242MOL0     C32578   7.921  -1.544   3.152  0.9647  0.6450  0.1935
  242MOL0     C32579   7.964  -1.681   3.136 -0.1485  0.5038 -0.0875
  242MOL0    Cl32580   7.837  -1.796   3.192 -0.5189 -0.1089 -0.1402
  242MOL0     C32581   8.641  -0.958   3.168  0.4364 -1.1352 -0.6541
  242MOL0     C32582   8.699  -0.843   3.226  1.4960  0.1637 -0.3578
  242MOL0     O32583   8.597  -0.458   3.123 -0.2732  0.2019  0.4700
  242MOL0     C32584   8.908  -0.407   3.304 -0.6408 -0.7422 -0.2025
  242MOL0     C32585   9.003  -0.307   3.331  0.3802  0.7908  0.1991
  242MOL0     N32586   9.517   0.266   3.430 -0.4736  0.4860 -0.2012
  242MOL0     N32587   9.609   0.285   3.519  0.4921  0.0863 -0.0194
  242MOL0     C32588  10.194   0.361   4.633 -0.0577 -0.5610  0.3010
  242MOL0     C32589  10.290   0.315   4.718 -0.8308 -0.2637  0.2855
  242MOL0     C32590  10.654   0.224   4.940  0.9178 -0.2438 -0.2583
  242MOL0     C32591  10.711   0.304   5.042  0.5617  0.2892 -0.6065
  242MOL0     C32592  10.832   0.276   5.095  0.1198  1.2111 -0.2653
  242MOL0     C32593  10.897   0.153   5.069  0.4196 -0.5441  0.2960
  242MOL0     O32594  11.007   0.133   5.145 -0.3808  0.0237 -0.5801
  242MOL0     C32595  11.069   0.005   5.142  0.5582  0.1527  1.3035
  242MOL0     C32596  11.199   0.011   5.208 -0.4178  0.6212 -0.2622
  242MOL0     C32597  11.251  -0.131   5.238 -0.4658  0.0776  0.1198
  242MOL0     C32598  11.393  -0.120   5.300 -0.3494  0.8636  0.1001
  242MOL0     C32599  11.437  -0.263   5.331 -0.4005 -0.2445  0.2808
  242MOL0     C32600  11.470  -0.372   5.364 -0.3921  0.2787 -0.1087
  242MOL0     C32601  10.843   0.063   4.975  0.1088 -0.5071  0.1229
  242MOL0     C32602  10.720   0.112   4.906 -0.4523 -0.1949  0.3642
  242MOL0     H32603  10.569   0.302   4.517 -0.5368  0.8513 -1.1742
  242MOL0     H32604  10.398   0.365   4.350 -0.2395  0.3235 -0.1184
  242MOL0     H32605  10.194   0.431   4.211  2.0770 -0.5521  0.8045
  242MOL0     H32606  10.194   0.274   4.279 -1.1790 -0.4533 -0.9740
  242MOL0     H32607  10.022   0.311   4.126  6.2438  0.7454  0.0700
  242MOL0     H32608   9.950   0.282   4.295  0.1969  0.2329  1.0467
  242MOL0     H32609   9.938   0.541   4.303 -1.9220  1.1525 -1.1954
  242MOL0     H32610   9.994   0.548   4.136  1.0723  0.4265  1.0931
  242MOL0     H32611   9.741   0.424   4.228  1.1488 -0.6692 -0.8423
  242MOL0     H32612   9.740   0.591   4.175  2.8009  0.9254  2.6944
  242MOL0     H32613   9.822   0.523   3.948 -2.6195  1.3872 -0.8314
  242MOL0     H32614   9.796   0.346   3.994 -2.1865 -0.2330  0.5510
  242MOL0     H32615   9.559   0.398   4.025  0.6806 -0.1611  0.0431
  242MOL0     H32616   9.586   0.568   4.004  2.2906  2.3898 -1.1132
  242MOL0     H32617   9.492   0.509   3.799 -0.8443 -0.9352 -0.6785
  242MOL0     H32618   9.647   0.555   3.769 -0.8819  0.7931 -0.8935
  242MOL0     H32619   9.583   0.260   3.832 -1.4093 -0.7183 -2.0673
  242MOL0     H32620   9.736   0.305   3.752 -1.5368 -3.0581 -1.7370
  242MOL0     H32621   9.346   0.342   3.700  2.3847 -0.8425  0.9216
  242MOL0     H32622   9.195   0.334   3.490 -3.1994 -0.8271 -2.5828
  242MOL0     H32623   9.261   0.283   3.333  0.6630 -1.2652  0.5588
  242MOL0     H32624   9.105   0.131   3.466  0.6923 -1.2625  0.4798
  242MOL0     H32625   9.235   0.108   3.578 -2.4890 -1.1770 -0.0902
  242MOL0     H32626   9.382   0.005   3.383  0.0824  1.0283  1.3551
  242MOL0     H32627   9.268   0.074   3.267  2.3150  1.4149  0.6399
  242MOL0     H32628   9.221  -0.151   3.456  0.6500 -0.0270  0.0166
  242MOL0     H32629   9.244  -0.168   3.285 -1.7045 -1.4940  0.3260
  242MOL0     H32630   8.817  -0.038   3.273 -1.5335 -0.0288  1.6260
  242MOL0     H32631   8.616  -0.083   3.192  4.5341  0.9039  0.4706
  242MOL0     H32632   8.616  -0.190   3.048  0.4954  4.9483  0.1295
  242MOL0     H32633   8.540  -0.234   3.208 -1.5843  2.4125 -0.4144
  242MOL0     H32634   8.610  -0.648   2.968  2.1329 -1.1395 -1.4988
  242MOL0     H32635   8.503  -0.845   2.885  0.7651 -0.8104  0.0501
  242MOL0     H32636   8.693  -1.223   2.972  0.4116  1.6080  1.2721
  242MOL0     H32637   8.614  -1.215   3.134 -1.6231  1.5175  0.0627
  242MOL0     H32638   8.457  -1.301   2.898 -1.3354 -0.0597 -0.2242
  242MOL0     H32639   8.536  -1.422   2.999  0.9765  0.7681  2.8953
  242MOL0     H32640   8.355  -1.222   3.129  0.5835  1.4595 -3.3032
  242MOL0     H32641   8.421  -1.379   3.184  4.1957  1.1648 -1.6720
  242MOL0     H32642   8.211  -1.282   2.989 -0.4871  0.2130  0.4234
  242MOL0     H32643   8.260  -1.457   2.981 -1.8788 -0.2804  0.9930
  242MOL0     H32644   8.121  -1.327   3.202 -2.7162  0.2196 -1.7109
  242MOL0     H32645   8.189  -1.493   3.208 -0.5650 -0.5842  0.9489
  242MOL0     H32646   7.967  -1.339   3.064  1.8243  0.8622  0.2258
  242MOL0     H32647   8.030  -1.485   2.979  1.7388 -1.5131  1.0811
  242MOL0     H32648   7.819  -1.538   3.114  1.0625  0.0124 -0.1714
  242MOL0     H32649   7.906  -1.521   3.258  0.9767 -2.0529  0.8292
  242MOL0     H32650   8.059  -1.706   3.184 -1.7554 -2.1318  2.0331
  242MOL0     H32651   7.975  -1.700   3.029 -2.6168  1.8838 -0.6666
  242MOL0     H32652   8.637  -1.045   3.233  2.7501 -0.9129 -0.0992
  242MOL0     H32653   8.738  -0.845   3.327  1.5722  0.7560 -0.3709
  242MOL0     H32654   8.948  -0.504   3.329  0.4862 -0.1786  0.2556
  242MOL0     H32655   9.097  -0.338   3.376  0.3955  1.5082  0.6747
  242MOL0     H32656  10.096   0.384   4.673  0.0081 -2.4207  1.6194
  242MOL0     H32657  10.258   0.295   4.820 -1.2222 -2.8741 -0.2811
  242MOL0     H32658  10.657   0.394   5.068 -0.6976 -0.2702 -1.1962
  242MOL0     H32659  10.876   0.341   5.171 -1.7109 -1.7930  3.7472
  242MOL0     H32660  11.005  -0.070   5.189 -2.5554  1.5791 -0.3245
  242MOL0     H32661  11.090  -0.027   5.039  1.2749 -0.9348  1.7786
  242MOL0     H32662  11.183   0.057   5.306  0.7305 -0.8108  0.6394
  242MOL0     H32663  11.271   0.076   5.158 -1.0780  3.0186  1.6915
  242MOL0     H32664  11.262  -0.198   5.152  0.3144  1.2228 -0.6889
  242MOL0     H32665  11.174  -0.163   5.310 -1.8370  1.0838 -0.8598
  242MOL0     H32666  11.377  -0.052   5.384  1.0413  1.3248  0.0215
  242MOL0     H32667  11.465  -0.074   5.231 -1.0658  1.1280 -0.4839
  242MOL0     H32668  11.492  -0.477   5.369  1.3075  0.6328  0.6227
  242MOL0     H32669  10.901  -0.025   4.952  1.0336  0.3198 -0.7929
  242MOL0     H32670  10.688   0.053   4.820 -1.1050 -0.4354  0.7686
  243MOL0     O32671   7.013   2.035   1.514 -0.0774  0.1115  0.3421
  243MOL0     C32672   7.082   2.126   1.560  0.4022  0.3024  0.0967
  243MOL0     O32673   7.034   2.249   1.591 -0.1587 -0.3120  0.3439
  243MOL0     C32674   6.903   2.281   1.597  0.4272  0.9364  0.3465
  243MOL0     C32675   6.868   2.409   1.557  0.3197  0.3313 -0.5001
  243MOL0     C32676   6.733   2.449   1.585  0.5430  0.0359 -0.6397
  243MOL0     C32677   6.639   2.360   1.642  0.3845  0.4069  0.0784
  243MOL0     O32678   6.503   2.398   1.654  0.7129  0.2877  0.0488
  243MOL0     C32679   6.408   2.307   1.712  0.8194 -0.1489 -0.7755
  243MOL0     C32680   6.278   2.389   1.732 -0.4082 -0.4996  0.3213
  243MOL0     C32681   6.147   2.311   1.771 -1.0470  0.7922  0.1298
  243MOL0     C32682   6.152   2.233   1.908  0.4463  0.2572 -0.9656
  243MOL0     C32683   6.020   2.177   1.954  0.0569  0.0149  0.4296
  243MOL0     C32684   5.920   2.271   2.017  1.0487 -0.0879  0.3251
  243MOL0     C32685   5.960   2.334   2.144 -0.3530 -0.2364  0.6027
  243MOL0     C32686   5.856   2.447   2.189 -0.1568 -0.4686 -1.0728
  243MOL0     N32687   5.724   2.394   2.221  0.1305  0.3950 -0.0726
  243MOL0     C32688   5.696   2.315   2.326 -0.0013  1.0758  0.0566
  243MOL0     C32689   5.560   2.319   2.343 -0.7401 -0.4441 -0.3195
  243MOL0     C32690   5.476   2.238   2.442 -0.1034 -0.3772  0.5051
  243MOL0     C32691   5.469   2.091   2.395 -0.0748 -0.5572  0.3038
  243MOL0     C32692   5.367   2.065   2.279 -0.3368 -0.3923 -0.3265
  243MOL0     C32693   5.378   2.136   2.144  0.2769 -0.4028  0.2699
  243MOL0     O32694   5.268   2.103   2.057  0.2413 -0.1345  0.1536
  243MOL0     C32695   5.168   2.193   2.035  0.4902  0.3198  0.7707
  243MOL0     C32696   5.161   2.330   2.077 -0.4454  0.4236 -0.6558
  243MOL0     C32697   5.050   2.410   2.041 -0.3323 -0.1909 -0.3346
  243MOL0     C32698   5.043   2.553   2.089  0.3972  0.0046 -0.2283
  243MOL0     C32699   4.936   2.348   1.975 -0.2928  0.1751  0.3753
  243MOL0     C32700   4.804   2.422   1.967 -0.0872  0.9926 -0.7593
  243MOL0     O32701   4.710   2.349   1.897 -0.0156  0.1368  0.7718
  243MOL0     C32702   4.580   2.378   1.904  0.3878  0.5841 -0.3488
  243MOL0     C32703   4.530   2.498   1.858 -0.6156 -1.2385  0.1246
  243MOL0     C32704   4.397   2.514   1.840  0.5123 -0.3229 -0.2213
  243MOL0     C32705   4.301   2.417   1.871  0.6330 -0.1536 -0.0768
  243MOL0     O32706   4.165   2.453   1.841 -0.4900 -0.0589  0.3687
  243MOL0     C32707   4.076   2.356   1.866  0.7964 -0.0172  0.0614
  243MOL0     C32708   3.938   2.393   1.808 -0.3882 -0.8634  0.3944
  243MOL0     C32709   3.818   2.314   1.872  0.3807 -0.5798  1.2230
  243MOL0     C32710   3.794   2.166   1.812  0.2505  0.1724 -0.6748
  243MOL0     C32711   3.658   2.118   1.847  0.1451  0.4709 -0.0326
  243MOL0     C32712   3.662   2.082   1.997 -0.1281 -0.6095 -0.2721
  243MOL0     C32713   3.526   2.019   2.017  0.5595 -0.0992 -0.1829
  243MOL0     C32714   3.505   2.015   2.170 -0.3033  0.7623  0.9716
  243MOL0    Cl32715   3.483   2.163   2.246  0.2440  0.2957  0.0653
  243MOL0     C32716   4.357   2.293   1.912  1.3518 -0.5238 -0.0800
  243MOL0     C32717   4.489   2.276   1.923  0.3845  0.4623  0.7751
  243MOL0     O32718   4.782   2.522   2.033 -0.2104  1.0483  0.4067
  243MOL0     C32719   4.957   2.218   1.924  0.2442 -0.0149 -0.0239
  243MOL0     C32720   5.066   2.144   1.955  0.6137 -0.6634 -0.0272
  243MOL0     N32721   5.507   2.423   2.271  0.0736  0.1640  0.1653
  243MOL0     N32722   5.608   2.461   2.199 -0.3116 -0.0098  0.2507
  243MOL0     C32723   6.675   2.234   1.674  0.1485  0.2870  0.2773
  243MOL0     C32724   6.809   2.194   1.658 -0.7967 -0.4712 -0.9252
  243MOL0     C32725   7.227   2.109   1.590  0.7599  0.0201 -0.3205
  243MOL0     C32726   7.301   1.995   1.554  0.8327 -0.6769 -0.1706
  243MOL0     C32727   7.435   1.974   1.576 -0.3872 -0.9488  0.5334
  243MOL0     C32728   7.504   2.073   1.654  0.2608  0.1666  0.2460
  243MOL0     O32729   7.627   2.031   1.686 -0.2603 -0.0681 -0.5016
  243MOL0     C32730   7.701   2.131   1.754 -0.1010  0.5837 -0.0791
  243MOL0     C32731   7.847   2.089   1.750 -1.0516 -0.3219  0.4798
  243MOL0     C32732   7.887   1.976   1.841 -0.0162  0.7539 -0.2575
  243MOL0     C32733   7.864   2.006   1.993  0.3403  0.5501  0.6514
  243MOL0     C32734   7.926   1.900   2.061 -0.3745 -0.0220  0.6328
  243MOL0     C32735   7.980   1.821   2.133 -0.5322  0.0384  0.3990
  243MOL0     C32736   7.430   2.190   1.695 -0.6331  1.0480  0.3549
  243MOL0     C32737   7.294   2.211   1.660 -0.7368 -0.6553 -0.2776
  243MOL0     H32738   6.928   2.474   1.494 -0.7746  1.8924  0.0075
  243MOL0     H32739   6.703   2.548   1.553 -0.0842  0.4911  1.2768
  243MOL0     H32740   6.389   2.223   1.644 -1.9217  0.4723 -0.8857
  243MOL0     H32741   6.456   2.263   1.800  5.0455  0.8864 -2.3158
  243MOL0     H32742   6.299   2.470   1.802 -0.4861 -1.4198  1.4615
  243MOL0     H32743   6.263   2.435   1.634  1.2585  0.9572  0.7067
  243MOL0     H32744   6.064   2.382   1.781 -1.3174  0.2982  1.6364
  243MOL0     H32745   6.124   2.242   1.688  3.8126 -1.0168  0.0068
  243MOL0     H32746   6.218   2.146   1.909  0.0325 -0.0653  1.0875
  243MOL0     H32747   6.189   2.301   1.985  0.0722  1.0528 -1.4741
  243MOL0     H32748   5.978   2.125   1.866  2.2652 -0.3343 -0.4725
  243MOL0     H32749   6.035   2.098   2.028  1.5682  1.6233  1.8952
  243MOL0     H32750   5.878   2.344   1.947 -3.6749 -1.5079  1.3059
  243MOL0     H32751   5.831   2.215   2.049  1.0214  0.5647  1.4487
  243MOL0     H32752   5.956   2.252   2.216 -1.1249  1.0833  2.1306
  243MOL0     H32753   6.060   2.377   2.133 -1.6718  2.6200 -1.4681
  243MOL0     H32754   5.843   2.542   2.136  0.6902  1.6636  2.2005
  243MOL0     H32755   5.908   2.478   2.280  0.5549 -4.3359 -0.0003
  243MOL0     H32756   5.760   2.254   2.389  0.9023 -1.0736 -2.7285
  243MOL0     H32757   5.518   2.248   2.542 -1.7012  1.1471  1.0549
  243MOL0     H32758   5.377   2.282   2.449  0.7257  2.1079 -1.6028
  243MOL0     H32759   5.451   2.041   2.490 -2.3828 -1.4774 -0.5701
  243MOL0     H32760   5.566   2.058   2.355  0.4845  1.9482 -0.6610
  243MOL0     H32761   5.264   2.087   2.309 -0.5339 -0.8691 -0.6418
  243MOL0     H32762   5.370   1.960   2.250  1.4714 -1.2540  2.5672
  243MOL0     H32763   5.468   2.098   2.095 -0.5580  1.3285 -2.9521
  243MOL0     H32764   5.393   2.244   2.141 -2.7818  0.1395  0.4215
  243MOL0     H32765   5.237   2.377   2.140  2.7418 -0.0827 -3.7778
  243MOL0     H32766   5.140   2.593   2.119 -1.0076  3.4426  0.2450
  243MOL0     H32767   5.015   2.613   2.002 -0.0694 -1.7354 -1.3374
  243MOL0     H32768   4.975   2.564   2.174  1.2781  0.6775  0.4042
  243MOL0     H32769   4.600   2.578   1.834  0.4009 -1.8391  0.9587
  243MOL0     H32770   4.359   2.609   1.803 -1.7644 -1.1040 -0.0579
  243MOL0     H32771   4.110   2.262   1.821  0.6693 -0.9854  1.9181
  243MOL0     H32772   4.069   2.342   1.974 -0.1812 -1.5604 -0.1612
  243MOL0     H32773   3.917   2.500   1.814  1.5753 -0.5318  2.8196
  243MOL0     H32774   3.951   2.368   1.702 -2.1909  0.6636 -0.2424
  243MOL0     H32775   3.725   2.369   1.854  0.7129  0.6697  3.0442
  243MOL0     H32776   3.840   2.300   1.979 -0.8416  0.2010  1.5904
  243MOL0     H32777   3.800   2.172   1.703 -1.8968 -2.1880 -1.0195
  243MOL0     H32778   3.874   2.100   1.846  0.3633  1.0011  0.7669
  243MOL0     H32779   3.640   2.030   1.785  4.0030 -0.8186  0.3755
  243MOL0     H32780   3.578   2.190   1.826 -1.8311 -1.6202 -0.0394
  243MOL0     H32781   3.748   2.016   2.011 -1.3032 -2.0693  0.2653
  243MOL0     H32782   3.671   2.169   2.064  3.2051 -1.5031  0.6182
  243MOL0     H32783   3.522   1.924   1.963  2.2498  0.9714 -2.4016
  243MOL0     H32784   3.448   2.080   1.969 -1.2867 -2.7497 -0.7525
  243MOL0     H32785   3.597   1.971   2.209  2.3242  3.5804 -1.5745
  243MOL0     H32786   3.419   1.952   2.198  0.5784 -0.3754  1.1810
  243MOL0     H32787   4.288   2.212   1.934  1.1698 -1.2469 -2.9491
  243MOL0     H32788   4.536   2.180   1.940 -2.0045 -1.2206 -1.3049
  243MOL0     H32789   4.881   2.168   1.865  0.5822  2.0577 -2.4099
  243MOL0     H32790   5.090   2.045   1.917 -0.4281 -1.1084  0.4214
  243MOL0     H32791   6.606   2.162   1.716  1.0449  0.9060  3.0221
  243MOL0     H32792   6.827   2.092   1.690 -1.8395 -0.4855 -0.3235
  243MOL0     H32793   7.245   1.912   1.511 -2.9674  0.6135  1.7987
  243MOL0     H32794   7.481   1.890   1.525 -3.0825 -2.2284  0.0252
  243MOL0     H32795   7.692   2.234   1.719  0.6789  1.5417  2.2911
  243MOL0     H32796   7.669   2.143   1.858  0.0706 -0.0862  0.0581
  243MOL0     H32797   7.911   2.173   1.778 -0.0184 -1.5449  1.9718
  243MOL0     H32798   7.877   2.066   1.647  0.9743 -1.0745  1.1885
  243MOL0     H32799   7.987   1.941   1.812  0.0063 -0.4254  1.1298
  243MOL0     H32800   7.829   1.890   1.807  2.5880 -0.9199 -0.7314
  243MOL0     H32801   7.761   1.993   2.027  0.8496 -0.0427  2.0402
  243MOL0     H32802   7.899   2.106   2.019  0.4014  1.0296 -1.1444
  243MOL0     H32803   8.025   1.752   2.202  1.8225 -0.0315 -1.0851
  243MOL0     H32804   7.478   2.269   1.751 -1.8630  1.5126  0.7791
  243MOL0     H32805   7.251   2.308   1.681  1.3032  0.3680 -0.5730
  244MOL0     O32806   4.510   8.600  10.670 -0.9041  0.6216  0.7545
  244MOL0     C32807   4.493   8.695  10.741  1.0513  0.4683 -0.0317
  244MOL0     O32808   4.369   8.730  10.802 -0.5061 -0.0454  0.2867
  244MOL0     C32809   4.275   8.640  10.842  0.5560  0.2015 -0.5432
  244MOL0     C32810   4.143   8.688  10.828 -0.4544  0.1734 -0.0749
  244MOL0     C32811   4.034   8.607  10.876 -0.4620 -0.7394 -0.2530
  244MOL0     C32812   4.066   8.484  10.933 -0.5689  0.4500  0.1106
  244MOL0     O32813   3.967   8.396  10.970 -0.3422  0.3787 -0.3942
  244MOL0     C32814   3.991   8.273  11.032  0.7721 -0.1060  0.1324
  244MOL0     C32815   3.855   8.231  11.094 -0.2881  0.5640 -0.5172
  244MOL0     C32816   3.865   8.083  11.115 -0.8206 -0.0499 -0.5012
  244MOL0     C32817   3.752   8.032  11.202 -0.4340 -0.1728  1.0710
  244MOL0     C32818   3.630   8.022  11.115  0.9192  0.3847 -0.7206
  244MOL0     C32819   3.530   7.953  11.206  0.8737  0.3268 -0.1140
  244MOL0     C32820   3.381   7.965  11.148  0.1163 -0.2879 -0.5101
  244MOL0     C32821   3.267   7.924  11.236 -0.6002 -0.1821 -0.4264
  244MOL0     N32822   3.257   7.780  11.245  0.1070 -0.4235  0.0601
  244MOL0     C32823   3.290   7.704  11.353 -0.3149 -0.0163 -0.2395
  244MOL0     C32824   3.277   7.573  11.320  1.3284 -0.1746  0.5293
  244MOL0     C32825   3.279   7.468  11.416 -0.4304  0.7735 -0.9561
  244MOL0     C32826   3.143   7.412  11.445  0.7355  0.3605  0.5020
  244MOL0     C32827   3.047   7.521  11.498  0.7854 -0.0006  0.5517
  244MOL0     C32828   2.926   7.469  11.565 -0.1007 -0.1795 -0.1828
  244MOL0     O32829   2.860   7.567  11.646  0.1519 -0.3016 -0.0480
  244MOL0     C32830   2.817   7.677  11.574  0.2265  0.2553 -0.9641
  244MOL0     C32831   2.877   7.802  11.599  0.0977  0.1472 -0.2591
  244MOL0     C32832   2.815   7.919  11.550 -0.8025 -0.0855  0.2384
  244MOL0     C32833   2.866   8.052  11.604 -0.4570  0.0608  0.3742
  244MOL0     C32834   2.713   7.911  11.456  0.8052  0.4043 -0.0527
  244MOL0     C32835   2.651   8.023  11.375  0.7383  0.1589  0.3197
  244MOL0     O32836   2.519   8.008  11.325  0.3745 -0.0144 -0.0831
  244MOL0     C32837   2.468   8.093  11.234  0.1911 -1.2415 -0.8358
  244MOL0     C32838   2.469   8.056  11.098 -0.0417  0.9055  0.5221
  244MOL0     C32839   2.390   8.125  11.005 -0.4458 -0.1758  0.5927
  244MOL0     C32840   2.329   8.244  11.047 -0.0073  0.2160  0.2770
  244MOL0     O32841   2.245   8.324  10.967 -0.0970 -0.0961 -0.1302
  244MOL0     C32842   2.217   8.281  10.833 -0.0735  0.0659 -0.3001
  244MOL0     C32843   2.165   8.414  10.771 -0.7013 -0.1137  0.3977
  244MOL0     C32844   2.135   8.411  10.624  0.0685  0.3260  0.5208
  244MOL0     C32845   1.999   8.333  10.605  0.0819  0.5853 -0.0962
  244MOL0     C32846   1.963   8.298  10.466  0.2646 -0.0274 -0.2015
  244MOL0     C32847   2.060   8.203  10.386 -0.4753 -0.4701 -0.3204
  244MOL0     C32848   2.013   8.202  10.239  0.4860  0.0043  0.2637
  244MOL0     C32849   2.123   8.142  10.141  0.7379 -0.0054 -0.3235
  244MOL0    Cl32850   2.257   8.252  10.142  0.2803 -0.2908  0.2079
  244MOL0     C32851   2.343   8.282  11.179  0.2090 -0.1897 -0.5185
  244MOL0     C32852   2.406   8.208  11.273  0.6960 -0.3262  0.0340
  244MOL0     O32853   2.721   8.119  11.355 -0.0772 -0.8361  0.9507
  244MOL0     C32854   2.656   7.788  11.426  0.1123  0.2838 -0.1459
  244MOL0     C32855   2.705   7.665  11.488  0.2465 -1.1083 -0.0368
  244MOL0     N32856   3.251   7.568  11.183 -0.0954 -0.0374  0.2446
  244MOL0     N32857   3.247   7.692  11.136 -0.3072 -0.5391  1.0689
  244MOL0     C32858   4.203   8.448  10.949  0.1929  1.1591 -0.1363
  244MOL0     C32859   4.305   8.524  10.903 -0.7599  0.7952  0.1600
  244MOL0     C32860   4.603   8.784  10.762  0.9097  0.0203 -0.0867
  244MOL0     C32861   4.710   8.784  10.669 -0.0335 -0.8604 -0.2194
  244MOL0     C32862   4.809   8.881  10.676 -0.5594 -1.0366 -0.5085
  244MOL0     C32863   4.801   8.983  10.763  0.2982 -0.5627  0.5044
  244MOL0     O32864   4.892   9.092  10.754  0.3200 -0.0258 -0.7104
  244MOL0     C32865   5.022   9.078  10.699  0.0950  0.5301 -0.4280
  244MOL0     C32866   5.103   9.203  10.730  0.6549  0.8802  1.0877
  244MOL0     C32867   5.120   9.220  10.879  0.2339  0.1813  1.3839
  244MOL0     C32868   5.204   9.348  10.919 -0.6218 -0.4353  0.9692
  244MOL0     C32869   5.200   9.357  11.064 -0.3049 -0.9593  0.6127
  244MOL0     C32870   5.211   9.364  11.185  0.8009  0.3833  1.0969
  244MOL0     C32871   4.698   8.984  10.860  0.6419 -0.5520  0.4732
  244MOL0     C32872   4.596   8.888  10.857  0.1261  0.1952  0.6822
  244MOL0     H32873   4.126   8.784  10.781 -0.9876  0.6614  1.0689
  244MOL0     H32874   3.928   8.616  10.859 -0.2800 -1.2377 -1.7404
  244MOL0     H32875   4.041   8.195  10.975  0.7021 -0.8491  1.0695
  244MOL0     H32876   4.068   8.289  11.108  1.9323  0.9399 -1.2040
  244MOL0     H32877   3.847   8.282  11.190  0.1912  0.9013 -0.6497
  244MOL0     H32878   3.769   8.240  11.027 -0.9830  2.4916  0.5508
  244MOL0     H32879   3.867   8.031  11.019 -1.5333  0.7258 -0.9557
  244MOL0     H32880   3.957   8.066  11.171 -2.0184 -0.5494  1.4126
  244MOL0     H32881   3.775   7.933  11.241 -1.4428 -0.3067  1.3556
  244MOL0     H32882   3.734   8.107  11.279 -1.5467  0.8627 -0.1425
  244MOL0     H32883   3.590   8.121  11.094  1.5306  0.7920  0.0108
  244MOL0     H32884   3.643   7.970  11.019  3.1948  0.4376 -0.4811
  244MOL0     H32885   3.547   7.845  11.206 -0.6157  0.0566 -1.3185
  244MOL0     H32886   3.542   7.989  11.308  0.9146 -2.1600  0.8411
  244MOL0     H32887   3.364   8.070  11.125  3.1621  0.4688  0.1843
  244MOL0     H32888   3.373   7.905  11.057 -1.5197 -0.8329 -0.0551
  244MOL0     H32889   3.172   7.961  11.197 -2.0886 -0.6087  2.4860
  244MOL0     H32890   3.274   7.967  11.337 -0.6602  0.2189 -0.5918
  244MOL0     H32891   3.302   7.745  11.453  4.4409  0.2493 -0.7017
  244MOL0     H32892   3.343   7.387  11.381 -0.3167  0.4640 -0.0443
  244MOL0     H32893   3.328   7.503  11.508  1.8749 -1.9769 -0.9971
  244MOL0     H32894   3.149   7.327  11.514 -3.2297 -1.1091 -0.6520
  244MOL0     H32895   3.103   7.368  11.353  2.9263  0.5278 -0.5905
  244MOL0     H32896   3.021   7.590  11.417  0.2832 -0.8010  0.0201
  244MOL0     H32897   3.105   7.565  11.580 -0.7310  0.9659  1.1634
  244MOL0     H32898   2.957   7.376  11.613  1.0353 -0.8673 -2.1622
  244MOL0     H32899   2.860   7.442  11.483  0.0849 -0.2033 -0.3262
  244MOL0     H32900   2.954   7.806  11.676  1.4911  4.8320 -1.5949
  244MOL0     H32901   2.962   8.048  11.655  1.0392  0.3775 -2.2572
  244MOL0     H32902   2.887   8.121  11.522 -1.6780  2.7489  2.1661
  244MOL0     H32903   2.789   8.105  11.662  0.8017 -0.1382  2.3082
  244MOL0     H32904   2.537   7.972  11.087  0.1642  1.0490  0.6888
  244MOL0     H32905   2.377   8.105  10.899 -0.8851 -2.1279  0.9685
  244MOL0     H32906   2.298   8.239  10.773  0.2166  1.4608 -0.9344
  244MOL0     H32907   2.145   8.200  10.847 -1.5792  1.5257  0.8014
  244MOL0     H32908   2.082   8.454  10.831 -1.1126  0.3567 -0.4678
  244MOL0     H32909   2.247   8.486  10.776 -2.4162  2.1336 -1.5485
  244MOL0     H32910   2.219   8.353  10.584 -2.0672 -2.4786 -0.2751
  244MOL0     H32911   2.132   8.515  10.592 -0.3074 -0.4313 -2.1825
  244MOL0     H32912   1.991   8.237  10.656  0.6926  0.4941 -0.1726
  244MOL0     H32913   1.918   8.392  10.650 -0.6175 -0.4757  0.0915
  244MOL0     H32914   1.933   8.390  10.416  2.7606  0.5157 -0.8305
  244MOL0     H32915   1.874   8.234  10.470  0.8723 -0.9296 -0.6390
  244MOL0     H32916   2.153   8.261  10.376 -0.9802  0.5809  0.7752
  244MOL0     H32917   2.073   8.102  10.424  3.1333 -0.5087 -1.2915
  244MOL0     H32918   1.986   8.302  10.203  1.7676  0.6611  1.0791
  244MOL0     H32919   1.925   8.137  10.239 -0.3669  1.1102 -0.7309
  244MOL0     H32920   2.068   8.121  10.049 -1.0096 -2.9883  1.2526
  244MOL0     H32921   2.156   8.045  10.179 -1.1603 -0.3144  0.6466
  244MOL0     H32922   2.293   8.373  11.211 -0.9075 -2.0089  3.4658
  244MOL0     H32923   2.411   8.241  11.376 -0.1599  0.8712 -0.2729
  244MOL0     H32924   2.576   7.768  11.356 -0.0345 -2.6756  0.7104
  244MOL0     H32925   2.657   7.572  11.463 -1.7685  0.3212 -1.8067
  244MOL0     H32926   4.225   8.354  10.998 -4.3320 -1.9187 -3.1634
  244MOL0     H32927   4.411   8.510  10.921 -1.4060 -3.8934  1.7780
  244MOL0     H32928   4.716   8.710  10.590 -0.5313 -2.0946  0.8689
  244MOL0     H32929   4.889   8.878  10.603  0.5941  0.6635  0.6008
  244MOL0     H32930   5.062   8.981  10.732 -4.6356 -1.8765 -0.8864
  244MOL0     H32931   5.032   9.084  10.591 -0.5003  0.9713 -0.4644
  244MOL0     H32932   5.046   9.284  10.684 -1.1013 -0.9669 -0.1536
  244MOL0     H32933   5.198   9.192  10.677  0.3487 -1.1297  0.8814
  244MOL0     H32934   5.172   9.129  10.909 -0.8362 -1.9724 -2.5816
  244MOL0     H32935   5.023   9.216  10.928  0.6035  0.5954  2.1653
  244MOL0     H32936   5.169   9.442  10.877  2.3178  0.0518 -0.6304
  244MOL0     H32937   5.307   9.342  10.883 -0.4655 -0.8291  1.4605
  244MOL0     H32938   5.202   9.381  11.290  0.6134  0.2737  1.0986
  244MOL0     H32939   4.696   9.066  10.930  1.4101 -0.3817  0.3115
  244MOL0     H32940   4.509   8.896  10.921  0.5810  0.2793  1.3017
  245MOL0     O32941   6.350   3.871   2.925  0.1933 -0.3794 -0.3002
  245MOL0     C32942   6.396   3.933   3.020 -0.2395 -0.1700 -0.1160
  245MOL0     O32943   6.328   4.032   3.088  0.6747 -0.1818 -0.7638
  245MOL0     C32944   6.208   4.086   3.037 -0.0707  0.5500 -0.2864
  245MOL0     C32945   6.098   4.005   3.037 -0.1436  0.5684  0.1292
  245MOL0     C32946   5.980   4.038   2.975  0.0087 -1.0014  0.7643
  245MOL0     C32947   5.963   4.172   2.932 -0.7618  0.1379  0.4822
  245MOL0     O32948   5.844   4.198   2.878  0.4298 -0.0764  0.8679
  245MOL0     C32949   5.821   4.330   2.820  0.7058  0.6493 -0.3953
  245MOL0     C32950   5.679   4.302   2.774 -0.3410  0.0822 -0.3899
  245MOL0     C32951   5.616   4.427   2.719  0.5604 -0.6511 -0.7809
  245MOL0     C32952   5.496   4.399   2.629  0.3024 -0.3647  0.2044
  245MOL0     C32953   5.437   4.541   2.595 -0.4533  0.3639 -0.4065
  245MOL0     C32954   5.316   4.534   2.499 -0.3022  0.4841 -0.4743
  245MOL0     C32955   5.284   4.673   2.441  1.3324  0.1044 -0.1065
  245MOL0     C32956   5.179   4.680   2.316  0.3409  0.7544  0.4322
  245MOL0     N32957   5.077   4.569   2.315 -0.4152  0.0941  0.2721
  245MOL0     C32958   4.956   4.562   2.373  1.0148  0.1475 -0.0886
  245MOL0     C32959   4.890   4.448   2.325 -0.9710  0.4447 -0.2007
  245MOL0     C32960   4.755   4.410   2.376  0.9438 -0.2118  0.3264
  245MOL0     C32961   4.651   4.523   2.334  0.7495 -0.1226  0.6698
  245MOL0     C32962   4.634   4.544   2.178  0.5587  0.6810 -0.1173
  245MOL0     C32963   4.517   4.633   2.139  0.4695 -0.1710  0.4020
  245MOL0     O32964   4.541   4.765   2.187 -0.2078 -0.2052  0.3588
  245MOL0     C32965   4.432   4.852   2.189 -0.2678  0.4459  0.4647
  245MOL0     C32966   4.459   4.968   2.254 -0.2508  1.1387  0.4005
  245MOL0     C32967   4.366   5.069   2.265 -0.4450 -0.6487  0.4001
  245MOL0     C32968   4.421   5.195   2.345  0.4240 -0.2984  0.2120
  245MOL0     C32969   4.238   5.057   2.195 -0.2275  0.6695  0.6596
  245MOL0     C32970   4.141   5.161   2.187  0.3894 -0.5992 -0.4025
  245MOL0     O32971   4.175   5.292   2.237  0.4731 -0.4558 -0.5141
  245MOL0     C32972   4.082   5.366   2.303 -0.3489 -0.3180  0.1039
  245MOL0     C32973   3.999   5.315   2.404  0.0589  1.3308  0.7759
  245MOL0     C32974   3.912   5.389   2.483 -0.2524  0.2815 -0.1316
  245MOL0     C32975   3.891   5.523   2.452 -0.2151  0.1466  0.3758
  245MOL0     O32976   3.797   5.601   2.499  0.4201  0.5072 -0.1170
  245MOL0     C32977   3.662   5.543   2.501 -0.7671 -0.3304 -1.0154
  245MOL0     C32978   3.595   5.583   2.365 -0.3299  0.0948  0.2086
  245MOL0     C32979   3.446   5.613   2.389 -0.1923  0.4302 -0.2385
  245MOL0     C32980   3.371   5.633   2.258  0.0217 -0.9516  0.6464
  245MOL0     C32981   3.222   5.603   2.270 -0.9046  0.3121 -0.2493
  245MOL0     C32982   3.157   5.594   2.125  0.0039  0.5172 -0.3436
  245MOL0     C32983   3.010   5.556   2.135 -0.9591  0.5942 -0.0513
  245MOL0     C32984   2.954   5.543   1.988  0.7489  0.0930  0.1461
  245MOL0    Cl32985   2.774   5.493   1.998  0.0611 -0.1121 -0.0711
  245MOL0     C32986   3.969   5.572   2.355 -0.5797 -0.3659  0.5035
  245MOL0     C32987   4.070   5.502   2.285 -0.2466 -0.8360  0.4835
  245MOL0     O32988   4.033   5.140   2.139 -0.4375 -0.5059 -0.1969
  245MOL0     C32989   4.207   4.928   2.143 -0.2963  0.2169  0.4432
  245MOL0     C32990   4.308   4.826   2.140  0.7013 -0.1907  0.4130
  245MOL0     N32991   4.982   4.389   2.237 -0.0261 -0.2878  0.1403
  245MOL0     N32992   5.088   4.460   2.228  0.2407  0.0250  0.1178
  245MOL0     C32993   6.078   4.252   2.934  0.2473  0.0227  1.3338
  245MOL0     C32994   6.201   4.204   2.973  0.1439 -1.3635  0.0090
  245MOL0     C32995   6.538   3.896   3.061 -0.3354  0.1726  0.0771
  245MOL0     C32996   6.596   3.979   3.158 -0.1345 -0.2445  0.3730
  245MOL0     C32997   6.724   3.951   3.217  0.3133  0.7782 -0.1364
  245MOL0     C32998   6.805   3.848   3.171  0.0550 -0.1656  0.5169
  245MOL0     O32999   6.922   3.819   3.238  0.0371  0.0078  0.6621
  245MOL0     C33000   7.032   3.771   3.169  0.4823 -0.0163  0.5999
  245MOL0     C33001   7.165   3.845   3.211  0.5588 -1.4590  0.4322
  245MOL0     C33002   7.174   3.985   3.142  0.4653  0.8907  0.3247
  245MOL0     C33003   7.263   4.096   3.200  0.6872  0.2036  0.3643
  245MOL0     C33004   7.399   4.048   3.205 -0.1459  0.1975 -0.9801
  245MOL0     C33005   7.515   4.020   3.211 -0.0607  0.6038 -0.4730
  245MOL0     C33006   6.747   3.770   3.067 -0.1940  0.3149  1.0212
  245MOL0     C33007   6.615   3.792   3.012  0.0566  0.4483 -0.6095
  245MOL0     H33008   6.108   3.909   3.086 -0.5743  0.7601  0.5955
  245MOL0     H33009   5.906   3.959   2.976 -0.2237 -0.9045 -1.7105
  245MOL0     H33010   5.826   4.408   2.897  0.2865  1.5383 -1.2579
  245MOL0     H33011   5.876   4.354   2.729  2.6364  1.3115  0.8722
  245MOL0     H33012   5.663   4.213   2.714 -5.2615  0.7519 -0.4699
  245MOL0     H33013   5.621   4.283   2.865 -0.5846  2.9737  0.1814
  245MOL0     H33014   5.579   4.494   2.797  2.0124 -0.8844  0.1512
  245MOL0     H33015   5.688   4.482   2.657  2.0074  0.1601  1.4930
  245MOL0     H33016   5.531   4.351   2.537  0.2098 -0.1453  0.0543
  245MOL0     H33017   5.418   4.342   2.681  1.2275 -1.3864  0.5317
  245MOL0     H33018   5.406   4.585   2.690  1.8934 -2.7299  2.0034
  245MOL0     H33019   5.513   4.604   2.547 -2.0687 -0.2475 -4.0896
  245MOL0     H33020   5.341   4.475   2.411  0.4408  2.3172 -1.5534
  245MOL0     H33021   5.243   4.478   2.558  1.2138 -1.2081 -0.1373
  245MOL0     H33022   5.256   4.740   2.523  2.4201 -1.5633  1.7332
  245MOL0     H33023   5.372   4.716   2.392  1.1351  0.6329 -0.0112
  245MOL0     H33024   5.230   4.662   2.222 -2.1018 -3.3816 -0.3497
  245MOL0     H33025   5.131   4.777   2.299  0.7709  0.9184  0.1395
  245MOL0     H33026   4.911   4.636   2.439  2.0705  0.7714 -0.0610
  245MOL0     H33027   4.724   4.318   2.326  2.8768 -0.0086 -1.3574
  245MOL0     H33028   4.756   4.385   2.483  0.2565  0.9600  0.6233
  245MOL0     H33029   4.672   4.617   2.385  0.5801  1.0842 -1.3655
  245MOL0     H33030   4.551   4.489   2.362 -1.0948  1.1072 -3.5453
  245MOL0     H33031   4.625   4.444   2.133 -0.2979  1.3553 -1.5159
  245MOL0     H33032   4.721   4.595   2.134  1.8093 -3.5020 -3.1561
  245MOL0     H33033   4.423   4.591   2.176  0.5572  0.2084  1.0714
  245MOL0     H33034   4.512   4.628   2.030 -1.3276 -0.3271  0.4623
  245MOL0     H33035   4.557   4.981   2.297  1.1612  2.4050 -2.8030
  245MOL0     H33036   4.429   5.279   2.276  3.1351 -0.3175  0.3909
  245MOL0     H33037   4.354   5.231   2.423 -0.6567  1.1671 -1.3148
  245MOL0     H33038   4.523   5.179   2.380  0.9319  0.7582 -0.7486
  245MOL0     H33039   4.024   5.215   2.439  0.9978  1.3383  0.1852
  245MOL0     H33040   3.857   5.347   2.567  1.5370  1.9412  1.9958
  245MOL0     H33041   3.658   5.437   2.526 -2.9563  0.4151  2.5146
  245MOL0     H33042   3.612   5.599   2.581  0.5244  0.6452 -0.8632
  245MOL0     H33043   3.635   5.677   2.327  0.7495  0.4185  2.0056
  245MOL0     H33044   3.610   5.495   2.301 -0.6776  0.5480 -0.4992
  245MOL0     H33045   3.436   5.696   2.459  2.0385  2.0869 -1.7796
  245MOL0     H33046   3.414   5.518   2.434  1.6595  0.2061  0.6743
  245MOL0     H33047   3.394   5.734   2.221 -1.0690 -1.5990 -2.0575
  245MOL0     H33048   3.418   5.570   2.182  0.7992 -0.4664  0.7098
  245MOL0     H33049   3.168   5.667   2.339 -2.2937 -1.9437  0.8640
  245MOL0     H33050   3.216   5.503   2.315  0.9284  0.6563  0.8768
  245MOL0     H33051   3.155   5.696   2.084 -0.6696  0.6008 -0.1212
  245MOL0     H33052   3.207   5.527   2.054 -0.1671 -0.9435  0.8678
  245MOL0     H33053   2.945   5.631   2.181 -0.1454  2.7761 -2.2012
  245MOL0     H33054   2.993   5.462   2.187  0.6121  0.0431 -0.4930
  245MOL0     H33055   3.012   5.482   1.918  0.8042  1.1166 -0.7375
  245MOL0     H33056   2.949   5.640   1.937 -1.2265  0.9983  1.8858
  245MOL0     H33057   3.956   5.677   2.328  1.2734 -0.1357  0.3590
  245MOL0     H33058   4.142   5.551   2.221 -0.2017  0.1104  1.2413
  245MOL0     H33059   4.109   4.917   2.098  0.6493  1.9374 -2.3634
  245MOL0     H33060   4.288   4.736   2.083 -0.1917  1.5035 -2.1263
  245MOL0     H33061   6.073   4.352   2.893  4.7754  1.2393  3.1640
  245MOL0     H33062   6.294   4.258   2.960 -0.0122 -0.9119  0.6895
  245MOL0     H33063   6.537   4.056   3.206  1.2660  1.3413 -0.3212
  245MOL0     H33064   6.761   4.025   3.287 -0.4838  0.7491  0.3252
  245MOL0     H33065   7.050   3.665   3.186 -2.5200 -0.9975 -1.5635
  245MOL0     H33066   7.007   3.790   3.064  0.9817 -1.9278  0.1095
  245MOL0     H33067   7.252   3.793   3.169 -1.0901 -1.7102 -3.0666
  245MOL0     H33068   7.174   3.850   3.320 -1.1685 -3.2461  0.7317
  245MOL0     H33069   7.075   4.030   3.133  0.5184  0.7992 -0.8805
  245MOL0     H33070   7.215   3.965   3.042  2.5053  5.0776  0.0804
  245MOL0     H33071   7.210   4.114   3.294 -0.5812 -2.9879  0.4063
  245MOL0     H33072   7.259   4.187   3.140  0.4556 -0.3153 -0.4185
  245MOL0     H33073   7.615   3.983   3.212 -0.7775 -1.7007  2.5910
  245MOL0     H33074   6.796   3.677   3.043  0.6465  1.1873 -0.8569
  245MOL0     H33075   6.584   3.715   2.943  0.7720 -0.0276 -0.4094
  246MOL0     O33076   9.443   4.380   6.936  0.5014  0.0235  0.8465
  246MOL0     C33077   9.369   4.456   6.998  0.9018  0.0378 -0.8165
  246MOL0     O33078   9.393   4.585   7.035  0.0469  0.6399  0.2991
  246MOL0     C33079   9.518   4.630   7.028 -0.3326  0.1418  0.3256
  246MOL0     C33080   9.599   4.608   7.133  0.1419  0.2214 -0.3089
  246MOL0     C33081   9.723   4.667   7.136  0.4498 -0.6294 -0.2260
  246MOL0     C33082   9.762   4.753   7.031  0.6490  0.0446 -0.3116
  246MOL0     O33083   9.882   4.831   7.036  0.6657 -0.2787  0.5213
  246MOL0     C33084   9.969   4.814   6.925  0.0734  0.2872  0.0742
  246MOL0     C33085  10.026   4.675   6.905  0.0685  0.7393  0.2213
  246MOL0     C33086  10.089   4.621   7.031 -0.0012  0.3184 -0.0824
  246MOL0     C33087  10.234   4.667   7.060 -0.3308  0.5025 -0.3709
  246MOL0     C33088  10.263   4.602   7.193 -0.1149  0.2370 -0.6397
  246MOL0     C33089  10.409   4.600   7.235 -0.1265  0.2806 -0.4760
  246MOL0     C33090  10.404   4.569   7.389 -1.0502  0.4050  0.3397
  246MOL0     C33091  10.541   4.572   7.454  0.2119  0.5053 -0.1485
  246MOL0     N33092  10.640   4.483   7.402 -0.0395  0.0331  0.8542
  246MOL0     C33093  10.623   4.348   7.395 -0.9368  0.2967 -0.1203
  246MOL0     C33094  10.726   4.303   7.315  0.8293 -1.0630  0.7460
  246MOL0     C33095  10.756   4.166   7.266  0.5287  0.0510 -0.4113
  246MOL0     C33096  10.886   4.122   7.321  0.5289  0.3228 -0.7465
  246MOL0     C33097  10.906   3.972   7.317  0.1281 -0.4520 -0.3592
  246MOL0     C33098  10.923   3.922   7.174 -0.0055 -0.6694  0.4779
  246MOL0     O33099  10.972   3.782   7.168 -0.1679 -0.4756  0.0692
  246MOL0     C33100  11.055   3.735   7.064  0.4184  0.2425 -0.2681
  246MOL0     C33101  11.117   3.612   7.091 -0.2601  1.1414 -0.0904
  246MOL0     C33102  11.195   3.541   7.000 -0.2305 -0.1340 -0.3853
  246MOL0     C33103  11.260   3.405   7.046  0.7955 -0.6867  0.6574
  246MOL0     C33104  11.217   3.602   6.872 -0.9302 -0.4006 -0.5613
  246MOL0     C33105  11.308   3.550   6.763  0.0458  0.7035 -0.1802
  246MOL0     O33106  11.277   3.596   6.634  1.2781 -0.7997  0.0513
  246MOL0     C33107  11.367   3.562   6.539 -0.1429 -0.3111 -0.9441
  246MOL0     C33108  11.494   3.619   6.530  0.0698  0.9138 -0.2890
  246MOL0     C33109  11.581   3.594   6.417  0.3971 -0.1252 -0.5796
  246MOL0     C33110  11.539   3.508   6.315  0.3774 -0.8285 -0.0355
  246MOL0     O33111  11.635   3.446   6.231  0.1200  0.0036 -0.4112
  246MOL0     C33112  11.760   3.404   6.287 -0.2314  1.1021  0.3575
  246MOL0     C33113  11.884   3.465   6.196  0.4270 -0.4440 -0.8455
  246MOL0     C33114  12.017   3.412   6.234  0.0108  0.7366  0.7866
  246MOL0     C33115  12.055   3.289   6.151 -0.3473 -0.1258 -0.6995
  246MOL0     C33116  12.196   3.226   6.186  0.0604 -0.4632 -0.4996
  246MOL0     C33117  12.250   3.251   6.326 -0.5533 -0.0042  0.0941
  246MOL0     C33118  12.384   3.167   6.346 -0.1817 -0.2905  1.3409
  246MOL0     C33119  12.502   3.256   6.302  0.3441 -0.0089  0.3165
  246MOL0    Cl33120  12.529   3.376   6.407 -0.4835 -0.3565  0.5029
  246MOL0     C33121  11.407   3.462   6.325 -0.0564  0.4559  0.6730
  246MOL0     C33122  11.321   3.484   6.434  0.4365  0.0615 -0.2521
  246MOL0     O33123  11.401   3.481   6.797 -0.6853 -0.1061 -0.9933
  246MOL0     C33124  11.154   3.728   6.838  0.7390 -0.8736  0.5285
  246MOL0     C33125  11.070   3.784   6.928  0.7563 -0.3950 -0.9803
  246MOL0     N33126  10.797   4.416   7.280 -0.1373 -0.3024  0.6438
  246MOL0     N33127  10.759   4.514   7.347 -0.3089 -0.7568  0.1599
  246MOL0     C33128   9.669   4.781   6.934 -0.0852  0.2254  0.3498
  246MOL0     C33129   9.541   4.722   6.929  0.2424  0.2053 -0.5340
  246MOL0     C33130   9.232   4.401   7.043  0.5680  0.6837 -0.0236
  246MOL0     C33131   9.209   4.264   7.012  0.6236 -0.3169 -0.3421
  246MOL0     C33132   9.079   4.206   7.033  0.0508 -0.0202 -0.3060
  246MOL0     C33133   8.984   4.278   7.102 -0.5974 -0.0710 -0.0041
  246MOL0     O33134   8.878   4.211   7.134  0.5261 -0.5226 -0.2512
  246MOL0     C33135   8.757   4.288   7.126 -0.4594 -0.2367 -0.0134
  246MOL0     C33136   8.627   4.205   7.109 -0.3599 -0.0326 -0.3708
  246MOL0     C33137   8.503   4.294   7.113  0.0394 -0.3377 -0.7878
  246MOL0     C33138   8.372   4.222   7.088 -0.7321  0.1639  0.6548
  246MOL0     C33139   8.272   4.321   7.053  0.9866 -0.3354  0.9816
  246MOL0     C33140   8.192   4.406   7.022  0.4375  0.4520  0.6246
  246MOL0     C33141   9.012   4.409   7.151 -0.0383 -0.4852 -0.6786
  246MOL0     C33142   9.134   4.471   7.121 -1.2620  0.9865 -0.1877
  246MOL0     H33143   9.572   4.556   7.224  1.7523  3.4418  2.2180
  246MOL0     H33144   9.792   4.642   7.216 -0.2991  0.2622  0.7277
  246MOL0     H33145   9.917   4.835   6.831 -0.2923 -3.1106 -0.6169
  246MOL0     H33146  10.053   4.879   6.951 -1.3657  1.0941  3.1933
  246MOL0     H33147   9.939   4.615   6.878 -0.6823  1.1578  1.6246
  246MOL0     H33148  10.096   4.676   6.821 -1.8291 -1.7513 -1.5501
  246MOL0     H33149  10.034   4.654   7.119 -0.9715  1.0487 -0.9332
  246MOL0     H33150  10.078   4.512   7.027  1.3071  0.1738 -0.0111
  246MOL0     H33151  10.309   4.631   6.990 -2.2415 -1.8024 -1.3660
  246MOL0     H33152  10.241   4.776   7.068 -4.4254  0.8252  2.5761
  246MOL0     H33153  10.194   4.642   7.269 -2.0888 -1.8863 -1.1855
  246MOL0     H33154  10.229   4.500   7.171 -0.4297  0.4683 -1.2320
  246MOL0     H33155  10.471   4.529   7.179 -0.7901  1.5988 -3.0049
  246MOL0     H33156  10.460   4.697   7.232  1.9942 -0.6096  2.2709
  246MOL0     H33157  10.350   4.646   7.445 -2.7575 -0.5271  0.0200
  246MOL0     H33158  10.350   4.475   7.397  0.4518 -0.6185 -0.8154
  246MOL0     H33159  10.524   4.548   7.560  0.5580 -0.5896 -0.3212
  246MOL0     H33160  10.581   4.673   7.444  2.5996 -0.3624  0.1455
  246MOL0     H33161  10.542   4.288   7.434 -2.0053 -0.5171 -3.3129
  246MOL0     H33162  10.671   4.103   7.294  0.1214  1.4393  1.6401
  246MOL0     H33163  10.754   4.157   7.157 -2.7079 -1.1156 -0.3866
  246MOL0     H33164  10.897   4.163   7.422 -3.3418  1.0453 -0.4583
  246MOL0     H33165  10.966   4.169   7.262  0.8654 -0.6930 -1.1248
  246MOL0     H33166  10.822   3.911   7.352 -0.0638 -1.3029 -2.1789
  246MOL0     H33167  10.993   3.956   7.381 -1.1085  2.2043  2.2345
  246MOL0     H33168  11.003   3.990   7.142  0.6741 -0.5242  2.3516
  246MOL0     H33169  10.837   3.925   7.106 -0.8161 -0.5935  1.4698
  246MOL0     H33170  11.117   3.574   7.192  3.0172 -2.6663 -1.2671
  246MOL0     H33171  11.368   3.411   7.029  0.9855 -1.3666  1.5714
  246MOL0     H33172  11.233   3.382   7.149 -0.2204 -1.8724  0.1666
  246MOL0     H33173  11.231   3.326   6.975  0.6151 -1.0783  1.1620
  246MOL0     H33174  11.537   3.681   6.608  0.6044 -0.4693  0.5655
  246MOL0     H33175  11.679   3.641   6.414  1.6083 -2.2457  2.1134
  246MOL0     H33176  11.768   3.425   6.394 -1.6025 -0.1694  0.7375
  246MOL0     H33177  11.756   3.296   6.267 -0.1832  1.4026 -1.4386
  246MOL0     H33178  11.864   3.448   6.089  0.3825  2.4479 -1.3705
  246MOL0     H33179  11.884   3.572   6.214  3.2964  0.0790 -3.1819
  246MOL0     H33180  12.028   3.406   6.343  0.9935  3.9494  0.9651
  246MOL0     H33181  12.091   3.489   6.212 -0.2053  1.3998  2.2859
  246MOL0     H33182  11.980   3.214   6.178 -0.8748  0.3173 -0.9200
  246MOL0     H33183  12.052   3.307   6.043 -3.0455 -0.6305 -0.7666
  246MOL0     H33184  12.261   3.259   6.104 -0.2901  4.4614  0.8939
  246MOL0     H33185  12.182   3.118   6.174  0.4278 -0.5173 -0.4579
  246MOL0     H33186  12.271   3.358   6.340 -1.9344  0.0214  2.5707
  246MOL0     H33187  12.175   3.226   6.402 -0.3249  1.2724  0.7839
  246MOL0     H33188  12.388   3.081   6.279  1.5068 -0.1746  1.2359
  246MOL0     H33189  12.398   3.139   6.450  0.0592 -0.1529  1.3480
  246MOL0     H33190  12.487   3.294   6.200  0.8000 -0.1962  0.1781
  246MOL0     H33191  12.585   3.188   6.284 -1.3395 -1.7466 -1.3786
  246MOL0     H33192  11.380   3.392   6.246  0.0300  1.2579 -0.0827
  246MOL0     H33193  11.222   3.441   6.444 -0.3742  2.2715  2.7338
  246MOL0     H33194  11.170   3.781   6.744 -0.4017  0.3909  1.0172
  246MOL0     H33195  11.039   3.882   6.892  2.2021 -0.0427 -1.3545
  246MOL0     H33196   9.697   4.850   6.855  0.0779 -1.5115 -1.1758
  246MOL0     H33197   9.459   4.740   6.859  1.6998  1.1502 -2.0700
  246MOL0     H33198   9.282   4.204   6.959  0.0509  0.0135 -1.5405
  246MOL0     H33199   9.059   4.103   7.006 -1.2493 -0.7163  2.8237
  246MOL0     H33200   8.759   4.339   7.223  2.6562 -1.5126  0.7090
  246MOL0     H33201   8.771   4.359   7.043 -2.3387  2.5398  1.8564
  246MOL0     H33202   8.626   4.134   7.192 -0.2016  0.6616  0.2339
  246MOL0     H33203   8.621   4.141   7.020 -2.6562 -0.9075  0.3234
  246MOL0     H33204   8.511   4.377   7.041  1.2624 -0.8993 -1.3229
  246MOL0     H33205   8.494   4.327   7.217  1.3896 -2.1043 -0.0675
  246MOL0     H33206   8.341   4.168   7.178  2.6843 -1.7949  0.8347
  246MOL0     H33207   8.391   4.156   7.002 -1.0001 -0.5802  1.1565
  246MOL0     H33208   8.123   4.480   6.985 -1.1513  0.6011  3.6001
  246MOL0     H33209   8.936   4.469   7.200  2.4164  1.4314  1.0666
  246MOL0     H33210   9.151   4.576   7.143  1.9472  1.1706 -2.7917
  247MOL0     O33211   3.703   6.190   3.079 -0.2666 -0.1298  0.4571
  247MOL0     C33212   3.671   6.137   3.184  0.1406  1.3071  0.2156
  247MOL0     O33213   3.545   6.097   3.225  0.1079  0.3593 -0.5189
  247MOL0     C33214   3.437   6.144   3.154  0.1072 -0.0642 -0.1233
  247MOL0     C33215   3.434   6.283   3.126  0.8464  0.1682 -0.2510
  247MOL0     C33216   3.320   6.325   3.053 -0.0774 -0.6559 -0.0662
  247MOL0     C33217   3.218   6.228   3.014 -0.0588 -0.2722 -0.8184
  247MOL0     O33218   3.111   6.258   2.942  0.0382 -0.1574  0.7242
  247MOL0     C33219   3.119   6.359   2.832 -0.7903  0.1722 -0.5626
  247MOL0     C33220   3.208   6.331   2.720  0.1014  0.4225 -0.5792
  247MOL0     C33221   3.356   6.350   2.733 -0.0239 -0.2516  0.0812
  247MOL0     C33222   3.435   6.318   2.602  0.5836  0.5088 -0.5003
  247MOL0     C33223   3.581   6.351   2.620 -0.0590 -1.4192 -0.0367
  247MOL0     C33224   3.660   6.238   2.694 -0.3078 -0.4853 -0.1647
  247MOL0     C33225   3.803   6.283   2.712 -0.4080  0.5592  0.1795
  247MOL0     C33226   3.878   6.183   2.790  0.1054  0.1456  0.1793
  247MOL0     N33227   4.012   6.239   2.832  0.9972 -1.0640 -0.1401
  247MOL0     C33228   4.127   6.203   2.776  0.1220  0.2606  0.1463
  247MOL0     C33229   4.224   6.276   2.836 -0.4663  0.0320 -0.3118
  247MOL0     C33230   4.367   6.268   2.788 -0.2338  0.5364  1.0291
  247MOL0     C33231   4.452   6.159   2.848  0.3339 -0.4957  0.5329
  247MOL0     C33232   4.416   6.019   2.799  0.6244 -0.3474  0.7862
  247MOL0     C33233   4.482   5.916   2.899  0.0484 -0.0694  0.1686
  247MOL0     O33234   4.619   5.925   2.898  0.6378 -0.6803  0.5177
  247MOL0     C33235   4.686   5.840   2.815 -0.4335  0.4448  0.1555
  247MOL0     C33236   4.828   5.824   2.842  0.2488  0.6942 -0.1733
  247MOL0     C33237   4.907   5.735   2.773 -0.6464  0.5426 -0.4750
  247MOL0     C33238   5.054   5.733   2.822 -1.0464 -0.3658 -0.3179
  247MOL0     C33239   4.857   5.648   2.670 -0.3814 -0.7711  0.9187
  247MOL0     C33240   4.934   5.551   2.590  0.7094  0.3136  0.3016
  247MOL0     O33241   4.863   5.480   2.495  0.1772  0.2528 -0.3066
  247MOL0     C33242   4.933   5.427   2.382 -1.2292  0.3962  0.1354
  247MOL0     C33243   4.928   5.293   2.339  0.7751  0.9117  0.3078
  247MOL0     C33244   4.983   5.237   2.228 -1.0395  0.4165  0.2368
  247MOL0     C33245   5.065   5.329   2.154  0.2542  0.4219 -0.3157
  247MOL0     O33246   5.117   5.289   2.036 -0.0126 -0.3627  0.4152
  247MOL0     C33247   5.179   5.160   2.026 -0.8289 -0.3391 -0.8662
  247MOL0     C33248   5.271   5.161   1.910  0.5045 -0.4234 -0.3825
  247MOL0     C33249   5.322   5.028   1.877  0.2917 -0.3394 -0.0748
  247MOL0     C33250   5.387   4.960   1.994 -0.1340 -1.3538 -0.0297
  247MOL0     C33251   5.493   4.862   1.951 -1.4088 -0.2807 -0.9435
  247MOL0     C33252   5.564   4.799   2.072 -0.1218  0.1511  0.4054
  247MOL0     C33253   5.631   4.665   2.013  0.1131 -0.6908 -0.0787
  247MOL0     C33254   5.713   4.579   2.122 -0.0818  0.2126 -0.5875
  247MOL0    Cl33255   5.598   4.542   2.249 -0.3072 -0.1000 -0.0940
  247MOL0     C33256   5.079   5.465   2.185  0.6904 -0.3902 -0.0714
  247MOL0     C33257   5.018   5.509   2.304 -0.8512  0.3867 -0.0317
  247MOL0     O33258   5.053   5.538   2.612  0.2747 -0.4487  0.6468
  247MOL0     C33259   4.721   5.662   2.638  1.3313  0.0551  0.1322
  247MOL0     C33260   4.635   5.757   2.702 -0.8392 -0.7144 -0.5635
  247MOL0     N33261   4.161   6.343   2.937 -0.0315 -0.6701  0.1791
  247MOL0     N33262   4.031   6.330   2.934 -0.4120  0.4859 -0.1788
  247MOL0     C33263   3.230   6.092   3.048  0.4985 -0.4581 -0.1471
  247MOL0     C33264   3.342   6.052   3.125 -0.5407 -0.0619 -0.3730
  247MOL0     C33265   3.777   6.069   3.257 -0.4807  0.7220 -0.3463
  247MOL0     C33266   3.761   5.937   3.317 -0.3484 -0.7644 -0.4510
  247MOL0     C33267   3.871   5.872   3.374  0.0188 -0.7755  0.4717
  247MOL0     C33268   3.993   5.935   3.390  0.0886  0.5392  0.1939
  247MOL0     O33269   4.093   5.862   3.453 -0.0260 -0.2738 -0.6141
  247MOL0     C33270   4.219   5.869   3.392  0.6695 -0.2026  0.5699
  247MOL0     C33271   4.214   5.803   3.251 -0.5170  0.6084  0.2666
  247MOL0     C33272   4.194   5.660   3.272 -0.2356 -0.1300  0.4700
  247MOL0     C33273   4.171   5.584   3.129  0.4937 -0.2287 -0.3054
  247MOL0     C33274   4.188   5.438   3.138 -0.6352 -0.4086 -0.4349
  247MOL0     C33275   4.197   5.317   3.155 -0.4991  0.2781 -0.2417
  247MOL0     C33276   4.017   6.059   3.321  0.1051 -0.4745  0.0749
  247MOL0     C33277   3.913   6.126   3.257  0.2624 -0.4869 -0.1626
  247MOL0     H33278   3.513   6.348   3.163  2.8919 -1.7622 -1.0245
  247MOL0     H33279   3.312   6.431   3.032  0.9641 -0.3391  0.9797
  247MOL0     H33280   3.017   6.367   2.794 -1.5405 -0.2841  1.2217
  247MOL0     H33281   3.148   6.455   2.875  1.9480 -0.2856 -1.2212
  247MOL0     H33282   3.197   6.223   2.703  0.6625  0.5847 -2.1484
  247MOL0     H33283   3.167   6.378   2.630 -2.7729 -0.7213  0.0031
  247MOL0     H33284   3.377   6.456   2.752 -0.9433 -0.4077  2.2187
  247MOL0     H33285   3.389   6.291   2.819 -0.2370  0.5350  0.7139
  247MOL0     H33286   3.414   6.215   2.570 -1.3516 -0.8917  4.3543
  247MOL0     H33287   3.394   6.382   2.524  2.4652  2.8126  0.2925
  247MOL0     H33288   3.623   6.373   2.522 -0.2441 -2.0893 -0.2712
  247MOL0     H33289   3.609   6.436   2.683  2.1883 -1.1049 -1.3590
  247MOL0     H33290   3.622   6.206   2.792 -1.6378  0.4774 -0.3380
  247MOL0     H33291   3.652   6.155   2.624  0.9559  1.4284 -2.7203
  247MOL0     H33292   3.842   6.295   2.611 -0.5605 -1.6346 -0.1803
  247MOL0     H33293   3.810   6.373   2.775 -1.9743 -0.9333  2.6492
  247MOL0     H33294   3.899   6.098   2.724  2.8109 -0.4085  1.5840
  247MOL0     H33295   3.815   6.141   2.870 -1.4305 -1.8275 -1.9392
  247MOL0     H33296   4.137   6.146   2.683  1.0040 -0.2988  0.5669
  247MOL0     H33297   4.362   6.253   2.680 -2.1583  0.2907  1.1192
  247MOL0     H33298   4.419   6.364   2.802  0.1526  0.3487  0.8817
  247MOL0     H33299   4.440   6.166   2.957 -1.9388  3.4889  0.1926
  247MOL0     H33300   4.556   6.175   2.818 -0.0229 -0.2178 -0.5735
  247MOL0     H33301   4.447   6.010   2.694 -1.5701  0.3120  0.0143
  247MOL0     H33302   4.307   6.006   2.807  0.2684  1.6970 -0.1733
  247MOL0     H33303   4.450   5.813   2.884  3.2727 -1.0463 -0.9580
  247MOL0     H33304   4.449   5.938   3.000  3.2523  0.1813  1.2859
  247MOL0     H33305   4.870   5.873   2.929 -1.2141  0.6739  0.5583
  247MOL0     H33306   5.114   5.774   2.740 -1.0088 -1.2134 -0.7185
  247MOL0     H33307   5.075   5.796   2.909 -1.5951 -0.3529 -0.1926
  247MOL0     H33308   5.088   5.634   2.852  0.2058 -0.9223 -3.2186
  247MOL0     H33309   4.856   5.227   2.387  0.5208 -0.6170 -2.0181
  247MOL0     H33310   4.965   5.134   2.198  0.8638 -0.3468  1.4860
  247MOL0     H33311   5.233   5.143   2.119 -2.0288  1.3541  0.2135
  247MOL0     H33312   5.102   5.084   2.009  0.3605 -0.9730 -4.1701
  247MOL0     H33313   5.216   5.188   1.819 -2.5202 -2.1125  0.8053
  247MOL0     H33314   5.361   5.220   1.931 -0.5125 -0.3275  5.0760
  247MOL0     H33315   5.397   5.037   1.798 -0.8568 -0.7113 -1.2457
  247MOL0     H33316   5.245   4.959   1.841  0.7816 -1.3936  0.8597
  247MOL0     H33317   5.450   5.033   2.046  0.5044 -1.9856  0.0893
  247MOL0     H33318   5.314   4.912   2.060 -2.7621  1.8608 -0.3308
  247MOL0     H33319   5.573   4.913   1.897 -2.7381  1.6019 -1.2201
  247MOL0     H33320   5.436   4.793   1.888  0.4354 -1.5973 -1.2784
  247MOL0     H33321   5.638   4.868   2.113 -1.5252  1.2667  1.1284
  247MOL0     H33322   5.484   4.780   2.143  0.1690  4.4780  2.2384
  247MOL0     H33323   5.692   4.695   1.927 -0.5815 -0.1949 -0.4097
  247MOL0     H33324   5.548   4.601   1.982  0.0689 -1.2706  1.2034
  247MOL0     H33325   5.790   4.640   2.170 -2.4898  1.6643  1.6691
  247MOL0     H33326   5.764   4.496   2.073  1.4587 -0.2720  1.6667
  247MOL0     H33327   5.135   5.537   2.126  0.2322 -0.2205 -0.3089
  247MOL0     H33328   5.041   5.612   2.328  1.0876 -0.3825  1.7857
  247MOL0     H33329   4.669   5.611   2.558  0.7471  0.5480  0.1892
  247MOL0     H33330   4.530   5.773   2.678 -1.2491  4.6346  3.0146
  247MOL0     H33331   3.158   6.017   3.016 -0.5895  0.4415  0.1285
  247MOL0     H33332   3.359   5.950   3.158 -4.2801 -0.5154  0.6546
  247MOL0     H33333   3.661   5.893   3.312 -2.1503  2.7428  1.2554
  247MOL0     H33334   3.871   5.796   3.451  1.0067 -0.1461  1.1034
  247MOL0     H33335   4.260   5.968   3.373  0.7755 -0.2732  0.4292
  247MOL0     H33336   4.292   5.820   3.457 -0.3868 -1.8914  0.5579
  247MOL0     H33337   4.309   5.820   3.198 -1.2391  2.2168 -0.6005
  247MOL0     H33338   4.137   5.843   3.184  1.2293  2.3106 -0.8674
  247MOL0     H33339   4.107   5.645   3.336 -0.9894 -1.3860 -0.7860
  247MOL0     H33340   4.280   5.613   3.319  0.6196  1.7429  0.8601
  247MOL0     H33341   4.253   5.626   3.071  0.0972  0.3690 -0.4375
  247MOL0     H33342   4.076   5.619   3.086  1.0511  0.5754 -0.9166
  247MOL0     H33343   4.201   5.211   3.168  3.1508  0.1820 -1.0452
  247MOL0     H33344   4.114   6.106   3.317 -0.8707  1.5904 -1.9121
  247MOL0     H33345   3.940   6.212   3.196  1.1674 -1.3686 -1.0291
  248MOL0     O33346   7.934   9.198   8.492 -0.5278  0.4561 -0.3184
  248MOL0     C33347   7.940   9.242   8.609  0.4083 -0.7769  0.5038
  248MOL0     O33348   7.835   9.230   8.693 -0.5048 -0.6209  0.4777
  248MOL0     C33349   7.726   9.157   8.657 -0.9735 -0.5480  0.2229
  248MOL0     C33350   7.615   9.209   8.581 -0.0328  0.1704 -0.3924
  248MOL0     C33351   7.517   9.126   8.532  0.1358  0.1474 -0.8623
  248MOL0     C33352   7.507   9.000   8.589 -0.0733  0.3442 -0.4114
  248MOL0     O33353   7.401   8.922   8.582  0.2700 -0.4858  0.0726
  248MOL0     C33354   7.328   8.930   8.456  0.4363 -0.3674 -1.0885
  248MOL0     C33355   7.195   8.997   8.496 -0.5085  0.5094  0.0326
  248MOL0     C33356   7.097   8.903   8.570 -0.1329 -0.5795 -0.8676
  248MOL0     C33357   6.953   8.955   8.551  0.0536  0.2383 -0.1874
  248MOL0     C33358   6.858   8.859   8.621  0.5026  0.7218 -0.2201
  248MOL0     C33359   6.712   8.918   8.610  0.6656  0.6977  0.6198
  248MOL0     C33360   6.610   8.829   8.682  0.6544  0.5787  0.2449
  248MOL0     C33361   6.471   8.876   8.662 -0.2436  0.3514 -0.2106
  248MOL0     N33362   6.370   8.787   8.718 -0.1791  0.8045 -0.2890
  248MOL0     C33363   6.379   8.657   8.753  0.6839  0.1396  0.6374
  248MOL0     C33364   6.251   8.625   8.789  0.3155 -0.1388 -0.0196
  248MOL0     C33365   6.211   8.482   8.812  1.2927  0.1210  0.1235
  248MOL0     C33366   6.222   8.420   8.955  0.7844  0.6734 -0.3996
  248MOL0     C33367   6.189   8.268   8.944 -0.9149 -0.0959 -0.3511
  248MOL0     C33368   6.206   8.195   9.081  0.8657  0.6213 -0.2589
  248MOL0     O33369   6.275   8.066   9.062  0.1277 -0.5641  0.2115
  248MOL0     C33370   6.212   7.974   8.992 -0.8419 -0.0465  0.0787
  248MOL0     C33371   6.291   7.860   8.967 -0.4726 -1.1294 -0.2517
  248MOL0     C33372   6.251   7.752   8.882 -0.4271 -0.1101  0.4065
  248MOL0     C33373   6.352   7.641   8.848  0.2242 -0.1637  0.8115
  248MOL0     C33374   6.119   7.757   8.817  0.1487  0.7498  0.0478
  248MOL0     C33375   6.061   7.650   8.730  0.5030  0.7277 -0.3172
  248MOL0     O33376   5.995   7.690   8.629  0.0037 -0.6670 -0.3088
  248MOL0     C33377   5.944   7.594   8.548 -0.5156  0.0039 -0.4189
  248MOL0     C33378   5.810   7.566   8.550  1.0128  0.2844 -0.3276
  248MOL0     C33379   5.752   7.472   8.467  0.1175  1.0825 -0.3597
  248MOL0     C33380   5.831   7.417   8.363  0.5020 -0.7762 -0.2850
  248MOL0     O33381   5.776   7.334   8.276 -0.2302 -0.0823 -0.4580
  248MOL0     C33382   5.748   7.367   8.144 -0.7735 -1.0630  0.0815
  248MOL0     C33383   5.602   7.348   8.111 -0.2171  0.2677  0.2405
  248MOL0     C33384   5.550   7.205   8.137 -0.0708  0.6371  0.2768
  248MOL0     C33385   5.558   7.116   8.017 -0.0320  0.2168 -0.8543
  248MOL0     C33386   5.487   6.982   8.042  0.5864  0.4760  0.5005
  248MOL0     C33387   5.337   7.005   8.016 -0.5529 -0.0541 -0.0545
  248MOL0     C33388   5.275   6.876   8.002  0.3326  0.9082 -0.6700
  248MOL0     C33389   5.128   6.873   7.951  0.1539 -0.4043  0.2326
  248MOL0    Cl33390   5.024   6.965   8.066  0.1134 -0.1783  0.7538
  248MOL0     C33391   5.965   7.449   8.356 -0.6186 -0.8231  0.3889
  248MOL0     C33392   6.025   7.534   8.443  0.7930 -0.6295  0.3743
  248MOL0     O33393   6.078   7.531   8.767  0.1011 -0.3292  0.2656
  248MOL0     C33394   6.039   7.867   8.847  0.1694  0.4296  0.1682
  248MOL0     C33395   6.084   7.972   8.930 -0.8818  0.8368 -0.6941
  248MOL0     N33396   6.166   8.742   8.773  0.7773  0.1150  0.4670
  248MOL0     N33397   6.245   8.834   8.737 -0.1368  0.3325  0.8044
  248MOL0     C33398   7.602   8.948   8.682 -0.7157  0.1080  1.1442
  248MOL0     C33399   7.707   9.036   8.718  0.3089  0.3847  0.7724
  248MOL0     C33400   8.064   9.308   8.653  0.0601 -1.1551  0.3644
  248MOL0     C33401   8.074   9.350   8.788 -0.1302  0.4871 -0.1787
  248MOL0     C33402   8.184   9.421   8.825 -0.6582 -0.9053  0.3050
  248MOL0     C33403   8.288   9.442   8.738 -0.0627 -0.1421 -0.0885
  248MOL0     O33404   8.402   9.510   8.771  0.2400  0.2885 -0.5653
  248MOL0     C33405   8.408   9.582   8.899  0.4577  0.3801  0.2700
  248MOL0     C33406   8.528   9.670   8.890 -0.9437 -0.2182 -0.4147
  248MOL0     C33407   8.530   9.781   8.998  0.2409 -0.0970 -0.1494
  248MOL0     C33408   8.578   9.731   9.136  0.1089  1.3276 -0.4801
  248MOL0     C33409   8.712   9.691   9.144  0.5475  0.4257 -0.0277
  248MOL0     C33410   8.831   9.674   9.166  0.0189 -0.2113 -0.5262
  248MOL0     C33411   8.280   9.399   8.616  0.4799 -0.3947 -0.1163
  248MOL0     C33412   8.170   9.343   8.565 -0.3593 -0.3260 -0.2649
  248MOL0     H33413   7.626   9.313   8.550 -1.6449 -0.0313 -1.7639
  248MOL0     H33414   7.448   9.158   8.454 -0.4932 -2.2071 -1.3376
  248MOL0     H33415   7.365   8.987   8.371 -3.9814 -0.3895 -3.3022
  248MOL0     H33416   7.306   8.834   8.409  1.5307 -1.3495  0.3105
  248MOL0     H33417   7.219   9.087   8.553  0.4226 -0.3832  1.1038
  248MOL0     H33418   7.145   9.039   8.408  1.0876 -0.9541 -1.6911
  248MOL0     H33419   7.116   8.811   8.515  0.2360 -0.5266 -0.8303
  248MOL0     H33420   7.124   8.883   8.675 -0.5108 -1.1921 -0.8807
  248MOL0     H33421   6.941   9.053   8.598  3.7143  0.9440 -0.4061
  248MOL0     H33422   6.939   8.952   8.443  0.3424 -0.4305 -0.2130
  248MOL0     H33423   6.857   8.756   8.583  0.0770  1.7386 -3.2769
  248MOL0     H33424   6.884   8.848   8.727 -0.9133  3.3623  0.4723
  248MOL0     H33425   6.712   9.018   8.655  1.8521  1.1519 -0.2985
  248MOL0     H33426   6.679   8.932   8.506  0.5646  1.5832  0.7615
  248MOL0     H33427   6.622   8.727   8.645  2.1578 -0.2632  2.7444
  248MOL0     H33428   6.628   8.830   8.790 -0.4534  2.5300  0.4592
  248MOL0     H33429   6.460   8.888   8.554  0.7157  0.7102 -0.2809
  248MOL0     H33430   6.472   8.979   8.701 -0.4530  0.2526  0.0586
  248MOL0     H33431   6.466   8.593   8.750  1.2641  0.9190  0.4026
  248MOL0     H33432   6.106   8.477   8.782  0.7592  3.9668  0.7220
  248MOL0     H33433   6.279   8.426   8.748  0.3588 -2.2247  1.0622
  248MOL0     H33434   6.167   8.474   9.033 -0.9483 -2.4582  0.7122
  248MOL0     H33435   6.331   8.421   8.968  1.1709 -2.1121 -2.4402
  248MOL0     H33436   6.257   8.229   8.868 -1.9283  1.1696 -1.9694
  248MOL0     H33437   6.091   8.248   8.901 -0.5493  0.8471 -1.6994
  248MOL0     H33438   6.109   8.176   9.128 -0.7971  2.8499 -2.5066
  248MOL0     H33439   6.260   8.262   9.149  2.2468 -2.2022  1.6618
  248MOL0     H33440   6.392   7.854   9.004 -0.5632  1.5625  0.6561
  248MOL0     H33441   6.457   7.656   8.876  1.4920 -1.8088 -2.5265
  248MOL0     H33442   6.326   7.551   8.904  0.7077 -0.7170  0.1572
  248MOL0     H33443   6.337   7.617   8.742  3.9782 -0.7515  0.2541
  248MOL0     H33444   5.744   7.607   8.626 -1.1282  1.3610 -2.6053
  248MOL0     H33445   5.646   7.447   8.463  0.1508  1.1033 -2.2265
  248MOL0     H33446   5.785   7.469   8.133 -0.3484 -0.4203  4.9510
  248MOL0     H33447   5.813   7.314   8.073  0.0676 -1.3489  1.0302
  248MOL0     H33448   5.543   7.399   8.188 -1.8515 -2.3309  0.8200
  248MOL0     H33449   5.578   7.386   8.012  0.5698  2.0153  0.6603
  248MOL0     H33450   5.448   7.211   8.175 -1.6725  4.7840 -3.6572
  248MOL0     H33451   5.606   7.157   8.218 -2.4697  1.6526  2.6693
  248MOL0     H33452   5.510   7.170   7.935 -0.2865 -0.4276 -1.1315
  248MOL0     H33453   5.664   7.100   7.996  0.3619  0.7885  0.5656
  248MOL0     H33454   5.506   6.936   8.139  0.8017  1.6146  1.0028
  248MOL0     H33455   5.525   6.904   7.974  1.6110  0.4463  1.0937
  248MOL0     H33456   5.294   7.063   8.098 -1.2981 -1.4166  0.5597
  248MOL0     H33457   5.326   7.061   7.923  1.2691 -0.8997 -0.8318
  248MOL0     H33458   5.281   6.813   8.091 -0.2915 -0.0662 -1.2876
  248MOL0     H33459   5.327   6.817   7.926  0.9621  1.4423 -0.6534
  248MOL0     H33460   5.098   6.770   7.930 -2.7956  0.3492  0.3258
  248MOL0     H33461   5.117   6.927   7.856 -1.6951 -1.8250 -0.4277
  248MOL0     H33462   6.022   7.416   8.269  0.5762 -1.1661  1.2746
  248MOL0     H33463   6.121   7.581   8.424 -0.8506  2.6525 -0.7436
  248MOL0     H33464   5.941   7.890   8.806 -0.2294  0.7055  1.2365
  248MOL0     H33465   6.012   8.053   8.938  1.0959  3.3906 -5.1079
  248MOL0     H33466   7.595   8.851   8.728 -0.5725 -0.3448  0.2429
  248MOL0     H33467   7.776   8.998   8.793 -0.9743 -0.1442  1.7246
  248MOL0     H33468   7.998   9.324   8.860 -0.0804 -1.0031 -0.6375
  248MOL0     H33469   8.186   9.457   8.928 -2.0493  1.0416 -0.2685
  248MOL0     H33470   8.317   9.640   8.916 -0.4225 -0.9128  0.1139
  248MOL0     H33471   8.408   9.507   8.979 -0.1483  1.2438  1.0865
  248MOL0     H33472   8.537   9.700   8.786  0.3479 -1.8432 -0.8221
  248MOL0     H33473   8.615   9.605   8.907 -0.3836  0.5667 -0.1988
  248MOL0     H33474   8.429   9.823   8.993  0.3564  0.1093 -0.8045
  248MOL0     H33475   8.596   9.867   8.983  0.7411 -0.4896 -0.2376
  248MOL0     H33476   8.505   9.654   9.163 -0.1700  1.8702  0.3565
  248MOL0     H33477   8.560   9.819   9.198 -1.5712  2.3267 -2.2601
  248MOL0     H33478   8.935   9.667   9.188  0.2733 -0.1989 -1.6698
  248MOL0     H33479   8.363   9.423   8.550  0.9246  2.9374  1.4545
  248MOL0     H33480   8.176   9.321   8.459  1.7653  3.5104 -1.1636
  249MOL0     O33481   3.872   1.483   0.859  0.4390 -0.8206 -0.1490
  249MOL0     C33482   3.867   1.520   0.740  0.0721  0.2315 -0.1406
  249MOL0     O33483   3.762   1.578   0.679 -0.4759  0.0813 -0.0852
  249MOL0     C33484   3.664   1.638   0.758  0.0643  0.2314 -0.3227
  249MOL0     C33485   3.695   1.716   0.864  0.9260  0.0710  0.2320
  249MOL0     C33486   3.590   1.779   0.931  0.3862  0.0361 -0.7263
  249MOL0     C33487   3.451   1.764   0.897  0.4879  0.1651 -0.5124
  249MOL0     O33488   3.343   1.821   0.956  0.2357 -0.4329  0.3188
  249MOL0     C33489   3.335   1.863   1.091 -0.1923  0.3283 -0.9018
  249MOL0     C33490   3.204   1.915   1.127  0.2026  0.9359  0.0376
  249MOL0     C33491   3.175   1.913   1.281 -1.0654 -0.4270 -0.2405
  249MOL0     C33492   3.036   1.953   1.309  0.2038  0.1070  0.6561
  249MOL0     C33493   3.024   1.998   1.458  0.4711  0.1525  0.1221
  249MOL0     C33494   3.006   1.879   1.551 -0.2144  0.0031  0.1717
  249MOL0     C33495   2.994   1.931   1.691  0.5407  0.5766  0.0981
  249MOL0     C33496   3.047   1.830   1.783 -0.2665  0.2087  0.3043
  249MOL0     N33497   3.066   1.893   1.919  1.1320  0.2124  1.0799
  249MOL0     C33498   2.969   1.914   2.013 -0.1565  0.2694 -0.3080
  249MOL0     C33499   3.026   2.006   2.099  0.3128 -0.2447 -0.6850
  249MOL0     C33500   2.956   2.046   2.232 -0.0122  0.8132  0.0746
  249MOL0     C33501   3.058   2.080   2.341  0.2078 -0.0763 -0.7059
  249MOL0     C33502   3.118   2.216   2.327  0.0287 -0.3037  0.1130
  249MOL0     C33503   3.221   2.234   2.445 -0.1767 -0.4806  0.4241
  249MOL0     O33504   3.161   2.227   2.578 -1.4158 -0.3484 -0.3127
  249MOL0     C33505   3.232   2.297   2.672  0.2262  0.2787  0.0435
  249MOL0     C33506   3.367   2.268   2.684 -0.2618  0.3842 -0.0044
  249MOL0     C33507   3.454   2.347   2.766  0.1607  0.3793  0.6884
  249MOL0     C33508   3.598   2.349   2.731  0.9412  0.1263 -0.5595
  249MOL0     C33509   3.395   2.438   2.862 -0.2593  0.2907  0.2582
  249MOL0     C33510   3.465   2.530   2.950 -0.6386  0.1719  0.2469
  249MOL0     O33511   3.388   2.621   3.025  0.0230  0.6913 -0.3694
  249MOL0     C33512   3.442   2.736   3.087  0.1292  0.6537 -0.1359
  249MOL0     C33513   3.370   2.791   3.188 -0.4676 -0.7926 -1.0317
  249MOL0     C33514   3.402   2.907   3.251 -0.6654  0.5792 -0.1695
  249MOL0     C33515   3.521   2.975   3.222 -0.6448  0.0196  1.3129
  249MOL0     O33516   3.574   3.084   3.292  1.1549  0.7335 -0.6166
  249MOL0     C33517   3.474   3.152   3.376 -0.5511  0.1225 -0.1043
  249MOL0     C33518   3.544   3.265   3.450  0.0372 -0.7010 -0.6194
  249MOL0     C33519   3.453   3.319   3.555  0.0362  0.3281 -0.5629
  249MOL0     C33520   3.532   3.420   3.630  0.1419 -0.3556 -0.1399
  249MOL0     C33521   3.439   3.471   3.741  0.5826 -0.2166  0.2129
  249MOL0     C33522   3.481   3.579   3.832 -0.6384 -0.7647  0.2287
  249MOL0     C33523   3.532   3.714   3.756  0.0508  0.2788 -0.5640
  249MOL0     C33524   3.553   3.826   3.860 -0.4860  0.0636 -0.6273
  249MOL0    Cl33525   3.718   3.835   3.925  0.2710 -0.4154  0.0438
  249MOL0     C33526   3.598   2.922   3.111  0.2921 -0.1517  0.5544
  249MOL0     C33527   3.552   2.809   3.047  0.9436  1.0563  0.3439
  249MOL0     O33528   3.586   2.534   2.950  0.1919 -0.6293  0.0553
  249MOL0     C33529   3.253   2.453   2.857  0.1956  0.3908  0.0281
  249MOL0     C33530   3.179   2.395   2.756  0.4938 -0.2917 -0.3943
  249MOL0     N33531   3.152   2.031   2.049  1.2026  0.3931  0.8197
  249MOL0     N33532   3.174   1.967   1.941 -0.2137  0.4838  0.0458
  249MOL0     C33533   3.430   1.675   0.789  0.2157 -0.1246 -1.4507
  249MOL0     C33534   3.536   1.618   0.720  0.5189  0.0572  1.2100
  249MOL0     C33535   3.984   1.501   0.664  0.4828 -0.5312  0.3960
  249MOL0     C33536   3.984   1.489   0.523 -0.9981 -0.4400  0.0719
  249MOL0     C33537   4.100   1.452   0.461  0.0636  0.4851 -0.6931
  249MOL0     C33538   4.229   1.440   0.526  0.3490 -0.6235  0.2293
  249MOL0     O33539   4.337   1.392   0.468  0.4293  0.8410  0.1596
  249MOL0     C33540   4.342   1.354   0.332  0.4325 -1.0914  0.2985
  249MOL0     C33541   4.471   1.386   0.261  0.1340  0.3906 -0.2840
  249MOL0     C33542   4.481   1.344   0.116 -0.5965  0.0312  0.4847
  249MOL0     C33543   4.397   1.437   0.018  0.3778 -0.0776 -0.1088
  249MOL0     C33544   4.438   1.577   0.015 -0.3160  0.3665  0.0003
  249MOL0     C33545   4.469   1.688   0.004 -0.4587 -0.4130 -1.1510
  249MOL0     C33546   4.226   1.456   0.663  0.0387  0.1792  0.0605
  249MOL0     C33547   4.107   1.482   0.732 -0.0433  0.4804 -0.2430
  249MOL0     H33548   3.797   1.723   0.899  0.3947  0.8035  1.7484
  249MOL0     H33549   3.613   1.839   1.018  3.8133 -0.6424 -1.0281
  249MOL0     H33550   3.364   1.784   1.161 -0.6537  0.2842 -0.7602
  249MOL0     H33551   3.406   1.945   1.111 -2.1184  2.1443 -1.2064
  249MOL0     H33552   3.179   2.011   1.082 -1.8474  0.6822  0.5304
  249MOL0     H33553   3.140   1.836   1.088  1.1957  0.6783 -1.1527
  249MOL0     H33554   3.192   1.810   1.311 -0.3054 -0.6786 -1.4726
  249MOL0     H33555   3.244   1.983   1.328 -1.2343 -0.4043 -0.0267
  249MOL0     H33556   2.999   2.029   1.239 -1.8790 -0.2922  1.2500
  249MOL0     H33557   2.966   1.872   1.285 -1.0489  1.7145 -1.4912
  249MOL0     H33558   3.108   2.064   1.479 -0.2740  2.1564 -2.5066
  249MOL0     H33559   2.928   2.051   1.464 -0.1248 -0.7680 -0.7120
  249MOL0     H33560   2.919   1.815   1.537  0.0214 -0.0533 -1.1224
  249MOL0     H33561   3.086   1.806   1.537  0.6091  1.0204 -0.5933
  249MOL0     H33562   3.046   2.028   1.699 -1.3337  1.6504 -0.2922
  249MOL0     H33563   2.888   1.954   1.697  0.3971  0.2994 -1.1499
  249MOL0     H33564   3.146   1.797   1.751  0.1209  0.0553  1.6031
  249MOL0     H33565   2.982   1.742   1.792  1.4490 -1.4485 -2.1825
  249MOL0     H33566   2.877   1.859   2.027 -0.6832  0.3211 -3.0796
  249MOL0     H33567   2.901   2.138   2.207 -0.1547  0.4414 -1.0108
  249MOL0     H33568   2.887   1.974   2.276 -0.6047  0.8579 -0.7711
  249MOL0     H33569   3.135   2.004   2.356  0.6205  0.4319 -0.1856
  249MOL0     H33570   3.005   2.090   2.436  2.4847  0.2925  0.5937
  249MOL0     H33571   3.040   2.293   2.329  0.8292  0.5163  0.8445
  249MOL0     H33572   3.162   2.234   2.228 -1.2733  0.4518 -0.3534
  249MOL0     H33573   3.266   2.334   2.443 -3.6657  1.2784  1.0573
  249MOL0     H33574   3.303   2.163   2.431 -1.7784 -2.7647  1.7995
  249MOL0     H33575   3.413   2.204   2.610 -2.0936 -0.0531 -0.8061
  249MOL0     H33576   3.646   2.311   2.822 -2.5903 -0.8554  1.0481
  249MOL0     H33577   3.625   2.295   2.640 -0.3428 -1.9844  0.2583
  249MOL0     H33578   3.638   2.448   2.704  1.4679  0.1522  0.2693
  249MOL0     H33579   3.285   2.736   3.228  1.1780 -2.1201  0.8815
  249MOL0     H33580   3.334   2.946   3.326  0.3907 -0.6446  1.5188
  249MOL0     H33581   3.384   3.181   3.322 -2.1800  1.4104  3.0505
  249MOL0     H33582   3.440   3.083   3.453  1.1831  0.7952  1.3364
  249MOL0     H33583   3.644   3.236   3.483  0.7936  2.3615  0.1343
  249MOL0     H33584   3.566   3.342   3.375 -1.5371 -1.2868 -1.7472
  249MOL0     H33585   3.419   3.238   3.620 -1.0349  2.2128  1.3294
  249MOL0     H33586   3.369   3.361   3.499 -1.2204  0.0809  1.0656
  249MOL0     H33587   3.624   3.385   3.676  1.9804  2.5604 -1.2969
  249MOL0     H33588   3.565   3.498   3.561 -0.4721  0.1396  0.1105
  249MOL0     H33589   3.418   3.380   3.798  5.5138 -2.8563 -1.6219
  249MOL0     H33590   3.351   3.514   3.692  0.8031 -1.0018 -0.8924
  249MOL0     H33591   3.397   3.617   3.891  1.7784  0.4428  3.2200
  249MOL0     H33592   3.557   3.547   3.904 -0.1029  0.2556  0.1352
  249MOL0     H33593   3.448   3.745   3.693 -2.9105 -2.0673  1.8946
  249MOL0     H33594   3.622   3.695   3.696  1.0242 -1.1150  1.2125
  249MOL0     H33595   3.481   3.820   3.942 -0.4196  0.3485 -0.5461
  249MOL0     H33596   3.535   3.924   3.814 -1.6095  0.4034  0.4887
  249MOL0     H33597   3.681   2.979   3.070  0.2455 -1.9012 -2.2409
  249MOL0     H33598   3.595   2.776   2.953 -1.5800 -1.6051 -0.0104
  249MOL0     H33599   3.197   2.527   2.913 -0.7961  1.3091 -2.0788
  249MOL0     H33600   3.074   2.418   2.746 -0.0538 -0.6776  3.2251
  249MOL0     H33601   3.330   1.650   0.756 -0.9900  2.0963  0.2525
  249MOL0     H33602   3.521   1.560   0.629  1.7304  0.4717  0.7309
  249MOL0     H33603   3.885   1.478   0.481 -1.8075 -2.1385  2.1991
  249MOL0     H33604   4.094   1.448   0.353 -1.0446 -0.3724 -0.6162
  249MOL0     H33605   4.324   1.247   0.320  0.4871 -1.1708  0.8683
  249MOL0     H33606   4.267   1.415   0.280 -1.4768  0.9009  4.7587
  249MOL0     H33607   4.556   1.344   0.316  0.5308  0.7297 -0.6342
  249MOL0     H33608   4.491   1.493   0.269 -0.5755  1.1217 -5.1471
  249MOL0     H33609   4.441   1.245   0.091 -1.0869  0.2473  0.3953
  249MOL0     H33610   4.586   1.332   0.087 -0.1059 -0.0273  2.1418
  249MOL0     H33611   4.295   1.428   0.057  0.6116  1.2375  0.8756
  249MOL0     H33612   4.401   1.406  -0.086 -2.5236 -0.8105 -0.0919
  249MOL0     H33613   4.517   1.782  -0.017  1.4778 -1.1122 -0.1420
  249MOL0     H33614   4.309   1.465   0.732  0.1214  3.3079 -0.3331
  249MOL0     H33615   4.102   1.490   0.840  1.2633 -2.6575  0.1481
  250MOL0     O33616  10.075   9.999   0.106  0.0397  0.0453  0.1504
  250MOL0     C33617  10.046  10.090   0.190  0.4326  0.6822  0.3688
  250MOL0     O33618   9.943  10.081   0.285 -0.1346 -0.5310  0.7430
  250MOL0     C33619   9.865   9.972   0.292  0.7223 -0.0959 -0.0885
  250MOL0     C33620   9.799   9.901   0.197  0.2074 -0.0827 -0.3851
  250MOL0     C33621   9.708   9.801   0.222  1.3116 -0.2388  0.5473
  250MOL0     C33622   9.685   9.763   0.357 -0.3286  0.0899 -0.3528
  250MOL0     O33623   9.617   9.647   0.388  0.0732  1.1570  0.0668
  250MOL0     C33624   9.538   9.575   0.294  0.4989  0.4076  0.5976
  250MOL0     C33625   9.450   9.470   0.359  1.0615 -0.4495 -0.4044
  250MOL0     C33626   9.524   9.381   0.459  0.4168  0.3801  0.3646
  250MOL0     C33627   9.448   9.270   0.510 -0.2435 -0.0999 -0.3280
  250MOL0     C33628   9.532   9.169   0.601 -0.3447  0.3912  1.2972
  250MOL0     C33629   9.634   9.233   0.696 -0.0315  0.0402 -0.1269
  250MOL0     C33630   9.720   9.129   0.758 -0.0343  0.7325  0.2317
  250MOL0     C33631   9.823   9.203   0.845  0.1540 -0.4373  0.4709
  250MOL0     N33632   9.927   9.118   0.916  0.4821 -0.7042  0.4646
  250MOL0     C33633  10.041   9.059   0.859 -0.4475 -0.0952 -0.5215
  250MOL0     C33634  10.071   8.962   0.948  0.1653  0.4045  0.1041
  250MOL0     C33635  10.158   8.846   0.908  0.6591 -0.2857  0.3649
  250MOL0     C33636  10.300   8.873   0.941 -0.1516  0.2695 -0.3223
  250MOL0     C33637  10.381   8.752   0.905  0.3193 -0.1025  0.3918
  250MOL0     C33638  10.528   8.784   0.937  0.3088 -0.1643 -0.2945
  250MOL0     O33639  10.573   8.868   0.828 -0.1220  0.2197  0.1981
  250MOL0     C33640  10.705   8.900   0.822  0.0353 -0.3903  0.2907
  250MOL0     C33641  10.806   8.835   0.894 -0.1886 -0.2964  0.2887
  250MOL0     C33642  10.941   8.876   0.878  0.2637  0.1498  0.0916
  250MOL0     C33643  11.059   8.817   0.970  0.4141 -0.3552  0.2104
  250MOL0     C33644  10.971   8.959   0.763  0.0665  0.5362 -0.6349
  250MOL0     C33645  11.116   8.989   0.718 -0.7383  0.4311  0.6956
  250MOL0     O33646  11.132   9.098   0.642 -0.1918  0.6334  1.4046
  250MOL0     C33647  11.251   9.128   0.579 -0.8260  0.4727 -0.4966
  250MOL0     C33648  11.252   9.197   0.458 -0.0865  0.7656 -0.5435
  250MOL0     C33649  11.369   9.231   0.399 -1.0453 -0.4306 -0.2071
  250MOL0     C33650  11.503   9.213   0.450  0.3888  0.2228 -0.5275
  250MOL0     O33651  11.613   9.245   0.377  0.1492 -0.2784 -0.2161
  250MOL0     C33652  11.732   9.294   0.449 -0.3739 -0.5547 -0.0909
  250MOL0     C33653  11.838   9.336   0.332 -0.5911 -0.4258 -0.3636
  250MOL0     C33654  11.983   9.366   0.381  0.3508  0.2007 -0.0307
  250MOL0     C33655  12.067   9.240   0.378 -0.1155 -0.1872  0.3247
  250MOL0     C33656  12.209   9.284   0.382 -0.9192  0.2747  0.6228
  250MOL0     C33657  12.311   9.178   0.345 -0.3687 -0.3401  0.4421
  250MOL0     C33658  12.454   9.205   0.391  1.3616  0.2719  0.0878
  250MOL0     C33659  12.548   9.109   0.325 -0.0586  0.3171 -0.2541
  250MOL0    Cl33660  12.707   9.107   0.410  0.2258 -0.4333 -0.1250
  250MOL0     C33661  11.501   9.152   0.579 -0.7945  1.0336 -0.1034
  250MOL0     C33662  11.376   9.120   0.648 -0.2893  0.2254  1.0257
  250MOL0     O33663  11.195   8.887   0.722  0.2704 -0.8086  0.2388
  250MOL0     C33664  10.867   9.008   0.684 -0.6007  0.2396  0.8754
  250MOL0     C33665  10.741   8.991   0.721  0.3674 -0.1922 -0.2377
  250MOL0     N33666   9.990   8.968   1.065  0.3026 -0.4053  0.4986
  250MOL0     N33667   9.901   9.063   1.041  0.1388  0.7490 -0.3604
  250MOL0     C33668   9.751   9.840   0.453  0.9145 -0.1931 -0.0977
  250MOL0     C33669   9.837   9.947   0.426 -0.0565 -0.7726  0.0092
  250MOL0     C33670  10.148  10.197   0.206 -0.4590 -0.6146 -0.8726
  250MOL0     C33671  10.275  10.196   0.137 -0.3161 -0.4746 -0.2451
  250MOL0     C33672  10.362  10.303   0.162  0.2755  0.2221 -0.1453
  250MOL0     C33673  10.330  10.410   0.240 -0.0225 -0.1573 -0.9180
  250MOL0     O33674  10.430  10.493   0.270 -0.5035 -0.2254 -0.5677
  250MOL0     C33675  10.395  10.631   0.313 -0.4261  0.3882  0.0467
  250MOL0     C33676  10.316  10.713   0.210 -0.6349  0.7642 -0.5637
  250MOL0     C33677  10.386  10.722   0.078  0.3552  0.0245  1.2509
  250MOL0     C33678  10.295  10.748  -0.044 -0.4309 -0.8361 -0.1904
  250MOL0     C33679  10.383  10.762  -0.167 -0.4253 -0.7506 -0.3340
  250MOL0     C33680  10.435  10.793  -0.273  0.1960 -0.7791 -0.6876
  250MOL0     C33681  10.207  10.410   0.304  0.3695 -0.8592  0.3595
  250MOL0     C33682  10.116  10.305   0.291 -0.4396  0.1041 -0.5816
  250MOL0     H33683   9.808   9.926   0.092 -1.3986  2.5039  0.0108
  250MOL0     H33684   9.654   9.754   0.140  1.8117 -0.8823  0.5718
  250MOL0     H33685   9.475   9.649   0.243 -0.0495 -1.0432 -0.8870
  250MOL0     H33686   9.608   9.526   0.226 -0.1213  2.7338 -1.8997
  250MOL0     H33687   9.362   9.517   0.403  2.3816  1.0215  0.7815
  250MOL0     H33688   9.419   9.397   0.284  0.3443 -1.7530  1.1007
  250MOL0     H33689   9.614   9.342   0.410 -0.5715 -1.2081 -0.2562
  250MOL0     H33690   9.548   9.449   0.541  1.4595  1.4964 -0.8183
  250MOL0     H33691   9.384   9.326   0.579 -1.4948 -0.2417 -1.3500
  250MOL0     H33692   9.380   9.223   0.438  0.7714 -1.2604 -0.5638
  250MOL0     H33693   9.468   9.106   0.663 -0.8641  0.2376  0.6202
  250MOL0     H33694   9.587   9.106   0.531 -0.8784  1.7047 -0.3663
  250MOL0     H33695   9.688   9.311   0.641 -1.4375 -0.8158 -2.9037
  250MOL0     H33696   9.577   9.277   0.779 -1.3635 -0.7368 -0.5933
  250MOL0     H33697   9.657   9.069   0.824  0.8237  1.1625  1.4555
  250MOL0     H33698   9.761   9.065   0.679  0.7830  0.4713  0.8625
  250MOL0     H33699   9.767   9.274   0.906 -3.3370 -2.6397  0.0732
  250MOL0     H33700   9.887   9.264   0.781  0.3649 -0.5692  0.5516
  250MOL0     H33701  10.076   9.067   0.757  1.5227  0.1220  0.1081
  250MOL0     H33702  10.134   8.754   0.962 -0.1438  0.8292  1.9897
  250MOL0     H33703  10.147   8.830   0.800 -1.5698  2.2665  0.0936
  250MOL0     H33704  10.291   8.893   1.048  0.0306 -2.5584  0.2962
  250MOL0     H33705  10.325   8.963   0.885 -0.7960 -0.8791 -2.5967
  250MOL0     H33706  10.365   8.734   0.799 -3.3612 -1.4395  1.0361
  250MOL0     H33707  10.342   8.665   0.958 -0.1847 -0.4004 -0.4522
  250MOL0     H33708  10.580   8.688   0.948  0.2008 -0.5275 -2.5473
  250MOL0     H33709  10.546   8.839   1.030  0.1368 -1.4439  0.5230
  250MOL0     H33710  10.778   8.767   0.974 -2.1591  2.3700  2.0245
  250MOL0     H33711  11.080   8.717   0.930  0.1042 -0.1924 -0.3670
  250MOL0     H33712  11.155   8.869   0.973  0.4884 -0.4789  3.2713
  250MOL0     H33713  11.024   8.796   1.072 -1.3311 -0.0712 -0.2903
  250MOL0     H33714  11.163   9.209   0.398 -0.1523  0.9504 -0.4083
  250MOL0     H33715  11.354   9.275   0.301  0.3345 -1.3972 -0.8809
  250MOL0     H33716  11.719   9.382   0.511  0.2212 -0.4932 -0.0536
  250MOL0     H33717  11.759   9.208   0.511 -1.8642 -0.6599  0.4407
  250MOL0     H33718  11.849   9.258   0.255 -3.4204 -1.4083  0.1312
  250MOL0     H33719  11.804   9.432   0.292  0.4114  0.6807  1.3567
  250MOL0     H33720  11.989   9.414   0.480  1.9601 -0.4243  0.2131
  250MOL0     H33721  12.029   9.443   0.319  1.6417 -0.1811  0.4118
  250MOL0     H33722  12.044   9.169   0.458  0.0086 -0.3482  0.2202
  250MOL0     H33723  12.047   9.188   0.283  1.0401  0.5750 -0.3668
  250MOL0     H33724  12.227   9.298   0.489 -0.3392 -0.8668  0.6920
  250MOL0     H33725  12.230   9.369   0.317 -0.8909 -1.5471 -1.9097
  250MOL0     H33726  12.300   9.080   0.393  1.5211 -0.5791  0.4964
  250MOL0     H33727  12.308   9.154   0.238 -1.2588 -0.3612  0.4673
  250MOL0     H33728  12.452   9.192   0.500  3.9578 -0.2391  0.1496
  250MOL0     H33729  12.476   9.308   0.359 -2.3209  1.3119  0.4801
  250MOL0     H33730  12.562   9.133   0.220  6.2575 -0.8903 -0.0887
  250MOL0     H33731  12.505   9.008   0.331  1.7258 -0.4688  0.0137
  250MOL0     H33732  11.593   9.137   0.634 -2.5685 -0.8663  2.6508
  250MOL0     H33733  11.371   9.076   0.747 -1.2353 -1.2677  0.3543
  250MOL0     H33734  10.878   9.067   0.594 -0.7863  2.7882  2.4205
  250MOL0     H33735  10.657   9.034   0.667 -0.4141 -0.4857  0.7187
  250MOL0     H33736   9.757   9.804   0.555 -0.8355  0.6071  0.3292
  250MOL0     H33737   9.876  10.014   0.502 -0.9147 -3.1564  2.7535
  250MOL0     H33738  10.304  10.106   0.084  2.0750  0.2721 -0.2844
  250MOL0     H33739  10.463  10.286   0.124 -0.5228 -1.1108 -1.8095
  250MOL0     H33740  10.330  10.628   0.401 -0.5215  2.2053  0.0876
  250MOL0     H33741  10.481  10.691   0.347  1.4156  0.5396 -4.2488
  250MOL0     H33742  10.313  10.815   0.247 -2.6805  0.8446 -0.8582
  250MOL0     H33743  10.211  10.683   0.204  0.2788 -2.6288 -1.9457
  250MOL0     H33744  10.434  10.624   0.063 -0.4802 -0.2885  0.5202
  250MOL0     H33745  10.466  10.797   0.087  0.8536 -0.4979  1.2840
  250MOL0     H33746  10.245  10.844  -0.025  1.8267  0.4112 -0.2378
  250MOL0     H33747  10.233  10.659  -0.060  0.4984 -1.1387 -2.4615
  250MOL0     H33748  10.488  10.824  -0.360 -1.8839  2.3569 -1.0190
  250MOL0     H33749  10.191  10.492   0.373 -4.1399 -0.2269 -1.1359
  250MOL0     H33750  10.029  10.304   0.356 -0.2440  0.3478 -0.3071
  251MOL0     O33751   0.788   0.202   9.219 -0.3545 -0.5433 -0.4135
  251MOL0     C33752   0.785   0.081   9.244 -0.0133 -0.7380 -0.3887
  251MOL0     O33753   0.671   0.018   9.285 -0.1379  1.4673 -0.2546
  251MOL0     C33754   0.552   0.084   9.306 -0.3190 -0.1432  0.0213
  251MOL0     C33755   0.495   0.163   9.209  0.0091 -0.7797  0.0986
  251MOL0     C33756   0.361   0.210   9.223 -0.1111 -0.0190 -0.4694
  251MOL0     C33757   0.289   0.186   9.340  0.1189 -0.1356  0.6458
  251MOL0     O33758   0.169   0.248   9.348 -0.6411  0.6207 -0.5552
  251MOL0     C33759   0.097   0.241   9.471 -0.3831  0.0055 -0.4487
  251MOL0     C33760  -0.032   0.328   9.478 -0.2964 -0.2421  0.3587
  251MOL0     C33761  -0.076   0.326   9.622  0.4689 -0.1089  0.8513
  251MOL0     C33762  -0.167   0.439   9.662 -0.4034  0.4873  0.7417
  251MOL0     C33763  -0.187   0.453   9.816  0.1241 -0.9304 -1.1989
  251MOL0     C33764  -0.216   0.333   9.908 -0.0598  0.5154 -0.3536
  251MOL0     C33765  -0.257   0.371  10.054  0.3942  0.8904 -0.1283
  251MOL0     C33766  -0.142   0.411  10.135  0.9784 -0.7178 -1.2359
  251MOL0     N33767  -0.188   0.429  10.273  0.5224  0.2619 -0.1560
  251MOL0     C33768  -0.167   0.331  10.365 -0.5115 -0.1881 -0.3785
  251MOL0     C33769  -0.206   0.374  10.485 -0.5430  0.0030 -0.1713
  251MOL0     C33770  -0.208   0.310  10.621 -0.9391  0.0015  0.3285
  251MOL0     C33771  -0.327   0.209  10.639  0.0909 -0.6780 -0.0923
  251MOL0     C33772  -0.463   0.276  10.652  0.4206 -0.4724 -0.7497
  251MOL0     C33773  -0.585   0.182  10.639 -0.2886  0.0646  0.2747
  251MOL0     O33774  -0.590   0.085  10.738  0.2258  0.1515  0.4306
  251MOL0     C33775  -0.678  -0.025  10.737 -1.0531 -0.6896  0.3721
  251MOL0     C33776  -0.653  -0.127  10.825 -0.1981  0.3791  0.4266
  251MOL0     C33777  -0.741  -0.236  10.835 -0.0812 -0.1509  0.3424
  251MOL0     C33778  -0.694  -0.344  10.926 -0.6216  0.6113 -0.1379
  251MOL0     C33779  -0.859  -0.242  10.757  0.5578  0.4841 -0.3031
  251MOL0     C33780  -0.961  -0.348  10.772 -1.0252 -0.6587 -0.2741
  251MOL0     O33781  -1.032  -0.377  10.664  0.1205 -0.2860 -0.0715
  251MOL0     C33782  -1.145  -0.459  10.671  0.4699 -0.5914 -0.1739
  251MOL0     C33783  -1.256  -0.429  10.752  0.0131 -0.9195  0.4026
  251MOL0     C33784  -1.378  -0.495  10.739 -0.6787  0.3459  0.2415
  251MOL0     C33785  -1.406  -0.598  10.645 -0.7988  0.1997  1.7198
  251MOL0     O33786  -1.527  -0.664  10.612  0.8339  0.2842 -0.0902
  251MOL0     C33787  -1.634  -0.648  10.708  0.3571  0.8419 -0.3511
  251MOL0     C33788  -1.610  -0.745  10.816 -0.1964  0.5959  0.0030
  251MOL0     C33789  -1.553  -0.882  10.786  0.2014  0.2796  0.0576
  251MOL0     C33790  -1.663  -0.974  10.713  0.0890  0.2519 -0.4599
  251MOL0     C33791  -1.771  -1.018  10.818 -0.1602 -0.2158 -0.5311
  251MOL0     C33792  -1.896  -1.058  10.747 -0.4450  0.5240 -0.6182
  251MOL0     C33793  -1.971  -1.153  10.842 -0.7055  0.3659  1.3071
  251MOL0     C33794  -2.116  -1.150  10.802  0.9315  0.0356  0.8296
  251MOL0    Cl33795  -2.210  -1.012  10.861  0.2368  0.2718 -0.4606
  251MOL0     C33796  -1.289  -0.634  10.568  0.0386 -0.4783 -0.3916
  251MOL0     C33797  -1.159  -0.569  10.583  0.4831  0.3316 -0.8699
  251MOL0     O33798  -0.985  -0.396  10.884 -0.3512  0.7394 -0.1414
  251MOL0     C33799  -0.871  -0.146  10.658  0.6029  0.9274 -0.6931
  251MOL0     C33800  -0.782  -0.039  10.653  0.2221  0.2645 -0.2006
  251MOL0     N33801  -0.240   0.510  10.467 -0.1615  0.0938  0.1175
  251MOL0     N33802  -0.229   0.534  10.341 -0.8072 -0.0474  0.2620
  251MOL0     C33803   0.357   0.129   9.446  0.3873 -0.2120 -0.2238
  251MOL0     C33804   0.478   0.062   9.423 -0.5617 -1.2236  0.2221
  251MOL0     C33805   0.906  -0.001   9.197 -0.5410 -0.0678  0.7117
  251MOL0     C33806   1.038   0.052   9.193  0.1121  0.4344 -0.6957
  251MOL0     C33807   1.144  -0.032   9.160  0.0557 -0.0310 -0.6314
  251MOL0     C33808   1.129  -0.171   9.139  0.0921 -0.0586  0.2988
  251MOL0     O33809   1.230  -0.261   9.108  0.1305 -0.0144 -0.4791
  251MOL0     C33810   1.357  -0.222   9.071 -0.3620 -0.5579 -0.3728
  251MOL0     C33811   1.400  -0.305   8.951  1.3730 -0.2064 -0.4871
  251MOL0     C33812   1.539  -0.279   8.888  0.1762  0.6770 -0.2841
  251MOL0     C33813   1.562  -0.128   8.843 -1.1489  0.5470  0.1427
  251MOL0     C33814   1.688  -0.107   8.765 -0.6080  0.5547  0.4981
  251MOL0     C33815   1.786  -0.099   8.687  0.5268  0.2435 -0.8633
  251MOL0     C33816   0.997  -0.220   9.145 -0.3560 -0.1425 -0.5678
  251MOL0     C33817   0.891  -0.135   9.166  0.3978  0.1597  1.1201
  251MOL0     H33818   0.547   0.178   9.115 -1.9968  2.1551 -0.6893
  251MOL0     H33819   0.304   0.278   9.161 -0.6845 -1.3731 -1.4750
  251MOL0     H33820   0.080   0.134   9.487  1.0458 -0.3396 -1.1502
  251MOL0     H33821   0.172   0.264   9.547  0.0007 -0.9565 -0.5194
  251MOL0     H33822  -0.009   0.432   9.450  0.7418 -0.3506  0.7654
  251MOL0     H33823  -0.109   0.290   9.410  1.0498  2.1548 -2.7627
  251MOL0     H33824  -0.132   0.236   9.649 -0.2821 -0.4840 -1.6583
  251MOL0     H33825   0.013   0.338   9.685  0.5842 -0.6846  0.8089
  251MOL0     H33826  -0.124   0.529   9.618  1.8363 -1.4351 -1.3223
  251MOL0     H33827  -0.259   0.423   9.605  2.0829  0.9574 -3.8179
  251MOL0     H33828  -0.086   0.485   9.843  0.9591 -2.3829 -2.4572
  251MOL0     H33829  -0.254   0.533   9.848  1.3805 -1.4441  3.5833
  251MOL0     H33830  -0.300   0.287   9.856  0.0870  1.3313 -1.3429
  251MOL0     H33831  -0.129   0.267   9.905 -2.0820 -2.4655  1.2377
  251MOL0     H33832  -0.329   0.453  10.064  1.0158  1.5188 -0.7669
  251MOL0     H33833  -0.305   0.285  10.103 -0.5448  1.2223 -0.4371
  251MOL0     H33834  -0.111   0.510  10.099 -2.1525  2.3871  3.3941
  251MOL0     H33835  -0.068   0.331  10.143  1.7984 -0.0838 -2.3518
  251MOL0     H33836  -0.137   0.228  10.345 -1.6582 -0.3516 -1.3991
  251MOL0     H33837  -0.115   0.255  10.640 -1.9518 -2.2324 -0.8208
  251MOL0     H33838  -0.213   0.381  10.704  0.7355  0.7059 -0.1416
  251MOL0     H33839  -0.326   0.150  10.732 -5.2119  3.7823  3.4684
  251MOL0     H33840  -0.319   0.137  10.558  4.5903 -2.0163  1.2181
  251MOL0     H33841  -0.471   0.347  10.569  1.7072  1.7699  0.9246
  251MOL0     H33842  -0.471   0.337  10.742 -4.1893  1.2397 -2.0361
  251MOL0     H33843  -0.589   0.138  10.539 -0.7932  1.8269 -0.5137
  251MOL0     H33844  -0.681   0.233  10.643 -0.9030 -0.2293 -4.8566
  251MOL0     H33845  -0.568  -0.109  10.890 -0.1396 -0.5569  0.6366
  251MOL0     H33846  -0.742  -0.441  10.908  1.4735 -0.8329  1.5998
  251MOL0     H33847  -0.587  -0.352  10.907  0.1373  2.2361  2.8598
  251MOL0     H33848  -0.717  -0.321  11.030 -2.1319 -1.8339  0.1492
  251MOL0     H33849  -1.253  -0.349  10.825 -0.6871  0.1086 -0.6656
  251MOL0     H33850  -1.451  -0.454  10.808  1.0025 -1.2421  3.1592
  251MOL0     H33851  -1.648  -0.546  10.746 -4.5036  0.3572 -0.1780
  251MOL0     H33852  -1.727  -0.668  10.654  0.3982  0.0243 -0.1332
  251MOL0     H33853  -1.537  -0.702  10.885 -0.7682  0.2828  0.8156
  251MOL0     H33854  -1.702  -0.764  10.871 -0.4477  1.9937  0.0997
  251MOL0     H33855  -1.526  -0.931  10.880  0.8145 -0.0384 -0.2806
  251MOL0     H33856  -1.456  -0.877  10.736  0.0024  4.3926 -0.2114
  251MOL0     H33857  -1.708  -0.920  10.630 -1.8440  1.7874  1.4797
  251MOL0     H33858  -1.618  -1.065  10.673 -1.9385 -1.5541  1.1193
  251MOL0     H33859  -1.802  -0.949  10.897 -0.4082  0.5344 -1.2611
  251MOL0     H33860  -1.721  -1.101  10.868 -0.6279 -0.4729 -0.4749
  251MOL0     H33861  -1.952  -0.966  10.727 -1.4350 -0.3502 -2.0877
  251MOL0     H33862  -1.882  -1.101  10.647 -0.6380  0.5507 -0.6574
  251MOL0     H33863  -1.972  -1.122  10.947 -2.0884  4.2472  0.3292
  251MOL0     H33864  -1.953  -1.260  10.825  0.0192  0.4541  1.4787
  251MOL0     H33865  -2.178  -1.234  10.836  0.7650 -1.0856 -1.9398
  251MOL0     H33866  -2.122  -1.150  10.692 -0.4784  0.8869  0.8868
  251MOL0     H33867  -1.297  -0.708  10.489 -1.1742  1.2596 -1.9758
  251MOL0     H33868  -1.076  -0.602  10.521  0.6147 -0.8372 -0.0996
  251MOL0     H33869  -0.956  -0.146  10.590  0.3658 -1.0134 -0.4363
  251MOL0     H33870  -0.805   0.051  10.598  1.2924  1.2269  0.8534
  251MOL0     H33871   0.319   0.112   9.546  4.0245  0.6607  1.4644
  251MOL0     H33872   0.516  -0.006   9.499  0.7901 -0.4792  0.2315
  251MOL0     H33873   1.051   0.152   9.234 -2.7745 -0.3637  2.5748
  251MOL0     H33874   1.238   0.021   9.155 -0.1771  0.3573 -1.0496
  251MOL0     H33875   1.359  -0.116   9.043 -0.4851 -0.3474  0.3674
  251MOL0     H33876   1.428  -0.241   9.152 -0.2154  0.8098 -0.1503
  251MOL0     H33877   1.335  -0.279   8.866 -0.1441 -0.8382  0.4380
  251MOL0     H33878   1.385  -0.410   8.976 -0.4531 -0.7057 -3.1827
  251MOL0     H33879   1.535  -0.343   8.800 -0.4742  2.8395 -1.9090
  251MOL0     H33880   1.613  -0.312   8.962 -0.7958  2.2320  1.4733
  251MOL0     H33881   1.562  -0.064   8.932  0.5549 -0.7399  1.1372
  251MOL0     H33882   1.474  -0.093   8.789  0.7093  5.0240 -0.4300
  251MOL0     H33883   1.882  -0.090   8.640  2.7514 -1.8936  2.8161
  251MOL0     H33884   0.986  -0.327   9.136  2.6226 -0.7328  1.2515
  251MOL0     H33885   0.797  -0.187   9.154  0.7452 -0.2474  0.0628
  252MOL0     O33886   2.812   8.984   4.972 -0.0119 -0.1174  0.5864
  252MOL0     C33887   2.851   9.033   4.861  0.3374 -0.0135 -0.0821
  252MOL0     O33888   2.768   9.048   4.748  0.1245  0.7698  0.4041
  252MOL0     C33889   2.635   9.026   4.762  0.8684  0.4727 -0.0874
  252MOL0     C33890   2.544   9.109   4.826 -0.1485 -0.8573  0.3850
  252MOL0     C33891   2.407   9.085   4.832 -0.2922 -0.0186  0.5838
  252MOL0     C33892   2.363   8.971   4.753  0.6690 -0.2370  0.7381
  252MOL0     O33893   2.228   8.938   4.748 -0.3571 -0.1012 -0.2856
  252MOL0     C33894   2.159   8.919   4.870 -0.3334  1.1420 -0.3193
  252MOL0     C33895   2.031   8.851   4.832  0.3574  0.3604 -0.1009
  252MOL0     C33896   2.054   8.699   4.789  0.0139 -0.5220  0.3650
  252MOL0     C33897   1.953   8.664   4.684  0.4208 -0.3324  0.4589
  252MOL0     C33898   1.808   8.654   4.747 -0.0459  0.3689  0.4168
  252MOL0     C33899   1.707   8.593   4.647 -0.1459  0.1982  0.8024
  252MOL0     C33900   1.574   8.551   4.716 -0.1217  0.7554  0.3985
  252MOL0     C33901   1.469   8.505   4.618  0.4516 -0.2525 -0.2934
  252MOL0     N33902   1.344   8.465   4.667  0.3603  0.4849 -0.3673
  252MOL0     C33903   1.245   8.551   4.708 -0.2509 -0.5189  0.2506
  252MOL0     C33904   1.135   8.473   4.737 -0.3201 -0.8226  0.1033
  252MOL0     C33905   0.999   8.522   4.783  0.0425 -0.3459 -0.8442
  252MOL0     C33906   0.943   8.647   4.722  0.1647 -1.0768 -0.1579
  252MOL0     C33907   0.890   8.633   4.578  0.1512 -0.7917  0.1132
  252MOL0     C33908   0.996   8.637   4.468 -0.1926 -0.1074 -1.3643
  252MOL0     O33909   1.078   8.759   4.475 -0.3214  0.3111  0.1692
  252MOL0     C33910   1.201   8.747   4.416  0.5885  1.2214  0.3436
  252MOL0     C33911   1.237   8.641   4.324 -0.7394 -0.1640 -0.1928
  252MOL0     C33912   1.359   8.626   4.274  0.2549 -0.6921 -0.1554
  252MOL0     C33913   1.385   8.515   4.176 -0.0915 -0.0528 -0.3773
  252MOL0     C33914   1.448   8.725   4.307 -0.7130  0.2045 -0.7890
  252MOL0     C33915   1.586   8.744   4.251 -0.2899 -0.0727  0.0061
  252MOL0     O33916   1.675   8.796   4.332 -0.1041  0.0283  0.0491
  252MOL0     C33917   1.809   8.822   4.321  0.1530 -0.9404 -0.4958
  252MOL0     C33918   1.900   8.767   4.227  0.4536  0.0231 -0.5465
  252MOL0     C33919   2.033   8.806   4.230  0.3360 -1.1542 -0.0545
  252MOL0     C33920   2.080   8.904   4.319  0.1353  0.5093 -0.2570
  252MOL0     O33921   2.222   8.928   4.321  0.4622  0.3798  0.0961
  252MOL0     C33922   2.274   9.057   4.354 -1.5622 -0.7945 -0.8644
  252MOL0     C33923   2.427   9.048   4.336 -0.0202 -0.1501 -1.5026
  252MOL0     C33924   2.492   9.190   4.356  0.2697 -1.5374 -0.8384
  252MOL0     C33925   2.648   9.185   4.360 -0.4035 -0.4027 -0.0585
  252MOL0     C33926   2.715   9.319   4.401  0.6046  0.6656  0.3211
  252MOL0     C33927   2.866   9.300   4.381  0.1023  0.8401 -0.9243
  252MOL0     C33928   2.930   9.435   4.411  0.1454  0.2392 -0.1417
  252MOL0     C33929   3.053   9.465   4.318  0.6724  0.4256  0.7599
  252MOL0    Cl33930   3.180   9.332   4.341  0.0496  0.0972 -0.3589
  252MOL0     C33931   1.993   8.953   4.415  0.2299 -0.6381 -0.1780
  252MOL0     C33932   1.857   8.921   4.412 -0.3790 -0.3646 -0.0644
  252MOL0     O33933   1.614   8.699   4.140  0.4286  0.3311  0.0107
  252MOL0     C33934   1.424   8.818   4.407 -0.1880 -0.0313  0.5312
  252MOL0     C33935   1.303   8.825   4.465  0.3833 -1.0138  0.3226
  252MOL0     N33936   1.167   8.341   4.706 -0.4039 -0.2059 -0.1700
  252MOL0     N33937   1.288   8.340   4.668  0.7854  0.3726 -0.7657
  252MOL0     C33938   2.445   8.893   4.677  0.9285  0.3763 -0.8977
  252MOL0     C33939   2.587   8.916   4.691 -0.2472  0.2826  0.0403
  252MOL0     C33940   2.988   9.070   4.859  0.7914 -0.0077  0.2588
  252MOL0     C33941   3.081   9.050   4.965 -0.3131  0.6395  0.4101
  252MOL0     C33942   3.219   9.079   4.944 -0.4377  0.7647  0.6748
  252MOL0     C33943   3.273   9.124   4.824  1.2461 -0.9321  0.0476
  252MOL0     O33944   3.413   9.132   4.819  0.1546  0.4880 -0.7254
  252MOL0     C33945   3.485   9.169   4.703 -0.0684  0.2388  0.5377
  252MOL0     C33946   3.455   9.318   4.675 -0.6425  0.2156  1.0785
  252MOL0     C33947   3.554   9.375   4.567  0.0997 -0.1415 -0.2524
  252MOL0     C33948   3.702   9.353   4.600  0.4173  0.3150 -0.0708
  252MOL0     C33949   3.776   9.461   4.534 -0.7644  0.0532  0.0700
  252MOL0     C33950   3.829   9.541   4.449  0.2867 -0.2424 -0.3076
  252MOL0     C33951   3.176   9.156   4.722  0.0119 -0.5448 -0.5822
  252MOL0     C33952   3.038   9.129   4.746  0.0160 -0.4444  0.4671
  252MOL0     H33953   2.575   9.208   4.860 -3.1001  0.3306 -0.0983
  252MOL0     H33954   2.339   9.155   4.878  0.6881  1.3105  0.0619
  252MOL0     H33955   2.221   8.853   4.931  1.2379  2.3786 -0.5123
  252MOL0     H33956   2.151   9.014   4.925  0.2119  0.0911  1.6516
  252MOL0     H33957   1.962   8.837   4.916 -0.4184 -2.5870 -1.1110
  252MOL0     H33958   1.987   8.909   4.750  1.0580  3.1283  1.3605
  252MOL0     H33959   2.153   8.682   4.746  0.5447  2.4734  0.1720
  252MOL0     H33960   2.048   8.625   4.869 -0.9603 -1.0972 -0.2161
  252MOL0     H33961   1.932   8.736   4.604 -1.3584 -0.3946  0.8270
  252MOL0     H33962   1.995   8.576   4.635 -0.8660 -0.7572  0.0842
  252MOL0     H33963   1.819   8.590   4.835  0.6368 -0.9768 -0.6076
  252MOL0     H33964   1.781   8.756   4.777  2.2613  0.9443  0.7388
  252MOL0     H33965   1.677   8.655   4.562 -0.7756  0.6945  1.3668
  252MOL0     H33966   1.756   8.505   4.606 -0.0490 -0.1626  1.6660
  252MOL0     H33967   1.601   8.482   4.796  0.9346 -2.0954 -2.2417
  252MOL0     H33968   1.523   8.633   4.768 -3.6209 -0.4188 -0.9132
  252MOL0     H33969   1.512   8.421   4.563  0.2298  0.2048 -1.1948
  252MOL0     H33970   1.442   8.583   4.546  1.9701 -0.0317 -0.6492
  252MOL0     H33971   1.252   8.659   4.711  2.0093 -0.6456  1.3848
  252MOL0     H33972   0.919   8.448   4.786  0.4384 -0.8494 -2.1301
  252MOL0     H33973   1.014   8.540   4.890  1.2053 -0.7342 -0.9245
  252MOL0     H33974   1.021   8.724   4.728 -2.2718  1.5639 -0.0844
  252MOL0     H33975   0.857   8.668   4.786  0.1756  2.2523 -1.0554
  252MOL0     H33976   0.837   8.725   4.552  1.3290  0.4523  1.9021
  252MOL0     H33977   0.822   8.547   4.575  1.0402 -1.5238 -3.4978
  252MOL0     H33978   0.950   8.630   4.369 -0.3413  0.1029 -1.3099
  252MOL0     H33979   1.068   8.558   4.490  1.1496  1.5048  0.3928
  252MOL0     H33980   1.163   8.570   4.288  0.8916 -1.7669 -0.5482
  252MOL0     H33981   1.311   8.434   4.174  1.6989 -1.7759 -1.5359
  252MOL0     H33982   1.399   8.553   4.074 -1.4111  1.4498 -0.0361
  252MOL0     H33983   1.476   8.468   4.215 -0.3930  0.8528  1.5141
  252MOL0     H33984   1.866   8.692   4.156  0.1974  0.4348 -0.8619
  252MOL0     H33985   2.102   8.762   4.158  1.5479  0.5639 -0.0012
  252MOL0     H33986   2.231   9.142   4.300 -1.8495 -1.6983 -2.0840
  252MOL0     H33987   2.263   9.072   4.462 -0.6261  0.6158 -0.9385
  252MOL0     H33988   2.469   8.976   4.406  0.1486  0.5652 -0.8471
  252MOL0     H33989   2.446   9.011   4.235 -1.9566 -3.9358 -0.6565
  252MOL0     H33990   2.463   9.226   4.456  1.1528 -3.3051  0.0921
  252MOL0     H33991   2.452   9.262   4.284 -1.6363  0.2958  1.8499
  252MOL0     H33992   2.692   9.104   4.419 -0.8919 -1.4455 -1.0842
  252MOL0     H33993   2.684   9.171   4.257  2.3598 -0.8778  0.8696
  252MOL0     H33994   2.691   9.348   4.504 -1.1313 -0.0848  0.1654
  252MOL0     H33995   2.679   9.402   4.338 -0.9158  1.3785  2.0408
  252MOL0     H33996   2.897   9.222   4.451 -3.2759  0.4761  0.3182
  252MOL0     H33997   2.898   9.267   4.282  2.6183 -2.5166  0.8040
  252MOL0     H33998   2.978   9.422   4.509  1.4245  0.9142 -0.6571
  252MOL0     H33999   2.858   9.517   4.408  3.1681  3.1013 -1.2497
  252MOL0     H34000   3.103   9.560   4.339  4.7757 -1.0099 -1.4480
  252MOL0     H34001   3.020   9.458   4.214 -1.4434 -1.8855  1.4846
  252MOL0     H34002   2.021   9.030   4.487  0.6255 -0.0995 -0.8981
  252MOL0     H34003   1.787   8.973   4.477  0.3588 -1.4465  1.6724
  252MOL0     H34004   1.501   8.887   4.437  1.6455 -2.6297  2.2673
  252MOL0     H34005   1.277   8.885   4.552 -2.9146 -2.1198  0.2498
  252MOL0     H34006   2.406   8.809   4.621 -0.9283  2.4625 -2.9834
  252MOL0     H34007   2.655   8.855   4.632 -2.0283 -1.6940 -0.0961
  252MOL0     H34008   3.050   9.014   5.062  1.8060  2.7587  1.9878
  252MOL0     H34009   3.289   9.055   5.023  2.7227  0.7432 -1.9423
  252MOL0     H34010   3.592   9.148   4.711  0.4297  2.0088 -0.8622
  252MOL0     H34011   3.451   9.098   4.628 -2.3325  1.1825  0.6007
  252MOL0     H34012   3.459   9.376   4.768 -4.2531 -1.1044  2.2229
  252MOL0     H34013   3.356   9.327   4.630 -0.9128  0.3626  1.6947
  252MOL0     H34014   3.531   9.482   4.559 -0.6874 -0.1853  1.1727
  252MOL0     H34015   3.537   9.329   4.469  0.4179 -0.9018  0.0463
  252MOL0     H34016   3.722   9.249   4.572  0.2799 -0.1075  1.3416
  252MOL0     H34017   3.723   9.375   4.706 -2.9891  0.9298  0.5809
  252MOL0     H34018   3.891   9.606   4.392  1.9345  0.2723  1.9160
  252MOL0     H34019   3.189   9.200   4.623 -0.9836  2.1463  0.3869
  252MOL0     H34020   2.962   9.153   4.673  1.2379 -0.2685 -0.8028
  253MOL0     O34021  11.167   2.653   7.909  0.4087 -0.4198 -0.3232
  253MOL0     C34022  11.162   2.534   7.885  0.3928  0.2917 -0.0080
  253MOL0     O34023  11.274   2.454   7.890 -0.0136 -1.1048  0.7660
  253MOL0     C34024  11.400   2.504   7.914 -0.4060  0.6290  0.7137
  253MOL0     C34025  11.487   2.430   8.010  0.8172 -0.9794 -0.8781
  253MOL0     C34026  11.613   2.487   8.042  0.2288  0.4198  1.1954
  253MOL0     C34027  11.661   2.611   7.988  0.0767 -0.1627 -0.4510
  253MOL0     O34028  11.772   2.669   8.040 -0.2523 -0.4252 -0.0143
  253MOL0     C34029  11.889   2.596   8.037  0.1818  0.5009  0.0299
  253MOL0     C34030  12.010   2.679   8.085  0.5152 -0.1395 -0.1551
  253MOL0     C34031  12.140   2.596   8.113 -0.0664  0.1717 -0.6656
  253MOL0     C34032  12.260   2.692   8.107  0.3483 -0.9459 -0.1221
  253MOL0     C34033  12.264   2.795   8.211 -0.2800 -0.6353  0.7962
  253MOL0     C34034  12.402   2.856   8.243 -0.0415  0.5871 -0.0261
  253MOL0     C34035  12.394   2.939   8.365 -0.2140 -0.9385 -0.0815
  253MOL0     C34036  12.300   3.062   8.343 -0.0992  0.0924 -0.0030
  253MOL0     N34037  12.332   3.175   8.438  0.3887 -0.1802  0.2103
  253MOL0     C34038  12.268   3.212   8.546  0.1167  0.9387 -0.7878
  253MOL0     C34039  12.313   3.335   8.569  0.1359  0.0000  0.1154
  253MOL0     C34040  12.276   3.426   8.679 -0.5182 -0.0743  0.0746
  253MOL0     C34041  12.136   3.472   8.683  0.7354  0.5092  0.3855
  253MOL0     C34042  12.101   3.551   8.809  0.1971  1.0769  0.0034
  253MOL0     C34043  11.952   3.582   8.804 -0.8908 -0.7387  0.3907
  253MOL0     O34044  11.908   3.646   8.921 -0.0356  0.2820 -0.4101
  253MOL0     C34045  11.779   3.689   8.907  0.6335  0.7233 -0.2337
  253MOL0     C34046  11.714   3.745   8.795  0.1364  0.0363  0.2484
  253MOL0     C34047  11.581   3.794   8.812  0.0749  0.1488  0.3248
  253MOL0     C34048  11.532   3.843   8.674 -0.2716 -0.1169  0.7004
  253MOL0     C34049  11.521   3.815   8.941  0.3780  0.7971 -0.9975
  253MOL0     C34050  11.388   3.875   8.965  0.5595 -0.3660 -0.0523
  253MOL0     O34051  11.343   3.898   9.099  0.0162 -0.8791 -0.3376
  253MOL0     C34052  11.246   3.992   9.126  0.4423 -0.3201 -0.0386
  253MOL0     C34053  11.168   3.969   9.241 -0.2595 -0.1529 -0.6236
  253MOL0     C34054  11.062   4.048   9.282 -0.1271  0.4130 -0.5779
  253MOL0     C34055  11.032   4.160   9.201 -0.5885 -0.4261  0.3665
  253MOL0     O34056  10.928   4.248   9.235 -0.8396  0.3925  0.5419
  253MOL0     C34057  10.849   4.253   9.351 -0.2526  0.8139 -0.7282
  253MOL0     C34058  10.789   4.394   9.354  0.9132 -0.0296 -0.3849
  253MOL0     C34059  10.700   4.428   9.474 -0.7304 -0.9072 -0.1535
  253MOL0     C34060  10.588   4.527   9.431 -0.0812 -0.8859  0.3014
  253MOL0     C34061  10.638   4.651   9.385 -0.4468 -0.0275 -0.1585
  253MOL0     C34062  10.530   4.751   9.343 -0.0161  0.2674  0.6973
  253MOL0     C34063  10.437   4.776   9.459 -0.4750  0.0347 -0.5453
  253MOL0     C34064  10.347   4.896   9.436 -0.3174 -1.0734  0.2854
  253MOL0    Cl34065  10.432   5.049   9.494 -0.1487  0.0167  0.3540
  253MOL0     C34066  11.107   4.183   9.084 -0.6254  0.8985  0.5705
  253MOL0     C34067  11.216   4.097   9.045  0.5741 -1.0558  0.2686
  253MOL0     O34068  11.306   3.884   8.872 -0.8801  0.5093  0.8162
  253MOL0     C34069  11.588   3.753   9.051 -0.5272  0.3723 -0.5793
  253MOL0     C34070  11.718   3.692   9.028  0.2193 -0.0676 -0.5460
  253MOL0     N34071  12.406   3.369   8.479  0.5357 -0.2248 -0.4411
  253MOL0     N34072  12.408   3.275   8.390 -0.0711  0.0948  0.2200
  253MOL0     C34073  11.577   2.678   7.906 -1.5548 -0.4924 -0.0764
  253MOL0     C34074  11.451   2.624   7.864 -0.4926 -0.0454 -0.0420
  253MOL0     C34075  11.037   2.465   7.861 -0.0307  0.7514 -0.2487
  253MOL0     C34076  10.932   2.531   7.804 -0.3731  0.7946  0.7672
  253MOL0     C34077  10.818   2.458   7.778  0.5855 -0.0884 -0.0064
  253MOL0     C34078  10.800   2.327   7.822 -0.1738 -0.0964  0.3069
  253MOL0     O34079  10.683   2.272   7.795 -0.5022 -0.5638  0.0218
  253MOL0     C34080  10.668   2.130   7.807 -1.3124  0.0789 -0.3560
  253MOL0     C34081  10.521   2.101   7.792 -0.3025  0.3597  0.3180
  253MOL0     C34082  10.432   2.166   7.900  0.1630 -0.1451 -0.4040
  253MOL0     C34083  10.287   2.123   7.885  0.1203 -0.2218  0.2771
  253MOL0     C34084  10.196   2.183   7.983 -0.2765 -0.4114  0.3255
  253MOL0     C34085  10.135   2.222   8.079 -0.0331 -0.4300  0.0337
  253MOL0     C34086  10.899   2.269   7.893  0.3916 -0.2932  0.8921
  253MOL0     C34087  11.024   2.336   7.911  0.1061 -0.6052  1.4076
  253MOL0     H34088  11.448   2.338   8.052 -1.4438  0.9269  1.5839
  253MOL0     H34089  11.676   2.440   8.116  2.5559  1.3712 -0.0864
  253MOL0     H34090  11.887   2.513   8.108  1.3570 -0.6427 -1.1942
  253MOL0     H34091  11.915   2.550   7.941  1.1615 -0.6282  0.8077
  253MOL0     H34092  12.045   2.743   8.003 -2.3721  0.1998 -1.2393
  253MOL0     H34093  11.975   2.740   8.168 -0.2238  0.1055 -0.6381
  253MOL0     H34094  12.129   2.550   8.212 -1.5280  1.3619 -0.2418
  253MOL0     H34095  12.154   2.518   8.037  0.0907  0.8551 -1.3525
  253MOL0     H34096  12.345   2.625   8.125  1.9325  1.2302  1.0023
  253MOL0     H34097  12.270   2.725   8.003 -1.4399  2.2978  0.5958
  253MOL0     H34098  12.200   2.881   8.186  0.8353  0.2824  1.0018
  253MOL0     H34099  12.236   2.755   8.308  0.2018  0.6902  1.5171
  253MOL0     H34100  12.469   2.773   8.269 -0.4606  0.2461 -0.0221
  253MOL0     H34101  12.441   2.910   8.156  1.3423 -0.5761 -0.1615
  253MOL0     H34102  12.350   2.879   8.446  0.9758 -3.7640 -1.3844
  253MOL0     H34103  12.495   2.976   8.383  0.1794 -2.2135  0.4269
  253MOL0     H34104  12.201   3.021   8.365 -0.2852  0.3679 -0.3140
  253MOL0     H34105  12.311   3.105   8.243  2.5921  2.3321  1.1134
  253MOL0     H34106  12.191   3.161   8.602  1.3832  1.0356  1.1592
  253MOL0     H34107  12.288   3.367   8.770 -0.9019  0.4236  0.4541
  253MOL0     H34108  12.336   3.517   8.678 -1.0998  0.3193  0.1991
  253MOL0     H34109  12.073   3.383   8.677  0.0862  0.7544  2.8168
  253MOL0     H34110  12.122   3.537   8.596  0.9775 -2.1167 -1.7682
  253MOL0     H34111  12.153   3.647   8.804  0.7154  0.9547  2.0635
  253MOL0     H34112  12.130   3.488   8.893  3.5890  1.2273 -0.8996
  253MOL0     H34113  11.890   3.502   8.761 -1.5097  0.7434 -1.6248
  253MOL0     H34114  11.948   3.645   8.715 -1.7170 -1.5602 -0.1811
  253MOL0     H34115  11.754   3.728   8.695 -2.3614 -1.6719 -0.5635
  253MOL0     H34116  11.616   3.869   8.609  0.2397 -2.0736  0.5119
  253MOL0     H34117  11.477   3.765   8.621 -0.0595  0.3442 -0.2165
  253MOL0     H34118  11.472   3.931   8.698  0.6791  0.3709  1.3568
  253MOL0     H34119  11.192   3.884   9.305 -3.4879 -0.1766  0.7291
  253MOL0     H34120  11.004   4.018   9.369  0.1879  0.8180 -0.2285
  253MOL0     H34121  10.778   4.170   9.348  1.9298 -1.1868 -0.5222
  253MOL0     H34122  10.910   4.241   9.441 -1.3442  0.7174  0.0238
  253MOL0     H34123  10.867   4.470   9.357  3.6330 -2.5685  3.5082
  253MOL0     H34124  10.736   4.407   9.259  0.0394  4.6343  0.4859
  253MOL0     H34125  10.760   4.468   9.555 -1.6305  2.1764 -0.8979
  253MOL0     H34126  10.647   4.336   9.501 -2.0316 -0.1324  0.0121
  253MOL0     H34127  10.541   4.481   9.344 -2.7926 -1.2888  1.8628
  253MOL0     H34128  10.510   4.537   9.507  0.3099 -2.3641  0.9408
  253MOL0     H34129  10.708   4.626   9.304  2.4313  0.1463  2.0918
  253MOL0     H34130  10.699   4.692   9.466  0.1334 -1.6021  0.2341
  253MOL0     H34131  10.566   4.839   9.290 -1.7954  0.1667 -0.7687
  253MOL0     H34132  10.472   4.698   9.266 -0.2594 -1.9011  2.2687
  253MOL0     H34133  10.503   4.786   9.546 -1.2765 -2.7921  0.5294
  253MOL0     H34134  10.371   4.695   9.495 -2.5069  2.2935  1.1888
  253MOL0     H34135  10.253   4.890   9.491 -2.0515  1.9681 -2.0805
  253MOL0     H34136  10.321   4.904   9.330 -0.6446  0.0380  0.4338
  253MOL0     H34137  11.091   4.270   9.021 -2.4063  1.3142  1.5531
  253MOL0     H34138  11.279   4.120   8.959 -0.5296 -0.5515 -0.4376
  253MOL0     H34139  11.539   3.763   9.147 -1.1296  2.9140 -1.0631
  253MOL0     H34140  11.771   3.666   9.119  1.0669  1.3459 -0.6081
  253MOL0     H34141  11.605   2.776   7.867 -0.8496 -0.8773 -0.5546
  253MOL0     H34142  11.386   2.671   7.791 -1.6709 -3.7107 -1.5765
  253MOL0     H34143  10.936   2.632   7.765 -0.8525  0.1964 -0.9230
  253MOL0     H34144  10.752   2.511   7.711  2.8197  0.5907 -1.8039
  253MOL0     H34145  10.731   2.073   7.738 -2.3383  1.0768 -2.2028
  253MOL0     H34146  10.698   2.090   7.905  0.3587 -0.1993 -0.9434
  253MOL0     H34147  10.504   1.994   7.810  0.0647  0.4856  1.5168
  253MOL0     H34148  10.494   2.123   7.688 -0.3674 -0.1692  0.2213
  253MOL0     H34149  10.428   2.273   7.877 -1.0891 -0.3894 -1.4208
  253MOL0     H34150  10.465   2.163   8.004 -3.4766  2.8350  1.0733
  253MOL0     H34151  10.289   2.016   7.907  0.3360 -0.7795 -2.1593
  253MOL0     H34152  10.264   2.150   7.781  1.3237 -3.5855 -0.9795
  253MOL0     H34153  10.081   2.267   8.160 -0.3773 -3.5645  1.6854
  253MOL0     H34154  10.891   2.165   7.922 -0.2691  0.0485  1.9858
  253MOL0     H34155  11.106   2.280   7.955  2.2385  1.7455  0.6830
  254MOL0     O34156   2.230   4.545   8.639 -0.9639 -0.3081 -0.0045
  254MOL0     C34157   2.181   4.473   8.550 -0.8523  0.9560 -0.0765
  254MOL0     O34158   2.091   4.511   8.450  0.5397  0.4719  0.0151
  254MOL0     C34159   2.064   4.646   8.443 -0.1529  0.9368  0.3531
  254MOL0     C34160   2.054   4.738   8.544  0.1991 -0.2504  0.1279
  254MOL0     C34161   2.031   4.877   8.533  1.0975  0.0275  1.1146
  254MOL0     C34162   2.021   4.918   8.401 -0.8154 -0.2172 -0.1016
  254MOL0     O34163   2.017   5.051   8.380  0.6796 -0.2903  0.3684
  254MOL0     C34164   2.046   5.154   8.481  0.8175 -0.2512  0.0631
  254MOL0     C34165   2.187   5.144   8.534 -0.2976 -0.5434 -0.3196
  254MOL0     C34166   2.294   5.202   8.434 -0.0620  0.0026 -0.2857
  254MOL0     C34167   2.440   5.191   8.485 -0.1599  0.3697 -0.2584
  254MOL0     C34168   2.531   5.273   8.398 -1.1531 -0.7301 -0.2923
  254MOL0     C34169   2.677   5.294   8.448 -0.4634  0.4216 -0.2981
  254MOL0     C34170   2.768   5.191   8.376 -0.0751 -0.3592  0.7342
  254MOL0     C34171   2.912   5.194   8.425 -0.2684  0.2067  0.2974
  254MOL0     N34172   2.926   5.115   8.544  0.0463 -0.1557  0.4253
  254MOL0     C34173   2.967   5.182   8.658 -0.5630 -0.6572 -0.0770
  254MOL0     C34174   2.995   5.078   8.746 -0.2186  0.3083 -0.4182
  254MOL0     C34175   3.056   5.087   8.881 -0.1491  1.1546  0.3453
  254MOL0     C34176   2.964   5.032   8.985  0.3647  0.3325  0.3252
  254MOL0     C34177   2.972   5.130   9.106 -0.5018  0.3132  0.9026
  254MOL0     C34178   2.886   5.096   9.224 -0.0215 -0.0071 -0.4553
  254MOL0     O34179   2.743   5.099   9.198 -0.2008 -0.6145  0.5134
  254MOL0     C34180   2.652   5.089   9.306  0.7825 -0.0511  0.0747
  254MOL0     C34181   2.513   5.060   9.285  0.1587 -0.2086 -0.3225
  254MOL0     C34182   2.413   5.064   9.386  0.3692  0.8946  0.6347
  254MOL0     C34183   2.273   5.051   9.331 -0.0396  0.1069 -0.1233
  254MOL0     C34184   2.448   5.108   9.510 -0.7016 -0.4000 -0.3670
  254MOL0     C34185   2.348   5.138   9.625  0.1257  0.2757 -0.0424
  254MOL0     O34186   2.404   5.168   9.748  0.0103 -0.3684  0.0832
  254MOL0     C34187   2.345   5.232   9.851 -0.5674 -0.0032 -0.2428
  254MOL0     C34188   2.214   5.263   9.863 -0.0936 -0.2274 -0.2846
  254MOL0     C34189   2.173   5.336   9.980  0.1087  0.3292 -0.4158
  254MOL0     C34190   2.248   5.378  10.083 -0.2292 -0.2202 -0.3123
  254MOL0     O34191   2.211   5.446  10.199  0.5101 -0.0178 -0.3030
  254MOL0     C34192   2.267   5.577  10.221 -0.0006  0.3329 -0.0557
  254MOL0     C34193   2.171   5.639  10.323  0.1527  0.3507 -0.1447
  254MOL0     C34194   2.031   5.645  10.260  0.2998 -0.1188 -0.7137
  254MOL0     C34195   1.952   5.755  10.327  0.3716  0.5932  0.0811
  254MOL0     C34196   1.804   5.755  10.281  0.2716  0.0092  0.0280
  254MOL0     C34197   1.735   5.881  10.326 -0.5223 -0.0765 -0.0170
  254MOL0     C34198   1.587   5.893  10.282 -0.1192  0.4192  0.2861
  254MOL0     C34199   1.501   5.916  10.403 -0.1804 -0.1350 -0.0036
  254MOL0    Cl34200   1.544   6.059  10.500 -0.6364  0.0050 -0.1246
  254MOL0     C34201   2.385   5.339  10.063  0.3347  0.6573  0.6424
  254MOL0     C34202   2.428   5.268   9.948  0.7257 -0.1698  0.0232
  254MOL0     O34203   2.228   5.146   9.600 -0.5173  0.1519  0.1909
  254MOL0     C34204   2.586   5.119   9.538 -0.5017 -0.6353  0.5458
  254MOL0     C34205   2.682   5.116   9.439 -0.7712  0.6754 -0.2279
  254MOL0     N34206   2.967   4.960   8.677  0.0068  0.6262 -0.0421
  254MOL0     N34207   2.930   4.987   8.560 -0.2637  0.3344  0.6754
  254MOL0     C34208   2.035   4.837   8.288 -0.0736  0.4088  0.0881
  254MOL0     C34209   2.052   4.699   8.314 -0.6478 -1.2253 -0.5082
  254MOL0     C34210   2.197   4.329   8.552  0.4399 -0.4067  0.9345
  254MOL0     C34211   2.118   4.247   8.477  0.9204 -0.8227 -0.2987
  254MOL0     C34212   2.138   4.103   8.467  0.1032 -0.0981  0.2723
  254MOL0     C34213   2.243   4.044   8.542  0.1059  0.2597 -0.2316
  254MOL0     O34214   2.277   3.906   8.549  0.6739  0.1060 -0.2445
  254MOL0     C34215   2.269   3.836   8.421  0.6824  0.5872  0.5908
  254MOL0     C34216   2.257   3.683   8.459 -0.0011 -0.7555  0.7148
  254MOL0     C34217   2.299   3.583   8.352 -0.6217  0.4390  0.3282
  254MOL0     C34218   2.224   3.603   8.208 -0.8116  0.7255 -0.8006
  254MOL0     C34219   2.103   3.532   8.218  0.0280  0.6653 -0.6291
  254MOL0     C34220   2.013   3.460   8.238  1.1866 -0.2073  0.0164
  254MOL0     C34221   2.333   4.133   8.613  0.3043 -0.1480 -0.0188
  254MOL0     C34222   2.294   4.267   8.630 -0.0513 -1.3010 -0.9359
  254MOL0     H34223   2.054   4.705   8.648 -1.8124  1.6386  0.7976
  254MOL0     H34224   2.011   4.947   8.613  0.8761  1.7594 -0.4020
  254MOL0     H34225   2.027   5.254   8.442 -0.0909 -0.7698 -0.8522
  254MOL0     H34226   1.975   5.145   8.564 -0.1134 -0.9439 -0.7806
  254MOL0     H34227   2.182   5.197   8.630 -0.0456 -2.8097  0.9975
  254MOL0     H34228   2.214   5.044   8.567  0.6095  0.1758  1.2013
  254MOL0     H34229   2.288   5.151   8.338  0.9117 -1.8261  0.5663
  254MOL0     H34230   2.270   5.308   8.424  0.9188  0.3055  0.3791
  254MOL0     H34231   2.445   5.230   8.588 -0.9193  1.8298 -0.7367
  254MOL0     H34232   2.473   5.087   8.483  0.8732  0.6752  0.1344
  254MOL0     H34233   2.537   5.235   8.296 -1.2996  0.0387 -0.5996
  254MOL0     H34234   2.493   5.376   8.390  0.3491 -0.1317 -0.0407
  254MOL0     H34235   2.711   5.395   8.422 -1.8550  0.7753 -0.8678
  254MOL0     H34236   2.686   5.277   8.556 -3.0069  0.2465 -0.0450
  254MOL0     H34237   2.728   5.090   8.386  1.4790 -1.0066  0.6462
  254MOL0     H34238   2.775   5.212   8.269  1.0270  1.6073  1.1380
  254MOL0     H34239   2.948   5.297   8.433  0.5501  0.0465 -0.9859
  254MOL0     H34240   2.963   5.140   8.344 -5.1086 -0.1483 -2.9831
  254MOL0     H34241   2.987   5.288   8.668  0.8090 -0.9541  0.4728
  254MOL0     H34242   3.141   5.019   8.875 -1.1416 -0.0067 -1.8620
  254MOL0     H34243   3.107   5.179   8.909  3.7281 -1.0669  1.3465
  254MOL0     H34244   2.993   4.935   9.028 -1.5118 -0.2708  0.3240
  254MOL0     H34245   2.860   5.028   8.952  0.5337  0.3190 -0.2083
  254MOL0     H34246   2.938   5.229   9.074 -1.5712  0.0601  1.2170
  254MOL0     H34247   3.076   5.132   9.140 -0.4308 -0.3537  0.7303
  254MOL0     H34248   2.904   5.181   9.290 -0.0519 -1.5176  1.5857
  254MOL0     H34249   2.923   5.005   9.273 -2.2880 -1.4799 -1.3160
  254MOL0     H34250   2.486   5.048   9.180  1.3758  2.6460 -1.0601
  254MOL0     H34251   2.283   5.043   9.223  1.6841  3.0633 -0.2887
  254MOL0     H34252   2.231   4.964   9.383 -1.8386  1.3850  0.6592
  254MOL0     H34253   2.217   5.143   9.353  0.5689  0.7017 -1.0118
  254MOL0     H34254   2.136   5.248   9.790  0.6220 -1.2450 -0.8679
  254MOL0     H34255   2.067   5.357   9.993  0.0034 -1.3223  2.0437
  254MOL0     H34256   2.369   5.563  10.260 -1.2822  1.4116  4.2488
  254MOL0     H34257   2.273   5.625  10.124 -0.1010  1.8358  0.6618
  254MOL0     H34258   2.162   5.577  10.413 -1.2102  2.5498  1.3364
  254MOL0     H34259   2.206   5.738  10.351  1.5005  0.2128 -1.1982
  254MOL0     H34260   1.975   5.551  10.270 -1.6770  1.2059  2.7919
  254MOL0     H34261   2.042   5.674  10.155  2.3083  1.9042 -0.0199
  254MOL0     H34262   1.957   5.735  10.434  0.8593 -3.3351 -0.5379
  254MOL0     H34263   2.002   5.851  10.310 -2.9072  2.6376  0.9253
  254MOL0     H34264   1.756   5.667  10.324  1.1451  0.1649  1.3885
  254MOL0     H34265   1.802   5.744  10.172  0.3703 -1.8568  0.1846
  254MOL0     H34266   1.741   5.912  10.431  3.6496  1.8727 -0.6647
  254MOL0     H34267   1.806   5.948  10.277 -0.2329 -0.2696  0.1364
  254MOL0     H34268   1.552   5.802  10.234 -1.5320  1.3920 -0.5947
  254MOL0     H34269   1.567   5.973  10.210 -0.7512  0.9739  1.0706
  254MOL0     H34270   1.494   5.825  10.465 -0.2110  0.0910  0.3283
  254MOL0     H34271   1.403   5.932  10.356 -0.1166 -0.4646 -0.2541
  254MOL0     H34272   2.447   5.363  10.148 -1.0239  2.8789  1.0992
  254MOL0     H34273   2.534   5.246   9.934  0.3215 -2.3677  0.1552
  254MOL0     H34274   2.610   5.158   9.636 -0.7589  1.7401 -0.2727
  254MOL0     H34275   2.786   5.138   9.461 -0.3267 -1.3991  0.0123
  254MOL0     H34276   2.020   4.874   8.187  1.2463  1.0441  0.0994
  254MOL0     H34277   2.071   4.626   8.236  5.3193  0.5102 -1.1497
  254MOL0     H34278   2.040   4.293   8.417  0.4218 -1.1364  0.0997
  254MOL0     H34279   2.071   4.043   8.407 -1.6324 -1.2992  3.1796
  254MOL0     H34280   2.177   3.857   8.366  0.8894 -0.5931 -0.2375
  254MOL0     H34281   2.359   3.853   8.363  3.9351 -0.2800  4.8910
  254MOL0     H34282   2.150   3.660   8.462  0.1493 -1.7360 -0.7486
  254MOL0     H34283   2.309   3.667   8.554 -1.2928 -1.8182  1.2845
  254MOL0     H34284   2.273   3.484   8.391 -1.2471  0.9044  1.1519
  254MOL0     H34285   2.407   3.584   8.339 -0.4146  2.5969  1.5992
  254MOL0     H34286   2.292   3.571   8.128  0.7789 -2.3674  1.5252
  254MOL0     H34287   2.215   3.709   8.184  2.2736  1.4523  0.8469
  254MOL0     H34288   1.931   3.397   8.266 -0.7725  0.6738 -3.2163
  254MOL0     H34289   2.424   4.097   8.660 -0.8018 -1.6214  1.1317
  254MOL0     H34290   2.342   4.330   8.704  1.5191 -1.8720 -1.4202
  255MOL0     O34291   7.544   1.254   2.883 -0.2566  0.9425 -0.1999
  255MOL0     C34292   7.564   1.131   2.878  0.3685 -0.2545  0.4423
  255MOL0     O34293   7.486   1.028   2.915 -0.6515  0.5964  0.6310
  255MOL0     C34294   7.369   1.049   2.986 -0.0415 -1.1457  0.5835
  255MOL0     C34295   7.347   1.134   3.093 -0.3489 -0.3274  0.1255
  255MOL0     C34296   7.226   1.149   3.160  0.4642  0.4808 -0.1437
  255MOL0     C34297   7.115   1.081   3.120 -0.4809 -0.1108  0.2577
  255MOL0     O34298   6.990   1.099   3.167  0.4387 -0.1124 -0.4357
  255MOL0     C34299   6.960   1.059   3.305  0.1724 -0.4871 -0.0434
  255MOL0     C34300   6.865   1.157   3.380  0.7479  0.0244  0.1957
  255MOL0     C34301   6.727   1.154   3.301  0.1970 -0.4554 -0.3081
  255MOL0     C34302   6.626   1.236   3.378  0.0104 -0.4789  0.0455
  255MOL0     C34303   6.494   1.247   3.296  0.7609  0.0043 -0.1485
  255MOL0     C34304   6.373   1.259   3.389  0.5301 -0.2897  0.0182
  255MOL0     C34305   6.377   1.382   3.481  0.0783  0.0334  0.3624
  255MOL0     C34306   6.325   1.506   3.413 -1.0833 -0.0772 -0.0810
  255MOL0     N34307   6.182   1.511   3.416  0.6081  0.2655 -0.2153
  255MOL0     C34308   6.105   1.507   3.533  0.0313 -0.6243 -0.0389
  255MOL0     C34309   5.983   1.482   3.483 -0.9077  0.6985 -0.6944
  255MOL0     C34310   5.862   1.468   3.568  0.2606 -0.6208 -0.5084
  255MOL0     C34311   5.826   1.618   3.618  0.1074 -0.7024  0.5826
  255MOL0     C34312   5.673   1.633   3.647 -1.6786 -0.0020 -0.3715
  255MOL0     C34313   5.621   1.579   3.777  0.2772  0.3791 -0.6374
  255MOL0     O34314   5.710   1.610   3.890 -0.1874 -0.1453  1.2925
  255MOL0     C34315   5.666   1.588   4.018 -0.0776  0.0819  0.5241
  255MOL0     C34316   5.547   1.514   4.039 -0.3177  0.1406  0.3312
  255MOL0     C34317   5.512   1.471   4.170 -0.8480 -0.1149  0.3001
  255MOL0     C34318   5.383   1.401   4.190 -0.1763  0.6787  0.1808
  255MOL0     C34319   5.598   1.495   4.281 -0.1293 -1.4179  0.4657
  255MOL0     C34320   5.558   1.468   4.421  0.1020  0.8878  0.6790
  255MOL0     O34321   5.604   1.552   4.515 -0.2919 -0.0850 -0.5271
  255MOL0     C34322   5.557   1.558   4.639 -0.0186  0.8250  0.2054
  255MOL0     C34323   5.421   1.521   4.669  0.2277  0.9418 -0.9133
  255MOL0     C34324   5.357   1.540   4.791 -0.1535  0.2929 -0.5021
  255MOL0     C34325   5.440   1.604   4.892  0.8762 -0.3715 -0.1224
  255MOL0     O34326   5.377   1.610   5.008  0.8283 -0.9372 -0.3260
  255MOL0     C34327   5.258   1.695   5.014 -0.1952  0.5096  0.3833
  255MOL0     C34328   5.182   1.648   5.137 -0.5212 -0.1615  0.0701
  255MOL0     C34329   5.081   1.770   5.176 -0.9644 -0.3574  0.1483
  255MOL0     C34330   4.998   1.730   5.291  0.2185  0.1235 -0.1095
  255MOL0     C34331   4.873   1.817   5.291  0.5503 -0.9392 -1.2934
  255MOL0     C34332   4.763   1.767   5.385 -0.2380  0.3165  0.2575
  255MOL0     C34333   4.628   1.838   5.351  0.3692 -0.1271  0.1292
  255MOL0     C34334   4.527   1.830   5.474  0.3583 -0.8846  0.1675
  255MOL0    Cl34335   4.561   1.939   5.613 -0.2595 -0.1361  0.5838
  255MOL0     C34336   5.568   1.645   4.863 -0.4603  0.0257  0.4938
  255MOL0     C34337   5.628   1.632   4.736  0.8601  0.4390 -0.0934
  255MOL0     O34338   5.514   1.350   4.433  0.7737 -0.2155 -0.5416
  255MOL0     C34339   5.718   1.578   4.256 -0.7861 -0.5580 -0.1044
  255MOL0     C34340   5.756   1.612   4.125  0.3109 -0.2077  0.0295
  255MOL0     N34341   5.983   1.492   3.346 -1.0653  0.3402  0.1628
  255MOL0     N34342   6.099   1.515   3.308  0.3523 -0.2250 -0.5521
  255MOL0     C34343   7.134   0.981   3.031  0.0306 -0.6067 -0.4901
  255MOL0     C34344   7.258   0.965   2.965 -0.4570  0.1477  0.4758
  255MOL0     C34345   7.687   1.094   2.804  0.1124 -0.0472  0.0599
  255MOL0     C34346   7.754   1.191   2.729  0.6564 -0.4447  0.5582
  255MOL0     C34347   7.875   1.151   2.664 -0.2685  1.1395  0.2307
  255MOL0     C34348   7.924   1.024   2.676 -0.1788  0.4006 -0.1625
  255MOL0     O34349   8.028   0.979   2.596  0.8052 -0.7633 -0.4411
  255MOL0     C34350   8.130   1.074   2.555 -0.4835  0.7512  0.9629
  255MOL0     C34351   8.258   0.989   2.544 -0.8269  0.7736 -1.1899
  255MOL0     C34352   8.320   0.944   2.676 -0.0065  0.5720 -0.2302
  255MOL0     C34353   8.465   0.910   2.662 -0.5690 -0.0618  0.0633
  255MOL0     C34354   8.509   0.845   2.535  0.4561  0.4196  0.3494
  255MOL0     C34355   8.553   0.775   2.449 -0.3661 -0.1194  0.3324
  255MOL0     C34356   7.872   0.942   2.769  0.2829 -0.3174 -0.4035
  255MOL0     C34357   7.744   0.965   2.822  0.5001  0.1918  0.4549
  255MOL0     H34358   7.421   1.202   3.133  1.9177 -3.3498  1.5274
  255MOL0     H34359   7.220   1.218   3.243  1.3651 -1.2070  1.3970
  255MOL0     H34360   6.923   0.956   3.304 -1.3388 -0.0859 -3.8374
  255MOL0     H34361   7.049   1.059   3.368  0.1117  0.3615  0.0587
  255MOL0     H34362   6.859   1.137   3.487 -0.3919 -0.8640 -0.0126
  255MOL0     H34363   6.899   1.259   3.360 -1.0317  0.2678 -2.1170
  255MOL0     H34364   6.745   1.195   3.200  1.5737  0.4663  0.2725
  255MOL0     H34365   6.693   1.052   3.282  0.4251 -0.4374 -0.8524
  255MOL0     H34366   6.618   1.178   3.471 -1.4988  1.4342  1.2008
  255MOL0     H34367   6.664   1.334   3.408  0.0543 -0.1704 -0.9739
  255MOL0     H34368   6.499   1.332   3.228  1.4747  0.3188  0.2801
  255MOL0     H34369   6.487   1.152   3.243  4.3151 -0.1645 -0.5287
  255MOL0     H34370   6.280   1.250   3.332 -0.3291 -2.3991  1.6394
  255MOL0     H34371   6.372   1.169   3.451  0.4993 -0.1239  0.2608
  255MOL0     H34372   6.322   1.357   3.572  1.0518  2.8097  1.8243
  255MOL0     H34373   6.473   1.404   3.528  0.4393  3.6812 -1.6377
  255MOL0     H34374   6.366   1.507   3.311 -1.8105 -2.6067 -0.4887
  255MOL0     H34375   6.370   1.584   3.475 -0.3754  0.9442 -1.7779
  255MOL0     H34376   6.130   1.506   3.639  0.6107  1.6730 -0.0906
  255MOL0     H34377   5.768   1.430   3.526 -1.0839  0.3437  1.4533
  255MOL0     H34378   5.872   1.408   3.660  1.0044 -0.8061 -0.7084
  255MOL0     H34379   5.854   1.691   3.541  2.6558  1.0548  2.9781
  255MOL0     H34380   5.889   1.662   3.696 -1.2174  4.5282 -0.9265
  255MOL0     H34381   5.615   1.603   3.559 -1.5694 -0.5845 -0.2480
  255MOL0     H34382   5.665   1.742   3.649 -3.2948 -0.0942 -0.5771
  255MOL0     H34383   5.593   1.474   3.764 -1.6202  0.9638 -1.5836
  255MOL0     H34384   5.522   1.622   3.795  1.2087  2.3984  0.0390
  255MOL0     H34385   5.488   1.482   3.953  1.0842 -0.5746 -0.4136
  255MOL0     H34386   5.315   1.400   4.104 -1.4878 -0.6659  1.1612
  255MOL0     H34387   5.395   1.296   4.221  0.9541  0.8485  0.3640
  255MOL0     H34388   5.326   1.448   4.270 -1.2781 -1.0974  0.5223
  255MOL0     H34389   5.356   1.481   4.592  0.7510 -0.0395 -0.8706
  255MOL0     H34390   5.258   1.504   4.814  0.2719 -0.3313  0.4277
  255MOL0     H34391   5.284   1.797   5.041  2.2225  0.0085  0.1429
  255MOL0     H34392   5.199   1.691   4.922 -1.0285  2.1481  0.8147
  255MOL0     H34393   5.127   1.554   5.125  0.1632 -0.4078 -1.2642
  255MOL0     H34394   5.253   1.633   5.219 -1.2578  2.1293  1.2335
  255MOL0     H34395   5.021   1.791   5.087  0.5301  2.7345 -0.2838
  255MOL0     H34396   5.141   1.860   5.195  0.1509 -1.2688  1.1211
  255MOL0     H34397   4.975   1.623   5.282 -0.7696  0.1693  1.4794
  255MOL0     H34398   5.063   1.747   5.377 -0.8575  0.0355  0.7459
  255MOL0     H34399   4.829   1.831   5.191  0.3143  0.4135 -1.0178
  255MOL0     H34400   4.909   1.919   5.301  2.9866 -1.7020 -1.6868
  255MOL0     H34401   4.747   1.660   5.371 -3.6652  0.8492 -0.6830
  255MOL0     H34402   4.780   1.793   5.490 -2.0343  2.9528 -0.0006
  255MOL0     H34403   4.580   1.795   5.263  0.2902  1.7732 -0.8171
  255MOL0     H34404   4.649   1.941   5.321  0.4477 -0.6177 -1.5948
  255MOL0     H34405   4.534   1.734   5.526  0.4388 -0.5353  0.8187
  255MOL0     H34406   4.431   1.867   5.436 -0.2114 -1.6893  0.7866
  255MOL0     H34407   5.622   1.689   4.946  1.6432 -1.7592  0.1894
  255MOL0     H34408   5.734   1.653   4.729  1.0979 -0.8659 -0.8554
  255MOL0     H34409   5.771   1.614   4.344 -1.4015  2.1775 -0.7457
  255MOL0     H34410   5.851   1.658   4.100  1.7126 -1.8532  1.9596
  255MOL0     H34411   7.049   0.917   3.013 -0.6559  0.0198  0.4541
  255MOL0     H34412   7.272   0.880   2.898 -0.6654  0.4435  0.0479
  255MOL0     H34413   7.704   1.287   2.718 -3.6349 -2.5252 -0.0545
  255MOL0     H34414   7.917   1.221   2.592 -0.2412  1.4965  0.5904
  255MOL0     H34415   8.113   1.109   2.453  1.1071 -1.5066 -0.1666
  255MOL0     H34416   8.138   1.163   2.618 -2.6159  1.4947  0.2718
  255MOL0     H34417   8.328   1.063   2.504 -0.0429  0.8018  0.1666
  255MOL0     H34418   8.255   0.920   2.459 -0.1097  0.9264 -1.3412
  255MOL0     H34419   8.258   0.862   2.714 -1.8514  2.6128  1.5001
  255MOL0     H34420   8.312   1.022   2.752 -0.9992 -1.3488  1.7535
  255MOL0     H34421   8.491   0.846   2.746 -2.4500  0.1823  0.9015
  255MOL0     H34422   8.510   1.010   2.672 -1.9887  0.8475 -1.8615
  255MOL0     H34423   8.595   0.720   2.368  1.1808 -0.8224  1.5542
  255MOL0     H34424   7.917   0.851   2.806  0.4364 -0.0753  0.0215
  255MOL0     H34425   7.681   0.887   2.864  1.5564 -1.3145 -0.6432
  256MOL0     O34426   2.038  11.142   2.016  0.7713 -0.3222  0.0399
  256MOL0     C34427   2.097  11.033   2.010  0.0410 -0.2649  0.1417
  256MOL0     O34428   2.054  10.916   1.951  0.1251 -0.1279 -0.3402
  256MOL0     C34429   1.933  10.916   1.894  0.8119  0.0969 -0.1084
  256MOL0     C34430   1.902  10.961   1.765  0.2394  0.1376  0.0723
  256MOL0     C34431   1.779  10.948   1.701 -0.2574  0.5189 -0.2751
  256MOL0     C34432   1.675  10.902   1.783  0.0619  0.6957  0.1043
  256MOL0     O34433   1.552  10.905   1.732  0.4529  0.2075  0.0686
  256MOL0     C34434   1.449  10.849   1.819 -0.4055 -0.3688 -0.9048
  256MOL0     C34435   1.318  10.857   1.743  0.3002  0.4761  0.5689
  256MOL0     C34436   1.293  10.757   1.633  0.6027 -0.3950  0.0346
  256MOL0     C34437   1.283  10.621   1.678  0.1748  0.1188  0.8681
  256MOL0     C34438   1.234  10.530   1.568 -0.5008 -0.2808  0.8615
  256MOL0     C34439   1.201  10.396   1.633  0.2279 -0.3911  0.8651
  256MOL0     C34440   1.165  10.283   1.538 -0.4480 -0.4228 -0.0323
  256MOL0     C34441   1.018  10.289   1.491 -0.1019  0.4824 -0.3545
  256MOL0     N34442   0.993  10.174   1.403 -0.4091  0.2047 -0.6811
  256MOL0     C34443   1.063  10.149   1.284  0.3735 -0.7835  0.3430
  256MOL0     C34444   1.015  10.042   1.233  0.3871  0.5403  1.4795
  256MOL0     C34445   1.072   9.959   1.114  0.5311  0.6004 -0.7918
  256MOL0     C34446   0.970   9.979   0.997 -0.2488  0.0602  0.6132
  256MOL0     C34447   0.986   9.884   0.878 -0.4455 -0.1136  0.9051
  256MOL0     C34448   0.881   9.773   0.879 -0.3579 -0.4841 -0.8829
  256MOL0     O34449   0.747   9.825   0.859  0.3385 -0.1635  0.3341
  256MOL0     C34450   0.646   9.730   0.849  0.1421 -0.1563  0.0714
  256MOL0     C34451   0.666   9.587   0.850  0.4434 -0.2730 -0.7017
  256MOL0     C34452   0.561   9.497   0.865  0.1100  0.4007 -0.8850
  256MOL0     C34453   0.591   9.352   0.895 -0.7006 -0.8186 -0.2313
  256MOL0     C34454   0.426   9.543   0.858  0.5351 -0.4811 -0.3599
  256MOL0     C34455   0.301   9.458   0.874 -0.1631  0.3129 -0.3918
  256MOL0     O34456   0.202   9.501   0.962  0.2975 -0.1965  0.2289
  256MOL0     C34457   0.092   9.416   0.977  0.1032  0.4139  0.1019
  256MOL0     C34458  -0.029   9.463   1.001 -0.2766  0.0185 -0.1334
  256MOL0     C34459  -0.145   9.387   1.020 -0.2948 -0.3831 -0.4439
  256MOL0     C34460  -0.136   9.248   1.029 -0.0991  0.2929 -0.1224
  256MOL0     O34461  -0.248   9.168   1.043 -0.4810 -0.3374 -0.4545
  256MOL0     C34462  -0.319   9.197   1.159  0.3229  0.5287 -0.0408
  256MOL0     C34463  -0.422   9.084   1.192 -0.4522  0.1166  0.1610
  256MOL0     C34464  -0.499   9.102   1.310  0.1193 -0.0395 -0.7902
  256MOL0     C34465  -0.589   8.976   1.323  0.1865 -0.2854 -0.3098
  256MOL0     C34466  -0.659   8.960   1.458  0.5850 -0.0994 -0.6221
  256MOL0     C34467  -0.806   8.998   1.449  0.6531  0.1913 -0.1195
  256MOL0     C34468  -0.888   8.976   1.575 -1.1070 -0.3722  0.1875
  256MOL0     C34469  -0.890   9.101   1.665  0.2961 -0.1659 -0.1821
  256MOL0    Cl34470  -0.735   9.118   1.745  0.1863  0.0893  0.1513
  256MOL0     C34471  -0.009   9.193   1.020  0.7456  0.0991 -0.1001
  256MOL0     C34472   0.100   9.275   1.002 -0.0445  0.5265  0.3636
  256MOL0     O34473   0.287   9.366   0.794  0.7935 -0.6132 -0.4763
  256MOL0     C34474   0.410   9.685   0.851  0.0317  1.1304 -0.2011
  256MOL0     C34475   0.517   9.775   0.842 -0.2922 -0.2537 -1.0768
  256MOL0     N34476   0.911   9.993   1.314 -0.0512 -1.1559 -0.0581
  256MOL0     N34477   0.902  10.076   1.413  0.5727  0.0551 -0.4707
  256MOL0     C34478   1.705  10.848   1.902 -0.1430  0.6561  0.5221
  256MOL0     C34479   1.835  10.851   1.959 -0.4351 -0.1933 -0.4841
  256MOL0     C34480   2.239  11.024   2.062  0.0482 -0.6561  0.8292
  256MOL0     C34481   2.329  10.937   2.007  0.1875  0.4707  0.3887
  256MOL0     C34482   2.453  10.920   2.058  0.0674  0.3165  0.1932
  256MOL0     C34483   2.492  10.993   2.176 -0.1558 -0.9069  0.6020
  256MOL0     O34484   2.605  10.989   2.246 -0.3685 -0.0884 -0.6205
  256MOL0     C34485   2.706  10.899   2.196 -0.5923 -1.4170  0.1926
  256MOL0     C34486   2.829  10.901   2.285 -0.0468 -0.4967 -0.3243
  256MOL0     C34487   2.886  11.045   2.327 -0.5284 -0.7744  0.2643
  256MOL0     C34488   2.864  11.072   2.474 -0.2753  0.1281  0.6497
  256MOL0     C34489   2.939  11.194   2.523  0.5994  0.2143  0.1464
  256MOL0     C34490   2.995  11.293   2.576 -0.0284  0.2852  0.3533
  256MOL0     C34491   2.407  11.097   2.222 -0.2296 -0.3681 -1.0541
  256MOL0     C34492   2.284  11.119   2.155 -0.1624  0.2467  0.3806
  256MOL0     H34493   1.985  11.014   1.720 -0.5623  1.1743 -0.2219
  256MOL0     H34494   1.773  10.989   1.601  3.1108 -0.0910 -0.8643
  256MOL0     H34495   1.467  10.749   1.858  1.2353 -1.3140 -3.7609
  256MOL0     H34496   1.429  10.925   1.895  1.1725  0.1868 -0.9929
  256MOL0     H34497   1.238  10.845   1.816 -0.3394 -0.0418 -0.2046
  256MOL0     H34498   1.308  10.957   1.699 -0.7191  0.1642  0.0751
  256MOL0     H34499   1.192  10.786   1.604  0.1627  0.2841  2.0231
  256MOL0     H34500   1.370  10.769   1.556  2.9729 -3.1688  1.7733
  256MOL0     H34501   1.380  10.590   1.718  1.4807  3.0725  0.2399
  256MOL0     H34502   1.214  10.622   1.763  1.7245 -3.4468  2.3817
  256MOL0     H34503   1.141  10.556   1.517  0.9529  3.0423 -0.3801
  256MOL0     H34504   1.318  10.522   1.498 -1.5855 -0.0743 -0.4940
  256MOL0     H34505   1.295  10.354   1.670 -0.1759 -0.6687  1.5861
  256MOL0     H34506   1.123  10.408   1.709 -0.4249 -1.8280  0.4696
  256MOL0     H34507   1.241  10.273   1.460  1.3171  0.4921  1.4980
  256MOL0     H34508   1.164  10.197   1.606 -3.8517 -1.8187 -1.5829
  256MOL0     H34509   1.004  10.383   1.436  4.7738  0.9198 -1.3055
  256MOL0     H34510   0.937  10.291   1.564 -1.7121  1.6195 -2.0607
  256MOL0     H34511   1.146  10.202   1.239  1.4883 -2.8785 -0.2121
  256MOL0     H34512   1.167  10.001   1.081  1.0941  1.1939  1.4132
  256MOL0     H34513   1.075   9.855   1.148 -2.3225  0.9603  0.9156
  256MOL0     H34514   0.968  10.073   0.941  0.0099 -0.6193 -0.5578
  256MOL0     H34515   0.868   9.965   1.037 -1.1246  1.4645 -1.0162
  256MOL0     H34516   1.085   9.838   0.876  0.3955  1.6518 -1.1789
  256MOL0     H34517   0.974   9.952   0.794 -1.1329  0.2140  1.2539
  256MOL0     H34518   0.895   9.729   0.978 -3.0962 -0.8406 -0.5735
  256MOL0     H34519   0.911   9.700   0.804 -1.2736 -0.3798 -1.3664
  256MOL0     H34520   0.765   9.543   0.846  0.5677 -0.4229  1.9872
  256MOL0     H34521   0.590   9.305   0.796 -1.6165  0.9962 -1.1219
  256MOL0     H34522   0.686   9.338   0.947  0.1778  0.7229 -1.3592
  256MOL0     H34523   0.512   9.308   0.956 -0.9915  1.0628  0.8099
  256MOL0     H34524  -0.031   9.571   0.997  1.8915  0.1927  1.8486
  256MOL0     H34525  -0.224   9.453   1.054  1.0854  0.0530  2.1947
  256MOL0     H34526  -0.251   9.217   1.243  2.6713 -1.3517 -1.3529
  256MOL0     H34527  -0.381   9.283   1.133 -1.1717 -0.9130 -1.4140
  256MOL0     H34528  -0.485   9.072   1.103  0.2830  0.7334 -0.4567
  256MOL0     H34529  -0.357   8.996   1.194  0.5824  0.7832 -1.6629
  256MOL0     H34530  -0.553   9.197   1.296 -1.2951 -0.5787  0.6422
  256MOL0     H34531  -0.442   9.109   1.404 -3.4765 -2.3139  1.8291
  256MOL0     H34532  -0.670   8.969   1.250  0.9696 -0.8228 -1.1458
  256MOL0     H34533  -0.518   8.894   1.312 -0.2472 -1.0294  1.9027
  256MOL0     H34534  -0.607   9.027   1.527  0.9470 -1.2819  0.2809
  256MOL0     H34535  -0.654   8.855   1.487  3.6221 -0.3152 -1.5103
  256MOL0     H34536  -0.810   9.105   1.426  1.1063  0.0423 -0.9332
  256MOL0     H34537  -0.852   8.943   1.367  1.4734 -0.7984  0.0598
  256MOL0     H34538  -0.848   8.890   1.629  1.1494 -0.0891 -0.9159
  256MOL0     H34539  -0.993   8.959   1.552 -0.8609 -1.8572  0.0606
  256MOL0     H34540  -0.968   9.086   1.740 -0.5787 -1.4850 -1.3172
  256MOL0     H34541  -0.921   9.190   1.610 -0.4626 -0.9009 -0.9520
  256MOL0     H34542  -0.001   9.085   1.019 -0.1134  0.0192  0.6638
  256MOL0     H34543   0.201   9.235   0.999  0.1130  0.7572  1.8886
  256MOL0     H34544   0.313   9.727   0.872 -1.0855 -1.3156 -0.0997
  256MOL0     H34545   0.493   9.881   0.853 -2.0556 -0.7005  0.0021
  256MOL0     H34546   1.637  10.803   1.974  2.6389 -0.7432  2.5011
  256MOL0     H34547   1.844  10.800   2.055 -0.4428 -1.3390 -1.0715
  256MOL0     H34548   2.292  10.884   1.920  0.5973 -1.2285  1.2172
  256MOL0     H34549   2.519  10.848   2.011  1.1926  0.0819  2.0185
  256MOL0     H34550   2.670  10.798   2.175  0.3390 -1.5257 -1.0091
  256MOL0     H34551   2.735  10.937   2.097 -0.1224 -0.7974  0.5626
  256MOL0     H34552   2.906  10.845   2.231 -0.1847 -0.8922 -0.1131
  256MOL0     H34553   2.808  10.840   2.373 -0.9675  2.9692  2.0827
  256MOL0     H34554   2.822  11.115   2.272  0.5494 -0.7258 -0.9749
  256MOL0     H34555   2.988  11.056   2.289 -1.2812 -0.4053 -1.7894
  256MOL0     H34556   2.889  10.988   2.540  1.9528  1.4200  1.5563
  256MOL0     H34557   2.758  11.089   2.493 -0.0038  3.1551 -0.0581
  256MOL0     H34558   3.046  11.379   2.616  1.3178 -0.6543  0.7249
  256MOL0     H34559   2.439  11.150   2.311 -0.0815 -2.8895  0.4945
  256MOL0     H34560   2.216  11.194   2.193 -1.1554  0.6987 -2.0879
  257MOL0     O34561   0.491   5.269   6.175  0.9245  0.5877 -0.5101
  257MOL0     C34562   0.459   5.171   6.242 -0.2156  0.1211  0.2580
  257MOL0     O34563   0.495   5.153   6.377  0.1010  0.4420 -0.0278
  257MOL0     C34564   0.537   5.254   6.456 -0.4689  0.5250 -0.2052
  257MOL0     C34565   0.639   5.338   6.411  0.2655 -0.3909 -0.2789
  257MOL0     C34566   0.689   5.451   6.479 -0.2928  0.4359 -0.2118
  257MOL0     C34567   0.646   5.461   6.617 -1.0815  0.3077 -0.2203
  257MOL0     O34568   0.695   5.549   6.715 -0.2943  0.1239  0.1087
  257MOL0     C34569   0.835   5.593   6.707  0.4700 -0.2875 -0.6114
  257MOL0     C34570   0.841   5.746   6.693  0.9350  0.5510  0.1151
  257MOL0     C34571   0.778   5.808   6.812  0.8317 -0.7244  0.8436
  257MOL0     C34572   0.632   5.844   6.796 -0.3096  0.2176  0.4759
  257MOL0     C34573   0.574   5.881   6.657 -0.0411  0.1296  0.1645
  257MOL0     C34574   0.610   6.026   6.613  0.1859 -0.1796  0.6148
  257MOL0     C34575   0.575   6.062   6.467 -0.4524  0.2774 -0.3891
  257MOL0     C34576   0.569   6.210   6.448  0.5520  0.8310 -0.9450
  257MOL0     N34577   0.527   6.255   6.314  0.8974 -0.0313 -0.0328
  257MOL0     C34578   0.406   6.229   6.255  0.7392  0.4777 -0.0144
  257MOL0     C34579   0.414   6.283   6.136 -0.1076  0.0128 -0.9526
  257MOL0     C34580   0.298   6.265   6.042  1.1031 -1.7392  0.8118
  257MOL0     C34581   0.232   6.398   6.004 -0.1650  0.1961 -1.0256
  257MOL0     C34582   0.120   6.388   5.904  0.9177  0.4095  0.3201
  257MOL0     C34583   0.071   6.518   5.839 -0.0738 -0.0687 -0.0848
  257MOL0     O34584  -0.033   6.507   5.739 -0.1778  0.1572  0.1624
  257MOL0     C34585   0.002   6.475   5.610  0.1939  0.1813  0.2360
  257MOL0     C34586  -0.095   6.508   5.505 -0.6434  0.1784 -0.5189
  257MOL0     C34587  -0.052   6.506   5.362  0.4752  0.3265  0.4691
  257MOL0     C34588  -0.152   6.560   5.273 -0.3608  0.0094  0.4139
  257MOL0     C34589   0.075   6.455   5.329  0.3954  0.1769  0.7555
  257MOL0     C34590   0.141   6.477   5.192  0.6235 -0.4098  0.4132
  257MOL0     O34591   0.134   6.600   5.145  0.4949  0.1942  0.4142
  257MOL0     C34592   0.233   6.632   5.058  0.4766 -0.7423  0.2144
  257MOL0     C34593   0.362   6.676   5.102 -0.3552  0.5033 -0.5647
  257MOL0     C34594   0.464   6.710   5.017 -0.5814 -0.5977  0.1040
  257MOL0     C34595   0.455   6.693   4.876 -0.5285 -0.2608  0.6620
  257MOL0     O34596   0.543   6.715   4.774  0.4847 -0.1662  0.5424
  257MOL0     C34597   0.670   6.773   4.833  0.9328 -0.0675  0.4772
  257MOL0     C34598   0.769   6.816   4.722 -0.4629  0.0807 -0.4311
  257MOL0     C34599   0.894   6.863   4.791  0.3832  0.4902  0.0757
  257MOL0     C34600   0.983   6.908   4.671  0.0788  0.2862  0.5814
  257MOL0     C34601   1.125   6.951   4.727  0.0380  1.1058  0.3901
  257MOL0     C34602   1.121   7.105   4.753 -0.0379 -0.4390 -0.2975
  257MOL0     C34603   1.245   7.163   4.823 -0.1790  0.4177 -0.1969
  257MOL0     C34604   1.220   7.313   4.853  1.7236  0.0452 -1.3833
  257MOL0    Cl34605   1.257   7.396   4.709 -0.3561 -0.3008 -0.3539
  257MOL0     C34606   0.330   6.662   4.828  0.8245  0.7100  0.4164
  257MOL0     C34607   0.216   6.621   4.914  0.3795  0.0026 -0.7180
  257MOL0     O34608   0.186   6.384   5.136 -0.6126  0.4099  0.9844
  257MOL0     C34609   0.151   6.407   5.429 -0.4353  0.1915  0.2852
  257MOL0     C34610   0.122   6.419   5.560  0.4195 -0.8555  0.8195
  257MOL0     N34611   0.540   6.335   6.117  0.3537 -1.1482 -0.2759
  257MOL0     N34612   0.608   6.313   6.222 -0.0127 -0.5266 -0.6300
  257MOL0     C34613   0.551   5.370   6.671 -0.6400  0.7835  0.4352
  257MOL0     C34614   0.498   5.266   6.599 -0.3618  0.1999  1.2781
  257MOL0     C34615   0.376   5.071   6.176  0.2136  0.4494 -1.0229
  257MOL0     C34616   0.336   5.089   6.047  0.0302 -0.2695  0.7198
  257MOL0     C34617   0.267   4.989   5.982  0.9973 -0.7074  0.3613
  257MOL0     C34618   0.234   4.864   6.042 -0.2819  0.0921 -0.2392
  257MOL0     O34619   0.161   4.764   5.986  0.5647  0.4822 -0.4355
  257MOL0     C34620   0.102   4.772   5.856  0.1739 -0.2942 -0.5285
  257MOL0     C34621   0.195   4.704   5.758  0.7434 -0.0427  0.9632
  257MOL0     C34622   0.200   4.558   5.794  1.0008 -0.2817  0.2388
  257MOL0     C34623   0.324   4.523   5.875 -0.6016 -0.5983 -0.5674
  257MOL0     C34624   0.332   4.381   5.908  0.0203  0.2356  0.0369
  257MOL0     C34625   0.332   4.265   5.938  0.1921 -0.1057  0.4220
  257MOL0     C34626   0.276   4.848   6.169  0.7361 -0.2487 -0.7010
  257MOL0     C34627   0.350   4.951   6.234  0.1584  0.4854  0.4544
  257MOL0     H34628   0.686   5.315   6.316  0.3466 -0.5016 -0.2127
  257MOL0     H34629   0.762   5.515   6.431 -1.0540 -0.9986 -3.5222
  257MOL0     H34630   0.879   5.569   6.804  0.6487 -0.3352 -0.7043
  257MOL0     H34631   0.905   5.549   6.635  1.1626 -0.9985  0.4754
  257MOL0     H34632   0.948   5.766   6.695  1.4849 -2.0655  0.5049
  257MOL0     H34633   0.806   5.790   6.598  0.4543  0.9535  0.4724
  257MOL0     H34634   0.790   5.757   6.908 -0.0093 -0.6556  0.9973
  257MOL0     H34635   0.839   5.898   6.824 -0.8935  0.2230  3.3836
  257MOL0     H34636   0.581   5.752   6.826  0.8437 -1.4138 -2.2474
  257MOL0     H34637   0.606   5.925   6.865 -0.6376 -0.2880  0.9563
  257MOL0     H34638   0.610   5.806   6.586  2.1468  2.0280 -0.8533
  257MOL0     H34639   0.466   5.866   6.664 -0.0696 -0.0854 -0.6343
  257MOL0     H34640   0.553   6.098   6.671  0.1178  1.8462 -1.8065
  257MOL0     H34641   0.716   6.047   6.629  1.2509 -4.2568  0.2253
  257MOL0     H34642   0.645   6.014   6.399  1.1654  2.1995 -0.1777
  257MOL0     H34643   0.481   6.013   6.440  0.3647 -0.8146 -1.3703
  257MOL0     H34644   0.663   6.261   6.472 -0.0434  1.2862  0.5374
  257MOL0     H34645   0.487   6.244   6.512  0.7397 -1.9476  0.9278
  257MOL0     H34646   0.321   6.171   6.291  0.0097 -0.3209 -2.7856
  257MOL0     H34647   0.337   6.215   5.953 -2.3819 -1.5190 -0.9672
  257MOL0     H34648   0.214   6.202   6.075  0.1367 -0.3532  1.0502
  257MOL0     H34649   0.309   6.459   5.956  0.5146  0.3012  0.1407
  257MOL0     H34650   0.184   6.453   6.086  0.7957 -1.7214  0.9102
  257MOL0     H34651   0.033   6.344   5.954  1.8314 -3.2087 -0.9725
  257MOL0     H34652   0.147   6.320   5.822 -1.2983  1.9764 -1.8922
  257MOL0     H34653   0.163   6.563   5.801  1.0713 -1.5021  0.8699
  257MOL0     H34654   0.039   6.585   5.920  0.1562 -1.4102  1.1702
  257MOL0     H34655  -0.185   6.561   5.534 -0.0357  2.5423 -2.5372
  257MOL0     H34656  -0.145   6.527   5.169  0.5357  2.1121 -0.2488
  257MOL0     H34657  -0.256   6.544   5.303 -0.2403 -0.1772  0.7408
  257MOL0     H34658  -0.137   6.669   5.267 -0.5479 -0.0189 -0.6619
  257MOL0     H34659   0.382   6.675   5.208 -0.7590  1.7682 -0.4568
  257MOL0     H34660   0.555   6.756   5.054 -0.4154 -0.8998  0.0775
  257MOL0     H34661   0.643   6.861   4.892  0.9018  0.9740 -1.0341
  257MOL0     H34662   0.723   6.698   4.892  1.3313 -0.5514 -0.4592
  257MOL0     H34663   0.808   6.727   4.671 -0.5084 -0.9251  1.2039
  257MOL0     H34664   0.735   6.895   4.654 -1.0858 -0.7859 -1.1635
  257MOL0     H34665   0.947   6.784   4.846 -0.1197  0.4730  0.5486
  257MOL0     H34666   0.873   6.938   4.868  0.1851 -0.5365  1.0463
  257MOL0     H34667   0.984   6.825   4.600 -2.2622  0.3494  0.3976
  257MOL0     H34668   0.946   6.998   4.623 -0.8823 -0.9974 -1.1986
  257MOL0     H34669   1.210   6.924   4.664 -0.5918 -1.2152  0.4451
  257MOL0     H34670   1.136   6.899   4.822 -2.4462 -2.9274 -1.2373
  257MOL0     H34671   1.117   7.164   4.661  3.3303  4.3288  2.2324
  257MOL0     H34672   1.036   7.134   4.816 -0.8759  0.2815 -1.7141
  257MOL0     H34673   1.326   7.156   4.749 -0.8124  3.6838 -1.3433
  257MOL0     H34674   1.268   7.109   4.915 -1.2055  1.6557  0.8077
  257MOL0     H34675   1.277   7.356   4.936 -1.8245  0.6314  0.9508
  257MOL0     H34676   1.116   7.338   4.874  1.1618 -1.7848 -1.7827
  257MOL0     H34677   0.299   6.647   4.725 -0.6153  0.8697  0.8042
  257MOL0     H34678   0.119   6.591   4.876 -1.7216  1.7273  2.7624
  257MOL0     H34679   0.255   6.381   5.411 -0.3418 -1.7473  2.9902
  257MOL0     H34680   0.201   6.395   5.631  2.0585  0.2806 -0.5161
  257MOL0     H34681   0.515   5.374   6.773  1.4224 -0.5723  1.2819
  257MOL0     H34682   0.422   5.200   6.639 -1.0093  0.4616  0.5209
  257MOL0     H34683   0.355   5.179   5.989 -3.4442 -2.8158 -5.3315
  257MOL0     H34684   0.240   5.006   5.879 -0.5486 -0.4071  0.7891
  257MOL0     H34685   0.000   4.733   5.858 -1.2548  3.1495 -0.0775
  257MOL0     H34686   0.096   4.880   5.844 -0.9441 -0.2152  0.5935
  257MOL0     H34687   0.289   4.759   5.765  0.7544 -0.0941  1.2433
  257MOL0     H34688   0.152   4.723   5.659 -1.4617 -0.2274  1.8110
  257MOL0     H34689   0.206   4.496   5.704 -1.0100 -0.9958  0.5373
  257MOL0     H34690   0.116   4.527   5.858  2.0065 -0.1817  1.6422
  257MOL0     H34691   0.334   4.583   5.966 -0.9578 -2.9172  1.0857
  257MOL0     H34692   0.414   4.551   5.819  0.0169  0.7669  1.0294
  257MOL0     H34693   0.335   4.158   5.946 -0.4047 -0.2433 -0.9182
  257MOL0     H34694   0.265   4.744   6.198 -0.5738 -1.2001 -4.0993
  257MOL0     H34695   0.392   4.926   6.332  1.5758  0.8102 -0.0377
  258MOL0     O34696   0.102   7.205   7.448 -0.4325  0.8386  0.0016
  258MOL0     C34697  -0.001   7.143   7.413 -0.9455 -0.6188 -0.0991
  258MOL0     O34698  -0.003   7.018   7.351 -0.2123 -0.9297  0.0562
  258MOL0     C34699   0.121   6.950   7.341 -0.5262  1.1848  1.0461
  258MOL0     C34700   0.131   6.827   7.407 -0.0782  0.0310 -0.6295
  258MOL0     C34701   0.249   6.756   7.401  0.6629  0.0242  0.3465
  258MOL0     C34702   0.354   6.788   7.318  0.1377 -0.1302  0.0491
  258MOL0     O34703   0.468   6.714   7.307 -1.0512  0.7907  0.3546
  258MOL0     C34704   0.505   6.674   7.176  0.2497  0.1986  0.0244
  258MOL0     C34705   0.645   6.616   7.176 -0.4604 -0.1006 -0.3637
  258MOL0     C34706   0.702   6.581   7.036 -0.1123  0.5317 -0.2432
  258MOL0     C34707   0.845   6.525   7.043  0.2932  0.5462 -0.0945
  258MOL0     C34708   0.852   6.365   7.064 -0.4935  0.4263 -0.1699
  258MOL0     C34709   0.803   6.274   6.942 -0.2509 -0.2048  0.1107
  258MOL0     C34710   0.816   6.325   6.806 -0.1943 -0.5266  0.4257
  258MOL0     C34711   0.960   6.307   6.741  0.1102 -1.0027  0.0209
  258MOL0     N34712   0.985   6.406   6.633 -0.2655  0.4144 -0.3787
  258MOL0     C34713   0.961   6.386   6.499  0.4292 -0.7815 -0.3987
  258MOL0     C34714   0.973   6.514   6.446 -0.1869 -0.0638 -0.0410
  258MOL0     C34715   0.937   6.558   6.307 -0.0861 -0.4288 -0.8855
  258MOL0     C34716   0.811   6.657   6.308 -0.2407 -0.1777  0.6169
  258MOL0     C34717   0.762   6.680   6.162  0.6641  0.1215  0.3093
  258MOL0     C34718   0.869   6.721   6.058 -0.4449 -1.0335 -0.8828
  258MOL0     O34719   0.925   6.839   6.105 -0.2413 -0.5410  0.3611
  258MOL0     C34720   1.034   6.894   6.040  0.4083  0.2864 -0.2820
  258MOL0     C34721   1.158   6.827   6.025 -0.1075 -0.2891 -0.2137
  258MOL0     C34722   1.266   6.881   5.957 -0.1088 -0.3469  0.0627
  258MOL0     C34723   1.391   6.800   5.963  0.7360 -0.0734  0.1411
  258MOL0     C34724   1.243   6.993   5.879  0.2828  0.1886 -0.4554
  258MOL0     C34725   1.355   7.065   5.808  0.5879  1.0181  0.8254
  258MOL0     O34726   1.488   7.049   5.850 -0.4468  0.3126  0.1378
  258MOL0     C34727   1.609   7.085   5.788 -0.1007 -0.8133 -0.1069
  258MOL0     C34728   1.724   7.054   5.866  0.0057 -0.0240 -0.5947
  258MOL0     C34729   1.847   7.090   5.824 -0.0902 -0.5951  0.3871
  258MOL0     C34730   1.864   7.164   5.708 -0.7399  0.2059  0.6297
  258MOL0     O34731   1.978   7.230   5.664 -0.1621  0.2093 -0.0886
  258MOL0     C34732   2.102   7.162   5.696  1.0825  1.0264  0.0465
  258MOL0     C34733   2.220   7.233   5.639 -0.2794 -0.2908  0.6840
  258MOL0     C34734   2.358   7.163   5.653 -0.1435 -0.0444  0.0195
  258MOL0     C34735   2.462   7.270   5.628  0.0472  0.1558  0.1121
  258MOL0     C34736   2.611   7.225   5.661 -0.0378  0.9884  0.0905
  258MOL0     C34737   2.723   7.317   5.607  0.6299  0.4601  0.5297
  258MOL0     C34738   2.847   7.256   5.659  0.0491 -0.2578  0.1104
  258MOL0     C34739   2.967   7.331   5.619  0.6968 -0.4735  0.0664
  258MOL0    Cl34740   2.982   7.461   5.755 -0.3533  0.1038  0.0155
  258MOL0     C34741   1.759   7.203   5.630  0.6392 -0.5230 -0.3058
  258MOL0     C34742   1.631   7.164   5.671 -0.4259 -0.1202 -0.0546
  258MOL0     O34743   1.327   7.123   5.700  0.2762 -0.3947 -0.2648
  258MOL0     C34744   1.116   7.052   5.875  0.5278 -0.1906  0.2959
  258MOL0     C34745   1.015   6.998   5.951 -0.0614  0.1469 -0.7730
  258MOL0     N34746   1.003   6.599   6.553  0.3206 -0.7123  0.4852
  258MOL0     N34747   1.005   6.539   6.668  0.1022 -0.4439  0.4421
  258MOL0     C34748   0.353   6.911   7.252  0.6410 -0.6187 -0.4084
  258MOL0     C34749   0.232   6.991   7.260  0.4265 -0.6618 -0.1696
  258MOL0     C34750  -0.129   7.185   7.469 -0.3988 -1.3142  0.1330
  258MOL0     C34751  -0.128   7.299   7.559  0.4392 -0.6902 -0.8833
  258MOL0     C34752  -0.249   7.332   7.628 -1.1834 -0.5039 -0.2686
  258MOL0     C34753  -0.362   7.254   7.616  0.1252  0.5199 -0.4505
  258MOL0     O34754  -0.469   7.295   7.688 -0.3544  0.2966  0.6341
  258MOL0     C34755  -0.598   7.236   7.682 -0.1189  0.3828  0.5779
  258MOL0     C34756  -0.653   7.216   7.828 -0.1816  0.3104  0.5811
  258MOL0     C34757  -0.724   7.344   7.872  0.6796 -0.3396 -0.3377
  258MOL0     C34758  -0.869   7.351   7.820  0.4692 -0.7764 -0.0051
  258MOL0     C34759  -0.914   7.491   7.820 -1.0856 -0.9173 -0.2776
  258MOL0     C34760  -0.971   7.598   7.835  0.0345 -0.2827 -0.0790
  258MOL0     C34761  -0.364   7.157   7.516  0.2161 -0.0225 -0.5149
  258MOL0     C34762  -0.250   7.122   7.446  0.2535 -0.1278  1.3217
  258MOL0     H34763   0.047   6.785   7.461  0.8315 -0.2246  0.6543
  258MOL0     H34764   0.251   6.660   7.452 -0.7319 -1.2254 -1.7805
  258MOL0     H34765   0.435   6.603   7.131  2.0983  0.0685 -2.9043
  258MOL0     H34766   0.513   6.759   7.107  1.6792 -0.9414 -1.2842
  258MOL0     H34767   0.705   6.685   7.237 -0.1424  1.1367 -2.0064
  258MOL0     H34768   0.652   6.528   7.240  0.7322  1.4950  1.8600
  258MOL0     H34769   0.637   6.506   6.991  2.7367 -1.8601 -0.7003
  258MOL0     H34770   0.694   6.670   6.973  0.2262  1.9597  1.6102
  258MOL0     H34771   0.908   6.553   6.958 -0.8343  0.0130 -1.1308
  258MOL0     H34772   0.886   6.571   7.134  1.8910  0.4573 -0.7373
  258MOL0     H34773   0.960   6.351   7.071  0.2706  5.3756  2.4405
  258MOL0     H34774   0.819   6.332   7.163 -2.7371  0.5504 -0.8348
  258MOL0     H34775   0.835   6.170   6.952  1.8085  0.5378  2.1027
  258MOL0     H34776   0.695   6.269   6.958 -0.6385  1.1510 -1.8033
  258MOL0     H34777   0.743   6.270   6.745 -1.6695  1.2919  0.4688
  258MOL0     H34778   0.776   6.426   6.807 -2.0555 -1.1949  2.3729
  258MOL0     H34779   0.975   6.203   6.709  0.9465 -0.4429 -1.4767
  258MOL0     H34780   1.028   6.334   6.822  1.1411 -2.9881 -0.1078
  258MOL0     H34781   0.911   6.301   6.452 -1.5689  0.2100 -0.1637
  258MOL0     H34782   1.023   6.610   6.264 -0.2855  0.5250 -0.1729
  258MOL0     H34783   0.911   6.481   6.234  1.7228  2.2987 -4.7381
  258MOL0     H34784   0.835   6.754   6.354 -1.5817  0.2591  0.4355
  258MOL0     H34785   0.730   6.611   6.366 -3.1366  0.7365 -2.3783
  258MOL0     H34786   0.669   6.738   6.164 -1.3624 -2.8812  1.9218
  258MOL0     H34787   0.720   6.581   6.139 -1.0911  0.2068  2.7129
  258MOL0     H34788   0.832   6.715   5.956 -0.8484 -0.9613 -0.7435
  258MOL0     H34789   0.950   6.648   6.059 -1.1603 -1.8563  0.7441
  258MOL0     H34790   1.162   6.734   6.082 -0.7086  0.5027  1.1604
  258MOL0     H34791   1.434   6.798   5.863 -0.8265  1.0009 -0.5943
  258MOL0     H34792   1.451   6.848   6.041  0.1995  1.5559 -0.3947
  258MOL0     H34793   1.366   6.698   5.995  0.1520  0.1019  0.2646
  258MOL0     H34794   1.710   7.001   5.960  0.3089  2.0583  0.6875
  258MOL0     H34795   1.934   7.060   5.882  1.6248 -3.0165 -3.0401
  258MOL0     H34796   2.105   7.161   5.806  0.1719 -0.6677  0.0807
  258MOL0     H34797   2.105   7.059   5.660  1.2009 -0.3053  3.4169
  258MOL0     H34798   2.197   7.271   5.539 -1.9665  0.4574  1.3183
  258MOL0     H34799   2.226   7.323   5.699  2.8706 -0.9991  1.5895
  258MOL0     H34800   2.375   7.084   5.579 -0.8436  0.1570 -0.3645
  258MOL0     H34801   2.365   7.112   5.750 -3.8164 -0.2709  0.2936
  258MOL0     H34802   2.455   7.307   5.525  3.1977  2.3842  0.5539
  258MOL0     H34803   2.439   7.355   5.692 -1.7715 -0.2936  0.0961
  258MOL0     H34804   2.624   7.128   5.613 -1.6738 -0.7411  2.9140
  258MOL0     H34805   2.629   7.214   5.768  4.4577 -1.0119 -0.6372
  258MOL0     H34806   2.722   7.303   5.499  2.5988 -2.2103  0.7562
  258MOL0     H34807   2.705   7.421   5.635 -0.4262  0.6626 -0.8068
  258MOL0     H34808   2.857   7.155   5.617 -0.2075 -0.1454 -0.2244
  258MOL0     H34809   2.841   7.248   5.768 -0.0426 -2.2356 -0.0088
  258MOL0     H34810   2.965   7.374   5.518 -1.5282 -2.4662 -0.8283
  258MOL0     H34811   3.054   7.265   5.612  1.2766  0.2499  0.2310
  258MOL0     H34812   1.778   7.263   5.541 -0.4578  0.5484  0.1536
  258MOL0     H34813   1.549   7.187   5.603 -1.1671  1.2889  1.2334
  258MOL0     H34814   1.101   7.143   5.818 -1.2500  0.7864  2.2112
  258MOL0     H34815   0.917   7.041   5.935 -1.3374 -1.5887  1.7276
  258MOL0     H34816   0.444   6.941   7.202  1.1868 -1.3401  0.1293
  258MOL0     H34817   0.219   7.084   7.204 -2.0321 -1.0008 -0.2518
  258MOL0     H34818  -0.037   7.356   7.575 -0.9281  1.9204 -1.8065
  258MOL0     H34819  -0.241   7.411   7.702 -1.5121 -1.8336  1.2438
  258MOL0     H34820  -0.657   7.308   7.625 -3.9941 -3.7542 -1.2325
  258MOL0     H34821  -0.598   7.139   7.632 -1.9597  0.3065  0.6843
  258MOL0     H34822  -0.580   7.181   7.902 -1.8444 -0.0223  2.1205
  258MOL0     H34823  -0.724   7.133   7.824 -1.4692  1.3676  0.9306
  258MOL0     H34824  -0.682   7.444   7.856 -1.6872  0.5529 -1.4074
  258MOL0     H34825  -0.724   7.329   7.980 -2.2424  2.2581  0.1743
  258MOL0     H34826  -0.937   7.291   7.881  0.6184 -1.5715 -0.6090
  258MOL0     H34827  -0.869   7.303   7.722 -2.2545 -1.4750  0.2687
  258MOL0     H34828  -1.004   7.699   7.847 -0.2515 -0.2377 -1.1181
  258MOL0     H34829  -0.441   7.082   7.502  3.6965 -4.3924  1.3444
  258MOL0     H34830  -0.249   7.045   7.369 -1.0990  1.1461 -0.0467
  259MOL0     O34831   4.800   1.854   1.909 -0.7855 -1.2776 -0.8084
  259MOL0     C34832   4.696   1.884   1.970  0.5298  0.3040  0.6628
  259MOL0     O34833   4.675   1.892   2.103 -0.2732 -0.2103  0.0906
  259MOL0     C34834   4.777   1.905   2.197 -0.5902  0.8892 -0.5084
  259MOL0     C34835   4.916   1.910   2.174 -0.6147  0.1872 -0.0162
  259MOL0     C34836   5.005   1.899   2.286 -0.3058  0.1779 -0.4520
  259MOL0     C34837   4.955   1.869   2.417 -0.0346 -0.8162 -0.3441
  259MOL0     O34838   5.038   1.839   2.524 -0.0777  0.0480  0.2986
  259MOL0     C34839   5.178   1.819   2.501 -0.1848 -0.8042 -0.2909
  259MOL0     C34840   5.250   1.753   2.614  0.8135 -0.2775 -0.3960
  259MOL0     C34841   5.391   1.695   2.578  0.6560  0.0765  0.5818
  259MOL0     C34842   5.474   1.638   2.693 -0.1916 -0.2343 -0.2754
  259MOL0     C34843   5.431   1.500   2.756 -0.6664  0.2766  0.3869
  259MOL0     C34844   5.447   1.388   2.655 -0.6964  0.1582 -0.0373
  259MOL0     C34845   5.514   1.268   2.730  0.2217 -0.1956 -0.1669
  259MOL0     C34846   5.530   1.139   2.644 -0.3561 -0.8050 -0.2504
  259MOL0     N34847   5.392   1.117   2.592  0.2569  1.0380  0.0117
  259MOL0     C34848   5.268   1.074   2.650 -0.7529 -0.0299 -0.8157
  259MOL0     C34849   5.180   1.082   2.557 -0.0565 -0.0284  0.7091
  259MOL0     C34850   5.037   1.039   2.584 -0.4700 -0.1162 -0.1571
  259MOL0     C34851   4.988   1.043   2.729 -0.2433 -1.4018  0.0130
  259MOL0     C34852   4.990   1.191   2.783 -0.1884 -0.7647 -0.3935
  259MOL0     C34853   4.908   1.291   2.704 -0.6710 -0.1241  0.3355
  259MOL0     O34854   4.914   1.420   2.764  0.0852  0.6320 -0.2282
  259MOL0     C34855   4.824   1.448   2.863 -0.8240 -0.5501 -0.1351
  259MOL0     C34856   4.729   1.376   2.927 -0.3056  0.6306 -0.3445
  259MOL0     C34857   4.637   1.416   3.025 -0.8624  0.9424  0.5713
  259MOL0     C34858   4.536   1.319   3.073  0.0580  0.5297 -0.4367
  259MOL0     C34859   4.645   1.559   3.055  0.5163  0.4233 -0.0517
  259MOL0     C34860   4.562   1.620   3.160  0.9021 -0.0774 -0.1965
  259MOL0     O34861   4.513   1.548   3.255 -0.1882  0.4895  0.0880
  259MOL0     C34862   4.413   1.594   3.333 -0.2838  0.3106 -0.5143
  259MOL0     C34863   4.280   1.548   3.311 -0.5410  0.3085 -0.0161
  259MOL0     C34864   4.175   1.604   3.373  0.5624  0.0693 -1.2346
  259MOL0     C34865   4.184   1.712   3.470  0.5183  1.0676 -0.6054
  259MOL0     O34866   4.071   1.766   3.533  0.6872 -0.2443  0.5232
  259MOL0     C34867   3.946   1.695   3.519  0.1267 -0.0479 -0.0774
  259MOL0     C34868   3.841   1.758   3.607 -0.4316  0.0352  0.6459
  259MOL0     C34869   3.732   1.662   3.639  0.4151 -0.2598 -0.5530
  259MOL0     C34870   3.635   1.711   3.751  0.1265 -0.0141 -0.2718
  259MOL0     C34871   3.500   1.634   3.752 -1.6494  0.0280  0.4066
  259MOL0     C34872   3.398   1.675   3.856  0.8366  0.1444  0.1217
  259MOL0     C34873   3.445   1.649   3.997  0.9678 -0.3190  0.1767
  259MOL0     C34874   3.355   1.724   4.096 -0.6503  0.4970  0.2751
  259MOL0    Cl34875   3.209   1.641   4.107  0.5241  0.0800  0.2775
  259MOL0     C34876   4.314   1.742   3.501 -0.8949  0.5289 -0.4296
  259MOL0     C34877   4.428   1.682   3.436 -0.3368  0.3773 -0.6982
  259MOL0     O34878   4.546   1.741   3.149 -0.4836 -0.3805 -0.1910
  259MOL0     C34879   4.739   1.641   2.995 -0.1736  0.4617  0.3073
  259MOL0     C34880   4.833   1.584   2.909  0.6469  1.5591 -0.1092
  259MOL0     N34881   5.237   1.130   2.446  0.5880  0.4810 -0.5017
  259MOL0     N34882   5.364   1.146   2.467  0.1851 -0.3093 -0.6082
  259MOL0     C34883   4.824   1.899   2.442  0.0736 -0.3953  1.0045
  259MOL0     C34884   4.734   1.923   2.332 -0.7845  0.5800  0.5186
  259MOL0     C34885   4.577   1.933   1.892  0.0818  0.2030  0.6684
  259MOL0     C34886   4.601   1.986   1.756 -0.5629 -0.2109 -0.5651
  259MOL0     C34887   4.492   2.024   1.673 -0.1241 -0.3510  0.3894
  259MOL0     C34888   4.359   2.010   1.717 -0.1360 -0.7957 -0.0610
  259MOL0     O34889   4.238   2.047   1.641  0.4391  1.0106  0.0408
  259MOL0     C34890   4.250   2.085   1.508 -0.7641 -0.1274  0.6386
  259MOL0     C34891   4.117   2.052   1.443 -0.2995 -0.4315 -0.2966
  259MOL0     C34892   4.096   2.132   1.311 -0.0340 -0.7535  0.4966
  259MOL0     C34893   4.200   2.106   1.194 -0.9249 -0.6745  0.4107
  259MOL0     C34894   4.318   2.191   1.202 -0.0755  0.4103 -0.7167
  259MOL0     C34895   4.404   2.273   1.202  0.4767  0.5369 -0.0616
  259MOL0     C34896   4.341   1.964   1.844 -0.4346 -0.0717 -0.1682
  259MOL0     C34897   4.446   1.928   1.931  0.0551  0.1780  0.6859
  259MOL0     H34898   4.958   1.898   2.074 -0.4853 -1.4806  0.2196
  259MOL0     H34899   5.112   1.899   2.269 -0.6111 -0.2027 -2.7345
  259MOL0     H34900   5.191   1.759   2.410  2.9130  2.8251 -2.5482
  259MOL0     H34901   5.229   1.913   2.478  0.2500 -0.5985  1.3940
  259MOL0     H34902   5.257   1.835   2.686 -0.3371 -1.4237  1.0687
  259MOL0     H34903   5.195   1.667   2.652  0.0869  0.4213  0.1837
  259MOL0     H34904   5.389   1.622   2.497 -1.1813  1.7313 -0.9706
  259MOL0     H34905   5.445   1.775   2.526 -1.5108  0.6654 -0.8898
  259MOL0     H34906   5.575   1.626   2.651  0.9042  0.8003  1.8848
  259MOL0     H34907   5.468   1.707   2.778 -0.3520 -1.4608  0.7425
  259MOL0     H34908   5.488   1.483   2.847  0.1483 -1.7488 -0.4541
  259MOL0     H34909   5.324   1.508   2.776 -2.1264 -3.4374 -4.1271
  259MOL0     H34910   5.353   1.364   2.604  0.2636 -0.6994 -1.4589
  259MOL0     H34911   5.517   1.429   2.581 -1.3304 -0.1413 -0.8135
  259MOL0     H34912   5.619   1.293   2.751  0.4678 -2.0505  1.1102
  259MOL0     H34913   5.459   1.249   2.823 -2.3015  1.1593 -1.3076
  259MOL0     H34914   5.571   1.051   2.696 -0.8522 -1.9029 -1.6677
  259MOL0     H34915   5.588   1.154   2.553 -0.3782  2.4438  0.1650
  259MOL0     H34916   5.268   1.045   2.755  1.7486 -1.6875 -1.1855
  259MOL0     H34917   4.958   1.090   2.528 -1.9602 -1.8888  0.2520
  259MOL0     H34918   5.021   0.933   2.562 -1.8382 -0.5923  2.6169
  259MOL0     H34919   5.048   0.985   2.800  1.5403  0.0827 -0.2166
  259MOL0     H34920   4.893   0.989   2.730 -0.7605 -0.7398 -3.1243
  259MOL0     H34921   5.092   1.228   2.792 -0.6439  0.4349 -0.0249
  259MOL0     H34922   4.957   1.195   2.888  0.8086  2.7271 -0.1079
  259MOL0     H34923   4.808   1.249   2.693 -1.0113  1.3768 -4.9215
  259MOL0     H34924   4.954   1.300   2.605 -0.3810  0.2752  0.5014
  259MOL0     H34925   4.722   1.272   2.895 -4.2359  0.8316 -0.5856
  259MOL0     H34926   4.562   1.294   3.176  1.2865  0.0564 -0.8480
  259MOL0     H34927   4.435   1.359   3.080  0.3940  1.1416  1.5368
  259MOL0     H34928   4.542   1.228   3.012 -0.4716  0.7893 -0.8923
  259MOL0     H34929   4.258   1.464   3.246  0.7115  1.5925 -2.2341
  259MOL0     H34930   4.081   1.557   3.346  0.9468 -1.2729 -0.3494
  259MOL0     H34931   3.910   1.687   3.416  1.3543 -1.2553 -0.4490
  259MOL0     H34932   3.960   1.595   3.560  0.1042  0.7160  1.8736
  259MOL0     H34933   3.884   1.795   3.700 -2.7811 -0.4015  1.9667
  259MOL0     H34934   3.804   1.844   3.551  0.9272  0.9798  1.1552
  259MOL0     H34935   3.769   1.567   3.679  4.1351  1.2150 -0.1379
  259MOL0     H34936   3.675   1.634   3.550 -0.9503 -0.1852  0.2551
  259MOL0     H34937   3.678   1.701   3.851  1.1379  0.8386 -0.6088
  259MOL0     H34938   3.608   1.816   3.737  0.5862  0.2982  1.0331
  259MOL0     H34939   3.536   1.532   3.771  0.5757  1.1928  3.1898
  259MOL0     H34940   3.450   1.642   3.655 -2.6371 -1.8287  0.7118
  259MOL0     H34941   3.380   1.782   3.847 -1.8034  0.1528  3.7093
  259MOL0     H34942   3.303   1.628   3.830  1.1492 -1.2792  1.4422
  259MOL0     H34943   3.549   1.683   4.007  0.5633  2.0225 -2.3319
  259MOL0     H34944   3.440   1.540   4.004 -2.1030 -0.5186 -2.6937
  259MOL0     H34945   3.343   1.827   4.060 -2.0183  0.8471  1.6558
  259MOL0     H34946   3.407   1.729   4.192 -0.1153  1.6559 -0.0544
  259MOL0     H34947   4.306   1.813   3.582 -1.1600 -1.4180  1.3466
  259MOL0     H34948   4.528   1.685   3.479 -0.3728  0.1783 -0.6036
  259MOL0     H34949   4.756   1.747   3.014  0.2503  0.5379 -0.4341
  259MOL0     H34950   4.911   1.642   2.860  0.8019  0.7189 -0.8811
  259MOL0     H34951   4.789   1.887   2.544 -1.9179  1.1646  0.5688
  259MOL0     H34952   4.628   1.946   2.335 -0.5473  2.4749 -2.0000
  259MOL0     H34953   4.701   2.006   1.718  0.5770 -0.2186  2.1633
  259MOL0     H34954   4.512   2.073   1.578 -2.7384 -0.1145 -0.1212
  259MOL0     H34955   4.258   2.193   1.490 -1.2519 -0.1801  0.1062
  259MOL0     H34956   4.337   2.040   1.459  1.0617  1.5892  2.0972
  259MOL0     H34957   4.025   2.067   1.500 -0.3176 -1.7600  0.0461
  259MOL0     H34958   4.116   1.946   1.417 -1.6960 -0.7980  1.0976
  259MOL0     H34959   4.090   2.239   1.335  0.3427 -0.7401  0.5311
  259MOL0     H34960   3.997   2.101   1.275  0.1877 -0.0468 -0.7396
  259MOL0     H34961   4.148   2.119   1.098 -3.9343 -2.9931  1.5856
  259MOL0     H34962   4.240   2.006   1.213  0.8086 -0.0867  0.0783
  259MOL0     H34963   4.482   2.346   1.201 -0.9519  2.2509  2.9683
  259MOL0     H34964   4.237   1.959   1.877 -0.8904 -2.6758 -1.7722
  259MOL0     H34965   4.435   1.896   2.034  0.6077 -1.7540  0.1939
  260MOL0     O34966   3.298   4.732   3.802  0.0603 -0.7775  0.1534
  260MOL0     C34967   3.293   4.705   3.678  0.6240 -0.2122 -0.7524
  260MOL0     O34968   3.401   4.686   3.598  0.7349 -0.0925  0.3981
  260MOL0     C34969   3.523   4.690   3.662 -0.3741  0.6157 -0.2593
  260MOL0     C34970   3.549   4.602   3.766 -0.8484 -0.1503  0.0658
  260MOL0     C34971   3.685   4.597   3.808  0.6571  0.6950 -0.3425
  260MOL0     C34972   3.789   4.672   3.754  0.0461  0.5327 -0.1492
  260MOL0     O34973   3.908   4.645   3.809 -0.0097  0.2257 -0.8929
  260MOL0     C34974   4.005   4.747   3.841 -0.0470  0.2233 -0.7130
  260MOL0     C34975   4.011   4.740   3.990  0.1428  0.1886 -0.6665
  260MOL0     C34976   3.890   4.773   4.076  0.1147 -0.2082  0.1993
  260MOL0     C34977   3.862   4.927   4.070 -0.1573  0.7430 -0.3859
  260MOL0     C34978   3.914   5.016   4.179  0.1916 -0.8320 -0.0478
  260MOL0     C34979   4.068   5.051   4.165 -0.5130  0.6495 -0.2093
  260MOL0     C34980   4.088   5.172   4.251  0.0492 -0.1490 -1.1254
  260MOL0     C34981   4.217   5.244   4.209 -0.6374  0.7993  0.5657
  260MOL0     N34982   4.205   5.303   4.074  0.2142  0.6079 -0.8327
  260MOL0     C34983   4.120   5.407   4.051 -0.5120  0.0049  0.3569
  260MOL0     C34984   4.146   5.436   3.921  0.8112 -0.2974 -0.0709
  260MOL0     C34985   4.065   5.538   3.848 -0.0086 -0.2529  0.1648
  260MOL0     C34986   4.088   5.680   3.909 -0.1940  0.3448  0.1963
  260MOL0     C34987   4.005   5.782   3.826  0.7131  0.5316 -0.0628
  260MOL0     C34988   4.038   5.921   3.885  0.4103  0.8822  0.7748
  260MOL0     O34989   4.015   5.920   4.022 -0.5661 -0.0334 -0.0442
  260MOL0     C34990   3.966   6.037   4.068 -0.2013 -0.1631  0.5430
  260MOL0     C34991   3.894   6.026   4.187  0.6288  0.4206  0.4647
  260MOL0     C34992   3.856   6.132   4.261  0.0181 -0.8703  0.7239
  260MOL0     C34993   3.776   6.109   4.388 -0.0448 -0.0400 -0.6606
  260MOL0     C34994   3.883   6.264   4.216  0.9660 -0.0119  0.1430
  260MOL0     C34995   3.839   6.381   4.277 -0.6833  0.7980 -0.7143
  260MOL0     O34996   3.940   6.474   4.295  0.3441 -0.9295 -0.0285
  260MOL0     C34997   3.912   6.605   4.307  0.0603  0.5096  0.4008
  260MOL0     C34998   4.012   6.683   4.360  1.2350 -0.7406  0.7418
  260MOL0     C34999   3.989   6.823   4.364 -0.2617  0.6669 -0.0680
  260MOL0     C35000   3.870   6.886   4.320 -0.5372  0.5114  0.2490
  260MOL0     O35001   3.857   7.028   4.324 -0.0492 -0.5444  0.3079
  260MOL0     C35002   3.743   7.101   4.269 -0.2193 -0.3638 -0.5882
  260MOL0     C35003   3.712   7.095   4.115 -0.9396 -0.3519 -0.1429
  260MOL0     C35004   3.815   7.186   4.052  0.8231 -0.0025 -0.1167
  260MOL0     C35005   3.763   7.181   3.907 -0.5163  0.3276 -1.1283
  260MOL0     C35006   3.853   7.264   3.813  0.4325  0.5044  0.0598
  260MOL0     C35007   3.786   7.273   3.665  0.2681 -0.0477 -0.4268
  260MOL0     C35008   3.882   7.344   3.576 -0.8582  0.3720  0.1629
  260MOL0     C35009   3.809   7.397   3.455  0.3175  0.0210  0.7674
  260MOL0    Cl35010   3.726   7.263   3.359  0.1845  0.0906 -0.0050
  260MOL0     C35011   3.773   6.807   4.257 -0.6095  0.2398  0.2579
  260MOL0     C35012   3.794   6.673   4.250  0.3945 -1.2895  0.5422
  260MOL0     O35013   3.724   6.395   4.314  0.6185 -0.9012  0.0816
  260MOL0     C35014   3.952   6.274   4.091  0.5851 -0.0752  0.7746
  260MOL0     C35015   3.985   6.164   4.011 -0.1873  0.2016  0.2779
  260MOL0     N35016   4.240   5.355   3.866 -0.3433 -0.0874 -0.5607
  260MOL0     N35017   4.270   5.276   3.960  0.4230 -1.1015 -0.0734
  260MOL0     C35018   3.750   4.769   3.663 -1.1534  0.2412  0.3382
  260MOL0     C35019   3.620   4.777   3.622 -0.5128  0.2851  0.0750
  260MOL0     C35020   3.156   4.685   3.623 -0.5617  0.0721 -0.1058
  260MOL0     C35021   3.142   4.611   3.505 -1.0319  0.2196  0.7361
  260MOL0     C35022   3.017   4.575   3.448 -0.0796  0.0545 -0.4270
  260MOL0     C35023   2.906   4.623   3.519 -0.3491  0.6542 -0.3075
  260MOL0     O35024   2.775   4.606   3.485 -0.5698 -0.3874 -0.3396
  260MOL0     C35025   2.743   4.523   3.376 -1.5130  0.0081  0.2762
  260MOL0     C35026   2.597   4.523   3.335  0.5274 -0.5924  0.3339
  260MOL0     C35027   2.504   4.482   3.450  0.5266  0.4410  0.0255
  260MOL0     C35028   2.350   4.506   3.431 -0.2621 -0.0350  0.7665
  260MOL0     C35029   2.305   4.406   3.338  0.6257  0.6519 -0.4332
  260MOL0     C35030   2.277   4.314   3.263  0.4886 -0.7153 -0.4583
  260MOL0     C35031   2.919   4.701   3.633 -0.2522 -1.2663 -0.5235
  260MOL0     C35032   3.044   4.730   3.688  0.5689 -0.1845  0.0422
  260MOL0     H35033   3.465   4.540   3.796 -0.6686 -1.1124 -1.3409
  260MOL0     H35034   3.712   4.522   3.880 -0.1226 -0.1479 -0.9114
  260MOL0     H35035   4.101   4.736   3.788 -0.4188 -2.8538 -0.9047
  260MOL0     H35036   3.967   4.846   3.814 -0.0038  0.1485 -1.0487
  260MOL0     H35037   4.050   4.641   4.016  0.0456  0.7414  1.9233
  260MOL0     H35038   4.093   4.804   4.023  1.4562  0.3358 -3.8952
  260MOL0     H35039   3.806   4.715   4.039  0.5793 -0.2027 -0.8992
  260MOL0     H35040   3.913   4.754   4.181  1.5056  0.4378  0.0369
  260MOL0     H35041   3.898   4.977   3.980 -0.1488 -3.2920 -2.8695
  260MOL0     H35042   3.754   4.942   4.085 -0.1182 -0.9588  2.5885
  260MOL0     H35043   3.855   5.108   4.174 -0.3643 -1.1140  1.1026
  260MOL0     H35044   3.889   4.964   4.271 -2.8361 -0.2682 -0.4358
  260MOL0     H35045   4.131   4.969   4.200  0.1375  1.6118  0.9602
  260MOL0     H35046   4.091   5.074   4.061 -0.0098 -1.2540 -0.5493
  260MOL0     H35047   4.002   5.239   4.246 -0.5207 -0.3484  2.6938
  260MOL0     H35048   4.096   5.150   4.358  0.3854  2.8766 -0.4262
  260MOL0     H35049   4.295   5.167   4.212 -0.2460  1.2131  2.6109
  260MOL0     H35050   4.247   5.314   4.288  1.2589 -0.1517  0.7342
  260MOL0     H35051   4.051   5.452   4.122  0.9690  1.4393  0.9683
  260MOL0     H35052   4.082   5.512   3.743  0.0164 -0.6187  0.2552
  260MOL0     H35053   3.963   5.511   3.875  0.0806 -1.6721 -0.7931
  260MOL0     H35054   4.195   5.703   3.908 -0.5144  1.9179  0.0130
  260MOL0     H35055   4.053   5.682   4.012 -1.6647 -0.9413 -0.2357
  260MOL0     H35056   3.899   5.757   3.836  1.1347 -1.2698  0.1417
  260MOL0     H35057   4.034   5.768   3.722 -2.8822 -0.2672 -1.0896
  260MOL0     H35058   3.974   5.988   3.826 -1.6915 -2.0649 -0.5198
  260MOL0     H35059   4.144   5.946   3.870  1.4128 -0.9302  3.9247
  260MOL0     H35060   3.879   5.926   4.227  1.1511 -0.7855 -2.1763
  260MOL0     H35061   3.827   6.159   4.470  2.9586  1.7474 -3.3789
  260MOL0     H35062   3.675   6.152   4.379  0.9797  2.6755 -0.1187
  260MOL0     H35063   3.762   6.002   4.404  0.0597 -0.3270 -2.2685
  260MOL0     H35064   4.100   6.629   4.395 -1.0506 -3.7718  2.2340
  260MOL0     H35065   4.075   6.870   4.410  2.0353 -1.9205 -1.4703
  260MOL0     H35066   3.648   7.076   4.318  0.5160 -0.8566  0.6447
  260MOL0     H35067   3.754   7.206   4.296  0.1638 -0.2275 -1.2604
  260MOL0     H35068   3.722   6.994   4.075 -2.3102  0.9741 -4.4120
  260MOL0     H35069   3.607   7.126   4.110 -0.4642  1.7578  1.4111
  260MOL0     H35070   3.913   7.139   4.066  0.5282 -0.9100 -0.9289
  260MOL0     H35071   3.803   7.287   4.091 -0.5292 -1.2117  2.8865
  260MOL0     H35072   3.742   7.082   3.865  0.4063  0.4958 -2.0196
  260MOL0     H35073   3.670   7.238   3.914  0.5859  2.3293 -1.9478
  260MOL0     H35074   3.943   7.202   3.816  1.4992  1.9843  0.0578
  260MOL0     H35075   3.894   7.359   3.848  0.0751  1.6926 -2.5401
  260MOL0     H35076   3.774   7.172   3.625  2.6057  1.2552 -5.1642
  260MOL0     H35077   3.687   7.318   3.679 -0.5021 -2.0097  0.9718
  260MOL0     H35078   3.964   7.274   3.553  2.0010  3.3900  0.4501
  260MOL0     H35079   3.932   7.421   3.635  3.9189 -1.6943 -0.6561
  260MOL0     H35080   3.865   7.464   3.390  0.1757 -2.6269 -2.2866
  260MOL0     H35081   3.717   7.450   3.484  0.8666  1.7014 -0.4295
  260MOL0     H35082   3.679   6.843   4.217  0.2470  0.1875 -1.9093
  260MOL0     H35083   3.713   6.607   4.218  0.4842 -0.9385 -0.4568
  260MOL0     H35084   3.978   6.370   4.047  2.7155 -1.2608 -0.7857
  260MOL0     H35085   4.027   6.185   3.913 -0.5590  3.6288  0.7051
  260MOL0     H35086   3.811   4.839   3.607 -2.0089  0.7662  0.0477
  260MOL0     H35087   3.587   4.841   3.540  3.1399  0.7858 -1.1924
  260MOL0     H35088   3.232   4.568   3.463 -1.5196 -0.9484  0.8402
  260MOL0     H35089   3.009   4.520   3.355  2.9676  1.9482 -2.0058
  260MOL0     H35090   2.792   4.559   3.285  1.4770  3.2778  2.9276
  260MOL0     H35091   2.774   4.421   3.401 -0.5482  0.7459  2.2458
  260MOL0     H35092   2.571   4.465   3.246 -0.0640  0.8005 -0.4432
  260MOL0     H35093   2.589   4.628   3.305  1.3682 -0.3537  0.9204
  260MOL0     H35094   2.523   4.557   3.527  1.7376  1.1862 -0.9581
  260MOL0     H35095   2.530   4.381   3.484 -1.1874  0.1506  0.5503
  260MOL0     H35096   2.342   4.606   3.387  2.3550 -0.6358 -1.3253
  260MOL0     H35097   2.306   4.504   3.531 -3.2700  1.6117 -0.4100
  260MOL0     H35098   2.262   4.240   3.188  0.0570 -1.0743 -0.0240
  260MOL0     H35099   2.827   4.738   3.677  0.1079 -0.3024 -0.5538
  260MOL0     H35100   3.047   4.796   3.775 -1.6883  0.4173 -0.2641
  261MOL0     O35101  10.782   1.745   5.184  0.1348 -0.4435  0.7814
  261MOL0     C35102  10.792   1.863   5.155  0.2289 -0.3220 -0.2771
  261MOL0     O35103  10.909   1.934   5.154 -0.7001  0.9898 -0.3227
  261MOL0     C35104  11.028   1.866   5.158  0.1033 -0.4644 -0.4744
  261MOL0     C35105  11.052   1.781   5.055 -0.5557  0.5905 -0.2731
  261MOL0     C35106  11.163   1.706   5.055 -0.4793 -0.3440  0.3993
  261MOL0     C35107  11.267   1.723   5.154  0.4106  0.0046  0.4243
  261MOL0     O35108  11.377   1.637   5.139 -0.0191 -0.4096  0.1915
  261MOL0     C35109  11.482   1.636   5.237  0.5495  0.2364 -0.4797
  261MOL0     C35110  11.438   1.585   5.372  0.5156  0.1475  0.1805
  261MOL0     C35111  11.546   1.580   5.480  0.3033 -0.2094  0.3822
  261MOL0     C35112  11.501   1.503   5.612  0.2126 -0.3085  0.3201
  261MOL0     C35113  11.408   1.597   5.697  0.5855 -0.1804  0.2622
  261MOL0     C35114  11.455   1.734   5.733  0.5927  1.2119 -0.0977
  261MOL0     C35115  11.597   1.741   5.788  0.0328  0.4159  0.2520
  261MOL0     C35116  11.634   1.637   5.881  0.4278  0.1355 -0.3030
  261MOL0     N35117  11.778   1.646   5.918  0.3526  0.1272 -0.1781
  261MOL0     C35118  11.877   1.635   5.821 -0.1202  0.4510 -0.1507
  261MOL0     C35119  11.990   1.679   5.887  0.3191  0.7403  0.6554
  261MOL0     C35120  12.123   1.685   5.825 -0.7505  0.0810 -0.2898
  261MOL0     C35121  12.227   1.783   5.902 -0.1883 -0.7330 -0.4233
  261MOL0     C35122  12.186   1.931   5.918 -0.4461  0.4117 -0.3816
  261MOL0     C35123  12.195   2.005   5.784 -0.4898 -0.4210 -0.6124
  261MOL0     O35124  12.085   1.972   5.698  0.5288 -0.1821  0.4631
  261MOL0     C35125  12.037   2.078   5.618  0.0855  0.0394  0.0389
  261MOL0     C35126  12.128   2.158   5.543  0.6079 -0.6525 -1.0005
  261MOL0     C35127  12.090   2.250   5.445  0.1151 -1.9096  0.2679
  261MOL0     C35128  12.187   2.335   5.375  0.5644 -0.3695  0.2637
  261MOL0     C35129  11.950   2.276   5.425 -0.3026  0.3551  0.3734
  261MOL0     C35130  11.884   2.379   5.335 -0.0100  0.2767  0.6103
  261MOL0     O35131  11.754   2.408   5.363 -0.4796 -0.1404 -0.0296
  261MOL0     C35132  11.679   2.476   5.273  0.0933  0.6278  0.8911
  261MOL0     C35133  11.574   2.548   5.329 -0.1314 -0.8871  0.8440
  261MOL0     C35134  11.501   2.641   5.255  0.5226  0.0879  0.7896
  261MOL0     C35135  11.525   2.651   5.115  0.5936 -0.7117 -0.0326
  261MOL0     O35136  11.453   2.741   5.042 -0.1633 -0.1968  0.6418
  261MOL0     C35137  11.456   2.734   4.898 -0.5931 -0.4978  0.6876
  261MOL0     C35138  11.348   2.811   4.834  0.2519 -0.4963  0.7486
  261MOL0     C35139  11.212   2.801   4.900 -0.9208  0.0216 -0.1691
  261MOL0     C35140  11.114   2.878   4.815  0.7241 -0.6077 -0.6471
  261MOL0     C35141  10.962   2.855   4.878  0.2137  0.2282 -0.5240
  261MOL0     C35142  10.854   2.913   4.785 -0.1592 -0.3478 -0.2321
  261MOL0     C35143  10.715   2.957   4.831  0.5110 -0.1402  0.7833
  261MOL0     C35144  10.611   2.840   4.820  0.7016 -0.2958  0.3616
  261MOL0    Cl35145  10.478   2.899   4.933 -0.2608 -0.0637  0.1950
  261MOL0     C35146  11.629   2.575   5.057 -0.0380 -0.5189 -0.4114
  261MOL0     C35147  11.700   2.486   5.136  0.0620 -0.9584  0.4195
  261MOL0     O35148  11.948   2.443   5.251  0.0629 -0.3527  0.0603
  261MOL0     C35149  11.863   2.191   5.504 -0.4749 -0.2830 -0.2140
  261MOL0     C35150  11.903   2.094   5.604 -0.0375  0.0454  0.0938
  261MOL0     N35151  11.945   1.721   6.011 -1.3922 -0.3851 -0.2661
  261MOL0     N35152  11.823   1.708   6.031  0.3758 -0.3612  0.0912
  261MOL0     C35153  11.253   1.815   5.256 -0.4677  0.8627  0.0079
  261MOL0     C35154  11.133   1.893   5.263 -0.1669  0.2059 -0.0502
  261MOL0     C35155  10.672   1.937   5.125  0.0611  0.4730  0.2482
  261MOL0     C35156  10.544   1.868   5.121 -0.3398 -0.1739  0.6632
  261MOL0     C35157  10.425   1.940   5.102  0.4224 -0.3483 -1.1584
  261MOL0     C35158  10.434   2.075   5.085 -0.0009 -0.5920 -0.4168
  261MOL0     O35159  10.313   2.142   5.073  0.3773  0.3836 -0.2673
  261MOL0     C35160  10.235   2.137   5.189  0.8169  0.1413  0.2395
  261MOL0     C35161  10.108   2.225   5.193 -0.0335  0.4591 -0.3253
  261MOL0     C35162   9.998   2.184   5.091 -0.6493 -0.0281  0.5128
  261MOL0     C35163   9.890   2.295   5.075 -0.1228  0.3838 -0.3072
  261MOL0     C35164   9.809   2.313   5.197 -0.8692  1.4209 -0.1360
  261MOL0     C35165   9.731   2.308   5.286 -0.6958 -0.6410  0.2542
  261MOL0     C35166  10.550   2.144   5.101 -0.2346 -0.3783  0.0876
  261MOL0     C35167  10.669   2.073   5.114 -0.1698 -0.4062 -0.1711
  261MOL0     H35168  10.976   1.760   4.980  1.1563 -0.2922 -1.8558
  261MOL0     H35169  11.179   1.632   4.977 -0.8230 -2.6860  2.4162
  261MOL0     H35170  11.556   1.567   5.196  0.2594 -0.0910 -0.4580
  261MOL0     H35171  11.535   1.730   5.252  0.8436 -0.2204  1.6968
  261MOL0     H35172  11.356   1.650   5.404 -0.3067  0.5876 -2.5507
  261MOL0     H35173  11.401   1.483   5.359  1.7170 -0.0686 -1.9837
  261MOL0     H35174  11.640   1.533   5.450  1.6625  2.3885  0.3554
  261MOL0     H35175  11.576   1.684   5.494  1.7252 -0.2229 -2.0448
  261MOL0     H35176  11.455   1.408   5.585 -0.8468  0.2729  0.0104
  261MOL0     H35177  11.599   1.482   5.656  1.1362  1.9795 -0.4837
  261MOL0     H35178  11.305   1.597   5.658 -0.5716 -2.7933  2.9617
  261MOL0     H35179  11.393   1.543   5.791  0.1701  2.5442  1.8630
  261MOL0     H35180  11.447   1.808   5.653 -1.1960  1.0702 -0.0882
  261MOL0     H35181  11.386   1.764   5.812  0.6148  0.4907  0.2123
  261MOL0     H35182  11.671   1.727   5.708 -0.3100 -0.6329  0.1035
  261MOL0     H35183  11.603   1.843   5.828  1.4930 -0.3942  2.2732
  261MOL0     H35184  11.615   1.536   5.844 -1.6264 -1.3593  4.1171
  261MOL0     H35185  11.573   1.644   5.972  0.4268 -0.5001 -0.2484
  261MOL0     H35186  11.863   1.602   5.719 -2.8315  2.5474 -0.5547
  261MOL0     H35187  12.160   1.582   5.832  1.3436  0.6938 -1.6661
  261MOL0     H35188  12.124   1.718   5.721  1.2820  2.3327  0.3588
  261MOL0     H35189  12.324   1.775   5.852 -0.7828 -0.2455 -1.7045
  261MOL0     H35190  12.250   1.752   6.004  3.8247  1.5050 -0.4490
  261MOL0     H35191  12.258   1.976   5.986 -1.8155  2.9910 -0.5165
  261MOL0     H35192  12.089   1.944   5.967 -1.0297 -0.4860 -1.2424
  261MOL0     H35193  12.290   1.980   5.736 -1.1822  0.9485 -2.8505
  261MOL0     H35194  12.182   2.113   5.794 -2.1562 -0.6762  0.2531
  261MOL0     H35195  12.232   2.145   5.572 -0.0641  0.1781  2.1400
  261MOL0     H35196  12.287   2.291   5.382  1.3904  1.2104 -1.0766
  261MOL0     H35197  12.163   2.349   5.269 -3.4856 -1.4344  0.8391
  261MOL0     H35198  12.188   2.429   5.431  1.0620  1.2231 -2.2911
  261MOL0     H35199  11.575   2.565   5.436  0.8717  1.1920  0.5486
  261MOL0     H35200  11.435   2.704   5.314  1.7102  0.8237  1.3676
  261MOL0     H35201  11.555   2.769   4.867 -1.4591  1.1285 -0.3658
  261MOL0     H35202  11.445   2.630   4.866  2.1857 -0.7701  0.3623
  261MOL0     H35203  11.373   2.918   4.838 -2.3515  0.1636  1.6370
  261MOL0     H35204  11.349   2.776   4.731 -1.8637  0.3811  0.3781
  261MOL0     H35205  11.210   2.828   5.005 -0.0848 -1.9972  0.4182
  261MOL0     H35206  11.176   2.697   4.899  0.2460 -0.5654  3.8034
  261MOL0     H35207  11.148   2.981   4.802 -0.6136  0.2776  2.2264
  261MOL0     H35208  11.119   2.830   4.716  0.2593  0.0234 -0.9802
  261MOL0     H35209  10.957   2.893   4.980  2.8475 -3.0989  1.0331
  261MOL0     H35210  10.948   2.747   4.888  2.3918  0.0181  0.9798
  261MOL0     H35211  10.900   3.006   4.749 -1.5835 -0.1526 -1.6375
  261MOL0     H35212  10.835   2.854   4.695 -3.6466  2.5182 -1.6268
  261MOL0     H35213  10.664   3.043   4.786 -0.3699 -2.0793 -2.1608
  261MOL0     H35214  10.736   2.998   4.931  0.7226  0.9319  0.3128
  261MOL0     H35215  10.643   2.747   4.868 -2.2601 -0.3986  2.3888
  261MOL0     H35216  10.566   2.816   4.723  0.6800 -0.3441  0.3838
  261MOL0     H35217  11.657   2.580   4.952 -1.9783 -1.8646 -1.0445
  261MOL0     H35218  11.784   2.445   5.081  1.2009  0.1867  1.2393
  261MOL0     H35219  11.757   2.209   5.491 -0.9134 -2.5303 -0.1864
  261MOL0     H35220  11.849   2.030   5.673  0.0451  0.9177  0.9977
  261MOL0     H35221  11.327   1.830   5.334 -1.5597  1.6141  0.9331
  261MOL0     H35222  11.103   1.962   5.340 -1.5116 -0.5151  0.0894
  261MOL0     H35223  10.529   1.761   5.124 -0.9398 -0.1179 -0.0198
  261MOL0     H35224  10.333   1.885   5.088  1.3139 -1.3088 -3.8134
  261MOL0     H35225  10.196   2.038   5.213 -0.4136  0.4618 -0.3804
  261MOL0     H35226  10.304   2.167   5.270  1.3470 -4.5246  1.8038
  261MOL0     H35227  10.133   2.331   5.182 -2.4036  1.2211  1.0397
  261MOL0     H35228  10.064   2.216   5.292 -0.1443  0.6604 -0.3578
  261MOL0     H35229   9.957   2.087   5.122 -0.0137 -0.8069 -0.9932
  261MOL0     H35230  10.047   2.166   4.995  0.0670 -1.9502  1.2007
  261MOL0     H35231   9.827   2.270   4.989 -0.3730 -3.2249  0.7623
  261MOL0     H35232   9.929   2.395   5.053  3.2270 -0.1354  2.3866
  261MOL0     H35233   9.655   2.319   5.361  0.5793  3.2756  1.2341
  261MOL0     H35234  10.543   2.253   5.105 -0.0420 -0.4056  2.3002
  261MOL0     H35235  10.758   2.133   5.129  0.3455 -1.0236 -0.6937
  262MOL0     O35236   3.442   7.888   6.805 -0.1039  0.0137 -0.5621
  262MOL0     C35237   3.551   7.828   6.800  0.3944 -0.8630 -0.3989
  262MOL0     O35238   3.620   7.775   6.894  1.0496  0.0015  0.0401
  262MOL0     C35239   3.552   7.763   7.010 -0.0977 -0.9542 -0.2946
  262MOL0     C35240   3.526   7.631   7.059 -0.5950  0.9233 -0.1564
  262MOL0     C35241   3.475   7.616   7.186 -0.3253  0.1475  1.4963
  262MOL0     C35242   3.422   7.725   7.262  0.4967  0.3604  0.0277
  262MOL0     O35243   3.348   7.691   7.371 -0.5735 -0.0466 -0.8185
  262MOL0     C35244   3.307   7.797   7.457 -0.1446 -0.2185 -0.6866
  262MOL0     C35245   3.235   7.724   7.582  0.4793  0.4836  0.3089
  262MOL0     C35246   3.152   7.812   7.674  0.2864  0.0328 -0.4811
  262MOL0     C35247   3.034   7.877   7.585  0.1343  0.6473 -0.1185
  262MOL0     C35248   2.915   7.916   7.668  0.7222 -0.3732 -0.2152
  262MOL0     C35249   2.825   7.782   7.696  0.1852  0.3562  0.4450
  262MOL0     C35250   2.724   7.757   7.585 -0.7005  0.1260  0.6552
  262MOL0     C35251   2.604   7.856   7.576 -0.5056 -0.0032  0.0077
  262MOL0     N35252   2.545   7.867   7.707  0.1410 -0.4893 -0.1079
  262MOL0     C35253   2.494   7.770   7.789 -0.7505  0.3712 -0.3839
  262MOL0     C35254   2.449   7.835   7.902  0.4004 -0.2623  0.6831
  262MOL0     C35255   2.370   7.780   8.014 -1.3408 -0.2911  0.2431
  262MOL0     C35256   2.263   7.883   8.066  0.7589 -0.3503 -0.6123
  262MOL0     C35257   2.160   7.929   7.951  0.2547 -0.2204  0.0205
  262MOL0     C35258   2.022   7.945   8.013 -0.5229 -0.5160 -0.1666
  262MOL0     O35259   1.986   7.816   8.045  0.0645  0.5008 -0.6442
  262MOL0     C35260   1.859   7.789   8.101  0.4549 -0.3976  0.2627
  262MOL0     C35261   1.757   7.890   8.116 -0.4070 -0.3855 -0.3532
  262MOL0     C35262   1.639   7.872   8.196 -0.4485  0.2822  0.2394
  262MOL0     C35263   1.543   7.989   8.224  0.0070  0.6000  0.8453
  262MOL0     C35264   1.626   7.745   8.255 -0.4302 -0.2478 -0.0919
  262MOL0     C35265   1.505   7.717   8.344 -0.7252 -0.0067  0.1392
  262MOL0     O35266   1.533   7.632   8.441 -0.1268  0.3138  0.4594
  262MOL0     C35267   1.437   7.578   8.520  0.3223 -0.2204 -0.1894
  262MOL0     C35268   1.331   7.521   8.463  1.2676  0.1503  0.0389
  262MOL0     C35269   1.226   7.472   8.544  0.2020 -0.2546 -0.6584
  262MOL0     C35270   1.236   7.460   8.680 -0.3967 -0.0341 -0.2758
  262MOL0     O35271   1.126   7.426   8.755  0.1721  0.5901  0.0344
  262MOL0     C35272   1.134   7.411   8.896  0.7013  0.3570 -0.4946
  262MOL0     C35273   1.120   7.539   8.973  0.1084 -0.0254 -0.1611
  262MOL0     C35274   1.064   7.511   9.116  0.4574 -0.5410  0.6586
  262MOL0     C35275   0.907   7.529   9.119  0.5160  1.3049  0.3891
  262MOL0     C35276   0.843   7.451   9.236  1.3777  1.0635 -0.3425
  262MOL0     C35277   0.698   7.399   9.212  0.2137 -0.1746 -0.2136
  262MOL0     C35278   0.648   7.319   9.332 -0.8402 -0.4464 -0.5433
  262MOL0     C35279   0.615   7.169   9.292 -0.4083  0.1910  0.1243
  262MOL0    Cl35280   0.450   7.174   9.217  0.0849 -0.6699 -0.1121
  262MOL0     C35281   1.354   7.513   8.736  0.2452  0.0059  0.1888
  262MOL0     C35282   1.452   7.574   8.659  0.6161  0.6589  0.4655
  262MOL0     O35283   1.391   7.761   8.312  0.0633  0.1046 -0.5301
  262MOL0     C35284   1.722   7.647   8.241  0.3539  0.7894 -0.7271
  262MOL0     C35285   1.836   7.664   8.162 -0.5485  0.0997 -0.6047
  262MOL0     N35286   2.473   7.972   7.880 -0.2636  0.2873  0.6781
  262MOL0     N35287   2.534   7.990   7.768 -0.7755  0.0302 -0.0561
  262MOL0     C35288   3.431   7.853   7.204  0.2778 -0.3417 -0.9406
  262MOL0     C35289   3.500   7.873   7.085  0.4481 -0.0563 -0.0605
  262MOL0     C35290   3.599   7.811   6.662 -0.0640  0.6214  0.2492
  262MOL0     C35291   3.684   7.691   6.638 -0.4651  0.0645 -0.7643
  262MOL0     C35292   3.735   7.671   6.508  0.3261  0.4416  0.2825
  262MOL0     C35293   3.705   7.757   6.405 -0.6167  0.5087 -0.5882
  262MOL0     O35294   3.719   7.714   6.274  0.4622  0.0916 -0.2777
  262MOL0     C35295   3.659   7.799   6.166  0.5126  0.4750  0.8114
  262MOL0     C35296   3.679   7.742   6.025  0.3406 -0.5172  0.4498
  262MOL0     C35297   3.614   7.815   5.911  0.1415  0.0887  1.3539
  262MOL0     C35298   3.679   7.951   5.906  0.2037  0.1008  0.1109
  262MOL0     C35299   3.635   8.011   5.776  0.6099 -0.1833  0.3254
  262MOL0     C35300   3.584   8.055   5.677  0.6448 -0.2326 -0.0198
  262MOL0     C35301   3.624   7.870   6.430  0.7641 -0.3297 -0.0897
  262MOL0     C35302   3.571   7.894   6.554  0.2947 -0.6886 -1.1427
  262MOL0     H35303   3.546   7.545   6.996  0.2201 -0.7828  2.2571
  262MOL0     H35304   3.467   7.511   7.212 -3.5534 -0.1913 -0.3933
  262MOL0     H35305   3.387   7.861   7.496 -0.5613  0.0596 -0.2721
  262MOL0     H35306   3.236   7.861   7.404  1.8894  2.1559 -0.6992
  262MOL0     H35307   3.163   7.653   7.543  2.1239 -2.7326  2.6748
  262MOL0     H35308   3.304   7.674   7.650 -1.4169 -1.2512  1.0361
  262MOL0     H35309   3.105   7.763   7.760  1.2498  0.1489  0.1333
  262MOL0     H35310   3.222   7.891   7.701  0.3306  0.5254 -1.9892
  262MOL0     H35311   3.066   7.973   7.542  0.8458  0.9407  0.9995
  262MOL0     H35312   3.009   7.811   7.502  1.1458  2.5956 -2.0999
  262MOL0     H35313   2.944   7.938   7.772 -0.1206  1.5121 -0.3380
  262MOL0     H35314   2.866   8.004   7.626 -1.9568 -0.6019  2.1820
  262MOL0     H35315   2.894   7.698   7.703  0.2360  0.4721  1.4377
  262MOL0     H35316   2.764   7.780   7.787 -0.2626 -0.8316  0.1314
  262MOL0     H35317   2.775   7.757   7.488 -1.0553 -0.7036  0.4553
  262MOL0     H35318   2.682   7.656   7.594 -0.0096 -0.1623  0.7090
  262MOL0     H35319   2.517   7.832   7.514 -0.4682  1.1786 -0.5251
  262MOL0     H35320   2.638   7.953   7.539 -2.3794 -0.1552 -2.3700
  262MOL0     H35321   2.499   7.663   7.775  0.3083  0.0799  1.8301
  262MOL0     H35322   2.325   7.686   7.980  0.5751 -1.1926  0.0515
  262MOL0     H35323   2.436   7.755   8.098 -1.6218 -1.5638  0.1103
  262MOL0     H35324   2.315   7.960   8.124  1.2177  0.0487 -1.5360
  262MOL0     H35325   2.204   7.837   8.146  1.1032 -2.5797 -1.5660
  262MOL0     H35326   2.149   7.869   7.860 -0.4025  3.2264 -2.3639
  262MOL0     H35327   2.193   8.025   7.911  1.6611 -0.5964  0.1930
  262MOL0     H35328   1.952   7.987   7.941 -0.1376  0.8308  0.2273
  262MOL0     H35329   2.035   8.007   8.102 -0.2048  1.1580 -1.3364
  262MOL0     H35330   1.765   7.984   8.061 -0.0639 -0.0734  0.2224
  262MOL0     H35331   1.476   7.975   8.309 -2.4330 -0.3696 -1.0941
  262MOL0     H35332   1.590   8.087   8.235 -0.8814  0.9556  1.6659
  262MOL0     H35333   1.484   8.008   8.134  1.2940 -1.1449 -0.4420
  262MOL0     H35334   1.320   7.511   8.356 -1.0189  1.3108  0.1092
  262MOL0     H35335   1.140   7.426   8.496 -0.0993 -1.0180  0.5824
  262MOL0     H35336   1.042   7.355   8.919  1.0276 -0.3385 -0.8619
  262MOL0     H35337   1.215   7.346   8.930  1.1199  2.1589  2.3080
  262MOL0     H35338   1.210   7.601   8.981 -0.9641  1.3869  2.7956
  262MOL0     H35339   1.041   7.593   8.919 -1.1662 -1.7283 -0.0593
  262MOL0     H35340   1.104   7.587   9.184 -0.3489  0.6571 -0.1511
  262MOL0     H35341   1.104   7.414   9.146 -0.7993 -1.6933 -1.1559
  262MOL0     H35342   0.879   7.635   9.126 -2.7211  0.5542  0.5312
  262MOL0     H35343   0.859   7.503   9.024 -1.6267  0.8437  1.5330
  262MOL0     H35344   0.841   7.504   9.332 -3.6455 -1.2536  1.1730
  262MOL0     H35345   0.899   7.357   9.241  1.3265  0.8643 -2.4764
  262MOL0     H35346   0.639   7.491   9.202  1.3049  0.5445 -0.2415
  262MOL0     H35347   0.690   7.352   9.113  4.0811 -0.6687 -0.4322
  262MOL0     H35348   0.555   7.362   9.369  0.0458 -0.3775  1.7805
  262MOL0     H35349   0.728   7.309   9.406 -1.7061 -0.5325  0.3937
  262MOL0     H35350   0.610   7.101   9.377  0.7548 -0.3775 -0.2366
  262MOL0     H35351   0.688   7.133   9.219  0.6522 -0.7215  1.5968
  262MOL0     H35352   1.358   7.494   8.843 -1.8331 -5.9798 -0.3781
  262MOL0     H35353   1.553   7.593   8.693  1.5354 -1.5087 -0.8331
  262MOL0     H35354   1.700   7.550   8.285  0.8464  0.1544 -1.8241
  262MOL0     H35355   1.915   7.590   8.157 -1.5808 -1.4165  2.6772
  262MOL0     H35356   3.399   7.939   7.261  1.8096 -0.5922  0.4061
  262MOL0     H35357   3.521   7.971   7.043  2.3950 -0.7938 -0.9181
  262MOL0     H35358   3.695   7.625   6.723 -0.2538  0.4231 -0.5073
  262MOL0     H35359   3.811   7.597   6.483  0.8247  1.7450 -2.3480
  262MOL0     H35360   3.551   7.816   6.176  0.5867  1.3276  0.3111
  262MOL0     H35361   3.701   7.900   6.166  2.6262 -0.3432 -0.7789
  262MOL0     H35362   3.633   7.643   6.034 -1.2650  0.2337  0.8269
  262MOL0     H35363   3.785   7.731   6.002  0.4187 -0.0257  0.5554
  262MOL0     H35364   3.507   7.806   5.930  0.1375 -2.5352  0.5185
  262MOL0     H35365   3.632   7.768   5.814 -3.7126 -0.5554  0.8050
  262MOL0     H35366   3.788   7.943   5.902  0.3891  2.3234 -0.6366
  262MOL0     H35367   3.654   8.007   5.997 -1.3646 -0.3523 -0.0116
  262MOL0     H35368   3.543   8.104   5.592 -0.4413  1.8039  1.5873
  262MOL0     H35369   3.601   7.946   6.356  0.1597 -1.4083 -1.0458
  262MOL0     H35370   3.525   7.991   6.570  1.5622 -0.3872  1.0701
  263MOL0     O35371   9.409   3.076   6.605 -0.1650 -1.0057  0.5561
  263MOL0     C35372   9.378   3.090   6.724  0.7750  0.9816 -0.1357
  263MOL0     O35373   9.464   3.088   6.823 -0.3969  0.9202  0.3548
  263MOL0     C35374   9.595   3.025   6.808  0.7977 -0.0292  0.0196
  263MOL0     C35375   9.685   3.060   6.709 -0.0042  0.0431 -0.4211
  263MOL0     C35376   9.822   3.005   6.717  0.6791  0.6573  0.1098
  263MOL0     C35377   9.855   2.907   6.816 -0.4678  0.3790 -0.7504
  263MOL0     O35378   9.980   2.845   6.820 -0.5005 -0.4981 -0.0242
  263MOL0     C35379  10.074   2.865   6.717  0.1225 -0.2228  0.8586
  263MOL0     C35380  10.206   2.785   6.742 -0.0527  0.2224  0.5801
  263MOL0     C35381  10.314   2.855   6.823 -0.3067 -0.3888 -0.2313
  263MOL0     C35382  10.266   2.915   6.956 -0.1624  0.0794 -0.1742
  263MOL0     C35383  10.375   2.971   7.033 -0.2798  0.1387  0.7118
  263MOL0     C35384  10.479   2.871   7.085  0.4794 -0.8632  1.0611
  263MOL0     C35385  10.606   2.945   7.134 -0.3555 -0.7648 -0.0953
  263MOL0     C35386  10.581   3.041   7.254  1.0624  0.2208 -0.8246
  263MOL0     N35387  10.512   2.977   7.369  0.6398  0.4648 -0.2826
  263MOL0     C35388  10.388   2.999   7.430 -0.5061  0.5933  0.3554
  263MOL0     C35389  10.396   2.948   7.550  0.1985  0.3788 -0.1065
  263MOL0     C35390  10.300   2.937   7.660 -0.3478  0.0103 -0.3078
  263MOL0     C35391  10.315   3.046   7.767  0.2135  0.4834  0.1635
  263MOL0     C35392  10.244   3.012   7.895  0.2022 -0.3738  0.0898
  263MOL0     C35393  10.094   2.996   7.894 -1.0564 -0.0957  0.3218
  263MOL0     O35394  10.043   3.121   7.855 -0.4691  0.8006  0.2881
  263MOL0     C35395   9.910   3.129   7.831  0.1932  0.3795  0.0172
  263MOL0     C35396   9.808   3.052   7.899  0.4596  0.2779  0.2843
  263MOL0     C35397   9.673   3.082   7.874 -0.5222  0.1336  0.0492
  263MOL0     C35398   9.569   3.008   7.951 -1.3590  0.4052  0.4965
  263MOL0     C35399   9.642   3.155   7.759  0.4246 -0.9789  0.2332
  263MOL0     C35400   9.502   3.175   7.709  0.8812 -0.1242  0.5914
  263MOL0     O35401   9.458   3.054   7.666  0.2682 -0.2206 -0.4479
  263MOL0     C35402   9.329   3.016   7.656  0.5373 -0.2467 -0.0679
  263MOL0     C35403   9.311   2.877   7.647  0.3692 -0.1652 -0.5663
  263MOL0     C35404   9.184   2.821   7.661 -0.5532 -0.0444 -0.1049
  263MOL0     C35405   9.066   2.900   7.660 -0.7519  0.3507 -0.5612
  263MOL0     O35406   8.938   2.856   7.677 -0.2139  0.4728  0.4273
  263MOL0     C35407   8.928   2.736   7.754 -0.0494 -0.1502 -0.4584
  263MOL0     C35408   8.770   2.727   7.787 -1.0620  0.5631 -0.7318
  263MOL0     C35409   8.688   2.672   7.670  0.5124 -0.6406  0.1480
  263MOL0     C35410   8.538   2.666   7.697  0.0710  0.5525  1.2869
  263MOL0     C35411   8.453   2.572   7.611  0.4595  0.3127 -0.8222
  263MOL0     C35412   8.301   2.583   7.633 -0.1038 -0.3401 -1.1644
  263MOL0     C35413   8.241   2.465   7.560  0.4492  0.3102  0.6986
  263MOL0     C35414   8.087   2.449   7.596 -0.7845 -0.4130  0.5371
  263MOL0    Cl35415   8.024   2.312   7.499 -0.5569  0.2975 -0.1515
  263MOL0     C35416   9.084   3.044   7.653  0.2154  0.2040 -0.2413
  263MOL0     C35417   9.215   3.095   7.654 -0.9603  0.0142  0.4273
  263MOL0     O35418   9.449   3.282   7.686  0.5413 -0.1042  0.1634
  263MOL0     C35419   9.746   3.211   7.681 -0.3233  0.0253 -1.0853
  263MOL0     C35420   9.875   3.200   7.720  0.4007  0.1433  0.9605
  263MOL0     N35421  10.522   2.892   7.561  0.1740 -0.4643  0.0120
  263MOL0     N35422  10.595   2.916   7.455  0.0100 -1.2058 -0.1063
  263MOL0     C35423   9.760   2.882   6.908 -0.2403 -0.1223  0.0152
  263MOL0     C35424   9.630   2.936   6.906  0.0443  0.2190  0.1516
  263MOL0     C35425   9.234   3.105   6.767  0.1756 -0.3373 -0.0515
  263MOL0     C35426   9.140   3.132   6.665 -1.3840  0.6069  0.5374
  263MOL0     C35427   9.001   3.118   6.680  0.0797 -0.3856 -0.0629
  263MOL0     C35428   8.955   3.098   6.816  0.5600  0.5586  0.0640
  263MOL0     O35429   8.820   3.086   6.827  0.2851 -0.6101 -0.0426
  263MOL0     C35430   8.753   3.056   6.947  0.7179  0.9713  0.4147
  263MOL0     C35431   8.613   2.998   6.920 -1.5717 -1.4144 -0.1940
  263MOL0     C35432   8.532   3.088   6.814  0.0141  0.1303  0.2702
  263MOL0     C35433   8.380   3.036   6.798  0.0718  0.6067  0.0140
  263MOL0     C35434   8.360   2.894   6.832  1.0523 -1.1961 -1.1770
  263MOL0     C35435   8.336   2.788   6.892  0.0414  0.0981 -0.5213
  263MOL0     C35436   9.050   3.088   6.924  0.5653 -0.4802  0.2567
  263MOL0     C35437   9.185   3.108   6.897  0.2612 -0.1497 -0.0885
  263MOL0     H35438   9.654   3.116   6.622  1.4106 -0.2319 -1.1208
  263MOL0     H35439   9.886   3.030   6.633  2.0874  3.3096  1.8267
  263MOL0     H35440  10.029   2.838   6.621  1.1947 -1.3321  0.6443
  263MOL0     H35441  10.100   2.971   6.720  5.0978 -1.2089  3.5192
  263MOL0     H35442  10.185   2.688   6.788 -0.5954 -0.2567 -0.6071
  263MOL0     H35443  10.259   2.768   6.647  1.2391  3.1466  0.6708
  263MOL0     H35444  10.384   2.774   6.844  3.7503  2.5596 -1.0807
  263MOL0     H35445  10.374   2.933   6.775  0.1009 -0.0950  0.7260
  263MOL0     H35446  10.193   2.992   6.928  0.2815  0.1626 -1.1447
  263MOL0     H35447  10.218   2.838   7.017  0.0289  0.9553  1.1166
  263MOL0     H35448  10.426   3.044   6.970 -0.8650 -0.2387 -0.2052
  263MOL0     H35449  10.324   3.026   7.113  3.0819  2.6063  1.4198
  263MOL0     H35450  10.443   2.805   7.164  5.0070 -1.2407  3.1273
  263MOL0     H35451  10.525   2.805   7.011 -1.3745 -1.0490  0.0075
  263MOL0     H35452  10.681   2.871   7.165 -0.5724 -0.2002  1.9593
  263MOL0     H35453  10.650   3.018   7.065  0.2916  0.8906  1.9518
  263MOL0     H35454  10.531   3.131   7.216 -1.7844 -1.7125 -2.0173
  263MOL0     H35455  10.680   3.075   7.283  0.8751 -0.3971  0.6032
  263MOL0     H35456  10.307   3.056   7.386 -0.5505  0.2668  0.0084
  263MOL0     H35457  10.198   2.942   7.621 -0.4913  1.6076  0.2288
  263MOL0     H35458  10.307   2.841   7.713 -1.3984 -0.1613 -0.4536
  263MOL0     H35459  10.272   3.139   7.728  0.3348  0.7249  0.5988
  263MOL0     H35460  10.420   3.062   7.793 -0.3030 -0.2191  2.9667
  263MOL0     H35461  10.284   3.077   7.974  1.6966 -0.5575 -0.4864
  263MOL0     H35462  10.281   2.915   7.928 -2.3844 -0.9317  1.6867
  263MOL0     H35463  10.051   2.974   7.992 -3.1497  2.1580  0.0046
  263MOL0     H35464  10.060   2.932   7.812 -1.1068  1.5090 -0.9858
  263MOL0     H35465   9.842   3.002   7.988  3.6378  0.0240 -0.9213
  263MOL0     H35466   9.478   3.067   7.966 -2.1662 -1.0234  1.4993
  263MOL0     H35467   9.549   2.920   7.890 -0.6122  1.7491 -1.7870
  263MOL0     H35468   9.609   2.984   8.050 -0.0586 -0.3168 -0.1847
  263MOL0     H35469   9.399   2.812   7.649 -0.7185 -2.0395  5.0358
  263MOL0     H35470   9.178   2.713   7.648  2.5091 -0.6971  2.6813
  263MOL0     H35471   8.957   2.641   7.708 -3.6236 -2.4809  1.5843
  263MOL0     H35472   8.993   2.747   7.841  0.5181 -0.5994 -0.8156
  263MOL0     H35473   8.758   2.652   7.866  0.5785  0.5601 -0.4537
  263MOL0     H35474   8.742   2.825   7.826  2.1937  2.3453 -2.4047
  263MOL0     H35475   8.720   2.572   7.640  2.0595  0.5798 -2.6858
  263MOL0     H35476   8.700   2.738   7.584  0.2023  2.1088  2.0564
  263MOL0     H35477   8.528   2.648   7.804 -0.3920  0.9920  1.3255
  263MOL0     H35478   8.488   2.763   7.686 -5.0540 -1.8486  0.5948
  263MOL0     H35479   8.490   2.469   7.617  1.7454  0.7194 -1.4733
  263MOL0     H35480   8.471   2.594   7.506 -2.8928  1.2179 -1.3186
  263MOL0     H35481   8.276   2.585   7.740  2.1797  1.4187 -0.5857
  263MOL0     H35482   8.270   2.675   7.583  1.4649 -0.3078 -2.1375
  263MOL0     H35483   8.291   2.376   7.600 -0.3789 -0.5474 -0.1475
  263MOL0     H35484   8.240   2.482   7.452 -0.8839 -1.3899  0.3992
  263MOL0     H35485   8.030   2.540   7.572  1.9741  1.6197  1.0983
  263MOL0     H35486   8.073   2.440   7.704 -2.0959 -0.2205  0.3913
  263MOL0     H35487   8.994   3.104   7.661 -0.0840 -0.2326 -0.3066
  263MOL0     H35488   9.236   3.201   7.662 -0.9452 -0.1068  2.7612
  263MOL0     H35489   9.733   3.270   7.591  0.9970  0.0951 -1.2452
  263MOL0     H35490   9.957   3.238   7.659  0.1242  0.5604  0.8427
  263MOL0     H35491   9.775   2.803   6.981 -0.8933 -1.3134 -1.1023
  263MOL0     H35492   9.565   2.898   6.985 -0.2457  0.0720 -0.1569
  263MOL0     H35493   9.171   3.152   6.563 -1.3661 -1.1193  0.1682
  263MOL0     H35494   8.933   3.118   6.596  2.4887 -0.0020 -2.1261
  263MOL0     H35495   8.810   2.981   7.003  0.1419 -1.3517 -1.8880
  263MOL0     H35496   8.741   3.147   7.006  3.5086  1.0773  0.9847
  263MOL0     H35497   8.569   2.985   7.019  0.1240 -2.0524  0.5292
  263MOL0     H35498   8.611   2.896   6.879  2.5002 -0.9656 -2.0326
  263MOL0     H35499   8.574   3.104   6.714  1.6386 -0.7892  0.7767
  263MOL0     H35500   8.540   3.188   6.858 -4.9119  1.2750 -0.8188
  263MOL0     H35501   8.353   3.053   6.694 -0.7028  3.2519  0.5596
  263MOL0     H35502   8.313   3.088   6.867 -0.9858 -2.2921  1.3295
  263MOL0     H35503   8.312   2.703   6.953  1.4533 -1.2065 -1.7175
  263MOL0     H35504   9.013   3.061   7.023  0.2726 -0.2195  0.2238
  263MOL0     H35505   9.259   3.115   6.976 -0.5299  2.3196  0.5167
  264MOL0     O35506   0.398  10.590   9.726  0.3243 -0.1089 -0.5131
  264MOL0     C35507   0.448  10.700   9.701  0.4399 -0.3755 -0.7063
  264MOL0     O35508   0.385  10.815   9.656  0.3398  0.4992  0.5094
  264MOL0     C35509   0.249  10.808   9.622 -1.2547  0.5490 -0.9452
  264MOL0     C35510   0.167  10.902   9.679  0.4952  0.1342  1.2089
  264MOL0     C35511   0.031  10.892   9.640 -0.1704  0.0388 -0.3775
  264MOL0     C35512  -0.024  10.788   9.558  0.6009  0.5285 -0.0119
  264MOL0     O35513  -0.160  10.787   9.549 -0.0522 -0.0926 -0.1345
  264MOL0     C35514  -0.226  10.697   9.444 -0.1359  0.3076 -0.5226
  264MOL0     C35515  -0.374  10.740   9.422  0.1163  0.2464 -0.7362
  264MOL0     C35516  -0.375  10.879   9.361  0.0999  1.1416  0.6182
  264MOL0     C35517  -0.511  10.906   9.309  0.5344  0.5974 -1.1102
  264MOL0     C35518  -0.626  10.920   9.416 -0.3128 -0.0891  1.0115
  264MOL0     C35519  -0.745  10.994   9.365  0.2295 -0.0293 -0.0974
  264MOL0     C35520  -0.876  10.997   9.456  0.2338 -0.1397  0.7912
  264MOL0     C35521  -0.989  10.927   9.373 -0.3918 -0.0835 -0.7181
  264MOL0     N35522  -1.109  10.887   9.434 -0.3231 -1.0314 -0.1853
  264MOL0     C35523  -1.124  10.782   9.525  0.6056  0.7964  0.1126
  264MOL0     C35524  -1.247  10.801   9.575 -0.5850  0.6657 -0.1101
  264MOL0     C35525  -1.323  10.703   9.666  0.4177 -0.1835 -0.0474
  264MOL0     C35526  -1.475  10.733   9.675  0.8630  0.0561  0.3510
  264MOL0     C35527  -1.554  10.615   9.742 -0.6847 -0.9923  0.5853
  264MOL0     C35528  -1.703  10.647   9.733  0.5883  0.7521 -0.2628
  264MOL0     O35529  -1.782  10.546   9.795 -0.0749 -0.2343 -0.3674
  264MOL0     C35530  -1.913  10.581   9.831 -1.0102  0.1252 -0.8941
  264MOL0     C35531  -1.981  10.687   9.781 -0.2285  0.0766 -1.2087
  264MOL0     C35532  -2.109  10.720   9.842 -0.2885 -0.5892 -0.1652
  264MOL0     C35533  -2.168  10.852   9.792  0.0935  0.0148 -0.1402
  264MOL0     C35534  -2.165  10.624   9.932  0.4140  0.4422 -0.4415
  264MOL0     C35535  -2.305  10.647   9.989 -0.0994 -0.2264 -0.7821
  264MOL0     O35536  -2.378  10.763   9.961  0.0162  0.0856  0.0756
  264MOL0     C35537  -2.508  10.775  10.004  0.0162  0.3370 -0.7293
  264MOL0     C35538  -2.615  10.764   9.920  0.0634 -0.1016 -0.5485
  264MOL0     C35539  -2.743  10.794   9.966 -0.6405 -0.4722 -0.3731
  264MOL0     C35540  -2.758  10.826  10.102 -0.2023  0.7735 -0.3538
  264MOL0     O35541  -2.888  10.853  10.130 -0.5088  0.3158  0.3147
  264MOL0     C35542  -2.941  10.791  10.252 -0.6401  0.0912  0.1499
  264MOL0     C35543  -3.088  10.811  10.236 -0.4604 -0.4720  0.2033
  264MOL0     C35544  -3.155  10.815  10.380 -0.0656  0.3149  1.0087
  264MOL0     C35545  -3.297  10.789  10.372  0.4588  0.1409  0.1139
  264MOL0     C35546  -3.344  10.734  10.512 -0.8293 -0.2751  0.1169
  264MOL0     C35547  -3.495  10.726  10.539 -0.3139  0.7705 -0.0731
  264MOL0     C35548  -3.571  10.643  10.427  0.1762  0.0529  0.2605
  264MOL0     C35549  -3.549  10.496  10.437  0.1349 -0.7650  0.1484
  264MOL0    Cl35550  -3.660  10.415  10.304 -0.2468  0.5207  0.0245
  264MOL0     C35551  -2.654  10.829  10.193 -0.3296  0.0438 -0.1419
  264MOL0     C35552  -2.526  10.818  10.138 -0.8439  0.0173  0.7713
  264MOL0     O35553  -2.352  10.557  10.057  0.3571 -0.4978 -0.4857
  264MOL0     C35554  -2.095  10.514   9.971  0.0457  0.7874 -0.0574
  264MOL0     C35555  -1.966  10.495   9.922  0.4966 -0.0470 -0.7431
  264MOL0     N35556  -1.302  10.920   9.532 -0.5027 -0.4482 -0.3810
  264MOL0     N35557  -1.225  10.971   9.448 -0.9374  0.2909 -0.2531
  264MOL0     C35558   0.063  10.691   9.514 -0.3011  0.7043  0.0467
  264MOL0     C35559   0.200  10.705   9.538 -0.1422  0.2169  0.3233
  264MOL0     C35560   0.593  10.704   9.710 -0.1401 -0.2820  0.1718
  264MOL0     C35561   0.666  10.587   9.743 -0.4870  0.0526 -0.4726
  264MOL0     C35562   0.812  10.599   9.759  0.5773  0.2473  0.1920
  264MOL0     C35563   0.880  10.710   9.729 -0.3566 -0.0789 -0.8103
  264MOL0     O35564   1.021  10.719   9.723  0.8656 -0.6232  0.5265
  264MOL0     C35565   1.091  10.613   9.785 -0.4085 -0.1244 -0.0744
  264MOL0     C35566   1.233  10.619   9.757 -0.9584  0.6451 -0.2378
  264MOL0     C35567   1.317  10.500   9.801  0.4069 -0.1674 -0.1686
  264MOL0     C35568   1.438  10.469   9.709 -0.0797 -0.3667 -0.7205
  264MOL0     C35569   1.527  10.375   9.783 -1.6027  0.6211 -0.0455
  264MOL0     C35570   1.598  10.296   9.845 -0.6223  0.3236  0.9227
  264MOL0     C35571   0.808  10.824   9.703  0.8105 -0.9138  0.2147
  264MOL0     C35572   0.671  10.821   9.685 -0.2351 -0.8221 -0.3077
  264MOL0     H35573   0.199  10.982   9.745  1.2992  0.2998  0.6324
  264MOL0     H35574  -0.040  10.956   9.691 -0.1311  0.0743 -0.3675
  264MOL0     H35575  -0.184  10.708   9.344 -2.5087 -0.5630 -1.7065
  264MOL0     H35576  -0.220  10.594   9.480 -0.8754  1.6413  4.1211
  264MOL0     H35577  -0.428  10.667   9.362 -1.6644  1.9151 -1.2728
  264MOL0     H35578  -0.425  10.744   9.519  0.8035 -0.6371 -0.3193
  264MOL0     H35579  -0.341  10.949   9.438 -0.2682 -0.2802  2.1448
  264MOL0     H35580  -0.300  10.891   9.283 -1.9010  1.0487 -1.4176
  264MOL0     H35581  -0.506  11.002   9.258  1.4327  2.0111  1.4489
  264MOL0     H35582  -0.545  10.831   9.238 -1.8644  2.3846 -1.9775
  264MOL0     H35583  -0.656  10.818   9.440 -1.1908 -0.0615  0.0617
  264MOL0     H35584  -0.592  10.980   9.502 -0.2401  1.5594 -0.1102
  264MOL0     H35585  -0.712  11.095   9.339  0.5245 -0.8487 -3.3972
  264MOL0     H35586  -0.760  10.951   9.266  2.3547  0.5771 -0.7308
  264MOL0     H35587  -0.859  10.941   9.548  1.0316 -3.0783 -1.0041
  264MOL0     H35588  -0.901  11.101   9.477 -1.7936 -0.5417  0.5614
  264MOL0     H35589  -0.948  10.841   9.321 -0.8975  0.0463 -1.3395
  264MOL0     H35590  -1.025  11.002   9.302 -0.2602 -0.8700 -1.6305
  264MOL0     H35591  -1.077  10.685   9.541  1.8971  1.0992 -1.5815
  264MOL0     H35592  -1.320  10.603   9.621 -0.9232 -0.0083 -0.5722
  264MOL0     H35593  -1.281  10.694   9.766  3.6589 -0.7003 -1.3366
  264MOL0     H35594  -1.505  10.726   9.570  0.4062 -0.9171  0.5359
  264MOL0     H35595  -1.488  10.832   9.719  0.4143  0.4214 -0.5848
  264MOL0     H35596  -1.527  10.611   9.848  2.3079  1.1491  0.0626
  264MOL0     H35597  -1.530  10.521   9.691 -0.5777  0.8595 -3.2114
  264MOL0     H35598  -1.738  10.651   9.630 -3.8184  0.5283  1.0312
  264MOL0     H35599  -1.715  10.746   9.777 -0.3756 -0.3827  2.2071
  264MOL0     H35600  -1.949  10.751   9.699  1.8298 -0.0093 -0.5470
  264MOL0     H35601  -2.237  10.824   9.712  0.0266  1.1108 -0.4799
  264MOL0     H35602  -2.218  10.914   9.867  0.8459 -3.1071  3.2236
  264MOL0     H35603  -2.081  10.907   9.756 -0.7221  0.9662 -0.7131
  264MOL0     H35604  -2.588  10.755   9.816 -1.3546  0.3759 -0.9868
  264MOL0     H35605  -2.828  10.769   9.904 -1.9776 -1.3273  1.7344
  264MOL0     H35606  -2.911  10.686  10.255  3.2398  1.0400  0.4496
  264MOL0     H35607  -2.909  10.833  10.348 -0.5070 -0.9622  0.5822
  264MOL0     H35608  -3.110  10.907  10.189 -0.9769 -1.2925 -1.2705
  264MOL0     H35609  -3.131  10.728  10.181 -1.5866 -0.6628  1.3273
  264MOL0     H35610  -3.147  10.913  10.427 -2.1270  0.7807  0.4914
  264MOL0     H35611  -3.098  10.750  10.447  1.0348  0.3252  0.1135
  264MOL0     H35612  -3.344  10.881  10.336 -0.8196 -1.0525 -1.4676
  264MOL0     H35613  -3.321  10.714  10.295  0.2753  0.9316 -0.6079
  264MOL0     H35614  -3.295  10.790  10.592  0.2997 -0.0676 -0.6907
  264MOL0     H35615  -3.303  10.634  10.526  1.0106  0.5649  0.9570
  264MOL0     H35616  -3.508  10.678  10.636 -0.2766  1.2508  0.1704
  264MOL0     H35617  -3.548  10.821  10.553 -2.5861 -0.2433 -1.1914
  264MOL0     H35618  -3.540  10.667  10.325 -3.1418  0.3100 -0.8123
  264MOL0     H35619  -3.678  10.660  10.444  0.4638 -0.0859  2.4564
  264MOL0     H35620  -3.546  10.460  10.540  1.1135  0.3911  0.5608
  264MOL0     H35621  -3.445  10.482  10.403  1.4014  1.8606  2.5342
  264MOL0     H35622  -2.671  10.861  10.295  0.4989  2.2091 -0.6203
  264MOL0     H35623  -2.440  10.822  10.204 -0.6611  1.2202  0.4722
  264MOL0     H35624  -2.136  10.450  10.049  0.3992 -0.6095 -0.9897
  264MOL0     H35625  -1.896  10.418   9.949 -0.6359 -1.2961 -1.2613
  264MOL0     H35626   0.025  10.609   9.455 -0.2158  1.9619 -1.8566
  264MOL0     H35627   0.272  10.637   9.493  0.6093 -0.6882  2.7254
  264MOL0     H35628   0.620  10.493   9.773  2.3535 -0.6705  2.0484
  264MOL0     H35629   0.863  10.514   9.802  1.2499  0.0533 -0.9445
  264MOL0     H35630   1.054  10.600   9.887 -3.3400 -1.0983 -1.1542
  264MOL0     H35631   1.063  10.515   9.745 -1.0609  0.3108 -0.7188
  264MOL0     H35632   1.290  10.702   9.799  1.7944  0.2076 -2.8020
  264MOL0     H35633   1.247  10.631   9.649  0.8454 -1.3332 -0.2764
  264MOL0     H35634   1.248  10.416   9.811 -0.2588  0.3708 -0.1518
  264MOL0     H35635   1.356  10.525   9.901 -2.3186 -2.2541  1.5708
  264MOL0     H35636   1.492  10.548   9.656  2.4696 -3.3296 -2.9213
  264MOL0     H35637   1.400  10.408   9.626 -1.2302 -0.2165 -0.3149
  264MOL0     H35638   1.658  10.226   9.899 -1.5500 -0.0885  1.4347
  264MOL0     H35639   0.861  10.918   9.691  5.9469 -3.5628 -1.0690
  264MOL0     H35640   0.624  10.914   9.656  0.4507 -0.2338  0.4129
  265MOL0     O35641   4.743   3.868  10.183  0.3738  0.4483 -0.0148
  265MOL0     C35642   4.772   3.827  10.297 -1.5999  0.7120  0.8388
  265MOL0     O35643   4.712   3.871  10.411 -0.2169 -0.3032  1.1429
  265MOL0     C35644   4.650   3.993  10.425 -0.2111 -0.0668 -0.0461
  265MOL0     C35645   4.619   4.088  10.322 -0.4156 -0.3744 -0.9625
  265MOL0     C35646   4.569   4.214  10.360 -0.3923  0.2203 -0.7804
  265MOL0     C35647   4.539   4.247  10.491 -0.2698  0.7575  0.1696
  265MOL0     O35648   4.476   4.367  10.526 -0.0330 -0.0309  0.5735
  265MOL0     C35649   4.533   4.426  10.645  0.6377 -0.3818 -0.3231
  265MOL0     C35650   4.506   4.574  10.662 -0.3848 -0.5535 -0.0029
  265MOL0     C35651   4.357   4.616  10.692  0.1132  0.1593 -0.2714
  265MOL0     C35652   4.259   4.674  10.591 -0.2248 -0.2157 -0.1201
  265MOL0     C35653   4.143   4.743  10.660  0.6666 -0.2428 -0.1752
  265MOL0     C35654   4.024   4.753  10.571  0.3060 -0.9115 -0.1215
  265MOL0     C35655   3.918   4.632  10.600 -0.6797  0.1267  0.1023
  265MOL0     C35656   3.773   4.642  10.535 -1.1010  0.3102 -0.2457
  265MOL0     N35657   3.672   4.717  10.621  0.3953 -0.4788 -0.1153
  265MOL0     C35658   3.554   4.666  10.660 -0.3268  0.0607 -0.0303
  265MOL0     C35659   3.494   4.756  10.740 -0.3019 -0.2790  0.2951
  265MOL0     C35660   3.361   4.749  10.795 -0.0182  0.8350 -0.3708
  265MOL0     C35661   3.252   4.750  10.694 -0.0185 -0.5667 -0.6796
  265MOL0     C35662   3.217   4.614  10.634  0.4002 -0.0776 -0.0125
  265MOL0     C35663   3.072   4.624  10.571 -0.1893  0.6063  1.2089
  265MOL0     O35664   3.040   4.512  10.479 -0.4741 -0.2486 -0.2986
  265MOL0     C35665   2.910   4.462  10.464 -0.8320 -0.2427  0.9012
  265MOL0     C35666   2.797   4.529  10.494  0.3476  0.5433  0.3258
  265MOL0     C35667   2.667   4.473  10.480 -0.4813 -0.3695  0.9986
  265MOL0     C35668   2.556   4.569  10.479 -0.4229 -0.1566  0.5902
  265MOL0     C35669   2.654   4.332  10.444 -0.0280  0.0188 -0.1128
  265MOL0     C35670   2.528   4.267  10.394 -0.3365 -0.0607  0.1009
  265MOL0     O35671   2.542   4.200  10.275  0.2629  0.1670  0.0564
  265MOL0     C35672   2.439   4.116  10.234 -0.7729 -0.3994 -0.1514
  265MOL0     C35673   2.460   3.978  10.254  0.7327 -0.1501  0.0466
  265MOL0     C35674   2.350   3.881  10.240 -0.1955 -0.4952  0.5549
  265MOL0     C35675   2.223   3.932  10.197 -0.1131 -0.1059 -0.9167
  265MOL0     O35676   2.116   3.846  10.225  0.7391  0.0604 -0.7223
  265MOL0     C35677   2.000   3.910  10.282 -0.2983  0.3926 -0.0355
  265MOL0     C35678   1.901   3.921  10.172 -0.1961 -0.3394 -0.6273
  265MOL0     C35679   1.759   3.956  10.219 -0.0393 -0.1615 -0.0001
  265MOL0     C35680   1.692   4.034  10.106  0.3797  0.1847  0.3930
  265MOL0     C35681   1.559   4.087  10.148 -0.2698 -0.3146 -0.5275
  265MOL0     C35682   1.467   4.133  10.031 -0.1818  0.4224 -0.1833
  265MOL0     C35683   1.411   4.014   9.959  0.6936 -0.3096 -0.0355
  265MOL0     C35684   1.269   4.032   9.877 -0.3284  0.4835 -0.0342
  265MOL0    Cl35685   1.233   3.872   9.807 -0.3449  0.2545  0.1634
  265MOL0     C35686   2.215   4.071  10.171  0.0400  0.4341  0.8276
  265MOL0     C35687   2.323   4.164  10.183 -0.2768 -0.3652  1.4228
  265MOL0     O35688   2.428   4.281  10.458  0.2205 -0.1244  0.0835
  265MOL0     C35689   2.775   4.265  10.414 -0.6704 -0.5386 -0.6654
  265MOL0     C35690   2.898   4.323  10.424  0.2346  0.3313  0.5296
  265MOL0     N35691   3.576   4.868  10.746 -0.5675  0.0485  0.3760
  265MOL0     N35692   3.685   4.843  10.676 -0.0982 -0.4485 -0.0737
  265MOL0     C35693   4.552   4.139  10.584 -0.0616 -0.5986 -1.3894
  265MOL0     C35694   4.608   4.015  10.557  0.1458 -0.2198  0.2316
  265MOL0     C35695   4.885   3.723  10.316  0.1444 -0.0678 -0.4524
  265MOL0     C35696   4.943   3.702  10.445 -0.4604  0.6656 -0.9558
  265MOL0     C35697   5.046   3.610  10.467 -0.7119 -0.0401 -0.5908
  265MOL0     C35698   5.088   3.524  10.368  0.5422 -0.0024  0.3362
  265MOL0     O35699   5.186   3.439  10.387 -0.3366  0.4261 -0.7108
  265MOL0     C35700   5.317   3.484  10.352 -0.9053  1.1354  0.0390
  265MOL0     C35701   5.414   3.362  10.380  0.8039 -1.0803  0.6012
  265MOL0     C35702   5.560   3.368  10.343  0.1793 -0.7951  0.3490
  265MOL0     C35703   5.632   3.224  10.335  0.5980 -0.4860 -0.5434
  265MOL0     C35704   5.759   3.245  10.274 -0.2087 -0.7682 -0.4113
  265MOL0     C35705   5.860   3.270  10.220 -0.1155  0.1824 -0.4445
  265MOL0     C35706   5.039   3.557  10.239 -0.1282  0.3995  0.5019
  265MOL0     C35707   4.948   3.655  10.216 -0.7815 -0.4000  0.2851
  265MOL0     H35708   4.635   4.060  10.219  2.1041 -0.0081 -0.7352
  265MOL0     H35709   4.541   4.289  10.286  0.4895  2.4682  1.0141
  265MOL0     H35710   4.492   4.379  10.735 -0.4073  1.1996  0.0815
  265MOL0     H35711   4.640   4.410  10.626  0.2126 -1.8729 -1.5740
  265MOL0     H35712   4.565   4.612  10.746  0.2670  2.4561 -1.6771
  265MOL0     H35713   4.553   4.623  10.577 -0.6887 -0.2703 -0.0106
  265MOL0     H35714   4.304   4.533  10.740  2.3919 -1.8071 -0.9230
  265MOL0     H35715   4.359   4.684  10.778  0.1774 -1.8237  1.3672
  265MOL0     H35716   4.312   4.746  10.528 -1.4131  1.7433  1.0207
  265MOL0     H35717   4.216   4.592  10.533 -2.2052  1.3364 -0.9224
  265MOL0     H35718   4.109   4.694  10.751  1.4333  0.6534  0.6116
  265MOL0     H35719   4.167   4.844  10.694  0.8330 -0.3301 -0.0351
  265MOL0     H35720   3.980   4.852  10.589  0.7795 -0.0873 -2.9523
  265MOL0     H35721   4.055   4.764  10.467  0.8636  3.2809  0.3116
  265MOL0     H35722   3.967   4.537  10.579  0.9641  0.1826  3.2511
  265MOL0     H35723   3.896   4.624  10.707  1.0022  0.9901  0.5485
  265MOL0     H35724   3.729   4.543  10.543  0.2969 -0.3139 -0.0281
  265MOL0     H35725   3.776   4.671  10.429 -1.8351  0.1478 -0.3140
  265MOL0     H35726   3.516   4.568  10.635  0.5738  0.0549 -1.4832
  265MOL0     H35727   3.373   4.668  10.868  1.2666  2.4463  1.3063
  265MOL0     H35728   3.338   4.831  10.863  0.4731 -0.2897  1.2183
  265MOL0     H35729   3.273   4.819  10.613 -2.8407  0.5664 -0.5735
  265MOL0     H35730   3.162   4.783  10.748 -0.9571 -0.5756 -2.1857
  265MOL0     H35731   3.212   4.536  10.711 -0.1340  0.6359  0.6926
  265MOL0     H35732   3.289   4.593  10.554  1.8712 -0.6001  1.3938
  265MOL0     H35733   3.073   4.717  10.515  0.5145  0.8634  1.6380
  265MOL0     H35734   3.005   4.618  10.657  3.2078 -1.1596  4.0266
  265MOL0     H35735   2.805   4.636  10.508 -0.5876  0.5415  1.0201
  265MOL0     H35736   2.596   4.666  10.446 -0.5369 -1.3928 -3.8262
  265MOL0     H35737   2.480   4.526  10.414 -1.0605  1.1641  0.4213
  265MOL0     H35738   2.505   4.579  10.576 -1.6005  0.4924 -0.0748
  265MOL0     H35739   2.552   3.946  10.300  0.7024  0.3077  0.4296
  265MOL0     H35740   2.365   3.777  10.268  1.1935 -0.7388 -0.9184
  265MOL0     H35741   1.964   3.849  10.366 -1.7672  1.2093 -0.0430
  265MOL0     H35742   2.012   4.013  10.317  1.6836  1.5550 -3.6692
  265MOL0     H35743   1.936   4.006  10.113  1.5336  1.2942  2.4897
  265MOL0     H35744   1.904   3.830  10.111  1.0585 -0.9425  0.2831
  265MOL0     H35745   1.770   4.012  10.313  4.1580 -0.1245 -0.3163
  265MOL0     H35746   1.693   3.870  10.237  0.7862 -1.5652 -3.0091
  265MOL0     H35747   1.757   4.119  10.082  0.8661 -0.4278 -0.5009
  265MOL0     H35748   1.679   3.963  10.024  1.2955 -1.2174  1.4155
  265MOL0     H35749   1.574   4.163  10.225  0.3892 -1.0874  0.1285
  265MOL0     H35750   1.512   4.001  10.197  0.0867 -0.3127 -0.1768
  265MOL0     H35751   1.393   4.196  10.082  1.1728  0.9219  1.2667
  265MOL0     H35752   1.522   4.184   9.951 -1.2665  0.8908 -0.6641
  265MOL0     H35753   1.392   3.933  10.029 -1.3211  0.3251  0.2266
  265MOL0     H35754   1.493   3.996   9.888 -0.7612  2.1700 -2.5667
  265MOL0     H35755   1.284   4.097   9.790  0.4838 -0.4069 -0.5811
  265MOL0     H35756   1.188   4.066   9.942  0.2008  2.7638 -0.4943
  265MOL0     H35757   2.122   4.118  10.141  0.1513 -0.2781 -0.7464
  265MOL0     H35758   2.295   4.267  10.162  0.7876 -0.2402  0.5585
  265MOL0     H35759   2.774   4.162  10.378 -2.4888 -0.6245 -0.4678
  265MOL0     H35760   2.981   4.258  10.398  0.1932 -0.3410  1.9974
  265MOL0     H35761   4.519   4.147  10.688  1.2379 -0.8586 -0.9393
  265MOL0     H35762   4.621   3.941  10.634  1.7003  1.0913  1.2955
  265MOL0     H35763   4.920   3.767  10.528  2.6023  1.0166 -0.2539
  265MOL0     H35764   5.095   3.612  10.564 -1.1618 -0.9056 -0.3347
  265MOL0     H35765   5.322   3.516  10.247 -1.0806  0.2501 -0.2467
  265MOL0     H35766   5.359   3.572  10.402  1.5397  1.2411 -1.9810
  265MOL0     H35767   5.369   3.288  10.313 -1.3707  3.0094 -2.9168
  265MOL0     H35768   5.396   3.327  10.482  1.6126 -1.2028  0.7055
  265MOL0     H35769   5.616   3.434  10.410  0.6288 -1.5268  0.7094
  265MOL0     H35770   5.580   3.412  10.244 -0.1827 -2.8766 -0.6955
  265MOL0     H35771   5.577   3.159  10.266  3.5538 -2.1838 -1.4954
  265MOL0     H35772   5.638   3.180  10.435  0.7255 -0.5442 -0.5764
  265MOL0     H35773   5.942   3.296  10.156 -1.4956 -0.6782 -2.6585
  265MOL0     H35774   5.080   3.500  10.156  0.2880 -0.3902  1.2265
  265MOL0     H35775   4.904   3.669  10.118 -0.1531  0.4451  0.1181
  266MOL0     O35776   7.117  10.325   7.539 -0.4467 -0.2093  0.4462
  266MOL0     C35777   7.106  10.215   7.591 -0.8821  0.2581  0.8242
  266MOL0     O35778   7.077  10.186   7.722  0.4469  0.2387  0.3945
  266MOL0     C35779   7.055  10.288   7.808 -0.1913 -0.1754  0.5148
  266MOL0     C35780   7.147  10.314   7.910  0.5995 -0.0476 -1.0313
  266MOL0     C35781   7.130  10.420   7.999  0.3673  0.2103  0.3589
  266MOL0     C35782   7.022  10.515   7.978  0.7638  1.1719  0.9297
  266MOL0     O35783   7.002  10.627   8.055 -0.1147 -0.0359  0.3327
  266MOL0     C35784   7.114  10.688   8.128 -0.5240  0.7246 -0.3236
  266MOL0     C35785   7.086  10.831   8.118 -0.5127 -0.0349  0.0657
  266MOL0     C35786   6.958  10.867   8.188  0.4994 -0.8616 -0.5092
  266MOL0     C35787   6.909  10.998   8.132 -0.0755 -0.0181  0.3283
  266MOL0     C35788   6.803  11.071   8.224 -0.2550  0.0276 -0.0497
  266MOL0     C35789   6.662  11.039   8.188  0.7738  0.3058 -0.3970
  266MOL0     C35790   6.560  11.105   8.271  0.2027  0.2457 -0.5082
  266MOL0     C35791   6.414  11.090   8.233 -0.1972 -0.0713 -0.5943
  266MOL0     N35792   6.316  11.157   8.320  0.6434  0.1113  0.2977
  266MOL0     C35793   6.180  11.146   8.297 -0.3123  0.5731  0.3427
  266MOL0     C35794   6.116  11.231   8.388  0.2838  0.1838  0.9137
  266MOL0     C35795   5.963  11.251   8.389  0.8593 -0.0513 -0.3535
  266MOL0     C35796   5.890  11.216   8.525 -0.9710 -0.0691 -0.3636
  266MOL0     C35797   5.744  11.200   8.518  0.6714 -0.5333 -0.4479
  266MOL0     C35798   5.698  11.072   8.452 -1.2664 -0.8873  0.8753
  266MOL0     O35799   5.551  11.059   8.463 -0.8748  0.0634  0.0682
  266MOL0     C35800   5.487  11.079   8.342 -0.7975  0.6551  0.4630
  266MOL0     C35801   5.500  10.985   8.247 -0.0824  0.5823  0.4638
  266MOL0     C35802   5.444  11.004   8.119 -0.1322  0.7591 -0.5129
  266MOL0     C35803   5.471  10.894   8.023  0.0705  0.5563  0.6063
  266MOL0     C35804   5.364  11.120   8.094 -0.0249 -0.3394 -0.6293
  266MOL0     C35805   5.286  11.146   7.966  0.9164 -0.1632 -0.9380
  266MOL0     O35806   5.267  11.038   7.882 -0.4392 -0.8014 -0.2914
  266MOL0     C35807   5.183  11.062   7.769  0.0810  0.0801  0.5209
  266MOL0     C35808   5.235  11.046   7.638  0.2914 -0.5501  0.2027
  266MOL0     C35809   5.154  11.089   7.530 -0.1393  0.8419 -0.1162
  266MOL0     C35810   5.022  11.142   7.541 -0.7282 -1.5321  0.1001
  266MOL0     O35811   4.975  11.168   7.417  0.6758  0.4216 -0.6640
  266MOL0     C35812   4.835  11.206   7.410  0.5336 -0.0025 -0.0871
  266MOL0     C35813   4.735  11.092   7.423  0.4158  0.7793 -0.7420
  266MOL0     C35814   4.768  10.961   7.353  0.6336  0.5273  0.7958
  266MOL0     C35815   4.683  10.836   7.384 -0.3411  0.2203  0.0663
  266MOL0     C35816   4.767  10.696   7.374  1.3462  0.4652  0.0981
  266MOL0     C35817   4.675  10.576   7.422 -0.3295 -0.3809 -0.1699
  266MOL0     C35818   4.752  10.447   7.388 -0.3547 -0.1834 -0.2037
  266MOL0     C35819   4.730  10.405   7.245  0.1287  0.1727 -0.4799
  266MOL0    Cl35820   4.726  10.223   7.247 -0.1502  0.5385  0.3564
  266MOL0     C35821   4.967  11.152   7.674 -0.5732  0.2544 -0.0111
  266MOL0     C35822   5.046  11.103   7.782 -0.1769 -0.7371  0.8378
  266MOL0     O35823   5.235  11.256   7.952 -0.4134 -0.0702 -0.2776
  266MOL0     C35824   5.355  11.218   8.194  0.2296  0.0269  0.8240
  266MOL0     C35825   5.412  11.202   8.317 -0.1311  0.5280 -0.8144
  266MOL0     N35826   6.214  11.293   8.466  0.5165 -0.1053  0.0360
  266MOL0     N35827   6.330  11.250   8.426  0.3337  0.5110 -0.9701
  266MOL0     C35828   6.934  10.491   7.871 -0.3451 -0.1775 -0.1296
  266MOL0     C35829   6.949  10.380   7.792  0.7639  0.5337 -0.4733
  266MOL0     C35830   7.152  10.106   7.512 -0.0448  0.5652 -1.1276
  266MOL0     C35831   7.140  10.098   7.367  0.5170 -0.2096  0.3256
  266MOL0     C35832   7.187   9.988   7.299 -0.2851 -0.2700 -0.4940
  266MOL0     C35833   7.252   9.886   7.365 -0.4177 -0.4088  0.8399
  266MOL0     O35834   7.314   9.784   7.296  0.0947 -0.6196 -0.7549
  266MOL0     C35835   7.440   9.822   7.238  0.1531 -0.1303 -0.5238
  266MOL0     C35836   7.532   9.700   7.220 -0.3506 -0.4783 -0.0743
  266MOL0     C35837   7.476   9.612   7.104 -0.5815  0.1249 -0.3338
  266MOL0     C35838   7.402   9.496   7.180 -0.2607 -0.2865 -0.3403
  266MOL0     C35839   7.383   9.388   7.079  0.5897 -0.3455 -0.2327
  266MOL0     C35840   7.366   9.294   6.999  0.6388 -0.1712  0.8342
  266MOL0     C35841   7.272   9.899   7.506  0.1296  0.1040 -0.3731
  266MOL0     C35842   7.220  10.000   7.574  0.1379 -0.4851 -0.2438
  266MOL0     H35843   7.223  10.242   7.939  0.3982 -0.2377 -0.9677
  266MOL0     H35844   7.194  10.429   8.086 -1.3454  0.2703  1.6783
  266MOL0     H35845   7.120  10.657   8.233 -0.6586  0.0240 -0.5204
  266MOL0     H35846   7.210  10.674   8.078  0.2390  1.1089  0.9909
  266MOL0     H35847   7.163  10.885   8.174 -2.1377  0.9394  1.4798
  266MOL0     H35848   7.070  10.872   8.017  0.6485 -0.4710 -0.3082
  266MOL0     H35849   6.881  10.789   8.181  0.5744 -0.8437 -1.7410
  266MOL0     H35850   6.976  10.879   8.296 -1.5588  0.2306 -0.2297
  266MOL0     H35851   6.993  11.067   8.122 -1.0541  1.0748 -0.6437
  266MOL0     H35852   6.868  10.978   8.032  1.5227 -1.1746 -0.1290
  266MOL0     H35853   6.813  11.062   8.332 -2.1122  0.8273  0.2203
  266MOL0     H35854   6.810  11.179   8.207  0.6185  0.1103  0.7557
  266MOL0     H35855   6.639  11.071   8.086  0.1673  0.0829 -0.3330
  266MOL0     H35856   6.652  10.930   8.195  0.4650  0.4133  1.4550
  266MOL0     H35857   6.574  11.066   8.372 -0.9701 -3.2878 -1.5512
  266MOL0     H35858   6.591  11.209   8.273 -0.8708  0.6530  3.1692
  266MOL0     H35859   6.391  10.985   8.213  2.3914 -0.4419 -2.0892
  266MOL0     H35860   6.394  11.128   8.133  2.5367  1.8080 -0.5365
  266MOL0     H35861   6.140  11.077   8.223  1.6670 -0.1451 -0.1246
  266MOL0     H35862   5.939  11.355   8.367 -1.3923 -0.5900 -0.6479
  266MOL0     H35863   5.906  11.193   8.316 -2.6738  3.7532 -0.9398
  266MOL0     H35864   5.917  11.284   8.607  2.7672 -2.8836  1.0223
  266MOL0     H35865   5.929  11.119   8.557 -0.5808  0.0932 -0.3436
  266MOL0     H35866   5.692  11.285   8.473 -0.5523 -1.0332 -0.0231
  266MOL0     H35867   5.708  11.197   8.621  1.4541 -1.9597 -0.1933
  266MOL0     H35868   5.747  10.985   8.498 -3.0778 -2.8167 -0.6173
  266MOL0     H35869   5.730  11.062   8.348 -2.7241  2.2779 -0.0093
  266MOL0     H35870   5.552  10.893   8.273  3.0153  2.4905  1.6797
  266MOL0     H35871   5.562  10.838   8.049  0.5820  1.7368  1.4583
  266MOL0     H35872   5.383  10.829   8.024  0.5297 -0.0831  1.4686
  266MOL0     H35873   5.487  10.934   7.923 -0.5318 -1.2680 -0.2627
  266MOL0     H35874   5.338  11.015   7.625  0.6509  1.4671 -2.9038
  266MOL0     H35875   5.194  11.077   7.430 -0.2107 -3.3216  0.1727
  266MOL0     H35876   4.806  11.287   7.478 -3.3469 -2.2275  1.2015
  266MOL0     H35877   4.823  11.236   7.305  1.4825  0.4236 -0.0834
  266MOL0     H35878   4.713  11.069   7.528  2.2476  1.8159 -0.0788
  266MOL0     H35879   4.644  11.132   7.378  0.1172  1.0433  0.0917
  266MOL0     H35880   4.873  10.940   7.375  1.3227 -0.3167 -2.6590
  266MOL0     H35881   4.774  10.972   7.245  2.9531 -4.5114  0.1049
  266MOL0     H35882   4.639  10.840   7.483 -1.7747  1.0695 -0.5787
  266MOL0     H35883   4.603  10.839   7.310  2.2631  0.5674 -2.9519
  266MOL0     H35884   4.856  10.712   7.435  0.1106  0.5312  1.9523
  266MOL0     H35885   4.798  10.669   7.273  0.4275 -1.2540  0.2295
  266MOL0     H35886   4.640  10.593   7.524 -0.1345 -1.1442  0.0326
  266MOL0     H35887   4.582  10.581   7.365 -0.2819  3.2677 -0.1915
  266MOL0     H35888   4.711  10.362   7.444 -0.5043 -0.8313 -1.2726
  266MOL0     H35889   4.857  10.454   7.416  0.0067 -0.0310 -1.5448
  266MOL0     H35890   4.807  10.455   7.185  0.2130 -2.5897 -2.9024
  266MOL0     H35891   4.631  10.434   7.210 -0.8983 -0.7179  1.4979
  266MOL0     H35892   4.865  11.185   7.691 -2.5130 -4.2718 -1.0941
  266MOL0     H35893   4.998  11.103   7.880 -0.9375  0.1607  0.4914
  266MOL0     H35894   5.305  11.312   8.173  2.5682  1.5581  1.6348
  266MOL0     H35895   5.417  11.286   8.386  1.0836 -0.8377  0.8555
  266MOL0     H35896   6.856  10.563   7.851  2.7962  3.7650  0.6129
  266MOL0     H35897   6.882  10.366   7.707  1.1804  0.3311 -0.7699
  266MOL0     H35898   7.088  10.174   7.310  2.2582 -0.5776 -1.9161
  266MOL0     H35899   7.185   9.982   7.190  0.4976  0.2399 -0.5484
  266MOL0     H35900   7.430   9.861   7.137  2.6381  2.4015  0.0815
  266MOL0     H35901   7.499   9.889   7.301 -1.1663 -0.8109  1.5333
  266MOL0     H35902   7.544   9.636   7.307 -0.9976 -0.5860 -0.0551
  266MOL0     H35903   7.624   9.739   7.177 -0.2005 -0.0138  0.6503
  266MOL0     H35904   7.565   9.584   7.047 -0.1957  0.5960  0.0292
  266MOL0     H35905   7.409   9.670   7.039 -0.5581 -0.6883 -1.0909
  266MOL0     H35906   7.302   9.530   7.206 -0.0204  0.2904 -0.1442
  266MOL0     H35907   7.455   9.467   7.271 -2.4145  0.6490  1.2838
  266MOL0     H35908   7.352   9.218   6.924 -3.9139  1.0289  0.1945
  266MOL0     H35909   7.333   9.826   7.558  0.6972 -0.6262 -2.0168
  266MOL0     H35910   7.231  10.017   7.680 -2.4613  1.2929 -0.1821
  267MOL0     O35911   0.530   7.851   5.344  1.0979  0.4630  1.0709
  267MOL0     C35912   0.589   7.926   5.273 -0.1576 -0.2533 -0.3707
  267MOL0     O35913   0.533   8.002   5.167 -0.2851  0.5563 -0.0273
  267MOL0     C35914   0.399   8.003   5.153  0.3352  0.1066  0.1784
  267MOL0     C35915   0.348   7.971   5.026  0.7105 -0.0460  0.1758
  267MOL0     C35916   0.210   7.983   5.008  0.1906  0.6219  0.1710
  267MOL0     C35917   0.125   8.006   5.108 -0.5582 -1.2986 -0.5061
  267MOL0     O35918  -0.004   8.034   5.082  0.1688  0.8229 -0.3752
  267MOL0     C35919  -0.102   7.930   5.117 -0.0515 -0.1061  0.2912
  267MOL0     C35920  -0.232   8.020   5.118  0.7968  0.3119  0.0122
  267MOL0     C35921  -0.358   7.938   5.153  0.2207 -0.2920 -0.2055
  267MOL0     C35922  -0.357   7.876   5.287 -0.3076  0.3619  0.2209
  267MOL0     C35923  -0.359   7.969   5.413 -0.1735 -0.7058 -0.1382
  267MOL0     C35924  -0.403   7.892   5.536  0.1144 -0.2423  0.2066
  267MOL0     C35925  -0.425   7.974   5.660 -0.0962  0.3850 -0.0233
  267MOL0     C35926  -0.435   7.898   5.793  0.3441  0.4150  0.6006
  267MOL0     N35927  -0.572   7.838   5.793 -0.1997  0.1021  0.1614
  267MOL0     C35928  -0.603   7.726   5.716  0.7080 -0.8765 -0.6964
  267MOL0     C35929  -0.741   7.726   5.706 -0.3835  0.5730 -0.4368
  267MOL0     C35930  -0.826   7.607   5.651  0.4808 -1.0507  0.3958
  267MOL0     C35931  -0.987   7.624   5.661 -0.7038  0.4911 -0.2439
  267MOL0     C35932  -1.078   7.506   5.649 -0.4291  0.6515 -0.7248
  267MOL0     C35933  -1.215   7.541   5.674  0.0977 -0.5782  0.2340
  267MOL0     O35934  -1.262   7.623   5.564 -0.0932 -0.3175 -0.7671
  267MOL0     C35935  -1.374   7.699   5.588 -0.6416 -0.2650 -0.3389
  267MOL0     C35936  -1.344   7.837   5.596  0.2811 -0.7290 -0.1420
  267MOL0     C35937  -1.447   7.932   5.607  0.2367 -0.0270 -0.1072
  267MOL0     C35938  -1.406   8.075   5.623  0.0737 -0.6738 -0.4071
  267MOL0     C35939  -1.582   7.879   5.632 -0.3772  0.5630 -0.3177
  267MOL0     C35940  -1.708   7.961   5.643 -0.2559 -0.7658 -0.4642
  267MOL0     O35941  -1.818   7.901   5.705  0.6083 -0.0836  0.1157
  267MOL0     C35942  -1.949   7.942   5.687 -0.1680 -0.7126  0.7543
  267MOL0     C35943  -2.001   8.052   5.619  0.5408 -0.3989  0.8394
  267MOL0     C35944  -2.129   8.087   5.608 -0.1756 -1.2790 -0.0977
  267MOL0     C35945  -2.222   8.002   5.671  0.1482 -0.8287  0.3008
  267MOL0     O35946  -2.358   8.032   5.651 -0.8045 -0.1809  0.2602
  267MOL0     C35947  -2.442   7.917   5.646 -0.2705  0.4089  0.7116
  267MOL0     C35948  -2.589   7.948   5.669  0.0347  0.6793 -0.1374
  267MOL0     C35949  -2.610   7.991   5.821 -0.8509  0.8698  0.3033
  267MOL0     C35950  -2.755   8.026   5.820 -0.9170  0.5893 -0.4805
  267MOL0     C35951  -2.778   8.084   5.956  0.8288 -0.0426  0.5971
  267MOL0     C35952  -2.923   8.139   5.978  0.6323  0.3745 -0.2667
  267MOL0     C35953  -2.955   8.259   5.892  0.9402 -1.5487  1.3303
  267MOL0     C35954  -3.098   8.243   5.818 -0.3476 -0.7507 -0.3828
  267MOL0    Cl35955  -3.103   8.111   5.699 -0.1490  0.1751 -0.2643
  267MOL0     C35956  -2.176   7.889   5.744 -0.0823 -0.6278  0.4214
  267MOL0     C35957  -2.039   7.867   5.760 -0.1995 -0.3292  0.6420
  267MOL0     O35958  -1.696   8.079   5.618  0.2402 -0.3807 -0.4091
  267MOL0     C35959  -1.602   7.740   5.626  0.0412  0.6078  0.5756
  267MOL0     C35960  -1.497   7.650   5.601  0.1588 -0.5657 -0.8332
  267MOL0     N35961  -0.779   7.829   5.790  0.2965  0.4065 -0.5689
  267MOL0     N35962  -0.685   7.892   5.844 -0.4066  0.2473  0.6769
  267MOL0     C35963   0.170   8.029   5.238  0.5348 -0.4206  0.0243
  267MOL0     C35964   0.309   8.022   5.264  0.3855 -0.2123  0.3285
  267MOL0     C35965   0.737   7.940   5.291 -1.2244  0.3239  0.4615
  267MOL0     C35966   0.802   7.830   5.338  0.3999 -1.3049 -0.0352
  267MOL0     C35967   0.933   7.842   5.386  0.0247  0.0821 -0.1614
  267MOL0     C35968   1.005   7.957   5.386  0.0726 -0.5801  0.7539
  267MOL0     O35969   1.137   7.962   5.423 -0.5660 -0.4363 -0.1046
  267MOL0     C35970   1.159   7.952   5.559 -0.0934  0.5579  0.0071
  267MOL0     C35971   1.311   7.938   5.587  0.5586  1.0294  0.2884
  267MOL0     C35972   1.386   8.071   5.564  0.2751 -0.3425 -0.2776
  267MOL0     C35973   1.538   8.065   5.578  0.1309 -0.8039 -1.3209
  267MOL0     C35974   1.574   8.056   5.721  0.6901 -0.2839 -0.7198
  267MOL0     C35975   1.599   8.085   5.838 -0.8503 -0.2961  0.5171
  267MOL0     C35976   0.941   8.078   5.345 -0.3877 -0.0508 -0.0835
  267MOL0     C35977   0.807   8.065   5.288  0.0146  0.4862 -0.3925
  267MOL0     H35978   0.411   7.959   4.938  0.2673  2.0804 -0.4836
  267MOL0     H35979   0.179   7.968   4.905 -0.5837 -1.0821  0.6166
  267MOL0     H35980  -0.122   7.852   5.043 -3.6966 -0.4768  1.5107
  267MOL0     H35981  -0.074   7.892   5.216 -1.8840 -1.4111  0.3419
  267MOL0     H35982  -0.219   8.104   5.187  2.4240 -0.7240  1.0262
  267MOL0     H35983  -0.253   8.053   5.016  0.6144 -0.0003 -0.0498
  267MOL0     H35984  -0.453   7.991   5.144  0.4332 -0.2069 -3.0832
  267MOL0     H35985  -0.354   7.862   5.074 -0.3916 -0.9002  0.3336
  267MOL0     H35986  -0.448   7.816   5.294  0.4661 -0.8247  0.5171
  267MOL0     H35987  -0.267   7.820   5.316  0.7996  2.1586  0.4392
  267MOL0     H35988  -0.257   8.008   5.424  0.1306 -1.7341  0.9092
  267MOL0     H35989  -0.419   8.060   5.400  2.7047  1.6980  1.8944
  267MOL0     H35990  -0.494   7.833   5.521  0.2692 -0.3090 -0.5047
  267MOL0     H35991  -0.322   7.819   5.543  1.0864  0.5414 -1.8532
  267MOL0     H35992  -0.351   8.054   5.671 -1.0682  1.1314  1.4145
  267MOL0     H35993  -0.521   8.025   5.653 -0.0138  0.3726 -1.4318
  267MOL0     H35994  -0.430   7.966   5.878  0.1851 -0.7579  1.5785
  267MOL0     H35995  -0.361   7.818   5.803 -1.4887 -1.6392 -1.1445
  267MOL0     H35996  -0.535   7.662   5.661  1.2395  0.0512 -1.1613
  267MOL0     H35997  -0.788   7.574   5.554  2.5380  0.7797  0.4839
  267MOL0     H35998  -0.803   7.525   5.720  1.0156  1.1081  2.9466
  267MOL0     H35999  -1.013   7.691   5.578 -0.8148 -0.0282 -0.6313
  267MOL0     H36000  -1.000   7.668   5.760  0.7840  1.2277 -0.3404
  267MOL0     H36001  -1.031   7.441   5.722  4.6523  3.6049 -0.8712
  267MOL0     H36002  -1.066   7.459   5.551  0.5974 -1.4760  0.3529
  267MOL0     H36003  -1.215   7.598   5.768 -0.0599 -1.7769  0.9821
  267MOL0     H36004  -1.272   7.449   5.685 -0.8402 -0.2047 -1.2703
  267MOL0     H36005  -1.247   7.882   5.577  0.6081 -1.1989  0.3614
  267MOL0     H36006  -1.418   8.130   5.529  0.8932 -0.0805 -0.1783
  267MOL0     H36007  -1.464   8.130   5.697  0.4189 -0.3117 -0.4036
  267MOL0     H36008  -1.303   8.077   5.658  0.0226 -0.9677 -0.2405
  267MOL0     H36009  -1.931   8.113   5.561  0.6704 -1.5956 -0.2937
  267MOL0     H36010  -2.174   8.168   5.551 -0.4917 -2.5285 -1.6960
  267MOL0     H36011  -2.431   7.882   5.544 -3.5813  0.5864  0.1769
  267MOL0     H36012  -2.414   7.835   5.713  0.6596  0.5644  0.5142
  267MOL0     H36013  -2.625   8.028   5.603  3.0990  1.7623 -0.6407
  267MOL0     H36014  -2.638   7.853   5.645  2.2362 -1.3206  2.6718
  267MOL0     H36015  -2.535   8.063   5.853  2.3515 -1.6509 -0.9833
  267MOL0     H36016  -2.591   7.897   5.873  0.0503  0.1479 -1.2750
  267MOL0     H36017  -2.776   8.097   5.739 -1.2880 -1.4612 -2.2821
  267MOL0     H36018  -2.822   7.946   5.790 -1.6492  1.3143 -0.8212
  267MOL0     H36019  -2.706   8.165   5.968 -1.5721  2.2336  0.7276
  267MOL0     H36020  -2.758   8.008   6.033  0.0832  1.2143  2.1061
  267MOL0     H36021  -2.999   8.064   5.955  0.5263  1.2564 -3.2360
  267MOL0     H36022  -2.929   8.176   6.081  0.1721  0.6010 -0.3705
  267MOL0     H36023  -2.875   8.266   5.818  0.6602  2.3746  1.1689
  267MOL0     H36024  -2.962   8.347   5.957 -1.0573 -0.2333 -0.5027
  267MOL0     H36025  -3.131   8.333   5.766 -0.9023 -0.5503  0.2920
  267MOL0     H36026  -3.181   8.217   5.885 -0.4534  0.5848  0.0209
  267MOL0     H36027  -2.230   7.805   5.787 -0.7606  0.0061  0.8348
  267MOL0     H36028  -2.006   7.778   5.812 -3.2149 -3.2258 -1.9437
  267MOL0     H36029  -1.698   7.698   5.653  0.6776 -1.5504 -0.2760
  267MOL0     H36030  -1.505   7.542   5.591  3.4696 -0.9467 -0.4595
  267MOL0     H36031   0.105   8.059   5.320 -1.3818 -2.3773 -0.6948
  267MOL0     H36032   0.342   8.040   5.366  1.5897 -1.0192  0.1023
  267MOL0     H36033   0.755   7.732   5.340  0.1582 -1.1904  1.7598
  267MOL0     H36034   0.972   7.744   5.413 -0.8638  0.1564  1.4540
  267MOL0     H36035   1.122   8.032   5.624 -2.6621 -2.0107  1.9572
  267MOL0     H36036   1.106   7.864   5.598 -0.7463  1.7157  1.8854
  267MOL0     H36037   1.340   7.854   5.523 -2.2077 -2.6037  3.3186
  267MOL0     H36038   1.331   7.902   5.688 -1.9724  0.5509  0.7087
  267MOL0     H36039   1.344   8.137   5.641  2.1538 -1.0366  1.4332
  267MOL0     H36040   1.355   8.102   5.464  1.5040 -2.2629 -1.3125
  267MOL0     H36041   1.585   8.158   5.547 -2.1853  0.5877 -0.9009
  267MOL0     H36042   1.580   7.977   5.527 -3.9274 -2.6926 -1.7851
  267MOL0     H36043   1.624   8.109   5.940 -1.2522 -0.2036  0.5948
  267MOL0     H36044   0.997   8.171   5.337 -0.0584 -0.3080 -0.8979
  267MOL0     H36045   0.749   8.148   5.247 -0.1001 -0.7320 -2.8418
  268MOL0     O36046   8.190   9.652   4.306  0.6649 -0.9194 -0.0818
  268MOL0     C36047   8.297   9.608   4.265 -0.5587  0.2797 -1.6143
  268MOL0     O36048   8.342   9.486   4.293 -0.3017  0.1339 -0.3243
  268MOL0     C36049   8.281   9.397   4.375 -0.0290 -0.4816  0.6432
  268MOL0     C36050   8.227   9.280   4.328 -0.8385  0.9965 -0.7472
  268MOL0     C36051   8.183   9.185   4.422  0.4431  0.5375 -0.5423
  268MOL0     C36052   8.182   9.207   4.558 -0.6368  0.7566 -0.3226
  268MOL0     O36053   8.123   9.135   4.652 -0.1780  0.2419 -0.1838
  268MOL0     C36054   8.122   8.997   4.634  0.2346  0.4170 -0.5832
  268MOL0     C36055   8.054   8.924   4.749  0.8195 -0.0107 -0.7394
  268MOL0     C36056   7.905   8.948   4.749  0.2908  0.4790  0.7277
  268MOL0     C36057   7.829   8.837   4.813 -0.0281 -0.7247 -0.0203
  268MOL0     C36058   7.701   8.882   4.878 -0.0590  0.5190  0.8662
  268MOL0     C36059   7.630   8.749   4.918  0.1426 -0.0757 -0.6166
  268MOL0     C36060   7.499   8.772   4.991  0.5378 -0.3255  1.4982
  268MOL0     C36061   7.427   8.646   5.044  0.1857 -0.0227 -0.0404
  268MOL0     N36062   7.309   8.681   5.119  0.4066 -0.8300 -0.2265
  268MOL0     C36063   7.287   8.804   5.181 -0.5513  0.4912  0.4411
  268MOL0     C36064   7.170   8.788   5.246 -0.4332  0.2008 -0.3478
  268MOL0     C36065   7.106   8.881   5.339 -0.1482 -0.1057  0.2072
  268MOL0     C36066   7.014   8.988   5.268 -0.9788  0.4039  0.4297
  268MOL0     C36067   6.917   9.044   5.367  0.8483  0.7046  0.0293
  268MOL0     C36068   6.807   9.138   5.308  0.3678 -1.0466 -0.6454
  268MOL0     O36069   6.727   9.066   5.219 -0.9595  0.3142  0.5712
  268MOL0     C36070   6.610   9.132   5.194  1.0658 -0.4617 -0.2915
  268MOL0     C36071   6.590   9.272   5.194 -0.4764 -0.5561 -0.7942
  268MOL0     C36072   6.453   9.311   5.166 -0.7327 -0.7376  0.1054
  268MOL0     C36073   6.425   9.457   5.157  0.6333 -0.6413  0.5155
  268MOL0     C36074   6.352   9.219   5.150  1.2972  0.6560  0.4668
  268MOL0     C36075   6.205   9.249   5.113 -0.0306 -0.2180 -0.3909
  268MOL0     O36076   6.187   9.359   5.035  0.3686  0.4087 -0.5652
  268MOL0     C36077   6.059   9.408   5.009  0.2513 -0.1651  0.3469
  268MOL0     C36078   6.021   9.529   5.069 -0.0143 -0.0480  0.0345
  268MOL0     C36079   5.905   9.590   5.031  0.0246  0.5001 -0.5203
  268MOL0     C36080   5.819   9.539   4.930 -0.3872 -0.3142  0.1277
  268MOL0     O36081   5.709   9.621   4.901  0.8441 -0.3135 -0.1289
  268MOL0     C36082   5.607   9.567   4.810 -0.0353  0.1154 -0.5677
  268MOL0     C36083   5.516   9.675   4.753  0.3602  0.7076 -0.2058
  268MOL0     C36084   5.586   9.745   4.638 -0.0338 -0.6140  0.7090
  268MOL0     C36085   5.487   9.825   4.565  0.0606 -0.1587  0.8306
  268MOL0     C36086   5.551   9.942   4.485  0.5760  0.1373  0.7033
  268MOL0     C36087   5.458  10.006   4.386 -0.4360  0.3400  0.1517
  268MOL0     C36088   5.528  10.051   4.255 -0.5092 -0.0576 -0.0250
  268MOL0     C36089   5.431  10.087   4.140  0.2631 -0.0148 -0.1225
  268MOL0    Cl36090   5.512  10.108   3.983 -0.0436 -0.4762 -0.1555
  268MOL0     C36091   5.866   9.417   4.866 -0.7128 -0.8915  0.3788
  268MOL0     C36092   5.987   9.358   4.906 -0.4458 -0.8634 -0.5344
  268MOL0     O36093   6.118   9.172   5.149  0.0541  0.4216 -0.0489
  268MOL0     C36094   6.379   9.082   5.159 -0.1035  0.3361 -0.0883
  268MOL0     C36095   6.512   9.037   5.163 -1.0787 -0.4379  0.0086
  268MOL0     N36096   7.125   8.653   5.216 -0.5583 -0.3178 -0.1524
  268MOL0     N36097   7.211   8.590   5.141  1.0502 -0.1872  0.0315
  268MOL0     C36098   8.234   9.327   4.600  0.1942 -0.7281  0.0860
  268MOL0     C36099   8.286   9.421   4.513  0.6136 -0.1100 -0.5883
  268MOL0     C36100   8.388   9.691   4.178 -0.8588 -0.6712  0.4472
  268MOL0     C36101   8.464   9.631   4.076  0.6150 -0.3083  0.1452
  268MOL0     C36102   8.538   9.709   3.994  0.1312 -0.2448  0.1757
  268MOL0     C36103   8.555   9.846   4.031  0.6169  0.0884  0.1882
  268MOL0     O36104   8.654   9.923   3.969  0.2874 -0.2833 -0.1191
  268MOL0     C36105   8.762   9.863   3.896  0.0633 -1.1261  0.1195
  268MOL0     C36106   8.867   9.973   3.855  0.2265 -0.8570 -0.9235
  268MOL0     C36107   8.992   9.916   3.783 -0.1709  0.0445 -0.3613
  268MOL0     C36108   9.045  10.018   3.680  0.4774 -0.0453  0.3305
  268MOL0     C36109   9.185  10.039   3.698 -0.3546 -0.2592  0.8347
  268MOL0     C36110   9.309  10.062   3.709  0.4274 -0.4641 -1.3074
  268MOL0     C36111   8.491   9.907   4.137  0.0301  0.4244 -0.5897
  268MOL0     C36112   8.408   9.826   4.213  0.3763  0.1313  0.3509
  268MOL0     H36113   8.237   9.250   4.224  1.7137 -2.3029  0.3202
  268MOL0     H36114   8.141   9.092   4.386 -0.1703  0.3522  0.6180
  268MOL0     H36115   8.066   8.972   4.544  0.9022  1.9570 -1.4718
  268MOL0     H36116   8.225   8.965   4.618 -0.3321 -1.2430 -1.1441
  268MOL0     H36117   8.066   8.817   4.732  0.8231 -0.2529  0.6777
  268MOL0     H36118   8.104   8.948   4.843  0.8661 -1.7185 -0.3000
  268MOL0     H36119   7.880   9.040   4.803 -2.4460  0.7107 -0.7335
  268MOL0     H36120   7.870   8.963   4.646 -0.8155  1.6518  1.2487
  268MOL0     H36121   7.817   8.757   4.739  3.1582 -1.8188  0.4885
  268MOL0     H36122   7.895   8.802   4.894  3.0368 -2.0501 -2.8499
  268MOL0     H36123   7.720   8.939   4.969  0.0010  0.7067  0.7362
  268MOL0     H36124   7.643   8.947   4.812  0.7840  0.0407 -0.3942
  268MOL0     H36125   7.618   8.697   4.822 -1.3459 -0.0759 -0.4516
  268MOL0     H36126   7.701   8.689   4.976  1.4646  1.3840 -0.6565
  268MOL0     H36127   7.517   8.848   5.068  3.2305  0.7813 -0.0865
  268MOL0     H36128   7.431   8.815   4.916 -1.6733 -3.9204  1.1700
  268MOL0     H36129   7.493   8.578   5.099  1.7618 -0.7466 -2.6349
  268MOL0     H36130   7.398   8.575   4.966  1.5919  0.3296 -0.9133
  268MOL0     H36131   7.340   8.897   5.196 -1.3864  0.7311  2.0837
  268MOL0     H36132   7.036   8.815   5.391 -3.6435  0.2125 -3.5519
  268MOL0     H36133   7.181   8.931   5.401  0.8943 -3.3997  1.8626
  268MOL0     H36134   6.966   8.938   5.183  0.6314 -1.1001  0.3479
  268MOL0     H36135   7.070   9.070   5.222  0.1214  0.2648  1.4759
  268MOL0     H36136   6.968   9.108   5.439 -0.5081  0.0218  1.6739
  268MOL0     H36137   6.867   8.965   5.423  0.7343  1.3625  0.8804
  268MOL0     H36138   6.863   9.214   5.253  2.2759 -1.2717  0.8807
  268MOL0     H36139   6.755   9.190   5.389  4.1169 -1.3128  2.2020
  268MOL0     H36140   6.670   9.344   5.204  1.3225 -2.5276 -0.1656
  268MOL0     H36141   6.420   9.488   5.052  0.3472 -0.9107  0.4464
  268MOL0     H36142   6.324   9.484   5.192 -0.4969  0.1101 -2.8904
  268MOL0     H36143   6.504   9.521   5.198  0.5534  1.3678 -2.1658
  268MOL0     H36144   6.084   9.563   5.151 -0.6894 -2.1695  1.5308
  268MOL0     H36145   5.864   9.679   5.077 -3.7055 -1.4388  0.3407
  268MOL0     H36146   5.656   9.517   4.727  2.2620  1.9239 -0.3879
  268MOL0     H36147   5.535   9.498   4.856  0.9392 -0.6568 -0.1627
  268MOL0     H36148   5.432   9.623   4.705  0.4311 -0.3842  0.8135
  268MOL0     H36149   5.485   9.744   4.831 -0.8639  0.0587 -0.1007
  268MOL0     H36150   5.641   9.680   4.569 -0.2704 -0.6041  0.5097
  268MOL0     H36151   5.657   9.820   4.672  0.3782 -1.2110  1.1923
  268MOL0     H36152   5.413   9.771   4.506 -1.5372  0.7353  1.9414
  268MOL0     H36153   5.415   9.862   4.639 -0.7772 -0.7327  0.3142
  268MOL0     H36154   5.642   9.911   4.433 -0.1298  1.6027 -1.5600
  268MOL0     H36155   5.587  10.021   4.551  1.2071 -0.8905  1.6175
  268MOL0     H36156   5.379   9.941   4.347 -1.1219  2.7283 -2.9007
  268MOL0     H36157   5.421  10.091   4.445  0.0348  0.4409  0.3024
  268MOL0     H36158   5.580   9.964   4.215  0.0465 -0.1396  0.8383
  268MOL0     H36159   5.597  10.133   4.277 -0.3385 -0.5252  1.2966
  268MOL0     H36160   5.378  10.177   4.174  1.1213  0.5337 -0.2264
  268MOL0     H36161   5.355  10.009   4.125 -1.6718  2.2360 -3.2073
  268MOL0     H36162   5.812   9.363   4.789 -0.7601  1.1754 -1.1203
  268MOL0     H36163   6.019   9.266   4.857 -2.7005 -2.2285  0.3939
  268MOL0     H36164   6.302   9.009   5.136  2.3684 -3.1926  1.8508
  268MOL0     H36165   6.539   8.934   5.146  0.8459  0.1027 -0.4066
  268MOL0     H36166   8.221   9.355   4.704 -1.9316 -0.9809 -0.0671
  268MOL0     H36167   8.345   9.500   4.559 -0.9042  0.0999  1.1174
  268MOL0     H36168   8.438   9.527   4.063  3.3519 -0.8364 -1.8179
  268MOL0     H36169   8.594   9.667   3.911 -0.6479 -1.7758  0.3885
  268MOL0     H36170   8.808   9.785   3.958 -0.5700 -1.2420  0.4525
  268MOL0     H36171   8.713   9.833   3.803  0.6399  0.4248 -0.7197
  268MOL0     H36172   8.900  10.029   3.943  0.5983 -0.8967 -1.0359
  268MOL0     H36173   8.809  10.041   3.792 -2.6250 -0.2239  2.1243
  268MOL0     H36174   8.967   9.818   3.739 -2.1490  0.1101  0.5507
  268MOL0     H36175   9.067   9.901   3.861  0.6683  1.5882 -0.8389
  268MOL0     H36176   8.997  10.115   3.701 -0.4845 -0.4679  0.1543
  268MOL0     H36177   9.024   9.980   3.580  2.0665 -0.9874  0.3308
  268MOL0     H36178   9.408  10.098   3.730  0.6787  0.4760 -3.7344
  268MOL0     H36179   8.520  10.006   4.170  0.8621  0.5506 -1.6647
  268MOL0     H36180   8.350   9.865   4.296  0.3645  3.1117 -0.9404
  269MOL0     O36181   5.184   3.993   1.672  0.7641  0.1079 -0.2923
  269MOL0     C36182   5.138   4.032   1.784  0.1834  0.1603 -0.3702
  269MOL0     O36183   5.147   3.958   1.893  0.2729 -0.1647 -0.6819
  269MOL0     C36184   5.230   3.848   1.898  0.2460  0.1927 -0.2372
  269MOL0     C36185   5.365   3.840   1.853 -0.5881  0.2696 -0.4191
  269MOL0     C36186   5.430   3.721   1.852 -0.1167  0.1882  0.0028
  269MOL0     C36187   5.372   3.609   1.916  0.8224  0.1736  0.2702
  269MOL0     O36188   5.441   3.493   1.937  0.7519 -0.7754 -0.4173
  269MOL0     C36189   5.571   3.465   1.885 -0.3501 -0.2968 -0.5898
  269MOL0     C36190   5.614   3.321   1.926 -0.2672 -0.7596 -0.0705
  269MOL0     C36191   5.495   3.232   1.906  0.4555  0.5014 -0.3121
  269MOL0     C36192   5.547   3.091   1.933  0.7375 -0.3865  0.3388
  269MOL0     C36193   5.428   2.994   1.909 -0.2513  0.1709  0.0025
  269MOL0     C36194   5.461   2.857   1.957 -0.0616 -0.3499  0.0369
  269MOL0     C36195   5.344   2.756   1.914  0.2817 -0.4178  0.1960
  269MOL0     C36196   5.368   2.608   1.905  0.6617  0.0009 -0.0299
  269MOL0     N36197   5.464   2.589   1.797 -0.3546  0.3973 -0.9910
  269MOL0     C36198   5.588   2.552   1.818 -0.2739 -0.1973 -0.3978
  269MOL0     C36199   5.637   2.563   1.691 -0.4217 -0.5671 -0.3252
  269MOL0     C36200   5.781   2.549   1.649  0.1879  0.6134 -0.4326
  269MOL0     C36201   5.882   2.602   1.755 -0.7528  0.3512 -0.8265
  269MOL0     C36202   5.882   2.753   1.782  0.0868  0.0497 -0.2082
  269MOL0     C36203   5.948   2.825   1.664 -0.6816  1.3332 -0.5422
  269MOL0     O36204   5.934   2.962   1.657  0.4284  0.6946 -0.1925
  269MOL0     C36205   5.814   3.017   1.614 -0.6836 -0.2885 -0.3489
  269MOL0     C36206   5.703   2.943   1.571  0.1794  0.0172 -1.7955
  269MOL0     C36207   5.581   3.015   1.544  0.2740 -0.6052 -0.0075
  269MOL0     C36208   5.475   2.925   1.495  0.6346  0.0930  1.2716
  269MOL0     C36209   5.576   3.156   1.559  0.4509 -0.6353  0.2571
  269MOL0     C36210   5.453   3.237   1.529 -1.4302 -0.2249  0.0325
  269MOL0     O36211   5.466   3.371   1.512 -0.0003  0.2786 -0.7478
  269MOL0     C36212   5.357   3.443   1.490  0.5223 -1.4100 -0.1252
  269MOL0     C36213   5.334   3.557   1.569  0.1492 -0.2939 -1.3313
  269MOL0     C36214   5.229   3.650   1.560  0.3737 -0.0278  0.2651
  269MOL0     C36215   5.135   3.626   1.454  0.1525 -0.8995  0.5744
  269MOL0     O36216   5.016   3.706   1.434 -0.3254  1.1342 -0.5506
  269MOL0     C36217   4.909   3.638   1.366  0.3816  0.5022 -0.4247
  269MOL0     C36218   4.792   3.738   1.369  0.4400 -0.9647 -0.2026
  269MOL0     C36219   4.840   3.877   1.313 -0.2190 -0.6039  0.5123
  269MOL0     C36220   4.734   3.982   1.354 -0.6018 -1.1805 -0.5357
  269MOL0     C36221   4.777   4.135   1.355  0.6365  0.8910 -0.3740
  269MOL0     C36222   4.675   4.220   1.432 -0.1225  0.0013  0.2682
  269MOL0     C36223   4.523   4.216   1.396  0.3918  0.0125 -1.2743
  269MOL0     C36224   4.442   4.339   1.445  0.4934  0.6904 -0.7409
  269MOL0    Cl36225   4.272   4.318   1.399 -0.7189  0.5391  0.3192
  269MOL0     C36226   5.156   3.512   1.372  0.2654  0.3322  0.0769
  269MOL0     C36227   5.270   3.438   1.382  0.3367 -0.0859  0.5668
  269MOL0     O36228   5.347   3.176   1.536  0.1115 -0.5285  0.8782
  269MOL0     C36229   5.687   3.225   1.589 -0.5602  0.6071 -0.6059
  269MOL0     C36230   5.806   3.158   1.621 -0.6415 -0.9116 -0.0343
  269MOL0     N36231   5.536   2.586   1.595  0.0446  0.3066  0.5396
  269MOL0     N36232   5.433   2.609   1.661 -0.4372 -0.4862  0.0402
  269MOL0     C36233   5.239   3.611   1.951  0.7305  0.3186  0.2535
  269MOL0     C36234   5.163   3.732   1.938 -0.2379 -1.3386  0.2122
  269MOL0     C36235   5.048   4.151   1.790  0.2577  0.5476  0.0564
  269MOL0     C36236   5.001   4.216   1.670  0.0713 -1.1239 -0.3001
  269MOL0     C36237   4.915   4.331   1.689 -0.1978  1.5438  0.3085
  269MOL0     C36238   4.864   4.362   1.821 -0.7703  0.1810  0.1925
  269MOL0     O36239   4.777   4.469   1.843  0.0464 -0.1131  0.3375
  269MOL0     C36240   4.766   4.570   1.739  0.0186  0.5854 -0.6936
  269MOL0     C36241   4.637   4.657   1.761  0.3143 -1.1219 -0.0342
  269MOL0     C36242   4.642   4.766   1.647  0.4137  0.1434  0.1995
  269MOL0     C36243   4.522   4.858   1.640 -0.0796  0.0384  1.0413
  269MOL0     C36244   4.392   4.790   1.616  0.3486 -0.0592 -0.2224
  269MOL0     C36245   4.287   4.732   1.615 -0.0961 -0.3104 -0.0433
  269MOL0     C36246   4.916   4.302   1.931 -0.2496 -0.8027  0.4734
  269MOL0     C36247   5.001   4.196   1.915 -0.2033 -0.1726  0.2841
  269MOL0     H36248   5.417   3.928   1.818  0.7416  0.1471  1.1467
  269MOL0     H36249   5.527   3.713   1.805  1.2898 -0.2585  2.7371
  269MOL0     H36250   5.576   3.472   1.776  0.0915  2.6650 -0.4647
  269MOL0     H36251   5.646   3.532   1.928  1.1643 -0.8607 -2.2442
  269MOL0     H36252   5.693   3.273   1.869  0.4293 -3.6505  2.9885
  269MOL0     H36253   5.650   3.330   2.029  0.1849  0.1172 -0.2987
  269MOL0     H36254   5.413   3.253   1.976 -1.1197  0.5480 -2.1019
  269MOL0     H36255   5.468   3.246   1.801  2.9250 -0.2637 -1.1104
  269MOL0     H36256   5.619   3.070   1.854  0.3639  1.8403 -0.6640
  269MOL0     H36257   5.590   3.080   2.033  0.0394  1.3684  0.8634
  269MOL0     H36258   5.332   3.029   1.949  0.5846  0.8386  1.5082
  269MOL0     H36259   5.419   2.986   1.801 -0.7708 -1.8431  0.1537
  269MOL0     H36260   5.557   2.826   1.914  1.0193  2.3614  0.3372
  269MOL0     H36261   5.465   2.853   2.066 -0.8301 -1.3529  0.0444
  269MOL0     H36262   5.263   2.772   1.986  0.2479  0.4204 -0.0256
  269MOL0     H36263   5.309   2.789   1.816 -0.9225 -1.4089  0.2616
  269MOL0     H36264   5.284   2.547   1.869  1.4267 -2.4219  1.9954
  269MOL0     H36265   5.413   2.575   1.999  1.3590  0.2949 -0.2511
  269MOL0     H36266   5.644   2.533   1.909 -1.1382  1.2949  0.5095
  269MOL0     H36267   5.800   2.441   1.654 -0.1143  0.5990  2.6083
  269MOL0     H36268   5.799   2.593   1.551  6.5504 -0.5360 -0.2076
  269MOL0     H36269   5.977   2.563   1.719 -0.8742 -1.2272  0.4186
  269MOL0     H36270   5.867   2.560   1.855  0.5948  0.5615 -0.5111
  269MOL0     H36271   5.946   2.774   1.868  0.0494  1.7486 -0.5573
  269MOL0     H36272   5.787   2.797   1.814  0.2383  0.3717 -0.1977
  269MOL0     H36273   5.921   2.788   1.565 -3.8830 -0.6901  0.9407
  269MOL0     H36274   6.055   2.803   1.675 -1.0818  0.1383  1.3222
  269MOL0     H36275   5.705   2.835   1.559 -0.1639 -0.3576  0.7960
  269MOL0     H36276   5.416   2.888   1.579 -0.5146 -0.9145  0.0554
  269MOL0     H36277   5.408   2.975   1.425  1.6077 -2.1595 -1.4322
  269MOL0     H36278   5.524   2.843   1.443 -1.7931  0.2727 -1.5679
  269MOL0     H36279   5.415   3.576   1.639 -1.6742 -0.9641  1.0984
  269MOL0     H36280   5.218   3.738   1.622  2.7490  0.1253  0.5625
  269MOL0     H36281   4.933   3.613   1.263  1.0008  1.4529 -0.5202
  269MOL0     H36282   4.885   3.544   1.418  2.1158 -0.4325 -1.2194
  269MOL0     H36283   4.704   3.694   1.320  1.2360  0.1698 -2.8475
  269MOL0     H36284   4.765   3.765   1.471 -3.4788 -0.1001 -1.2947
  269MOL0     H36285   4.862   3.865   1.207 -1.9422 -3.6234  0.3817
  269MOL0     H36286   4.934   3.919   1.351  0.4978 -2.8575  1.4653
  269MOL0     H36287   4.650   3.965   1.286 -0.6608 -1.8821 -0.3003
  269MOL0     H36288   4.685   3.955   1.448 -0.2708 -0.6394 -0.2013
  269MOL0     H36289   4.791   4.174   1.254 -1.2127  2.0843 -0.2187
  269MOL0     H36290   4.876   4.150   1.397  1.5690  0.5114 -2.3069
  269MOL0     H36291   4.679   4.195   1.539 -0.5306  1.1492  0.5676
  269MOL0     H36292   4.715   4.321   1.419  0.8777 -0.3665  0.4001
  269MOL0     H36293   4.479   4.122   1.431  3.9105 -1.8856 -1.4021
  269MOL0     H36294   4.511   4.206   1.288 -0.3502 -2.8384 -1.0156
  269MOL0     H36295   4.476   4.432   1.397  2.4132 -0.7708 -2.4197
  269MOL0     H36296   4.458   4.346   1.553 -4.0549 -1.6680  0.3095
  269MOL0     H36297   5.086   3.487   1.292  1.2504  0.5312 -0.8777
  269MOL0     H36298   5.271   3.351   1.317  0.4082 -0.5257  1.1419
  269MOL0     H36299   5.687   3.334   1.595  0.7392  0.7999 -2.9511
  269MOL0     H36300   5.885   3.223   1.655 -2.5535  1.0384  0.8624
  269MOL0     H36301   5.187   3.525   1.991 -1.1931  0.4198 -1.8451
  269MOL0     H36302   5.061   3.733   1.974 -1.1606  1.7486 -2.0472
  269MOL0     H36303   5.021   4.188   1.567  0.2733 -1.9937 -0.0331
  269MOL0     H36304   4.877   4.371   1.596 -0.4414  1.4288  0.3579
  269MOL0     H36305   4.851   4.639   1.736  1.0601 -0.6486 -0.2625
  269MOL0     H36306   4.761   4.520   1.641  3.3920 -0.4049 -0.4749
  269MOL0     H36307   4.652   4.712   1.855  0.2915 -0.7107 -0.2711
  269MOL0     H36308   4.549   4.593   1.750  0.2364 -0.9358 -0.4914
  269MOL0     H36309   4.648   4.714   1.551  0.0627  0.4954 -0.0141
  269MOL0     H36310   4.737   4.818   1.648  0.4877  0.0093  0.4655
  269MOL0     H36311   4.540   4.935   1.564 -0.0897 -0.0150  0.9853
  269MOL0     H36312   4.526   4.925   1.726  0.9411 -0.8416  1.7124
  269MOL0     H36313   4.198   4.672   1.621  1.2606 -2.3774  0.4638
  269MOL0     H36314   4.886   4.347   2.026  1.2099 -1.2169  1.1603
  269MOL0     H36315   5.041   4.153   2.006 -0.9905  1.2877  1.3460
  270MOL0     O36316   8.708   3.299  11.051 -0.2285  0.6805 -0.1094
  270MOL0     C36317   8.752   3.283  11.165  0.0836  0.6806 -0.5270
  270MOL0     O36318   8.687   3.318  11.285  0.6043  0.1199 -0.2190
  270MOL0     C36319   8.577   3.392  11.264  0.7157  0.0513 -0.0235
  270MOL0     C36320   8.462   3.345  11.211  0.1264  0.8310 -0.3662
  270MOL0     C36321   8.350   3.428  11.204  0.0588  0.3858  0.1674
  270MOL0     C36322   8.358   3.565  11.232  0.8587  0.0122  0.4847
  270MOL0     O36323   8.266   3.661  11.213  0.1363 -0.5792 -0.8399
  270MOL0     C36324   8.128   3.628  11.200  0.8721 -0.5562 -0.0129
  270MOL0     C36325   8.033   3.740  11.232 -0.0612 -0.1059  0.3928
  270MOL0     C36326   7.898   3.701  11.185 -0.0104  0.1718  0.1397
  270MOL0     C36327   7.784   3.769  11.257  0.1031  0.1103  0.4352
  270MOL0     C36328   7.665   3.707  11.189 -0.0723 -0.5502  0.7666
  270MOL0     C36329   7.548   3.777  11.251 -0.2195 -0.0608  0.3205
  270MOL0     C36330   7.418   3.702  11.220 -0.2056 -0.0459 -0.1996
  270MOL0     C36331   7.402   3.564  11.271 -0.7534  0.2978 -0.8408
  270MOL0     N36332   7.408   3.548  11.417 -0.6112  0.8746 -1.9056
  270MOL0     C36333   7.296   3.522  11.489 -0.3636 -0.0410 -0.1644
  270MOL0     C36334   7.337   3.481  11.605 -0.2915  0.1782  0.8305
  270MOL0     C36335   7.243   3.422  11.712  0.0715 -0.0055 -0.3133
  270MOL0     C36336   7.127   3.348  11.646  0.0724  0.9010 -0.1838
  270MOL0     C36337   7.051   3.269  11.753 -0.6504 -0.2224 -0.7112
  270MOL0     C36338   7.122   3.148  11.815 -0.8432 -0.7799 -0.1842
  270MOL0     O36339   7.019   3.066  11.870 -0.2242  0.2767  0.1811
  270MOL0     C36340   7.051   2.937  11.900  0.4899 -0.3383 -0.0544
  270MOL0     C36341   7.170   2.872  11.926 -0.7249 -0.0261  0.3617
  270MOL0     C36342   7.184   2.744  11.961  0.1865 -0.5434 -0.6625
  270MOL0     C36343   7.320   2.697  11.994 -0.3363 -0.3742  0.8330
  270MOL0     C36344   7.065   2.666  11.983  0.7847  0.6616  0.7829
  270MOL0     C36345   7.076   2.515  12.008  0.0689  0.1065 -0.4815
  270MOL0     O36346   6.946   2.464  12.020  1.1365  0.0755  0.7785
  270MOL0     C36347   6.925   2.336  12.068  0.0655 -0.2386 -0.1326
  270MOL0     C36348   6.990   2.284  12.175  0.2309  0.9247 -0.4315
  270MOL0     C36349   6.972   2.149  12.210 -0.3256 -0.0181  0.5212
  270MOL0     C36350   6.876   2.066  12.144 -0.6282  0.2672 -1.1045
  270MOL0     O36351   6.859   1.938  12.200  0.2197 -0.1074  0.5846
  270MOL0     C36352   6.728   1.880  12.197 -0.3435 -0.5915  0.0348
  270MOL0     C36353   6.713   1.748  12.268  0.2854 -0.4968 -0.1555
  270MOL0     C36354   6.759   1.746  12.426 -0.1688 -0.4679 -0.5284
  270MOL0     C36355   6.914   1.734  12.438  0.5421 -0.1536 -0.0184
  270MOL0     C36356   6.942   1.743  12.590  1.2586 -0.9872  0.3545
  270MOL0     C36357   7.090   1.741  12.604 -1.2120 -0.1329  0.0478
  270MOL0     C36358   7.158   1.612  12.575 -0.1471 -0.0410 -0.7790
  270MOL0     C36359   7.300   1.590  12.635  0.3151  0.0439  0.2763
  270MOL0    Cl36360   7.324   1.637  12.809 -0.4486 -0.2033  0.0644
  270MOL0     C36361   6.812   2.118  12.036 -0.5282  0.3528  0.8069
  270MOL0     C36362   6.829   2.257  11.993 -0.7751  0.8900 -1.0924
  270MOL0     O36363   7.179   2.458  12.028  0.0548  0.7464 -0.2688
  270MOL0     C36364   6.947   2.726  11.944  0.9722 -0.1805  0.1293
  270MOL0     C36365   6.939   2.859  11.899 -0.0091 -0.1789  0.0432
  270MOL0     N36366   7.474   3.478  11.611 -0.6436  0.2632 -0.3474
  270MOL0     N36367   7.520   3.509  11.497  0.4902  0.7720  0.2778
  270MOL0     C36368   8.484   3.615  11.274 -0.4438  0.0875 -0.2563
  270MOL0     C36369   8.592   3.525  11.300  0.2232  0.1857  0.1825
  270MOL0     C36370   8.876   3.204  11.182  0.0349  0.1287 -0.1119
  270MOL0     C36371   8.935   3.128  11.081  0.4055  0.2278 -0.3960
  270MOL0     C36372   9.060   3.060  11.107  0.3596  0.6634  0.1364
  270MOL0     C36373   9.129   3.087  11.225 -0.7867 -0.2149  0.2764
  270MOL0     O36374   9.258   3.050  11.254 -0.3645 -0.4388 -0.3681
  270MOL0     C36375   9.350   3.036  11.141 -0.3176 -0.7981  0.0087
  270MOL0     C36376   9.494   2.985  11.181 -0.8423  0.4365  0.1133
  270MOL0     C36377   9.474   2.849  11.241 -0.2211  0.7285 -0.3444
  270MOL0     C36378   9.600   2.761  11.240 -1.0573  0.0383 -0.0661
  270MOL0     C36379   9.585   2.641  11.327  0.5340  0.7177 -0.4111
  270MOL0     C36380   9.580   2.555  11.412 -0.1656  0.5844  0.4476
  270MOL0     C36381   9.064   3.139  11.329  0.2546 -0.7319  0.0781
  270MOL0     C36382   8.940   3.204  11.303  0.3022 -0.0583  0.3249
  270MOL0     H36383   8.447   3.239  11.189  2.0818  0.9251 -2.5465
  270MOL0     H36384   8.259   3.390  11.158  0.3496 -0.1507  0.0310
  270MOL0     H36385   8.115   3.608  11.093 -1.6411  0.2827  0.0490
  270MOL0     H36386   8.099   3.544  11.264  3.3314  0.2710  2.3743
  270MOL0     H36387   8.035   3.752  11.341  1.5003 -0.8671  0.4666
  270MOL0     H36388   8.062   3.837  11.190  1.4002 -0.7305 -0.0936
  270MOL0     H36389   7.888   3.718  11.078 -1.6194 -2.4368 -0.2147
  270MOL0     H36390   7.888   3.593  11.201  0.6196 -0.0100 -0.6376
  270MOL0     H36391   7.782   3.737  11.361 -0.0811 -0.0703  0.3769
  270MOL0     H36392   7.786   3.878  11.245 -1.5025  0.3792  2.1237
  270MOL0     H36393   7.659   3.710  11.080 -1.9661 -1.6396  0.8000
  270MOL0     H36394   7.669   3.602  11.219  1.9048 -1.3311 -1.8273
  270MOL0     H36395   7.567   3.782  11.359 -0.4277 -2.0066  0.4894
  270MOL0     H36396   7.529   3.878  11.213 -1.0983  0.1431  1.2308
  270MOL0     H36397   7.328   3.758  11.247 -1.7166 -1.1722 -2.6242
  270MOL0     H36398   7.417   3.701  11.111  0.7169  1.0911 -0.2380
  270MOL0     H36399   7.473   3.502  11.215  1.0697  2.1015 -0.6460
  270MOL0     H36400   7.301   3.541  11.235 -2.5026  1.8861  2.5560
  270MOL0     H36401   7.194   3.536  11.457 -0.6708 -2.7057 -0.5963
  270MOL0     H36402   7.296   3.366  11.790 -3.4209 -0.7398  1.7371
  270MOL0     H36403   7.217   3.504  11.780  3.9862  0.9337  0.3085
  270MOL0     H36404   7.157   3.279  11.567  3.0309  2.0799 -0.2318
  270MOL0     H36405   7.058   3.419  11.598  0.4900  1.6842  0.3533
  270MOL0     H36406   6.964   3.222  11.707 -1.1557 -1.9947  1.8078
  270MOL0     H36407   7.013   3.333  11.834  0.6563  0.2754 -0.4734
  270MOL0     H36408   7.185   3.182  11.897 -0.0288 -1.4127 -0.5372
  270MOL0     H36409   7.179   3.089  11.743  0.1462 -2.3970  1.8497
  270MOL0     H36410   7.256   2.939  11.932 -0.1501 -0.7620  0.5086
  270MOL0     H36411   7.312   2.638  12.086 -1.8193 -3.0019 -0.8542
  270MOL0     H36412   7.356   2.643  11.906  0.2331  0.9300  0.2339
  270MOL0     H36413   7.393   2.776  12.015  1.3889 -1.5159 -0.6487
  270MOL0     H36414   7.068   2.341  12.224  1.5844 -0.0938 -1.3559
  270MOL0     H36415   7.029   2.117  12.297  0.7993  1.1793  0.2537
  270MOL0     H36416   6.663   1.955  12.243  1.3547  1.8239 -1.3323
  270MOL0     H36417   6.701   1.865  12.092 -1.5767  3.5040 -0.3854
  270MOL0     H36418   6.613   1.708  12.252  0.3326 -0.0414 -1.7366
  270MOL0     H36419   6.767   1.669  12.216  3.2611  0.4283  1.2878
  270MOL0     H36420   6.709   1.675  12.491  1.7152 -1.3425  0.0372
  270MOL0     H36421   6.730   1.843  12.467  1.0745 -0.5347  0.5585
  270MOL0     H36422   6.941   1.635  12.400  0.7205 -0.3111  0.5079
  270MOL0     H36423   6.960   1.820  12.388  0.3168  0.1286  0.2525
  270MOL0     H36424   6.886   1.664  12.641  0.0245  0.7554  1.8282
  270MOL0     H36425   6.904   1.841  12.620  1.0539 -0.1814 -2.2887
  270MOL0     H36426   7.148   1.818  12.553  1.8098 -0.4198  2.7030
  270MOL0     H36427   7.106   1.762  12.711  0.2472  0.5448 -0.2869
  270MOL0     H36428   7.163   1.604  12.466  1.2569 -1.6966 -0.6483
  270MOL0     H36429   7.089   1.532  12.602 -0.7292  0.8449  0.3969
  270MOL0     H36430   7.334   1.487  12.627 -1.8502 -0.7853  0.8891
  270MOL0     H36431   7.375   1.654  12.587  0.2447 -0.4458 -0.4966
  270MOL0     H36432   6.734   2.059  11.990 -3.0562  1.4787  3.3315
  270MOL0     H36433   6.772   2.305  11.913 -1.0835 -0.5519 -1.7639
  270MOL0     H36434   6.857   2.666  11.953 -0.0169  0.8814 -2.0355
  270MOL0     H36435   6.847   2.913  11.880 -1.6411 -1.8330  2.6076
  270MOL0     H36436   8.507   3.719  11.295  1.3906  0.0982 -1.9835
  270MOL0     H36437   8.689   3.561  11.334 -0.6888  2.3125  0.6368
  270MOL0     H36438   8.902   3.117  10.978  3.4343  0.9462 -1.5367
  270MOL0     H36439   9.113   3.016  11.023 -0.6970 -0.7529  0.1610
  270MOL0     H36440   9.316   2.963  11.067 -1.8877 -2.4904  2.2485
  270MOL0     H36441   9.355   3.132  11.089 -0.1392 -1.4910 -1.2839
  270MOL0     H36442   9.537   3.055  11.253  1.8526 -0.5300 -0.4510
  270MOL0     H36443   9.559   2.974  11.094  0.7021  2.3079  0.9505
  270MOL0     H36444   9.392   2.796  11.191  0.9912 -0.9589 -0.5968
  270MOL0     H36445   9.447   2.857  11.346 -2.6924 -0.0470 -0.8482
  270MOL0     H36446   9.685   2.814  11.282 -0.8340  1.6174 -2.3174
  270MOL0     H36447   9.636   2.740  11.139  1.3633  1.1228  0.5073
  270MOL0     H36448   9.561   2.473  11.478  0.3559 -1.9949 -2.4377
  270MOL0     H36449   9.115   3.125  11.423  1.1216  2.2031  0.1611
  270MOL0     H36450   8.899   3.259  11.387  0.1001  2.5131 -1.3532
  271MOL0     O36451   9.454   5.806   0.625  0.5190 -0.0084  0.4394
  271MOL0     C36452   9.534   5.724   0.584 -0.3173  0.1790  0.3787
  271MOL0     O36453   9.507   5.616   0.511  0.9422 -0.3366 -0.1328
  271MOL0     C36454   9.375   5.588   0.475  0.1651 -1.3828  0.5007
  271MOL0     C36455   9.343   5.591   0.334  0.1786  0.5612 -1.0608
  271MOL0     C36456   9.212   5.576   0.293 -0.0948 -1.2458 -0.2924
  271MOL0     C36457   9.101   5.577   0.384  0.2090  0.0392 -0.0584
  271MOL0     O36458   8.965   5.578   0.343 -0.3748 -0.0610  0.2247
  271MOL0     C36459   8.939   5.603   0.201  0.1490 -0.0403  0.1542
  271MOL0     C36460   8.790   5.636   0.189 -0.7429  0.2391 -0.4899
  271MOL0     C36461   8.690   5.556   0.273 -0.3048 -0.3157  0.4246
  271MOL0     C36462   8.561   5.629   0.274 -0.0249  0.2528 -0.5284
  271MOL0     C36463   8.457   5.579   0.377 -0.5362 -0.1493 -0.9653
  271MOL0     C36464   8.328   5.644   0.330 -0.1360  1.0374  0.3148
  271MOL0     C36465   8.204   5.592   0.404  0.4061 -0.5174 -0.4926
  271MOL0     C36466   8.064   5.620   0.335 -0.4845  0.6087  0.1139
  271MOL0     N36467   7.947   5.578   0.415 -0.7787 -0.2203 -0.4249
  271MOL0     C36468   7.904   5.446   0.403 -0.2395 -0.2471 -0.1131
  271MOL0     C36469   7.804   5.441   0.495 -0.4616 -0.4207  0.0299
  271MOL0     C36470   7.723   5.316   0.517 -0.4653 -0.0018  0.1320
  271MOL0     C36471   7.628   5.292   0.396 -0.1598  0.3528  0.0777
  271MOL0     C36472   7.555   5.162   0.415  0.5017  0.1630  1.0577
  271MOL0     C36473   7.601   5.047   0.320 -0.3664 -0.1106 -0.0513
  271MOL0     O36474   7.560   5.076   0.189  0.4130  0.4965  0.6460
  271MOL0     C36475   7.428   5.056   0.148 -0.3879 -0.1955  0.5401
  271MOL0     C36476   7.322   5.005   0.223  1.3250  0.1817  0.0897
  271MOL0     C36477   7.189   4.979   0.176 -0.8895 -0.5990  0.6656
  271MOL0     C36478   7.083   4.915   0.262 -0.2852  0.7101 -0.5601
  271MOL0     C36479   7.172   5.004   0.035  0.3421  0.2810 -0.3028
  271MOL0     C36480   7.038   4.984  -0.027 -1.2080  0.5273  0.2970
  271MOL0     O36481   6.992   5.098  -0.095  0.0075 -0.9788 -0.3397
  271MOL0     C36482   6.889   5.069  -0.189 -0.3956  0.2234  0.2696
  271MOL0     C36483   6.759   5.047  -0.147 -0.1095 -0.0061  0.8767
  271MOL0     C36484   6.655   5.025  -0.243 -0.1943  0.8842  0.1466
  271MOL0     C36485   6.683   5.009  -0.379  0.6165 -0.2585  0.3838
  271MOL0     O36486   6.602   4.988  -0.489  0.2044 -0.2163 -0.4195
  271MOL0     C36487   6.477   4.921  -0.462 -0.2033  0.2209  0.0562
  271MOL0     C36488   6.377   4.943  -0.573  0.3449 -0.1549 -0.8235
  271MOL0     C36489   6.241   4.867  -0.573  0.0778  0.1184 -0.3503
  271MOL0     C36490   6.267   4.729  -0.644 -0.0390 -1.0323 -0.7202
  271MOL0     C36491   6.128   4.661  -0.628 -0.2889  0.4112 -0.2636
  271MOL0     C36492   6.023   4.691  -0.735  0.2129  0.5249 -0.7015
  271MOL0     C36493   5.876   4.652  -0.686  0.3918 -0.4287 -0.9067
  271MOL0     C36494   5.770   4.679  -0.791  0.1059  0.1163  0.3090
  271MOL0    Cl36495   5.792   4.592  -0.942  0.1952 -0.1452 -0.0088
  271MOL0     C36496   6.813   5.019  -0.418 -0.0609 -1.4758 -0.3769
  271MOL0     C36497   6.916   5.047  -0.326 -0.8291 -0.2854  0.3952
  271MOL0     O36498   6.981   4.876  -0.024  0.4055 -0.3155  0.1306
  271MOL0     C36499   7.281   5.057  -0.041 -0.4731 -0.0423 -0.7870
  271MOL0     C36500   7.402   5.084   0.018  0.3775 -0.2542 -0.6948
  271MOL0     N36501   7.806   5.558   0.570 -0.0558 -0.2283  0.2040
  271MOL0     N36502   7.893   5.639   0.524 -0.4159  0.6028  0.3208
  271MOL0     C36503   9.131   5.586   0.527 -0.6124  0.1251 -1.0625
  271MOL0     C36504   9.262   5.593   0.570 -0.4590  0.2378 -0.0845
  271MOL0     C36505   9.675   5.764   0.591 -0.1608  0.0676 -0.7604
  271MOL0     C36506   9.721   5.880   0.670  0.4466  0.2250 -0.1640
  271MOL0     C36507   9.854   5.925   0.664 -0.1261 -0.1515  0.7173
  271MOL0     C36508   9.949   5.857   0.593  0.4852  0.3671 -0.5183
  271MOL0     O36509  10.077   5.877   0.617  0.0031 -0.2224  0.1148
  271MOL0     C36510  10.159   5.932   0.512 -1.4122 -0.1312  0.1417
  271MOL0     C36511  10.124   6.075   0.463 -0.6489 -0.0872  0.1598
  271MOL0     C36512  10.209   6.124   0.341  0.3419 -0.3039 -0.4628
  271MOL0     C36513  10.153   6.244   0.261  0.1575 -0.0610  0.1046
  271MOL0     C36514  10.141   6.368   0.340 -0.0246  0.8684  0.3849
  271MOL0     C36515  10.116   6.460   0.419  0.9444  0.1260 -0.0612
  271MOL0     C36516   9.910   5.746   0.524 -0.2333  0.0418  0.9109
  271MOL0     C36517   9.772   5.707   0.512  0.2677  0.1750  0.8441
  271MOL0     H36518   9.412   5.610   0.252  0.4444 -2.7134 -1.7468
  271MOL0     H36519   9.187   5.581   0.187  0.8618  1.4906 -0.4629
  271MOL0     H36520   8.987   5.698   0.175 -1.7819  0.4301 -2.0464
  271MOL0     H36521   8.960   5.521   0.133  1.1977 -2.6184  3.3135
  271MOL0     H36522   8.768   5.738   0.221  2.8347  0.1644  3.0133
  271MOL0     H36523   8.762   5.606   0.088 -1.7688  2.4386 -0.8972
  271MOL0     H36524   8.689   5.455   0.230 -0.7353  0.2758 -1.0296
  271MOL0     H36525   8.721   5.548   0.377  1.5851 -3.0610 -0.2385
  271MOL0     H36526   8.570   5.733   0.309 -1.4087  0.4244 -0.6384
  271MOL0     H36527   8.529   5.616   0.171 -2.8394 -2.5575  0.5627
  271MOL0     H36528   8.450   5.470   0.382  0.8129 -0.2910 -1.6127
  271MOL0     H36529   8.483   5.608   0.480 -2.5532 -1.8173  0.0911
  271MOL0     H36530   8.330   5.754   0.327 -1.6336  1.0575 -1.0219
  271MOL0     H36531   8.321   5.618   0.224  2.6381  0.5660  0.1689
  271MOL0     H36532   8.216   5.483   0.413 -0.5242 -0.7341 -1.6355
  271MOL0     H36533   8.203   5.641   0.501  1.4649  1.1778 -1.2934
  271MOL0     H36534   8.078   5.568   0.240  0.9933 -1.9256  1.6049
  271MOL0     H36535   8.054   5.725   0.307 -1.9067  0.3557 -0.4478
  271MOL0     H36536   7.951   5.368   0.343  1.1344 -0.0722  0.6821
  271MOL0     H36537   7.801   5.240   0.521  2.0452  2.4470  1.4306
  271MOL0     H36538   7.660   5.328   0.606 -0.0151  0.9125  0.3423
  271MOL0     H36539   7.683   5.294   0.302  2.3084 -0.5926  1.3928
  271MOL0     H36540   7.552   5.371   0.395  0.4088  0.9160  0.4591
  271MOL0     H36541   7.450   5.183   0.390  0.5987  2.4985  2.3233
  271MOL0     H36542   7.554   5.151   0.524  2.9513  2.4900  1.4243
  271MOL0     H36543   7.557   4.958   0.364  4.3537 -2.6292  0.1504
  271MOL0     H36544   7.709   5.036   0.331  0.0376  2.2377 -0.9623
  271MOL0     H36545   7.358   4.981   0.323  0.4198  2.1493  0.9427
  271MOL0     H36546   7.128   4.875   0.353 -0.1448  0.8577 -0.5638
  271MOL0     H36547   7.007   4.988   0.290 -0.8606 -0.5951  1.4952
  271MOL0     H36548   7.024   4.840   0.208 -1.8504  0.7370  1.0199
  271MOL0     H36549   6.742   5.046  -0.040 -0.6553  2.5376  0.8726
  271MOL0     H36550   6.557   5.004  -0.199  0.9408 -1.3713  1.8588
  271MOL0     H36551   6.502   4.815  -0.448 -1.8991 -0.0670  1.2678
  271MOL0     H36552   6.419   4.952  -0.374  0.7832 -1.2236  1.2647
  271MOL0     H36553   6.344   5.048  -0.566  1.7217  0.3103 -1.0691
  271MOL0     H36554   6.435   4.921  -0.663  1.0676  2.2190 -1.0212
  271MOL0     H36555   6.164   4.922  -0.629 -0.3082 -0.5582 -0.4925
  271MOL0     H36556   6.209   4.870  -0.469 -0.0774  1.9365 -0.4172
  271MOL0     H36557   6.306   4.746  -0.745 -0.3340  0.2665 -0.6275
  271MOL0     H36558   6.345   4.670  -0.595 -0.1144  1.6761  3.1027
  271MOL0     H36559   6.078   4.677  -0.532  0.0061 -1.6586  0.2895
  271MOL0     H36560   6.138   4.553  -0.643  0.0258 -0.1391  3.0822
  271MOL0     H36561   6.017   4.795  -0.769 -2.0906  0.0668 -1.9331
  271MOL0     H36562   6.053   4.637  -0.825  2.1832 -1.0803  0.8416
  271MOL0     H36563   5.847   4.699  -0.591  0.1539 -1.9985 -0.1747
  271MOL0     H36564   5.882   4.546  -0.660  3.4552  0.0125  0.6549
  271MOL0     H36565   5.779   4.786  -0.814 -0.5559  0.4943  1.6720
  271MOL0     H36566   5.673   4.667  -0.741 -0.2739 -2.1373 -0.8654
  271MOL0     H36567   6.834   5.011  -0.525 -0.5670 -1.5531 -0.4717
  271MOL0     H36568   7.021   5.060  -0.353 -0.8580 -2.2151 -0.8136
  271MOL0     H36569   7.274   5.070  -0.148 -1.8805 -0.3708 -0.7529
  271MOL0     H36570   7.473   5.114  -0.058  0.2937  1.7253 -0.0662
  271MOL0     H36571   9.048   5.596   0.596  0.5843 -0.6892  0.5566
  271MOL0     H36572   9.286   5.606   0.675 -2.6920  1.8855  0.3038
  271MOL0     H36573   9.654   5.932   0.738 -1.4447 -0.8219 -1.1589
  271MOL0     H36574   9.881   6.008   0.728  0.7155  0.0463  0.1346
  271MOL0     H36575  10.267   5.937   0.531 -1.5106  1.4945  0.4121
  271MOL0     H36576  10.154   5.864   0.426 -0.4680 -0.7763  0.5807
  271MOL0     H36577  10.148   6.154   0.534 -1.9689 -0.4306  1.0194
  271MOL0     H36578  10.018   6.075   0.438 -0.5202  0.7456 -0.4414
  271MOL0     H36579  10.238   6.046   0.270  2.0765  0.1011 -0.2609
  271MOL0     H36580  10.308   6.156   0.374 -0.8260  2.3525  0.7149
  271MOL0     H36581  10.059   6.216   0.211  0.6914 -0.3051 -0.7963
  271MOL0     H36582  10.227   6.268   0.184 -0.0232  0.1806  0.0087
  271MOL0     H36583  10.094   6.538   0.490 -0.2473  3.9761 -4.1625
  271MOL0     H36584   9.999   5.701   0.480  1.3311  1.9235  1.9734
  271MOL0     H36585   9.745   5.613   0.465 -1.0658  0.0333  1.8319
  272MOL0     O36586  11.271   4.618   1.179  0.2883  0.3115 -0.0087
  272MOL0     C36587  11.177   4.590   1.254 -0.2173  0.4948 -0.0112
  272MOL0     O36588  11.083   4.490   1.231 -0.1548  0.2250 -0.4835
  272MOL0     C36589  11.045   4.467   1.100 -0.4232  0.4559 -1.2954
  272MOL0     C36590  11.047   4.557   0.994  0.6645 -0.9927 -0.2927
  272MOL0     C36591  11.013   4.524   0.860  0.2704  0.0096  0.0319
  272MOL0     C36592  10.963   4.395   0.830 -0.3114 -0.4265  0.6693
  272MOL0     O36593  10.928   4.376   0.707  0.0905  0.3389  0.0714
  272MOL0     C36594  10.810   4.297   0.681  0.2701  0.6964 -0.7573
  272MOL0     C36595  10.824   4.260   0.537  0.0285 -0.2123 -0.3243
  272MOL0     C36596  10.736   4.143   0.503  0.1893  0.4260  0.7613
  272MOL0     C36597  10.601   4.209   0.455 -0.0669 -0.6384  0.5697
  272MOL0     C36598  10.494   4.094   0.429 -1.2415  0.1581 -0.1173
  272MOL0     C36599  10.361   4.150   0.414  0.7710 -0.1847  0.3342
  272MOL0     C36600  10.253   4.042   0.426 -0.3617 -1.2083 -0.0946
  272MOL0     C36601  10.114   4.100   0.399  1.0171 -0.6700 -0.2727
  272MOL0     N36602  10.027   3.990   0.356  0.7836 -0.8604  0.6368
  272MOL0     C36603   9.929   3.942   0.430 -0.0596  0.3369 -0.5453
  272MOL0     C36604   9.862   3.853   0.358 -0.0501  0.7390 -0.0412
  272MOL0     C36605   9.750   3.761   0.394 -0.5330 -0.5849  0.8467
  272MOL0     C36606   9.624   3.826   0.456  0.2057 -0.0181 -0.0344
  272MOL0     C36607   9.518   3.728   0.455  0.1963 -0.5629 -0.1639
  272MOL0     C36608   9.393   3.796   0.521 -1.2173 -0.0649  0.0484
  272MOL0     O36609   9.320   3.872   0.419  0.0055  0.3202  1.0378
  272MOL0     C36610   9.201   3.933   0.448 -0.0554  0.4028  0.1171
  272MOL0     C36611   9.129   3.936   0.569  1.0216  0.0715  0.6867
  272MOL0     C36612   8.997   3.990   0.571 -0.3074 -0.2177 -0.0371
  272MOL0     C36613   8.927   3.978   0.703  0.6994 -0.0074  1.2503
  272MOL0     C36614   8.946   4.049   0.453 -0.5460 -0.0608 -0.0555
  272MOL0     C36615   8.802   4.110   0.441 -0.9710 -0.0531 -0.9250
  272MOL0     O36616   8.702   4.049   0.524 -0.0243  0.5585 -0.2602
  272MOL0     C36617   8.571   4.080   0.532  0.2956 -0.0351  0.7713
  272MOL0     C36618   8.505   4.075   0.648 -0.0622 -0.1517 -0.3925
  272MOL0     C36619   8.370   4.077   0.654 -0.0713  0.2212  0.3251
  272MOL0     C36620   8.286   4.091   0.540  0.3864 -0.7149  0.4245
  272MOL0     O36621   8.155   4.119   0.574 -0.9313 -0.0131 -0.0681
  272MOL0     C36622   8.066   4.113   0.465  0.5299 -0.5812  0.6019
  272MOL0     C36623   7.933   4.172   0.513 -0.4830 -0.3533  0.3152
  272MOL0     C36624   7.835   4.165   0.396  0.2530  0.1449  0.3165
  272MOL0     C36625   7.708   4.239   0.434 -0.0377 -0.3574 -0.1324
  272MOL0     C36626   7.588   4.240   0.330  0.1265 -0.6939  0.4577
  272MOL0     C36627   7.540   4.105   0.284  0.5496 -1.2397 -0.5958
  272MOL0     C36628   7.441   4.090   0.168  0.0781 -0.4207  0.2535
  272MOL0     C36629   7.393   3.947   0.157  0.4478  0.6406 -0.3217
  272MOL0    Cl36630   7.296   3.876   0.292  0.4809 -0.1168 -0.1670
  272MOL0     C36631   8.349   4.099   0.414  0.7762 -0.3194  0.0248
  272MOL0     C36632   8.490   4.080   0.412 -0.6567 -0.7628  0.2770
  272MOL0     O36633   8.782   4.199   0.355 -0.2809  0.2997  0.4502
  272MOL0     C36634   9.025   4.070   0.341  0.0851 -0.7840  1.1618
  272MOL0     C36635   9.153   4.006   0.342 -0.5221 -0.5954  0.9416
  272MOL0     N36636   9.911   3.860   0.230  0.7244 -0.3324 -0.3402
  272MOL0     N36637  10.013   3.940   0.235 -0.0356 -0.4663 -0.5776
  272MOL0     C36638  10.967   4.299   0.936 -0.9063 -0.3290  0.3257
  272MOL0     C36639  11.008   4.334   1.066 -0.1401 -0.9476 -1.2102
  272MOL0     C36640  11.190   4.636   1.390 -0.1310 -0.1293 -0.9270
  272MOL0     C36641  11.277   4.742   1.426 -0.6502 -0.7444 -0.3631
  272MOL0     C36642  11.286   4.803   1.559 -0.5980  0.4445  0.4190
  272MOL0     C36643  11.207   4.752   1.657 -0.3878 -0.8215 -0.9599
  272MOL0     O36644  11.225   4.810   1.780 -0.3820  0.0327 -0.0850
  272MOL0     C36645  11.146   4.764   1.885  0.1846  0.9606  0.1060
  272MOL0     C36646  11.008   4.811   1.880 -0.7524 -0.6104 -0.3282
  272MOL0     C36647  11.008   4.959   1.928 -0.7815  0.9485 -0.4021
  272MOL0     C36648  10.860   5.013   1.939 -0.2429  0.6069 -0.2228
  272MOL0     C36649  10.790   5.005   1.816 -0.1638 -0.5179  0.7402
  272MOL0     C36650  10.729   5.002   1.710 -0.2309 -0.6195 -0.3344
  272MOL0     C36651  11.114   4.650   1.619 -0.5705 -0.2963  0.0428
  272MOL0     C36652  11.109   4.600   1.488  0.9627  0.2162 -0.7136
  272MOL0     H36653  11.076   4.661   1.006  0.0743 -0.4702 -2.8955
  272MOL0     H36654  11.021   4.596   0.779  0.4887 -1.8351 -1.6623
  272MOL0     H36655  10.814   4.204   0.738  0.6364  0.7288 -0.7289
  272MOL0     H36656  10.720   4.359   0.686  0.5414  1.0010  0.7121
  272MOL0     H36657  10.796   4.352   0.484  0.7939 -0.0229 -0.4118
  272MOL0     H36658  10.930   4.239   0.518  1.2800  4.4586  0.0465
  272MOL0     H36659  10.784   4.091   0.420 -0.2940  0.3003  0.5579
  272MOL0     H36660  10.725   4.074   0.587 -4.0388 -1.6121 -1.2090
  272MOL0     H36661  10.566   4.274   0.536 -0.5745  2.0617 -1.6620
  272MOL0     H36662  10.610   4.265   0.361 -2.0772  0.2206  0.8189
  272MOL0     H36663  10.522   4.035   0.341 -0.0295 -1.2806  1.1725
  272MOL0     H36664  10.476   4.033   0.518  0.4079 -3.0844 -1.8285
  272MOL0     H36665  10.341   4.238   0.478 -3.8672  1.1518 -2.4404
  272MOL0     H36666  10.350   4.181   0.310 -3.3700 -4.0737 -0.6863
  272MOL0     H36667  10.277   3.976   0.342  2.6077  0.0113 -0.3315
  272MOL0     H36668  10.254   3.995   0.525 -2.3706  1.2788  1.2105
  272MOL0     H36669  10.104   4.174   0.320  2.0636  3.3983  3.0515
  272MOL0     H36670  10.067   4.155   0.481 -0.0411 -0.9241 -0.6800
  272MOL0     H36671   9.918   3.960   0.537 -1.4616 -2.0493 -0.2416
  272MOL0     H36672   9.721   3.712   0.300  1.5587  0.9796 -0.6956
  272MOL0     H36673   9.796   3.688   0.461  3.1524  0.1447 -0.6745
  272MOL0     H36674   9.597   3.926   0.423 -0.3503  1.1966  3.6015
  272MOL0     H36675   9.648   3.846   0.561  0.8904  0.9444 -0.3674
  272MOL0     H36676   9.559   3.639   0.504  0.7544  0.0307  0.4688
  272MOL0     H36677   9.487   3.686   0.359  2.1060 -2.1875 -0.1456
  272MOL0     H36678   9.421   3.870   0.596  2.0946 -1.7561  0.6275
  272MOL0     H36679   9.336   3.722   0.577  0.3708 -0.4750  1.1807
  272MOL0     H36680   9.155   3.873   0.654 -3.1386 -0.5402  1.7139
  272MOL0     H36681   8.862   4.065   0.717  1.1909  1.7138 -4.4648
  272MOL0     H36682   8.864   3.889   0.714 -0.6667  0.6991 -0.3097
  272MOL0     H36683   8.994   3.973   0.789  0.3621  0.7361  1.5691
  272MOL0     H36684   8.574   4.054   0.729 -3.1380 -0.3545  2.3981
  272MOL0     H36685   8.332   4.049   0.751 -1.7852 -1.0430 -0.6512
  272MOL0     H36686   8.099   4.169   0.376  0.9970 -1.2849  0.3258
  272MOL0     H36687   8.054   4.010   0.430 -3.8495 -0.5629  1.4001
  272MOL0     H36688   7.894   4.127   0.605  0.6088 -0.5505  0.6863
  272MOL0     H36689   7.952   4.277   0.534 -0.8650 -0.2352  0.0907
  272MOL0     H36690   7.822   4.063   0.358  2.6928  0.5849 -2.0265
  272MOL0     H36691   7.879   4.219   0.312 -1.0677  4.1613  1.9396
  272MOL0     H36692   7.657   4.188   0.516 -2.2781  2.1740  0.1965
  272MOL0     H36693   7.728   4.341   0.465  2.8640 -1.0072  0.4061
  272MOL0     H36694   7.618   4.309   0.249 -3.3418  0.7288  0.2274
  272MOL0     H36695   7.505   4.297   0.371 -0.3501 -1.6651  0.8603
  272MOL0     H36696   7.626   4.045   0.254  1.7302  0.7529 -1.4391
  272MOL0     H36697   7.489   4.056   0.367  1.2315  0.2382  0.7492
  272MOL0     H36698   7.489   4.123   0.075 -2.0182 -0.5757 -0.9593
  272MOL0     H36699   7.356   4.156   0.187  0.1893  0.5692 -2.2912
  272MOL0     H36700   7.485   3.889   0.149  0.6738  0.6481  1.7276
  272MOL0     H36701   7.337   3.939   0.064 -2.2146  1.3222  1.1085
  272MOL0     H36702   8.303   4.093   0.315 -2.0307 -0.2235  1.2335
  272MOL0     H36703   8.539   4.072   0.315  0.9483 -0.6569  1.0493
  272MOL0     H36704   8.975   4.097   0.248 -1.6693  1.2633  2.5896
  272MOL0     H36705   9.219   4.005   0.256 -0.0508 -2.8932  1.2592
  272MOL0     H36706  10.928   4.200   0.914 -3.2156  0.9053 -1.6215
  272MOL0     H36707  10.984   4.264   1.146 -1.7618  0.1508 -0.6695
  272MOL0     H36708  11.325   4.794   1.343 -2.2267  1.7456  0.1696
  272MOL0     H36709  11.348   4.892   1.570  0.3396 -0.0210 -0.9284
  272MOL0     H36710  11.143   4.656   1.870 -2.3215  1.1460 -1.2584
  272MOL0     H36711  11.191   4.794   1.980 -0.1818 -1.1286  0.9917
  272MOL0     H36712  10.954   4.746   1.950 -1.8951 -1.0683 -1.6005
  272MOL0     H36713  10.964   4.807   1.780  2.6096  0.9636 -2.0192
  272MOL0     H36714  11.071   5.027   1.870 -0.4244  0.0064 -1.1330
  272MOL0     H36715  11.040   4.958   2.033  2.5259 -0.0570 -1.3118
  272MOL0     H36716  10.859   5.122   1.947 -1.4060  0.5435  0.7789
  272MOL0     H36717  10.795   4.976   2.019 -0.3577  0.9312 -0.1628
  272MOL0     H36718  10.664   5.005   1.625 -1.9615 -2.8953  0.8136
  272MOL0     H36719  11.062   4.596   1.698 -0.9029 -2.2589 -1.4513
  272MOL0     H36720  11.047   4.511   1.480 -0.3598  0.6055  3.1449
  273MOL0     O36721   3.886   8.682  11.351 -0.0277  0.2239  0.3575
  273MOL0     C36722   3.861   8.760  11.261 -0.3960  0.1346  0.7910
  273MOL0     O36723   3.737   8.787  11.221 -0.3928 -0.1166 -0.0058
  273MOL0     C36724   3.636   8.705  11.264 -0.0248 -0.3625  0.0111
  273MOL0     C36725   3.653   8.570  11.269  0.2603 -0.6924 -0.4992
  273MOL0     C36726   3.556   8.489  11.323  0.9632  0.2590  0.2484
  273MOL0     C36727   3.429   8.533  11.357 -0.4686 -0.3697 -0.8821
  273MOL0     O36728   3.320   8.447  11.383  0.5164  0.3693  0.3304
  273MOL0     C36729   3.198   8.470  11.308 -0.6661 -0.5470 -0.1670
  273MOL0     C36730   3.139   8.336  11.270 -0.0910  0.0965 -0.5689
  273MOL0     C36731   3.005   8.337  11.195 -0.6301 -0.1801 -0.3212
  273MOL0     C36732   2.906   8.414  11.281 -0.1973  0.5723 -0.5788
  273MOL0     C36733   2.769   8.414  11.218  0.1633 -0.6679  0.1140
  273MOL0     C36734   2.657   8.483  11.307 -0.5129  0.7292 -0.1494
  273MOL0     C36735   2.681   8.630  11.334  0.5837 -0.4400 -0.2441
  273MOL0     C36736   2.700   8.704  11.204 -0.0131 -0.0919 -0.7818
  273MOL0     N36737   2.848   8.717  11.176  0.2159  0.9915 -0.2244
  273MOL0     C36738   2.905   8.696  11.056 -0.2708 -0.5281 -0.1393
  273MOL0     C36739   3.026   8.757  11.070 -0.4596  1.0262  0.7369
  273MOL0     C36740   3.128   8.779  10.962 -0.9535 -0.0337  0.9258
  273MOL0     C36741   3.239   8.675  10.971 -0.1603  0.9609  0.0760
  273MOL0     C36742   3.322   8.661  10.850  0.2141 -0.8439  0.1146
  273MOL0     C36743   3.433   8.558  10.872 -0.7638 -0.1465  0.6814
  273MOL0     O36744   3.515   8.571  10.755 -0.5117  0.0807 -0.1244
  273MOL0     C36745   3.603   8.676  10.747 -0.6967  0.3851  0.0430
  273MOL0     C36746   3.654   8.703  10.622  0.0742 -0.5500  0.6887
  273MOL0     C36747   3.750   8.806  10.595 -0.6902  0.1767  0.3271
  273MOL0     C36748   3.791   8.820  10.449 -0.1285  0.3587  0.3809
  273MOL0     C36749   3.796   8.882  10.709 -0.3369  0.5357  1.2346
  273MOL0     C36750   3.909   8.973  10.698  0.1651  1.1677 -0.1074
  273MOL0     O36751   3.986   8.949  10.588 -0.3737  0.5389 -0.0641
  273MOL0     C36752   4.100   9.016  10.568 -0.1479  0.3085  0.4288
  273MOL0     C36753   4.219   8.947  10.574  0.4651  0.3274 -0.2534
  273MOL0     C36754   4.346   8.997  10.540 -0.5185 -0.9312  0.5231
  273MOL0     C36755   4.350   9.129  10.486  0.1230  0.2918  0.4588
  273MOL0     O36756   4.459   9.191  10.438 -0.6977  0.1416  0.7736
  273MOL0     C36757   4.595   9.141  10.467 -0.0554 -0.1422  0.6482
  273MOL0     C36758   4.695   9.244  10.425 -0.5802 -0.3411 -0.8597
  273MOL0     C36759   4.684   9.382  10.507  0.0445 -0.0434  0.0423
  273MOL0     C36760   4.809   9.473  10.483  0.3017 -0.0744 -0.5269
  273MOL0     C36761   4.780   9.604  10.558  0.0082  0.8104 -0.6532
  273MOL0     C36762   4.900   9.703  10.555  0.2755 -0.8720  0.1726
  273MOL0     C36763   5.020   9.659  10.637 -0.4696 -0.0131 -0.6137
  273MOL0     C36764   5.138   9.757  10.626  0.9532 -0.6593  0.6308
  273MOL0    Cl36765   5.179   9.824  10.457  0.0185  0.3108 -0.4134
  273MOL0     C36766   4.228   9.201  10.474  0.1063 -0.0337  0.0903
  273MOL0     C36767   4.104   9.146  10.515 -0.9579  0.4628 -0.6720
  273MOL0     O36768   3.931   9.052  10.785  0.1160  0.0935 -0.1510
  273MOL0     C36769   3.741   8.852  10.836 -0.1256 -0.8141 -0.3878
  273MOL0     C36770   3.648   8.753  10.848  0.1793  0.6588  0.9417
  273MOL0     N36771   3.040   8.790  11.200 -0.2119 -0.0595 -0.0834
  273MOL0     N36772   2.929   8.780  11.259 -0.8817  0.6194  0.0178
  273MOL0     C36773   3.410   8.671  11.346  0.3487 -0.5616 -1.0549
  273MOL0     C36774   3.508   8.760  11.293 -0.5674 -0.3679 -0.4192
  273MOL0     C36775   3.970   8.839  11.200 -0.3176 -0.5154  0.3165
  273MOL0     C36776   4.108   8.805  11.218 -0.0878 -1.1329  0.6691
  273MOL0     C36777   4.207   8.885  11.151  0.0350 -0.2233 -0.4192
  273MOL0     C36778   4.174   8.993  11.073 -0.9780  0.3382 -0.0322
  273MOL0     O36779   4.279   9.059  11.018 -0.2333 -0.5852  0.4578
  273MOL0     C36780   4.242   9.160  10.919  0.5067 -0.8962  0.1979
  273MOL0     C36781   4.369   9.203  10.845  0.2168  0.2176  0.4435
  273MOL0     C36782   4.471   9.257  10.946  0.1931  0.5160  0.3965
  273MOL0     C36783   4.584   9.326  10.881  0.3653 -0.4111 -0.1231
  273MOL0     C36784   4.695   9.365  10.971  0.7883  0.1616 -0.4541
  273MOL0     C36785   4.787   9.362  11.049 -0.3421 -0.0730  0.1953
  273MOL0     C36786   4.042   9.040  11.084  0.7658 -0.8996 -0.0716
  273MOL0     C36787   3.941   8.955  11.126  0.5542 -0.2629  0.4802
  273MOL0     H36788   3.739   8.534  11.214  1.7443  2.8844 -0.7549
  273MOL0     H36789   3.581   8.385  11.310  2.2727  0.7514 -1.5490
  273MOL0     H36790   3.123   8.520  11.369 -1.5251 -0.2913 -1.3863
  273MOL0     H36791   3.214   8.526  11.215 -0.1317 -0.0982  0.1934
  273MOL0     H36792   3.211   8.283  11.207  1.2195  0.4811  0.5512
  273MOL0     H36793   3.131   8.281  11.365  1.5797 -1.2072 -1.1094
  273MOL0     H36794   3.024   8.384  11.098  0.4084 -1.7076 -0.8946
  273MOL0     H36795   2.975   8.235  11.171  2.9784 -0.6046 -4.1307
  273MOL0     H36796   2.901   8.367  11.380 -0.1552 -0.3741 -1.0142
  273MOL0     H36797   2.935   8.518  11.296 -1.6284  0.8533  0.5504
  273MOL0     H36798   2.777   8.458  11.117  0.8094 -1.2768 -0.1009
  273MOL0     H36799   2.726   8.316  11.194 -1.2702 -0.2020  0.6400
  273MOL0     H36800   2.559   8.452  11.269 -0.5122 -1.3373  1.3676
  273MOL0     H36801   2.654   8.435  11.405  0.2812  1.1406  0.0810
  273MOL0     H36802   2.589   8.669  11.379  0.2823  0.2032 -1.3734
  273MOL0     H36803   2.761   8.649  11.406  4.0832 -0.6791 -3.7408
  273MOL0     H36804   2.651   8.800  11.216 -1.3220 -0.8887  0.5128
  273MOL0     H36805   2.660   8.656  11.114  0.9840  0.9870 -1.8433
  273MOL0     H36806   2.871   8.662  10.959  0.6424 -0.3052 -0.5480
  273MOL0     H36807   3.077   8.772  10.866  0.2034 -0.2720  0.3115
  273MOL0     H36808   3.175   8.877  10.969 -0.3145 -0.3263  0.7839
  273MOL0     H36809   3.183   8.581  10.979  2.9176 -1.2004 -1.7690
  273MOL0     H36810   3.300   8.693  11.060  0.2134 -2.7915  0.7683
  273MOL0     H36811   3.376   8.754  10.828  1.7792 -1.1676  2.2565
  273MOL0     H36812   3.258   8.626  10.769 -1.2576  0.1417  0.8067
  273MOL0     H36813   3.384   8.461  10.880 -1.2022  0.0493  0.4221
  273MOL0     H36814   3.489   8.570  10.965  0.1504  0.1652  0.1053
  273MOL0     H36815   3.627   8.640  10.537  2.4921  0.2787 -0.8051
  273MOL0     H36816   3.898   8.805  10.433  0.3572  4.8702 -2.3131
  273MOL0     H36817   3.745   8.748  10.381  0.8718  0.5809 -0.5468
  273MOL0     H36818   3.774   8.924  10.420 -2.2988  0.6663  2.4083
  273MOL0     H36819   4.215   8.839  10.589  0.0222  0.2999 -0.5531
  273MOL0     H36820   4.432   8.931  10.539 -0.8306 -1.4679  2.9161
  273MOL0     H36821   4.594   9.123  10.574  0.8750 -0.7857  0.5696
  273MOL0     H36822   4.606   9.052  10.404  0.8123  1.9590 -2.4521
  273MOL0     H36823   4.791   9.198  10.449 -0.8517 -0.7122 -0.4855
  273MOL0     H36824   4.689   9.248  10.316  1.4902 -1.1969 -1.0403
  273MOL0     H36825   4.684   9.370  10.615  0.4169  4.7142  0.8066
  273MOL0     H36826   4.593   9.429  10.468 -1.1326 -2.4066 -0.2369
  273MOL0     H36827   4.892   9.417  10.526  1.8674  2.7017  0.3231
  273MOL0     H36828   4.829   9.501  10.379 -0.4302  3.1737  0.0902
  273MOL0     H36829   4.752   9.574  10.660  1.2143  1.2441 -0.1766
  273MOL0     H36830   4.699   9.656  10.505 -2.9103 -0.0290  2.5577
  273MOL0     H36831   4.931   9.714  10.451  0.3706 -1.1061  0.1760
  273MOL0     H36832   4.877   9.802  10.598  0.7619 -0.4966 -0.4148
  273MOL0     H36833   5.045   9.558  10.603 -0.0632  0.5123 -1.9149
  273MOL0     H36834   4.987   9.656  10.742 -1.5926  0.9165 -0.9183
  273MOL0     H36835   5.224   9.710  10.676  1.2075 -2.9068 -1.7260
  273MOL0     H36836   5.115   9.845  10.686  2.1532 -0.4161  0.7598
  273MOL0     H36837   4.231   9.303  10.437 -1.8270  0.1711  0.4399
  273MOL0     H36838   4.014   9.205  10.498 -0.7700  0.9919  0.1062
  273MOL0     H36839   3.782   8.898  10.925  1.5417 -1.8851 -0.5602
  273MOL0     H36840   3.611   8.743  10.949  0.8521 -1.0362  1.0505
  273MOL0     H36841   3.315   8.720  11.365  0.2931 -0.9897 -0.1532
  273MOL0     H36842   3.495   8.867  11.277 -1.0852 -0.5669 -1.3825
  273MOL0     H36843   4.140   8.718  11.274  1.7166 -0.6912  0.4002
  273MOL0     H36844   4.304   8.836  11.152 -1.2076 -2.9942 -2.3950
  273MOL0     H36845   4.169   9.117  10.850 -1.0589 -0.7749  1.7002
  273MOL0     H36846   4.199   9.247  10.970  1.2067 -0.3328 -0.1523
  273MOL0     H36847   4.338   9.280  10.774  0.4637 -0.0177  0.0769
  273MOL0     H36848   4.408   9.117  10.791  0.2293  0.6673 -0.2807
  273MOL0     H36849   4.504   9.178  11.014  1.1544  0.7388  0.2002
  273MOL0     H36850   4.418   9.329  11.008  0.9592  1.4683 -0.0356
  273MOL0     H36851   4.539   9.407  10.823 -0.6281 -1.0083 -0.2097
  273MOL0     H36852   4.621   9.261  10.801  1.2275  0.2684 -0.2888
  273MOL0     H36853   4.880   9.353  11.101 -0.1720  2.1101  0.3642
  273MOL0     H36854   4.008   9.135  11.044 -3.0604 -1.6481  1.0473
  273MOL0     H36855   3.842   8.993  11.105  0.1978 -2.0498 -1.3534
  274MOL0     O36856   2.729   9.861   7.975 -0.0808 -0.1066 -0.1775
  274MOL0     C36857   2.715   9.741   7.965 -0.0611  0.4894  0.2089
  274MOL0     O36858   2.610   9.677   7.899  0.5377 -0.4948 -0.1552
  274MOL0     C36859   2.493   9.733   7.856  0.3009  0.0378 -0.6638
  274MOL0     C36860   2.401   9.658   7.786 -0.0842 -0.2401  0.6911
  274MOL0     C36861   2.274   9.704   7.760 -0.1517  0.2991 -0.0685
  274MOL0     C36862   2.243   9.839   7.774  0.6819 -0.1204 -0.3178
  274MOL0     O36863   2.117   9.885   7.735 -0.5057  0.0237 -0.4499
  274MOL0     C36864   2.127  10.020   7.675  0.6233 -0.9283 -0.3128
  274MOL0     C36865   1.999  10.050   7.606  0.9800  0.1494 -0.3398
  274MOL0     C36866   2.001  10.187   7.538 -0.4531 -0.1777 -0.2429
  274MOL0     C36867   1.859  10.206   7.473  0.1286  0.7900  0.3007
  274MOL0     C36868   1.850  10.331   7.391  0.4888 -0.6396 -0.2328
  274MOL0     C36869   1.916  10.310   7.256 -0.2739 -0.0297  1.1872
  274MOL0     C36870   1.871  10.407   7.143  0.7175 -0.1248 -0.2239
  274MOL0     C36871   1.725  10.385   7.109  0.4345  1.0631 -0.0992
  274MOL0     N36872   1.624  10.460   7.189  0.4483  0.2999 -0.2441
  274MOL0     C36873   1.492  10.437   7.195  0.7250 -0.0979 -0.0020
  274MOL0     C36874   1.441  10.544   7.267  0.1318 -0.5084  1.0788
  274MOL0     C36875   1.303  10.566   7.309  0.3724  0.6061  0.0927
  274MOL0     C36876   1.298  10.607   7.461  0.1849  0.7772  0.4131
  274MOL0     C36877   1.159  10.669   7.484  0.8481  0.3141 -0.0304
  274MOL0     C36878   1.139  10.680   7.641  0.4112  0.0112 -0.0696
  274MOL0     O36879   1.007  10.722   7.683 -1.0587 -0.6115  0.8760
  274MOL0     C36880   0.914  10.637   7.735  0.1818  0.2179  0.7571
  274MOL0     C36881   0.816  10.686   7.808 -0.2934  0.0922 -1.1531
  274MOL0     C36882   0.712  10.606   7.860  0.1260 -1.1415  0.8664
  274MOL0     C36883   0.602  10.678   7.936  0.0913  0.3059  0.4971
  274MOL0     C36884   0.713  10.470   7.831 -0.5521  0.6041 -1.2956
  274MOL0     C36885   0.608  10.361   7.869 -0.0877 -0.2935 -0.2437
  274MOL0     O36886   0.488  10.415   7.894 -0.0195 -0.0467 -0.1102
  274MOL0     C36887   0.374  10.346   7.943  1.1649  0.2322 -0.1925
  274MOL0     C36888   0.368  10.217   7.998  0.7223  0.4158  0.0714
  274MOL0     C36889   0.248  10.148   8.031  0.5203 -0.6834  0.8642
  274MOL0     C36890   0.124  10.214   8.021  1.3090  0.1023 -0.1847
  274MOL0     O36891   0.004  10.156   8.052  0.1768 -0.9605  0.8942
  274MOL0     C36892  -0.016  10.019   8.042  0.2359  0.9585 -1.0348
  274MOL0     C36893  -0.155   9.996   8.093 -0.3391 -0.8133  1.1971
  274MOL0     C36894  -0.164   9.856   8.156 -0.5611 -0.3854 -0.3742
  274MOL0     C36895  -0.100   9.855   8.300  0.1523 -0.1122  1.3610
  274MOL0     C36896  -0.151   9.733   8.375  0.3583  0.9782 -0.3121
  274MOL0     C36897  -0.105   9.594   8.318 -0.0092  0.3644  0.4114
  274MOL0     C36898  -0.128   9.464   8.400 -0.6370  0.3811  0.2337
  274MOL0     C36899  -0.274   9.437   8.399  0.3523  0.7062 -0.3787
  274MOL0    Cl36900  -0.341   9.395   8.246 -0.1117 -0.5261 -0.1875
  274MOL0     C36901   0.126  10.344   7.989 -0.0864  0.8001  0.0119
  274MOL0     C36902   0.245  10.411   7.949  0.8383  0.3196  1.0300
  274MOL0     O36903   0.634  10.243   7.886 -0.2003  0.1312  0.0333
  274MOL0     C36904   0.815  10.415   7.757 -0.1255 -0.3427  0.3402
  274MOL0     C36905   0.924  10.499   7.712  0.0960  0.3773  0.3764
  274MOL0     N36906   1.548  10.623   7.306 -0.1143 -0.2933  0.1413
  274MOL0     N36907   1.661  10.566   7.260 -1.1310  0.0590  0.3483
  274MOL0     C36908   2.340   9.919   7.840  0.9678  0.1881  0.5443
  274MOL0     C36909   2.461   9.871   7.875  0.3801  0.7563  0.3335
  274MOL0     C36910   2.826   9.649   7.997 -0.3384  0.0212 -0.2684
  274MOL0     C36911   2.842   9.539   7.921  0.9128 -0.2999 -0.3739
  274MOL0     C36912   2.950   9.454   7.961  1.1006 -0.3084 -0.2869
  274MOL0     C36913   3.038   9.478   8.067 -0.5269 -0.1699  0.1750
  274MOL0     O36914   3.139   9.386   8.105 -0.0982 -0.1329  0.1076
  274MOL0     C36915   3.271   9.445   8.141  0.0208 -0.4928  0.2431
  274MOL0     C36916   3.393   9.390   8.065  0.7531  0.4803  0.6198
  274MOL0     C36917   3.524   9.432   8.119  0.0919 -0.2119 -0.2532
  274MOL0     C36918   3.630   9.405   8.009 -0.3847 -0.5823  0.4365
  274MOL0     C36919   3.769   9.395   8.062  0.7639  0.2864  0.5404
  274MOL0     C36920   3.873   9.374   8.113 -0.6063  0.0697 -0.1114
  274MOL0     C36921   3.005   9.585   8.157 -0.1539 -0.6416  0.1138
  274MOL0     C36922   2.904   9.672   8.115  0.1988  0.0341 -0.0194
  274MOL0     H36923   2.438   9.566   7.740  1.0808  1.1447 -1.2883
  274MOL0     H36924   2.201   9.632   7.724  2.9593 -2.9221 -0.5544
  274MOL0     H36925   2.144  10.109   7.736  0.9171 -2.1558  1.4734
  274MOL0     H36926   2.194  10.030   7.589  0.2307 -1.1490 -0.6492
  274MOL0     H36927   1.970   9.974   7.533  2.3788 -3.3138  2.3961
  274MOL0     H36928   1.925  10.042   7.687  0.8828 -0.5623 -0.4879
  274MOL0     H36929   2.030  10.256   7.618 -1.9259  1.2570 -0.8847
  274MOL0     H36930   2.081  10.194   7.465  1.0721  1.3705  1.4639
  274MOL0     H36931   1.843  10.121   7.406 -0.9187  1.1527  0.0753
  274MOL0     H36932   1.786  10.200   7.554  0.4962 -3.1667  0.5222
  274MOL0     H36933   1.743  10.350   7.391  0.5031 -0.4760  0.9146
  274MOL0     H36934   1.893  10.422   7.434  0.9302  0.9122 -3.6242
  274MOL0     H36935   2.024  10.324   7.268 -0.2492 -1.4817  3.2208
  274MOL0     H36936   1.912  10.209   7.215 -1.6739  0.0850  0.9989
  274MOL0     H36937   1.883  10.511   7.172 -2.6584  0.1416  0.5612
  274MOL0     H36938   1.928  10.379   7.054 -0.3164 -3.2463 -0.0348
  274MOL0     H36939   1.701  10.279   7.099 -0.1494  0.7729  3.2324
  274MOL0     H36940   1.716  10.432   7.011  2.4436  1.8941  0.0573
  274MOL0     H36941   1.428  10.355   7.164  2.2129 -0.6479 -1.7520
  274MOL0     H36942   1.261  10.648   7.251  0.9901  1.3483  0.6684
  274MOL0     H36943   1.243  10.475   7.299  0.5505  0.5283 -0.3173
  274MOL0     H36944   1.379  10.677   7.479  0.4073  0.5545  0.2799
  274MOL0     H36945   1.314  10.519   7.525 -0.2165 -0.2043 -0.7967
  274MOL0     H36946   1.079  10.609   7.440 -1.5515  3.2952 -0.0304
  274MOL0     H36947   1.156  10.768   7.436  1.1565 -0.0357 -0.7949
  274MOL0     H36948   1.214  10.746   7.687 -0.5413  0.7015  0.5174
  274MOL0     H36949   1.159  10.583   7.688 -1.0063  0.5175  1.6740
  274MOL0     H36950   0.816  10.791   7.832 -1.7531 -0.1310 -0.0483
  274MOL0     H36951   0.508  10.675   7.881 -0.1293  2.2455  0.7090
  274MOL0     H36952   0.587  10.621   8.028 -0.7648 -1.7689 -0.8557
  274MOL0     H36953   0.611  10.786   7.949  0.6930  0.0778  2.3024
  274MOL0     H36954   0.456  10.156   8.013  0.8432  0.8808  1.3077
  274MOL0     H36955   0.248  10.046   8.069 -0.6254 -0.0138  2.8400
  274MOL0     H36956  -0.008   9.982   7.939 -1.2735 -0.0239 -0.8284
  274MOL0     H36957   0.059   9.968   8.103 -0.0155 -0.7474 -2.0939
  274MOL0     H36958  -0.191  10.070   8.165 -1.2754 -1.0380  0.9690
  274MOL0     H36959  -0.234  10.007   8.018  1.7929 -0.9793 -1.2093
  274MOL0     H36960  -0.119   9.784   8.087 -0.7619 -1.5125  0.6244
  274MOL0     H36961  -0.270   9.833   8.168  0.1426 -2.8418  2.1098
  274MOL0     H36962   0.007   9.853   8.281 -0.0822 -2.2741 -0.1364
  274MOL0     H36963  -0.119   9.954   8.343  0.0100  0.6158 -0.2679
  274MOL0     H36964  -0.260   9.725   8.384  0.3342  1.8163  0.2150
  274MOL0     H36965  -0.116   9.749   8.478 -0.6219  0.8502  0.0557
  274MOL0     H36966  -0.135   9.583   8.214  1.9190 -2.4605  0.0390
  274MOL0     H36967   0.004   9.601   8.318  0.0778  0.7421  3.7104
  274MOL0     H36968  -0.079   9.482   8.496  1.9035 -2.5326 -0.3582
  274MOL0     H36969  -0.080   9.379   8.352  0.5832  1.2035 -0.0426
  274MOL0     H36970  -0.345   9.514   8.430 -1.1973 -0.5857 -0.5925
  274MOL0     H36971  -0.289   9.349   8.462  1.3221  2.7419  2.9650
  274MOL0     H36972   0.034  10.401   7.999 -1.2235 -0.9730  0.1633
  274MOL0     H36973   0.233  10.518   7.933  1.7223 -0.0552 -3.6291
  274MOL0     H36974   0.817  10.307   7.745 -1.8803 -0.1521 -2.9005
  274MOL0     H36975   1.009  10.460   7.658  1.2252  1.9881  0.9316
  274MOL0     H36976   2.312  10.022   7.860  0.7583  0.3853 -0.6912
  274MOL0     H36977   2.522   9.939   7.932  1.8409 -1.1747  1.1937
  274MOL0     H36978   2.780   9.520   7.834 -1.2724  2.2832  0.4605
  274MOL0     H36979   2.971   9.368   7.898  2.5723 -0.3302  0.1906
  274MOL0     H36980   3.279   9.552   8.122  0.8029 -0.6266 -0.1921
  274MOL0     H36981   3.289   9.428   8.247  4.1342 -1.4725 -0.4545
  274MOL0     H36982   3.386   9.429   7.963  4.4578 -2.0281 -0.8250
  274MOL0     H36983   3.401   9.281   8.059 -0.1566  0.4886 -3.8160
  274MOL0     H36984   3.531   9.379   8.214  0.5317  2.4586  1.2799
  274MOL0     H36985   3.530   9.536   8.150  0.8740  0.5098 -2.6075
  274MOL0     H36986   3.634   9.485   7.934  0.8938  0.4164  1.5251
  274MOL0     H36987   3.605   9.316   7.950 -0.9038 -1.2225  1.5989
  274MOL0     H36988   3.951   9.344   8.181 -0.6946 -0.4655 -0.2454
  274MOL0     H36989   3.054   9.620   8.247 -3.1959  0.1243  1.5937
  274MOL0     H36990   2.865   9.757   8.170 -2.6368  0.1047 -1.9173
  275MOL0     O36991   5.440   5.791   4.946  0.5037 -0.2624  0.2754
  275MOL0     C36992   5.539   5.862   4.964 -0.6091  1.6531  0.3570
  275MOL0     O36993   5.546   5.973   5.036 -0.7309  0.2792 -0.0084
  275MOL0     C36994   5.431   6.027   5.099  0.0536  0.5070 -0.4282
  275MOL0     C36995   5.338   5.958   5.177  0.1525  0.6768 -0.2437
  275MOL0     C36996   5.230   6.018   5.217 -0.2472 -0.2077 -0.5198
  275MOL0     C36997   5.201   6.153   5.201  0.0609  0.1399 -0.3782
  275MOL0     O36998   5.089   6.202   5.262  0.1787  0.8561 -0.3935
  275MOL0     C36999   5.045   6.338   5.253 -1.2212  1.0561  0.2830
  275MOL0     C37000   4.983   6.355   5.109  0.6559  0.1207 -0.3441
  275MOL0     C37001   4.875   6.466   5.096 -0.2962  0.0946 -0.1147
  275MOL0     C37002   4.822   6.456   4.947  0.8213  0.8123 -0.3092
  275MOL0     C37003   4.725   6.571   4.905  0.1452 -0.2159  0.4805
  275MOL0     C37004   4.577   6.513   4.886 -0.4898 -0.3657 -1.3043
  275MOL0     C37005   4.481   6.614   4.826 -0.3068 -0.6363  0.6290
  275MOL0     C37006   4.343   6.560   4.797  0.2012 -0.1490 -0.2202
  275MOL0     N37007   4.267   6.542   4.920 -0.2859  0.3889  0.3664
  275MOL0     C37008   4.203   6.643   4.996  0.4000  0.2776 -0.9209
  275MOL0     C37009   4.123   6.568   5.083  0.5408 -1.2239 -0.5719
  275MOL0     C37010   4.044   6.618   5.200  0.9336 -0.1454  0.0791
  275MOL0     C37011   3.913   6.690   5.168  0.9116  0.0959 -0.4461
  275MOL0     C37012   3.800   6.592   5.138  0.2280 -0.6394  0.2067
  275MOL0     C37013   3.666   6.653   5.100  0.5282  0.5613 -0.5663
  275MOL0     O37014   3.580   6.625   5.206 -0.9693  0.4281 -0.6049
  275MOL0     C37015   3.450   6.660   5.178 -0.4630 -0.3930 -0.8154
  275MOL0     C37016   3.365   6.625   5.279  0.3563 -0.5067  0.1579
  275MOL0     C37017   3.229   6.672   5.280 -0.5637  0.3922 -0.7186
  275MOL0     C37018   3.154   6.648   5.410 -0.1758  0.8911 -0.1681
  275MOL0     C37019   3.170   6.742   5.170 -0.0322  0.1346  0.1820
  275MOL0     C37020   3.029   6.783   5.152 -0.5274 -0.4383 -0.4618
  275MOL0     O37021   2.936   6.716   5.222  1.1362 -0.1834  0.5610
  275MOL0     C37022   2.818   6.773   5.244 -0.2412  0.5291 -0.4915
  275MOL0     C37023   2.695   6.718   5.216  0.3924 -0.1806  0.0484
  275MOL0     C37024   2.582   6.788   5.247  0.7143  0.4684  0.7316
  275MOL0     C37025   2.582   6.906   5.305 -0.1931 -0.7994 -0.0737
  275MOL0     O37026   2.474   6.987   5.314  0.4613  0.3718  0.1325
  275MOL0     C37027   2.362   6.957   5.227 -0.6724  0.0070 -0.6289
  275MOL0     C37028   2.262   7.069   5.240  0.1984  0.1384 -0.1456
  275MOL0     C37029   2.158   7.056   5.126  0.0803  0.0481 -0.2468
  275MOL0     C37030   2.078   7.182   5.124  0.0339  0.5178  0.9045
  275MOL0     C37031   1.951   7.154   5.048 -0.2293 -0.5014  0.0794
  275MOL0     C37032   1.868   7.276   5.009  0.0350  1.2175 -0.3717
  275MOL0     C37033   1.715   7.252   5.019 -0.7469  0.0253  0.1673
  275MOL0     C37034   1.663   7.275   5.164 -0.5720  0.4434  0.9673
  275MOL0    Cl37035   1.469   7.301   5.156  0.4495  0.0986  0.0030
  275MOL0     C37036   2.703   6.956   5.345 -0.0726 -0.1548 -0.0131
  275MOL0     C37037   2.821   6.885   5.315  0.5289  0.1499  0.0166
  275MOL0     O37038   3.003   6.876   5.075 -0.0580  0.4899  0.4671
  275MOL0     C37039   3.256   6.760   5.054  0.4470 -0.0189  0.0128
  275MOL0     C37040   3.396   6.729   5.062 -0.3652  0.5202 -0.4200
  275MOL0     N37041   4.146   6.441   5.062  0.4829 -0.6612 -0.2329
  275MOL0     N37042   4.238   6.421   4.972  0.4101 -0.1091  0.1555
  275MOL0     C37043   5.289   6.225   5.129 -0.3996 -0.7450 -0.4965
  275MOL0     C37044   5.407   6.167   5.080 -0.1349  0.0782 -0.1585
  275MOL0     C37045   5.666   5.813   4.888 -0.0849 -0.4841 -0.7554
  275MOL0     C37046   5.791   5.875   4.922  0.6425 -0.7807  0.7065
  275MOL0     C37047   5.911   5.832   4.872  0.0454 -0.0947 -0.5952
  275MOL0     C37048   5.917   5.741   4.768  0.2599  0.1574  0.3006
  275MOL0     O37049   6.034   5.701   4.701  0.5968 -0.2616 -0.1338
  275MOL0     C37050   6.159   5.729   4.764  0.5044 -0.8769  0.9309
  275MOL0     C37051   6.171   5.646   4.890  0.4343 -0.1925  0.1515
  275MOL0     C37052   6.311   5.602   4.930  0.1532 -0.0162  0.4476
  275MOL0     C37053   6.416   5.715   4.915  0.1462 -0.1491 -0.1423
  275MOL0     C37054   6.403   5.812   5.022 -0.4285 -0.3594 -0.2187
  275MOL0     C37055   6.389   5.890   5.113  0.1877  0.2593 -0.0006
  275MOL0     C37056   5.792   5.683   4.722 -0.3606 -0.6547  0.3998
  275MOL0     C37057   5.670   5.713   4.788 -0.4276  0.0931  0.2626
  275MOL0     H37058   5.363   5.854   5.196 -0.0892 -0.0643 -3.4713
  275MOL0     H37059   5.165   5.959   5.281 -0.0810  0.9222  0.7368
  275MOL0     H37060   4.968   6.358   5.328 -3.1877 -0.3103 -1.2666
  275MOL0     H37061   5.123   6.414   5.258 -3.1372  3.0846  0.8087
  275MOL0     H37062   5.060   6.396   5.044  2.0379  2.6497  2.6400
  275MOL0     H37063   4.939   6.260   5.075 -3.0768  2.3570 -2.4570
  275MOL0     H37064   4.800   6.440   5.171  0.1365  0.2595  0.3817
  275MOL0     H37065   4.924   6.562   5.114 -0.2706  0.0972 -0.1968
  275MOL0     H37066   4.903   6.453   4.875 -0.4647  0.0316 -1.7840
  275MOL0     H37067   4.768   6.361   4.942 -0.1291  1.3639 -0.9070
  275MOL0     H37068   4.733   6.646   4.984 -2.8390 -0.4519  1.1168
  275MOL0     H37069   4.753   6.611   4.808 -1.9586 -1.1553 -0.5900
  275MOL0     H37070   4.588   6.425   4.822  1.1147 -0.0406 -1.5271
  275MOL0     H37071   4.527   6.466   4.971  0.7365 -4.2811 -2.5346
  275MOL0     H37072   4.476   6.689   4.905  3.1838 -0.5391  0.9345
  275MOL0     H37073   4.521   6.663   4.737 -0.2532 -0.0081  0.9943
  275MOL0     H37074   4.345   6.462   4.748 -0.0201 -0.7143  0.8678
  275MOL0     H37075   4.291   6.629   4.730  1.1233  3.0852  2.1294
  275MOL0     H37076   4.211   6.750   4.983  2.0189  0.1789 -0.9376
  275MOL0     H37077   4.029   6.530   5.263  3.4440 -0.6817  0.0537
  275MOL0     H37078   4.106   6.688   5.258 -1.0502  0.2317  1.8730
  275MOL0     H37079   3.937   6.754   5.082  0.6613 -0.6483 -1.0813
  275MOL0     H37080   3.878   6.747   5.255 -0.1266  0.0101 -0.7929
  275MOL0     H37081   3.777   6.525   5.222 -1.4794  2.0913  2.1021
  275MOL0     H37082   3.834   6.546   5.045  0.1297 -2.4273  1.0065
  275MOL0     H37083   3.621   6.608   5.011 -3.5751  1.4377  0.8683
  275MOL0     H37084   3.667   6.762   5.089 -1.5356  0.6346 -0.4196
  275MOL0     H37085   3.407   6.581   5.369  0.6194 -0.8177 -0.1130
  275MOL0     H37086   3.218   6.635   5.498  0.8919  0.3838 -0.9996
  275MOL0     H37087   3.100   6.740   5.433 -2.3150 -0.6096  1.2782
  275MOL0     H37088   3.078   6.570   5.394  0.8298 -0.4895  1.4252
  275MOL0     H37089   2.677   6.620   5.171 -2.1031  1.0893 -1.9540
  275MOL0     H37090   2.485   6.755   5.212  1.4028 -0.7949 -0.0887
  275MOL0     H37091   2.413   6.940   5.131  3.1348 -0.4304  1.2757
  275MOL0     H37092   2.312   6.864   5.258  1.5281 -1.1047 -0.2371
  275MOL0     H37093   2.214   7.055   5.337 -0.8317 -1.2567 -0.8141
  275MOL0     H37094   2.310   7.168   5.237  1.3332 -0.3561  0.9081
  275MOL0     H37095   2.088   6.974   5.147  1.1819 -1.6913 -2.8745
  275MOL0     H37096   2.208   7.039   5.030  2.1694 -0.9041  0.9549
  275MOL0     H37097   2.057   7.223   5.222 -2.3114  1.5172  0.0470
  275MOL0     H37098   2.139   7.260   5.076 -3.3025  1.3406 -2.5105
  275MOL0     H37099   1.880   7.088   5.100 -0.6041 -0.6340 -0.5864
  275MOL0     H37100   1.972   7.096   4.957  0.2133  2.6042 -1.9246
  275MOL0     H37101   1.889   7.356   5.081 -1.5118  0.5153  0.9392
  275MOL0     H37102   1.875   7.314   4.907 -1.4377 -0.0355 -0.9674
  275MOL0     H37103   1.680   7.159   4.974  1.7409  0.0445 -2.0768
  275MOL0     H37104   1.672   7.334   4.960  1.4229 -0.8183 -2.8420
  275MOL0     H37105   1.717   7.356   5.213 -2.3373  1.5428  1.2073
  275MOL0     H37106   1.693   7.189   5.225 -0.7566 -0.8897 -0.7255
  275MOL0     H37107   2.704   7.058   5.383  0.8920  0.4327 -1.5317
  275MOL0     H37108   2.915   6.932   5.344  0.4386 -0.2434  0.9689
  275MOL0     H37109   3.222   6.813   4.967 -0.3541  1.4949  1.2018
  275MOL0     H37110   3.462   6.758   4.981 -1.7502  0.0625 -1.7617
  275MOL0     H37111   5.280   6.333   5.126 -2.4353 -0.8374  0.8142
  275MOL0     H37112   5.476   6.228   5.022  1.2040  1.2965  2.5403
  275MOL0     H37113   5.787   5.960   4.990 -0.6802 -1.4244  1.4880
  275MOL0     H37114   5.998   5.878   4.919 -0.5919 -0.8132  1.4115
  275MOL0     H37115   6.240   5.711   4.693 -0.8326 -0.4901 -0.7711
  275MOL0     H37116   6.156   5.835   4.791 -0.4666 -1.2208  2.2726
  275MOL0     H37117   6.099   5.563   4.893  0.5101 -0.2332  1.4760
  275MOL0     H37118   6.143   5.702   4.980 -0.1372 -0.5687  0.2150
  275MOL0     H37119   6.348   5.518   4.871  3.3944  1.0309  0.7711
  275MOL0     H37120   6.306   5.557   5.030  1.1739 -1.4119 -0.1007
  275MOL0     H37121   6.421   5.755   4.814  1.7062 -0.1161 -0.0823
  275MOL0     H37122   6.514   5.668   4.927  0.6944  0.3970 -2.1631
  275MOL0     H37123   6.396   5.961   5.193  0.8710  1.0054 -0.7043
  275MOL0     H37124   5.793   5.609   4.642  0.3188  2.5554 -2.8162
  275MOL0     H37125   5.582   5.657   4.759 -0.6489 -0.1590  1.3867
  276MOL0     O37126   4.024  10.224   1.450 -0.4196  0.3460 -0.4112
  276MOL0     C37127   3.984  10.280   1.347  0.2743  0.1206 -0.1379
  276MOL0     O37128   4.025  10.258   1.219 -0.9730  0.2902  0.7834
  276MOL0     C37129   4.126  10.170   1.204  0.8096 -0.1963 -0.4083
  276MOL0     C37130   4.250  10.205   1.166  0.4744  0.3489  0.2252
  276MOL0     C37131   4.352  10.111   1.141  0.6479 -0.2566  0.1461
  276MOL0     C37132   4.327   9.974   1.147  0.8430 -0.6038  0.1076
  276MOL0     O37133   4.437   9.897   1.128  0.3325  0.2820 -0.4619
  276MOL0     C37134   4.424   9.760   1.116 -0.5365  0.3522  0.2556
  276MOL0     C37135   4.566   9.688   1.102 -0.3293 -0.6056 -0.9375
  276MOL0     C37136   4.680   9.743   1.205 -0.2100 -0.3230 -0.0605
  276MOL0     C37137   4.824   9.729   1.146 -0.4731 -0.2150  0.8072
  276MOL0     C37138   4.873   9.589   1.172  0.5859  0.4179 -0.2368
  276MOL0     C37139   5.021   9.555   1.132  0.0932 -0.2077  0.4167
  276MOL0     C37140   5.075   9.434   1.190  1.3139  0.0150 -0.0786
  276MOL0     C37141   5.224   9.439   1.160  0.2962 -0.6146  0.1638
  276MOL0     N37142   5.301   9.401   1.281  0.2949 -0.0281 -1.3074
  276MOL0     C37143   5.404   9.463   1.341 -1.3294  0.0710 -0.6690
  276MOL0     C37144   5.448   9.386   1.443  0.0222  0.1112  0.3398
  276MOL0     C37145   5.574   9.385   1.524  0.7410  0.0103  0.4053
  276MOL0     C37146   5.564   9.489   1.629 -0.1099 -1.0636  0.0238
  276MOL0     C37147   5.684   9.467   1.720 -0.5069 -0.2803  0.8124
  276MOL0     C37148   5.642   9.496   1.868  0.5637 -0.7367 -0.3629
  276MOL0     O37149   5.617   9.636   1.875  0.5994  0.4933  0.2548
  276MOL0     C37150   5.505   9.688   1.927 -0.4077  0.1273 -0.7440
  276MOL0     C37151   5.471   9.823   1.914 -0.0267 -0.0131  0.5885
  276MOL0     C37152   5.358   9.881   1.962  0.6349 -0.1745  0.8012
  276MOL0     C37153   5.342  10.030   1.912 -0.8028 -0.0890 -0.7063
  276MOL0     C37154   5.270   9.812   2.044  0.2569 -0.0933 -0.1438
  276MOL0     C37155   5.149   9.873   2.100  0.3059  0.1030  0.0339
  276MOL0     O37156   5.082   9.779   2.170  1.0343 -0.2784 -0.5228
  276MOL0     C37157   4.983   9.829   2.244  0.3512  0.5310 -0.3554
  276MOL0     C37158   4.992   9.848   2.377  0.4879  1.2756 -0.4293
  276MOL0     C37159   4.889   9.897   2.453  0.7678  0.4502  0.4960
  276MOL0     C37160   4.764   9.929   2.390  0.4039 -0.9170 -0.5509
  276MOL0     O37161   4.659   9.967   2.473  0.2307 -0.0092  0.0970
  276MOL0     C37162   4.531   9.937   2.426 -0.0666 -0.1804 -0.2170
  276MOL0     C37163   4.420   9.983   2.524 -0.2050  0.1321 -1.1347
  276MOL0     C37164   4.292   9.994   2.451  0.1332  1.0590  0.1954
  276MOL0     C37165   4.172  10.031   2.540  0.0766  0.0315 -0.0383
  276MOL0     C37166   4.029  10.028   2.473  0.0708  0.0130  0.8482
  276MOL0     C37167   3.924  10.080   2.571  0.0971 -0.5320 -0.0467
  276MOL0     C37168   3.889   9.973   2.679 -0.4274  0.3452 -0.0811
  276MOL0     C37169   3.796  10.022   2.786  0.1802 -0.1109 -0.1599
  276MOL0    Cl37170   3.870  10.170   2.856  0.1299  0.5318 -0.1016
  276MOL0     C37171   4.755   9.908   2.252  0.5107  0.3033  0.8816
  276MOL0     C37172   4.863   9.864   2.175 -0.1771 -0.1449 -0.6047
  276MOL0     O37173   5.112   9.995   2.086 -0.5433 -0.4229  0.1629
  276MOL0     C37174   5.302   9.680   2.057 -0.1127 -0.8846 -0.0003
  276MOL0     C37175   5.417   9.617   2.008  0.0505 -0.9251  0.6822
  276MOL0     N37176   5.371   9.273   1.441 -0.3564 -0.2282 -0.2363
  276MOL0     N37177   5.282   9.287   1.349  0.0621  1.2222 -0.5603
  276MOL0     C37178   4.193   9.931   1.184 -0.0604  0.4227  0.1964
  276MOL0     C37179   4.096  10.034   1.210 -0.4063  0.7368  0.5422
  276MOL0     C37180   3.877  10.371   1.369 -0.1344 -0.3343  1.3780
  276MOL0     C37181   3.804  10.423   1.255 -1.3182  0.1190  0.0604
  276MOL0     C37182   3.690  10.498   1.285  0.0191 -0.2064 -0.1354
  276MOL0     C37183   3.660  10.541   1.414  0.9221 -0.7313  0.7240
  276MOL0     O37184   3.557  10.629   1.429 -0.1562  0.0295  0.0633
  276MOL0     C37185   3.537  10.733   1.328  0.4947 -0.3221 -0.7029
  276MOL0     C37186   3.400  10.721   1.267  0.5859 -0.5553 -0.0123
  276MOL0     C37187   3.367  10.838   1.171  0.3122 -0.3757  0.1787
  276MOL0     C37188   3.238  10.844   1.093 -0.1994  0.1124  1.2869
  276MOL0     C37189   3.117  10.819   1.172 -0.8354  0.4848  0.6439
  276MOL0     C37190   3.023  10.796   1.233  0.4637  0.0517 -0.7089
  276MOL0     C37191   3.738  10.514   1.519  0.8674  0.7788 -0.2819
  276MOL0     C37192   3.846  10.421   1.495  0.3642  0.5146  0.7134
  276MOL0     H37193   4.284  10.308   1.163  0.8528  0.2148 -0.6848
  276MOL0     H37194   4.447  10.152   1.108  0.4811  2.0933  2.1996
  276MOL0     H37195   4.368   9.717   1.200  0.5256 -1.2019  0.2246
  276MOL0     H37196   4.363   9.742   1.027 -0.8828  1.4332  0.2619
  276MOL0     H37197   4.556   9.580   1.112 -2.1134 -0.5060 -1.3145
  276MOL0     H37198   4.605   9.697   1.000  0.7352 -2.6089 -0.7502
  276MOL0     H37199   4.658   9.845   1.238  1.5514 -0.3240  1.2784
  276MOL0     H37200   4.676   9.694   1.303  0.8917 -0.4661 -0.0777
  276MOL0     H37201   4.833   9.748   1.039  1.2265 -2.0175  0.5635
  276MOL0     H37202   4.896   9.795   1.196 -0.5133  0.8693 -0.5365
  276MOL0     H37203   4.861   9.577   1.280  1.4308 -0.2885 -0.2146
  276MOL0     H37204   4.805   9.529   1.111 -0.4098  2.4555 -1.2445
  276MOL0     H37205   5.027   9.545   1.023  2.0752  0.6282  0.4147
  276MOL0     H37206   5.082   9.637   1.170 -2.5439  1.8954  0.4444
  276MOL0     H37207   5.060   9.451   1.297  0.7515  0.5867 -0.2367
  276MOL0     H37208   5.029   9.345   1.146 -2.3363  2.7378 -2.4851
  276MOL0     H37209   5.258   9.531   1.112 -0.0952 -0.0186  0.9868
  276MOL0     H37210   5.238   9.358   1.088  0.3096 -1.8866  1.5528
  276MOL0     H37211   5.449   9.559   1.314 -0.7567  0.2553  0.8499
  276MOL0     H37212   5.578   9.285   1.569  3.0981  1.3806  3.6634
  276MOL0     H37213   5.663   9.399   1.462  0.4541  0.3228  0.0605
  276MOL0     H37214   5.471   9.495   1.687  0.8102  0.5252  1.4507
  276MOL0     H37215   5.570   9.587   1.581  0.8830  0.5411  3.1464
  276MOL0     H37216   5.773   9.523   1.688 -0.9354  0.9043  1.6282
  276MOL0     H37217   5.722   9.365   1.722  0.7984  0.2017  1.5451
  276MOL0     H37218   5.715   9.457   1.940  0.8205 -1.1807 -0.8564
  276MOL0     H37219   5.546   9.445   1.879 -1.9897  4.0056  2.4925
  276MOL0     H37220   5.535   9.884   1.851  0.2844 -0.7084  0.2315
  276MOL0     H37221   5.234  10.046   1.899 -0.8260 -0.5676 -1.1546
  276MOL0     H37222   5.380  10.098   1.988  0.4573 -0.5924 -0.8707
  276MOL0     H37223   5.405  10.050   1.825 -3.0178 -0.8167 -2.6097
  276MOL0     H37224   5.078   9.826   2.439 -0.0129  0.0149 -0.1431
  276MOL0     H37225   4.891   9.914   2.560 -2.0434  0.6926  0.6068
  276MOL0     H37226   4.513   9.985   2.330 -1.6731  1.2089  0.7130
  276MOL0     H37227   4.521   9.829   2.417 -1.0091 -0.2226  1.0080
  276MOL0     H37228   4.409   9.928   2.618  0.5906  2.8819  0.6914
  276MOL0     H37229   4.435  10.084   2.563  0.4474 -0.9004  1.4567
  276MOL0     H37230   4.266   9.906   2.392  1.4335  1.0094 -0.3433
  276MOL0     H37231   4.295  10.074   2.376  1.2692 -0.2294 -1.1984
  276MOL0     H37232   4.173   9.970   2.631 -1.0110 -0.8483 -0.5903
  276MOL0     H37233   4.195  10.137   2.554 -0.4973  0.2101 -0.3964
  276MOL0     H37234   4.012   9.925   2.441  0.7978  0.0601  0.2781
  276MOL0     H37235   4.025  10.094   2.386  1.9345  0.1787  0.8574
  276MOL0     H37236   3.957  10.173   2.618  0.5388 -1.5856  1.8626
  276MOL0     H37237   3.832  10.080   2.512 -0.6936  0.6865  1.1317
  276MOL0     H37238   3.982   9.944   2.731  0.2245 -1.5264 -2.1348
  276MOL0     H37239   3.849   9.885   2.628  1.5644 -0.1368 -0.9271
  276MOL0     H37240   3.794   9.948   2.866  1.5481 -0.3729 -0.3412
  276MOL0     H37241   3.695  10.035   2.745  0.0413  2.5881  0.8415
  276MOL0     H37242   4.659   9.927   2.206  0.4025 -1.0924  0.4655
  276MOL0     H37243   4.863   9.839   2.070  4.0246 -0.1934 -0.7873
  276MOL0     H37244   5.239   9.625   2.126  0.0887 -0.4349  0.5479
  276MOL0     H37245   5.417   9.509   2.015  2.5714 -1.0728 -0.5614
  276MOL0     H37246   4.169   9.827   1.203 -2.2823  1.1265  1.7194
  276MOL0     H37247   4.000  10.020   1.258  0.5672  0.1306  2.4086
  276MOL0     H37248   3.847  10.401   1.157  0.0180  1.7323  0.2299
  276MOL0     H37249   3.625  10.532   1.205  0.4384  0.2290 -0.2942
  276MOL0     H37250   3.538  10.828   1.384 -1.5158  0.1423 -1.4002
  276MOL0     H37251   3.615  10.744   1.252  0.7554  3.1647 -0.1264
  276MOL0     H37252   3.324  10.727   1.346  0.3309  2.4106 -0.3617
  276MOL0     H37253   3.387  10.625   1.216 -0.7947 -1.9387  2.7032
  276MOL0     H37254   3.444  10.862   1.097 -0.9552  2.2731 -0.4141
  276MOL0     H37255   3.365  10.934   1.224 -3.3081  0.7731 -1.6666
  276MOL0     H37256   3.240  10.785   1.001 -2.6728 -0.1610  1.3591
  276MOL0     H37257   3.229  10.942   1.045 -1.6430 -1.4185 -1.8579
  276MOL0     H37258   2.926  10.797   1.279 -0.0567  1.7699 -1.7350
  276MOL0     H37259   3.706  10.547   1.617  0.9873 -0.9887  0.3916
  276MOL0     H37260   3.906  10.394   1.581 -0.8640 -0.4366  1.3117
  277MOL0     O37261   9.566   1.467   8.399 -0.3241  0.5059  0.1110
  277MOL0     C37262   9.583   1.584   8.419  0.1707  0.5809  0.4882
  277MOL0     O37263   9.491   1.674   8.470 -0.3660  0.0942  0.4055
  277MOL0     C37264   9.369   1.633   8.488  0.4075  0.2169 -0.0997
  277MOL0     C37265   9.313   1.565   8.602 -0.3242  0.9102  0.2963
  277MOL0     C37266   9.178   1.556   8.624  1.3773  0.2497 -0.3670
  277MOL0     C37267   9.089   1.618   8.535 -0.1541 -0.2485 -0.8597
  277MOL0     O37268   8.959   1.616   8.559 -0.2369 -0.5385 -0.0396
  277MOL0     C37269   8.899   1.737   8.626  0.6698 -0.1141  0.0668
  277MOL0     C37270   8.880   1.702   8.768 -1.0085 -0.0953 -0.2937
  277MOL0     C37271   8.731   1.742   8.818 -0.2831  0.3251  0.3676
  277MOL0     C37272   8.616   1.675   8.746  0.1570  0.8266 -0.4784
  277MOL0     C37273   8.480   1.722   8.804 -0.6398  0.4824  0.2989
  277MOL0     C37274   8.476   1.699   8.955  0.4135  0.4620  0.2712
  277MOL0     C37275   8.340   1.698   9.018  0.4559  0.4619  0.0576
  277MOL0     C37276   8.267   1.833   9.006 -0.2832 -0.8106  0.1305
  277MOL0     N37277   8.143   1.835   9.094 -0.6409  0.2692  0.9166
  277MOL0     C37278   8.120   1.777   9.215 -0.0700  0.4300  0.2475
  277MOL0     C37279   7.990   1.778   9.240  1.1664 -0.1642 -0.5373
  277MOL0     C37280   7.932   1.705   9.359  0.4358 -0.3981 -0.1408
  277MOL0     C37281   7.792   1.750   9.384 -0.2949 -0.3006  1.9807
  277MOL0     C37282   7.714   1.696   9.505  0.6981 -0.0681 -0.1950
  277MOL0     C37283   7.733   1.760   9.638  0.6586  0.1172 -0.0382
  277MOL0     O37284   7.696   1.898   9.646 -0.3681 -0.2659 -0.6575
  277MOL0     C37285   7.570   1.936   9.683 -0.2952 -0.8598  0.0968
  277MOL0     C37286   7.542   2.070   9.642 -0.9725 -0.3107 -0.0680
  277MOL0     C37287   7.425   2.142   9.684 -0.7199  0.8915  0.1381
  277MOL0     C37288   7.412   2.294   9.644 -0.3730  0.9784 -0.4391
  277MOL0     C37289   7.317   2.074   9.753  0.5901  0.9285  0.3750
  277MOL0     C37290   7.190   2.134   9.804 -0.5723 -0.1002  0.4547
  277MOL0     O37291   7.131   2.243   9.750  0.3386  0.0379  0.4371
  277MOL0     C37292   7.046   2.304   9.831 -0.3782 -0.9833 -0.6541
  277MOL0     C37293   7.091   2.424   9.884  0.1635  0.5117  0.1316
  277MOL0     C37294   7.002   2.504   9.959 -0.0421 -0.4963  0.9527
  277MOL0     C37295   6.867   2.469   9.956  0.5228 -0.2136 -0.3608
  277MOL0     O37296   6.778   2.561  10.009  0.6622 -0.0330  0.5384
  277MOL0     C37297   6.640   2.528  10.020  0.3626 -0.5063 -0.8599
  277MOL0     C37298   6.557   2.593   9.904 -0.1894  0.1197  0.8488
  277MOL0     C37299   6.412   2.554   9.907 -0.4934 -0.2631 -0.1565
  277MOL0     C37300   6.384   2.409   9.872  0.1783 -0.0182 -0.0291
  277MOL0     C37301   6.239   2.358   9.871  0.4235  0.5735 -1.0618
  277MOL0     C37302   6.130   2.444   9.801  0.0533 -0.4770 -0.0169
  277MOL0     C37303   5.996   2.416   9.862  0.0962  0.4008 -1.0933
  277MOL0     C37304   5.879   2.475   9.775  0.4174  0.2068  0.3331
  277MOL0    Cl37305   5.867   2.396   9.604 -0.1621 -0.2327  0.4411
  277MOL0     C37306   6.825   2.352   9.897 -0.5556 -0.5091  0.1687
  277MOL0     C37307   6.916   2.267   9.838  0.5880  0.4550  0.3767
  277MOL0     O37308   7.152   2.070   9.902  0.3504  0.4530 -0.5815
  277MOL0     C37309   7.335   1.930   9.778 -0.2882  0.0781 -0.3530
  277MOL0     C37310   7.466   1.871   9.749 -0.3908  0.7499 -0.7247
  277MOL0     N37311   7.928   1.832   9.127  0.9329  0.1634  0.0179
  277MOL0     N37312   8.021   1.875   9.050 -0.6827 -1.3978  0.1276
  277MOL0     C37313   9.142   1.692   8.432 -0.1051 -0.7689  0.7955
  277MOL0     C37314   9.277   1.701   8.405  0.2965 -0.1175 -0.4339
  277MOL0     C37315   9.704   1.655   8.373 -0.5311 -0.3922  0.9388
  277MOL0     C37316   9.720   1.785   8.324  1.1884 -0.5356 -0.3446
  277MOL0     C37317   9.850   1.841   8.294 -0.4913  0.1868  0.0967
  277MOL0     C37318   9.971   1.773   8.317  0.9367  0.3611 -0.0949
  277MOL0     O37319  10.096   1.825   8.326 -0.3340 -0.4865  0.0732
  277MOL0     C37320  10.107   1.973   8.336  0.1095  1.7179  0.1563
  277MOL0     C37321  10.233   2.013   8.415  0.2967  0.3239  0.2453
  277MOL0     C37322  10.248   1.935   8.545 -0.0558  0.1696  0.3662
  277MOL0     C37323  10.135   1.883   8.624 -0.4531  0.0494  0.2166
  277MOL0     C37324  10.182   1.821   8.750 -0.0963 -1.3743 -0.1590
  277MOL0     C37325  10.227   1.789   8.862  0.6040  0.1095 -0.3602
  277MOL0     C37326   9.960   1.646   8.361  1.0959 -0.0162 -0.3203
  277MOL0     C37327   9.830   1.587   8.379  0.2240  0.3706 -0.3590
  277MOL0     H37328   9.391   1.526   8.666  0.5413  2.0449 -0.0380
  277MOL0     H37329   9.128   1.508   8.707 -1.7451  1.6425 -1.3175
  277MOL0     H37330   8.955   1.827   8.599 -0.3092  0.4413 -0.1500
  277MOL0     H37331   8.800   1.758   8.585  0.0533  1.2836  2.1171
  277MOL0     H37332   8.900   1.594   8.771 -1.7621 -0.2214  1.4039
  277MOL0     H37333   8.951   1.755   8.832 -2.2451  0.0839  0.9618
  277MOL0     H37334   8.740   1.695   8.916  0.9811 -1.9167 -0.7330
  277MOL0     H37335   8.715   1.850   8.824  2.1077  0.7418  0.4850
  277MOL0     H37336   8.617   1.700   8.639  0.9014 -0.8849 -0.9059
  277MOL0     H37337   8.632   1.567   8.744  0.6813  0.8829  0.2786
  277MOL0     H37338   8.472   1.828   8.782 -0.4214  0.5007  0.3056
  277MOL0     H37339   8.399   1.665   8.759  0.4733  1.0315 -2.6114
  277MOL0     H37340   8.529   1.605   8.974  1.6328  0.7919 -1.2150
  277MOL0     H37341   8.531   1.781   9.003  0.2517  0.9080 -0.2892
  277MOL0     H37342   8.271   1.620   8.985 -1.4024  1.8510  0.4827
  277MOL0     H37343   8.348   1.666   9.122  0.4206 -0.3735 -0.1862
  277MOL0     H37344   8.226   1.854   8.906 -4.0183 -0.2902  1.5962
  277MOL0     H37345   8.329   1.920   9.029 -1.4688 -0.1676  1.0134
  277MOL0     H37346   8.189   1.720   9.276  0.2772  0.1397 -0.4084
  277MOL0     H37347   7.916   1.601   9.331 -0.1076  0.1329 -1.9122
  277MOL0     H37348   7.985   1.735   9.450 -1.0910 -2.4232  1.4977
  277MOL0     H37349   7.736   1.740   9.291  1.3260 -0.2724  0.9684
  277MOL0     H37350   7.809   1.857   9.391 -2.5933  0.4213 -1.3329
  277MOL0     H37351   7.734   1.588   9.508 -0.1539 -0.2910 -1.5329
  277MOL0     H37352   7.607   1.702   9.484  1.2646 -0.5010 -4.0657
  277MOL0     H37353   7.841   1.758   9.657  0.4226 -0.1252  1.3658
  277MOL0     H37354   7.692   1.696   9.716  1.6525  1.2605  1.4819
  277MOL0     H37355   7.608   2.133   9.583 -3.4538  1.4902 -1.1129
  277MOL0     H37356   7.500   2.336   9.594 -2.1927  2.8338 -2.2839
  277MOL0     H37357   7.338   2.306   9.564 -1.9913 -0.9774  0.6767
  277MOL0     H37358   7.393   2.360   9.730 -0.5539 -0.0182  0.3001
  277MOL0     H37359   7.186   2.471   9.861  0.7216  0.4473  2.1181
  277MOL0     H37360   7.018   2.604   9.997 -2.5097 -0.4507  2.0244
  277MOL0     H37361   6.610   2.425  10.038 -2.7610  0.0596 -2.0982
  277MOL0     H37362   6.609   2.576  10.113 -0.8127  0.7792 -1.8708
  277MOL0     H37363   6.544   2.701   9.918  0.7536 -0.0016  3.0525
  277MOL0     H37364   6.605   2.575   9.808 -2.8777 -0.2692 -0.5329
  277MOL0     H37365   6.348   2.612   9.841  0.1026 -1.9589 -2.3680
  277MOL0     H37366   6.376   2.565  10.010 -0.3030 -0.8548 -0.0170
  277MOL0     H37367   6.413   2.402   9.767  0.6374  0.4549  0.0624
  277MOL0     H37368   6.448   2.342   9.931  1.5270  2.3585  1.3571
  277MOL0     H37369   6.216   2.368   9.977 -0.4098 -0.3636 -1.1391
  277MOL0     H37370   6.222   2.255   9.840 -0.0660  0.4952 -0.5363
  277MOL0     H37371   6.157   2.550   9.808 -2.4804  0.3794 -1.8966
  277MOL0     H37372   6.115   2.422   9.695 -2.2947 -0.6873  0.3242
  277MOL0     H37373   5.994   2.455   9.964 -0.4171  1.7227 -1.5818
  277MOL0     H37374   5.974   2.309   9.864 -1.3842  0.6761 -1.3241
  277MOL0     H37375   5.895   2.581   9.755 -0.8069  0.5630  1.1620
  277MOL0     H37376   5.785   2.462   9.829  0.2845  1.7282  0.4950
  277MOL0     H37377   6.722   2.316   9.888  0.2948 -3.7636  1.8320
  277MOL0     H37378   6.870   2.174   9.806 -1.0951  0.7415  1.7780
  277MOL0     H37379   7.256   1.876   9.828  2.0024 -1.2506  2.1146
  277MOL0     H37380   7.489   1.771   9.784 -0.6089  0.8998 -0.1488
  277MOL0     H37381   9.074   1.760   8.382  0.4762  0.7611  2.0257
  277MOL0     H37382   9.322   1.758   8.324 -0.4619 -0.2236 -0.9505
  277MOL0     H37383   9.631   1.847   8.320  1.1489 -0.6213 -0.8315
  277MOL0     H37384   9.856   1.946   8.267 -3.2888  0.3266 -0.2944
  277MOL0     H37385  10.100   2.006   8.232  1.7444  0.5175 -0.3632
  277MOL0     H37386  10.029   2.008   8.404  0.0312  0.3063  0.8228
  277MOL0     H37387  10.227   2.121   8.424 -1.0773  0.1646  1.4620
  277MOL0     H37388  10.323   1.991   8.356  2.5334  3.5039  2.1644
  277MOL0     H37389  10.319   1.990   8.607 -0.7747  0.8592  0.5863
  277MOL0     H37390  10.302   1.842   8.524 -0.4663  0.3239 -1.5960
  277MOL0     H37391  10.077   1.809   8.569  2.3092 -1.4812 -0.8664
  277MOL0     H37392  10.071   1.971   8.630 -1.2050 -0.4110 -0.7820
  277MOL0     H37393  10.262   1.760   8.958 -1.0332 -0.6739  0.0367
  277MOL0     H37394  10.051   1.591   8.383  0.9756 -0.2399 -0.3740
  277MOL0     H37395   9.818   1.481   8.398 -1.6602  0.2764 -1.7794
  278MOL0     O37396   0.366   8.260   3.749  0.9678 -0.5213 -0.4363
  278MOL0     C37397   0.381   8.233   3.629  0.0253 -0.2142 -0.6781
  278MOL0     O37398   0.316   8.133   3.571 -0.7448  0.3473  0.3579
  278MOL0     C37399   0.223   8.054   3.629  0.4215  0.4401  0.0433
  278MOL0     C37400   0.154   7.980   3.536  0.2409 -0.0068  0.0755
  278MOL0     C37401   0.056   7.890   3.567 -1.0657  0.6005  0.2361
  278MOL0     C37402   0.009   7.872   3.696  0.5948 -1.0427  0.0361
  278MOL0     O37403  -0.097   7.788   3.712  0.8437 -0.3364 -0.1577
  278MOL0     C37404  -0.160   7.788   3.841 -0.7220  0.3556 -0.1634
  278MOL0     C37405  -0.275   7.688   3.825  0.5244  0.3501 -1.0091
  278MOL0     C37406  -0.336   7.633   3.965 -0.8469  0.8781 -0.3656
  278MOL0     C37407  -0.458   7.551   3.939  0.6469 -0.7354  0.2976
  278MOL0     C37408  -0.428   7.421   3.895 -0.1513  0.3798  0.5784
  278MOL0     C37409  -0.560   7.350   3.871  0.9315  0.5965  1.0088
  278MOL0     C37410  -0.552   7.200   3.864  0.7497  0.6797  0.1904
  278MOL0     C37411  -0.696   7.140   3.859  0.7028  0.8021 -0.2008
  278MOL0     N37412  -0.800   7.209   3.783  0.1578 -0.0785  0.2166
  278MOL0     C37413  -0.816   7.223   3.645  0.1295 -0.1407 -0.0695
  278MOL0     C37414  -0.927   7.289   3.622  1.6933  0.5108  0.8499
  278MOL0     C37415  -0.987   7.306   3.484 -0.5629  0.0380 -0.2955
  278MOL0     C37416  -1.018   7.173   3.421  0.1282 -0.3341  0.3055
  278MOL0     C37417  -1.051   7.185   3.270  0.5918  0.0563  0.3849
  278MOL0     C37418  -1.196   7.238   3.237 -0.1316 -1.1956  0.7735
  278MOL0     O37419  -1.287   7.133   3.237 -0.3942 -0.1090 -0.6169
  278MOL0     C37420  -1.420   7.167   3.244  0.1418  0.0875 -0.4227
  278MOL0     C37421  -1.480   7.284   3.180 -0.5369 -0.3615 -0.0870
  278MOL0     C37422  -1.616   7.303   3.189 -0.0031  1.0444  0.3978
  278MOL0     C37423  -1.668   7.421   3.104  1.1643 -0.1556  0.1429
  278MOL0     C37424  -1.684   7.221   3.277  0.9581  1.0374 -0.5347
  278MOL0     C37425  -1.831   7.243   3.299 -0.5594 -0.0467  1.2271
  278MOL0     O37426  -1.894   7.324   3.216 -0.1535 -0.2048 -0.5712
  278MOL0     C37427  -2.026   7.324   3.214  0.4725  0.1676  0.4858
  278MOL0     C37428  -2.112   7.357   3.324  0.4678 -0.2400 -0.7407
  278MOL0     C37429  -2.253   7.364   3.307 -0.8696  0.0430 -0.6642
  278MOL0     C37430  -2.309   7.346   3.181  0.0837 -1.1627 -0.2676
  278MOL0     O37431  -2.445   7.340   3.158 -0.1125 -0.9470  1.3235
  278MOL0     C37432  -2.540   7.335   3.263  0.0511  1.0265  0.8579
  278MOL0     C37433  -2.685   7.321   3.209 -0.1118 -0.6793  0.2885
  278MOL0     C37434  -2.805   7.299   3.304 -1.1476 -0.0497  0.3720
  278MOL0     C37435  -2.817   7.143   3.334  0.1184 -0.2001  0.0843
  278MOL0     C37436  -2.950   7.112   3.401  0.7500 -0.6569 -1.0099
  278MOL0     C37437  -2.920   7.018   3.518 -0.2581 -0.1830  0.4016
  278MOL0     C37438  -3.048   6.946   3.578 -0.5496  0.2880  0.6371
  278MOL0     C37439  -3.130   7.032   3.668  0.1202 -0.7126  0.6438
  278MOL0    Cl37440  -3.275   6.943   3.727 -0.1058  0.0576  0.4455
  278MOL0     C37441  -2.228   7.316   3.068 -0.6849  0.4677  0.0548
  278MOL0     C37442  -2.089   7.303   3.086 -0.2057 -0.5895  0.1518
  278MOL0     O37443  -1.876   7.198   3.402 -0.4451  0.8369  0.2354
  278MOL0     C37444  -1.635   7.110   3.334 -0.2813 -0.1763 -0.6843
  278MOL0     C37445  -1.500   7.080   3.321  1.1591 -0.0461  0.1104
  278MOL0     N37446  -0.977   7.319   3.747  0.1207 -0.1275 -1.0813
  278MOL0     N37447  -0.908   7.272   3.843 -0.2712  0.5271  0.1637
  278MOL0     C37448   0.067   7.955   3.796  0.1972 -0.2478 -0.8915
  278MOL0     C37449   0.175   8.041   3.764  0.7987  0.4423 -0.1384
  278MOL0     C37450   0.486   8.298   3.564  0.4529 -0.5352  0.0093
  278MOL0     C37451   0.545   8.411   3.617  0.3633 -0.5539  0.4753
  278MOL0     C37452   0.654   8.478   3.555 -0.0565 -0.4938  0.3227
  278MOL0     C37453   0.715   8.413   3.441 -0.1984 -0.6648 -0.3631
  278MOL0     O37454   0.824   8.455   3.370 -0.0369 -0.5399  0.4230
  278MOL0     C37455   0.864   8.593   3.385 -0.0585 -0.1450 -0.0150
  278MOL0     C37456   0.967   8.614   3.504 -0.2249 -0.1601  0.2408
  278MOL0     C37457   1.084   8.523   3.487 -0.9741  0.4053 -0.4469
  278MOL0     C37458   1.200   8.580   3.566 -0.7518  1.3963 -0.4901
  278MOL0     C37459   1.306   8.485   3.544  0.3250  1.0665 -1.1968
  278MOL0     C37460   1.402   8.410   3.552 -0.2353  0.3100  0.1553
  278MOL0     C37461   0.657   8.290   3.396 -0.3090 -0.0176 -0.5098
  278MOL0     C37462   0.544   8.237   3.454 -0.4099 -0.7133 -0.1864
  278MOL0     H37463   0.175   7.975   3.430 -2.5980 -0.5072 -0.5406
  278MOL0     H37464   0.018   7.820   3.493 -1.5270  1.2994 -0.1983
  278MOL0     H37465  -0.093   7.754   3.921 -0.2750 -1.3049 -1.1872
  278MOL0     H37466  -0.209   7.882   3.864 -0.6203  0.9636 -2.1707
  278MOL0     H37467  -0.357   7.747   3.784 -1.5185 -0.2710  1.8012
  278MOL0     H37468  -0.238   7.608   3.761  0.6776 -0.7609  0.3996
  278MOL0     H37469  -0.257   7.573   4.012 -0.1959  1.9261 -0.0885
  278MOL0     H37470  -0.348   7.719   4.030  0.1787 -0.1420  1.2419
  278MOL0     H37471  -0.508   7.546   4.037 -1.4966  0.1733 -0.6836
  278MOL0     H37472  -0.523   7.603   3.868  2.1222 -0.8602 -1.1805
  278MOL0     H37473  -0.385   7.429   3.795 -0.9817  0.2874  0.2020
  278MOL0     H37474  -0.368   7.367   3.969 -2.2969 -1.5350  1.0266
  278MOL0     H37475  -0.632   7.368   3.952 -0.9369 -2.0736  0.0997
  278MOL0     H37476  -0.600   7.381   3.774  2.6526 -1.9288 -0.6195
  278MOL0     H37477  -0.527   7.163   3.764 -0.5469 -0.0496  0.1063
  278MOL0     H37478  -0.485   7.160   3.941  1.5198  0.5935 -0.5119
  278MOL0     H37479  -0.739   7.146   3.959 -0.2271 -0.9308 -0.4542
  278MOL0     H37480  -0.697   7.033   3.834  0.1710  0.9113 -0.6623
  278MOL0     H37481  -0.749   7.179   3.572 -0.8989 -1.6088 -0.1783
  278MOL0     H37482  -1.074   7.373   3.490  0.4427  1.6878 -2.8143
  278MOL0     H37483  -0.921   7.360   3.416  0.0848  0.2476  0.4864
  278MOL0     H37484  -1.100   7.118   3.468  0.4341 -0.4022  0.7710
  278MOL0     H37485  -0.924   7.118   3.413  2.4653  3.5062 -1.5372
  278MOL0     H37486  -1.060   7.085   3.227  1.4498  0.9858 -2.1346
  278MOL0     H37487  -0.973   7.244   3.221  0.4651 -0.9987 -1.1602
  278MOL0     H37488  -1.195   7.267   3.131 -2.3690  1.4380  1.3613
  278MOL0     H37489  -1.229   7.321   3.300 -2.2937 -0.9727 -0.5597
  278MOL0     H37490  -1.420   7.341   3.109  0.8586  1.0906  2.0977
  278MOL0     H37491  -1.733   7.388   3.022 -0.8846  1.7275  0.9027
  278MOL0     H37492  -1.731   7.491   3.159  0.4866  1.6388 -2.7033
  278MOL0     H37493  -1.588   7.482   3.061  2.6666 -0.1234  2.7840
  278MOL0     H37494  -2.069   7.373   3.423  2.1768  0.3535 -1.5337
  278MOL0     H37495  -2.312   7.378   3.397 -1.8180 -2.6013 -0.7870
  278MOL0     H37496  -2.522   7.255   3.335  0.1605  0.2515 -0.0047
  278MOL0     H37497  -2.540   7.429   3.319 -0.3041  0.4382  1.8733
  278MOL0     H37498  -2.699   7.421   3.168 -0.5033 -0.1608  1.6311
  278MOL0     H37499  -2.690   7.244   3.132 -0.2893 -1.8906  1.4685
  278MOL0     H37500  -2.888   7.337   3.243 -1.5243 -1.2938  0.0726
  278MOL0     H37501  -2.784   7.360   3.392  0.8184 -0.9889  0.6008
  278MOL0     H37502  -2.818   7.074   3.249  2.0217  0.8657 -0.8628
  278MOL0     H37503  -2.732   7.111   3.394 -0.4978 -0.8589  0.6256
  278MOL0     H37504  -3.021   7.076   3.325  0.2394  0.2264 -0.9655
  278MOL0     H37505  -2.999   7.196   3.452  0.7076 -1.4867  0.3801
  278MOL0     H37506  -2.862   6.935   3.478  2.5126 -0.0827  3.7336
  278MOL0     H37507  -2.861   7.070   3.595  0.7254  0.7468 -0.9275
  278MOL0     H37508  -3.008   6.871   3.647  0.4529  1.6131  1.5695
  278MOL0     H37509  -3.102   6.909   3.491  0.2007  1.7038 -0.4855
  278MOL0     H37510  -3.162   7.118   3.609  0.4669  0.5758  2.2545
  278MOL0     H37511  -3.067   7.068   3.750 -0.9854  1.8988  0.4503
  278MOL0     H37512  -2.284   7.296   2.976 -1.6424 -0.2922  0.7774
  278MOL0     H37513  -2.028   7.266   3.004  2.5139 -0.0714  1.8060
  278MOL0     H37514  -1.697   7.044   3.394  3.1180 -0.3606  3.1681
  278MOL0     H37515  -1.458   6.996   3.376  0.2030 -0.8712 -0.3669
  278MOL0     H37516   0.035   7.938   3.898 -0.4218  2.6971 -0.5303
  278MOL0     H37517   0.223   8.093   3.847 -0.8106 -3.0574  3.3283
  278MOL0     H37518   0.523   8.448   3.716  0.5852 -1.6233  0.9343
  278MOL0     H37519   0.674   8.578   3.593 -5.6334  0.6680  1.1289
  278MOL0     H37520   0.918   8.620   3.294 -0.6193 -1.3643 -0.7458
  278MOL0     H37521   0.777   8.657   3.400  0.7773  0.7258  1.2833
  278MOL0     H37522   0.921   8.594   3.601  0.1392 -2.5074  0.0041
  278MOL0     H37523   0.983   8.722   3.500 -0.3537 -0.1703 -0.8567
  278MOL0     H37524   1.116   8.519   3.382  0.8506 -1.9147  0.0968
  278MOL0     H37525   1.058   8.428   3.535 -1.5313  0.7895  0.0189
  278MOL0     H37526   1.182   8.587   3.673 -3.0952  2.1044 -0.8582
  278MOL0     H37527   1.222   8.681   3.529 -0.6685  1.9044  0.9037
  278MOL0     H37528   1.485   8.342   3.550  0.7108  1.3290  1.8178
  278MOL0     H37529   0.708   8.233   3.319 -1.4010  0.9210 -1.9821
  278MOL0     H37530   0.488   8.154   3.411 -1.5376 -0.3149  0.4909
  279MOL0     O37531   6.252   4.180  10.279 -0.4965 -0.5754 -0.1481
  279MOL0     C37532   6.152   4.255  10.302  0.0486 -0.4536 -0.0132
  279MOL0     O37533   6.155   4.379  10.363 -0.3315  0.3731  0.1541
  279MOL0     C37534   6.268   4.431  10.411 -0.1074 -0.5042  0.0332
  279MOL0     C37535   6.357   4.354  10.491 -0.1266 -0.7174  1.0337
  279MOL0     C37536   6.479   4.403  10.525 -0.8837  0.3972  0.0565
  279MOL0     C37537   6.508   4.541  10.508 -0.1604 -0.0037  0.7674
  279MOL0     O37538   6.627   4.581  10.558 -0.1164  0.4746 -0.3243
  279MOL0     C37539   6.631   4.714  10.609  0.0983 -0.2564  0.0008
  279MOL0     C37540   6.734   4.794  10.521  0.4807 -0.5077  0.0502
  279MOL0     C37541   6.683   4.937  10.493  0.6400  0.7306  0.1719
  279MOL0     C37542   6.779   5.026  10.418 -0.9373  0.0168  0.2379
  279MOL0     C37543   6.881   5.099  10.518 -0.5586  0.5405  0.7846
  279MOL0     C37544   7.001   5.013  10.565 -0.3911 -0.4084  0.3770
  279MOL0     C37545   7.118   5.108  10.612 -0.2810  0.2013 -0.2979
  279MOL0     C37546   7.240   5.018  10.659 -1.1882  0.2188 -0.4502
  279MOL0     N37547   7.312   5.088  10.766 -0.0508  0.0247 -0.5689
  279MOL0     C37548   7.364   5.214  10.759  0.1995 -0.1005  0.6140
  279MOL0     C37549   7.442   5.221  10.873  0.4124  0.0071  1.1331
  279MOL0     C37550   7.535   5.326  10.896  0.2393 -0.0330  0.2073
  279MOL0     C37551   7.654   5.319  10.800 -0.0414  1.0371  0.6366
  279MOL0     C37552   7.744   5.425  10.850 -0.8140 -0.1038  1.1115
  279MOL0     C37553   7.867   5.451  10.754  0.1417  0.1216 -1.0461
  279MOL0     O37554   7.931   5.330  10.708  0.0370 -0.3747  0.4152
  279MOL0     C37555   8.031   5.279  10.788  0.1431 -0.2570  0.2527
  279MOL0     C37556   8.058   5.313  10.915  0.4629 -0.4972  0.3342
  279MOL0     C37557   8.158   5.255  10.995  0.5108 -0.8915  0.0433
  279MOL0     C37558   8.189   5.317  11.126 -0.3587 -0.3025  0.5747
  279MOL0     C37559   8.237   5.157  10.936 -0.1320  0.1842  0.2800
  279MOL0     C37560   8.362   5.102  11.005  0.1708  0.3774 -0.1279
  279MOL0     O37561   8.483   5.121  10.936 -0.8076  0.1277  0.5382
  279MOL0     C37562   8.593   5.101  11.018  0.4373  0.6686 -0.1863
  279MOL0     C37563   8.612   5.172  11.137 -0.3159  0.3811  0.2488
  279MOL0     C37564   8.731   5.146  11.213  0.1675 -0.9011 -0.3360
  279MOL0     C37565   8.818   5.037  11.185  0.2419 -0.2339  0.2230
  279MOL0     O37566   8.929   5.018  11.258 -0.9479 -0.0326 -0.3970
  279MOL0     C37567   9.031   4.924  11.219 -0.3032 -0.0013 -0.3601
  279MOL0     C37568   9.130   4.902  11.340  0.2720  0.0767 -0.5753
  279MOL0     C37569   9.198   4.760  11.348  0.7726 -0.4278  0.0127
  279MOL0     C37570   9.307   4.748  11.451  0.9888  0.0841 -0.0787
  279MOL0     C37571   9.446   4.764  11.398  1.0207 -0.5665 -0.0428
  279MOL0     C37572   9.515   4.640  11.352  0.1812 -0.7499 -0.0880
  279MOL0     C37573   9.661   4.665  11.308 -0.5084 -1.5669  0.7157
  279MOL0     C37574   9.725   4.557  11.207 -0.3893 -0.5265  0.0294
  279MOL0    Cl37575   9.777   4.414  11.296 -0.4685  0.3252  0.2424
  279MOL0     C37576   8.786   4.966  11.070 -0.2114 -1.0311 -0.1019
  279MOL0     C37577   8.677   4.998  10.985 -1.2640 -0.3970 -0.2656
  279MOL0     O37578   8.350   5.044  11.115 -0.1213 -0.4182  0.7166
  279MOL0     C37579   8.214   5.118  10.807  0.3865 -1.0035 -0.1419
  279MOL0     C37580   8.108   5.180  10.735  0.6427  0.5668  1.0316
  279MOL0     N37581   7.414   5.111  10.958  0.4146  0.6985  0.4733
  279MOL0     N37582   7.346   5.028  10.880 -0.2093  0.8639 -0.5610
  279MOL0     C37583   6.420   4.617  10.430 -0.5447 -0.1821  0.2281
  279MOL0     C37584   6.301   4.564  10.388 -0.7868  0.3609  0.0232
  279MOL0     C37585   6.015   4.202  10.284 -1.1270  0.8385  0.0171
  279MOL0     C37586   5.899   4.270  10.314  0.5575 -0.2118 -0.5491
  279MOL0     C37587   5.772   4.226  10.275  0.4422 -0.1490  0.6670
  279MOL0     C37588   5.758   4.104  10.214  0.6719  0.9273  0.1783
  279MOL0     O37589   5.634   4.066  10.161  0.2842 -0.0978  0.2101
  279MOL0     C37590   5.510   4.108  10.224 -0.2677 -0.1494  1.0682
  279MOL0     C37591   5.409   3.989  10.214 -0.2551  0.5934  0.2721
  279MOL0     C37592   5.380   3.957  10.061 -0.5503  0.4096  0.1238
  279MOL0     C37593   5.348   3.803  10.050 -0.2034 -0.5549  0.6022
  279MOL0     C37594   5.470   3.727  10.039 -0.2819  0.9005  1.0770
  279MOL0     C37595   5.583   3.669  10.036  0.5907 -0.7054  0.0723
  279MOL0     C37596   5.869   4.020  10.195 -0.5880  0.1619 -0.1837
  279MOL0     C37597   5.996   4.070  10.228 -0.9421  0.9751  0.2216
  279MOL0     H37598   6.339   4.250  10.516  0.3342 -0.9943  0.2192
  279MOL0     H37599   6.563   4.348  10.567 -0.5332  0.0517 -1.0808
  279MOL0     H37600   6.532   4.761  10.595  0.3422  0.7054  1.3290
  279MOL0     H37601   6.659   4.718  10.714  1.2338 -0.2701 -0.2870
  279MOL0     H37602   6.823   4.791  10.584  0.6096 -3.4712 -0.1118
  279MOL0     H37603   6.747   4.741  10.425  2.3701  1.6261 -0.9486
  279MOL0     H37604   6.598   4.938  10.424  1.4474  1.2681 -0.8283
  279MOL0     H37605   6.643   4.966  10.591  0.1249 -1.8633  0.8114
  279MOL0     H37606   6.831   4.968  10.341 -2.3975 -1.7872  0.5208
  279MOL0     H37607   6.730   5.111  10.369 -0.1238 -1.0089 -2.5595
  279MOL0     H37608   6.921   5.188  10.469 -3.2049 -0.0320 -2.8212
  279MOL0     H37609   6.837   5.128  10.614 -1.1567 -0.2894  0.7743
  279MOL0     H37610   6.961   4.946  10.641 -1.1733  0.0417  0.3764
  279MOL0     H37611   7.031   4.948  10.482 -1.7120 -2.7591  1.6299
  279MOL0     H37612   7.153   5.182  10.540 -1.9772  1.5478  0.2002
  279MOL0     H37613   7.080   5.158  10.701 -2.0592 -2.8029  0.7785
  279MOL0     H37614   7.316   5.002  10.582 -0.4689 -0.3689  0.3446
  279MOL0     H37615   7.218   4.920  10.701  0.0582 -1.1810 -2.8924
  279MOL0     H37616   7.361   5.276  10.671  0.2861 -0.8190  0.0937
  279MOL0     H37617   7.479   5.420  10.895  1.4453  0.7062  0.3627
  279MOL0     H37618   7.566   5.317  11.000 -0.5009 -0.8048  0.3686
  279MOL0     H37619   7.637   5.336  10.693  1.1155 -0.9851  0.0847
  279MOL0     H37620   7.698   5.220  10.813  1.3605  1.5985  0.4131
  279MOL0     H37621   7.782   5.410  10.951  1.2192  2.0536  0.7555
  279MOL0     H37622   7.688   5.519  10.853  1.3569  1.3401 -0.4325
  279MOL0     H37623   7.935   5.530  10.785  2.1595 -1.7976 -0.3114
  279MOL0     H37624   7.820   5.483  10.660 -2.1250  0.8517  0.2505
  279MOL0     H37625   7.995   5.393  10.952 -1.4631 -1.0597 -1.5065
  279MOL0     H37626   8.296   5.337  11.118 -0.5879  1.1822  0.8778
  279MOL0     H37627   8.128   5.407  11.139  4.0933  3.2613 -0.8031
  279MOL0     H37628   8.174   5.237  11.199 -0.3520  0.3407  1.2881
  279MOL0     H37629   8.538   5.244  11.168  0.6998  1.8586 -0.6196
  279MOL0     H37630   8.735   5.208  11.302  1.0693 -1.5484  0.0851
  279MOL0     H37631   8.993   4.830  11.178  1.6928 -0.4405 -1.3348
  279MOL0     H37632   9.087   4.973  11.138  0.6188  2.5234  1.6726
  279MOL0     H37633   9.200   4.986  11.331 -0.8892  1.1001 -0.2814
  279MOL0     H37634   9.080   4.913  11.437  1.9412 -4.1330  1.0120
  279MOL0     H37635   9.235   4.734  11.248  1.5958  0.6537  0.0124
  279MOL0     H37636   9.116   4.697  11.383 -1.7192  3.6782  2.3451
  279MOL0     H37637   9.297   4.823  11.531  4.3246  0.0982  0.4915
  279MOL0     H37638   9.299   4.656  11.509 -0.6640  0.4669  0.3526
  279MOL0     H37639   9.506   4.800  11.482 -1.2334  3.6654  0.0424
  279MOL0     H37640   9.454   4.835  11.315 -1.4456 -2.1420 -1.7561
  279MOL0     H37641   9.508   4.567  11.433 -1.1592  1.8370  2.2954
  279MOL0     H37642   9.456   4.601  11.269 -2.0104  0.8988  0.6068
  279MOL0     H37643   9.717   4.686  11.399 -1.9876  1.8742  0.9644
  279MOL0     H37644   9.663   4.751  11.241 -0.6179 -2.3463 -0.3229
  279MOL0     H37645   9.814   4.608  11.170  2.1222 -2.9318  2.2467
  279MOL0     H37646   9.656   4.528  11.128 -0.0278 -0.8004 -0.1874
  279MOL0     H37647   8.844   4.879  11.042  0.9635 -0.3813  0.2888
  279MOL0     H37648   8.647   4.937  10.901 -1.2254 -0.3474 -0.3150
  279MOL0     H37649   8.281   5.059  10.746 -0.5920  0.3893 -2.7432
  279MOL0     H37650   8.082   5.155  10.633 -2.5279 -4.1655  2.6502
  279MOL0     H37651   6.439   4.722  10.411 -1.0322  0.3069  2.2185
  279MOL0     H37652   6.233   4.636  10.343 -1.2150  0.5170  0.9089
  279MOL0     H37653   5.922   4.359  10.372 -0.9012  1.5610 -2.5620
  279MOL0     H37654   5.677   4.277  10.285  1.4943  1.7613  1.3706
  279MOL0     H37655   5.523   4.141  10.328 -1.6736  2.3423  0.5189
  279MOL0     H37656   5.486   4.201  10.173  0.6412 -0.7654 -0.5594
  279MOL0     H37657   5.314   4.018  10.260 -1.2857 -0.3157 -1.1979
  279MOL0     H37658   5.445   3.904  10.274 -0.7150  2.2007  2.9838
  279MOL0     H37659   5.454   3.978   9.984 -1.0753  1.7356 -0.0298
  279MOL0     H37660   5.286   4.004  10.031 -1.4238 -1.7153 -0.7237
  279MOL0     H37661   5.287   3.786   9.961  0.4438 -0.5179  0.1474
  279MOL0     H37662   5.285   3.777  10.136 -0.4102 -2.4343 -0.0913
  279MOL0     H37663   5.681   3.627  10.027 -0.8431 -3.8495 -5.0840
  279MOL0     H37664   5.860   3.929  10.137  2.2731  1.0485 -2.2515
  279MOL0     H37665   6.088   4.017  10.202 -2.0512 -0.5109 -0.8321
  280MOL0     O37666   1.785   7.587   5.906 -0.1020  0.4075  0.2565
  280MOL0     C37667   1.857   7.658   5.975 -0.1141  0.1889 -0.2158
  280MOL0     O37668   1.825   7.757   6.055  0.9890 -0.4080  0.5859
  280MOL0     C37669   1.688   7.753   6.088 -0.3605 -0.4346 -0.8790
  280MOL0     C37670   1.645   7.708   6.212  0.2707 -0.8338  0.1998
  280MOL0     C37671   1.516   7.723   6.250  1.0201  0.8041 -0.0078
  280MOL0     C37672   1.415   7.767   6.169  0.8155 -0.1077 -0.3872
  280MOL0     O37673   1.280   7.787   6.202  1.0083 -0.3648  1.2410
  280MOL0     C37674   1.249   7.755   6.335 -0.0343  0.5457 -0.4008
  280MOL0     C37675   1.105   7.808   6.361 -0.6686 -0.7292  0.1404
  280MOL0     C37676   1.052   7.772   6.504 -0.3709 -0.3235  0.1513
  280MOL0     C37677   0.984   7.632   6.521  0.3221  1.3392  0.1528
  280MOL0     C37678   0.958   7.599   6.675 -0.1129  1.2795  0.6782
  280MOL0     C37679   0.866   7.479   6.682  0.2209  0.0668 -0.2206
  280MOL0     C37680   0.829   7.438   6.818  0.8918 -0.2774 -0.1485
  280MOL0     C37681   0.724   7.314   6.830  0.0509 -0.4506 -0.3722
  280MOL0     N37682   0.701   7.277   6.969  0.0491  0.4916 -0.5596
  280MOL0     C37683   0.684   7.361   7.072 -0.0394 -0.6296 -0.2191
  280MOL0     C37684   0.657   7.284   7.174 -0.3382  0.6472 -0.8560
  280MOL0     C37685   0.613   7.329   7.302  0.5212  0.2546 -0.0020
  280MOL0     C37686   0.473   7.376   7.287  1.0225 -1.2748 -1.5342
  280MOL0     C37687   0.441   7.476   7.397 -0.2360 -1.7908  0.2695
  280MOL0     C37688   0.299   7.537   7.374  0.2415  0.9175  0.2576
  280MOL0     O37689   0.275   7.647   7.459  0.0982 -0.1388  0.2907
  280MOL0     C37690   0.296   7.631   7.596 -0.1711  1.6959 -0.1114
  280MOL0     C37691   0.299   7.741   7.671 -0.3365  0.3561  0.6494
  280MOL0     C37692   0.326   7.755   7.809  0.2014  0.0611  0.1068
  280MOL0     C37693   0.310   7.894   7.871  0.8078 -0.0571 -0.0911
  280MOL0     C37694   0.330   7.635   7.885 -0.4095 -0.0223  0.0066
  280MOL0     C37695   0.353   7.630   8.035  0.2815 -0.5658 -0.3114
  280MOL0     O37696   0.335   7.740   8.113  0.1480  0.4387 -0.1896
  280MOL0     C37697   0.402   7.732   8.221 -0.3195 -0.9848 -0.3928
  280MOL0     C37698   0.337   7.688   8.339 -0.4554 -0.2635 -0.9842
  280MOL0     C37699   0.391   7.699   8.464 -1.1267  0.5157  0.1918
  280MOL0     C37700   0.517   7.754   8.482 -0.2738  0.1472 -0.3332
  280MOL0     O37701   0.570   7.761   8.607  0.0047 -0.0235 -0.1093
  280MOL0     C37702   0.529   7.655   8.701 -0.2345  0.6379 -0.4638
  280MOL0     C37703   0.649   7.640   8.792 -0.3061  0.0997 -0.3189
  280MOL0     C37704   0.678   7.769   8.884  0.1998 -0.2789  0.2524
  280MOL0     C37705   0.582   7.784   9.008 -0.6123  0.1986 -0.2871
  280MOL0     C37706   0.631   7.918   9.075  0.4492 -0.2093  0.5111
  280MOL0     C37707   0.530   7.969   9.179 -0.1949 -0.1031  0.7806
  280MOL0     C37708   0.571   8.096   9.259 -0.2088  0.8519  0.4880
  280MOL0     C37709   0.545   8.217   9.173  0.4317 -0.1684  0.1133
  280MOL0    Cl37710   0.381   8.224   9.109  0.5480  0.6257  0.6686
  280MOL0     C37711   0.573   7.816   8.374 -0.0524 -0.0645 -0.3438
  280MOL0     C37712   0.523   7.802   8.244 -0.2467  0.2262  1.1098
  280MOL0     O37713   0.375   7.522   8.073 -0.4080  0.4043 -0.6763
  280MOL0     C37714   0.320   7.511   7.810  0.3919  0.1137  0.2549
  280MOL0     C37715   0.305   7.510   7.673 -0.2274  0.0798  0.8192
  280MOL0     N37716   0.678   7.151   7.135  0.3271  0.7837  0.6729
  280MOL0     N37717   0.701   7.144   7.007 -0.1005 -0.1587 -0.5227
  280MOL0     C37718   1.460   7.807   6.038 -0.1093  0.2295  0.7329
  280MOL0     C37719   1.599   7.794   6.002 -1.0007  0.1299  0.4018
  280MOL0     C37720   1.994   7.612   5.969 -0.3231  0.6336  0.5711
  280MOL0     C37721   2.100   7.703   5.992 -0.4966  0.2945  0.5260
  280MOL0     C37722   2.239   7.669   5.988  0.4647  0.1661  0.1482
  280MOL0     C37723   2.277   7.540   5.964 -0.0369  0.1051 -0.3623
  280MOL0     O37724   2.401   7.489   5.955  0.6873  0.7816 -0.8460
  280MOL0     C37725   2.514   7.570   5.984 -0.1348 -0.8210  0.0669
  280MOL0     C37726   2.642   7.488   5.997  0.8494  0.3405 -0.3699
  280MOL0     C37727   2.651   7.425   6.133 -0.0756  0.1813  0.1967
  280MOL0     C37728   2.728   7.503   6.240  0.3542  0.1831  0.0678
  280MOL0     C37729   2.721   7.431   6.358  0.5364 -0.4560 -0.6253
  280MOL0     C37730   2.723   7.372   6.465 -0.1506 -0.4372  0.0056
  280MOL0     C37731   2.175   7.444   5.959  0.5351  0.1882  0.2564
  280MOL0     C37732   2.041   7.480   5.953  0.7984 -0.7102  0.3854
  280MOL0     H37733   1.717   7.656   6.275 -1.5575 -0.7155  2.5693
  280MOL0     H37734   1.485   7.682   6.345 -1.1496 -0.1651 -1.0553
  280MOL0     H37735   1.253   7.646   6.337  1.0314  0.3921 -4.2792
  280MOL0     H37736   1.317   7.800   6.408 -5.0024  3.3505  3.1477
  280MOL0     H37737   1.106   7.916   6.346  0.7739 -0.8122 -0.5388
  280MOL0     H37738   1.047   7.770   6.277  2.5462 -2.0198 -1.6986
  280MOL0     H37739   1.135   7.781   6.574 -1.6849  3.1258  1.4872
  280MOL0     H37740   0.980   7.847   6.540  0.7092  1.5700 -1.4118
  280MOL0     H37741   0.889   7.635   6.466  1.0868  0.5198 -1.2847
  280MOL0     H37742   1.036   7.550   6.471 -1.9461 -1.6000  2.2839
  280MOL0     H37743   1.049   7.578   6.733 -0.6388 -2.3022  0.4260
  280MOL0     H37744   0.907   7.683   6.721 -0.0801  2.9502 -2.0963
  280MOL0     H37745   0.776   7.498   6.621 -0.5768  3.9225  1.8072
  280MOL0     H37746   0.921   7.394   6.641  0.6621 -0.0446  0.5968
  280MOL0     H37747   0.919   7.410   6.873  1.4259  0.3693 -0.6908
  280MOL0     H37748   0.786   7.522   6.874  0.9927 -0.7495  0.6505
  280MOL0     H37749   0.755   7.226   6.773  0.2111  0.7726 -2.2802
  280MOL0     H37750   0.633   7.350   6.781  1.2616  1.6249 -1.2719
  280MOL0     H37751   0.668   7.466   7.051  1.3318 -0.1012  1.1827
  280MOL0     H37752   0.607   7.239   7.364  0.3384 -0.4251 -0.9892
  280MOL0     H37753   0.676   7.411   7.338  0.1997  0.5977 -0.2136
  280MOL0     H37754   0.414   7.285   7.286  0.7135 -1.0867 -1.0094
  280MOL0     H37755   0.451   7.424   7.191 -0.3675  2.6212  0.4782
  280MOL0     H37756   0.515   7.555   7.385  0.0212 -1.7375  1.9022
  280MOL0     H37757   0.444   7.423   7.493 -1.4210  1.1987  2.0673
  280MOL0     H37758   0.218   7.464   7.383 -0.9865  2.2541  0.5162
  280MOL0     H37759   0.297   7.575   7.271  0.0069 -0.7139 -0.3644
  280MOL0     H37760   0.288   7.834   7.615  1.0555  0.0232 -0.2113
  280MOL0     H37761   0.296   7.963   7.787  0.2189 -1.0330 -0.8210
  280MOL0     H37762   0.220   7.907   7.932 -0.4779  1.4898 -2.1356
  280MOL0     H37763   0.391   7.919   7.940  2.2712 -1.6202 -1.1675
  280MOL0     H37764   0.243   7.636   8.328 -0.2912 -1.2808  1.6414
  280MOL0     H37765   0.324   7.647   8.533  0.7091 -0.1583  1.5691
  280MOL0     H37766   0.434   7.684   8.746 -0.2823 -0.7834  0.4048
  280MOL0     H37767   0.518   7.563   8.644 -0.4526  0.6322 -0.4129
  280MOL0     H37768   0.640   7.546   8.846 -1.1383 -0.1355 -0.8570
  280MOL0     H37769   0.738   7.616   8.734 -0.6476  0.9409 -1.2173
  280MOL0     H37770   0.683   7.858   8.821  0.7178  1.4302  2.5891
  280MOL0     H37771   0.780   7.756   8.922  0.2034 -0.4851  0.1765
  280MOL0     H37772   0.484   7.798   8.961  0.2124  0.8606 -1.9068
  280MOL0     H37773   0.579   7.696   9.073  1.2502 -0.0561 -0.4770
  280MOL0     H37774   0.634   7.998   9.001  2.9940 -0.5489  0.1671
  280MOL0     H37775   0.731   7.895   9.113  0.3788 -0.4055  0.5783
  280MOL0     H37776   0.430   7.982   9.137 -1.4330  0.4511  3.6976
  280MOL0     H37777   0.530   7.889   9.253  1.5550 -1.3180 -0.4469
  280MOL0     H37778   0.679   8.103   9.278  0.6872  0.2258 -3.5629
  280MOL0     H37779   0.507   8.102   9.347 -0.3926  2.2128  0.2948
  280MOL0     H37780   0.592   8.220   9.074 -3.9111 -1.0495 -2.2273
  280MOL0     H37781   0.570   8.311   9.221 -0.9254  0.0441  0.4473
  280MOL0     H37782   0.650   7.892   8.382  1.8320 -1.8089 -1.1594
  280MOL0     H37783   0.575   7.847   8.161  0.2104  1.3962  2.0102
  280MOL0     H37784   0.301   7.419   7.865 -0.1188  0.0374 -0.0392
  280MOL0     H37785   0.302   7.417   7.618 -0.2915  1.9262 -2.6028
  280MOL0     H37786   1.386   7.837   5.964 -1.8239  0.5278  2.4917
  280MOL0     H37787   1.643   7.812   5.904 -3.1256 -2.0391 -1.0862
  280MOL0     H37788   2.079   7.806   6.019  1.7715  0.9377 -0.0138
  280MOL0     H37789   2.317   7.740   6.013  0.5890  0.6437 -1.5119
  280MOL0     H37790   2.517   7.637   5.898 -0.6341 -1.9915 -0.8933
  280MOL0     H37791   2.489   7.630   6.072 -1.1512 -1.8582  0.5048
  280MOL0     H37792   2.729   7.555   5.984  0.0907  2.1024  2.6476
  280MOL0     H37793   2.638   7.408   5.923  2.0614 -2.5775  2.4609
  280MOL0     H37794   2.708   7.333   6.121  0.8403  0.9590 -1.9757
  280MOL0     H37795   2.550   7.405   6.169 -0.2200 -1.9627 -1.1920
  280MOL0     H37796   2.687   7.603   6.253 -1.2301 -0.2815 -0.9459
  280MOL0     H37797   2.834   7.511   6.216  1.2364 -2.2397  2.6342
  280MOL0     H37798   2.724   7.334   6.565  3.9781 -0.0387  0.2899
  280MOL0     H37799   2.197   7.338   5.945 -0.6822 -0.3138  1.8518
  280MOL0     H37800   1.962   7.408   5.935  0.3237 -0.0459 -0.2414
  281MOL0     O37801   6.688   7.777   8.980 -0.5485  0.0878  0.3469
  281MOL0     C37802   6.811   7.773   8.962  0.0185 -0.6081  0.4257
  281MOL0     O37803   6.866   7.776   8.838 -0.5138  0.0665  0.5907
  281MOL0     C37804   6.787   7.763   8.725  0.1551  0.0715 -0.7875
  281MOL0     C37805   6.820   7.837   8.616  0.1035 -0.3061  0.2909
  281MOL0     C37806   6.735   7.845   8.504 -0.6061 -0.2763 -0.1958
  281MOL0     C37807   6.619   7.776   8.494 -0.2331  0.8058  0.2197
  281MOL0     O37808   6.524   7.788   8.398  0.8231 -0.1986  0.2170
  281MOL0     C37809   6.546   7.891   8.299  0.0040  0.2577  0.1292
  281MOL0     C37810   6.458   7.868   8.181 -0.5456  0.5997 -0.2858
  281MOL0     C37811   6.318   7.837   8.221  0.2981 -0.4252 -0.2080
  281MOL0     C37812   6.231   7.824   8.091  0.2502  0.4003  0.1235
  281MOL0     C37813   6.095   7.746   8.112  0.7154  0.3301  0.0955
  281MOL0     C37814   6.029   7.707   7.974  0.3644 -0.1882  0.2550
  281MOL0     C37815   6.095   7.571   7.928 -0.5438  0.1090 -1.2206
  281MOL0     C37816   6.049   7.520   7.799 -0.2366 -0.1033  0.3250
  281MOL0     N37817   5.912   7.505   7.787  0.2301 -0.4879  0.2609
  281MOL0     C37818   5.847   7.613   7.737 -0.2949  0.1347 -0.3671
  281MOL0     C37819   5.722   7.567   7.733  0.7328 -0.5755  0.2823
  281MOL0     C37820   5.608   7.651   7.690  0.5170 -0.4303 -0.1179
  281MOL0     C37821   5.499   7.586   7.621  0.3281  0.2202  0.1243
  281MOL0     C37822   5.393   7.682   7.559  0.4157  0.4910  1.2302
  281MOL0     C37823   5.447   7.797   7.476  0.1189 -0.4396  0.2377
  281MOL0     O37824   5.516   7.755   7.352  0.2173 -0.2849 -0.4434
  281MOL0     C37825   5.634   7.815   7.305  0.1353  0.2981  1.0141
  281MOL0     C37826   5.713   7.911   7.370  1.0038 -0.3120  0.3002
  281MOL0     C37827   5.828   7.965   7.321 -0.1717  0.5035  0.0843
  281MOL0     C37828   5.912   8.047   7.417 -0.0281  0.6674  1.0481
  281MOL0     C37829   5.883   7.914   7.197 -0.3546  0.0224 -0.0066
  281MOL0     C37830   6.019   7.940   7.148 -0.9769  0.4781 -1.1732
  281MOL0     O37831   6.090   7.828   7.136 -0.1774 -0.2291  0.5165
  281MOL0     C37832   6.217   7.823   7.086 -1.0141 -0.0258 -0.5177
  281MOL0     C37833   6.328   7.844   7.170 -0.4193 -1.5490 -0.2622
  281MOL0     C37834   6.460   7.845   7.117 -0.9554  0.0313  0.3110
  281MOL0     C37835   6.478   7.838   6.975 -0.1322 -0.0260  0.6592
  281MOL0     O37836   6.608   7.859   6.926 -0.2699 -0.1286 -0.3251
  281MOL0     C37837   6.622   7.953   6.822 -0.2691  0.7054  0.1774
  281MOL0     C37838   6.778   7.967   6.798  0.6178 -0.7656 -0.6422
  281MOL0     C37839   6.827   7.842   6.726 -0.6495  0.1104  0.2339
  281MOL0     C37840   6.982   7.844   6.716  0.2517 -0.9479  0.4221
  281MOL0     C37841   7.019   7.696   6.676 -0.0680 -1.0875 -0.0340
  281MOL0     C37842   7.158   7.676   6.611  0.8279  0.7001 -0.7143
  281MOL0     C37843   7.201   7.526   6.587  0.7086  0.0781  0.0610
  281MOL0     C37844   7.134   7.457   6.470  0.3416 -0.0785 -0.5113
  281MOL0    Cl37845   6.969   7.412   6.493  0.4395 -0.3720 -0.2040
  281MOL0     C37846   6.365   7.822   6.892  1.2921 -0.0865  0.3987
  281MOL0     C37847   6.233   7.810   6.946  0.2493 -0.2802 -0.9683
  281MOL0     O37848   6.053   8.052   7.114  0.0299 -0.5331 -0.0155
  281MOL0     C37849   5.802   7.817   7.132 -0.2825 -0.8185  0.0187
  281MOL0     C37850   5.674   7.772   7.181  0.0532  0.0919 -0.0736
  281MOL0     N37851   5.713   7.429   7.765  0.4715  0.2239 -0.6932
  281MOL0     N37852   5.828   7.395   7.804 -0.5449 -0.2534  0.4376
  281MOL0     C37853   6.597   7.680   8.598 -0.2759  0.4481 -0.0498
  281MOL0     C37854   6.680   7.671   8.715  0.4971  0.2536  0.9572
  281MOL0     C37855   6.902   7.786   9.080  0.1641 -0.4230  0.1431
  281MOL0     C37856   7.041   7.781   9.065  0.9275  0.6993 -0.1610
  281MOL0     C37857   7.123   7.775   9.177 -1.1133  0.9592  0.0785
  281MOL0     C37858   7.080   7.791   9.306 -0.5194 -0.2885  0.5116
  281MOL0     O37859   7.170   7.776   9.402 -0.0358 -0.2457 -0.1313
  281MOL0     C37860   7.140   7.842   9.527  0.3931  0.3064  0.0456
  281MOL0     C37861   7.109   7.736   9.636 -0.1484  1.1268 -0.5782
  281MOL0     C37862   7.211   7.619   9.655 -0.2005  0.2740 -0.0872
  281MOL0     C37863   7.347   7.666   9.679 -0.4300 -0.2425  0.1628
  281MOL0     C37864   7.346   7.758   9.794 -0.1231  0.8938  0.1893
  281MOL0     C37865   7.342   7.833   9.887  0.1027 -0.4059 -0.6741
  281MOL0     C37866   6.940   7.804   9.321  0.3460 -0.0391  0.0772
  281MOL0     C37867   6.850   7.808   9.209  1.6083  0.0269  0.1846
  281MOL0     H37868   6.910   7.898   8.616 -0.3760  0.5179 -2.5736
  281MOL0     H37869   6.768   7.927   8.440  1.3351 -2.2249 -1.8469
  281MOL0     H37870   6.535   7.993   8.337  1.5300  0.2523  0.6538
  281MOL0     H37871   6.648   7.903   8.262  0.5447  1.4154  1.9096
  281MOL0     H37872   6.475   7.955   8.117  0.7863  0.6533  0.0953
  281MOL0     H37873   6.499   7.774   8.142  0.4523  0.2568  1.4558
  281MOL0     H37874   6.306   7.750   8.288  0.5850  0.1712  0.6347
  281MOL0     H37875   6.274   7.924   8.272 -1.4060 -0.6758 -1.1714
  281MOL0     H37876   6.216   7.926   8.055  0.6707  0.0190 -1.1722
  281MOL0     H37877   6.285   7.778   8.008 -2.0900 -0.5811 -0.9532
  281MOL0     H37878   6.115   7.664   8.181  5.0653  0.0526 -1.1726
  281MOL0     H37879   6.025   7.812   8.164 -1.1305 -0.1743 -1.6495
  281MOL0     H37880   5.921   7.689   7.973  0.4227 -1.0902 -3.1005
  281MOL0     H37881   6.042   7.792   7.906  0.0857 -0.6105 -0.3306
  281MOL0     H37882   6.203   7.574   7.940 -0.8534  0.4046  3.0855
  281MOL0     H37883   6.074   7.501   8.010  1.5540  0.6066 -0.2077
  281MOL0     H37884   6.096   7.424   7.775 -1.2260 -0.1625 -1.5382
  281MOL0     H37885   6.105   7.578   7.725  2.3037 -1.6760  0.8745
  281MOL0     H37886   5.867   7.719   7.723  1.0199 -0.2248 -1.3754
  281MOL0     H37887   5.570   7.692   7.785  0.2401 -2.5843  0.7618
  281MOL0     H37888   5.651   7.724   7.621  1.6500 -2.3474 -1.5123
  281MOL0     H37889   5.445   7.508   7.676  0.3112 -1.2155 -1.8543
  281MOL0     H37890   5.537   7.531   7.535  0.6476  0.9955 -0.2418
  281MOL0     H37891   5.329   7.734   7.631  0.6286  1.7860  0.5262
  281MOL0     H37892   5.317   7.622   7.508  1.0364 -1.0722  2.0952
  281MOL0     H37893   5.504   7.864   7.541  0.7790 -0.7093 -0.0446
  281MOL0     H37894   5.369   7.862   7.436  1.7417  1.4792 -0.0191
  281MOL0     H37895   5.684   7.943   7.469  0.0932 -0.9336  0.2465
  281MOL0     H37896   5.950   8.132   7.360 -0.9212  0.8091  0.6556
  281MOL0     H37897   5.853   8.092   7.497 -2.8047 -2.6213  1.0809
  281MOL0     H37898   5.994   7.987   7.459 -0.1418  1.4099  2.3912
  281MOL0     H37899   6.309   7.872   7.273 -1.2380 -3.0099  0.0036
  281MOL0     H37900   6.541   7.867   7.185 -0.9281  2.7158 -0.4742
  281MOL0     H37901   6.558   7.909   6.744  1.2478 -1.5281  0.1088
  281MOL0     H37902   6.586   8.047   6.866  2.2119  0.6144  2.6625
  281MOL0     H37903   6.794   8.060   6.743  1.2840  0.1965  1.0751
  281MOL0     H37904   6.831   7.975   6.894 -1.5735 -0.2444  0.6106
  281MOL0     H37905   6.780   7.832   6.627 -0.1290  0.5951 -0.0698
  281MOL0     H37906   6.801   7.756   6.788  1.3189 -1.5224 -1.0585
  281MOL0     H37907   7.011   7.917   6.640  1.5841 -1.0770  0.7836
  281MOL0     H37908   7.035   7.870   6.808  0.5261 -1.0412  0.2920
  281MOL0     H37909   6.946   7.648   6.610 -0.4841  1.7409 -1.8239
  281MOL0     H37910   7.003   7.639   6.768 -5.9620  0.9527  0.7058
  281MOL0     H37911   7.155   7.731   6.517 -0.2630  0.1385 -1.0193
  281MOL0     H37912   7.239   7.710   6.676  0.0963  2.9959 -0.9441
  281MOL0     H37913   7.189   7.466   6.677  1.6837  0.0963  0.2040
  281MOL0     H37914   7.307   7.509   6.568  0.4915 -0.6505 -0.5763
  281MOL0     H37915   7.185   7.361   6.467 -2.9803 -2.1144  1.3150
  281MOL0     H37916   7.147   7.505   6.372  3.0655 -2.5330 -1.4803
  281MOL0     H37917   6.370   7.823   6.784  1.3801 -0.0807  0.4029
  281MOL0     H37918   6.138   7.812   6.893  0.2146 -1.0350 -0.9510
  281MOL0     H37919   5.839   7.763   7.045  0.4853  1.7547 -1.4015
  281MOL0     H37920   5.625   7.693   7.125  3.2172 -0.3776 -2.4785
  281MOL0     H37921   6.504   7.624   8.602 -0.9248  1.5373  2.8557
  281MOL0     H37922   6.661   7.609   8.803  2.8306 -0.0114  1.3352
  281MOL0     H37923   7.091   7.788   8.968 -1.3610  1.9751 -1.3281
  281MOL0     H37924   7.225   7.745   9.156 -1.7932 -0.9558 -0.7552
  281MOL0     H37925   7.221   7.910   9.554 -2.4023  3.1669  1.8871
  281MOL0     H37926   7.051   7.905   9.529 -0.8486 -1.3713  0.1610
  281MOL0     H37927   7.013   7.687   9.616 -0.0895  0.8292 -0.1358
  281MOL0     H37928   7.094   7.791   9.730 -1.5281 -2.2498  1.3329
  281MOL0     H37929   7.211   7.566   9.559 -0.8973 -0.2099  0.1704
  281MOL0     H37930   7.181   7.548   9.733 -2.4437  0.9246 -0.3042
  281MOL0     H37931   7.390   7.720   9.594  2.6253  0.5893  2.0856
  281MOL0     H37932   7.416   7.586   9.710 -1.6336 -0.7508  1.6645
  281MOL0     H37933   7.330   7.890   9.977 -2.1067 -1.2719 -0.3349
  281MOL0     H37934   6.891   7.828   9.415 -0.9845  0.6291 -0.7519
  281MOL0     H37935   6.744   7.829   9.219  1.6143 -0.9768  3.2385
  282MOL0     O37936   2.718   4.042   3.470  0.0971 -0.0940  0.1638
  282MOL0     C37937   2.686   4.044   3.589  0.4913  0.0190  0.5098
  282MOL0     O37938   2.591   3.969   3.637  1.0618  0.8446  0.5751
  282MOL0     C37939   2.518   3.887   3.554  1.2228 -0.6794  0.6489
  282MOL0     C37940   2.500   3.749   3.574  0.0270 -0.7774 -0.0647
  282MOL0     C37941   2.421   3.670   3.490 -0.2576  0.1321  1.0668
  282MOL0     C37942   2.352   3.731   3.382  0.2972 -0.8136  0.0187
  282MOL0     O37943   2.280   3.657   3.290  0.0774 -0.1944 -0.3616
  282MOL0     C37944   2.220   3.535   3.321  0.1235 -0.7067  0.0215
  282MOL0     C37945   2.100   3.501   3.237  0.0447 -0.2395 -0.4210
  282MOL0     C37946   2.068   3.344   3.237 -0.7209 -0.5605  0.5732
  282MOL0     C37947   1.964   3.334   3.126  0.2344  0.6032  0.4805
  282MOL0     C37948   1.910   3.190   3.105 -0.8430  0.1164 -0.1392
  282MOL0     C37949   1.805   3.203   2.998  0.0501  0.7415 -0.5144
  282MOL0     C37950   1.747   3.060   2.968  0.8926  0.6834  0.6268
  282MOL0     C37951   1.638   3.055   2.862  1.2368 -0.1495 -0.4200
  282MOL0     N37952   1.661   3.126   2.736  1.1085 -0.3725  0.6668
  282MOL0     C37953   1.780   3.121   2.665  0.0561 -0.1390  0.3933
  282MOL0     C37954   1.758   3.181   2.549  0.0546  0.3517 -0.0800
  282MOL0     C37955   1.842   3.225   2.438 -0.8297  0.9108  0.5839
  282MOL0     C37956   1.946   3.339   2.489  1.2059 -0.3105  0.6979
  282MOL0     C37957   2.029   3.410   2.374 -0.1336  0.1810 -0.4701
  282MOL0     C37958   1.944   3.487   2.270  0.1957  0.2852  0.3423
  282MOL0     O37959   1.889   3.596   2.345 -0.4702  0.1514  0.3271
  282MOL0     C37960   1.806   3.693   2.283 -0.3985  0.2018  0.2469
  282MOL0     C37961   1.727   3.767   2.368 -0.3089  1.0014 -0.4509
  282MOL0     C37962   1.662   3.883   2.326  0.5541 -0.4736  0.1709
  282MOL0     C37963   1.589   3.961   2.434  0.5028  0.3508  0.2880
  282MOL0     C37964   1.648   3.911   2.187 -0.7664 -0.4210 -0.6743
  282MOL0     C37965   1.575   4.029   2.128  0.6620 -0.1973 -0.4697
  282MOL0     O37966   1.605   4.057   1.997 -0.3425 -0.0016 -0.2798
  282MOL0     C37967   1.528   4.152   1.936 -0.5246  0.4275  0.2323
  282MOL0     C37968   1.578   4.276   1.890 -0.2302  0.2551 -0.9842
  282MOL0     C37969   1.496   4.374   1.829 -0.0956  0.4382  0.5506
  282MOL0     C37970   1.357   4.351   1.815 -0.3854 -0.0618 -0.5403
  282MOL0     O37971   1.266   4.431   1.765  0.0861 -0.1031  0.4356
  282MOL0     C37972   1.303   4.541   1.676  0.7651  0.5126 -0.0492
  282MOL0     C37973   1.168   4.604   1.629  0.7472  0.3638  0.0011
  282MOL0     C37974   1.093   4.676   1.747 -0.2755 -1.0217  0.2323
  282MOL0     C37975   0.962   4.728   1.689  0.7839 -0.2715  0.3455
  282MOL0     C37976   0.883   4.833   1.772 -0.1594  0.3896  0.0312
  282MOL0     C37977   0.738   4.852   1.717  0.4967  0.8093  0.8841
  282MOL0     C37978   0.730   4.927   1.580  0.5916  0.6036  0.6483
  282MOL0     C37979   0.809   5.063   1.573 -0.2118  0.5176 -0.3430
  282MOL0    Cl37980   0.749   5.168   1.712  0.5109  0.4526 -0.1708
  282MOL0     C37981   1.303   4.226   1.865 -0.2727  0.3746  0.3727
  282MOL0     C37982   1.391   4.131   1.922  0.7484 -0.1012 -0.3697
  282MOL0     O37983   1.512   4.115   2.201  0.7667  0.2403  0.6273
  282MOL0     C37984   1.713   3.817   2.102  0.0586  0.2268  0.2054
  282MOL0     C37985   1.792   3.709   2.147  0.2460 -0.4540  0.8134
  282MOL0     N37986   1.624   3.220   2.540 -0.3966  0.1201  0.5375
  282MOL0     N37987   1.567   3.181   2.650  0.0409 -0.0820 -0.5211
  282MOL0     C37988   2.359   3.872   3.364  0.8627  0.0065  0.7682
  282MOL0     C37989   2.441   3.948   3.451 -0.9029  0.2305  0.1804
  282MOL0     C37990   2.775   4.127   3.679  0.5795 -0.3693 -0.5151
  282MOL0     C37991   2.885   4.193   3.632  0.2605 -0.9573 -0.0473
  282MOL0     C37992   2.956   4.293   3.699 -0.0446 -0.8864 -0.7257
  282MOL0     C37993   2.917   4.321   3.830  1.1328 -0.6048  0.5945
  282MOL0     O37994   2.990   4.398   3.912  0.2226 -0.0356  0.1741
  282MOL0     C37995   3.120   4.431   3.894  0.0993 -0.2874 -0.3714
  282MOL0     C37996   3.202   4.469   4.021  0.1934 -0.3469 -0.7034
  282MOL0     C37997   3.122   4.585   4.074  0.0772 -0.0001 -0.0812
  282MOL0     C37998   3.200   4.664   4.186  0.3408 -0.2845  0.1464
  282MOL0     C37999   3.224   4.581   4.305  1.5372 -0.6940  0.7550
  282MOL0     C38000   3.236   4.504   4.392  0.3711  0.4761  1.1049
  282MOL0     C38001   2.811   4.248   3.889  1.0177  0.2433 -1.0172
  282MOL0     C38002   2.734   4.151   3.814  0.0541 -0.2573  0.2398
  282MOL0     H38003   2.560   3.705   3.653  1.0051  0.5464 -0.0293
  282MOL0     H38004   2.411   3.562   3.492  1.1095 -0.0276  0.4259
  282MOL0     H38005   2.298   3.460   3.308  0.8882  0.0525  0.0879
  282MOL0     H38006   2.184   3.542   3.424 -0.7309 -1.2253 -0.2257
  282MOL0     H38007   2.019   3.563   3.277 -2.3615 -2.6072 -1.3673
  282MOL0     H38008   2.119   3.540   3.136  0.4787  1.4760  0.2896
  282MOL0     H38009   2.165   3.296   3.221 -0.2061  0.3920  0.7217
  282MOL0     H38010   2.020   3.309   3.328  0.4181  1.7453  2.1594
  282MOL0     H38011   1.876   3.393   3.154 -0.4210 -1.1023  2.2724
  282MOL0     H38012   1.999   3.380   3.033  0.4145 -2.7642 -1.2938
  282MOL0     H38013   1.996   3.127   3.079 -1.6695 -1.1731  0.2094
  282MOL0     H38014   1.867   3.153   3.198  2.3280  1.6307  2.1349
  282MOL0     H38015   1.726   3.264   3.043 -0.4586  0.4163 -0.9583
  282MOL0     H38016   1.844   3.244   2.905 -1.9968 -1.3159 -2.3920
  282MOL0     H38017   1.832   2.995   2.944  1.9834  1.0884  3.0351
  282MOL0     H38018   1.714   3.004   3.057  1.0128 -0.3329  0.0416
  282MOL0     H38019   1.547   3.108   2.893  0.4254 -1.2693 -0.8424
  282MOL0     H38020   1.614   2.951   2.841 -1.0180  0.4133 -0.9230
  282MOL0     H38021   1.880   3.095   2.696  0.8575 -0.9361 -2.5353
  282MOL0     H38022   1.885   3.133   2.396 -3.1994  0.3731 -0.8746
  282MOL0     H38023   1.776   3.262   2.359 -1.7416 -1.8636 -0.0929
  282MOL0     H38024   2.005   3.281   2.560 -1.2279 -0.8696  2.4145
  282MOL0     H38025   1.884   3.414   2.539  0.3241  1.3326 -2.5391
  282MOL0     H38026   2.092   3.335   2.323  3.4741  0.6451  2.8395
  282MOL0     H38027   2.095   3.487   2.415  2.8283 -2.9666  1.2768
  282MOL0     H38028   1.862   3.436   2.221  0.4965  1.7024 -1.7711
  282MOL0     H38029   2.019   3.522   2.198 -0.2924 -0.5923 -0.6131
  282MOL0     H38030   1.725   3.731   2.470 -0.4944 -2.0381 -1.4356
  282MOL0     H38031   1.622   4.063   2.413 -1.8450  1.0910 -0.0963
  282MOL0     H38032   1.481   3.949   2.420  0.6208  0.2912 -0.6842
  282MOL0     H38033   1.625   3.947   2.536 -0.7614  0.8670  0.8319
  282MOL0     H38034   1.685   4.295   1.899  0.1323 -2.0017  0.0702
  282MOL0     H38035   1.531   4.468   1.788  3.8696 -0.3351  1.7369
  282MOL0     H38036   1.359   4.614   1.735 -1.2465  0.5178  2.0073
  282MOL0     H38037   1.351   4.500   1.587 -5.0787 -0.1427 -3.4181
  282MOL0     H38038   1.177   4.668   1.541  1.7772 -0.9199 -0.8582
  282MOL0     H38039   1.108   4.521   1.590  0.2116  0.6302  0.2437
  282MOL0     H38040   1.159   4.761   1.762  1.1490 -2.2441  1.2293
  282MOL0     H38041   1.095   4.624   1.844  0.3253 -1.1032  0.1763
  282MOL0     H38042   0.967   4.769   1.588  0.3983 -2.5796 -0.6719
  282MOL0     H38043   0.908   4.634   1.671 -0.2093  0.1368  1.0981
  282MOL0     H38044   0.938   4.927   1.769  0.6111 -0.0871 -1.8218
  282MOL0     H38045   0.882   4.804   1.878  0.2095  0.6776  0.1147
  282MOL0     H38046   0.697   4.753   1.695  2.2539  0.6935 -2.6736
  282MOL0     H38047   0.673   4.893   1.795 -1.1062 -0.1964  0.1186
  282MOL0     H38048   0.628   4.946   1.546  0.6952 -0.3559 -0.2350
  282MOL0     H38049   0.765   4.852   1.508 -1.2468  0.3669 -0.0530
  282MOL0     H38050   0.798   5.109   1.474  1.5715 -1.2882 -1.4600
  282MOL0     H38051   0.911   5.032   1.594  0.0117  0.8822 -0.8631
  282MOL0     H38052   1.200   4.192   1.856  0.3623 -1.4192 -0.5608
  282MOL0     H38053   1.350   4.036   1.955 -0.6373  0.8958  0.9397
  282MOL0     H38054   1.701   3.830   1.995  2.1477 -0.3908 -0.1489
  282MOL0     H38055   1.845   3.646   2.077 -1.3720  2.1180 -3.0468
  282MOL0     H38056   2.304   3.920   3.283  2.8185  1.3795  0.1824
  282MOL0     H38057   2.449   4.056   3.444 -0.3965  0.1967  0.2300
  282MOL0     H38058   2.915   4.173   3.529 -0.5645 -0.7034 -0.3392
  282MOL0     H38059   3.038   4.338   3.645 -1.3695 -2.1048 -3.9837
  282MOL0     H38060   3.173   4.347   3.847  0.3294 -0.4843  0.2261
  282MOL0     H38061   3.131   4.518   3.829 -0.4185  0.8755  1.0481
  282MOL0     H38062   3.303   4.497   3.990  1.6739 -2.5777  1.6711
  282MOL0     H38063   3.222   4.383   4.086  1.6067 -2.1135 -3.2781
  282MOL0     H38064   3.033   4.552   4.130 -0.1014  0.5695 -0.0258
  282MOL0     H38065   3.096   4.666   4.005  2.7868  1.8754  0.9653
  282MOL0     H38066   3.134   4.746   4.216  0.8204 -0.4763  1.8544
  282MOL0     H38067   3.296   4.696   4.143 -0.6943 -1.5920 -3.4374
  282MOL0     H38068   3.240   4.427   4.467 -0.7808  1.6133  2.3829
  282MOL0     H38069   2.792   4.259   3.996  2.8215 -1.1311 -0.5118
  282MOL0     H38070   2.658   4.087   3.857  0.2133 -2.2308 -2.1618
  283MOL0     O38071   7.873   2.602   3.503 -0.5117  0.2147  0.2558
  283MOL0     C38072   7.826   2.538   3.588  0.3655 -0.2373  0.4816
  283MOL0     O38073   7.698   2.498   3.599 -0.1130  1.0496  0.6346
  283MOL0     C38074   7.597   2.509   3.506 -0.7928  0.2674 -0.8858
  283MOL0     C38075   7.475   2.559   3.559  0.5225  1.0844 -0.6348
  283MOL0     C38076   7.369   2.597   3.478  1.1544  0.5321  1.0650
  283MOL0     C38077   7.380   2.578   3.341  0.6497  1.3407  0.5235
  283MOL0     O38078   7.270   2.614   3.269  0.5066  0.2879  0.1781
  283MOL0     C38079   7.275   2.618   3.129  0.0841  1.2791  0.0260
  283MOL0     C38080   7.141   2.680   3.079 -0.5923 -0.4847 -0.1941
  283MOL0     C38081   7.008   2.602   3.117  0.1485 -1.0447  0.4248
  283MOL0     C38082   6.962   2.639   3.258 -0.3716  0.2078 -0.4231
  283MOL0     C38083   6.837   2.573   3.285  0.6706  0.5257  0.0236
  283MOL0     C38084   6.762   2.650   3.405 -1.4240 -0.4810  0.2590
  283MOL0     C38085   6.715   2.776   3.356  0.2402  0.2676 -0.4251
  283MOL0     C38086   6.627   2.852   3.460 -0.3342 -0.0176 -1.5307
  283MOL0     N38087   6.566   2.978   3.402 -0.1712 -0.0645 -1.0627
  283MOL0     C38088   6.429   3.004   3.392  0.0066  0.4896 -0.9101
  283MOL0     C38089   6.422   3.141   3.365 -0.5528  0.5507  0.1496
  283MOL0     C38090   6.294   3.218   3.380  0.0135 -1.2306 -0.4187
  283MOL0     C38091   6.236   3.258   3.239  0.8234 -0.0351 -0.8524
  283MOL0     C38092   6.328   3.315   3.137  0.5181 -0.0513 -0.5888
  283MOL0     C38093   6.308   3.261   2.994  0.2939  0.1914 -1.5252
  283MOL0     O38094   6.426   3.284   2.904  0.0165  0.0236  0.1253
  283MOL0     C38095   6.443   3.405   2.846 -0.4430 -0.1270 -0.2189
  283MOL0     C38096   6.569   3.429   2.791  0.0806 -0.7872 -0.1464
  283MOL0     C38097   6.600   3.534   2.698  0.1357 -0.1857  0.2923
  283MOL0     C38098   6.735   3.533   2.636  1.0839 -0.4351 -0.3040
  283MOL0     C38099   6.500   3.629   2.668  1.5613 -0.3209  0.9486
  283MOL0     C38100   6.517   3.748   2.577 -0.4431  0.5676  0.2086
  283MOL0     O38101   6.641   3.768   2.524  0.2741 -0.2600  0.0809
  283MOL0     C38102   6.656   3.871   2.443  0.1439 -0.1216 -0.6138
  283MOL0     C38103   6.682   3.998   2.486  0.1699  1.0499 -0.4029
  283MOL0     C38104   6.689   4.110   2.399  0.4329  0.5415  0.3454
  283MOL0     C38105   6.654   4.086   2.260  0.2285 -0.0565 -0.5971
  283MOL0     O38106   6.648   4.198   2.184  0.2810 -0.6301  0.1507
  283MOL0     C38107   6.531   4.213   2.101  0.0450 -0.3439  0.1944
  283MOL0     C38108   6.413   4.270   2.183 -0.1050  0.4372 -0.2895
  283MOL0     C38109   6.296   4.319   2.094 -0.0431 -0.2527  0.0774
  283MOL0     C38110   6.329   4.441   2.014 -0.0949 -0.6207 -0.4101
  283MOL0     C38111   6.213   4.493   1.926  0.0010  0.4642  0.6533
  283MOL0     C38112   6.251   4.625   1.867 -0.0379 -0.1613 -0.5908
  283MOL0     C38113   6.136   4.689   1.789  0.3909 -0.4170  0.1614
  283MOL0     C38114   6.010   4.719   1.875  0.5178  0.3890 -0.2801
  283MOL0    Cl38115   5.889   4.819   1.788 -0.1194  0.2090 -0.2047
  283MOL0     C38116   6.623   3.955   2.219 -0.4835  0.0740 -0.6238
  283MOL0     C38117   6.630   3.846   2.310  0.4748 -0.6559 -0.0279
  283MOL0     O38118   6.413   3.822   2.552 -0.0793 -0.1839  0.1551
  283MOL0     C38119   6.368   3.608   2.723  0.5029 -0.6115  0.0566
  283MOL0     C38120   6.340   3.494   2.805 -0.1252  0.2478 -0.1752
  283MOL0     N38121   6.560   3.185   3.362  0.9098  0.3626  0.0418
  283MOL0     N38122   6.640   3.090   3.390  0.3506 -0.3361 -0.6322
  283MOL0     C38123   7.500   2.513   3.286 -0.2353  0.5177 -0.0213
  283MOL0     C38124   7.605   2.472   3.375 -1.4673 -0.3452 -0.2514
  283MOL0     C38125   7.917   2.506   3.709 -0.7360 -0.4552  0.5950
  283MOL0     C38126   8.052   2.539   3.718  0.0477 -0.3063  1.3179
  283MOL0     C38127   8.129   2.506   3.834 -0.1260  0.0590  0.0957
  283MOL0     C38128   8.068   2.444   3.943  0.2476 -0.6198 -0.2350
  283MOL0     O38129   8.147   2.419   4.062 -0.1378  0.5029  0.3340
  283MOL0     C38130   8.123   2.292   4.119  0.2799  0.4974 -0.4330
  283MOL0     C38131   8.246   2.241   4.205  0.2071  1.2304 -0.6102
  283MOL0     C38132   8.373   2.195   4.136 -0.3291 -0.1341  0.4060
  283MOL0     C38133   8.474   2.154   4.243 -0.2773  0.2833  0.3580
  283MOL0     C38134   8.598   2.104   4.185 -0.0545  0.0345  0.5896
  283MOL0     C38135   8.704   2.071   4.123 -0.2395 -0.4731 -0.1604
  283MOL0     C38136   7.933   2.408   3.934 -1.7390 -0.9230 -0.7767
  283MOL0     C38137   7.862   2.436   3.816 -0.2765  0.4401 -0.8569
  283MOL0     H38138   7.475   2.570   3.667 -0.4994 -1.1640 -0.3570
  283MOL0     H38139   7.280   2.625   3.532 -1.5382 -2.5768 -1.3377
  283MOL0     H38140   7.359   2.677   3.091  1.7269 -1.2050 -0.4216
  283MOL0     H38141   7.283   2.519   3.083 -1.3794 -0.0655  2.4958
  283MOL0     H38142   7.152   2.781   3.120 -0.0986 -0.8782  0.6760
  283MOL0     H38143   7.147   2.702   2.972  3.0130  2.1947  0.3719
  283MOL0     H38144   6.923   2.622   3.050 -0.8338 -2.9254  1.0230
  283MOL0     H38145   7.030   2.495   3.112  1.0511 -0.8433  0.0400
  283MOL0     H38146   7.043   2.606   3.323  0.7596  0.8170 -1.4897
  283MOL0     H38147   6.968   2.746   3.277  1.1490 -0.0995  1.0544
  283MOL0     H38148   6.777   2.570   3.193  1.4829 -2.3695 -0.5191
  283MOL0     H38149   6.852   2.469   3.317 -1.4128  0.1759  0.0084
  283MOL0     H38150   6.678   2.589   3.439 -0.0378 -0.5921  3.8230
  283MOL0     H38151   6.836   2.673   3.482 -0.0878  3.6100 -1.9238
  283MOL0     H38152   6.795   2.848   3.338  0.0355  0.8138  0.7413
  283MOL0     H38153   6.652   2.761   3.267  0.5835 -1.4831 -0.4057
  283MOL0     H38154   6.701   2.881   3.535 -0.2744  0.7003 -1.8647
  283MOL0     H38155   6.557   2.793   3.519  0.5287 -1.3715 -1.8075
  283MOL0     H38156   6.349   2.936   3.420 -0.5417  0.2096 -2.9927
  283MOL0     H38157   6.219   3.162   3.437 -1.1358 -2.0077 -2.5777
  283MOL0     H38158   6.319   3.305   3.442 -2.4789 -1.0372  0.4151
  283MOL0     H38159   6.162   3.338   3.250 -0.2866 -1.0696 -0.5571
  283MOL0     H38160   6.176   3.174   3.200 -0.0052 -1.0294  2.2556
  283MOL0     H38161   6.432   3.295   3.166 -0.0462 -0.0130  1.6321
  283MOL0     H38162   6.323   3.424   3.135 -1.9147 -0.1198 -2.0052
  283MOL0     H38163   6.209   3.281   2.951 -1.4713 -3.8950  0.0922
  283MOL0     H38164   6.304   3.152   3.008 -1.2211  0.3839 -0.1342
  283MOL0     H38165   6.647   3.356   2.810  0.6119 -0.0675  0.5431
  283MOL0     H38166   6.746   3.573   2.535  2.8891 -0.1300 -0.0231
  283MOL0     H38167   6.808   3.580   2.703 -0.5766 -0.7852  1.8407
  283MOL0     H38168   6.760   3.427   2.625 -2.7131 -1.5053  0.2110
  283MOL0     H38169   6.713   4.008   2.590  3.0030 -2.4106 -0.7443
  283MOL0     H38170   6.725   4.206   2.434  0.0535  0.9281 -0.3127
  283MOL0     H38171   6.561   4.292   2.032 -0.8862 -0.6316 -0.5647
  283MOL0     H38172   6.513   4.121   2.045  3.9283  0.4094 -2.7183
  283MOL0     H38173   6.379   4.187   2.245  0.0764  0.0743 -0.6745
  283MOL0     H38174   6.446   4.358   2.239 -4.5674  1.1926  1.5350
  283MOL0     H38175   6.207   4.348   2.151  0.6046 -0.6884  1.3337
  283MOL0     H38176   6.268   4.242   2.021 -1.6477  0.8612 -0.5265
  283MOL0     H38177   6.343   4.524   2.084  0.9293 -0.1339 -1.1577
  283MOL0     H38178   6.422   4.441   1.955 -0.3850  1.0185 -0.9383
  283MOL0     H38179   6.114   4.494   1.974  0.6072  1.2404  1.9181
  283MOL0     H38180   6.204   4.422   1.843  0.2761  0.0493  0.9683
  283MOL0     H38181   6.283   4.695   1.944 -2.4079 -0.9541  1.2538
  283MOL0     H38182   6.330   4.622   1.792  0.1049 -0.2790 -0.4358
  283MOL0     H38183   6.105   4.624   1.708 -1.2771  0.5239  0.0070
  283MOL0     H38184   6.171   4.786   1.751 -0.2355  0.5288  1.8911
  283MOL0     H38185   6.051   4.774   1.960  2.1075 -4.1122  2.1669
  283MOL0     H38186   5.952   4.631   1.902 -1.3274  1.3405 -0.9085
  283MOL0     H38187   6.605   3.936   2.114  3.6664 -2.0280 -1.1547
  283MOL0     H38188   6.610   3.745   2.277  1.4241 -1.7099  2.3872
  283MOL0     H38189   6.284   3.675   2.711  2.5544  2.2155  0.5801
  283MOL0     H38190   6.240   3.472   2.840  0.1596  1.4829  1.5730
  283MOL0     H38191   7.505   2.496   3.179  1.9144  1.2805 -0.0998
  283MOL0     H38192   7.692   2.428   3.327  0.2730 -0.9776  3.1543
  283MOL0     H38193   8.093   2.591   3.632  2.0906  0.0460  2.4492
  283MOL0     H38194   8.230   2.546   3.840 -0.4875  0.9901 -0.0200
  283MOL0     H38195   8.039   2.313   4.186  0.3977 -1.8476  0.5469
  283MOL0     H38196   8.093   2.218   4.043 -4.0359  0.9720  0.5321
  283MOL0     H38197   8.209   2.162   4.271 -0.0999  1.9357  0.0814
  283MOL0     H38198   8.268   2.316   4.282  2.2190 -1.5541  1.7226
  283MOL0     H38199   8.406   2.275   4.070 -1.9369 -1.5031 -2.2799
  283MOL0     H38200   8.343   2.105   4.080 -1.9615  1.2031 -0.9692
  283MOL0     H38201   8.443   2.072   4.309  0.9658 -1.8235 -1.5036
  283MOL0     H38202   8.500   2.238   4.308 -1.4346  1.3602 -0.5210
  283MOL0     H38203   8.796   2.059   4.071 -0.1427 -0.4548  0.0037
  283MOL0     H38204   7.902   2.339   4.012  2.7455  0.5333  2.7814
  283MOL0     H38205   7.759   2.403   3.806 -0.6096  0.0292  2.6991
  284MOL0     O38206   7.159   6.756  11.082  0.8630 -0.4159 -0.2793
  284MOL0     C38207   7.230   6.698  11.162  0.6506 -0.2145 -0.9747
  284MOL0     O38208   7.356   6.720  11.189 -0.8019  0.5261 -0.2289
  284MOL0     C38209   7.441   6.799  11.111  0.0149  0.1825  0.4976
  284MOL0     C38210   7.446   6.792  10.966  0.9242 -0.5891 -0.0940
  284MOL0     C38211   7.505   6.908  10.902  0.1270  0.3056  0.3218
  284MOL0     C38212   7.583   7.001  10.973  0.5313  0.4425  0.3602
  284MOL0     O38213   7.638   7.110  10.911 -1.1752 -0.0965  0.0534
  284MOL0     C38214   7.785   7.136  10.903 -0.2309 -0.5908  0.1973
  284MOL0     C38215   7.871   7.017  10.862 -0.4400  0.2182 -0.3367
  284MOL0     C38216   8.022   7.065  10.851 -0.8823  1.0169 -0.2023
  284MOL0     C38217   8.134   6.950  10.858  0.0723 -0.0351 -0.2696
  284MOL0     C38218   8.277   6.990  10.875  0.3711 -0.6025 -0.6331
  284MOL0     C38219   8.304   7.062  11.005 -0.1395 -0.5786 -0.2403
  284MOL0     C38220   8.451   7.082  11.010  0.1254  0.1517 -0.5940
  284MOL0     C38221   8.511   7.168  11.120  0.0302 -0.2575  0.9882
  284MOL0     N38222   8.488   7.107  11.250 -0.1151  0.1177 -0.8806
  284MOL0     C38223   8.415   7.158  11.353 -0.0120 -0.9750  0.0199
  284MOL0     C38224   8.430   7.060  11.450 -0.4858  0.6825 -0.0058
  284MOL0     C38225   8.346   7.059  11.571  0.1807 -0.2550 -0.4835
  284MOL0     C38226   8.434   7.066  11.694 -0.3738 -0.2075 -0.0143
  284MOL0     C38227   8.361   7.071  11.830  0.2779  0.3911 -1.0403
  284MOL0     C38228   8.437   7.084  11.952 -1.1267 -0.6377 -0.0437
  284MOL0     O38229   8.365   7.064  12.078 -0.4001 -0.0139 -0.2805
  284MOL0     C38230   8.449   7.071  12.186  0.3459 -0.7459  0.5301
  284MOL0     C38231   8.394   7.029  12.302 -0.5119  0.3670 -0.0634
  284MOL0     C38232   8.462   7.014  12.424  0.0147  0.8949  0.4430
  284MOL0     C38233   8.388   6.956  12.539  0.1664 -0.4302 -0.3006
  284MOL0     C38234   8.605   7.038  12.429 -0.0447  0.1769 -0.0756
  284MOL0     C38235   8.683   7.034  12.552  0.0323  0.4580 -0.3744
  284MOL0     O38236   8.623   7.050  12.671 -0.0921 -0.3893 -0.0968
  284MOL0     C38237   8.695   7.091  12.782  0.6932 -0.5799 -0.6259
  284MOL0     C38238   8.794   7.189  12.771 -0.2917  0.0559  0.6121
  284MOL0     C38239   8.874   7.225  12.881 -0.1782  0.0937 -0.3198
  284MOL0     C38240   8.841   7.166  13.007 -0.2213 -1.0043 -0.5844
  284MOL0     O38241   8.904   7.207  13.127  0.3332 -0.2378 -0.8011
  284MOL0     C38242   9.044   7.211  13.139  0.4157  0.4027 -0.4322
  284MOL0     C38243   9.077   7.262  13.279 -0.1872 -0.1842 -0.2747
  284MOL0     C38244   9.036   7.170  13.387 -0.4126 -0.8480 -0.8614
  284MOL0     C38245   9.065   7.024  13.387 -0.2517 -0.1437  0.1552
  284MOL0     C38246   9.162   6.982  13.503 -0.5137 -0.6102 -0.1449
  284MOL0     C38247   9.097   6.987  13.648  0.2770 -0.1273 -0.2504
  284MOL0     C38248   9.196   6.933  13.747  0.0208 -0.0197 -0.0028
  284MOL0     C38249   9.126   6.957  13.884  0.4844  0.3172  0.1842
  284MOL0    Cl38250   9.232   6.894  14.021 -0.0677 -0.1450  0.3960
  284MOL0     C38251   8.737   7.074  13.019  0.8439  0.0057  0.7091
  284MOL0     C38252   8.663   7.033  12.909 -0.3023  0.6965  0.0347
  284MOL0     O38253   8.805   7.019  12.534  0.3625  0.0231 -0.0670
  284MOL0     C38254   8.668   7.082  12.307  0.1710 -0.9079  0.0090
  284MOL0     C38255   8.592   7.091  12.194 -0.5598 -0.3248  0.5466
  284MOL0     N38256   8.513   6.955  11.405  0.3472 -0.4841  0.7011
  284MOL0     N38257   8.546   6.986  11.284  0.3622 -0.5515 -0.0330
  284MOL0     C38258   7.601   6.985  11.111 -0.2725  0.1329 -0.4675
  284MOL0     C38259   7.526   6.889  11.177  0.6135  0.0495  0.4721
  284MOL0     C38260   7.165   6.591  11.236  0.2418 -0.2974 -0.0540
  284MOL0     C38261   7.031   6.598  11.275  0.3536 -0.3342  0.1190
  284MOL0     C38262   6.973   6.492  11.330 -0.1467 -0.3503  0.3601
  284MOL0     C38263   7.046   6.382  11.373  0.2303  0.7806 -0.2157
  284MOL0     O38264   6.989   6.286  11.459 -0.2526  0.9930 -0.1037
  284MOL0     C38265   6.852   6.292  11.498 -0.4874  0.4826  0.0333
  284MOL0     C38266   6.794   6.172  11.594 -0.9149  0.7805  0.2743
  284MOL0     C38267   6.639   6.165  11.615 -0.2849  0.6840 -0.3898
  284MOL0     C38268   6.590   6.033  11.677 -0.2560  0.6667 -0.0324
  284MOL0     C38269   6.441   6.029  11.663 -0.1474  0.3835  0.3870
  284MOL0     C38270   6.319   6.039  11.639 -0.8288 -0.0797  0.0609
  284MOL0     C38271   7.181   6.381  11.343 -0.1932 -0.0038 -0.4247
  284MOL0     C38272   7.243   6.486  11.276  0.0567 -0.6421 -0.3434
  284MOL0     H38273   7.394   6.708  10.921  1.8340 -0.8474 -0.6894
  284MOL0     H38274   7.503   6.921  10.795 -1.2461  1.5443  0.4643
  284MOL0     H38275   7.800   7.219  10.832 -2.2277  0.4960  0.9856
  284MOL0     H38276   7.818   7.169  11.002  1.0865  2.1788 -1.0532
  284MOL0     H38277   7.856   6.930  10.928  0.9060  0.2011 -0.0073
  284MOL0     H38278   7.845   6.969  10.767 -0.2336 -2.2912  0.7722
  284MOL0     H38279   8.030   7.125  10.759 -1.2107 -0.3327 -1.1516
  284MOL0     H38280   8.030   7.130  10.938 -0.4161  0.8229 -0.0980
  284MOL0     H38281   8.111   6.880  10.938  0.0747 -0.2035 -0.4159
  284MOL0     H38282   8.128   6.897  10.762  0.3551 -1.3538  0.4295
  284MOL0     H38283   8.337   6.899  10.875  0.0893 -0.7878 -0.6032
  284MOL0     H38284   8.289   7.053  10.787  1.0573 -0.2576 -0.3016
  284MOL0     H38285   8.258   7.160  10.993 -1.7674 -1.3547 -0.7190
  284MOL0     H38286   8.271   6.999  11.088  0.0764 -2.5195 -1.5355
  284MOL0     H38287   8.487   6.979  11.011  1.4865  0.5918  1.7955
  284MOL0     H38288   8.482   7.142  10.924  0.3378  0.6443 -0.1737
  284MOL0     H38289   8.467   7.268  11.112 -0.0476 -0.1334  2.6832
  284MOL0     H38290   8.616   7.179  11.093  0.0837 -2.8876 -0.1842
  284MOL0     H38291   8.356   7.249  11.354 -0.0656 -0.9979 -0.7516
  284MOL0     H38292   8.277   7.143  11.569 -1.3561 -1.1718  3.7056
  284MOL0     H38293   8.284   6.968  11.573 -2.8563  1.6832  1.0199
  284MOL0     H38294   8.494   7.157  11.686  0.7950 -0.9423  0.1694
  284MOL0     H38295   8.505   6.983  11.690 -0.6409 -0.4039 -2.1526
  284MOL0     H38296   8.298   6.985  11.854 -0.4820  0.9978 -0.8227
  284MOL0     H38297   8.287   7.150  11.823  0.3958  0.4672 -1.4335
  284MOL0     H38298   8.492   7.178  11.946  1.4357 -2.0363  0.2955
  284MOL0     H38299   8.505   6.999  11.949  0.2199  0.3536  1.1176
  284MOL0     H38300   8.287   7.013  12.302 -0.6711  1.2591 -1.2263
  284MOL0     H38301   8.399   7.018  12.628  1.4364 -1.8046  0.5349
  284MOL0     H38302   8.283   6.931  12.520  0.2719 -1.4317  0.3920
  284MOL0     H38303   8.441   6.867  12.575  0.3785  0.0650  0.6258
  284MOL0     H38304   8.819   7.235  12.676 -1.9282 -1.4832 -0.6564
  284MOL0     H38305   8.954   7.295  12.860 -1.0073  0.5869 -1.9929
  284MOL0     H38306   9.100   7.119  13.121  0.3158 -0.1272  1.6564
  284MOL0     H38307   9.069   7.297  13.076 -2.0301  1.7775  0.3284
  284MOL0     H38308   9.184   7.283  13.294 -1.0397  2.2578  4.3819
  284MOL0     H38309   9.021   7.354  13.296 -2.6047 -2.1208  3.3797
  284MOL0     H38310   8.927   7.181  13.398 -0.0052  1.3483  3.2006
  284MOL0     H38311   9.092   7.211  13.472 -0.4215 -1.4010 -0.5877
  284MOL0     H38312   8.969   6.976  13.406 -0.9465  0.6416 -1.1898
  284MOL0     H38313   9.099   6.992  13.288 -1.0183 -1.4405  0.2861
  284MOL0     H38314   9.257   7.036  13.503 -1.9380  2.2056  2.0582
  284MOL0     H38315   9.182   6.875  13.490  0.4114 -0.5403  0.5570
  284MOL0     H38316   9.069   7.087  13.681 -1.3974 -0.5539 -0.3326
  284MOL0     H38317   9.000   6.937  13.640 -0.4385  1.3627 -1.4563
  284MOL0     H38318   9.294   6.982  13.748 -0.0484  0.1207  1.2724
  284MOL0     H38319   9.212   6.826  13.733  1.0391 -0.2178  2.2191
  284MOL0     H38320   9.032   6.900  13.888 -0.7821  2.1826 -1.0574
  284MOL0     H38321   9.107   7.063  13.898  1.1088  0.7603 -1.9652
  284MOL0     H38322   8.704   7.035  13.114 -1.5551  2.3415  0.9372
  284MOL0     H38323   8.591   6.953  12.924  1.1614 -0.3522  1.9442
  284MOL0     H38324   8.774   7.100  12.299  0.2960 -2.0827 -1.7648
  284MOL0     H38325   8.638   7.129  12.103 -0.7250 -0.3495  0.4514
  284MOL0     H38326   7.669   7.055  11.157  0.9877  0.5255 -2.7472
  284MOL0     H38327   7.534   6.882  11.285  2.1252  2.1003  0.5520
  284MOL0     H38328   6.963   6.680  11.257 -1.1994 -1.2341  1.6438
  284MOL0     H38329   6.868   6.502  11.357  0.0788  1.3119  0.7498
  284MOL0     H38330   6.831   6.377  11.564 -1.0448  1.4262 -1.3050
  284MOL0     H38331   6.791   6.301  11.408  1.1880 -1.8212 -1.4337
  284MOL0     H38332   6.853   6.162  11.685 -0.2966  1.3464 -0.0578
  284MOL0     H38333   6.812   6.076  11.544 -2.3443  1.5345 -1.8683
  284MOL0     H38334   6.582   6.208  11.533 -0.9908  3.2029  1.3087
  284MOL0     H38335   6.621   6.244  11.688 -0.0715  0.8258 -0.4862
  284MOL0     H38336   6.601   6.035  11.785  2.3205 -0.0661 -0.2201
  284MOL0     H38337   6.638   5.944  11.636 -0.4859  0.5812 -0.1209
  284MOL0     H38338   6.213   6.041  11.623 -0.8047  0.5285 -0.0180
  284MOL0     H38339   7.244   6.300  11.377  1.8255  1.6964  0.1622
  284MOL0     H38340   7.348   6.469  11.257  0.7302 -0.3410  2.6071
  285MOL0     O38341   1.808   7.130   9.036  0.6378  0.4667 -0.4983
  285MOL0     C38342   1.743   7.094   8.939  0.2058  0.2651 -0.2758
  285MOL0     O38343   1.638   7.171   8.888  0.5320 -0.4714 -0.6329
  285MOL0     C38344   1.604   7.286   8.956 -0.2653 -0.0228  0.5005
  285MOL0     C38345   1.672   7.409   8.936 -0.3684 -0.2045 -0.3133
  285MOL0     C38346   1.639   7.523   9.005  0.4459 -0.6569 -0.9913
  285MOL0     C38347   1.524   7.520   9.084  0.5950 -0.4500  0.4395
  285MOL0     O38348   1.477   7.625   9.154  0.3224 -0.3762 -0.2961
  285MOL0     C38349   1.558   7.740   9.160 -0.4143  0.2614  0.2894
  285MOL0     C38350   1.493   7.841   9.250 -0.3293 -0.0843  0.1845
  285MOL0     C38351   1.524   7.830   9.400  0.6560 -0.4403  0.8198
  285MOL0     C38352   1.435   7.918   9.491  0.3535  0.0256 -0.0080
  285MOL0     C38353   1.469   7.927   9.637 -0.0821 -0.3935  0.6983
  285MOL0     C38354   1.375   8.004   9.730  0.3808  0.2544 -0.5578
  285MOL0     C38355   1.229   7.942   9.748 -0.3298 -0.4327  0.7020
  285MOL0     C38356   1.147   7.982   9.869 -0.4747 -0.4442 -0.1378
  285MOL0     N38357   1.212   7.921   9.992  1.2976  0.2568 -0.2180
  285MOL0     C38358   1.156   7.828  10.077 -0.3193 -0.4125  0.7036
  285MOL0     C38359   1.241   7.816  10.180 -0.5708  0.8787 -0.7959
  285MOL0     C38360   1.234   7.697  10.290 -0.4031 -0.6286 -0.4288
  285MOL0     C38361   1.197   7.770  10.417 -0.6657  0.4072 -0.4803
  285MOL0     C38362   1.047   7.777  10.434  0.1277  1.1282  0.1287
  285MOL0     C38363   1.000   7.887  10.532  0.3183 -0.0129  0.2547
  285MOL0     O38364   1.029   8.019  10.472  0.7144 -0.4273 -0.5322
  285MOL0     C38365   0.941   8.119  10.500 -0.1471 -1.2497 -0.0159
  285MOL0     C38366   0.877   8.145  10.626  0.1516 -0.7171 -0.0597
  285MOL0     C38367   0.792   8.259  10.638  0.3547 -0.3092  0.3587
  285MOL0     C38368   0.729   8.291  10.777  0.5311  0.0893  0.7646
  285MOL0     C38369   0.769   8.347  10.533 -0.8057 -0.2359  0.6027
  285MOL0     C38370   0.689   8.462  10.541 -0.0941  0.0604  0.5055
  285MOL0     O38371   0.716   8.577  10.470  0.7098 -0.1564 -0.2041
  285MOL0     C38372   0.613   8.666  10.476 -0.5707  0.6999  1.0784
  285MOL0     C38373   0.646   8.781  10.536  0.3399 -0.0603  0.1781
  285MOL0     C38374   0.550   8.885  10.536  0.1513  0.4637  1.0506
  285MOL0     C38375   0.422   8.867  10.482  0.2240  0.1438 -0.7385
  285MOL0     O38376   0.330   8.967  10.503 -0.3375  0.0089  0.6307
  285MOL0     C38377   0.206   8.974  10.424 -0.3153  0.0302  0.6676
  285MOL0     C38378   0.129   9.102  10.445 -0.8945 -0.0194 -0.4455
  285MOL0     C38379  -0.005   9.090  10.389  0.0105  0.2171 -0.0909
  285MOL0     C38380  -0.101   9.072  10.506  0.3242 -0.0530 -0.0337
  285MOL0     C38381  -0.250   9.069  10.459 -0.5571  0.2398  0.2718
  285MOL0     C38382  -0.281   8.941  10.399  0.1562  0.9538 -0.0177
  285MOL0     C38383  -0.425   8.900  10.415 -0.8702 -0.1086 -0.8198
  285MOL0     C38384  -0.525   9.005  10.373 -0.9244  0.5795 -0.1501
  285MOL0    Cl38385  -0.492   9.053  10.204  0.2487  0.1522 -0.2178
  285MOL0     C38386   0.398   8.749  10.408 -0.2501  0.4745 -0.3876
  285MOL0     C38387   0.498   8.646  10.402  1.3247  0.1405  0.3770
  285MOL0     O38388   0.578   8.441  10.598  0.1793 -0.0400 -0.3136
  285MOL0     C38389   0.839   8.318  10.412 -0.4950 -0.7526  0.5888
  285MOL0     C38390   0.919   8.205  10.395  0.2991  0.1576  1.0231
  285MOL0     N38391   1.349   7.900  10.160 -0.1557 -0.2874 -0.2176
  285MOL0     N38392   1.333   7.955  10.038 -0.1027  0.1997 -0.2513
  285MOL0     C38393   1.455   7.400   9.109  0.7190 -0.7448 -0.3945
  285MOL0     C38394   1.502   7.284   9.047  0.1320 -0.0073 -0.3310
  285MOL0     C38395   1.787   6.962   8.874  0.5105 -0.1218  0.4119
  285MOL0     C38396   1.919   6.925   8.890  0.2517  0.7778 -1.1362
  285MOL0     C38397   1.962   6.803   8.825  0.4558 -0.5444  0.1321
  285MOL0     C38398   1.885   6.730   8.740  0.5851 -0.2915  0.3506
  285MOL0     O38399   1.942   6.617   8.679 -0.0056  0.3385 -0.1244
  285MOL0     C38400   1.868   6.509   8.625 -0.5646  0.6459  0.6819
  285MOL0     C38401   1.788   6.443   8.733  0.4408  0.2675 -0.2384
  285MOL0     C38402   1.698   6.332   8.686 -0.4828 -0.7790  0.5082
  285MOL0     C38403   1.550   6.366   8.667 -0.4189 -0.6938 -0.2642
  285MOL0     C38404   1.513   6.492   8.597 -1.6672  0.7755 -0.4727
  285MOL0     C38405   1.481   6.595   8.541 -0.0134 -0.0795 -0.5419
  285MOL0     C38406   1.750   6.767   8.730 -0.2051 -0.7276 -0.7007
  285MOL0     C38407   1.697   6.884   8.795 -0.4140 -0.2364  0.2357
  285MOL0     H38408   1.743   7.408   8.853  0.2420 -1.4991  0.1964
  285MOL0     H38409   1.677   7.623   8.984 -0.0721 -0.2822 -0.2054
  285MOL0     H38410   1.658   7.719   9.199  0.1961  5.0667  1.8934
  285MOL0     H38411   1.566   7.785   9.061  1.7786  2.6826  1.4571
  285MOL0     H38412   1.536   7.938   9.222 -1.6912  0.4279 -0.2303
  285MOL0     H38413   1.384   7.837   9.241 -0.5764  0.1018  2.3598
  285MOL0     H38414   1.507   7.731   9.443 -2.0225 -0.6204 -0.4529
  285MOL0     H38415   1.629   7.848   9.427  1.4510 -2.6929 -0.5069
  285MOL0     H38416   1.440   8.022   9.456 -1.5169  0.3215  0.4786
  285MOL0     H38417   1.330   7.887   9.495  0.1977  0.6463  1.2284
  285MOL0     H38418   1.477   7.821   9.665  2.0835 -0.6385 -0.6073
  285MOL0     H38419   1.568   7.972   9.651  0.8356 -2.8108  2.9146
  285MOL0     H38420   1.428   7.995   9.825  0.7231  0.4672 -0.7249
  285MOL0     H38421   1.368   8.111   9.709 -0.2725  0.8281  2.1593
  285MOL0     H38422   1.179   7.997   9.668  1.4292 -2.4320 -1.9624
  285MOL0     H38423   1.226   7.834   9.730  2.8485 -1.4845  4.8737
  285MOL0     H38424   1.043   7.955   9.851 -0.2149 -1.7257  0.1358
  285MOL0     H38425   1.138   8.089   9.887  0.7839 -0.1278 -1.1785
  285MOL0     H38426   1.061   7.781  10.053 -1.7603  2.9367 -0.6657
  285MOL0     H38427   1.152   7.630  10.259 -3.3558  2.2226  0.6746
  285MOL0     H38428   1.329   7.645  10.306 -0.1780 -0.5667 -1.4882
  285MOL0     H38429   1.221   7.876  10.418 -3.9830  1.2932 -0.3084
  285MOL0     H38430   1.247   7.720  10.501 -1.7126 -3.0409 -1.7247
  285MOL0     H38431   1.013   7.689  10.489  0.0431  2.6855  2.7240
  285MOL0     H38432   1.001   7.796  10.336  1.7911  1.5794 -0.6030
  285MOL0     H38433   1.058   7.886  10.625  1.1281 -1.2033 -0.2397
  285MOL0     H38434   0.895   7.875  10.556  0.9278 -1.2380  2.5695
  285MOL0     H38435   0.888   8.076  10.708  1.0008 -0.8328 -0.2678
  285MOL0     H38436   0.739   8.394  10.811 -0.5016  0.0239  1.2747
  285MOL0     H38437   0.624   8.261  10.770 -0.1821  2.2003  1.7355
  285MOL0     H38438   0.774   8.237  10.861 -0.0869 -1.7682 -0.0424
  285MOL0     H38439   0.741   8.802  10.584  0.5232 -1.9212  0.7194
  285MOL0     H38440   0.562   8.981  10.584 -1.8202  2.2267 -1.6933
  285MOL0     H38441   0.242   8.959  10.322  2.4719  0.5588  1.4966
  285MOL0     H38442   0.138   8.895  10.458 -1.4147  1.7728  2.7290
  285MOL0     H38443   0.134   9.120  10.553  2.8590  0.4423 -0.5706
  285MOL0     H38444   0.180   9.189  10.403  1.4212 -1.6575 -1.2285
  285MOL0     H38445  -0.014   9.005  10.320 -0.1280 -2.0034  2.4660
  285MOL0     H38446  -0.020   9.181  10.330  1.9678 -0.3630 -1.6330
  285MOL0     H38447  -0.070   8.988  10.569  1.7639  1.0708  0.8022
  285MOL0     H38448  -0.086   9.161  10.568  2.4879 -0.9650  0.8635
  285MOL0     H38449  -0.267   9.135  10.374 -1.3875 -2.7716 -2.0900
  285MOL0     H38450  -0.321   9.088  10.541  0.8860 -1.6767  2.0753
  285MOL0     H38451  -0.257   8.935  10.293  1.6904 -2.3687  0.4074
  285MOL0     H38452  -0.213   8.867  10.440  0.1322  0.7958 -0.2628
  285MOL0     H38453  -0.441   8.881  10.522  1.2981 -0.2926 -0.4710
  285MOL0     H38454  -0.444   8.806  10.361  2.5809 -1.2908 -0.2489
  285MOL0     H38455  -0.521   9.099  10.428  3.6750  0.8508 -0.5227
  285MOL0     H38456  -0.621   8.953  10.377 -1.0069  0.5689 -1.7055
  285MOL0     H38457   0.307   8.740  10.350 -1.0740 -0.4943  0.9994
  285MOL0     H38458   0.476   8.556  10.345 -1.4299 -2.3543  4.8282
  285MOL0     H38459   0.845   8.391  10.332  2.1229 -0.2094  1.1771
  285MOL0     H38460   0.961   8.183  10.297 -2.0625 -2.5086  0.4671
  285MOL0     H38461   1.369   7.403   9.175 -0.2502  0.1583 -1.6650
  285MOL0     H38462   1.450   7.189   9.057 -2.5483  1.5638  2.2686
  285MOL0     H38463   2.000   6.977   8.940  0.1651  0.0162 -0.1465
  285MOL0     H38464   2.056   6.759   8.857  1.1099  1.1537  0.7059
  285MOL0     H38465   1.786   6.540   8.560 -0.1164  1.4556  0.4983
  285MOL0     H38466   1.924   6.435   8.566 -1.6301  1.0920 -0.9686
  285MOL0     H38467   1.728   6.513   8.793  0.3958 -1.0365  1.2917
  285MOL0     H38468   1.858   6.396   8.802  0.3541  0.4390 -0.0347
  285MOL0     H38469   1.696   6.257   8.765 -3.5031  0.7132  2.0178
  285MOL0     H38470   1.751   6.275   8.609  0.1744  0.4504  0.0205
  285MOL0     H38471   1.494   6.361   8.760 -1.9416  0.3592 -1.0823
  285MOL0     H38472   1.510   6.283   8.608  1.5420 -3.2922  1.8134
  285MOL0     H38473   1.457   6.690   8.499  1.5776  0.5613 -0.0977
  285MOL0     H38474   1.691   6.689   8.684  1.7471 -2.4715 -0.3833
  285MOL0     H38475   1.592   6.906   8.784 -0.9011 -2.8437 -1.1731
  286MOL0     O38476   2.677   6.391   3.281  0.1071 -0.6550  0.5715
  286MOL0     C38477   2.737   6.359   3.181  0.5822  0.0614  0.0121
  286MOL0     O38478   2.865   6.367   3.172 -0.2544 -0.0701  0.1966
  286MOL0     C38479   2.952   6.401   3.286  0.8019 -0.3608  0.1358
  286MOL0     C38480   3.072   6.337   3.290  0.5831  0.5047 -0.0987
  286MOL0     C38481   3.169   6.380   3.374 -1.6473  0.1632 -0.0246
  286MOL0     C38482   3.152   6.486   3.452 -0.3918 -0.3352  0.4795
  286MOL0     O38483   3.251   6.556   3.533  0.1517 -0.5351 -0.2511
  286MOL0     C38484   3.372   6.504   3.554 -0.7511 -0.3051 -0.8455
  286MOL0     C38485   3.378   6.377   3.633  0.2452 -0.2224  0.1541
  286MOL0     C38486   3.298   6.368   3.767 -0.1141 -0.5685  0.5323
  286MOL0     C38487   3.363   6.462   3.867 -0.1615 -0.2806 -0.2056
  286MOL0     C38488   3.381   6.377   3.999 -0.3764 -0.3060 -0.1141
  286MOL0     C38489   3.467   6.244   3.995  0.0921 -1.5033  0.9745
  286MOL0     C38490   3.485   6.202   4.137  1.3141 -0.1448 -0.6796
  286MOL0     C38491   3.381   6.095   4.174  0.0509  0.5522 -0.2111
  286MOL0     N38492   3.377   6.071   4.316 -0.3922 -0.1076 -0.8560
  286MOL0     C38493   3.310   6.148   4.408  0.3859 -0.1588  1.3094
  286MOL0     C38494   3.322   6.084   4.524 -0.6894 -0.8521 -0.5444
  286MOL0     C38495   3.248   6.125   4.652  0.1478  1.1609  0.0297
  286MOL0     C38496   3.096   6.142   4.634  1.4048 -1.4271 -0.5848
  286MOL0     C38497   3.030   6.009   4.601  0.2802 -0.1206 -0.5924
  286MOL0     C38498   2.884   6.007   4.636 -0.4150 -0.8899  0.3190
  286MOL0     O38499   2.810   6.109   4.568  0.7279 -0.7821  0.0461
  286MOL0     C38500   2.674   6.118   4.588 -0.0047  0.2748 -0.0212
  286MOL0     C38501   2.621   6.251   4.571  1.1223  0.2611  0.1948
  286MOL0     C38502   2.492   6.288   4.598 -0.1084 -0.5180  0.0691
  286MOL0     C38503   2.452   6.442   4.565 -0.1127 -0.2841  0.4391
  286MOL0     C38504   2.400   6.197   4.650 -0.0834  0.0952 -0.2619
  286MOL0     C38505   2.259   6.225   4.683  0.1009 -0.4914  0.4933
  286MOL0     O38506   2.188   6.117   4.729  0.1257  0.0868  0.3656
  286MOL0     C38507   2.055   6.124   4.732  0.4460  0.6128  0.2800
  286MOL0     C38508   1.982   6.200   4.826  0.1427  0.9167 -0.2615
  286MOL0     C38509   1.840   6.185   4.831 -0.1746 -0.4431  0.1439
  286MOL0     C38510   1.778   6.105   4.737  0.3081  0.0877 -0.3569
  286MOL0     O38511   1.640   6.105   4.754  0.3928 -0.0735 -0.0173
  286MOL0     C38512   1.558   6.046   4.658  1.1206  0.1741 -0.0793
  286MOL0     C38513   1.408   6.063   4.700  0.0915 -0.7377  0.5328
  286MOL0     C38514   1.365   6.028   4.843 -0.7217 -0.4615  0.1389
  286MOL0     C38515   1.242   6.099   4.886 -0.3618 -0.7834 -1.0419
  286MOL0     C38516   1.181   6.044   5.018  0.2008  0.0085  0.5897
  286MOL0     C38517   1.085   6.149   5.071 -0.2371  0.3790 -1.1006
  286MOL0     C38518   0.998   6.100   5.194  0.5296 -0.0850  0.1040
  286MOL0     C38519   0.969   6.221   5.281  0.0579  0.0590 -0.6190
  286MOL0    Cl38520   0.894   6.176   5.437 -0.3338 -0.3479  0.2703
  286MOL0     C38521   1.848   6.035   4.646  0.3137 -0.4551 -0.3610
  286MOL0     C38522   1.985   6.048   4.634 -0.3858 -0.1893 -0.6362
  286MOL0     O38523   2.203   6.329   4.655 -0.5482 -0.2060  0.5128
  286MOL0     C38524   2.449   6.059   4.663  0.2767  0.0888 -0.5064
  286MOL0     C38525   2.583   6.026   4.635  0.5401  0.4519 -0.0295
  286MOL0     N38526   3.416   5.986   4.508  0.7720  0.3270  0.0116
  286MOL0     N38527   3.450   5.980   4.384  0.2587  0.8603 -0.4153
  286MOL0     C38528   3.021   6.546   3.469  0.1431 -0.1418  0.3686
  286MOL0     C38529   2.924   6.512   3.371  0.0985 -0.5843 -0.5523
  286MOL0     C38530   2.661   6.295   3.061  0.2833 -0.9942  0.2113
  286MOL0     C38531   2.530   6.267   3.067  1.4579 -0.1023  0.1292
  286MOL0     C38532   2.470   6.195   2.967  0.4757 -0.4028  0.5871
  286MOL0     C38533   2.542   6.162   2.843 -0.3981 -0.0303 -0.6843
  286MOL0     O38534   2.473   6.083   2.751  0.5695 -0.2142 -0.2557
  286MOL0     C38535   2.536   5.958   2.714 -0.5029  0.7950  0.1706
  286MOL0     C38536   2.433   5.849   2.680 -0.4853  1.3304 -0.0039
  286MOL0     C38537   2.365   5.876   2.550 -0.6997 -0.7260 -0.7218
  286MOL0     C38538   2.235   5.798   2.550 -0.1861  0.4655 -1.2537
  286MOL0     C38539   2.181   5.792   2.419  0.2662  0.1622  0.0040
  286MOL0     C38540   2.126   5.805   2.305  0.3315  0.0296  0.3155
  286MOL0     C38541   2.673   6.199   2.827  0.5153 -0.7217 -1.2952
  286MOL0     C38542   2.728   6.268   2.945  0.2102 -0.2075  0.4807
  286MOL0     H38543   3.091   6.246   3.235  1.1212 -1.5684  3.2065
  286MOL0     H38544   3.265   6.330   3.368 -0.4603  2.2518  0.4179
  286MOL0     H38545   3.426   6.475   3.464  1.6722  0.9045  0.1214
  286MOL0     H38546   3.436   6.582   3.596  0.1643 -1.6974  0.4197
  286MOL0     H38547   3.352   6.295   3.565  2.2749 -2.3697  1.7706
  286MOL0     H38548   3.484   6.359   3.653  1.4691  2.9224 -2.5766
  286MOL0     H38549   3.198   6.410   3.755  1.3604  3.4333  0.8927
  286MOL0     H38550   3.290   6.262   3.793 -1.0464 -1.2394 -2.1874
  286MOL0     H38551   3.463   6.491   3.833  0.3318 -3.0012 -1.3868
  286MOL0     H38552   3.302   6.543   3.906  2.1130  1.5866 -0.3132
  286MOL0     H38553   3.427   6.453   4.063 -1.4008 -1.4844  2.1268
  286MOL0     H38554   3.280   6.357   4.038 -0.5550 -0.2473 -0.5397
  286MOL0     H38555   3.433   6.165   3.928 -1.3668 -1.0816  1.1675
  286MOL0     H38556   3.566   6.270   3.958  0.3476 -2.3482  1.0371
  286MOL0     H38557   3.581   6.155   4.162  0.2894 -1.1563  1.6339
  286MOL0     H38558   3.476   6.285   4.207 -3.3464 -1.1665  0.3149
  286MOL0     H38559   3.405   6.003   4.120 -1.3416  1.1056 -1.8617
  286MOL0     H38560   3.284   6.130   4.138 -0.9245 -1.8158 -0.0343
  286MOL0     H38561   3.264   6.246   4.396  0.1680 -0.1631  2.0706
  286MOL0     H38562   3.259   6.044   4.725 -0.0254 -1.7752 -2.9811
  286MOL0     H38563   3.297   6.213   4.694  1.1831  1.7983 -2.3472
  286MOL0     H38564   3.075   6.215   4.556 -0.0711  1.1462  2.0290
  286MOL0     H38565   3.069   6.196   4.726  1.9545  1.4220 -2.0119
  286MOL0     H38566   3.066   5.924   4.659 -1.6729 -2.0349 -2.0243
  286MOL0     H38567   3.050   5.972   4.501  1.8452  2.3854 -1.3162
  286MOL0     H38568   2.866   6.023   4.743 -1.3587  2.0596 -0.1764
  286MOL0     H38569   2.845   5.908   4.610 -0.6177 -1.2088  1.7309
  286MOL0     H38570   2.685   6.335   4.544  2.2403 -0.9528 -1.0394
  286MOL0     H38571   2.541   6.502   4.545 -0.8664 -0.0734 -2.8352
  286MOL0     H38572   2.400   6.440   4.469  0.1436  0.5169  0.2775
  286MOL0     H38573   2.394   6.497   4.640  0.3596 -1.2568  1.5417
  286MOL0     H38574   2.039   6.263   4.893 -0.2762  0.1562  0.8389
  286MOL0     H38575   1.774   6.247   4.891 -1.9011  0.5923 -2.6820
  286MOL0     H38576   1.582   6.087   4.560  3.0540 -1.9214 -0.5507
  286MOL0     H38577   1.570   5.938   4.645  0.4918  0.1463 -0.4564
  286MOL0     H38578   1.373   6.164   4.676 -1.3219 -0.7238  2.4525
  286MOL0     H38579   1.335   6.010   4.638 -1.6380  0.4048  1.4876
  286MOL0     H38580   1.448   6.066   4.903  0.8054 -0.0518 -2.0855
  286MOL0     H38581   1.370   5.919   4.848  1.8969 -0.5139 -1.6294
  286MOL0     H38582   1.263   6.205   4.901  1.5614 -0.6651 -3.8513
  286MOL0     H38583   1.165   6.114   4.810 -0.5800  1.7667 -0.3924
  286MOL0     H38584   1.254   6.002   5.088  0.5623 -2.7339 -1.3183
  286MOL0     H38585   1.113   5.968   4.978 -2.9355  3.4312 -1.1782
  286MOL0     H38586   1.154   6.225   5.109  2.0776 -1.4013 -1.5157
  286MOL0     H38587   1.026   6.200   4.995 -1.0983  1.3475  0.1759
  286MOL0     H38588   1.060   6.035   5.256  3.7419  1.2048 -1.4624
  286MOL0     H38589   0.908   6.047   5.164  0.2824 -0.4255  1.3840
  286MOL0     H38590   0.894   6.279   5.227  0.8086  0.3542 -1.3574
  286MOL0     H38591   1.065   6.271   5.296 -0.4515  0.3515  2.3308
  286MOL0     H38592   1.794   5.975   4.573  0.6042 -0.4868 -0.5530
  286MOL0     H38593   2.041   5.993   4.559  0.8138  1.9022 -1.3366
  286MOL0     H38594   2.388   5.980   4.705 -0.4898  1.9711  2.2160
  286MOL0     H38595   2.612   5.921   4.643 -0.5451 -0.0239 -1.7166
  286MOL0     H38596   3.015   6.611   3.556  3.5998  1.4374 -0.3644
  286MOL0     H38597   2.833   6.569   3.355 -0.1893 -0.6149  0.8798
  286MOL0     H38598   2.452   6.308   3.130 -0.2463 -0.3415 -1.7170
  286MOL0     H38599   2.372   6.150   2.976  1.5579 -2.9956  0.6083
  286MOL0     H38600   2.613   5.977   2.638  0.1589 -1.0526  0.3100
  286MOL0     H38601   2.584   5.925   2.806 -1.1904 -0.1622  0.2004
  286MOL0     H38602   2.367   5.847   2.767  1.9115  0.1870  1.9245
  286MOL0     H38603   2.473   5.747   2.678 -2.0611  0.5623  2.7434
  286MOL0     H38604   2.435   5.839   2.475  0.4446 -1.9691  0.8973
  286MOL0     H38605   2.347   5.981   2.526 -0.2626 -0.1733  1.2321
  286MOL0     H38606   2.173   5.846   2.626  0.5355 -1.3565  0.5946
  286MOL0     H38607   2.239   5.696   2.592 -0.2952  1.5709  1.7065
  286MOL0     H38608   2.074   5.803   2.211 -1.4180  0.3079  1.2358
  286MOL0     H38609   2.721   6.164   2.736  2.5569 -1.6726  0.0584
  286MOL0     H38610   2.829   6.305   2.938  1.0442 -2.0023  2.0463
  287MOL0     O38611   4.928   5.531   5.479 -0.5577  0.0376  0.0298
  287MOL0     C38612   4.961   5.586   5.376  0.7627  0.0377 -0.1209
  287MOL0     O38613   5.081   5.567   5.316  0.6913 -0.0421  0.0307
  287MOL0     C38614   5.192   5.505   5.379 -0.4213  0.9349  0.6774
  287MOL0     C38615   5.309   5.578   5.396  0.9050 -0.1685 -0.3288
  287MOL0     C38616   5.425   5.523   5.459  0.5384 -1.0825 -0.6375
  287MOL0     C38617   5.428   5.390   5.506  0.0244  0.3157 -0.5959
  287MOL0     O38618   5.542   5.337   5.559 -0.0997  0.8447 -0.3355
  287MOL0     C38619   5.535   5.227   5.648 -0.6625  0.6059 -0.0514
  287MOL0     C38620   5.450   5.247   5.776 -0.4882 -0.5891  1.1732
  287MOL0     C38621   5.448   5.120   5.862  0.4629  0.4729  0.1941
  287MOL0     C38622   5.374   5.134   6.004 -0.4636 -0.2422  0.6585
  287MOL0     C38623   5.231   5.176   5.987 -0.2579  0.0938  0.3392
  287MOL0     C38624   5.161   5.162   6.124  0.0326  0.2743 -0.1054
  287MOL0     C38625   5.031   5.240   6.120 -0.1770  0.5450  0.7160
  287MOL0     C38626   4.916   5.183   6.043 -0.5531 -0.4783  0.1872
  287MOL0     N38627   4.884   5.049   6.093 -0.4133 -0.9455 -0.0273
  287MOL0     C38628   4.830   5.019   6.218 -0.2089 -0.0907  0.6801
  287MOL0     C38629   4.823   4.882   6.214  0.6506 -0.2753  0.3459
  287MOL0     C38630   4.798   4.797   6.329  0.4015  0.8677 -0.3495
  287MOL0     C38631   4.736   4.670   6.300 -0.0090  0.1377  0.6093
  287MOL0     C38632   4.637   4.628   6.395  0.4979 -0.0765  0.3403
  287MOL0     C38633   4.695   4.560   6.525  0.4232  0.3661  0.5601
  287MOL0     O38634   4.600   4.548   6.635 -0.0733 -0.3676 -0.0228
  287MOL0     C38635   4.507   4.450   6.636  0.2344  0.1046  0.0157
  287MOL0     C38636   4.491   4.353   6.534  1.0770  0.6076  0.3470
  287MOL0     C38637   4.408   4.240   6.553 -0.1841  0.4156  0.5275
  287MOL0     C38638   4.399   4.144   6.438  0.6096  0.6035  0.7330
  287MOL0     C38639   4.328   4.232   6.680  0.5373 -0.3708  0.3097
  287MOL0     C38640   4.233   4.123   6.721 -0.0616 -0.5065 -0.0967
  287MOL0     O38641   4.137   4.142   6.814 -0.2380 -0.3159 -0.3832
  287MOL0     C38642   4.030   4.050   6.803 -0.3034  0.0464  0.8517
  287MOL0     C38643   4.042   3.921   6.867 -0.0631 -0.0119 -0.1054
  287MOL0     C38644   3.927   3.836   6.879 -0.1361  0.0962  0.2465
  287MOL0     C38645   3.806   3.878   6.818  0.0468  0.4266 -0.6049
  287MOL0     O38646   3.692   3.806   6.822  1.2552 -0.1027 -1.0414
  287MOL0     C38647   3.661   3.696   6.913 -0.2145  0.3433 -0.5905
  287MOL0     C38648   3.510   3.695   6.946 -0.2475 -0.0537 -0.3097
  287MOL0     C38649   3.424   3.696   6.823  1.4074 -0.5657  0.8677
  287MOL0     C38650   3.279   3.679   6.865 -1.1027 -0.2130 -0.0765
  287MOL0     C38651   3.179   3.690   6.745  0.4087  0.3847 -0.0657
  287MOL0     C38652   3.030   3.658   6.792 -0.0355 -1.2951  0.4356
  287MOL0     C38653   2.930   3.677   6.676  0.2518  0.3437 -0.7013
  287MOL0     C38654   2.921   3.550   6.601 -0.9162  0.2663  1.5620
  287MOL0    Cl38655   2.871   3.581   6.430 -0.3438  0.1261 -0.1224
  287MOL0     C38656   3.805   4.000   6.757 -0.4435  0.5547  1.3934
  287MOL0     C38657   3.908   4.092   6.750 -0.4879 -1.1620  0.9969
  287MOL0     O38658   4.246   4.014   6.668 -0.2487 -0.7453  0.1828
  287MOL0     C38659   4.352   4.327   6.784  0.3846  0.4562 -0.2243
  287MOL0     C38660   4.437   4.434   6.759  0.0330 -0.1384  0.3983
  287MOL0     N38661   4.836   4.839   6.086 -0.0017  0.5503 -0.1721
  287MOL0     N38662   4.888   4.939   6.018 -0.5256  0.0484  0.2926
  287MOL0     C38663   5.306   5.321   5.500 -0.5042 -0.3424  0.8160
  287MOL0     C38664   5.189   5.374   5.433  0.6973  0.3179  0.8584
  287MOL0     C38665   4.862   5.667   5.311  0.5534 -0.4684  0.1143
  287MOL0     C38666   4.909   5.756   5.209 -0.1412  0.3138 -0.2208
  287MOL0     C38667   4.816   5.827   5.129  0.3276  0.6799  0.5814
  287MOL0     C38668   4.677   5.829   5.156 -0.3812  0.0247 -0.1857
  287MOL0     O38669   4.590   5.911   5.094 -0.3386 -0.2252  0.4613
  287MOL0     C38670   4.641   6.021   5.015  0.9275 -0.0566 -0.0785
  287MOL0     C38671   4.623   5.990   4.864  0.1635 -0.3576  0.5996
  287MOL0     C38672   4.488   5.943   4.818  0.6803  0.2287  0.0940
  287MOL0     C38673   4.364   6.039   4.850 -0.3921 -0.0945  1.0437
  287MOL0     C38674   4.228   5.991   4.823  0.1439 -0.6193  0.9036
  287MOL0     C38675   4.115   5.953   4.800 -0.0375 -0.1689  1.4764
  287MOL0     C38676   4.637   5.736   5.245  0.4066  0.6319  0.3860
  287MOL0     C38677   4.722   5.666   5.333  0.5247 -0.5628  0.8394
  287MOL0     H38678   5.290   5.682   5.369 -0.6556 -0.3393 -0.0142
  287MOL0     H38679   5.514   5.587   5.462  0.4479 -0.8570 -2.0599
  287MOL0     H38680   5.499   5.140   5.593 -2.1371  0.0421  1.7099
  287MOL0     H38681   5.639   5.217   5.682 -1.1186  0.5873  1.4058
  287MOL0     H38682   5.505   5.319   5.836 -1.1116 -0.4972  1.6465
  287MOL0     H38683   5.354   5.290   5.745  1.4929  2.0145 -2.0467
  287MOL0     H38684   5.396   5.047   5.800  1.5979  0.1539 -0.4105
  287MOL0     H38685   5.546   5.073   5.873  1.8806  3.6220  2.8514
  287MOL0     H38686   5.395   5.037   6.050 -2.2731 -0.8055  0.3653
  287MOL0     H38687   5.425   5.207   6.069  1.0553  1.3872 -2.1311
  287MOL0     H38688   5.232   5.281   5.959 -1.3622  0.2096  0.7112
  287MOL0     H38689   5.193   5.106   5.913  0.6111 -0.0972  0.0572
  287MOL0     H38690   5.149   5.058   6.154  1.4842 -0.3126 -1.4386
  287MOL0     H38691   5.227   5.209   6.198  0.5416  0.6791 -0.8002
  287MOL0     H38692   4.986   5.252   6.219  1.2055  0.2458  1.4190
  287MOL0     H38693   5.064   5.336   6.081 -1.7481  1.0156  0.4961
  287MOL0     H38694   4.950   5.177   5.939 -0.5105  1.1458  0.0772
  287MOL0     H38695   4.834   5.255   6.042 -0.2946 -0.1872 -0.8865
  287MOL0     H38696   4.808   5.086   6.301 -1.2317  1.9093 -1.0951
  287MOL0     H38697   4.893   4.767   6.374  0.2651 -2.9800 -2.2671
  287MOL0     H38698   4.745   4.854   6.406 -2.2421  0.6147 -1.8601
  287MOL0     H38699   4.812   4.591   6.298  1.0788  1.1520  0.1276
  287MOL0     H38700   4.690   4.661   6.201  2.4265  0.2399 -0.6051
  287MOL0     H38701   4.581   4.549   6.344 -1.0045  1.7485 -0.9690
  287MOL0     H38702   4.565   4.707   6.416 -0.3127 -0.3276 -1.3346
  287MOL0     H38703   4.782   4.610   6.568  0.6829 -1.5041  2.3986
  287MOL0     H38704   4.729   4.463   6.490  0.4995  1.0258 -1.2977
  287MOL0     H38705   4.541   4.344   6.439 -2.3350 -1.7192 -1.4296
  287MOL0     H38706   4.442   4.048   6.468 -0.0328  0.7002  2.0516
  287MOL0     H38707   4.295   4.138   6.404  0.9149 -1.7918 -0.0082
  287MOL0     H38708   4.459   4.168   6.350 -0.9122 -3.8334 -1.8502
  287MOL0     H38709   4.127   3.881   6.921 -2.7522 -0.9533  3.9113
  287MOL0     H38710   3.935   3.737   6.922 -1.8380 -0.8264 -1.4003
  287MOL0     H38711   3.677   3.597   6.869 -1.3489  1.1869 -3.0792
  287MOL0     H38712   3.719   3.708   7.005 -0.7396  0.0685 -0.2124
  287MOL0     H38713   3.488   3.607   7.006 -3.0882  0.9694  0.3044
  287MOL0     H38714   3.481   3.782   7.006 -0.7487 -0.0857 -0.5091
  287MOL0     H38715   3.437   3.602   6.770 -1.3931 -0.3178 -0.3874
  287MOL0     H38716   3.446   3.775   6.750 -1.5033 -1.6257 -1.3421
  287MOL0     H38717   3.264   3.588   6.925 -0.3778 -1.2891 -1.4536
  287MOL0     H38718   3.255   3.758   6.936 -1.0892  2.1282 -2.5237
  287MOL0     H38719   3.204   3.615   6.669  1.3388  1.1499 -0.5228
  287MOL0     H38720   3.184   3.789   6.699 -0.9321 -0.1607 -1.4518
  287MOL0     H38721   3.021   3.560   6.840 -1.2398 -0.8223  1.2333
  287MOL0     H38722   2.997   3.737   6.861 -0.3361  0.2379 -1.3673
  287MOL0     H38723   2.967   3.763   6.620  0.4798 -1.4834 -3.5574
  287MOL0     H38724   2.831   3.701   6.715 -0.4397  2.9195 -3.6741
  287MOL0     H38725   2.858   3.469   6.638  0.3207 -2.4968 -1.8900
  287MOL0     H38726   3.023   3.511   6.595 -0.6679  1.1520 -1.2647
  287MOL0     H38727   3.711   4.023   6.707 -0.4040  0.7715  1.4181
  287MOL0     H38728   3.900   4.187   6.699 -0.6577  0.4157  3.7657
  287MOL0     H38729   4.297   4.315   6.877 -2.5053 -4.0418 -2.1476
  287MOL0     H38730   4.457   4.506   6.837  0.9606 -2.3228  2.2908
  287MOL0     H38731   5.302   5.226   5.553  0.5359 -1.9406 -1.7705
  287MOL0     H38732   5.095   5.325   5.458  1.0870 -1.1150 -0.3763
  287MOL0     H38733   5.014   5.760   5.184 -0.3190 -0.1922 -1.0920
  287MOL0     H38734   4.871   5.875   5.048  0.8516 -2.6551 -1.2341
  287MOL0     H38735   4.576   6.108   5.030 -0.9905 -1.3915 -0.3306
  287MOL0     H38736   4.744   6.054   5.033  1.2427 -0.1273 -1.6545
  287MOL0     H38737   4.695   5.913   4.837 -1.8662 -2.9864  2.2627
  287MOL0     H38738   4.652   6.079   4.806 -3.7908 -0.4107 -1.7824
  287MOL0     H38739   4.469   5.846   4.866 -0.8306 -0.0121 -0.9108
  287MOL0     H38740   4.491   5.934   4.709  3.0867 -0.6813  0.1760
  287MOL0     H38741   4.378   6.123   4.782  0.2123 -0.1447  1.0966
  287MOL0     H38742   4.375   6.078   4.952  2.4779 -2.2732  1.7140
  287MOL0     H38743   4.012   5.927   4.785  1.0639 -3.6467 -2.0850
  287MOL0     H38744   4.529   5.731   5.254  0.3035  2.3989  0.4365
  287MOL0     H38745   4.676   5.611   5.414 -1.6794  0.4280  0.3233
  288MOL0     O38746   9.883   3.180  10.433  0.4225  1.5275 -0.4184
  288MOL0     C38747   9.927   3.276  10.495  0.2139 -0.2828 -0.5523
  288MOL0     O38748   9.870   3.399  10.493 -0.0663  0.1304 -0.2859
  288MOL0     C38749   9.759   3.434  10.420 -0.8284 -0.9559  0.1008
  288MOL0     C38750   9.717   3.386  10.292  0.3848 -0.1371 -0.4246
  288MOL0     C38751   9.600   3.427  10.232  0.7280  0.0468  0.1727
  288MOL0     C38752   9.532   3.532  10.283  0.1778 -0.0497 -0.2288
  288MOL0     O38753   9.420   3.577  10.221  0.1066 -0.1866  0.2924
  288MOL0     C38754   9.299   3.568  10.301  0.4976  0.1092 -0.1855
  288MOL0     C38755   9.168   3.590  10.223 -0.7028 -0.6730 -0.5917
  288MOL0     C38756   9.041   3.564  10.295  0.2417  0.3245  0.0276
  288MOL0     C38757   8.924   3.604  10.212  0.4817  1.2549 -0.0524
  288MOL0     C38758   8.787   3.565  10.263  0.0833  0.6013 -0.6962
  288MOL0     C38759   8.690   3.528  10.151 -0.0281 -0.2043 -0.2100
  288MOL0     C38760   8.552   3.479  10.205 -0.1389 -0.0637 -0.1539
  288MOL0     C38761   8.463   3.407  10.108  0.3260 -0.2137 -0.0237
  288MOL0     N38762   8.332   3.459  10.138  0.4365 -0.5747 -0.4929
  288MOL0     C38763   8.257   3.406  10.236  0.3757 -1.4206  0.6612
  288MOL0     C38764   8.148   3.489  10.248  0.0602 -0.3704 -0.9558
  288MOL0     C38765   8.041   3.472  10.354  0.0937 -0.0162  0.8889
  288MOL0     C38766   7.905   3.413  10.310  0.5864  0.4153  0.0852
  288MOL0     C38767   7.829   3.499  10.202  0.1194  0.2268  0.5269
  288MOL0     C38768   7.703   3.420  10.164 -0.4841 -1.3395  1.4835
  288MOL0     O38769   7.614   3.412  10.275  0.5720 -1.6314 -0.2920
  288MOL0     C38770   7.519   3.513  10.300 -0.5519 -0.2104 -0.4401
  288MOL0     C38771   7.519   3.643  10.257  0.4747 -0.1634  0.4660
  288MOL0     C38772   7.425   3.737  10.295 -1.0141 -0.3691  0.2494
  288MOL0     C38773   7.458   3.877  10.243  0.5980 -0.8163  0.4429
  288MOL0     C38774   7.331   3.704  10.387  0.1245  0.2120  0.6734
  288MOL0     C38775   7.227   3.801  10.437  0.0756 -0.3995  0.0283
  288MOL0     O38776   7.173   3.791  10.561 -0.2795  0.0381 -0.1549
  288MOL0     C38777   7.036   3.804  10.570  0.6910 -0.2641 -0.1959
  288MOL0     C38778   6.973   3.922  10.566 -1.3161 -0.0868  0.0458
  288MOL0     C38779   6.834   3.923  10.578  0.3436  0.5115 -0.6121
  288MOL0     C38780   6.755   3.805  10.602 -0.6237 -0.8837 -0.2843
  288MOL0     O38781   6.618   3.798  10.605 -1.1180  0.0025 -0.2952
  288MOL0     C38782   6.554   3.909  10.663 -0.0704  0.1480 -0.1968
  288MOL0     C38783   6.403   3.877  10.695 -0.1201 -0.3340  0.1445
  288MOL0     C38784   6.325   3.830  10.570 -1.3795 -0.3137 -0.3959
  288MOL0     C38785   6.177   3.801  10.601 -0.8682  1.1351 -0.6158
  288MOL0     C38786   6.089   3.771  10.476 -0.0578 -0.6032 -0.1084
  288MOL0     C38787   6.157   3.702  10.360 -0.3314 -0.3676 -0.0886
  288MOL0     C38788   6.050   3.653  10.255  0.3871  0.8565 -0.3826
  288MOL0     C38789   6.106   3.679  10.123 -0.0287 -0.9280  0.5333
  288MOL0    Cl38790   6.011   3.577  10.006  0.2330 -0.1006 -0.3471
  288MOL0     C38791   6.829   3.690  10.623  0.4650 -0.2681 -0.9828
  288MOL0     C38792   6.968   3.691  10.604 -0.7435  0.0155  0.4382
  288MOL0     O38793   7.189   3.884  10.355 -0.6803 -0.2771 -0.1286
  288MOL0     C38794   7.335   3.572  10.445  0.3369 -0.5541  0.8798
  288MOL0     C38795   7.423   3.482  10.392 -0.4115  0.0491 -0.4636
  288MOL0     N38796   8.159   3.595  10.162 -0.9146 -0.3613 -0.7258
  288MOL0     N38797   8.270   3.576  10.094 -0.3347 -0.2291  0.7497
  288MOL0     C38798   9.585   3.601  10.399  0.9224  0.0704  0.2375
  288MOL0     C38799   9.694   3.553  10.465 -1.2439  0.9813  0.6067
  288MOL0     C38800  10.060   3.264  10.565  0.2982  0.0826  0.6036
  288MOL0     C38801  10.126   3.137  10.570 -0.0063 -0.4578  0.5335
  288MOL0     C38802  10.255   3.123  10.617  1.3496 -0.4967  0.3362
  288MOL0     C38803  10.320   3.237  10.672  0.5752  0.2040 -0.6760
  288MOL0     O38804  10.446   3.208  10.699  0.2323  0.3850  0.1110
  288MOL0     C38805  10.491   3.218  10.835  0.0020 -0.0687 -0.2059
  288MOL0     C38806  10.404   3.136  10.935  0.7559 -0.9720 -0.2664
  288MOL0     C38807  10.484   3.084  11.055 -0.4764  0.0952 -0.2350
  288MOL0     C38808  10.535   3.197  11.144  0.5261  0.0962 -0.1922
  288MOL0     C38809  10.420   3.251  11.207  0.2029  0.5185 -0.9395
  288MOL0     C38810  10.319   3.295  11.259  0.4935 -0.3403 -0.0746
  288MOL0     C38811  10.254   3.359  10.673  0.4966  0.0700 -0.0547
  288MOL0     C38812  10.126   3.375  10.617  0.4988  0.4406 -0.1173
  288MOL0     H38813   9.767   3.301  10.246 -1.6312 -0.7440 -1.6264
  288MOL0     H38814   9.551   3.392  10.141 -2.2300  0.4423  1.4970
  288MOL0     H38815   9.299   3.468  10.346  0.1473 -0.8786 -2.2480
  288MOL0     H38816   9.299   3.646  10.377  2.1634  0.2333 -0.2677
  288MOL0     H38817   9.167   3.697  10.204  3.1162 -0.3000  0.4726
  288MOL0     H38818   9.181   3.543  10.125  0.7898  0.5135 -1.0022
  288MOL0     H38819   9.032   3.456  10.313 -0.4171  0.0739 -1.6778
  288MOL0     H38820   9.042   3.611  10.394  2.7220 -0.5949  0.5109
  288MOL0     H38821   8.939   3.711  10.197  2.0120  1.1933  0.8313
  288MOL0     H38822   8.940   3.562  10.112  1.8364  0.8167  0.3368
  288MOL0     H38823   8.799   3.477  10.328 -0.7279  2.8395  2.7454
  288MOL0     H38824   8.744   3.640  10.329 -0.8081 -0.0314 -0.5428
  288MOL0     H38825   8.669   3.619  10.095 -0.1503  1.4192  2.3034
  288MOL0     H38826   8.748   3.455  10.094  3.3138  0.0989  2.4716
  288MOL0     H38827   8.567   3.426  10.300 -0.6230 -0.0537 -0.0690
  288MOL0     H38828   8.506   3.575  10.230 -0.0588 -0.1984  0.5377
  288MOL0     H38829   8.466   3.299  10.127 -2.3539 -0.0889  1.6814
  288MOL0     H38830   8.492   3.435  10.007 -2.8833  1.2181 -0.6699
  288MOL0     H38831   8.279   3.313  10.287  2.6030  0.0454  2.5431
  288MOL0     H38832   8.081   3.409  10.435  0.2770  0.0955  0.8850
  288MOL0     H38833   8.021   3.569  10.400 -1.5390  0.9072 -1.5586
  288MOL0     H38834   7.836   3.427  10.394 -0.8152  3.1968 -1.3864
  288MOL0     H38835   7.913   3.311  10.270  2.9049  1.3534 -2.1298
  288MOL0     H38836   7.887   3.504  10.109  1.0350 -0.3052  1.0471
  288MOL0     H38837   7.810   3.594  10.252  3.0210 -0.7812  4.0040
  288MOL0     H38838   7.746   3.322  10.140  0.1269 -1.5101  3.1907
  288MOL0     H38839   7.661   3.456  10.069  0.8273 -0.5189  1.2037
  288MOL0     H38840   7.594   3.681  10.188 -1.5765  1.1792 -1.1309
  288MOL0     H38841   7.561   3.872  10.206  0.9025 -5.3408  1.2654
  288MOL0     H38842   7.388   3.914  10.168  0.1181 -0.3817  1.0894
  288MOL0     H38843   7.447   3.949  10.324  2.4599 -1.7444  1.5950
  288MOL0     H38844   7.044   4.003  10.555 -0.8122 -0.7654 -2.1514
  288MOL0     H38845   6.778   4.014  10.560  0.6655  0.3685 -2.4662
  288MOL0     H38846   6.603   3.927  10.759  0.9561  2.9048 -1.1487
  288MOL0     H38847   6.553   4.006  10.612  0.0759  0.8356  1.0533
  288MOL0     H38848   6.397   3.793  10.765  0.1297  0.6331  1.3827
  288MOL0     H38849   6.356   3.966  10.739 -2.1363 -0.8776 -0.7834
  288MOL0     H38850   6.369   3.743  10.520 -1.8885  0.5718 -2.4748
  288MOL0     H38851   6.327   3.921  10.509  2.2101  0.2566  0.3389
  288MOL0     H38852   6.188   3.707  10.656  0.6592  2.2872  1.1672
  288MOL0     H38853   6.124   3.866  10.672 -1.3332  1.5523 -1.3313
  288MOL0     H38854   6.046   3.865  10.441  1.8796  1.3855  2.4345
  288MOL0     H38855   6.013   3.700  10.511  0.4112  0.1711  2.6756
  288MOL0     H38856   6.233   3.763  10.311  1.2229 -0.4143  2.0986
  288MOL0     H38857   6.212   3.611  10.390  0.9763  0.7569  1.0764
  288MOL0     H38858   5.961   3.716  10.261  0.2879  0.6595  0.2383
  288MOL0     H38859   6.034   3.546  10.267 -0.8776  1.1558  0.9066
  288MOL0     H38860   6.211   3.649  10.116  0.5338  0.6812  1.5978
  288MOL0     H38861   6.106   3.787  10.109  0.7989 -0.8613  0.9795
  288MOL0     H38862   6.783   3.598  10.657  1.3500  0.0227  1.1835
  288MOL0     H38863   7.019   3.596  10.608  2.0731  1.3383 -1.0099
  288MOL0     H38864   7.259   3.538  10.514 -2.7059  1.5623 -1.1490
  288MOL0     H38865   7.435   3.384  10.438  2.4410  1.2535  1.7030
  288MOL0     H38866   9.523   3.685  10.431 -0.6371 -1.3219  1.0098
  288MOL0     H38867   9.728   3.599  10.558 -0.0470 -3.1362  2.4370
  288MOL0     H38868  10.078   3.049  10.528 -3.1383  0.5609  1.6801
  288MOL0     H38869  10.305   3.027  10.606  0.2720 -1.1640  1.0393
  288MOL0     H38870  10.595   3.184  10.839 -0.0495 -0.1194  1.7293
  288MOL0     H38871  10.495   3.321  10.870  0.1291 -0.8928  2.4072
  288MOL0     H38872  10.351   3.050  10.892 -0.2345 -0.5023 -0.0051
  288MOL0     H38873  10.325   3.199  10.976  0.1313 -1.0636 -1.2824
  288MOL0     H38874  10.566   3.031  11.005  0.8975  1.0028  0.9623
  288MOL0     H38875  10.424   3.011  11.110 -3.5031  0.0220 -3.3252
  288MOL0     H38876  10.595   3.268  11.086  1.2646 -0.3579 -0.0044
  288MOL0     H38877  10.596   3.147  11.220 -0.5105 -1.0029 -0.0479
  288MOL0     H38878  10.230   3.334  11.305  2.3971  4.3156  0.1540
  288MOL0     H38879  10.314   3.445  10.701  0.5894  0.0594 -0.2187
  288MOL0     H38880  10.092   3.478  10.614  1.9027  0.9038 -2.4102
  289MOL0     O38881  10.407   4.022   7.364 -0.4173  0.3069  0.9811
  289MOL0     C38882  10.429   3.901   7.372  0.4208  0.1856 -0.7378
  289MOL0     O38883  10.397   3.831   7.481  0.1527  0.6493  0.1347
  289MOL0     C38884  10.273   3.864   7.548  0.0069  0.3910 -0.4108
  289MOL0     C38885  10.260   3.822   7.680  0.1993 -0.9153  0.8135
  289MOL0     C38886  10.152   3.866   7.753  0.7316  0.0891  0.7676
  289MOL0     C38887  10.047   3.948   7.699  0.2967 -0.8514 -0.2799
  289MOL0     O38888   9.939   3.979   7.774 -0.7699  0.5484 -0.4286
  289MOL0     C38889   9.850   4.071   7.717 -0.1463 -0.8821 -0.3841
  289MOL0     C38890   9.720   4.074   7.802 -0.0264 -0.6351  0.1183
  289MOL0     C38891   9.655   3.940   7.839 -0.1634 -0.9934  0.2633
  289MOL0     C38892   9.580   3.879   7.717 -0.5505 -0.0372  0.8855
  289MOL0     C38893   9.480   3.773   7.756  0.0494  0.0509 -0.0967
  289MOL0     C38894   9.418   3.711   7.638  0.2293 -0.1266 -0.4244
  289MOL0     C38895   9.313   3.611   7.679  0.3812 -0.1643  0.0813
  289MOL0     C38896   9.183   3.674   7.730 -0.0976 -0.9408 -0.1477
  289MOL0     N38897   9.119   3.751   7.625 -0.0706 -0.7170  0.3434
  289MOL0     C38898   9.058   3.697   7.517  0.9489  0.2712  0.6940
  289MOL0     C38899   9.014   3.800   7.431  0.2495 -0.3451  0.0996
  289MOL0     C38900   8.926   3.804   7.311  0.1481 -0.1922  0.5640
  289MOL0     C38901   8.777   3.816   7.342 -0.6888  0.9146  0.2624
  289MOL0     C38902   8.691   3.783   7.223  0.3336 -0.4224  0.9515
  289MOL0     C38903   8.542   3.811   7.246 -0.0122 -1.2251  0.7331
  289MOL0     O38904   8.466   3.815   7.118  0.2331 -0.0250  0.0840
  289MOL0     C38905   8.331   3.771   7.120 -0.1910  0.1494  0.2628
  289MOL0     C38906   8.242   3.760   7.227 -0.4059 -0.3885  0.5586
  289MOL0     C38907   8.108   3.729   7.211  0.7738 -0.8141  0.0641
  289MOL0     C38908   8.023   3.714   7.336 -0.6476  0.1263  0.4022
  289MOL0     C38909   8.063   3.704   7.082 -0.1559 -0.3724  0.3199
  289MOL0     C38910   7.918   3.663   7.058 -0.5066  0.1734  0.0570
  289MOL0     O38911   7.815   3.737   7.120  0.0725 -0.1633  0.4018
  289MOL0     C38912   7.692   3.689   7.092  0.1676 -1.0540  0.0583
  289MOL0     C38913   7.603   3.756   6.995 -0.7891  1.0154 -0.4724
  289MOL0     C38914   7.478   3.708   6.970  1.2087 -0.0175 -0.4668
  289MOL0     C38915   7.430   3.591   7.044  0.8837 -1.1946  0.5696
  289MOL0     O38916   7.297   3.560   7.016 -0.5749 -0.2278  0.9629
  289MOL0     C38917   7.255   3.425   7.043 -0.4039  0.2997  0.1232
  289MOL0     C38918   7.122   3.393   6.957 -0.5558  0.4510 -0.6359
  289MOL0     C38919   7.150   3.427   6.812  0.2062 -0.5438  0.3550
  289MOL0     C38920   7.229   3.318   6.739  0.8756  0.0437  0.4805
  289MOL0     C38921   7.144   3.250   6.636  0.8571 -0.7001  0.3695
  289MOL0     C38922   7.161   3.324   6.499  0.1503  0.8018  0.8378
  289MOL0     C38923   7.072   3.247   6.402 -0.4122 -0.4318 -0.9665
  289MOL0     C38924   7.133   3.241   6.262 -0.3101 -0.5261 -0.0086
  289MOL0    Cl38925   7.280   3.141   6.259  0.2940  0.0160  0.2154
  289MOL0     C38926   7.514   3.532   7.134 -0.1437 -0.0096 -0.6637
  289MOL0     C38927   7.645   3.581   7.156 -0.2776  0.5991 -1.3330
  289MOL0     O38928   7.896   3.563   6.988 -0.8629 -0.4269 -0.2712
  289MOL0     C38929   8.150   3.713   6.975  0.2204 -1.3790 -0.6527
  289MOL0     C38930   8.283   3.743   6.994  0.1786  0.3755 -0.0722
  289MOL0     N38931   9.064   3.919   7.488  0.4953  1.7387 -0.6373
  289MOL0     N38932   9.127   3.888   7.595 -0.0707 -0.2529  0.4440
  289MOL0     C38933  10.062   3.981   7.563 -0.3828  0.6040  0.1747
  289MOL0     C38934  10.170   3.939   7.490 -0.6386  1.4083  0.1352
  289MOL0     C38935  10.504   3.828   7.261  0.4618 -0.4041 -0.6670
  289MOL0     C38936  10.563   3.709   7.301 -0.4749  0.4028 -0.0578
  289MOL0     C38937  10.627   3.629   7.203  0.5560  0.3770 -0.6554
  289MOL0     C38938  10.635   3.675   7.070  0.1455  0.4761 -0.2716
  289MOL0     O38939  10.679   3.601   6.961  0.8684  0.2356 -0.4661
  289MOL0     C38940  10.765   3.494   6.987  0.2860  0.4002  0.3457
  289MOL0     C38941  10.799   3.400   6.874 -0.4486 -0.6671  0.4479
  289MOL0     C38942  10.866   3.270   6.931  0.4586 -0.7357 -0.5878
  289MOL0     C38943  10.865   3.155   6.825 -0.5249 -0.3097 -0.2333
  289MOL0     C38944  10.941   3.185   6.704 -0.6839  0.6190  0.0935
  289MOL0     C38945  11.004   3.208   6.600  0.5418  0.1573 -0.8628
  289MOL0     C38946  10.586   3.794   7.037 -0.5281  0.2343 -0.3781
  289MOL0     C38947  10.521   3.869   7.126  0.8368  0.2237  0.3505
  289MOL0     H38948  10.337   3.772   7.738 -0.3421  0.9638  3.3269
  289MOL0     H38949  10.137   3.832   7.855 -0.1493  0.4971  0.7831
  289MOL0     H38950   9.896   4.169   7.729  1.2049 -1.6798  1.3621
  289MOL0     H38951   9.821   4.040   7.616  2.6288 -1.3819 -1.0858
  289MOL0     H38952   9.743   4.106   7.904 -0.8699 -1.2486  0.5168
  289MOL0     H38953   9.650   4.145   7.755  2.8386  1.6864 -0.9204
  289MOL0     H38954   9.733   3.880   7.886 -0.0687  0.4567  2.0611
  289MOL0     H38955   9.578   3.940   7.917 -0.3483 -1.2369  0.0856
  289MOL0     H38956   9.525   3.952   7.658 -0.2854 -1.5166 -1.3212
  289MOL0     H38957   9.650   3.843   7.641 -1.7457  2.7397 -1.7359
  289MOL0     H38958   9.527   3.693   7.814 -1.1958 -0.4180  0.3009
  289MOL0     H38959   9.403   3.816   7.822  0.1772  1.3241 -0.7481
  289MOL0     H38960   9.380   3.792   7.575 -0.1938  0.4624  0.5708
  289MOL0     H38961   9.490   3.644   7.590 -0.2040 -0.4695 -0.5919
  289MOL0     H38962   9.295   3.538   7.599  0.0373 -0.2144  0.1984
  289MOL0     H38963   9.348   3.548   7.762 -0.0400  1.3325  1.4521
  289MOL0     H38964   9.216   3.743   7.809 -0.6402  0.7094 -1.3031
  289MOL0     H38965   9.112   3.608   7.780  1.2338 -2.0163  0.3856
  289MOL0     H38966   9.036   3.591   7.507  0.7366  0.4196 -0.4816
  289MOL0     H38967   8.942   3.904   7.269 -0.4827  0.9380  2.8579
  289MOL0     H38968   8.949   3.715   7.252 -2.2402 -0.9083  0.6409
  289MOL0     H38969   8.748   3.917   7.372  1.6719  0.8801  3.0634
  289MOL0     H38970   8.753   3.760   7.433 -2.0091  1.5400  0.3225
  289MOL0     H38971   8.704   3.676   7.207 -0.5697 -0.3504 -0.3892
  289MOL0     H38972   8.724   3.843   7.138 -1.6000  1.5388  1.4895
  289MOL0     H38973   8.516   3.904   7.297  2.1277 -1.0470  1.6162
  289MOL0     H38974   8.497   3.733   7.308 -0.0837 -1.0894  0.8498
  289MOL0     H38975   8.270   3.766   7.331  2.4130  0.6030 -0.1753
  289MOL0     H38976   7.998   3.813   7.376 -1.3649 -0.2733  0.9595
  289MOL0     H38977   7.930   3.664   7.311  0.3349 -1.3545 -0.4341
  289MOL0     H38978   8.065   3.656   7.419  0.5868 -0.1490 -0.3914
  289MOL0     H38979   7.643   3.835   6.932  0.8356  0.6692  0.0886
  289MOL0     H38980   7.411   3.766   6.907 -0.9449 -0.6819  1.1162
  289MOL0     H38981   7.331   3.353   7.009 -3.2243 -3.6679  1.4986
  289MOL0     H38982   7.231   3.406   7.148 -3.3404 -1.3711 -0.7623
  289MOL0     H38983   7.089   3.292   6.980  0.9657 -0.2156 -1.2363
  289MOL0     H38984   7.042   3.463   6.983 -2.2104 -1.4108 -0.5166
  289MOL0     H38985   7.206   3.519   6.795 -0.0802 -0.4189  0.0955
  289MOL0     H38986   7.053   3.447   6.766  0.2827 -2.1787 -0.5823
  289MOL0     H38987   7.319   3.362   6.696  1.1327 -1.6997 -0.8681
  289MOL0     H38988   7.260   3.239   6.807  2.8525  0.0631 -0.3426
  289MOL0     H38989   7.040   3.260   6.669  1.3060  0.6568  1.4524
  289MOL0     H38990   7.172   3.144   6.642  1.2693 -0.5581  1.1270
  289MOL0     H38991   7.126   3.426   6.516  2.6103  1.8111  0.3594
  289MOL0     H38992   7.268   3.327   6.476 -0.1673  0.1164 -0.8290
  289MOL0     H38993   6.982   3.310   6.407 -1.3468 -1.7366  4.2623
  289MOL0     H38994   7.049   3.144   6.432  1.3026 -0.1399  1.6860
  289MOL0     H38995   7.159   3.340   6.223  1.4718 -0.2618  1.6697
  289MOL0     H38996   7.050   3.205   6.200 -0.7509 -1.2702  0.9795
  289MOL0     H38997   7.485   3.445   7.192  1.3628  1.8248  3.2489
  289MOL0     H38998   7.704   3.538   7.237 -1.6236  1.2041  0.0179
  289MOL0     H38999   8.114   3.705   6.873 -2.0048 -1.8471  0.1186
  289MOL0     H39000   8.347   3.752   6.906  3.1564 -0.0322  1.9012
  289MOL0     H39001  10.008   4.057   7.507 -0.0435 -0.3533 -1.5230
  289MOL0     H39002  10.171   3.973   7.387 -1.1973 -3.2671 -1.6650
  289MOL0     H39003  10.556   3.662   7.399 -3.1816 -2.3236 -1.3713
  289MOL0     H39004  10.669   3.534   7.236 -0.6596  0.7914  2.3813
  289MOL0     H39005  10.860   3.534   7.024  2.3149 -0.8105 -3.0203
  289MOL0     H39006  10.719   3.425   7.058  2.2788 -0.3722  0.9465
  289MOL0     H39007  10.861   3.458   6.804 -1.3564 -0.2124 -0.0174
  289MOL0     H39008  10.714   3.371   6.811  0.4470 -0.6161 -0.8175
  289MOL0     H39009  10.819   3.228   7.021  0.4864 -0.2627 -0.3492
  289MOL0     H39010  10.972   3.288   6.953  0.5033 -0.8796 -0.6827
  289MOL0     H39011  10.763   3.128   6.796 -0.1680 -2.1059  0.0363
  289MOL0     H39012  10.891   3.058   6.869 -2.8098 -0.7317  0.3457
  289MOL0     H39013  11.062   3.215   6.510  1.7401 -2.3743 -0.3717
  289MOL0     H39014  10.589   3.829   6.935 -1.0344  1.6817  0.0802
  289MOL0     H39015  10.479   3.966   7.099 -0.9320 -1.0913 -2.0377
  290MOL0     O39016   4.654   8.198   9.870 -0.1755 -0.0340  0.5611
  290MOL0     C39017   4.571   8.279   9.915  0.0527  0.3953  0.6422
  290MOL0     O39018   4.595   8.406   9.961 -0.2958  0.5117  0.0658
  290MOL0     C39019   4.714   8.473   9.949  0.1902  1.2022  0.1650
  290MOL0     C39020   4.731   8.586  10.015 -0.6426 -0.4499  0.1582
  290MOL0     C39021   4.839   8.668  10.006 -0.0968 -0.3401 -0.0108
  290MOL0     C39022   4.950   8.630   9.927  0.5063 -0.2686  0.1231
  290MOL0     O39023   5.077   8.697   9.928  0.1811 -0.1782  0.3302
  290MOL0     C39024   5.090   8.824   9.986 -0.2526  0.3038 -0.3022
  290MOL0     C39025   5.240   8.846   9.996 -0.2751  0.1649  0.5053
  290MOL0     C39026   5.322   8.746  10.085 -0.3368 -0.5048  0.1716
  290MOL0     C39027   5.467   8.779  10.069  0.4035  0.4566 -0.5755
  290MOL0     C39028   5.547   8.688  10.157  0.2169 -0.1733  0.1523
  290MOL0     C39029   5.695   8.708  10.145 -0.6701 -0.0922  0.1900
  290MOL0     C39030   5.779   8.606  10.222  0.4265 -0.1752 -0.2551
  290MOL0     C39031   5.926   8.647  10.232  0.3612 -0.9126 -0.7808
  290MOL0     N39032   5.959   8.744  10.341 -0.6062  0.0286 -0.6969
  290MOL0     C39033   5.942   8.725  10.474  0.5088 -0.0336 -0.4768
  290MOL0     C39034   6.003   8.841  10.519  0.5794 -0.0855 -0.3365
  290MOL0     C39035   6.023   8.877  10.669  0.5247 -0.7624 -0.3585
  290MOL0     C39036   5.884   8.911  10.730 -0.3869 -0.4834  0.1575
  290MOL0     C39037   5.843   9.060  10.687 -0.3740  0.0910 -0.9793
  290MOL0     C39038   5.743   9.066  10.570  0.2827  0.4368  0.0170
  290MOL0     O39039   5.696   9.199  10.540 -0.4738 -0.0005 -0.0997
  290MOL0     C39040   5.580   9.209  10.461 -0.7012  0.3989  0.5991
  290MOL0     C39041   5.498   9.312  10.500  0.2830  0.6295 -0.0010
  290MOL0     C39042   5.372   9.326  10.443  0.8004  0.5441  0.0724
  290MOL0     C39043   5.283   9.436  10.494  0.0090  0.2179  0.0713
  290MOL0     C39044   5.317   9.232  10.356 -0.6103  1.3785  0.0288
  290MOL0     C39045   5.174   9.231  10.303 -0.2212 -0.8193  0.4014
  290MOL0     O39046   5.136   9.156  10.198  0.0329  0.3121 -0.2323
  290MOL0     C39047   5.002   9.152  10.156  0.7534  0.9545 -0.5384
  290MOL0     C39048   4.953   9.241  10.061  0.1974  0.4318  0.2011
  290MOL0     C39049   4.820   9.228  10.009 -1.0808 -0.0759  0.0280
  290MOL0     C39050   4.735   9.126  10.055  0.2391  0.5035  0.7634
  290MOL0     O39051   4.609   9.105  10.004  1.0025 -0.0782  0.1799
  290MOL0     C39052   4.500   9.061  10.090 -0.8596 -0.5487  0.6625
  290MOL0     C39053   4.392   9.173  10.076  0.0552  0.0234 -0.1346
  290MOL0     C39054   4.434   9.319  10.121 -1.0989  0.3763 -0.0550
  290MOL0     C39055   4.320   9.411  10.134  0.3042 -0.1403 -0.0131
  290MOL0     C39056   4.331   9.524  10.245 -0.5116 -0.4570 -1.1758
  290MOL0     C39057   4.437   9.622  10.202 -0.5404 -0.1155 -0.8070
  290MOL0     C39058   4.445   9.715  10.318 -0.1061 -0.4866  0.8226
  290MOL0     C39059   4.546   9.832  10.300  0.0580  0.6017  0.7019
  290MOL0    Cl39060   4.503   9.936  10.156  0.6653  0.2489  0.2692
  290MOL0     C39061   4.790   9.030  10.147 -0.3195  0.0945 -0.4384
  290MOL0     C39062   4.917   9.054  10.194 -0.6405 -0.3595  0.0223
  290MOL0     O39063   5.094   9.304  10.363 -0.4973  0.4013  0.2720
  290MOL0     C39064   5.407   9.128  10.316  0.8410  0.9945 -0.0021
  290MOL0     C39065   5.535   9.112  10.364  0.9585  0.8521 -0.4738
  290MOL0     N39066   6.053   8.915  10.411 -0.0809  0.3492 -0.5671
  290MOL0     N39067   6.019   8.857  10.307  0.2688 -0.0968 -0.1158
  290MOL0     C39068   4.935   8.508   9.859 -0.3521  0.1935  0.5122
  290MOL0     C39069   4.824   8.433   9.865  0.0669 -0.2830  0.8098
  290MOL0     C39070   4.437   8.231   9.919  1.1747 -0.3001  0.5129
  290MOL0     C39071   4.400   8.108   9.854  0.0846 -0.0537 -0.1187
  290MOL0     C39072   4.270   8.050   9.855 -0.0616 -0.3011  0.2589
  290MOL0     C39073   4.170   8.122   9.913  0.2756  0.3036 -0.9798
  290MOL0     O39074   4.033   8.095   9.900  0.7636  0.2342  0.0078
  290MOL0     C39075   3.989   7.955   9.883 -0.0163  0.4935 -0.3038
  290MOL0     C39076   3.994   7.866  10.019  0.6029 -1.0405  0.3233
  290MOL0     C39077   3.873   7.902  10.115 -0.0679  0.3103 -0.4133
  290MOL0     C39078   3.812   7.799  10.214  0.1046  0.1472 -0.1788
  290MOL0     C39079   3.919   7.738  10.285  0.5447  0.6728 -0.1460
  290MOL0     C39080   4.021   7.696  10.342 -1.2391 -0.0859 -0.2096
  290MOL0     C39081   4.203   8.248   9.964  0.2675 -0.2712  0.9046
  290MOL0     C39082   4.329   8.296   9.971  0.3624 -0.3209  0.4346
  290MOL0     H39083   4.645   8.617  10.073 -0.7510  0.6280 -0.5549
  290MOL0     H39084   4.834   8.764  10.057  0.7004 -0.6956  0.7672
  290MOL0     H39085   5.040   8.898   9.922  2.2136 -0.7356 -3.7013
  290MOL0     H39086   5.047   8.829  10.086 -0.3493 -1.7884 -0.1990
  290MOL0     H39087   5.281   8.831   9.896 -0.9885  2.1063 -0.1258
  290MOL0     H39088   5.254   8.950  10.028 -0.3568  0.5490 -0.6519
  290MOL0     H39089   5.299   8.759  10.191  0.9519  0.9020  0.3119
  290MOL0     H39090   5.305   8.644  10.049 -2.1661  0.1805 -1.0583
  290MOL0     H39091   5.500   8.760   9.966  1.0939 -0.3083 -0.2249
  290MOL0     H39092   5.472   8.884  10.098 -3.1323 -0.1967  3.3418
  290MOL0     H39093   5.515   8.685  10.261 -2.4008  0.7868 -0.5618
  290MOL0     H39094   5.539   8.583  10.127  2.6621 -0.0130 -1.3865
  290MOL0     H39095   5.721   8.693  10.040 -1.5881 -1.4249  0.1251
  290MOL0     H39096   5.722   8.810  10.172 -0.8781  0.0196 -0.0268
  290MOL0     H39097   5.728   8.600  10.319  0.0018 -1.1977 -0.5349
  290MOL0     H39098   5.762   8.508  10.177  0.0100 -0.3066  0.1761
  290MOL0     H39099   5.970   8.688  10.141 -0.4382 -0.0011 -0.7676
  290MOL0     H39100   5.988   8.565  10.271  0.6949  0.4535  1.7764
  290MOL0     H39101   5.904   8.632  10.515 -1.0972 -0.1428 -2.0966
  290MOL0     H39102   6.068   8.791  10.719  1.2773  0.2189  0.7252
  290MOL0     H39103   6.081   8.969  10.687 -0.8409  0.1819 -0.6421
  290MOL0     H39104   5.884   8.905  10.839 -2.4777 -0.8901  0.1840
  290MOL0     H39105   5.811   8.836  10.699 -0.4455 -0.6230  0.6148
  290MOL0     H39106   5.931   9.114  10.650  0.1905 -0.3971 -0.3656
  290MOL0     H39107   5.810   9.111  10.779  2.6246 -1.0630  0.8742
  290MOL0     H39108   5.662   8.998  10.596  2.5133 -1.1522  3.5331
  290MOL0     H39109   5.790   9.025  10.480  0.6089  1.6618 -0.3984
  290MOL0     H39110   5.535   9.380  10.576  0.6714 -1.3926  1.7331
  290MOL0     H39111   5.215   9.409  10.576 -1.0683  3.8753  0.5725
  290MOL0     H39112   5.353   9.512  10.531  1.6434 -1.7059  1.1269
  290MOL0     H39113   5.222   9.483  10.416 -1.5993  0.7395  1.5749
  290MOL0     H39114   5.028   9.309  10.021  2.1693 -1.5654  0.3118
  290MOL0     H39115   4.787   9.302   9.936  2.4891  0.3901 -1.3269
  290MOL0     H39116   4.467   8.962  10.058  1.6859 -0.8178 -1.5157
  290MOL0     H39117   4.534   9.046  10.192 -0.2726  1.2520  0.7657
  290MOL0     H39118   4.371   9.189   9.969  1.5534 -2.0322 -0.8052
  290MOL0     H39119   4.308   9.144  10.139  1.6851  1.1406  2.7099
  290MOL0     H39120   4.500   9.360  10.044  0.0411 -0.6772  0.3250
  290MOL0     H39121   4.491   9.304  10.213 -1.6817  0.7641  0.3793
  290MOL0     H39122   4.309   9.459  10.036 -2.3796 -0.8697 -0.1459
  290MOL0     H39123   4.230   9.357  10.164  0.3726  0.2271  0.8631
  290MOL0     H39124   4.356   9.485  10.344  0.3581 -0.7776 -1.5124
  290MOL0     H39125   4.236   9.577  10.255 -0.1327  0.1310 -0.6437
  290MOL0     H39126   4.542   9.594  10.188  0.4268  1.6866  1.8825
  290MOL0     H39127   4.405   9.677  10.113  1.0221  2.0100 -0.1541
  290MOL0     H39128   4.487   9.663  10.405 -0.6758 -2.3762 -0.0051
  290MOL0     H39129   4.347   9.761  10.336  0.0007  0.5637 -0.9974
  290MOL0     H39130   4.647   9.797  10.275  0.0876  0.0956  1.4739
  290MOL0     H39131   4.558   9.904  10.382 -0.2592  2.1966 -0.6096
  290MOL0     H39132   4.738   8.939  10.176  1.2908 -0.8753 -0.4772
  290MOL0     H39133   4.964   8.976  10.253  1.0886 -0.5610 -1.5288
  290MOL0     H39134   5.366   9.040  10.267  1.1109  0.6966  0.2976
  290MOL0     H39135   5.588   9.022  10.333  1.5678  1.4080 -1.0470
  290MOL0     H39136   5.023   8.482   9.801 -0.3532  0.8245  0.2219
  290MOL0     H39137   4.811   8.346   9.801  0.6277  1.1372 -1.3347
  290MOL0     H39138   4.478   8.061   9.795  2.4251  4.6714 -1.3522
  290MOL0     H39139   4.255   7.960   9.796  1.7914  0.8182 -2.1048
  290MOL0     H39140   3.886   7.959   9.846 -0.0730  6.3221 -0.4959
  290MOL0     H39141   4.050   7.916   9.801  1.4044  2.3200 -0.1962
  290MOL0     H39142   4.090   7.873  10.071  0.6445  1.7107  0.0035
  290MOL0     H39143   3.982   7.764   9.982  1.7440 -1.1331  0.1671
  290MOL0     H39144   3.794   7.926  10.043  0.8174  0.9248 -1.2025
  290MOL0     H39145   3.899   7.992  10.172 -1.7365  0.6826 -0.1875
  290MOL0     H39146   3.762   7.725  10.151  0.9565 -1.5744  1.0617
  290MOL0     H39147   3.745   7.852  10.282 -0.2483 -0.3529 -0.1369
  290MOL0     H39148   4.111   7.667  10.392 -0.9392 -3.0909 -2.1790
  290MOL0     H39149   4.120   8.310   9.997 -1.5445 -0.9214 -2.0519
  290MOL0     H39150   4.340   8.394  10.015 -2.1087 -0.2434  0.9990
  291MOL0     O39151   4.215   0.767   8.845  0.3338 -0.1813  0.5878
  291MOL0     C39152   4.300   0.738   8.927 -1.0174 -1.3938 -0.2070
  291MOL0     O39153   4.328   0.616   8.969  0.0665  0.3041 -0.5858
  291MOL0     C39154   4.254   0.515   8.919  0.8156 -0.7243  0.2124
  291MOL0     C39155   4.287   0.467   8.796  0.0000 -0.4582  1.0019
  291MOL0     C39156   4.222   0.358   8.744  0.4643 -0.2099  0.3211
  291MOL0     C39157   4.114   0.302   8.814  0.6353  1.3220  0.0103
  291MOL0     O39158   4.043   0.193   8.775  1.1171  0.3559  0.6065
  291MOL0     C39159   4.022   0.166   8.636  0.9982  0.6630  0.3372
  291MOL0     C39160   3.964   0.290   8.565 -0.3947 -0.0742  0.7924
  291MOL0     C39161   3.821   0.307   8.608  0.5558  0.0625  0.4228
  291MOL0     C39162   3.768   0.442   8.553  0.4049  0.1372  0.0513
  291MOL0     C39163   3.618   0.456   8.571  0.5461 -0.2227 -0.7509
  291MOL0     C39164   3.570   0.587   8.520  0.1004  0.5498 -0.9904
  291MOL0     C39165   3.411   0.599   8.539 -0.0955  0.0304  0.1476
  291MOL0     C39166   3.354   0.734   8.540 -0.7402  0.2081 -0.0778
  291MOL0     N39167   3.213   0.741   8.547  0.7761 -0.5051  0.7524
  291MOL0     C39168   3.119   0.666   8.618 -0.1693 -0.3237 -0.3834
  291MOL0     C39169   3.001   0.735   8.614  0.6778 -0.2935  0.2182
  291MOL0     C39170   2.869   0.678   8.676 -0.0652  0.6188 -0.2923
  291MOL0     C39171   2.759   0.775   8.654 -0.0295  0.3017 -0.4101
  291MOL0     C39172   2.637   0.742   8.749  0.3416  0.0886  0.1032
  291MOL0     C39173   2.544   0.636   8.693 -0.3920  0.1358 -0.3227
  291MOL0     O39174   2.612   0.512   8.698  0.3653  0.7329  0.1458
  291MOL0     C39175   2.556   0.396   8.670 -0.9928  0.1388  0.1861
  291MOL0     C39176   2.423   0.385   8.636 -0.3514  0.3058  0.8197
  291MOL0     C39177   2.367   0.263   8.602 -0.2651  0.7398  0.6507
  291MOL0     C39178   2.228   0.272   8.540  0.4016 -0.7858 -0.0509
  291MOL0     C39179   2.450   0.143   8.607  0.1674  1.0483  0.4945
  291MOL0     C39180   2.392   0.006   8.589  0.4188  0.7038 -0.2905
  291MOL0     O39181   2.478  -0.090   8.546  0.6191 -1.2279 -0.3671
  291MOL0     C39182   2.435  -0.221   8.535  0.3454  0.7122 -0.1178
  291MOL0     C39183   2.490  -0.301   8.437 -0.2442  0.3327  0.4232
  291MOL0     C39184   2.458  -0.438   8.431 -0.4437 -0.5488 -0.4114
  291MOL0     C39185   2.373  -0.501   8.523 -0.1201  0.0350 -0.5271
  291MOL0     O39186   2.332  -0.638   8.515 -0.2460  0.1896  0.8115
  291MOL0     C39187   2.205  -0.675   8.558 -0.1612  0.1705  0.8063
  291MOL0     C39188   2.100  -0.592   8.485 -0.3098  0.1158 -0.2483
  291MOL0     C39189   1.964  -0.588   8.564  0.1354  0.1921 -0.1197
  291MOL0     C39190   1.953  -0.479   8.668  0.4213 -0.1224 -0.4851
  291MOL0     C39191   1.831  -0.506   8.757  0.2362  0.1504 -0.0166
  291MOL0     C39192   1.868  -0.615   8.860 -0.4985  0.0172 -0.5223
  291MOL0     C39193   1.767  -0.632   8.971 -0.6103  0.1405 -0.1521
  291MOL0     C39194   1.633  -0.682   8.917 -0.7499 -0.5222 -0.5135
  291MOL0    Cl39195   1.498  -0.628   9.027 -0.0603  0.1305  0.2192
  291MOL0     C39196   2.328  -0.419   8.630  0.3126  0.3497  0.0616
  291MOL0     C39197   2.359  -0.278   8.632 -0.4691  0.2857  0.2250
  291MOL0     O39198   2.270  -0.008   8.609  0.1469 -0.4308  1.0622
  291MOL0     C39199   2.589   0.156   8.632 -0.3962  0.5611  0.0369
  291MOL0     C39200   2.641   0.283   8.660 -0.6106  0.1083 -0.4191
  291MOL0     N39201   3.018   0.832   8.524 -0.4020  0.1728  0.1909
  291MOL0     N39202   3.143   0.839   8.487  0.2019  0.5796 -0.0266
  291MOL0     C39203   4.089   0.335   8.945  0.5178  0.0490  0.3838
  291MOL0     C39204   4.151   0.449   8.999 -1.2755  0.1730 -0.2461
  291MOL0     C39205   4.392   0.847   8.970  0.3543 -0.1757 -0.4436
  291MOL0     C39206   4.348   0.980   8.959 -0.1215  0.2732 -0.3702
  291MOL0     C39207   4.436   1.077   8.997  0.2105 -0.5783  1.2821
  291MOL0     C39208   4.567   1.053   9.042 -0.2478 -0.1638  0.2034
  291MOL0     O39209   4.624   1.177   9.083 -0.3082 -0.0579  0.0285
  291MOL0     C39210   4.766   1.164   9.101  1.2063 -0.3311 -0.6715
  291MOL0     C39211   4.820   1.308   9.123 -0.6553  0.3527 -0.4779
  291MOL0     C39212   4.757   1.369   9.251 -1.1954 -0.5818 -0.1967
  291MOL0     C39213   4.832   1.497   9.306 -1.2089  0.2791  0.8533
  291MOL0     C39214   4.776   1.615   9.238 -0.8051 -0.2911 -0.2124
  291MOL0     C39215   4.710   1.705   9.193  0.4296 -0.2135 -0.2529
  291MOL0     C39216   4.614   0.923   9.045  0.3585 -0.0172 -0.0201
  291MOL0     C39217   4.526   0.814   9.006 -0.0978 -0.0028  0.1877
  291MOL0     H39218   4.359   0.530   8.746 -1.0843  1.1662  1.4009
  291MOL0     H39219   4.257   0.318   8.650 -0.8994 -0.9692  0.1071
  291MOL0     H39220   4.111   0.122   8.590  0.5306 -0.4329  0.4438
  291MOL0     H39221   3.950   0.084   8.625  0.9932  0.7161 -0.0452
  291MOL0     H39222   4.017   0.384   8.583 -1.9946  0.7828  1.2045
  291MOL0     H39223   3.967   0.271   8.457 -0.0632  1.8706  0.4212
  291MOL0     H39224   3.766   0.226   8.560 -0.3802  1.4584 -0.9776
  291MOL0     H39225   3.806   0.299   8.716  0.6322 -2.8797  0.3077
  291MOL0     H39226   3.810   0.522   8.615  0.8062 -0.3001  0.3506
  291MOL0     H39227   3.791   0.467   8.449 -0.7015  0.7141 -0.0740
  291MOL0     H39228   3.578   0.381   8.502  0.4044  0.5069 -1.4786
  291MOL0     H39229   3.580   0.446   8.673  0.6458 -0.9420 -0.7803
  291MOL0     H39230   3.607   0.663   8.589 -2.4004 -0.0070  1.1245
  291MOL0     H39231   3.602   0.614   8.419  1.7492 -0.6122 -0.8043
  291MOL0     H39232   3.358   0.540   8.464 -1.0348  1.4477 -0.3263
  291MOL0     H39233   3.401   0.541   8.632  1.9317 -2.9493 -1.2954
  291MOL0     H39234   3.392   0.788   8.453 -0.7641  0.5097  0.0958
  291MOL0     H39235   3.386   0.779   8.634  0.5837 -1.0678  0.1029
  291MOL0     H39236   3.139   0.577   8.677  1.5322 -0.2905 -0.8409
  291MOL0     H39237   2.847   0.583   8.625  1.3836  0.9568 -1.6276
  291MOL0     H39238   2.880   0.673   8.784  0.4804  2.1761 -0.2560
  291MOL0     H39239   2.731   0.779   8.549 -0.2311 -1.0279 -0.4336
  291MOL0     H39240   2.792   0.876   8.678 -0.7483  0.1374  1.4719
  291MOL0     H39241   2.570   0.829   8.757 -1.1015 -0.9523 -0.1589
  291MOL0     H39242   2.661   0.722   8.854  0.2207  1.3977  0.4033
  291MOL0     H39243   2.514   0.668   8.593  0.9888  0.3024 -0.6969
  291MOL0     H39244   2.457   0.635   8.760  0.9904  1.1414  1.5856
  291MOL0     H39245   2.357   0.470   8.625 -2.2052 -1.2894 -1.5401
  291MOL0     H39246   2.151   0.225   8.602  0.7910 -0.2773  0.8476
  291MOL0     H39247   2.200   0.377   8.528  1.3927 -0.4821  0.2039
  291MOL0     H39248   2.233   0.225   8.442 -0.2482  0.4564 -0.7101
  291MOL0     H39249   2.542  -0.262   8.349 -0.7075 -0.2382 -0.1133
  291MOL0     H39250   2.489  -0.501   8.348  1.6652  2.7159 -2.3272
  291MOL0     H39251   2.198  -0.781   8.531  0.0651  0.9423 -2.8860
  291MOL0     H39252   2.197  -0.661   8.666 -3.7024  3.6079  0.3337
  291MOL0     H39253   2.127  -0.491   8.452  1.8923 -1.0661 -2.2849
  291MOL0     H39254   2.073  -0.637   8.389 -0.7090  2.4832 -1.3198
  291MOL0     H39255   1.944  -0.685   8.610  0.3659 -0.4605 -1.3579
  291MOL0     H39256   1.882  -0.565   8.496 -0.2689 -2.2106 -0.5210
  291MOL0     H39257   2.038  -0.491   8.737 -1.1220  0.1757  1.5453
  291MOL0     H39258   1.961  -0.377   8.629 -2.2797 -0.0234 -0.9723
  291MOL0     H39259   1.745  -0.529   8.694  0.0956  0.1409  0.1783
  291MOL0     H39260   1.799  -0.416   8.811  0.2794  0.3223 -0.2754
  291MOL0     H39261   1.869  -0.710   8.806 -2.5109 -1.4117  1.7676
  291MOL0     H39262   1.964  -0.596   8.910 -0.3298  0.4645 -1.0012
  291MOL0     H39263   1.753  -0.529   9.003 -2.6269 -0.3901  0.9070
  291MOL0     H39264   1.811  -0.692   9.052 -0.5502  0.0116 -0.2786
  291MOL0     H39265   1.632  -0.791   8.910 -0.0546 -0.7549  2.0657
  291MOL0     H39266   1.610  -0.634   8.822  3.1732  0.0212 -1.3848
  291MOL0     H39267   2.280  -0.466   8.716  1.2775  1.2520  1.1172
  291MOL0     H39268   2.339  -0.213   8.716  1.7180  1.3496 -0.0282
  291MOL0     H39269   2.654   0.069   8.633 -2.3767 -1.0664 -1.9411
  291MOL0     H39270   2.747   0.293   8.680 -0.6516 -0.9421  0.3933
  291MOL0     H39271   4.022   0.269   9.000 -0.3241 -0.5616 -1.3162
  291MOL0     H39272   4.137   0.470   9.105 -1.1417 -1.6705  0.1730
  291MOL0     H39273   4.248   1.013   8.933  0.8650  3.4196 -0.5742
  291MOL0     H39274   4.407   1.181   8.985  0.3240 -0.4354  2.1478
  291MOL0     H39275   4.795   1.110   9.192  0.0741 -0.0317 -0.1097
  291MOL0     H39276   4.834   1.126   9.024  1.3812  1.7339 -1.5934
  291MOL0     H39277   4.781   1.357   9.033 -1.2601  1.9799  0.6333
  291MOL0     H39278   4.930   1.310   9.124 -0.4743 -1.5229 -3.3860
  291MOL0     H39279   4.762   1.292   9.329  1.6717  0.4279  0.7617
  291MOL0     H39280   4.653   1.392   9.231 -0.7000  0.5193 -1.6697
  291MOL0     H39281   4.939   1.490   9.287 -1.1767 -0.0296  1.1234
  291MOL0     H39282   4.807   1.506   9.412 -0.4621 -1.7678  1.2474
  291MOL0     H39283   4.644   1.783   9.161 -3.5432 -1.8244  3.1660
  291MOL0     H39284   4.715   0.915   9.085  2.0600  3.5713 -2.9472
  291MOL0     H39285   4.545   0.708   8.998 -2.6106 -0.6742  1.9391
  292MOL0     O39286   5.165  11.321   2.074  0.7674  0.4259 -0.4336
  292MOL0     C39287   5.079  11.404   2.049  0.6440  0.2379  0.4448
  292MOL0     O39288   4.944  11.385   2.054  0.1469  0.3971  0.1173
  292MOL0     C39289   4.884  11.265   2.084  0.4591  0.0628  0.1098
  292MOL0     C39290   4.928  11.187   2.193 -0.3915  0.0119 -0.0369
  292MOL0     C39291   4.860  11.076   2.237  0.1431  0.1673 -0.1670
  292MOL0     C39292   4.736  11.041   2.181 -0.1434 -0.0619 -0.6850
  292MOL0     O39293   4.652  10.935   2.210 -0.4553  0.3680 -0.2052
  292MOL0     C39294   4.689  10.833   2.306  0.7251 -0.1242 -0.3300
  292MOL0     C39295   4.613  10.703   2.291  0.7128 -0.5099 -0.2388
  292MOL0     C39296   4.606  10.650   2.143  0.2231 -0.3118  0.0120
  292MOL0     C39297   4.456  10.629   2.091 -0.3231  0.0362  0.2616
  292MOL0     C39298   4.461  10.577   1.939  0.4784 -0.4263 -0.7123
  292MOL0     C39299   4.320  10.556   1.893  0.1800 -0.8373 -0.4416
  292MOL0     C39300   4.305  10.470   1.761  0.3819 -0.0792  0.3939
  292MOL0     C39301   4.335  10.320   1.781 -0.4591  0.0259 -0.1810
  292MOL0     N39302   4.227  10.260   1.864  0.2806  0.0611 -0.2544
  292MOL0     C39303   4.118  10.177   1.826 -0.1038 -0.2204  0.2018
  292MOL0     C39304   4.054  10.144   1.943  0.3981 -0.5068 -1.2508
  292MOL0     C39305   3.918  10.079   1.939 -0.5408  0.3249  0.5234
  292MOL0     C39306   3.899   9.965   1.835 -0.5585  0.1709  0.4672
  292MOL0     C39307   3.767   9.887   1.861  0.4760 -0.9989  0.9250
  292MOL0     C39308   3.641   9.977   1.873  0.4340 -0.1351 -0.5272
  292MOL0     O39309   3.528   9.882   1.874 -0.5766 -0.2476  0.0199
  292MOL0     C39310   3.398   9.925   1.916  0.3399 -0.8210  0.3668
  292MOL0     C39311   3.378  10.041   1.990  0.2621 -0.0533 -0.8413
  292MOL0     C39312   3.255  10.099   2.010  1.5969  0.4820 -0.6226
  292MOL0     C39313   3.242  10.221   2.103 -0.2693  0.1235  0.1431
  292MOL0     C39314   3.145  10.026   1.955  0.6520 -0.2604 -0.1494
  292MOL0     C39315   3.008  10.070   1.972 -1.0174 -0.1616  0.4137
  292MOL0     O39316   2.937  10.037   1.861  0.6864 -0.7094  0.5124
  292MOL0     C39317   2.820  10.096   1.835 -0.4192 -1.0338 -0.6271
  292MOL0     C39318   2.708  10.017   1.853  0.1465 -0.9989  0.4853
  292MOL0     C39319   2.583  10.064   1.811  0.1702  0.0287 -0.1871
  292MOL0     C39320   2.569  10.200   1.776 -0.0606  0.2750 -0.8841
  292MOL0     O39321   2.453  10.260   1.732  0.5269  0.2780 -0.3716
  292MOL0     C39322   2.327  10.200   1.716 -0.1899  0.2019  1.4312
  292MOL0     C39323   2.222  10.306   1.673  0.0921  0.0062  0.3452
  292MOL0     C39324   2.095  10.245   1.614 -0.1244  0.0094  0.3526
  292MOL0     C39325   2.018  10.355   1.538 -0.5266  0.0914  0.2577
  292MOL0     C39326   1.891  10.312   1.471  0.2658  0.5767 -0.5283
  292MOL0     C39327   1.777  10.263   1.569 -1.0161  0.0744  0.0115
  292MOL0     C39328   1.642  10.271   1.499  0.9946  1.0323 -0.5171
  292MOL0     C39329   1.638  10.166   1.380  0.1171 -0.8892 -0.1037
  292MOL0    Cl39330   1.498  10.203   1.268  0.4229 -0.0290 -0.4527
  292MOL0     C39331   2.682  10.281   1.762 -0.5488 -0.1016 -0.3988
  292MOL0     C39332   2.808  10.230   1.796  0.3582  0.4086 -0.3261
  292MOL0     O39333   2.975  10.131   2.072 -0.5752  0.2243 -0.0622
  292MOL0     C39334   3.169   9.907   1.888  0.0046 -0.0553 -0.1027
  292MOL0     C39335   3.291   9.860   1.865  0.4880 -0.5958 -0.1665
  292MOL0     N39336   4.128  10.205   2.045 -1.0125 -0.0302 -0.1567
  292MOL0     N39337   4.223  10.268   1.999 -0.4392  0.1928 -0.3025
  292MOL0     C39338   4.686  11.129   2.079 -0.0261  0.5534  0.5768
  292MOL0     C39339   4.763  11.232   2.036  0.7844 -0.2154 -0.0776
  292MOL0     C39340   5.109  11.534   1.997 -0.2243  0.2174 -0.3810
  292MOL0     C39341   5.248  11.578   1.985  0.0522 -0.2100 -0.3210
  292MOL0     C39342   5.284  11.698   1.932 -0.4643 -0.2743 -0.6928
  292MOL0     C39343   5.189  11.796   1.907  0.0908 -0.0665  0.4559
  292MOL0     O39344   5.225  11.916   1.862  0.1571 -0.1324  0.1364
  292MOL0     C39345   5.142  12.031   1.848 -0.5828  0.3470 -0.6047
  292MOL0     C39346   5.112  12.110   1.973 -0.5395  1.0171 -0.1591
  292MOL0     C39347   5.221  12.186   2.053 -0.2807  0.1007  0.9865
  292MOL0     C39348   5.175  12.241   2.188 -0.2498  0.4685  0.4755
  292MOL0     C39349   5.074  12.342   2.177  0.2167 -0.8914 -0.5289
  292MOL0     C39350   5.005  12.440   2.158 -0.3149  0.3489 -0.3413
  292MOL0     C39351   5.052  11.761   1.918 -0.2467 -0.4848 -0.2648
  292MOL0     C39352   5.018  11.629   1.966  0.2392  0.0030 -0.4392
  292MOL0     H39353   5.026  11.200   2.237  1.0655 -3.4456 -1.8636
  292MOL0     H39354   4.901  11.021   2.321  4.0564  2.4976 -0.2927
  292MOL0     H39355   4.793  10.800   2.295 -0.0137 -2.5884 -0.7081
  292MOL0     H39356   4.665  10.872   2.405  0.8038  0.5596 -0.5770
  292MOL0     H39357   4.654  10.623   2.353 -2.6017 -0.8474  1.7204
  292MOL0     H39358   4.519  10.717   2.345 -0.8507  0.4390 -2.9790
  292MOL0     H39359   4.645  10.728   2.076 -0.3845  1.0085  1.1446
  292MOL0     H39360   4.680  10.570   2.140  2.5799  1.7530 -0.4775
  292MOL0     H39361   4.399  10.551   2.144 -1.2886 -0.7862 -1.8839
  292MOL0     H39362   4.398  10.719   2.110 -0.4051  0.2472 -0.9742
  292MOL0     H39363   4.513  10.648   1.874 -1.3205  2.5291  0.8496
  292MOL0     H39364   4.510  10.480   1.932  0.9771 -0.0813 -2.5803
  292MOL0     H39365   4.256  10.515   1.972  0.7772  2.2224  1.7976
  292MOL0     H39366   4.279  10.653   1.865  2.0726 -0.5761 -2.6416
  292MOL0     H39367   4.211  10.472   1.706  2.0234 -0.4034 -2.6350
  292MOL0     H39368   4.382  10.507   1.692  0.2066  0.6640  0.5961
  292MOL0     H39369   4.432  10.318   1.831 -1.1686  1.9901  1.4353
  292MOL0     H39370   4.343  10.252   1.695  0.5558 -4.2732  2.9851
  292MOL0     H39371   4.083  10.149   1.727 -2.2059  0.5902  0.6703
  292MOL0     H39372   3.914  10.026   2.035 -1.0413 -1.5694 -0.5119
  292MOL0     H39373   3.837  10.152   1.946 -0.6701  0.0416  3.1192
  292MOL0     H39374   3.981   9.897   1.857 -0.6516 -0.1509 -0.1514
  292MOL0     H39375   3.904   9.999   1.731 -0.8801 -1.8949 -0.2705
  292MOL0     H39376   3.765   9.824   1.950 -4.5963 -1.2375  0.9665
  292MOL0     H39377   3.744   9.823   1.775  0.5512  0.1054  0.0521
  292MOL0     H39378   3.638  10.056   1.798 -3.2906 -2.0259 -2.6477
  292MOL0     H39379   3.646  10.029   1.970  0.3914  1.1102 -1.1756
  292MOL0     H39380   3.464  10.088   2.035 -1.3457  0.5817  1.7931
  292MOL0     H39381   3.337  10.262   2.138  0.6095  1.5771 -3.4706
  292MOL0     H39382   3.179  10.298   2.059  1.4802  0.9434 -1.0305
  292MOL0     H39383   3.190  10.183   2.192 -0.8163 -3.4738 -1.5121
  292MOL0     H39384   2.716   9.913   1.881  0.5401 -0.7086  1.5280
  292MOL0     H39385   2.500   9.993   1.807 -0.3381  0.5773  0.4607
  292MOL0     H39386   2.343  10.146   1.621  1.6984  2.4266  0.3902
  292MOL0     H39387   2.296  10.130   1.794 -0.3239 -2.6093 -0.9524
  292MOL0     H39388   2.201  10.364   1.763 -3.9298 -1.0537  0.2649
  292MOL0     H39389   2.266  10.371   1.597  0.0555 -0.6881 -0.2868
  292MOL0     H39390   2.033  10.195   1.689 -0.4086 -0.0473  0.0817
  292MOL0     H39391   2.121  10.176   1.533  2.7775  2.3466 -0.8981
  292MOL0     H39392   1.987  10.429   1.611 -2.5235 -2.3871  2.1199
  292MOL0     H39393   2.087  10.395   1.463 -1.2532  0.1384 -0.4018
  292MOL0     H39394   1.922  10.250   1.386  2.1738  3.3533 -2.0171
  292MOL0     H39395   1.841  10.396   1.420 -2.6677 -0.3215  0.6207
  292MOL0     H39396   1.794  10.157   1.590 -2.4755 -0.2480 -0.3058
  292MOL0     H39397   1.786  10.328   1.657  1.0194  0.9287 -0.7569
  292MOL0     H39398   1.639  10.376   1.467 -0.3676  2.3766  3.4399
  292MOL0     H39399   1.559  10.257   1.569  1.6369  0.9188  0.2345
  292MOL0     H39400   1.623  10.066   1.422  0.2770 -1.6449 -1.7850
  292MOL0     H39401   1.730  10.160   1.323  2.0280  0.7004  2.5518
  292MOL0     H39402   2.679  10.381   1.720 -1.2316 -0.1143 -0.3869
  292MOL0     H39403   2.897  10.292   1.787  1.3599 -0.4461  2.5618
  292MOL0     H39404   3.085   9.851   1.848  1.6192 -2.1713 -0.6495
  292MOL0     H39405   3.307   9.767   1.811 -1.2052  0.6050 -2.9780
  292MOL0     H39406   4.592  11.113   2.029 -0.5889 -0.7972  1.9833
  292MOL0     H39407   4.717  11.285   1.952  2.5418  1.6555  0.0704
  292MOL0     H39408   5.327  11.510   2.016  1.9836  2.9896  2.3156
  292MOL0     H39409   5.390  11.718   1.923 -0.8364  5.2409  2.7336
  292MOL0     H39410   5.192  12.092   1.772 -0.6995  1.4237  0.1711
  292MOL0     H39411   5.050  11.993   1.802 -0.5805 -0.1864 -0.1806
  292MOL0     H39412   5.060  12.048   2.046  0.4190  1.4828  0.9452
  292MOL0     H39413   5.038  12.186   1.947  0.1768  1.2396 -1.7082
  292MOL0     H39414   5.256  12.276   2.001  1.9134 -0.6233  1.1249
  292MOL0     H39415   5.310  12.123   2.066  3.4093  4.6142  0.2620
  292MOL0     H39416   5.258  12.272   2.252  0.6241 -1.7058  0.4676
  292MOL0     H39417   5.122  12.160   2.240 -0.6786  0.0668 -0.5685
  292MOL0     H39418   4.964  12.539   2.149 -1.2852  0.0352  0.4664
  292MOL0     H39419   4.965  11.820   1.894 -1.1967 -0.3921  2.9174
  292MOL0     H39420   4.912  11.605   1.971  0.7605 -2.6088 -0.2582
  293MOL0     O39421   3.880   0.387   2.043  0.4557 -0.8457  0.1018
  293MOL0     C39422   3.875   0.336   1.935  1.3458  0.2846  0.4532
  293MOL0     O39423   3.767   0.328   1.854  1.0009  0.1997 -0.4396
  293MOL0     C39424   3.638   0.368   1.885  0.4218 -0.4789 -0.0905
  293MOL0     C39425   3.575   0.348   2.002 -0.0505 -0.0892 -0.1124
  293MOL0     C39426   3.440   0.390   2.021 -0.0220 -0.1945 -0.3843
  293MOL0     C39427   3.362   0.440   1.905  0.2170  0.6222 -0.8086
  293MOL0     O39428   3.236   0.498   1.915  0.5066 -0.0824 -0.2040
  293MOL0     C39429   3.172   0.500   2.040  0.3642  0.0107 -0.5309
  293MOL0     C39430   3.023   0.534   2.025 -0.2489 -0.2156  0.0670
  293MOL0     C39431   2.956   0.423   1.937 -0.7176  0.0869 -1.1825
  293MOL0     C39432   2.829   0.471   1.878 -0.4630  0.5330 -0.6361
  293MOL0     C39433   2.759   0.347   1.822 -0.0033  0.3912 -0.1885
  293MOL0     C39434   2.662   0.381   1.709 -0.4804  0.8239  0.3629
  293MOL0     C39435   2.642   0.284   1.597 -0.3568  0.8102 -0.6230
  293MOL0     C39436   2.557   0.341   1.489 -0.2851  0.7075  0.4103
  293MOL0     N39437   2.423   0.400   1.520  0.3572 -0.2419 -0.0762
  293MOL0     C39438   2.313   0.326   1.513 -0.0041  0.5439  0.3902
  293MOL0     C39439   2.210   0.404   1.531 -0.0163 -0.8970 -0.8423
  293MOL0     C39440   2.060   0.371   1.504 -0.4550 -0.7216  0.0682
  293MOL0     C39441   1.977   0.452   1.587  0.6464  0.9662 -0.4054
  293MOL0     C39442   1.832   0.417   1.575  0.0795  1.2417 -0.2171
  293MOL0     C39443   1.732   0.526   1.612 -0.1230  0.1425 -0.1530
  293MOL0     O39444   1.671   0.491   1.732 -0.1661  0.0447 -0.1241
  293MOL0     C39445   1.555   0.416   1.726 -0.0467 -1.1809 -0.9720
  293MOL0     C39446   1.501   0.382   1.849  0.0912  0.2719  0.0454
  293MOL0     C39447   1.382   0.292   1.863  0.4482  0.8140  0.3422
  293MOL0     C39448   1.324   0.286   2.004  0.5401  0.9741 -0.2957
  293MOL0     C39449   1.336   0.234   1.748  0.6698 -0.1679 -0.0558
  293MOL0     C39450   1.224   0.133   1.752  1.0038 -0.0859  0.4611
  293MOL0     O39451   1.184   0.087   1.624 -0.5094 -0.5795 -0.4933
  293MOL0     C39452   1.085  -0.011   1.611  0.2996  0.0914 -0.2516
  293MOL0     C39453   0.988   0.026   1.525 -0.5056 -1.1179 -0.0610
  293MOL0     C39454   0.890  -0.065   1.500  0.7326 -0.5202 -0.0652
  293MOL0     C39455   0.872  -0.181   1.583  0.0443 -0.3899 -0.1243
  293MOL0     O39456   0.762  -0.251   1.552 -0.3694  0.9704 -0.0768
  293MOL0     C39457   0.727  -0.370   1.629 -0.1105 -0.2766  0.0576
  293MOL0     C39458   0.601  -0.409   1.554  0.3609  0.9733 -0.2180
  293MOL0     C39459   0.564  -0.558   1.568  1.3722 -1.0651 -0.6523
  293MOL0     C39460   0.424  -0.582   1.504 -0.4052  0.5441  0.2877
  293MOL0     C39461   0.356  -0.725   1.538  0.1142  0.5502  0.1754
  293MOL0     C39462   0.234  -0.766   1.458 -0.7591 -0.3516  0.5001
  293MOL0     C39463   0.220  -0.919   1.461 -0.3617 -0.1219 -0.2797
  293MOL0     C39464   0.321  -0.987   1.372 -0.3315 -0.5699  0.1914
  293MOL0    Cl39465   0.280  -1.166   1.363 -0.2406 -0.4257  0.5149
  293MOL0     C39466   0.970  -0.214   1.681  0.4545 -0.3552  0.9743
  293MOL0     C39467   1.074  -0.126   1.684 -0.3400  0.3023 -0.3678
  293MOL0     O39468   1.167   0.102   1.854 -0.3595  1.0034  0.4037
  293MOL0     C39469   1.403   0.266   1.623  0.1654  0.3667 -0.1897
  293MOL0     C39470   1.508   0.358   1.617 -0.8247  1.2091 -0.0193
  293MOL0     N39471   2.256   0.527   1.566 -1.4221  0.1404  0.9686
  293MOL0     N39472   2.389   0.528   1.559 -0.1245  0.2050  0.0473
  293MOL0     C39473   3.425   0.448   1.785 -0.4181  0.4307  0.1588
  293MOL0     C39474   3.560   0.407   1.776 -1.0664 -0.6183  0.2311
  293MOL0     C39475   3.998   0.282   1.863  0.2632  0.4886 -0.9184
  293MOL0     C39476   4.011   0.248   1.723  0.1741 -0.2296  0.2530
  293MOL0     C39477   4.134   0.217   1.657  0.4795  0.3675  0.0911
  293MOL0     C39478   4.247   0.192   1.734 -0.2267  0.4155 -0.4235
  293MOL0     O39479   4.361   0.170   1.664  0.4909 -0.6131 -0.9496
  293MOL0     C39480   4.469   0.219   1.741  0.5501  0.0175 -0.1845
  293MOL0     C39481   4.471   0.369   1.757  0.2040 -0.1821 -0.0417
  293MOL0     C39482   4.585   0.409   1.857 -0.3398  0.6937  0.2042
  293MOL0     C39483   4.588   0.556   1.869 -0.2101 -0.2319 -0.0111
  293MOL0     C39484   4.697   0.610   1.960 -0.3394  0.6425  0.9212
  293MOL0     C39485   4.788   0.628   2.034 -0.0806 -0.2254 -0.6774
  293MOL0     C39486   4.232   0.212   1.876 -0.1583  0.1961 -0.3384
  293MOL0     C39487   4.115   0.268   1.938 -0.4963  0.9016  0.4769
  293MOL0     H39488   3.633   0.313   2.087 -0.7176  1.1314  0.8744
  293MOL0     H39489   3.412   0.387   2.126  2.3981 -0.7959  0.3102
  293MOL0     H39490   3.171   0.403   2.090 -0.0200 -0.3432 -1.2195
  293MOL0     H39491   3.219   0.571   2.109 -0.6991 -0.5042  0.7732
  293MOL0     H39492   2.968   0.541   2.119 -1.1116 -1.2629 -0.3375
  293MOL0     H39493   3.000   0.631   1.979 -0.1913  0.0066  0.5016
  293MOL0     H39494   3.027   0.398   1.857  1.1599 -0.7253  0.6384
  293MOL0     H39495   2.940   0.342   2.008  0.4467  2.4718  2.0277
  293MOL0     H39496   2.759   0.504   1.955 -0.5313  0.5161 -0.6899
  293MOL0     H39497   2.844   0.547   1.801  0.4864  2.4602  1.3759
  293MOL0     H39498   2.837   0.282   1.781  1.5864  0.9247  1.7834
  293MOL0     H39499   2.702   0.308   1.906  1.3699 -0.0007  0.6007
  293MOL0     H39500   2.563   0.397   1.754 -0.4623 -0.2248  0.8084
  293MOL0     H39501   2.704   0.467   1.657 -0.2613  1.4119  1.4750
  293MOL0     H39502   2.745   0.267   1.564 -0.6595 -1.1701 -0.6988
  293MOL0     H39503   2.603   0.186   1.625  0.9952 -0.4079 -2.6867
  293MOL0     H39504   2.544   0.256   1.421  1.5056 -1.3329  2.4468
  293MOL0     H39505   2.619   0.416   1.438 -0.7712  0.1372 -1.0649
  293MOL0     H39506   2.297   0.225   1.478  0.0051  1.1158 -1.3333
  293MOL0     H39507   2.046   0.387   1.397  1.4753  1.2051  0.0356
  293MOL0     H39508   2.044   0.264   1.523  0.7050 -0.8969  0.1738
  293MOL0     H39509   1.984   0.560   1.580 -2.4788  1.3908  1.3959
  293MOL0     H39510   1.996   0.436   1.694 -0.1403 -0.4572 -0.4472
  293MOL0     H39511   1.810   0.326   1.631  0.7585  0.6765 -0.8500
  293MOL0     H39512   1.825   0.404   1.467  1.7608 -0.5622 -0.1530
  293MOL0     H39513   1.658   0.554   1.537 -1.6081  0.2561  1.2975
  293MOL0     H39514   1.778   0.625   1.621 -2.9581  1.5161  0.1571
  293MOL0     H39515   1.549   0.426   1.936  0.2349  0.3390 -0.0688
  293MOL0     H39516   1.390   0.330   2.079  0.9866  2.0865 -1.3112
  293MOL0     H39517   1.233   0.346   1.996  0.0404  0.6715  2.2602
  293MOL0     H39518   1.300   0.185   2.038  4.8791 -1.6568 -3.8759
  293MOL0     H39519   0.997   0.116   1.464 -0.6351 -1.8763 -1.2239
  293MOL0     H39520   0.814  -0.040   1.426 -0.9659  0.2327  1.8361
  293MOL0     H39521   0.803  -0.448   1.621  2.5085  2.1989 -1.0730
  293MOL0     H39522   0.707  -0.329   1.728  0.2242  2.6775 -1.0021
  293MOL0     H39523   0.511  -0.353   1.583  0.8562  1.1185  1.0799
  293MOL0     H39524   0.610  -0.389   1.447  1.4265  0.4342 -0.2423
  293MOL0     H39525   0.552  -0.584   1.674  1.3097 -4.1637 -1.3302
  293MOL0     H39526   0.640  -0.622   1.523  2.6134 -0.4274  0.4588
  293MOL0     H39527   0.356  -0.500   1.526  0.4728  0.7660  2.3437
  293MOL0     H39528   0.436  -0.587   1.395 -0.0508 -0.4389  0.3588
  293MOL0     H39529   0.322  -0.722   1.643  3.4076 -1.1198  1.4175
  293MOL0     H39530   0.428  -0.807   1.534 -0.7371 -0.1478 -2.2329
  293MOL0     H39531   0.138  -0.723   1.484 -1.3131 -0.4972 -1.1623
  293MOL0     H39532   0.244  -0.726   1.356  0.2531 -0.8088  0.4004
  293MOL0     H39533   0.122  -0.950   1.423 -0.5582 -1.4396  1.1965
  293MOL0     H39534   0.236  -0.950   1.564  1.3206 -2.0083 -1.0492
  293MOL0     H39535   0.423  -0.971   1.407 -0.1152 -0.9517 -0.2566
  293MOL0     H39536   0.323  -0.945   1.271 -0.2637 -1.2826 -0.1119
  293MOL0     H39537   0.969  -0.302   1.745  1.5009 -1.4967 -0.4888
  293MOL0     H39538   1.163  -0.131   1.746  1.2857 -0.0925 -2.5717
  293MOL0     H39539   1.368   0.215   1.534  2.6009 -0.0886 -0.9348
  293MOL0     H39540   1.540   0.374   1.515 -0.9917  1.3423 -0.0523
  293MOL0     H39541   3.385   0.496   1.696  0.8231  0.7486 -0.2392
  293MOL0     H39542   3.613   0.424   1.683  0.1544 -2.5141  0.5253
  293MOL0     H39543   3.927   0.270   1.658  0.6662 -2.3867 -1.2202
  293MOL0     H39544   4.144   0.202   1.550  1.0606 -0.3395  0.2385
  293MOL0     H39545   4.487   0.162   1.833  1.7297 -0.0853 -0.4680
  293MOL0     H39546   4.559   0.198   1.682  0.0723 -2.1687 -0.2227
  293MOL0     H39547   4.381   0.416   1.799  0.4355  2.4956 -2.2917
  293MOL0     H39548   4.498   0.413   1.661  0.8546 -0.7577 -0.1303
  293MOL0     H39549   4.684   0.369   1.831 -0.4188 -1.3311  2.6005
  293MOL0     H39550   4.566   0.362   1.954  1.0757 -3.5612 -1.3753
  293MOL0     H39551   4.494   0.594   1.910 -0.1275 -0.3829  0.3266
  293MOL0     H39552   4.601   0.608   1.774  2.4573 -0.2774  0.2410
  293MOL0     H39553   4.864   0.658   2.104 -1.0409 -2.6775  1.6132
  293MOL0     H39554   4.322   0.203   1.937 -0.7418 -0.7796  0.4085
  293MOL0     H39555   4.130   0.299   2.041  0.3627  2.4365 -0.0826
  294MOL0     O39556   8.589   5.846   6.396 -0.1682 -0.6327 -0.2565
  294MOL0     C39557   8.575   5.955   6.440  0.0632 -0.5590 -0.1688
  294MOL0     O39558   8.668   6.026   6.515  0.7294  0.6372  0.1931
  294MOL0     C39559   8.767   5.959   6.585 -0.4754  0.3609 -0.3216
  294MOL0     C39560   8.842   6.042   6.671 -0.3382  0.1505  0.8144
  294MOL0     C39561   8.954   5.999   6.737  0.0620 -0.8830  0.4583
  294MOL0     C39562   8.996   5.868   6.727  1.7249  0.5568  0.1254
  294MOL0     O39563   9.109   5.829   6.790  0.7471 -0.4635 -0.3341
  294MOL0     C39564   9.095   5.712   6.868 -0.7712 -1.0440 -0.0658
  294MOL0     C39565   9.214   5.702   6.965 -0.7859  0.0688  0.6496
  294MOL0     C39566   9.352   5.703   6.890 -0.3808  1.0212 -1.0298
  294MOL0     C39567   9.476   5.649   6.969  0.0314  0.0980  0.1642
  294MOL0     C39568   9.516   5.741   7.085 -0.2240  0.3149 -0.4384
  294MOL0     C39569   9.647   5.689   7.154  0.8336  0.1009 -0.1746
  294MOL0     C39570   9.726   5.786   7.241 -0.1296 -0.3769  0.3658
  294MOL0     C39571   9.849   5.715   7.300  0.1163  0.0699  0.2839
  294MOL0     N39572   9.927   5.801   7.390  0.4508  0.7980 -0.6430
  294MOL0     C39573   9.865   5.885   7.479  1.1099 -0.4786  0.3019
  294MOL0     C39574   9.960   5.934   7.560 -0.1159  0.2342  0.0890
  294MOL0     C39575   9.926   6.041   7.664  0.4208  0.0901 -0.4804
  294MOL0     C39576  10.015   6.157   7.664 -0.9469 -0.2508 -0.5297
  294MOL0     C39577  10.041   6.222   7.530  0.2489  0.6985  0.7590
  294MOL0     C39578  10.143   6.334   7.541  0.5259 -1.7125 -0.7398
  294MOL0     O39579  10.112   6.450   7.630  0.0139 -0.0460 -0.1424
  294MOL0     C39580  10.206   6.479   7.724 -0.7303 -0.3676  0.0666
  294MOL0     C39581  10.182   6.449   7.860  0.1013 -0.2134 -0.3315
  294MOL0     C39582  10.264   6.468   7.970 -0.6402 -0.8786 -0.5956
  294MOL0     C39583  10.232   6.412   8.104 -0.8956  0.4133 -0.4079
  294MOL0     C39584  10.385   6.533   7.945 -0.6617 -0.9097  0.2399
  294MOL0     C39585  10.459   6.592   8.056 -0.8504 -0.6553  0.4117
  294MOL0     O39586  10.597   6.595   8.039  0.4158 -0.1514 -0.3251
  294MOL0     C39587  10.666   6.704   8.078  0.2392 -0.0261  0.7320
  294MOL0     C39588  10.622   6.836   8.091  0.5255  0.0259 -0.9190
  294MOL0     C39589  10.722   6.938   8.095  0.1517  0.0043  0.5707
  294MOL0     C39590  10.863   6.903   8.092  0.4700  0.3518 -0.1535
  294MOL0     O39591  10.956   7.005   8.107  0.3641  0.4742  0.5004
  294MOL0     C39592  11.076   6.988   8.183 -0.0630  0.0515  0.5485
  294MOL0     C39593  11.144   7.117   8.185  0.1154 -0.6435 -0.8917
  294MOL0     C39594  11.300   7.085   8.209 -0.7273 -0.4717 -0.2880
  294MOL0     C39595  11.333   7.074   8.364 -0.3999 -0.1377  0.4474
  294MOL0     C39596  11.481   7.062   8.392 -0.6231  0.0476 -0.6857
  294MOL0     C39597  11.543   7.202   8.405  0.0244  0.9649  0.6810
  294MOL0     C39598  11.695   7.194   8.437 -0.4013 -0.0462 -0.1001
  294MOL0     C39599  11.760   7.329   8.417 -0.5052  0.2549 -0.1925
  294MOL0    Cl39600  11.924   7.355   8.490  0.1071 -0.1629  0.0231
  294MOL0     C39601  10.898   6.769   8.087 -0.0284  0.6325 -0.2126
  294MOL0     C39602  10.803   6.667   8.081 -0.5674  0.3884  0.0373
  294MOL0     O39603  10.399   6.638   8.150  0.8916 -0.0480  0.3251
  294MOL0     C39604  10.417   6.574   7.808 -0.4635  0.1436  0.6631
  294MOL0     C39605  10.338   6.544   7.698  0.1876  1.3338 -0.2384
  294MOL0     N39606  10.083   5.870   7.521  1.0060 -0.1099 -0.4440
  294MOL0     N39607  10.059   5.799   7.418 -0.0053 -0.2883  0.3036
  294MOL0     C39608   8.922   5.787   6.644 -0.0819  0.1156 -0.2435
  294MOL0     C39609   8.818   5.829   6.568  0.2627 -0.4150  0.2117
  294MOL0     C39610   8.452   6.031   6.415  0.0421 -0.6539 -0.2973
  294MOL0     C39611   8.354   5.972   6.336 -0.7484  0.4264 -0.6651
  294MOL0     C39612   8.230   6.032   6.318 -0.1606  1.7330  0.2949
  294MOL0     C39613   8.197   6.158   6.369  0.3978 -0.0392  0.3714
  294MOL0     O39614   8.067   6.209   6.375 -0.0562 -0.4769 -0.3971
  294MOL0     C39615   8.048   6.353   6.381 -0.5262 -0.0647  0.2694
  294MOL0     C39616   7.917   6.395   6.309  0.3281 -0.4952  0.3927
  294MOL0     C39617   7.886   6.537   6.347 -0.6672 -0.2956 -0.1107
  294MOL0     C39618   7.772   6.588   6.260  0.7719 -0.1399 -0.2558
  294MOL0     C39619   7.810   6.660   6.133 -0.1697  0.6119 -0.8176
  294MOL0     C39620   7.861   6.730   6.047 -1.0723  0.1580  0.6071
  294MOL0     C39621   8.296   6.221   6.448 -0.8440 -0.1473 -0.1098
  294MOL0     C39622   8.426   6.153   6.473 -0.7615  0.6972  0.3644
  294MOL0     H39623   8.812   6.147   6.670  0.2658  0.3559 -1.6657
  294MOL0     H39624   9.021   6.064   6.794  0.5878 -1.7748  0.8710
  294MOL0     H39625   9.011   5.729   6.936  1.3373  1.4195  2.1059
  294MOL0     H39626   9.090   5.619   6.810 -1.0382 -1.1014  0.0480
  294MOL0     H39627   9.210   5.790   7.029  0.3945  0.5819  0.0416
  294MOL0     H39628   9.199   5.612   7.025  1.9577 -1.3198 -0.5258
  294MOL0     H39629   9.332   5.645   6.799 -1.1800  2.9451 -2.1311
  294MOL0     H39630   9.381   5.807   6.871  0.6061  0.9360 -0.0992
  294MOL0     H39631   9.446   5.548   6.998 -1.7669 -0.3207 -2.7491
  294MOL0     H39632   9.567   5.649   6.909 -1.1863  0.3407 -1.7576
  294MOL0     H39633   9.524   5.846   7.056  1.3951 -0.0345 -1.4023
  294MOL0     H39634   9.430   5.741   7.152 -0.3197 -1.3857 -0.5104
  294MOL0     H39635   9.609   5.619   7.229 -2.0640  1.0720 -0.5694
  294MOL0     H39636   9.718   5.643   7.085  0.7456  0.8029 -0.7439
  294MOL0     H39637   9.761   5.865   7.173 -3.3845  0.8518 -0.0856
  294MOL0     H39638   9.674   5.844   7.317  0.9520  4.0063 -1.8971
  294MOL0     H39639   9.907   5.678   7.215  1.6780 -1.0572  1.7659
  294MOL0     H39640   9.797   5.637   7.357 -1.6380  1.5008  0.7212
  294MOL0     H39641   9.757   5.898   7.481  0.1893 -5.7521  0.4869
  294MOL0     H39642   9.822   6.074   7.655 -0.7361 -3.4228 -1.4644
  294MOL0     H39643   9.941   5.990   7.760  0.9964 -1.5861 -1.4291
  294MOL0     H39644  10.112   6.135   7.707 -0.9257 -2.1462 -1.4408
  294MOL0     H39645   9.968   6.233   7.726 -2.2779  1.3995 -3.3344
  294MOL0     H39646   9.948   6.262   7.487  0.2900  1.8895  1.7275
  294MOL0     H39647  10.078   6.148   7.458  2.8843  1.4574  1.2450
  294MOL0     H39648  10.159   6.366   7.438 -0.1534 -0.7302 -0.5543
  294MOL0     H39649  10.232   6.295   7.592 -0.1443  2.4024  4.2973
  294MOL0     H39650  10.086   6.407   7.888 -0.1806 -0.5756 -1.7812
  294MOL0     H39651  10.197   6.486   8.177  0.2838  0.5313  0.0597
  294MOL0     H39652  10.158   6.337   8.075  2.1863 -1.4543 -4.5021
  294MOL0     H39653  10.318   6.356   8.140 -2.2996 -0.7045  1.3482
  294MOL0     H39654  10.522   6.877   8.088  0.8129  0.8945  0.4639
  294MOL0     H39655  10.689   7.042   8.099 -0.5578  0.1146 -3.7921
  294MOL0     H39656  11.064   6.952   8.285  2.7469  2.3781  1.8188
  294MOL0     H39657  11.137   6.914   8.129 -2.0370 -0.4453 -1.1439
  294MOL0     H39658  11.133   7.184   8.100  0.3340  0.4978 -0.0366
  294MOL0     H39659  11.111   7.177   8.270  0.2834  1.0650 -2.0002
  294MOL0     H39660  11.357   7.165   8.161 -1.9239  2.8724  3.3469
  294MOL0     H39661  11.337   6.989   8.173  2.0620  0.6798 -0.7818
  294MOL0     H39662  11.277   7.150   8.420 -2.5212 -0.8477 -0.6086
  294MOL0     H39663  11.278   6.990   8.408  0.2019 -0.8329 -0.1236
  294MOL0     H39664  11.524   7.004   8.310 -0.5685  0.2481 -0.8002
  294MOL0     H39665  11.504   7.016   8.488 -0.1571  3.3521  0.9537
  294MOL0     H39666  11.529   7.247   8.307  1.6493  0.6531  0.2819
  294MOL0     H39667  11.494   7.269   8.476 -1.2266  1.1990 -0.3627
  294MOL0     H39668  11.738   7.112   8.380 -1.6168 -1.7437  1.2999
  294MOL0     H39669  11.712   7.160   8.540 -1.8676 -1.4960 -0.3063
  294MOL0     H39670  11.697   7.412   8.450  1.1277  1.7043 -0.5929
  294MOL0     H39671  11.791   7.335   8.312  4.0319 -1.3794  0.7993
  294MOL0     H39672  11.001   6.740   8.102 -0.5305  0.0228  2.4354
  294MOL0     H39673  10.834   6.564   8.075  1.5860  1.0421 -1.3321
  294MOL0     H39674  10.506   6.632   7.786 -0.3639 -0.1144  0.3782
  294MOL0     H39675  10.360   6.587   7.601  0.6719  2.9886  0.5637
  294MOL0     H39676   8.950   5.684   6.627  1.3852  0.3665  0.4484
  294MOL0     H39677   8.765   5.762   6.501 -0.7229 -0.0490  0.5956
  294MOL0     H39678   8.369   5.872   6.296 -3.0405 -0.2562  0.0238
  294MOL0     H39679   8.166   5.973   6.253  0.7422  1.4949 -0.4023
  294MOL0     H39680   8.038   6.378   6.487  0.1295  0.7036  0.1561
  294MOL0     H39681   8.132   6.414   6.346 -1.2799  0.5733 -0.4790
  294MOL0     H39682   7.827   6.343   6.342 -0.8355  0.2183 -1.5455
  294MOL0     H39683   7.937   6.374   6.204  0.0009  1.5162 -0.1128
  294MOL0     H39684   7.975   6.599   6.330 -1.4898  0.9898  0.1371
  294MOL0     H39685   7.868   6.544   6.455 -2.1043  0.1580 -0.3649
  294MOL0     H39686   7.718   6.659   6.324 -0.8470 -2.3100  0.9520
  294MOL0     H39687   7.697   6.516   6.226  1.0150 -0.7048  0.3859
  294MOL0     H39688   7.909   6.766   5.958 -1.6758  2.3603  1.1149
  294MOL0     H39689   8.288   6.320   6.491 -1.5477 -1.1601  2.3006
  294MOL0     H39690   8.499   6.194   6.542 -0.4249 -3.4886  2.7987
  295MOL0     O39691   6.303   0.782   5.325  0.6327 -0.3647  0.0209
  295MOL0     C39692   6.280   0.685   5.402 -0.1902  0.0728  0.8494
  295MOL0     O39693   6.356   0.636   5.501 -0.2263 -0.1669 -0.0651
  295MOL0     C39694   6.497   0.655   5.500 -0.6483 -1.5888  0.1944
  295MOL0     C39695   6.563   0.640   5.620 -0.4505 -0.3474  0.3173
  295MOL0     C39696   6.703   0.676   5.632  0.4366 -0.0759  0.6156
  295MOL0     C39697   6.776   0.728   5.528 -0.3839 -0.7119  1.3086
  295MOL0     O39698   6.905   0.758   5.556 -0.7302 -1.0384  0.2940
  295MOL0     C39699   7.006   0.780   5.452  0.6086 -0.1875 -1.0190
  295MOL0     C39700   7.030   0.661   5.371 -0.2882  0.2727 -0.8473
  295MOL0     C39701   7.181   0.652   5.330  0.1982 -0.3189  0.1607
  295MOL0     C39702   7.216   0.754   5.225 -1.5849 -0.4291  0.2872
  295MOL0     C39703   7.327   0.717   5.123 -0.2123  0.8024  0.0046
  295MOL0     C39704   7.276   0.766   4.981 -1.2971 -1.1966  0.2007
  295MOL0     C39705   7.394   0.763   4.882 -0.3051  0.5878  0.4488
  295MOL0     C39706   7.347   0.768   4.736 -1.1522  0.3278 -0.7533
  295MOL0     N39707   7.231   0.686   4.703  0.0679  0.9651  0.8774
  295MOL0     C39708   7.219   0.552   4.745  0.7912 -0.2217 -0.0055
  295MOL0     C39709   7.083   0.533   4.740 -0.7734  0.2256 -0.9122
  295MOL0     C39710   7.012   0.405   4.778  0.2918 -0.5349 -0.3424
  295MOL0     C39711   7.029   0.385   4.924  0.6390  0.2143 -0.2249
  295MOL0     C39712   6.967   0.490   5.028  1.4963 -0.4945  0.9606
  295MOL0     C39713   6.921   0.417   5.153  0.2204  0.2615  0.3002
  295MOL0     O39714   6.814   0.333   5.117  0.0807  0.3352 -0.8693
  295MOL0     C39715   6.751   0.265   5.226 -0.1549 -0.0805  0.3532
  295MOL0     C39716   6.743   0.130   5.216  0.1986  0.5650 -0.1666
  295MOL0     C39717   6.657   0.047   5.309 -0.4030  0.0150 -0.3100
  295MOL0     C39718   6.652  -0.099   5.295 -0.4317 -0.1008  0.6172
  295MOL0     C39719   6.588   0.114   5.415 -0.3586 -0.3622  0.2459
  295MOL0     C39720   6.497   0.052   5.511 -0.5835 -0.2830 -0.9501
  295MOL0     O39721   6.404   0.140   5.577  0.7600  0.4979  0.4864
  295MOL0     C39722   6.298   0.081   5.648 -0.4321  0.7943 -0.4451
  295MOL0     C39723   6.323   0.001   5.766 -0.1557 -0.4921  0.3700
  295MOL0     C39724   6.212  -0.037   5.853  0.0125  0.3855  0.5763
  295MOL0     C39725   6.082   0.016   5.831  0.0264  0.0999 -0.6608
  295MOL0     O39726   5.988  -0.017   5.934  0.1532  0.0318 -0.0419
  295MOL0     C39727   5.849   0.028   5.926 -0.4250 -0.0908  0.4548
  295MOL0     C39728   5.769   0.013   6.046  0.9693 -0.4441 -1.4059
  295MOL0     C39729   5.801   0.112   6.157  0.0491  0.6925  1.0697
  295MOL0     C39730   5.730   0.079   6.289 -0.1814  0.1364 -0.0392
  295MOL0     C39731   5.766   0.177   6.401 -1.1763  0.5229 -0.8446
  295MOL0     C39732   5.663   0.181   6.507  0.8906 -0.6819 -0.0881
  295MOL0     C39733   5.657   0.048   6.582 -0.1418 -0.3925 -0.2797
  295MOL0     C39734   5.597   0.060   6.728  0.2475  0.2710  0.6391
  295MOL0    Cl39735   5.425   0.097   6.705 -0.2755 -0.3441 -0.1768
  295MOL0     C39736   6.067   0.097   5.719  0.4677  0.0900 -0.3807
  295MOL0     C39737   6.172   0.128   5.636  0.7010  0.1103  1.0658
  295MOL0     O39738   6.499  -0.066   5.519 -0.0421 -0.2030 -1.4651
  295MOL0     C39739   6.624   0.256   5.432 -0.2142 -0.5635 -0.0129
  295MOL0     C39740   6.697   0.334   5.341 -0.1796 -0.0279 -0.2224
  295MOL0     N39741   7.019   0.643   4.695  0.2779 -0.6854  0.3607
  295MOL0     N39742   7.103   0.732   4.672 -0.2231 -0.3433 -0.6570
  295MOL0     C39743   6.716   0.734   5.405 -0.7345  0.2147 -0.2885
  295MOL0     C39744   6.584   0.695   5.384  0.0297  0.3901  0.0960
  295MOL0     C39745   6.139   0.629   5.387 -0.9139  0.3112 -0.3630
  295MOL0     C39746   6.046   0.676   5.295  0.7082 -0.0936  0.2925
  295MOL0     C39747   5.922   0.623   5.295  0.0584  0.4070 -0.1214
  295MOL0     C39748   5.881   0.513   5.377 -0.8404  0.0282 -0.6057
  295MOL0     O39749   5.751   0.487   5.370 -0.5532 -0.3890 -0.6054
  295MOL0     C39750   5.675   0.511   5.488 -0.1197 -0.2445 -1.1476
  295MOL0     C39751   5.549   0.419   5.493 -0.3169  0.3585 -0.1202
  295MOL0     C39752   5.581   0.268   5.481 -0.3483  0.5854  0.5620
  295MOL0     C39753   5.658   0.202   5.599  0.3555  0.4481 -0.4277
  295MOL0     C39754   5.577   0.192   5.730  0.3440  0.2484 -0.3529
  295MOL0     C39755   5.515   0.166   5.830 -0.5937  0.3310 -0.4015
  295MOL0     C39756   5.980   0.454   5.451  0.2034  0.0910 -0.0468
  295MOL0     C39757   6.112   0.510   5.459  0.7235 -0.2077  0.2171
  295MOL0     H39758   6.516   0.601   5.709 -0.0585 -1.9517 -0.1476
  295MOL0     H39759   6.745   0.659   5.730  0.3932 -0.9226  0.4889
  295MOL0     H39760   6.973   0.863   5.390  1.9647  1.5164  0.4433
  295MOL0     H39761   7.098   0.816   5.499  0.6785 -3.8130  2.1208
  295MOL0     H39762   6.996   0.566   5.415  0.8401 -0.6870 -1.9540
  295MOL0     H39763   6.969   0.679   5.282 -0.3265  2.6123 -0.4160
  295MOL0     H39764   7.258   0.641   5.408 -2.2582  2.2159  3.2142
  295MOL0     H39765   7.176   0.552   5.287 -0.2208 -0.9713  1.6753
  295MOL0     H39766   7.126   0.797   5.181  0.1441 -0.2766 -3.4845
  295MOL0     H39767   7.268   0.836   5.276  2.1288 -1.5134 -1.4048
  295MOL0     H39768   7.420   0.769   5.145 -0.1999  0.2204  1.4139
  295MOL0     H39769   7.342   0.608   5.128 -0.0479  0.6950 -1.8714
  295MOL0     H39770   7.181   0.726   4.944 -2.3269 -0.5388  2.0257
  295MOL0     H39771   7.262   0.873   4.996  3.0309 -0.4801  0.6310
  295MOL0     H39772   7.455   0.852   4.898 -0.2598  1.6305 -3.9993
  295MOL0     H39773   7.455   0.676   4.909  2.0280  1.8600 -0.4155
  295MOL0     H39774   7.430   0.743   4.669 -1.2089 -0.7038 -0.4530
  295MOL0     H39775   7.323   0.873   4.718  1.8838  1.3940  0.7380
  295MOL0     H39776   7.299   0.490   4.785  0.4168 -0.6972  0.0127
  295MOL0     H39777   6.908   0.424   4.752 -0.4842 -2.4216  1.1441
  295MOL0     H39778   7.055   0.322   4.722 -0.2683 -1.6942  0.8995
  295MOL0     H39779   7.135   0.375   4.947  0.6529 -1.0109 -0.7611
  295MOL0     H39780   6.981   0.289   4.944  3.1752 -1.0274  0.2846
  295MOL0     H39781   6.875   0.531   4.984  2.5288  1.0076  0.1394
  295MOL0     H39782   7.044   0.567   5.041  1.0507 -0.1204  1.4355
  295MOL0     H39783   6.876   0.494   5.217 -0.6718 -0.2172  0.2760
  295MOL0     H39784   6.992   0.364   5.217  2.6090  4.1185  1.1216
  295MOL0     H39785   6.777   0.080   5.126 -2.1058 -1.2798 -0.1143
  295MOL0     H39786   6.697  -0.118   5.197 -1.4039  2.0677 -0.3123
  295MOL0     H39787   6.720  -0.147   5.366 -2.0854 -3.3000  0.2064
  295MOL0     H39788   6.552  -0.143   5.293  0.3661 -2.0122  0.0740
  295MOL0     H39789   6.424  -0.031   5.790  0.3386 -0.4803 -1.5298
  295MOL0     H39790   6.230  -0.106   5.935 -1.3661 -3.2068 -1.8915
  295MOL0     H39791   5.850   0.130   5.885  1.1626 -0.7676 -1.3877
  295MOL0     H39792   5.793  -0.034   5.856 -0.3745  0.3675 -0.0026
  295MOL0     H39793   5.665   0.041   6.028  0.4330 -2.4112 -1.5212
  295MOL0     H39794   5.788  -0.085   6.091 -2.0531  1.2811  4.8519
  295MOL0     H39795   5.766   0.212   6.134  0.7832  0.9501  1.0517
  295MOL0     H39796   5.908   0.114   6.181  0.0841 -0.3875  1.0660
  295MOL0     H39797   5.624   0.091   6.266  0.0338  1.2684 -0.4767
  295MOL0     H39798   5.766  -0.018   6.325  0.3105  0.6144  0.8052
  295MOL0     H39799   5.787   0.275   6.358 -0.5223  1.4044  1.3537
  295MOL0     H39800   5.862   0.146   6.444 -0.2737  3.3636 -0.5777
  295MOL0     H39801   5.687   0.267   6.571  4.4064 -1.5124 -0.0544
  295MOL0     H39802   5.564   0.202   6.465  1.9434  1.2856 -1.7853
  295MOL0     H39803   5.758   0.011   6.600 -0.5816  0.0729  4.3799
  295MOL0     H39804   5.597  -0.016   6.516 -0.1060  3.3171 -4.3999
  295MOL0     H39805   5.640   0.135   6.794  0.3583 -0.0350  0.9220
  295MOL0     H39806   5.600  -0.042   6.769 -1.1715 -0.8047 -1.6664
  295MOL0     H39807   5.974   0.150   5.701  1.2677  1.2865 -1.1527
  295MOL0     H39808   6.156   0.189   5.548 -0.1782 -0.1331  1.0501
  295MOL0     H39809   6.581   0.314   5.513  0.6390  0.7196 -0.4539
  295MOL0     H39810   6.704   0.439   5.368  0.0550  0.2779 -1.3890
  295MOL0     H39811   6.766   0.781   5.321 -1.7671  0.7239 -0.6232
  295MOL0     H39812   6.545   0.705   5.284 -0.2162  0.3754  0.1899
  295MOL0     H39813   6.068   0.759   5.229 -1.4300 -2.3691 -3.6264
  295MOL0     H39814   5.846   0.670   5.233 -0.5861 -1.8876 -1.1708
  295MOL0     H39815   5.739   0.488   5.574  0.4435 -2.1699 -2.0327
  295MOL0     H39816   5.641   0.615   5.494  0.6651 -0.0202 -0.4325
  295MOL0     H39817   5.483   0.454   5.413 -0.0133 -0.3030 -0.6663
  295MOL0     H39818   5.500   0.433   5.590  1.2236 -1.5748  0.9983
  295MOL0     H39819   5.633   0.247   5.387 -2.8868 -1.3459 -0.5183
  295MOL0     H39820   5.488   0.212   5.467  0.9420 -0.9496 -3.6413
  295MOL0     H39821   5.750   0.260   5.610  0.4435  0.0777  0.8750
  295MOL0     H39822   5.689   0.102   5.565  0.6363 -0.0421  1.2086
  295MOL0     H39823   5.458   0.144   5.918  0.8986 -0.0866  0.4950
  295MOL0     H39824   5.964   0.368   5.514 -0.5843 -0.6130 -1.1630
  295MOL0     H39825   6.185   0.458   5.520 -0.9074 -3.2536 -0.2112
  296MOL0     O39826   6.578   9.218   9.721 -0.6041  0.2487  0.2191
  296MOL0     C39827   6.536   9.205   9.608  0.0456 -0.5199 -0.2241
  296MOL0     O39828   6.613   9.195   9.495  0.3089 -0.6750  0.5621
  296MOL0     C39829   6.751   9.200   9.488  0.3473 -0.8900  1.3788
  296MOL0     C39830   6.830   9.149   9.588 -1.9700  0.1748  0.6611
  296MOL0     C39831   6.973   9.141   9.568  0.0565 -0.0224  0.3783
  296MOL0     C39832   7.029   9.183   9.448 -0.5975  1.3757  0.0939
  296MOL0     O39833   7.162   9.175   9.438  0.4510 -0.4815  0.1885
  296MOL0     C39834   7.227   9.279   9.354  0.1094  1.1270  0.3082
  296MOL0     C39835   7.381   9.249   9.353 -0.1933 -0.1667 -0.4528
  296MOL0     C39836   7.422   9.283   9.504 -1.2510  0.1352  0.7914
  296MOL0     C39837   7.577   9.313   9.504  0.1380 -0.0902  0.5567
  296MOL0     C39838   7.624   9.303   9.648  0.8101  0.2991  0.0763
  296MOL0     C39839   7.760   9.359   9.675 -0.6824  0.0783  0.3794
  296MOL0     C39840   7.883   9.283   9.638  0.0646  0.4108  0.0857
  296MOL0     C39841   7.899   9.154   9.724  0.6907  0.1006  0.2400
  296MOL0     N39842   8.039   9.098   9.706 -0.0707  0.4535 -0.3177
  296MOL0     C39843   8.100   9.010   9.783 -1.2272  0.0895  0.1872
  296MOL0     C39844   8.234   9.006   9.749  0.6647  1.0284  0.2056
  296MOL0     C39845   8.354   8.930   9.813 -0.1492 -0.8865  1.1476
  296MOL0     C39846   8.341   8.788   9.871 -0.6731 -1.1137 -0.2634
  296MOL0     C39847   8.480   8.722   9.908  0.8862 -0.9710  0.2764
  296MOL0     C39848   8.471   8.588   9.982  0.2946  0.1175  0.0272
  296MOL0     O39849   8.363   8.507   9.925 -0.4907 -0.6367  0.7044
  296MOL0     C39850   8.373   8.370   9.946  1.0459 -0.5586 -0.2788
  296MOL0     C39851   8.443   8.309  10.056  0.4230 -0.1329 -0.0979
  296MOL0     C39852   8.452   8.172  10.080  0.7122 -0.1841  0.3816
  296MOL0     C39853   8.507   8.135  10.216 -0.0676 -0.1665  0.9369
  296MOL0     C39854   8.414   8.085   9.974  0.0363 -0.6123  0.1517
  296MOL0     C39855   8.429   7.939   9.977 -0.4113  0.2278  0.0694
  296MOL0     O39856   8.346   7.879   9.875  0.5237  0.3741  0.7717
  296MOL0     C39857   8.344   7.746   9.849 -0.6124  0.0194 -0.0483
  296MOL0     C39858   8.250   7.708   9.757 -0.0415 -0.1523 -0.1727
  296MOL0     C39859   8.240   7.580   9.702 -0.2011 -0.0749 -0.9896
  296MOL0     C39860   8.336   7.485   9.739  0.3914  0.4162 -0.3466
  296MOL0     O39861   8.325   7.360   9.688 -0.8445  0.3123 -0.2584
  296MOL0     C39862   8.426   7.265   9.739  0.3103  0.0836  0.4006
  296MOL0     C39863   8.386   7.125   9.718 -0.8141 -0.3798 -0.1061
  296MOL0     C39864   8.349   7.100   9.569 -0.2442  0.2603 -0.5432
  296MOL0     C39865   8.310   6.958   9.554 -0.0814  0.1045 -0.5262
  296MOL0     C39866   8.291   6.921   9.407  0.1144 -0.8388 -0.8907
  296MOL0     C39867   8.207   7.018   9.332  0.0855  0.3850  0.2956
  296MOL0     C39868   8.149   6.968   9.192 -0.7708 -0.1306  0.2200
  296MOL0     C39869   8.256   6.911   9.101  0.1698 -0.6944 -0.4318
  296MOL0    Cl39870   8.366   7.038   9.030  0.3366  0.4630  0.2814
  296MOL0     C39871   8.435   7.527   9.833  0.4394 -0.1547  0.1184
  296MOL0     C39872   8.439   7.653   9.881 -0.0067  0.3628 -0.7635
  296MOL0     O39873   8.500   7.885  10.061  0.4342 -0.3085  0.0534
  296MOL0     C39874   8.347   8.149   9.860 -1.2850  0.2369 -0.6491
  296MOL0     C39875   8.326   8.285   9.853 -0.0499  0.4806 -0.6039
  296MOL0     N39876   8.247   9.088   9.631 -1.3144  0.4656  0.0647
  296MOL0     N39877   8.126   9.129   9.602  0.1815 -0.4676  0.2939
  296MOL0     C39878   6.945   9.235   9.343  0.3942  0.0726  0.3159
  296MOL0     C39879   6.811   9.243   9.367 -0.4514 -0.1275  0.5044
  296MOL0     C39880   6.386   9.238   9.596  0.0385  0.4306 -0.2651
  296MOL0     C39881   6.301   9.212   9.706 -0.7296  0.5026  0.0999
  296MOL0     C39882   6.166   9.246   9.699 -0.4913  0.2927  0.5767
  296MOL0     C39883   6.105   9.284   9.579 -0.2896 -1.7781  0.2571
  296MOL0     O39884   5.972   9.335   9.578 -0.0721 -0.0292  1.0324
  296MOL0     C39885   5.877   9.279   9.666  0.5741  0.0735  0.1348
  296MOL0     C39886   5.731   9.276   9.614 -1.0350 -0.2267 -0.4561
  296MOL0     C39887   5.682   9.421   9.616  0.0806  0.3315  0.0831
  296MOL0     C39888   5.535   9.431   9.590 -0.0820  0.3543 -0.2265
  296MOL0     C39889   5.487   9.401   9.457 -0.3826  0.1904  0.2592
  296MOL0     C39890   5.451   9.348   9.355 -0.3437  0.0781  0.5151
  296MOL0     C39891   6.185   9.289   9.460  1.0342  0.5264 -0.5185
  296MOL0     C39892   6.323   9.269   9.473 -0.1392  0.2131  0.2883
  296MOL0     H39893   6.792   9.100   9.677 -0.1142  0.3207  1.5829
  296MOL0     H39894   7.032   9.093   9.646  3.3876  0.5820 -1.5974
  296MOL0     H39895   7.200   9.263   9.249  1.6858  2.3607 -0.3459
  296MOL0     H39896   7.202   9.384   9.374  0.2811  1.3493 -0.5592
  296MOL0     H39897   7.394   9.142   9.337 -3.2824 -1.0115  1.6262
  296MOL0     H39898   7.430   9.312   9.278 -1.4884  0.7892 -0.5482
  296MOL0     H39899   7.371   9.375   9.534  1.2549  1.6495  0.6226
  296MOL0     H39900   7.382   9.213   9.578  1.0017 -1.2082  0.7978
  296MOL0     H39901   7.622   9.236   9.440  0.0081 -0.4469  0.8929
  296MOL0     H39902   7.600   9.410   9.458  0.1828  0.3006  1.3863
  296MOL0     H39903   7.554   9.355   9.714 -1.1689 -2.0742 -0.0062
  296MOL0     H39904   7.616   9.201   9.687 -1.7755 -0.8218 -2.9884
  296MOL0     H39905   7.777   9.461   9.639 -1.7636  0.2796  0.3956
  296MOL0     H39906   7.767   9.374   9.783  1.3660 -2.3333  0.6808
  296MOL0     H39907   7.868   9.247   9.536 -0.4138  1.3447 -0.1900
  296MOL0     H39908   7.974   9.343   9.654 -0.9153  1.5155  1.8760
  296MOL0     H39909   7.828   9.078   9.694  0.7700  0.3382 -0.5803
  296MOL0     H39910   7.882   9.171   9.831 -0.5886 -1.2888  0.2858
  296MOL0     H39911   8.062   8.948   9.864  2.1601 -2.2885  0.1468
  296MOL0     H39912   8.432   8.940   9.737 -1.4016  1.4530  0.0592
  296MOL0     H39913   8.383   8.991   9.900  4.7819 -0.6385 -0.3563
  296MOL0     H39914   8.294   8.712   9.807  1.3087 -2.6398 -0.0014
  296MOL0     H39915   8.283   8.802   9.962  1.3350  0.8955  0.8091
  296MOL0     H39916   8.546   8.793   9.960  0.3206  1.3492 -1.9734
  296MOL0     H39917   8.526   8.693   9.814  1.4223 -1.6522  0.7372
  296MOL0     H39918   8.445   8.600  10.088 -1.3182 -1.7156 -0.1204
  296MOL0     H39919   8.568   8.543   9.963 -0.3108 -1.5044  0.6574
  296MOL0     H39920   8.476   8.373  10.136  0.9347  1.5732 -1.6117
  296MOL0     H39921   8.521   8.215  10.289 -2.5812  0.2738  1.0073
  296MOL0     H39922   8.423   8.072  10.248 -0.6796  0.4957  0.6570
  296MOL0     H39923   8.595   8.071  10.202 -1.4289 -1.7936 -0.8745
  296MOL0     H39924   8.173   7.779   9.728 -0.0689 -1.1901 -2.8751
  296MOL0     H39925   8.158   7.558   9.634  0.4407  0.7443 -2.0701
  296MOL0     H39926   8.525   7.285   9.699 -0.2957  2.7473  0.0453
  296MOL0     H39927   8.429   7.276   9.848 -1.2696  2.8356  0.2781
  296MOL0     H39928   8.465   7.060   9.758  0.2528  0.8837 -0.0960
  296MOL0     H39929   8.300   7.100   9.779  0.2967 -1.8859  0.9199
  296MOL0     H39930   8.431   7.100   9.497  0.5695  3.4992  0.2328
  296MOL0     H39931   8.273   7.173   9.542  0.7435  2.4811  2.2054
  296MOL0     H39932   8.387   6.896   9.601 -1.5722 -2.7492 -1.6430
  296MOL0     H39933   8.218   6.937   9.608 -1.3845  0.0169 -2.6824
  296MOL0     H39934   8.235   6.828   9.413 -3.5417  1.2707  1.3595
  296MOL0     H39935   8.389   6.909   9.361  1.3472  1.4075  0.9133
  296MOL0     H39936   8.115   7.055   9.378  0.5973  0.3497  1.3769
  296MOL0     H39937   8.270   7.106   9.312  1.9851 -1.2754 -1.5076
  296MOL0     H39938   8.113   7.050   9.129 -0.4525  0.2133  0.4792
  296MOL0     H39939   8.077   6.887   9.211 -0.0793 -0.2660  2.5311
  296MOL0     H39940   8.216   6.851   9.019  1.7131 -1.2267 -0.8219
  296MOL0     H39941   8.310   6.835   9.158 -1.5290 -0.9884  0.8628
  296MOL0     H39942   8.516   7.470   9.876 -0.6978  0.0250  2.7066
  296MOL0     H39943   8.518   7.682   9.949 -0.5354  0.3870 -0.1570
  296MOL0     H39944   8.321   8.093   9.771 -0.2322  0.5699 -1.1876
  296MOL0     H39945   8.278   8.337   9.771 -0.2346  0.5561 -0.4489
  296MOL0     H39946   6.975   9.274   9.247 -1.0239  1.2393  0.3312
  296MOL0     H39947   6.743   9.277   9.289  0.8046 -0.9550 -0.9928
  296MOL0     H39948   6.348   9.172   9.796 -0.0183 -0.7417 -0.7899
  296MOL0     H39949   6.104   9.243   9.789 -0.5162 -0.0580  0.5521
  296MOL0     H39950   5.891   9.172   9.685  0.2082 -0.4989 -2.4345
  296MOL0     H39951   5.889   9.332   9.761  1.2664 -0.2592  0.2448
  296MOL0     H39952   5.674   9.212   9.682 -1.5292 -0.5234 -1.1352
  296MOL0     H39953   5.732   9.237   9.512  0.3799 -0.7025 -0.2739
  296MOL0     H39954   5.738   9.470   9.536  2.3313 -1.6556  0.3063
  296MOL0     H39955   5.693   9.469   9.713  0.4599  1.8583 -0.6896
  296MOL0     H39956   5.505   9.534   9.612 -2.3861  0.0410 -1.6129
  296MOL0     H39957   5.482   9.352   9.644  0.6363 -2.6928 -3.5719
  296MOL0     H39958   5.425   9.303   9.261  0.8004  1.7768 -0.7000
  296MOL0     H39959   6.160   9.328   9.362  0.8706 -0.3942 -0.8501
  296MOL0     H39960   6.384   9.296   9.388 -0.7860  3.9542  0.8276
  297MOL0     O39961   9.544   0.553   6.297  1.1839 -0.4517 -0.2764
  297MOL0     C39962   9.546   0.436   6.280 -0.0951  0.0683 -0.1534
  297MOL0     O39963   9.453   0.344   6.323  0.4664 -0.7511  0.0135
  297MOL0     C39964   9.335   0.370   6.373 -0.7547 -0.3231  0.3622
  297MOL0     C39965   9.317   0.479   6.457  0.5827 -0.3264  0.2450
  297MOL0     C39966   9.192   0.501   6.518  0.1371 -0.3270  0.1266
  297MOL0     C39967   9.082   0.412   6.492 -0.1481 -0.9262 -0.6657
  297MOL0     O39968   8.967   0.447   6.558  0.2951 -0.3203 -0.0960
  297MOL0     C39969   8.871   0.357   6.616 -0.0568  0.6239 -0.0862
  297MOL0     C39970   8.871   0.368   6.770  0.0329  0.0173 -0.3006
  297MOL0     C39971   8.740   0.302   6.815  0.5822  0.8943 -0.3294
  297MOL0     C39972   8.769   0.193   6.915  0.3856  1.1092 -0.5437
  297MOL0     C39973   8.653   0.155   7.013 -0.6154 -0.6637 -0.4664
  297MOL0     C39974   8.610   0.256   7.116  0.4225 -0.9799  0.2350
  297MOL0     C39975   8.588   0.194   7.257 -0.4362  1.0899 -0.3109
  297MOL0     C39976   8.479   0.086   7.250 -0.1881 -0.3457  0.0017
  297MOL0     N39977   8.355   0.150   7.292 -0.5895 -0.0048  0.3483
  297MOL0     C39978   8.308   0.154   7.421  0.0799 -0.4488  0.1768
  297MOL0     C39979   8.228   0.268   7.418 -0.5411 -0.4303  0.0595
  297MOL0     C39980   8.130   0.304   7.522  0.3327 -1.1120  1.0683
  297MOL0     C39981   8.130   0.223   7.666 -0.2964  0.4760  0.3441
  297MOL0     C39982   8.043   0.305   7.769  0.3044 -0.2673  0.4190
  297MOL0     C39983   8.070   0.236   7.902  0.6333  0.1425 -0.9892
  297MOL0     O39984   8.041   0.320   8.013 -0.0268  0.2721 -0.1291
  297MOL0     C39985   7.905   0.329   8.049  0.2132  0.2769  0.3645
  297MOL0     C39986   7.824   0.407   7.963 -0.8446  0.7503 -0.7244
  297MOL0     C39987   7.687   0.401   7.977 -0.0152 -0.0493  0.7378
  297MOL0     C39988   7.603   0.460   7.863  0.6318 -0.6529  0.4076
  297MOL0     C39989   7.630   0.344   8.092 -0.7747  0.2272 -0.3790
  297MOL0     C39990   7.482   0.326   8.121  0.1962 -0.9812  0.1718
  297MOL0     O39991   7.393   0.371   8.025  0.2726 -0.5798 -0.5397
  297MOL0     C39992   7.263   0.389   8.067 -0.7019  0.8347  0.7841
  297MOL0     C39993   7.224   0.443   8.178 -0.1272  0.2174 -0.0168
  297MOL0     C39994   7.085   0.477   8.204  0.4823 -0.4891  0.5614
  297MOL0     C39995   6.980   0.444   8.107 -0.2043 -0.1726 -0.2015
  297MOL0     O39996   6.859   0.493   8.117 -0.0910  0.5302  0.2261
  297MOL0     C39997   6.799   0.473   8.248  0.2478 -0.7795  0.4555
  297MOL0     C39998   6.652   0.476   8.247 -0.2615  0.6244  0.0739
  297MOL0     C39999   6.595   0.611   8.193 -0.7285  1.0942 -0.3778
  297MOL0     C40000   6.450   0.636   8.237 -0.1595 -0.2614  0.5217
  297MOL0     C40001   6.401   0.768   8.176  0.2500 -0.1322  0.6475
  297MOL0     C40002   6.451   0.887   8.248 -0.1465 -0.3225  0.1445
  297MOL0     C40003   6.398   1.017   8.188 -0.6383 -0.4016 -0.4938
  297MOL0     C40004   6.431   1.140   8.270 -0.8449  0.0095  0.6188
  297MOL0    Cl40005   6.613   1.171   8.256 -0.3796 -0.2002 -0.3244
  297MOL0     C40006   7.031   0.385   7.986  0.7268  0.2064 -0.6744
  297MOL0     C40007   7.166   0.350   7.976  0.2781 -0.2246  1.1468
  297MOL0     O40008   7.445   0.274   8.228 -0.9240 -0.0544  0.1341
  297MOL0     C40009   7.717   0.282   8.180  0.0895 -0.1331  0.8751
  297MOL0     C40010   7.854   0.266   8.165 -0.2685 -0.3323 -0.9095
  297MOL0     N40011   8.229   0.321   7.291  0.1482  0.3583 -0.0288
  297MOL0     N40012   8.302   0.245   7.216  0.5959 -0.5601  0.9611
  297MOL0     C40013   9.096   0.314   6.396 -0.4083 -0.2250  0.1067
  297MOL0     C40014   9.222   0.285   6.344  0.5615  0.2681  0.3788
  297MOL0     C40015   9.676   0.388   6.219  0.6366  0.7204  1.2984
  297MOL0     C40016   9.786   0.473   6.183  0.4674  0.5806 -0.5833
  297MOL0     C40017   9.894   0.409   6.117 -0.3064  0.4087  0.8414
  297MOL0     C40018   9.895   0.275   6.078 -0.9390 -0.5453  0.5194
  297MOL0     O40019   9.993   0.221   6.000  0.5520 -0.6364 -0.2819
  297MOL0     C40020   9.977   0.278   5.866 -0.4257 -0.0618  0.6978
  297MOL0     C40021  10.058   0.200   5.760  0.4645  0.4155 -0.9840
  297MOL0     C40022  10.211   0.238   5.755  0.5085 -0.3269  0.1261
  297MOL0     C40023  10.283   0.193   5.875  0.1881 -0.0538 -0.0944
  297MOL0     C40024  10.425   0.239   5.866 -0.5679  0.0744  0.2931
  297MOL0     C40025  10.542   0.281   5.865 -0.1551 -0.6912  0.3117
  297MOL0     C40026   9.792   0.188   6.120 -0.0626  0.5579 -0.1402
  297MOL0     C40027   9.680   0.243   6.184  0.6197 -0.2567 -0.9863
  297MOL0     H40028   9.390   0.556   6.480 -1.6002  2.2098 -0.7622
  297MOL0     H40029   9.189   0.588   6.583  1.0427 -0.0094 -0.2455
  297MOL0     H40030   8.769   0.379   6.582  0.1673  3.2843  0.6985
  297MOL0     H40031   8.896   0.255   6.588 -1.5640 -0.2299  1.4932
  297MOL0     H40032   8.960   0.327   6.817  0.8092  0.6877 -1.1287
  297MOL0     H40033   8.866   0.475   6.792 -1.3093 -0.1366  0.2422
  297MOL0     H40034   8.678   0.380   6.859  0.0588 -0.1727  0.8767
  297MOL0     H40035   8.693   0.257   6.727  2.0479 -0.1989 -0.6001
  297MOL0     H40036   8.795   0.102   6.861 -1.4072 -1.1543  2.1493
  297MOL0     H40037   8.854   0.220   6.978 -0.0453  0.0744  0.5223
  297MOL0     H40038   8.574   0.134   6.940 -1.8647 -0.1453  0.7063
  297MOL0     H40039   8.690   0.064   7.060 -0.2723  0.3445  1.3242
  297MOL0     H40040   8.686   0.334   7.123 -0.4714  0.0048 -0.6755
  297MOL0     H40041   8.513   0.299   7.088  0.7830  0.9883  1.7992
  297MOL0     H40042   8.685   0.164   7.298 -2.1284 -1.1350  2.3549
  297MOL0     H40043   8.560   0.271   7.329 -1.7651  0.6092 -0.2865
  297MOL0     H40044   8.510   0.003   7.315  1.9678  0.0896 -0.3745
  297MOL0     H40045   8.454   0.039   7.155 -2.9775  1.0869 -0.0509
  297MOL0     H40046   8.335   0.087   7.502  1.4218  0.6584  0.6959
  297MOL0     H40047   8.138   0.411   7.542 -0.5114 -0.5919 -1.0723
  297MOL0     H40048   8.027   0.292   7.487 -0.8100  0.4834  3.6023
  297MOL0     H40049   8.230   0.204   7.708 -1.2895 -2.5743  1.6030
  297MOL0     H40050   8.073   0.131   7.650  0.8115 -0.1433 -0.2070
  297MOL0     H40051   7.936   0.307   7.742  0.1920  0.9513  0.8965
  297MOL0     H40052   8.074   0.409   7.768 -0.9858  0.2052 -2.6918
  297MOL0     H40053   8.176   0.211   7.907  0.0982 -2.1420  1.1472
  297MOL0     H40054   8.031   0.136   7.924  1.0016  0.3497  0.8295
  297MOL0     H40055   7.879   0.456   7.883  1.6542 -0.1601  0.3539
  297MOL0     H40056   7.526   0.394   7.823  1.3240 -0.5630 -1.1583
  297MOL0     H40057   7.574   0.559   7.899  2.7497  0.7055 -1.3166
  297MOL0     H40058   7.658   0.487   7.772  0.5802 -3.8341 -0.6973
  297MOL0     H40059   7.303   0.476   8.245  0.6256 -1.1765 -0.1826
  297MOL0     H40060   7.064   0.539   8.290  0.1088 -1.8428  1.4725
  297MOL0     H40061   6.835   0.378   8.289  3.3567  0.3084  0.4611
  297MOL0     H40062   6.832   0.554   8.313 -1.9778  1.9025 -1.4618
  297MOL0     H40063   6.603   0.396   8.190 -0.2410  2.6226 -2.9583
  297MOL0     H40064   6.620   0.451   8.348 -3.0412 -0.6116 -0.9888
  297MOL0     H40065   6.601   0.610   8.084  1.9152 -0.3409 -0.3003
  297MOL0     H40066   6.658   0.686   8.242  0.8218 -0.1535 -0.3717
  297MOL0     H40067   6.392   0.556   8.190  1.7540 -0.0053 -2.6044
  297MOL0     H40068   6.442   0.626   8.345  1.6139  0.6585  0.7756
  297MOL0     H40069   6.292   0.770   8.184  0.2008 -1.2839  0.4102
  297MOL0     H40070   6.426   0.779   8.070 -2.1324 -0.4393 -0.0058
  297MOL0     H40071   6.405   0.884   8.346 -0.6167 -3.7333 -0.0338
  297MOL0     H40072   6.560   0.883   8.258  0.1355  0.3098 -2.1060
  297MOL0     H40073   6.291   1.009   8.170 -0.2337 -0.8664 -3.0908
  297MOL0     H40074   6.451   1.027   8.093 -1.5376  2.6683 -0.7790
  297MOL0     H40075   6.404   1.135   8.376  1.5006  2.2630  1.4458
  297MOL0     H40076   6.379   1.227   8.228  0.5259  1.2467  1.4117
  297MOL0     H40077   6.974   0.359   7.898 -0.4611 -2.9906  0.8843
  297MOL0     H40078   7.205   0.309   7.883  2.0568  2.4006  0.6284
  297MOL0     H40079   7.670   0.219   8.255  0.1314 -0.7716  0.3652
  297MOL0     H40080   7.919   0.199   8.220  0.7244  1.2907 -0.0510
  297MOL0     H40081   9.011   0.250   6.375 -0.3022 -1.1299  2.1858
  297MOL0     H40082   9.242   0.194   6.290  2.9601  0.1040  1.4351
  297MOL0     H40083   9.797   0.581   6.184 -0.2544  0.6662  0.7609
  297MOL0     H40084   9.977   0.469   6.080 -0.9295 -0.9306 -3.1211
  297MOL0     H40085   9.871   0.271   5.840 -0.2543  1.0569 -0.4059
  297MOL0     H40086  10.004   0.384   5.869  0.3052 -0.1738 -0.7712
  297MOL0     H40087  10.011   0.207   5.662  1.2035 -0.2709 -1.3996
  297MOL0     H40088  10.044   0.099   5.800 -3.8345  1.5301  0.9469
  297MOL0     H40089  10.212   0.347   5.753  0.3198 -0.2955  1.1443
  297MOL0     H40090  10.268   0.200   5.670 -0.5669  0.4551 -0.9550
  297MOL0     H40091  10.277   0.083   5.876  0.9516 -0.1441 -1.8559
  297MOL0     H40092  10.251   0.232   5.972  0.0645  0.9096 -0.5194
  297MOL0     H40093  10.646   0.304   5.853 -0.4113  1.4056  1.5959
  297MOL0     H40094   9.792   0.085   6.087 -0.9172  0.4374  0.2132
  297MOL0     H40095   9.593   0.182   6.206  0.5245  0.1539 -0.1552
  298MOL0     O40096   8.657   6.459   7.438  0.0271 -0.2910  0.1085
  298MOL0     C40097   8.702   6.420   7.540 -0.0521 -0.1121  0.1327
  298MOL0     O40098   8.630   6.394   7.657 -0.0892 -0.0199  0.5057
  298MOL0     C40099   8.496   6.410   7.662  0.6814 -0.4981  0.0966
  298MOL0     C40100   8.392   6.412   7.564  0.3912  0.6599 -0.1342
  298MOL0     C40101   8.257   6.414   7.607  0.5173  0.0783  0.2301
  298MOL0     C40102   8.224   6.405   7.740  0.8201  0.4509 -0.4474
  298MOL0     O40103   8.105   6.419   7.793  0.5345  0.1923 -0.3510
  298MOL0     C40104   8.007   6.345   7.726  0.2094  0.1328 -0.1602
  298MOL0     C40105   7.887   6.366   7.799  0.0435  0.0377  0.3637
  298MOL0     C40106   7.767   6.287   7.743  0.4224 -0.3680 -0.5483
  298MOL0     C40107   7.638   6.362   7.776 -0.1146 -0.4111  0.0620
  298MOL0     C40108   7.515   6.269   7.771 -0.4421  0.0299 -0.3990
  298MOL0     C40109   7.484   6.205   7.635  0.3570 -0.0688  0.0502
  298MOL0     C40110   7.358   6.107   7.646 -0.1148  0.6682 -0.4075
  298MOL0     C40111   7.392   5.958   7.694  0.0568  0.6802 -0.1578
  298MOL0     N40112   7.505   5.900   7.612 -0.0159 -0.3178  0.2439
  298MOL0     C40113   7.629   5.859   7.652 -0.1133  0.3075  0.1378
  298MOL0     C40114   7.690   5.815   7.545 -0.7995 -0.2550  0.4665
  298MOL0     C40115   7.824   5.747   7.538 -0.0315  0.3655  0.8966
  298MOL0     C40116   7.932   5.837   7.607 -0.5045  0.4917 -0.1061
  298MOL0     C40117   8.065   5.766   7.590  0.1965 -0.1249  0.0355
  298MOL0     C40118   8.192   5.853   7.600 -0.4635 -0.0338 -1.2324
  298MOL0     O40119   8.213   5.903   7.737  0.1515 -0.3571  1.2637
  298MOL0     C40120   8.343   5.929   7.756  0.5802  0.1594 -0.1867
  298MOL0     C40121   8.416   5.833   7.821  0.6216  1.0501  0.4253
  298MOL0     C40122   8.556   5.834   7.834  0.2170  0.0247 -0.1951
  298MOL0     C40123   8.623   5.724   7.912  0.7810 -1.0601  0.1156
  298MOL0     C40124   8.624   5.955   7.776  0.2424  0.0567  0.1255
  298MOL0     C40125   8.766   5.986   7.786 -0.1338  0.6384  0.0787
  298MOL0     O40126   8.821   5.927   7.894 -0.1853  0.0899  0.0184
  298MOL0     C40127   8.954   5.939   7.923  0.1778  0.2218  0.0823
  298MOL0     C40128   9.044   6.037   7.885 -0.1763  1.1279 -0.3337
  298MOL0     C40129   9.182   6.021   7.924  0.1257  0.3332  0.5877
  298MOL0     C40130   9.226   5.904   7.987  0.0671 -0.5504  0.1176
  298MOL0     O40131   9.366   5.882   8.007  0.2900 -0.3960 -0.3959
  298MOL0     C40132   9.404   5.791   8.111 -0.3643  0.1246  0.2487
  298MOL0     C40133   9.557   5.799   8.133 -0.2050 -0.0801 -0.2534
  298MOL0     C40134   9.625   5.711   8.027  0.4158  0.3269  0.5932
  298MOL0     C40135   9.698   5.589   8.077 -0.6071 -0.2815 -0.0026
  298MOL0     C40136   9.658   5.458   8.012  0.2348 -1.1811  0.5396
  298MOL0     C40137   9.737   5.344   8.070  0.2247  0.3989 -0.5851
  298MOL0     C40138   9.721   5.223   7.972  0.5804 -0.0966 -1.0248
  298MOL0     C40139   9.818   5.107   8.013 -0.2576  0.0878  0.1100
  298MOL0    Cl40140   9.986   5.158   8.005  0.2026  0.4882 -0.4028
  298MOL0     C40141   9.125   5.806   8.028 -0.3042  0.3781  0.0623
  298MOL0     C40142   8.989   5.829   8.002  0.2913  0.0358  0.5252
  298MOL0     O40143   8.826   6.047   7.700  0.0263 -0.3694 -0.5512
  298MOL0     C40144   8.541   6.044   7.713 -0.1546 -1.1548  1.5465
  298MOL0     C40145   8.406   6.042   7.709  0.6824  0.3329 -0.2892
  298MOL0     N40146   7.604   5.825   7.435  0.8684 -0.0994  0.1584
  298MOL0     N40147   7.492   5.872   7.484  0.7700  0.1479  0.0496
  298MOL0     C40148   8.322   6.390   7.837  0.1615  0.5012  0.6552
  298MOL0     C40149   8.456   6.404   7.795 -0.7563 -0.2152 -0.3607
  298MOL0     C40150   8.847   6.390   7.543  0.2546  0.3055 -0.0356
  298MOL0     C40151   8.922   6.380   7.663  0.2151 -0.0467  0.3116
  298MOL0     C40152   9.061   6.354   7.654  0.8536  0.3920 -0.5751
  298MOL0     C40153   9.131   6.342   7.533  1.3578  0.9235 -0.2229
  298MOL0     O40154   9.267   6.317   7.515  1.1830  0.3387  0.3383
  298MOL0     C40155   9.345   6.265   7.622 -0.4301 -0.6064  0.7605
  298MOL0     C40156   9.461   6.347   7.661 -0.6702  0.0348  0.3167
  298MOL0     C40157   9.557   6.376   7.540 -0.3783  0.5737  0.0422
  298MOL0     C40158   9.661   6.477   7.579 -0.1292  0.0413 -0.3512
  298MOL0     C40159   9.734   6.510   7.460  0.3470 -0.3798  0.5382
  298MOL0     C40160   9.803   6.549   7.366 -0.1030  0.2755  0.1021
  298MOL0     C40161   9.051   6.357   7.420 -0.1219  0.2719 -0.0101
  298MOL0     C40162   8.915   6.383   7.420  0.3617 -0.0810  0.7183
  298MOL0     H40163   8.418   6.395   7.460 -1.5905 -0.1769 -0.5377
  298MOL0     H40164   8.181   6.426   7.531 -0.2230 -1.8488  0.6145
  298MOL0     H40165   7.983   6.388   7.628  0.0995  0.2085 -0.1014
  298MOL0     H40166   8.027   6.237   7.731  0.0005  0.0978 -0.0432
  298MOL0     H40167   7.901   6.336   7.903 -1.2134  0.0746  0.5665
  298MOL0     H40168   7.871   6.473   7.781  1.4978  0.5545  1.9525
  298MOL0     H40169   7.778   6.262   7.637  0.5671 -0.7499 -0.4475
  298MOL0     H40170   7.765   6.195   7.802 -4.8867  0.3331  0.8175
  298MOL0     H40171   7.651   6.392   7.881 -1.0596 -1.4192  0.4858
  298MOL0     H40172   7.626   6.453   7.716 -1.5839  1.0793  2.4467
  298MOL0     H40173   7.548   6.198   7.848 -0.1235 -0.4156 -0.9360
  298MOL0     H40174   7.427   6.326   7.800 -0.7458 -0.1236 -0.9983
  298MOL0     H40175   7.466   6.295   7.575  0.0178  0.2704  0.6493
  298MOL0     H40176   7.581   6.170   7.599  1.3984  2.9867 -0.4319
  298MOL0     H40177   7.295   6.155   7.721  1.6470 -0.1440  1.6994
  298MOL0     H40178   7.301   6.107   7.552 -0.2544 -0.2007 -0.3326
  298MOL0     H40179   7.300   5.900   7.694  1.1630 -1.2340  1.6709
  298MOL0     H40180   7.430   5.952   7.797 -1.0017 -3.6591  0.1548
  298MOL0     H40181   7.671   5.844   7.751  0.3911 -4.2187 -0.5186
  298MOL0     H40182   7.824   5.644   7.576 -3.5255  0.2322  0.8650
  298MOL0     H40183   7.854   5.748   7.433  1.0158  0.8383  1.1854
  298MOL0     H40184   7.899   5.852   7.710  0.3276  1.2928  0.0587
  298MOL0     H40185   7.929   5.936   7.559  1.6165 -0.1860 -1.8026
  298MOL0     H40186   8.080   5.729   7.488 -0.6538  0.0989 -0.1754
  298MOL0     H40187   8.055   5.677   7.654  1.2289 -0.7591 -0.6526
  298MOL0     H40188   8.172   5.936   7.532 -1.2651 -0.5494 -1.6485
  298MOL0     H40189   8.279   5.796   7.566 -0.8914 -0.2663 -1.9451
  298MOL0     H40190   8.366   5.741   7.851 -0.3927  1.3139 -0.4041
  298MOL0     H40191   8.720   5.689   7.874  0.9710 -0.2738 -0.1609
  298MOL0     H40192   8.647   5.759   8.013  2.3514 -2.3921  0.2475
  298MOL0     H40193   8.557   5.638   7.912  1.3566 -1.5062  0.4127
  298MOL0     H40194   9.023   6.123   7.823  0.7160  1.7332  0.1788
  298MOL0     H40195   9.246   6.104   7.897 -0.2010  1.0735  2.0036
  298MOL0     H40196   9.342   5.816   8.198 -0.6261  0.6844 -0.0886
  298MOL0     H40197   9.379   5.689   8.082  1.4644 -0.2999  0.0552
  298MOL0     H40198   9.576   5.906   8.133 -0.5848  0.1125  3.4850
  298MOL0     H40199   9.573   5.757   8.233  0.6257 -0.8089 -0.6836
  298MOL0     H40200   9.695   5.772   7.971  2.1179 -0.7525  1.4716
  298MOL0     H40201   9.553   5.680   7.951  1.0999  2.3297 -0.9461
  298MOL0     H40202   9.803   5.604   8.053 -0.8296  0.0201 -0.8461
  298MOL0     H40203   9.686   5.581   8.185 -1.2970  0.5337 -0.0069
  298MOL0     H40204   9.669   5.469   7.904 -2.6170  0.4745  0.3126
  298MOL0     H40205   9.551   5.438   8.023 -0.7006  2.5236 -0.4988
  298MOL0     H40206   9.843   5.372   8.072 -0.2328  2.1516  0.5168
  298MOL0     H40207   9.707   5.306   8.167 -4.5520  2.7833 -0.8607
  298MOL0     H40208   9.744   5.255   7.870 -2.3501 -0.0526 -1.7632
  298MOL0     H40209   9.619   5.184   7.969  0.9508 -1.0987 -1.0402
  298MOL0     H40210   9.806   5.027   7.939 -3.8375  0.1814  0.4205
  298MOL0     H40211   9.802   5.065   8.113 -2.3137  3.4282  1.3232
  298MOL0     H40212   9.152   5.723   8.093 -0.9275 -0.1696 -0.3644
  298MOL0     H40213   8.921   5.755   8.043  0.2786 -1.5512 -2.1709
  298MOL0     H40214   8.577   6.141   7.681  0.3960 -1.2307  1.9188
  298MOL0     H40215   8.339   6.116   7.666 -0.0985 -1.4134 -2.2315
  298MOL0     H40216   8.290   6.382   7.941 -0.8174  2.6059  0.5665
  298MOL0     H40217   8.529   6.385   7.873 -1.0861 -0.3251 -0.0717
  298MOL0     H40218   8.869   6.395   7.756  0.8723  0.1865  0.6568
  298MOL0     H40219   9.113   6.354   7.749 -2.9567  0.7195  1.7050
  298MOL0     H40220   9.293   6.253   7.718  1.6177 -0.0140  2.0221
  298MOL0     H40221   9.380   6.165   7.597  1.7776  0.5587 -1.1978
  298MOL0     H40222   9.512   6.290   7.739 -1.0979 -0.2257  0.4087
  298MOL0     H40223   9.426   6.441   7.705 -0.9198 -0.4336  1.1244
  298MOL0     H40224   9.487   6.406   7.462  0.0044 -2.3225 -1.5767
  298MOL0     H40225   9.599   6.279   7.511  2.5653  1.7968 -0.0149
  298MOL0     H40226   9.734   6.436   7.649  2.1569 -1.3130 -3.2681
  298MOL0     H40227   9.608   6.566   7.614  0.7167 -0.0716  1.2836
  298MOL0     H40228   9.859   6.598   7.289 -0.9303  0.8382 -0.1553
  298MOL0     H40229   9.092   6.369   7.320  1.9532 -0.0952  0.7296
  298MOL0     H40230   8.863   6.398   7.326 -1.3431 -0.8383  1.4912
  299MOL0     O40231  10.083   2.488   4.334 -0.2704 -0.0402 -0.0087
  299MOL0     C40232  10.060   2.393   4.255  1.0489  0.1209 -0.0135
  299MOL0     O40233   9.938   2.331   4.238  0.1925 -0.2849 -0.2178
  299MOL0     C40234   9.826   2.395   4.286 -0.0769 -0.4377 -0.0255
  299MOL0     C40235   9.823   2.417   4.428  0.7469 -0.3181  0.8821
  299MOL0     C40236   9.717   2.483   4.490  0.4882 -0.8654 -0.4097
  299MOL0     C40237   9.607   2.515   4.409  0.3598 -0.2226  0.0361
  299MOL0     O40238   9.478   2.547   4.456 -0.4697  1.1773 -0.2615
  299MOL0     C40239   9.485   2.625   4.571  0.1895 -0.3381  0.4021
  299MOL0     C40240   9.386   2.740   4.568 -0.5304 -0.1356  0.0354
  299MOL0     C40241   9.254   2.670   4.577 -0.1654 -0.4654 -0.0233
  299MOL0     C40242   9.141   2.770   4.572 -0.2508 -0.1355  0.0076
  299MOL0     C40243   9.013   2.698   4.543  0.5788 -0.1900 -0.0337
  299MOL0     C40244   8.929   2.666   4.669  0.4454  0.5526 -0.4643
  299MOL0     C40245   8.786   2.617   4.630  0.3912 -1.2481 -0.6911
  299MOL0     C40246   8.765   2.471   4.617 -0.0432  0.0174  0.0625
  299MOL0     N40247   8.620   2.443   4.591  0.3433  0.0352  0.8023
  299MOL0     C40248   8.522   2.439   4.693  0.3563 -0.2693 -0.3208
  299MOL0     C40249   8.409   2.441   4.620 -0.8478  0.0163  0.7269
  299MOL0     C40250   8.281   2.412   4.675  0.3604 -0.5858 -0.6185
  299MOL0     C40251   8.197   2.301   4.603  0.0267 -0.6889 -0.5674
  299MOL0     C40252   8.085   2.253   4.697 -1.1690 -0.1990  0.2906
  299MOL0     C40253   7.956   2.331   4.676  0.8029 -0.9062 -0.5446
  299MOL0     O40254   7.907   2.337   4.539 -0.5223 -0.0195  0.4362
  299MOL0     C40255   7.774   2.374   4.531 -0.2915  0.5281 -0.6880
  299MOL0     C40256   7.691   2.274   4.485 -0.1340  0.2938 -1.2025
  299MOL0     C40257   7.548   2.293   4.484  0.0504  0.3369 -0.5028
  299MOL0     C40258   7.465   2.186   4.430  0.4106  0.6803  0.6152
  299MOL0     C40259   7.492   2.421   4.521 -0.3125  0.5686  0.2926
  299MOL0     C40260   7.345   2.465   4.502 -0.1870 -0.0424  0.1960
  299MOL0     O40261   7.314   2.580   4.560 -0.0817  0.0158 -1.1394
  299MOL0     C40262   7.209   2.657   4.510  0.9063  0.8385  0.1046
  299MOL0     C40263   7.091   2.683   4.576  0.5367  0.4127 -0.7042
  299MOL0     C40264   6.992   2.756   4.509  0.1475 -0.0249  0.3340
  299MOL0     C40265   7.006   2.804   4.384 -0.0049  0.0409 -1.1403
  299MOL0     O40266   6.890   2.862   4.330 -0.3660  0.1240 -0.4734
  299MOL0     C40267   6.888   2.902   4.196 -0.1041 -0.1988  0.4818
  299MOL0     C40268   6.963   3.038   4.169 -0.0874 -0.1927  0.6281
  299MOL0     C40269   6.919   3.148   4.268 -0.6141  0.0960  0.1259
  299MOL0     C40270   6.771   3.182   4.256  0.4061 -0.5207  0.2683
  299MOL0     C40271   6.751   3.312   4.327 -0.2018  0.6574 -0.4288
  299MOL0     C40272   6.603   3.359   4.332  0.2343 -0.8189 -0.2421
  299MOL0     C40273   6.593   3.491   4.408 -0.0452 -0.4104  0.2303
  299MOL0     C40274   6.453   3.540   4.400  0.0045 -0.0751  0.3685
  299MOL0    Cl40275   6.324   3.425   4.428  0.1246 -0.5241 -0.5982
  299MOL0     C40276   7.128   2.790   4.324  0.5374 -0.3871  0.8360
  299MOL0     C40277   7.230   2.717   4.386  0.3899  0.4346 -1.1850
  299MOL0     O40278   7.273   2.401   4.434 -0.4898 -0.2545  0.9912
  299MOL0     C40279   7.585   2.506   4.588  0.5951  0.0831  0.6815
  299MOL0     C40280   7.724   2.478   4.596 -0.1381 -0.1102 -0.4619
  299MOL0     N40281   8.435   2.462   4.486  0.1171 -0.3044  0.4105
  299MOL0     N40282   8.557   2.467   4.472  0.1252  0.0641 -0.1901
  299MOL0     C40283   9.610   2.492   4.270 -0.3234 -0.1676 -0.5210
  299MOL0     C40284   9.718   2.429   4.211  0.9708 -0.2729  0.2269
  299MOL0     C40285  10.177   2.333   4.185 -0.0011  0.1463 -0.2283
  299MOL0     C40286  10.163   2.214   4.107  0.4387 -0.2182  1.2667
  299MOL0     C40287  10.273   2.162   4.039  0.1707 -0.0877  0.2313
  299MOL0     C40288  10.400   2.214   4.037 -0.6849 -0.5681  0.0208
  299MOL0     O40289  10.503   2.158   3.964  0.4175 -0.1194  0.1576
  299MOL0     C40290  10.622   2.247   3.936  0.1348  0.2876 -0.4881
  299MOL0     C40291  10.673   2.210   3.795  0.2261  0.3205  0.0019
  299MOL0     C40292  10.743   2.068   3.797  0.2111  0.7641 -0.2521
  299MOL0     C40293  10.833   2.054   3.677  0.4102 -0.1999  0.4740
  299MOL0     C40294  10.886   1.912   3.670 -1.1092  0.1055  0.5833
  299MOL0     C40295  10.941   1.808   3.630  0.0321 -0.3240 -0.2502
  299MOL0     C40296  10.419   2.339   4.115 -0.1862  0.7897  0.7342
  299MOL0     C40297  10.307   2.390   4.188  0.1399  0.4227 -0.8323
  299MOL0     H40298   9.907   2.384   4.487  1.5703  0.2924  0.0877
  299MOL0     H40299   9.728   2.500   4.596 -0.0129 -3.4102  0.1236
  299MOL0     H40300   9.454   2.569   4.660  1.3301  1.8388  2.3048
  299MOL0     H40301   9.578   2.682   4.589  0.2710  0.5364 -2.3399
  299MOL0     H40302   9.404   2.811   4.649 -0.1520  2.2610 -2.0143
  299MOL0     H40303   9.388   2.795   4.472 -0.2581  0.0672  0.1555
  299MOL0     H40304   9.233   2.597   4.498 -4.0666  1.2315 -0.7860
  299MOL0     H40305   9.252   2.620   4.674  0.6570 -2.0810 -0.7987
  299MOL0     H40306   9.126   2.823   4.667 -2.6708  1.1630 -0.9868
  299MOL0     H40307   9.156   2.852   4.501  0.8518 -0.8659 -0.6366
  299MOL0     H40308   8.950   2.751   4.472 -1.3946 -1.9828  0.2830
  299MOL0     H40309   9.031   2.601   4.496  0.4748 -0.2845  0.1204
  299MOL0     H40310   8.973   2.596   4.740 -4.1347 -0.4416  1.7651
  299MOL0     H40311   8.917   2.766   4.714  1.5074  0.6102 -0.3014
  299MOL0     H40312   8.718   2.649   4.709 -0.3841 -0.5412 -1.6168
  299MOL0     H40313   8.751   2.670   4.541 -3.3208 -5.4501 -2.0315
  299MOL0     H40314   8.791   2.428   4.714  0.5305  1.1741  0.4399
  299MOL0     H40315   8.825   2.424   4.539 -1.4549 -0.4400 -0.7724
  299MOL0     H40316   8.519   2.419   4.800 -1.4021  2.1427  0.1611
  299MOL0     H40317   8.290   2.382   4.780  1.6854 -0.0286 -0.5622
  299MOL0     H40318   8.227   2.507   4.678  1.0155 -0.2014 -0.9633
  299MOL0     H40319   8.263   2.220   4.570  0.3333 -1.0232  0.7957
  299MOL0     H40320   8.158   2.350   4.514 -0.4946 -0.4556 -0.2145
  299MOL0     H40321   8.123   2.257   4.800 -2.0163 -2.1362  0.7269
  299MOL0     H40322   8.046   2.152   4.681 -2.0872  0.2199 -0.1745
  299MOL0     H40323   7.979   2.434   4.707 -0.6517 -0.8633  0.4916
  299MOL0     H40324   7.888   2.287   4.750 -1.1719  2.4307 -0.1491
  299MOL0     H40325   7.741   2.183   4.454  1.9273  0.9819 -0.1179
  299MOL0     H40326   7.516   2.091   4.449  0.2929  1.1497  3.6460
  299MOL0     H40327   7.365   2.173   4.472  0.1734 -4.0608 -0.7384
  299MOL0     H40328   7.445   2.199   4.323 -2.5971 -1.0111  0.8613
  299MOL0     H40329   7.080   2.626   4.668 -2.6912 -0.3243 -1.4295
  299MOL0     H40330   6.892   2.773   4.547 -0.9867 -3.5373 -0.7144
  299MOL0     H40331   6.920   2.817   4.137  1.7156  0.7228  0.0581
  299MOL0     H40332   6.784   2.921   4.170  0.4406  2.3655 -0.1825
  299MOL0     H40333   7.067   3.008   4.182  1.0767  1.4272 -3.3709
  299MOL0     H40334   6.944   3.080   4.069  1.1161 -0.7971  0.1281
  299MOL0     H40335   6.990   3.231   4.255 -2.3234  1.3329 -2.0620
  299MOL0     H40336   6.930   3.109   4.369 -0.6166  0.2014  0.1675
  299MOL0     H40337   6.749   3.193   4.150 -1.8567  1.1838  0.8388
  299MOL0     H40338   6.709   3.108   4.308 -0.8438  0.9472  0.9518
  299MOL0     H40339   6.810   3.383   4.269  0.9882  1.0041  1.1439
  299MOL0     H40340   6.792   3.308   4.429  1.1479 -1.1822 -0.9789
  299MOL0     H40341   6.552   3.354   4.235  0.3830 -3.3123 -0.2442
  299MOL0     H40342   6.559   3.281   4.394  5.8095 -2.3679  2.3980
  299MOL0     H40343   6.665   3.561   4.366 -0.0511 -0.0162  0.8552
  299MOL0     H40344   6.613   3.474   4.515  0.2865  1.0471  0.4252
  299MOL0     H40345   6.432   3.562   4.295 -2.7893 -0.5081  0.7615
  299MOL0     H40346   6.444   3.637   4.450  2.6776  3.1099 -4.4771
  299MOL0     H40347   7.139   2.813   4.219 -0.8181  1.3161  1.0246
  299MOL0     H40348   7.324   2.699   4.334  1.2503  2.1144 -0.2736
  299MOL0     H40349   7.559   2.601   4.633 -0.0164  1.0776 -1.6219
  299MOL0     H40350   7.785   2.547   4.653  0.3487  0.1673 -1.2960
  299MOL0     H40351   9.524   2.526   4.212  0.2835  0.9991 -0.7837
  299MOL0     H40352   9.731   2.414   4.104  1.0218 -0.4919  0.2638
  299MOL0     H40353  10.071   2.160   4.085  0.9015 -0.3789 -0.4123
  299MOL0     H40354  10.249   2.071   3.985  0.1265  1.5756 -2.7692
  299MOL0     H40355  10.592   2.351   3.923  1.9348  0.7815 -0.9350
  299MOL0     H40356  10.689   2.236   4.021 -0.0007  1.1492 -0.2603
  299MOL0     H40357  10.746   2.280   3.753 -1.4395 -0.3447 -4.5662
  299MOL0     H40358  10.589   2.199   3.726 -2.3329 -3.4891  3.3164
  299MOL0     H40359  10.666   1.992   3.785 -0.2275  1.4889 -2.3607
  299MOL0     H40360  10.799   2.055   3.890  0.3918  0.7364 -0.3658
  299MOL0     H40361  10.921   2.118   3.684 -1.0318  1.8470  0.4705
  299MOL0     H40362  10.771   2.075   3.589  1.6067  2.7606  0.2331
  299MOL0     H40363  10.987   1.726   3.579 -1.0117 -0.7653 -0.5031
  299MOL0     H40364  10.511   2.397   4.113  1.3066 -1.4717 -0.9484
  299MOL0     H40365  10.310   2.486   4.239 -1.2152 -0.4999  1.1122
  300MOL0     O40366   3.990   5.534   9.135 -0.8898  0.0577 -0.4551
  300MOL0     C40367   3.951   5.512   9.020 -0.2200 -0.6452 -0.4853
  300MOL0     O40368   3.826   5.556   8.969  0.3438 -0.6806 -0.0644
  300MOL0     C40369   3.748   5.639   9.045 -0.9599 -0.3055 -0.4998
  300MOL0     C40370   3.758   5.777   9.044  0.8549 -0.2240  0.0921
  300MOL0     C40371   3.680   5.852   9.131 -0.7806  0.8600  0.4657
  300MOL0     C40372   3.589   5.781   9.217 -0.4071 -0.7570 -0.5871
  300MOL0     O40373   3.500   5.842   9.300  0.0999  0.6957 -0.7377
  300MOL0     C40374   3.436   5.958   9.238 -0.2159 -0.2152  0.6736
  300MOL0     C40375   3.303   5.992   9.304 -0.5648  0.3184 -0.3760
  300MOL0     C40376   3.239   6.119   9.249 -0.4116  0.4620  0.5965
  300MOL0     C40377   3.138   6.182   9.344 -0.2275 -0.7414  0.9212
  300MOL0     C40378   3.066   6.298   9.271 -0.2478  1.2855  0.9163
  300MOL0     C40379   2.940   6.351   9.353  0.3310 -0.2907  0.0828
  300MOL0     C40380   2.851   6.470   9.300 -0.4127 -0.0587  1.2230
  300MOL0     C40381   2.896   6.609   9.343  0.1151 -0.6323 -0.1696
  300MOL0     N40382   2.808   6.724   9.309  0.3020  0.5488 -0.1744
  300MOL0     C40383   2.757   6.742   9.183 -1.0375 -0.1819  0.0944
  300MOL0     C40384   2.688   6.861   9.194  0.2746  0.2795  0.5143
  300MOL0     C40385   2.589   6.923   9.097 -0.2700  0.0467  0.1418
  300MOL0     C40386   2.452   6.858   9.091  0.6883 -0.0632 -0.0505
  300MOL0     C40387   2.400   6.846   9.233  0.5016 -0.4727 -0.6788
  300MOL0     C40388   2.251   6.826   9.258  0.0534  0.7521  0.1553
  300MOL0     O40389   2.194   6.721   9.171 -0.0482 -0.6038  0.5932
  300MOL0     C40390   2.057   6.712   9.177 -0.5013  0.8245  0.4241
  300MOL0     C40391   1.965   6.806   9.228  0.9183  1.2627 -0.2364
  300MOL0     C40392   1.829   6.785   9.213  0.6113  0.3541 -1.4468
  300MOL0     C40393   1.739   6.890   9.250 -0.5278  0.4465  0.4654
  300MOL0     C40394   1.783   6.664   9.159  0.8794 -0.2523 -0.0309
  300MOL0     C40395   1.637   6.634   9.153  0.3717 -0.2870 -0.8042
  300MOL0     O40396   1.577   6.662   9.038 -0.0274  0.4102  0.2834
  300MOL0     C40397   1.443   6.639   9.030  0.1453  0.9898  0.5884
  300MOL0     C40398   1.388   6.512   9.061 -0.0350 -0.2807 -0.6324
  300MOL0     C40399   1.250   6.501   9.061  0.3672 -0.1072 -0.3024
  300MOL0     C40400   1.163   6.607   9.021 -1.0984  0.6380 -0.5569
  300MOL0     O40401   1.024   6.598   9.016  0.5022  0.3582 -0.5610
  300MOL0     C40402   0.960   6.474   9.000 -0.4651  0.4950 -0.2177
  300MOL0     C40403   0.834   6.500   8.926 -0.0796  0.0044 -0.4556
  300MOL0     C40404   0.726   6.567   9.017 -0.1166 -0.1854 -0.9093
  300MOL0     C40405   0.604   6.595   8.935 -0.2307 -0.4841  0.0472
  300MOL0     C40406   0.478   6.586   9.015 -0.6709 -0.3062  0.7776
  300MOL0     C40407   0.466   6.707   9.108  0.6014  0.4010  0.1989
  300MOL0     C40408   0.339   6.686   9.183  0.6329 -0.1075 -0.4754
  300MOL0     C40409   0.289   6.814   9.249 -1.0974  0.5806  0.7884
  300MOL0    Cl40410   0.236   6.923   9.121  0.4632 -0.5811 -0.5241
  300MOL0     C40411   1.223   6.723   8.983 -0.1873 -0.2849 -0.1736
  300MOL0     C40412   1.359   6.746   8.999  0.2146  0.2279 -0.2360
  300MOL0     O40413   1.584   6.579   9.253 -0.4363 -0.4396  0.6303
  300MOL0     C40414   1.874   6.566   9.119 -0.6103 -0.5026  0.2939
  300MOL0     C40415   2.011   6.593   9.127  0.8095  0.4819  0.3366
  300MOL0     N40416   2.703   6.909   9.320 -0.1015 -0.5742 -1.0359
  300MOL0     N40417   2.761   6.819   9.394  0.2749 -0.3974 -0.9323
  300MOL0     C40418   3.586   5.642   9.211  0.1738  0.5764  0.1044
  300MOL0     C40419   3.662   5.572   9.132 -0.2911  0.7458 -0.1667
  300MOL0     C40420   4.059   5.451   8.941 -0.5573  0.5956  0.5590
  300MOL0     C40421   4.195   5.443   8.975 -0.6170 -0.5516  0.3440
  300MOL0     C40422   4.287   5.389   8.889  0.3635  0.0965  0.4423
  300MOL0     C40423   4.264   5.355   8.758  0.2634 -0.1978  0.0213
  300MOL0     O40424   4.365   5.310   8.679  0.3366  0.0827  0.2278
  300MOL0     C40425   4.345   5.312   8.534  0.4599  0.0286 -0.3803
  300MOL0     C40426   4.358   5.448   8.482  0.5365 -0.0500 -0.1964
  300MOL0     C40427   4.494   5.510   8.496  0.5208  0.2317  0.2309
  300MOL0     C40428   4.590   5.446   8.401  0.2542  0.0103 -0.2365
  300MOL0     C40429   4.717   5.528   8.386  0.2885 -0.7967 -0.2695
  300MOL0     C40430   4.818   5.589   8.375 -0.3684  0.0656 -1.0478
  300MOL0     C40431   4.125   5.362   8.716  0.2512  0.1523  0.8951
  300MOL0     C40432   4.027   5.412   8.814 -0.9602 -0.5669 -0.5947
  300MOL0     H40433   3.827   5.819   8.971 -1.5888  0.2747 -2.1147
  300MOL0     H40434   3.682   5.960   9.123  3.2620  0.9328  0.2143
  300MOL0     H40435   3.504   6.043   9.227 -0.1064 -0.4478 -0.6102
  300MOL0     H40436   3.406   5.939   9.135  0.1598  2.1881  0.0515
  300MOL0     H40437   3.239   5.906   9.281 -1.0575  0.9304 -1.3461
  300MOL0     H40438   3.317   5.985   9.412  1.3463 -1.7006 -0.6638
  300MOL0     H40439   3.324   6.186   9.229 -1.1533  0.4840 -3.3851
  300MOL0     H40440   3.190   6.096   9.154 -0.6217  0.6716  0.6541
  300MOL0     H40441   3.060   6.109   9.366 -0.5591 -0.8309 -0.4398
  300MOL0     H40442   3.186   6.220   9.435  1.9409 -0.2695 -0.3544
  300MOL0     H40443   3.138   6.379   9.255 -0.0437  0.8940 -0.2398
  300MOL0     H40444   3.042   6.279   9.166  1.0699 -1.5670  1.0564
  300MOL0     H40445   2.869   6.269   9.371 -0.8959  0.3514 -1.5281
  300MOL0     H40446   2.985   6.384   9.447 -2.7278  4.0599  0.3527
  300MOL0     H40447   2.860   6.458   9.192  2.2443  0.5046  1.3236
  300MOL0     H40448   2.744   6.461   9.320 -0.7192  1.5390  0.4300
  300MOL0     H40449   2.998   6.633   9.315  0.2621 -0.2732  0.6370
  300MOL0     H40450   2.896   6.597   9.452 -0.3875 -0.0577 -0.1020
  300MOL0     H40451   2.748   6.676   9.098 -1.8194 -0.6556  0.5349
  300MOL0     H40452   2.582   7.031   9.117  2.6631  0.6728 -1.5357
  300MOL0     H40453   2.631   6.927   8.996  1.4115  3.5511  0.8091
  300MOL0     H40454   2.455   6.757   9.051 -2.7596 -0.6783  0.8960
  300MOL0     H40455   2.384   6.910   9.023  1.5138  0.2983 -0.6127
  300MOL0     H40456   2.430   6.937   9.285 -1.6373  1.1763 -2.1883
  300MOL0     H40457   2.451   6.754   9.267  0.3042 -0.3368 -0.0019
  300MOL0     H40458   2.202   6.921   9.236 -0.3287  0.3707 -0.6812
  300MOL0     H40459   2.235   6.792   9.361  1.1510 -1.0630 -0.2248
  300MOL0     H40460   1.989   6.904   9.269 -0.5220  1.7290 -0.4672
  300MOL0     H40461   1.792   6.984   9.270 -1.3489  1.0950 -0.2897
  300MOL0     H40462   1.669   6.906   9.168 -0.8009 -0.5829  0.4839
  300MOL0     H40463   1.683   6.867   9.341 -2.3817  1.8139 -0.2568
  300MOL0     H40464   1.451   6.432   9.098  0.8002  0.8330  0.4788
  300MOL0     H40465   1.200   6.411   9.097 -1.6815  0.1390 -2.2902
  300MOL0     H40466   1.023   6.407   8.940 -3.0528 -0.6667 -1.8231
  300MOL0     H40467   0.934   6.414   9.088 -1.3860  0.4224 -0.5245
  300MOL0     H40468   0.862   6.566   8.843  3.7394 -3.8467 -2.6577
  300MOL0     H40469   0.798   6.408   8.877  0.9520 -1.2994  1.1483
  300MOL0     H40470   0.763   6.660   9.060  2.5458 -1.0365 -1.1828
  300MOL0     H40471   0.705   6.490   9.093 -1.6527  0.5301 -0.5718
  300MOL0     H40472   0.624   6.692   8.889 -0.5475 -0.1602  0.5781
  300MOL0     H40473   0.601   6.517   8.858 -2.3713  1.6668 -2.1916
  300MOL0     H40474   0.467   6.490   9.066 -0.2328 -0.3069  0.8720
  300MOL0     H40475   0.401   6.583   8.937  0.3708  0.9168 -0.3333
  300MOL0     H40476   0.554   6.726   9.170 -1.6227  2.8331  2.8623
  300MOL0     H40477   0.475   6.802   9.056  0.8812  2.4115  3.6411
  300MOL0     H40478   0.357   6.619   9.268 -5.1439 -1.8352 -0.1697
  300MOL0     H40479   0.256   6.645   9.125 -0.3044 -0.3789  0.9923
  300MOL0     H40480   0.376   6.866   9.290  0.2641 -1.4145  0.5687
  300MOL0     H40481   0.202   6.800   9.314 -4.2639  0.3298 -3.1153
  300MOL0     H40482   1.155   6.795   8.940  1.1762 -0.6458 -3.2127
  300MOL0     H40483   1.407   6.837   8.964  0.2848 -0.5799 -2.4104
  300MOL0     H40484   1.831   6.482   9.067 -3.3100  2.3695 -2.5374
  300MOL0     H40485   2.083   6.518   9.095 -0.7056 -1.4323  1.2520
  300MOL0     H40486   3.517   5.593   9.279  0.7607  1.0959  1.0989
  300MOL0     H40487   3.661   5.463   9.136 -1.4343  0.6530 -1.9489
  300MOL0     H40488   4.214   5.476   9.076 -0.1230  0.8222 -0.1701
  300MOL0     H40489   4.386   5.365   8.925  0.6750 -1.5153 -1.3456
  300MOL0     H40490   4.427   5.245   8.506 -0.5116 -3.2943  3.6656
  300MOL0     H40491   4.248   5.268   8.508 -0.9146 -0.2175  4.2398
  300MOL0     H40492   4.292   5.509   8.543 -1.2114 -0.8924 -1.1718
  300MOL0     H40493   4.331   5.454   8.376  0.9954  4.6514 -0.2638
  300MOL0     H40494   4.542   5.497   8.593  3.9671 -0.0324 -1.3532
  300MOL0     H40495   4.488   5.617   8.474  0.2928  0.2516  0.3863
  300MOL0     H40496   4.543   5.433   8.303 -0.4170 -2.0542  0.2987
  300MOL0     H40497   4.617   5.345   8.435  0.5136  0.1609  0.0022
  300MOL0     H40498   4.908   5.647   8.363  1.1959 -2.4683 -2.3676
  300MOL0     H40499   4.088   5.338   8.617  0.7258 -1.3159  1.0492
  300MOL0     H40500   3.922   5.425   8.787 -1.2478  1.3890  1.1660
  301MOL0     O40501   4.341   6.457   6.809 -0.0648  0.3059 -0.1831
  301MOL0     C40502   4.424   6.367   6.781  0.0077  0.1213  0.2798
  301MOL0     O40503   4.400   6.259   6.720  0.1666 -0.0252  0.1067
  301MOL0     C40504   4.267   6.221   6.705 -0.6698  0.8830 -0.2068
  301MOL0     C40505   4.240   6.187   6.571 -0.0682  1.2403 -0.6854
  301MOL0     C40506   4.119   6.136   6.531 -0.2881  0.3762  0.3843
  301MOL0     C40507   4.010   6.135   6.616 -0.4034 -0.3032 -0.2471
  301MOL0     O40508   3.882   6.096   6.583 -0.2258  0.3849  0.1922
  301MOL0     C40509   3.860   5.992   6.480  0.5159  0.3444  0.8212
  301MOL0     C40510   3.704   5.980   6.431  0.0444  0.0763 -0.5911
  301MOL0     C40511   3.678   5.883   6.315 -0.1049  1.1658 -0.7675
  301MOL0     C40512   3.689   5.740   6.361 -0.5277 -0.1047  0.0767
  301MOL0     C40513   3.668   5.643   6.250 -0.1465  0.2655 -0.1122
  301MOL0     C40514   3.588   5.524   6.298  0.0139  1.0125 -0.6287
  301MOL0     C40515   3.591   5.412   6.194 -0.4814 -1.1231  0.3045
  301MOL0     C40516   3.505   5.295   6.245 -0.2213  0.4386  0.4373
  301MOL0     N40517   3.482   5.208   6.124 -0.0055  0.0433 -0.1094
  301MOL0     C40518   3.366   5.204   6.059  0.4731  1.8977 -0.3519
  301MOL0     C40519   3.394   5.127   5.949 -0.0100  0.3573  0.1697
  301MOL0     C40520   3.292   5.088   5.846 -0.0320  0.0070 -0.6486
  301MOL0     C40521   3.153   5.146   5.872 -0.3810  0.2801  0.5780
  301MOL0     C40522   3.054   5.093   5.768  0.1893 -0.8038 -0.1440
  301MOL0     C40523   2.923   5.175   5.760  0.2829 -1.0149  0.8975
  301MOL0     O40524   2.848   5.128   5.646 -0.1152 -0.0383  0.0028
  301MOL0     C40525   2.724   5.068   5.674 -0.5213  0.2956  0.4441
  301MOL0     C40526   2.637   5.068   5.567  0.1402  0.2183  0.6081
  301MOL0     C40527   2.508   5.027   5.585 -0.0138 -0.1315 -0.3894
  301MOL0     C40528   2.422   5.030   5.470 -0.1388  0.3308  0.4870
  301MOL0     C40529   2.472   4.969   5.711  0.5484 -0.3745 -0.4411
  301MOL0     C40530   2.340   4.902   5.744  0.3766  0.5420  0.4103
  301MOL0     O40531   2.321   4.861   5.874  0.2129  0.5502 -0.1294
  301MOL0     C40532   2.208   4.792   5.916  0.4655  0.3633 -0.7507
  301MOL0     C40533   2.212   4.669   5.982  0.3413  0.3005  0.2750
  301MOL0     C40534   2.095   4.610   6.039 -0.4590  0.3015  0.7156
  301MOL0     C40535   1.966   4.665   6.018  0.0672 -0.6697  0.1302
  301MOL0     O40536   1.846   4.621   6.066  0.7227 -0.2018 -0.2554
  301MOL0     C40537   1.847   4.489   6.140 -0.5484 -0.8108  0.3801
  301MOL0     C40538   1.710   4.439   6.137  0.5973 -0.2883  0.7332
  301MOL0     C40539   1.715   4.292   6.180  0.6728  0.6541 -0.2023
  301MOL0     C40540   1.582   4.220   6.162  0.0954 -0.2144  0.4825
  301MOL0     C40541   1.592   4.070   6.208  0.0451  0.5497 -0.5744
  301MOL0     C40542   1.445   4.019   6.243 -1.1359 -0.7649 -0.0671
  301MOL0     C40543   1.433   3.877   6.281  0.1455 -0.4792 -0.1442
  301MOL0     C40544   1.294   3.859   6.315 -0.0156  0.1889  0.0424
  301MOL0    Cl40545   1.282   3.694   6.370 -0.2847 -0.3809 -0.2682
  301MOL0     C40546   1.966   4.778   5.937  0.6731 -0.5981 -0.7131
  301MOL0     C40547   2.080   4.846   5.896 -0.4338 -0.1930  0.2212
  301MOL0     O40548   2.261   4.878   5.651 -0.5635 -0.1500 -0.4997
  301MOL0     C40549   2.563   4.955   5.817  0.2295  0.5081  0.2645
  301MOL0     C40550   2.696   5.002   5.795  0.4025 -1.3668 -0.0503
  301MOL0     N40551   3.520   5.087   5.952 -0.8066 -0.2733  0.2283
  301MOL0     N40552   3.577   5.148   6.045  0.1251  0.0568  0.3713
  301MOL0     C40553   4.036   6.162   6.753 -0.8148  0.2521  0.1389
  301MOL0     C40554   4.167   6.197   6.798 -0.1121 -1.0670  0.0970
  301MOL0     C40555   4.570   6.400   6.800 -0.1752  0.8521 -0.0345
  301MOL0     C40556   4.660   6.301   6.761 -0.1091  0.2620  0.0018
  301MOL0     C40557   4.792   6.317   6.777  0.3047  0.0209  0.2555
  301MOL0     C40558   4.853   6.434   6.814  0.0396  0.6726  0.5132
  301MOL0     O40559   4.987   6.459   6.842  0.5422 -0.0628  0.5850
  301MOL0     C40560   5.080   6.350   6.826 -0.3575  0.3190  0.9545
  301MOL0     C40561   5.217   6.407   6.851  0.1986  0.0520  0.1884
  301MOL0     C40562   5.257   6.535   6.763  0.8679  0.8229 -0.4133
  301MOL0     C40563   5.314   6.644   6.852 -0.0830  0.1820  0.2620
  301MOL0     C40564   5.207   6.703   6.940 -0.0597  0.1985 -0.2310
  301MOL0     C40565   5.137   6.753   7.026 -0.5985 -0.3594 -0.2117
  301MOL0     C40566   4.770   6.533   6.858  0.1011  0.3467  0.0164
  301MOL0     C40567   4.630   6.513   6.856 -0.3119  0.6880 -0.5090
  301MOL0     H40568   4.306   6.208   6.488  2.6398  1.8815  1.4592
  301MOL0     H40569   4.111   6.102   6.428 -0.6678  0.1711  0.4813
  301MOL0     H40570   3.915   6.004   6.387  1.2565 -2.3812  0.8273
  301MOL0     H40571   3.887   5.896   6.524  0.1504 -0.7574 -1.2720
  301MOL0     H40572   3.636   5.960   6.515  1.2816 -2.8905 -0.1667
  301MOL0     H40573   3.680   6.079   6.390 -3.8700 -2.2663 -4.7651
  301MOL0     H40574   3.582   5.909   6.270 -0.8767  0.9234  0.6748
  301MOL0     H40575   3.749   5.892   6.232 -0.5206  0.7070 -1.1776
  301MOL0     H40576   3.783   5.731   6.416 -1.5440  2.2094  2.3859
  301MOL0     H40577   3.619   5.710   6.440 -0.8195 -2.1093 -0.8669
  301MOL0     H40578   3.608   5.691   6.172  0.9854 -0.7600 -1.6609
  301MOL0     H40579   3.763   5.608   6.209 -0.1838  2.5493 -2.3983
  301MOL0     H40580   3.637   5.494   6.391 -1.1612 -0.2452 -0.3842
  301MOL0     H40581   3.482   5.544   6.313 -0.3144 -0.6441 -0.5587
  301MOL0     H40582   3.549   5.455   6.102 -2.2793 -2.7782  0.2818
  301MOL0     H40583   3.691   5.377   6.167 -0.9483  0.3230 -4.1388
  301MOL0     H40584   3.412   5.331   6.288 -0.8455  0.9897 -1.2717
  301MOL0     H40585   3.565   5.229   6.308  0.9607 -0.0220 -1.0889
  301MOL0     H40586   3.267   5.244   6.080  0.2017  1.7206 -1.2523
  301MOL0     H40587   3.326   5.116   5.746  0.4079  0.3143 -0.4172
  301MOL0     H40588   3.282   4.979   5.845 -0.4024  0.0373 -0.6525
  301MOL0     H40589   3.160   5.255   5.858  0.1083 -0.1071 -3.2052
  301MOL0     H40590   3.110   5.120   5.968 -0.9497  0.6823  0.4377
  301MOL0     H40591   3.029   4.990   5.798 -2.3135 -1.5024 -3.8666
  301MOL0     H40592   3.095   5.092   5.666 -3.3100  2.7942 -1.8641
  301MOL0     H40593   2.948   5.278   5.732 -1.1628 -1.4152 -2.4505
  301MOL0     H40594   2.875   5.182   5.858 -1.0274  2.1880  0.1600
  301MOL0     H40595   2.665   5.094   5.466  0.3106  0.1324  0.6314
  301MOL0     H40596   2.320   5.046   5.508 -0.2609 -0.2065  0.3910
  301MOL0     H40597   2.442   5.101   5.390  2.0161  1.0513  1.5890
  301MOL0     H40598   2.417   4.930   5.427  2.0707 -0.8016  2.6279
  301MOL0     H40599   2.309   4.622   5.992  0.0616  0.2062  3.7585
  301MOL0     H40600   2.109   4.513   6.085 -1.8226  0.8054  2.2832
  301MOL0     H40601   1.911   4.419   6.086 -0.5850  0.6954 -1.7415
  301MOL0     H40602   1.886   4.492   6.242  0.7634 -2.1941 -0.0463
  301MOL0     H40603   1.644   4.498   6.201  0.6072 -0.5907  1.0197
  301MOL0     H40604   1.673   4.442   6.034 -4.9081 -1.1757  2.3992
  301MOL0     H40605   1.737   4.304   6.287  0.5049  2.8439 -0.3684
  301MOL0     H40606   1.791   4.231   6.130 -1.2360 -4.0463  2.0020
  301MOL0     H40607   1.511   4.273   6.227 -0.2706 -0.1571  0.0447
  301MOL0     H40608   1.545   4.218   6.059 -2.6408 -0.2728  1.3797
  301MOL0     H40609   1.657   4.063   6.295 -2.3814  2.2477  1.5445
  301MOL0     H40610   1.632   4.009   6.126 -0.5638 -3.1763  1.6802
  301MOL0     H40611   1.416   4.083   6.327 -2.6756  3.0264 -3.2146
  301MOL0     H40612   1.378   4.036   6.159  0.4673  2.7451 -0.8170
  301MOL0     H40613   1.488   3.846   6.371  2.9455  0.7103 -1.3475
  301MOL0     H40614   1.453   3.818   6.192  0.0855  1.3449 -1.4121
  301MOL0     H40615   1.222   3.872   6.234 -2.4091  1.3863  2.1861
  301MOL0     H40616   1.257   3.932   6.388 -0.1111 -0.0752  0.2575
  301MOL0     H40617   1.869   4.810   5.899 -0.2708 -1.6286  0.6707
  301MOL0     H40618   2.083   4.929   5.827  1.2352 -0.2718  0.1502
  301MOL0     H40619   2.545   4.903   5.910 -0.3854 -1.2439 -0.7924
  301MOL0     H40620   2.765   4.989   5.878 -0.2794  2.9975  1.4779
  301MOL0     H40621   3.949   6.176   6.816 -0.1610  1.0477  0.9055
  301MOL0     H40622   4.182   6.229   6.901  0.3799 -1.3762  0.1220
  301MOL0     H40623   4.635   6.210   6.706 -1.6272 -0.0609  1.1724
  301MOL0     H40624   4.847   6.224   6.768  0.6346  0.1513  0.8651
  301MOL0     H40625   5.073   6.268   6.898 -0.5233 -0.2962  0.2465
  301MOL0     H40626   5.084   6.310   6.724 -0.8351  0.6008  0.8219
  301MOL0     H40627   5.290   6.331   6.822  0.6123  0.4427  0.1992
  301MOL0     H40628   5.239   6.429   6.956  0.0173  0.7056  0.0986
  301MOL0     H40629   5.166   6.560   6.709  0.2525 -0.0223  0.2142
  301MOL0     H40630   5.336   6.508   6.692  0.0453  4.8766 -3.2324
  301MOL0     H40631   5.364   6.721   6.793  1.4487 -0.3102  0.8779
  301MOL0     H40632   5.402   6.610   6.907  2.2722  1.2876 -2.5607
  301MOL0     H40633   5.072   6.774   7.109 -0.4445 -1.3187  0.1625
  301MOL0     H40634   4.808   6.625   6.902  2.1217 -0.2529 -0.3795
  301MOL0     H40635   4.559   6.588   6.890  1.9221  2.5227  0.3559
  302MOL0     O40636   3.505   4.802   0.746  0.3661  0.5863 -1.3218
  302MOL0     C40637   3.607   4.735   0.724 -0.7803  0.1900  0.6361
  302MOL0     O40638   3.634   4.669   0.613 -0.1691 -0.8093  0.7541
  302MOL0     C40639   3.535   4.654   0.525  0.0316 -0.2642  1.0775
  302MOL0     C40640   3.539   4.731   0.407 -0.1958 -0.6080  0.0291
  302MOL0     C40641   3.426   4.736   0.319 -0.4329  0.7321  0.1185
  302MOL0     C40642   3.314   4.660   0.359 -0.1587  0.0907 -1.1731
  302MOL0     O40643   3.205   4.652   0.281  0.6522 -0.0258  0.6523
  302MOL0     C40644   3.092   4.728   0.324 -0.1130  0.0497 -0.4508
  302MOL0     C40645   2.983   4.644   0.387  0.6054 -0.8692 -0.1061
  302MOL0     C40646   2.903   4.549   0.295 -0.2682 -0.4293  0.5470
  302MOL0     C40647   2.816   4.459   0.384 -0.2134 -0.0031 -0.5238
  302MOL0     C40648   2.704   4.385   0.312  0.6248  0.3597 -0.1531
  302MOL0     C40649   2.604   4.481   0.240  0.7811  0.7104  0.2084
  302MOL0     C40650   2.471   4.400   0.208  0.3830  0.1485  0.1682
  302MOL0     C40651   2.355   4.498   0.174 -0.6557 -0.2048 -0.2823
  302MOL0     N40652   2.308   4.584   0.290  0.7427  1.0297  0.6446
  302MOL0     C40653   2.229   4.527   0.384  0.2668 -0.0318 -0.1567
  302MOL0     C40654   2.181   4.626   0.457  0.6219 -0.6015 -0.2327
  302MOL0     C40655   2.076   4.613   0.565  0.3992  0.4990 -0.1183
  302MOL0     C40656   1.951   4.533   0.521 -0.3873 -0.5213  0.2140
  302MOL0     C40657   1.892   4.591   0.390 -0.4635 -0.0537  0.3293
  302MOL0     C40658   1.746   4.559   0.357 -0.1138  0.1927 -0.0141
  302MOL0     O40659   1.660   4.633   0.445 -0.3116  0.8915 -0.2934
  302MOL0     C40660   1.529   4.665   0.408 -0.2354 -0.4406  0.2508
  302MOL0     C40661   1.439   4.559   0.375  0.1722 -0.5187  0.3069
  302MOL0     C40662   1.311   4.593   0.334 -0.1437  0.1827 -0.6326
  302MOL0     C40663   1.214   4.478   0.312 -0.5756 -0.9757 -0.7171
  302MOL0     C40664   1.273   4.732   0.306 -0.0473  0.2845 -0.0402
  302MOL0     C40665   1.143   4.773   0.260  0.2915  0.6855  0.4409
  302MOL0     O40666   1.061   4.672   0.201 -0.2918 -0.7690  0.5707
  302MOL0     C40667   0.930   4.696   0.218  0.9164 -0.6116 -0.1565
  302MOL0     C40668   0.838   4.688   0.107  0.2901 -0.2996 -1.5095
  302MOL0     C40669   0.702   4.677   0.126 -0.5647  0.0603  0.0738
  302MOL0     C40670   0.647   4.687   0.253  0.9233  0.8576  0.8088
  302MOL0     O40671   0.504   4.684   0.276 -0.7548  0.5782 -0.3494
  302MOL0     C40672   0.406   4.657   0.181 -1.5025 -0.0343  0.1227
  302MOL0     C40673   0.284   4.606   0.240  0.1438 -0.7751 -0.5654
  302MOL0     C40674   0.164   4.614   0.143  0.7927 -0.0995 -0.0509
  302MOL0     C40675   0.036   4.589   0.220 -0.6250  1.2044  0.6360
  302MOL0     C40676  -0.093   4.568   0.136  0.0409  0.5362 -0.2495
  302MOL0     C40677  -0.201   4.507   0.220  0.7225 -0.3632  0.3565
  302MOL0     C40678  -0.240   4.613   0.332  0.3961 -1.0774 -0.5206
  302MOL0     C40679  -0.373   4.584   0.401  0.3765 -0.1749 -0.5218
  302MOL0    Cl40680  -0.514   4.564   0.288 -0.2488 -0.2164  0.3020
  302MOL0     C40681   0.731   4.722   0.360  0.1159  0.2848 -0.0532
  302MOL0     C40682   0.872   4.717   0.344 -0.9040 -0.3062  0.9528
  302MOL0     O40683   1.101   4.886   0.279  0.6054  0.5912 -0.2786
  302MOL0     C40684   1.369   4.832   0.336 -0.8195 -0.8069 -0.1713
  302MOL0     C40685   1.493   4.800   0.393 -0.4929  0.8164  0.1438
  302MOL0     N40686   2.234   4.743   0.404  0.2801 -0.7816  0.6110
  302MOL0     N40687   2.314   4.715   0.303  0.1282 -1.1524 -0.3371
  302MOL0     C40688   3.317   4.573   0.469 -0.2183 -0.2166 -0.7297
  302MOL0     C40689   3.429   4.574   0.556 -0.7585  0.1787  0.2193
  302MOL0     C40690   3.705   4.722   0.841  0.0319 -0.5162  0.5024
  302MOL0     C40691   3.806   4.623   0.837 -0.3962 -0.6275 -0.7775
  302MOL0     C40692   3.894   4.626   0.938 -0.3604 -0.1699 -0.3844
  302MOL0     C40693   3.885   4.714   1.046 -0.2598  0.4521  0.0547
  302MOL0     O40694   3.973   4.706   1.143  0.0859 -0.0541 -0.3687
  302MOL0     C40695   3.947   4.767   1.272  0.3479 -0.1069 -0.9168
  302MOL0     C40696   4.009   4.688   1.376 -0.7091  1.0714 -0.5347
  302MOL0     C40697   3.954   4.546   1.387 -0.0074 -0.2219 -0.6447
  302MOL0     C40698   3.963   4.481   1.523  0.1561  0.0449 -0.9150
  302MOL0     C40699   3.871   4.358   1.537 -1.1469  0.1332  0.6612
  302MOL0     C40700   3.810   4.254   1.547  0.0323  0.1675 -0.1995
  302MOL0     C40701   3.796   4.810   1.042  0.0762  0.2791 -0.5414
  302MOL0     C40702   3.694   4.816   0.944 -0.0548  0.0839 -0.4117
  302MOL0     H40703   3.622   4.799   0.390 -0.0490 -0.5644  0.9075
  302MOL0     H40704   3.435   4.789   0.225 -0.5481 -0.2133 -0.4415
  302MOL0     H40705   3.130   4.789   0.407  1.4743 -1.1387 -0.2507
  302MOL0     H40706   3.042   4.786   0.246  1.0333  0.8882 -0.5896
  302MOL0     H40707   3.029   4.591   0.471 -0.6781 -0.1855  1.0713
  302MOL0     H40708   2.914   4.708   0.443 -0.0938 -2.5895  1.0839
  302MOL0     H40709   2.834   4.606   0.232  1.4703  1.1522  0.0096
  302MOL0     H40710   2.970   4.495   0.228  0.8228  0.2098  1.0889
  302MOL0     H40711   2.883   4.389   0.434 -0.3944 -0.1673 -0.5105
  302MOL0     H40712   2.769   4.511   0.468  1.4029  0.6840  0.0034
  302MOL0     H40713   2.745   4.310   0.244 -0.2512  0.3986 -0.7423
  302MOL0     H40714   2.649   4.327   0.386 -0.0460 -1.5380 -2.0330
  302MOL0     H40715   2.567   4.561   0.304 -3.8133 -1.1208  0.2220
  302MOL0     H40716   2.661   4.516   0.153 -1.2184  3.7317 -0.0521
  302MOL0     H40717   2.491   4.327   0.130 -2.6122 -0.7429  0.0975
  302MOL0     H40718   2.434   4.331   0.284 -1.1225  0.4769 -0.2280
  302MOL0     H40719   2.277   4.437   0.128  0.1380 -1.7003  0.3114
  302MOL0     H40720   2.384   4.568   0.094  0.9119 -2.4817 -1.8345
  302MOL0     H40721   2.182   4.430   0.396 -1.7254  0.2800 -3.9674
  302MOL0     H40722   2.128   4.554   0.640  2.7520  0.3189 -1.7586
  302MOL0     H40723   2.035   4.709   0.598  0.8703  0.5660  0.2738
  302MOL0     H40724   1.882   4.536   0.606 -2.0542  1.9075 -1.1101
  302MOL0     H40725   1.985   4.430   0.507 -1.7263 -0.9445 -0.0366
  302MOL0     H40726   1.961   4.571   0.308  0.1793  0.3517  0.7617
  302MOL0     H40727   1.903   4.699   0.403  2.4570 -0.2272 -0.0935
  302MOL0     H40728   1.726   4.452   0.350 -0.6692  0.3743 -1.8242
  302MOL0     H40729   1.727   4.572   0.250  0.5498 -4.6628 -0.9516
  302MOL0     H40730   1.469   4.455   0.391 -1.0615 -0.4075  4.5524
  302MOL0     H40731   1.120   4.503   0.363  0.9505  0.6377  1.5088
  302MOL0     H40732   1.201   4.454   0.206 -0.6212 -1.3889 -0.6200
  302MOL0     H40733   1.259   4.394   0.365  1.3492 -2.0475 -3.7980
  302MOL0     H40734   0.874   4.689   0.004  0.5086 -0.6857 -1.4377
  302MOL0     H40735   0.636   4.664   0.041 -0.9914 -0.7295  0.5181
  302MOL0     H40736   0.392   4.758   0.141  2.6807  0.8906  0.5360
  302MOL0     H40737   0.436   4.600   0.092 -1.9043 -1.5129  0.8995
  302MOL0     H40738   0.299   4.504   0.278 -0.4644 -0.3599  0.8364
  302MOL0     H40739   0.254   4.671   0.323 -1.7713 -1.3276 -0.7687
  302MOL0     H40740   0.170   4.532   0.072 -1.3439 -1.4655  1.2172
  302MOL0     H40741   0.146   4.708   0.090 -1.4239 -1.7457 -2.4395
  302MOL0     H40742   0.061   4.509   0.290 -0.6659 -0.1068 -0.8048
  302MOL0     H40743   0.011   4.676   0.281 -1.7138  1.8804 -0.7062
  302MOL0     H40744  -0.073   4.506   0.048  0.9973  1.1884 -0.5130
  302MOL0     H40745  -0.127   4.664   0.096  0.7226  1.0277  0.3173
  302MOL0     H40746  -0.284   4.480   0.153  0.4623  0.0616  0.4975
  302MOL0     H40747  -0.168   4.412   0.262  1.0804 -0.1449  0.5761
  302MOL0     H40748  -0.250   4.711   0.283 -0.7191 -1.0364 -0.2334
  302MOL0     H40749  -0.166   4.631   0.411 -2.1343  0.0827  1.7456
  302MOL0     H40750  -0.384   4.665   0.474 -0.4211 -1.2615  0.6212
  302MOL0     H40751  -0.364   4.492   0.459  0.4025 -0.5957 -1.1860
  302MOL0     H40752   0.693   4.743   0.460  0.4693 -0.2265  0.1929
  302MOL0     H40753   0.940   4.720   0.429 -1.3697  2.4147  1.3136
  302MOL0     H40754   1.341   4.937   0.328 -1.2843 -1.0574 -2.0857
  302MOL0     H40755   1.565   4.873   0.425 -0.8950  0.9204  0.8280
  302MOL0     H40756   3.235   4.510   0.500  1.1177 -1.2551  0.8532
  302MOL0     H40757   3.429   4.509   0.642 -1.1766 -3.0035 -2.0114
  302MOL0     H40758   3.822   4.559   0.750  1.7090  0.4928 -1.2902
  302MOL0     H40759   3.974   4.553   0.928  2.4791  2.5162  0.9747
  302MOL0     H40760   3.983   4.870   1.279 -0.5511  0.3713 -2.6185
  302MOL0     H40761   3.839   4.764   1.291  0.2927 -0.7945 -1.2837
  302MOL0     H40762   3.995   4.746   1.467  0.5113  2.6646 -1.3005
  302MOL0     H40763   4.115   4.680   1.352 -0.4393  0.0026  0.9285
  302MOL0     H40764   4.012   4.490   1.313  2.6501  2.7283 -1.0191
  302MOL0     H40765   3.850   4.541   1.353 -0.4592 -0.3369  0.6958
  302MOL0     H40766   3.923   4.555   1.594 -1.1957 -1.5192  0.0321
  302MOL0     H40767   4.061   4.453   1.564 -1.0115 -1.0083  1.3108
  302MOL0     H40768   3.753   4.164   1.547  1.9708 -1.1243  1.5493
  302MOL0     H40769   3.782   4.893   1.111 -0.7528  2.4734 -3.1863
  302MOL0     H40770   3.614   4.888   0.948  0.0276  0.1855 -0.5915
  303MOL0     O40771   4.367   8.622   0.497  0.3413 -0.6965 -0.3257
  303MOL0     C40772   4.299   8.542   0.431 -0.2432  0.4418 -0.0626
  303MOL0     O40773   4.240   8.564   0.310  0.3301  0.6718  0.0867
  303MOL0     C40774   4.241   8.686   0.254 -0.0655 -0.3980 -0.3138
  303MOL0     C40775   4.133   8.781   0.259  0.0725  0.2338  0.3966
  303MOL0     C40776   4.168   8.900   0.192 -0.4201 -1.2028 -0.1878
  303MOL0     C40777   4.275   8.918   0.104 -0.3967 -0.5661 -0.1328
  303MOL0     O40778   4.304   9.040   0.046 -0.1865  0.0681  0.4634
  303MOL0     C40779   4.201   9.140   0.031  0.6124  0.1190  0.4121
  303MOL0     C40780   4.258   9.263  -0.029 -0.1491  0.6374 -0.6675
  303MOL0     C40781   4.171   9.380  -0.039  0.0821 -0.6081  0.0770
  303MOL0     C40782   4.074   9.366  -0.159  0.6540  0.7237  0.5423
  303MOL0     C40783   3.960   9.460  -0.167  0.0456  0.5582  0.5738
  303MOL0     C40784   3.848   9.423  -0.259  0.4263  0.9084 -0.5376
  303MOL0     C40785   3.753   9.532  -0.297  0.3201 -0.1660  0.2635
  303MOL0     C40786   3.635   9.473  -0.378 -0.4197  0.0625 -0.0216
  303MOL0     N40787   3.561   9.363  -0.314 -0.1821  0.0326 -0.6430
  303MOL0     C40788   3.484   9.355  -0.192 -0.5526  0.9373  0.1805
  303MOL0     C40789   3.442   9.221  -0.186 -0.6634  0.0875  0.5257
  303MOL0     C40790   3.345   9.142  -0.103 -0.3875 -0.0595  0.0759
  303MOL0     C40791   3.222   9.231  -0.096 -0.3064  0.2006  0.1802
  303MOL0     C40792   3.089   9.152  -0.087 -0.2065  0.1810  0.2806
  303MOL0     C40793   2.980   9.253  -0.112  0.0279 -0.8004 -0.1560
  303MOL0     O40794   2.961   9.283  -0.252 -0.5800 -0.2197  0.7523
  303MOL0     C40795   2.839   9.325  -0.286 -0.2711 -0.2688  1.3467
  303MOL0     C40796   2.811   9.460  -0.296 -0.4765  0.7307  0.1469
  303MOL0     C40797   2.681   9.501  -0.338 -0.7222 -1.5423  0.0415
  303MOL0     C40798   2.664   9.648  -0.349  0.3394 -0.6990 -0.3581
  303MOL0     C40799   2.568   9.414  -0.350 -0.2786 -0.0149  0.5632
  303MOL0     C40800   2.430   9.448  -0.399 -0.3091  0.0423  0.5191
  303MOL0     O40801   2.403   9.578  -0.443  0.2657  0.8457  0.8124
  303MOL0     C40802   2.271   9.625  -0.464  0.6485 -0.0146  0.1189
  303MOL0     C40803   2.163   9.575  -0.388  0.3971  0.1560  0.0764
  303MOL0     C40804   2.042   9.650  -0.376  0.1429  0.4081 -0.4099
  303MOL0     C40805   2.027   9.773  -0.444 -0.2676  0.6335 -0.0408
  303MOL0     O40806   1.905   9.844  -0.430  0.0215 -0.0347  0.2236
  303MOL0     C40807   1.905   9.986  -0.463  0.2706  0.5316 -0.0962
  303MOL0     C40808   1.766  10.042  -0.448  0.9602 -0.4153 -0.2590
  303MOL0     C40809   1.653   9.945  -0.469 -0.8423  0.5174 -0.3024
  303MOL0     C40810   1.519  10.012  -0.495 -0.1116 -0.0495 -0.5823
  303MOL0     C40811   1.412   9.914  -0.476  0.9464  0.0023 -0.7073
  303MOL0     C40812   1.268   9.973  -0.476 -0.1174 -0.0569 -0.3727
  303MOL0     C40813   1.223  10.060  -0.348  0.3673 -0.9218 -0.3428
  303MOL0     C40814   1.081  10.130  -0.350 -0.7847 -0.0700  0.1932
  303MOL0    Cl40815   0.960  10.010  -0.389  0.4778  0.0021 -0.5210
  303MOL0     C40816   2.121   9.820  -0.534 -0.3362  0.6153 -0.0868
  303MOL0     C40817   2.252   9.747  -0.534  0.5132 -0.7772 -0.7778
  303MOL0     O40818   2.350   9.350  -0.394 -0.1288 -0.3455  0.2798
  303MOL0     C40819   2.597   9.279  -0.330 -0.5999 -0.8823  0.6586
  303MOL0     C40820   2.729   9.236  -0.296 -0.5118 -0.4327  0.0107
  303MOL0     N40821   3.498   9.155  -0.294 -0.5427  1.0499  0.1774
  303MOL0     N40822   3.570   9.235  -0.364 -0.0694 -0.3564 -0.1264
  303MOL0     C40823   4.365   8.811   0.086  0.4490 -0.5303 -0.4751
  303MOL0     C40824   4.356   8.704   0.175 -0.1749  0.5701  0.1326
  303MOL0     C40825   4.256   8.409   0.487 -0.2788  0.2919  0.1059
  303MOL0     C40826   4.270   8.379   0.626 -0.4650 -0.2275 -0.7746
  303MOL0     C40827   4.223   8.265   0.692 -0.1565  0.3508 -0.6475
  303MOL0     C40828   4.153   8.168   0.619  0.7392 -0.1581  0.1825
  303MOL0     O40829   4.105   8.056   0.681  0.0153  0.0109 -0.6236
  303MOL0     C40830   4.074   7.937   0.600 -0.7333 -0.3785 -0.1272
  303MOL0     C40831   3.931   7.943   0.550  0.0418 -0.7332 -0.2814
  303MOL0     C40832   3.840   7.845   0.624 -0.7339  0.2238  0.1341
  303MOL0     C40833   3.847   7.876   0.773 -0.6111 -0.8665 -1.1781
  303MOL0     C40834   3.747   7.789   0.836 -0.7360  0.9063  0.5559
  303MOL0     C40835   3.642   7.730   0.868  0.1834  0.3891  0.2490
  303MOL0     C40836   4.139   8.192   0.478  0.1335 -0.8608  0.4806
  303MOL0     C40837   4.187   8.309   0.411  0.0779 -0.4087  0.1488
  303MOL0     H40838   4.048   8.759   0.322 -0.1949 -0.3899 -0.1662
  303MOL0     H40839   4.094   8.977   0.210 -1.2596 -1.8649 -0.7263
  303MOL0     H40840   4.117   9.095  -0.023  1.2944 -2.8540  1.6328
  303MOL0     H40841   4.168   9.168   0.132  3.4914  1.6289  1.0281
  303MOL0     H40842   4.339   9.287   0.041 -0.2774  0.7067 -0.5437
  303MOL0     H40843   4.321   9.234  -0.115 -0.7564  0.4115 -1.0426
  303MOL0     H40844   4.111   9.388   0.052 -1.1715 -0.3763 -0.7418
  303MOL0     H40845   4.230   9.471  -0.051 -0.9186  0.1886  0.9818
  303MOL0     H40846   4.123   9.380  -0.256 -1.4355 -0.6716 -0.7913
  303MOL0     H40847   4.027   9.268  -0.160 -1.6676  1.7715  0.1097
  303MOL0     H40848   3.924   9.474  -0.065  1.0656  0.9129  0.8909
  303MOL0     H40849   3.997   9.555  -0.208 -1.4328  0.9811  0.1599
  303MOL0     H40850   3.884   9.390  -0.357 -1.2864  0.2337 -0.9841
  303MOL0     H40851   3.801   9.336  -0.211  4.5622 -2.1685 -1.4600
  303MOL0     H40852   3.715   9.578  -0.205  0.8521 -0.1662  0.4835
  303MOL0     H40853   3.806   9.609  -0.354  1.7119 -0.5244  1.0307
  303MOL0     H40854   3.666   9.455  -0.481 -0.5335 -0.6845  0.0685
  303MOL0     H40855   3.568   9.558  -0.390  0.5323  0.3789 -5.1113
  303MOL0     H40856   3.449   9.434  -0.127  0.0989  3.1834 -2.0254
  303MOL0     H40857   3.319   9.049  -0.154 -3.1765  0.7774 -0.2192
  303MOL0     H40858   3.375   9.111  -0.003 -1.4086  1.1051  0.7738
  303MOL0     H40859   3.220   9.305  -0.177 -0.5881  0.2149  0.1989
  303MOL0     H40860   3.223   9.293  -0.006 -0.1390 -0.6683  0.7925
  303MOL0     H40861   3.075   9.097   0.006  2.1303 -0.7555  0.1469
  303MOL0     H40862   3.083   9.082  -0.171 -1.5414 -1.9554  2.0428
  303MOL0     H40863   2.992   9.347  -0.057 -3.4629  0.9848 -2.0933
  303MOL0     H40864   2.892   9.204  -0.069 -0.6332  0.5380  0.0763
  303MOL0     H40865   2.894   9.529  -0.288 -0.9127  1.0443  3.8412
  303MOL0     H40866   2.584   9.684  -0.284  0.9739 -1.8798  1.1261
  303MOL0     H40867   2.756   9.706  -0.337  0.6272 -0.1082 -4.1758
  303MOL0     H40868   2.642   9.662  -0.455 -1.2280  1.1175  0.1444
  303MOL0     H40869   2.185   9.491  -0.323  2.5009  1.4155  1.1096
  303MOL0     H40870   1.970   9.622  -0.300  1.3663 -0.4254  0.4899
  303MOL0     H40871   1.974  10.043  -0.400 -0.7735  0.5246  1.0967
  303MOL0     H40872   1.912  10.002  -0.570 -5.5649 -0.6164 -0.9876
  303MOL0     H40873   1.756  10.064  -0.341 -0.7769 -1.0582 -0.2592
  303MOL0     H40874   1.748  10.131  -0.508 -1.6418 -1.1238 -0.6119
  303MOL0     H40875   1.648   9.879  -0.382  1.0757 -1.0927 -1.3238
  303MOL0     H40876   1.676   9.888  -0.560 -0.4990  1.6041 -0.9141
  303MOL0     H40877   1.519  10.097  -0.425  1.1768  0.2456 -0.9128
  303MOL0     H40878   1.512  10.054  -0.596  0.3746  0.1961 -0.5173
  303MOL0     H40879   1.418   9.862  -0.380 -0.2437 -0.4071 -0.8501
  303MOL0     H40880   1.417   9.828  -0.543  1.2442 -1.1513  0.7354
  303MOL0     H40881   1.238  10.021  -0.569 -0.6872 -1.3709 -0.8886
  303MOL0     H40882   1.205   9.884  -0.464  0.0970 -0.3809 -1.5512
  303MOL0     H40883   1.304  10.131  -0.327  1.0204 -0.8231 -2.8653
  303MOL0     H40884   1.227   9.983  -0.270  3.2482 -1.1364 -0.5688
  303MOL0     H40885   1.083  10.207  -0.428  2.9542 -0.5151 -0.3256
  303MOL0     H40886   1.054  10.167  -0.251 -1.2046 -0.5056  0.2445
  303MOL0     H40887   2.098   9.911  -0.590 -0.3134  1.8069  1.7641
  303MOL0     H40888   2.340   9.781  -0.587  0.0983  0.4497 -0.7137
  303MOL0     H40889   2.531   9.194  -0.343 -0.2218 -1.3003  1.3757
  303MOL0     H40890   2.746   9.129  -0.294 -1.1681 -0.5450 -0.1629
  303MOL0     H40891   4.447   8.837   0.019  1.3431  2.5640  1.6309
  303MOL0     H40892   4.433   8.628   0.171 -0.2087  0.0683  4.2799
  303MOL0     H40893   4.309   8.461   0.686 -2.7954 -0.0360  0.5916
  303MOL0     H40894   4.226   8.263   0.800  1.4693  1.9032 -0.6252
  303MOL0     H40895   4.152   7.937   0.523 -2.4488  0.0717 -1.9639
  303MOL0     H40896   4.097   7.848   0.659 -1.4425  0.4045  1.3878
  303MOL0     H40897   3.925   7.926   0.442 -0.0569  0.5893 -0.4965
  303MOL0     H40898   3.897   8.045   0.566 -1.7653 -1.2091 -0.8664
  303MOL0     H40899   3.870   7.741   0.611  2.2767  0.8799  1.1950
  303MOL0     H40900   3.741   7.864   0.580 -1.2292 -1.1027  0.6461
  303MOL0     H40901   3.823   7.980   0.797  4.2666  0.6751 -1.9819
  303MOL0     H40902   3.949   7.863   0.811  0.0599  1.1753 -2.1182
  303MOL0     H40903   3.553   7.673   0.888  0.7303 -0.9099 -0.9012
  303MOL0     H40904   4.079   8.124   0.418 -1.8730 -0.4409  1.8967
  303MOL0     H40905   4.176   8.320   0.303 -0.5442 -3.7235 -0.2629
  304MOL0     O40906   9.455   3.871   0.918 -0.1060 -0.2488 -0.3212
  304MOL0     C40907   9.526   3.770   0.913 -0.6527  0.3896 -0.9861
  304MOL0     O40908   9.485   3.638   0.928 -0.6849  0.6696 -0.0851
  304MOL0     C40909   9.348   3.623   0.957 -0.0452 -0.0274  0.1408
  304MOL0     C40910   9.284   3.694   1.061  0.2705 -0.5029  0.5093
  304MOL0     C40911   9.147   3.675   1.087 -0.4853  0.5888  0.8481
  304MOL0     C40912   9.074   3.584   1.002  0.3111  0.0222 -0.1004
  304MOL0     O40913   8.945   3.535   1.033 -0.0653  0.0415  0.5744
  304MOL0     C40914   8.850   3.631   1.094  0.3623  0.3364 -0.2066
  304MOL0     C40915   8.720   3.554   1.107 -0.3857 -0.2070 -0.8405
  304MOL0     C40916   8.718   3.468   1.234 -0.2551 -0.1797 -0.5348
  304MOL0     C40917   8.607   3.364   1.217 -0.4161  0.1752  0.6277
  304MOL0     C40918   8.471   3.442   1.195 -0.2841  0.4477 -0.6100
  304MOL0     C40919   8.361   3.352   1.260  0.3167  0.8931 -0.1931
  304MOL0     C40920   8.370   3.197   1.252 -0.6542 -0.8410  0.2305
  304MOL0     C40921   8.232   3.145   1.300  0.2476 -1.3354 -0.0499
  304MOL0     N40922   8.211   3.003   1.273  0.2641 -0.7206  0.4144
  304MOL0     C40923   8.177   2.944   1.152 -1.0356 -0.7825 -0.0961
  304MOL0     C40924   8.144   2.813   1.194 -0.0661  0.1706  0.7030
  304MOL0     C40925   8.094   2.705   1.106 -0.1659 -0.8116 -0.3120
  304MOL0     C40926   8.211   2.651   1.023 -0.6198 -0.3263  0.2575
  304MOL0     C40927   8.172   2.560   0.907 -0.4451  0.4825 -0.0223
  304MOL0     C40928   8.140   2.418   0.940  0.8496  0.3477 -0.9307
  304MOL0     O40929   8.061   2.358   0.834 -0.4505 -0.0312 -0.3819
  304MOL0     C40930   8.109   2.256   0.745 -0.7800  0.1243 -0.5952
  304MOL0     C40931   8.246   2.225   0.739  0.4683 -0.1555  0.3670
  304MOL0     C40932   8.293   2.129   0.653  0.5676  0.1131  0.3392
  304MOL0     C40933   8.441   2.114   0.628 -0.1649 -0.2004  0.0031
  304MOL0     C40934   8.199   2.064   0.557 -0.6608  0.0835 -0.4224
  304MOL0     C40935   8.214   1.940   0.475  0.2111  0.4774  1.2820
  304MOL0     O40936   8.124   1.919   0.373  0.3338 -1.0230 -0.3701
  304MOL0     C40937   8.118   1.796   0.326 -0.2253 -0.3276 -0.5551
  304MOL0     C40938   8.007   1.722   0.327  0.7669  0.3316  0.4424
  304MOL0     C40939   7.996   1.602   0.255 -0.4869 -0.1162 -0.3553
  304MOL0     C40940   8.101   1.563   0.173  0.3695  0.6874 -0.4921
  304MOL0     O40941   8.098   1.447   0.094  0.7135 -0.0007  0.0561
  304MOL0     C40942   8.065   1.328   0.168 -0.1648 -0.5952  0.0156
  304MOL0     C40943   8.074   1.212   0.066 -0.0433  0.8496  0.0817
  304MOL0     C40944   8.050   1.066   0.126 -0.4680 -0.4819 -0.3674
  304MOL0     C40945   7.912   1.052   0.198 -0.2861  0.8497 -0.5002
  304MOL0     C40946   7.900   0.920   0.248 -0.7960  0.6278 -0.2547
  304MOL0     C40947   7.754   0.898   0.294 -0.6997  1.2569  0.1330
  304MOL0     C40948   7.762   0.775   0.383 -0.1466  0.6039  0.8589
  304MOL0     C40949   7.627   0.693   0.372 -0.1851 -0.4541 -0.1318
  304MOL0    Cl40950   7.498   0.791   0.437  0.1638 -0.1429  0.1108
  304MOL0     C40951   8.222   1.632   0.173 -0.3936 -0.0073 -0.0031
  304MOL0     C40952   8.226   1.746   0.252  0.6718 -0.2269 -0.5619
  304MOL0     O40953   8.287   1.858   0.518  0.1520 -0.0319 -0.1471
  304MOL0     C40954   8.066   2.095   0.567  1.0443 -0.9577 -0.2772
  304MOL0     C40955   8.025   2.189   0.663 -0.1848  0.6076 -0.6780
  304MOL0     N40956   8.159   2.800   1.331 -0.2694  0.3092  0.1082
  304MOL0     N40957   8.187   2.917   1.372 -0.2470  0.2843 -0.6355
  304MOL0     C40958   9.143   3.518   0.899  0.1135  0.8513  0.4154
  304MOL0     C40959   9.277   3.542   0.881 -0.6418  0.3730 -0.2779
  304MOL0     C40960   9.665   3.791   0.866 -0.4062  0.5191  0.1124
  304MOL0     C40961   9.713   3.924   0.864 -1.2550 -0.3788 -0.5601
  304MOL0     C40962   9.847   3.944   0.817  0.7054  0.3954 -0.4038
  304MOL0     C40963   9.930   3.836   0.783 -0.1099  0.3557 -0.2427
  304MOL0     O40964  10.060   3.860   0.756 -0.4820 -0.3696  0.0558
  304MOL0     C40965  10.140   3.888   0.872  0.1065 -0.5323 -0.0578
  304MOL0     C40966  10.281   3.900   0.818 -1.1244 -0.4920 -0.2484
  304MOL0     C40967  10.386   3.921   0.928 -0.1475 -0.4510 -1.2123
  304MOL0     C40968  10.513   3.979   0.861 -0.1687 -0.1853  0.1304
  304MOL0     C40969  10.614   4.032   0.948  0.0474 -0.3347 -0.2466
  304MOL0     C40970  10.679   4.077   1.037 -0.1195  0.7030 -0.0320
  304MOL0     C40971   9.873   3.709   0.782 -0.1260 -0.9074  1.4977
  304MOL0     C40972   9.744   3.682   0.821 -0.5594 -0.4226  0.4544
  304MOL0     H40973   9.347   3.748   1.130  0.9161 -1.2085  0.4844
  304MOL0     H40974   9.097   3.726   1.169 -0.1356  5.0838 -1.4585
  304MOL0     H40975   8.893   3.665   1.189  0.2686 -2.8961  1.1165
  304MOL0     H40976   8.833   3.714   1.025  0.9315  2.4270  2.0138
  304MOL0     H40977   8.639   3.624   1.130 -1.9390 -2.7570  2.2016
  304MOL0     H40978   8.705   3.493   1.018  0.1961 -4.3045  1.5950
  304MOL0     H40979   8.809   3.409   1.246 -0.9429 -1.5206 -1.6268
  304MOL0     H40980   8.705   3.532   1.322 -3.6339 -0.7054 -0.5338
  304MOL0     H40981   8.609   3.296   1.132 -1.6081 -2.0903  2.3026
  304MOL0     H40982   8.613   3.293   1.300 -4.0684 -2.0890 -0.8022
  304MOL0     H40983   8.454   3.540   1.240 -2.5772  0.7526 -2.0002
  304MOL0     H40984   8.452   3.459   1.088 -1.2457 -0.1114 -0.5405
  304MOL0     H40985   8.359   3.370   1.368  0.5718 -2.1396  0.3994
  304MOL0     H40986   8.261   3.373   1.220 -1.2162 -2.4764  1.4530
  304MOL0     H40987   8.387   3.173   1.147 -2.7157  1.2239 -0.6704
  304MOL0     H40988   8.445   3.154   1.319 -0.0787 -0.3066 -0.0613
  304MOL0     H40989   8.155   3.205   1.251 -1.0499 -2.1724  0.8595
  304MOL0     H40990   8.225   3.163   1.408  0.8199 -2.9796  0.2925
  304MOL0     H40991   8.175   2.987   1.052 -4.5815 -1.1783 -0.2905
  304MOL0     H40992   8.037   2.627   1.157 -0.3410 -0.7175 -0.3604
  304MOL0     H40993   8.029   2.759   1.036  0.7734  0.7609 -0.0211
  304MOL0     H40994   8.287   2.604   1.086 -0.5543  1.5933  1.6946
  304MOL0     H40995   8.250   2.743   0.980 -2.6081 -0.9818 -3.2931
  304MOL0     H40996   8.246   2.559   0.827  1.5686 -0.3606  1.7720
  304MOL0     H40997   8.084   2.610   0.864  0.1890  2.7391  1.1344
  304MOL0     H40998   8.074   2.417   1.028 -2.9229 -3.2793 -3.3999
  304MOL0     H40999   8.226   2.359   0.971  0.9076  1.2944  0.8342
  304MOL0     H41000   8.321   2.288   0.786 -1.1078  0.6718  1.8404
  304MOL0     H41001   8.475   2.010   0.631 -0.4544 -0.3456 -1.2043
  304MOL0     H41002   8.481   2.164   0.539  1.1359 -0.3617  0.4850
  304MOL0     H41003   8.491   2.152   0.717 -0.1651  0.9934 -0.4910
  304MOL0     H41004   7.924   1.763   0.385  0.0024 -1.1043  0.4011
  304MOL0     H41005   7.916   1.528   0.259 -0.3467 -0.2380  0.3288
  304MOL0     H41006   8.144   1.308   0.241  1.0098 -0.6095 -1.2339
  304MOL0     H41007   7.964   1.322   0.210 -0.0531 -0.6676  0.2755
  304MOL0     H41008   7.994   1.231  -0.006 -0.8521  0.2817  0.8039
  304MOL0     H41009   8.171   1.222   0.017 -0.5300  1.7792 -0.7177
  304MOL0     H41010   8.140   1.052   0.188 -2.3502  0.1756  2.7403
  304MOL0     H41011   8.060   0.995   0.043  0.4007 -0.7691 -0.0309
  304MOL0     H41012   7.894   1.126   0.277 -0.9272  2.0569 -1.7244
  304MOL0     H41013   7.822   1.056   0.135 -0.3740 -0.8234 -0.5269
  304MOL0     H41014   7.968   0.911   0.333 -2.5450  0.6136  1.2080
  304MOL0     H41015   7.918   0.845   0.171 -0.9389 -2.5582  2.5445
  304MOL0     H41016   7.700   0.977   0.347  1.9789  2.7457  0.8151
  304MOL0     H41017   7.705   0.874   0.199  1.0777  2.4981 -1.1660
  304MOL0     H41018   7.802   0.799   0.482  1.6105 -2.4445  1.0114
  304MOL0     H41019   7.839   0.709   0.343 -1.0007  1.1445 -1.8945
  304MOL0     H41020   7.632   0.601   0.431  2.6523  0.0802  0.6242
  304MOL0     H41021   7.614   0.674   0.265  4.2978  2.7168 -1.5606
  304MOL0     H41022   8.312   1.613   0.115 -0.3536  2.4500 -0.9009
  304MOL0     H41023   8.315   1.807   0.239  1.4730 -1.9128 -4.2234
  304MOL0     H41024   7.977   2.050   0.523 -0.1585  0.8411  0.1927
  304MOL0     H41025   7.921   2.209   0.688  0.6185  0.5721  3.1616
  304MOL0     H41026   9.086   3.448   0.839 -1.0801  1.0587  1.2672
  304MOL0     H41027   9.319   3.494   0.793 -1.5284  0.7592 -0.9362
  304MOL0     H41028   9.647   4.008   0.884 -2.5395 -1.2388 -1.0601
  304MOL0     H41029   9.887   4.044   0.821 -0.6027  0.9144  0.2848
  304MOL0     H41030  10.123   3.992   0.900 -1.4186 -0.8046  0.0963
  304MOL0     H41031  10.131   3.816   0.953 -0.9423  0.9248  1.1681
  304MOL0     H41032  10.276   3.981   0.745 -1.1470 -0.6033 -0.3711
  304MOL0     H41033  10.307   3.808   0.764 -0.3806 -0.1531 -0.4781
  304MOL0     H41034  10.412   3.829   0.982 -1.3316 -0.6496 -0.9615
  304MOL0     H41035  10.347   3.998   0.995  1.4551  0.0920 -0.8676
  304MOL0     H41036  10.494   4.057   0.786  0.4243  0.4774  0.6549
  304MOL0     H41037  10.576   3.902   0.816  1.7692  1.2098  0.3565
  304MOL0     H41038  10.728   4.129   1.117 -0.3516  2.2434 -0.8533
  304MOL0     H41039   9.941   3.630   0.752 -0.7525 -1.4541  1.4806
  304MOL0     H41040   9.695   3.585   0.821 -1.1701 -0.2048 -2.1012
  305MOL0     O41041   8.612  11.052   4.786 -0.6359 -0.8031  0.0711
  305MOL0     C41042   8.637  10.979   4.877  0.1268 -0.0667  0.7870
  305MOL0     O41043   8.545  10.915   4.952  0.1421  0.5628 -0.5772
  305MOL0     C41044   8.420  10.952   4.958  0.6832  0.5234 -0.8020
  305MOL0     C41045   8.326  10.966   4.854 -0.2305  0.0047  0.5614
  305MOL0     C41046   8.196  10.979   4.888 -0.4849  0.3086  0.6265
  305MOL0     C41047   8.158  10.982   5.024 -0.0970  0.7420  0.4237
  305MOL0     O41048   8.017  10.992   5.046 -0.4700  0.2191  0.4560
  305MOL0     C41049   7.964  10.949   5.168  0.2525  0.5622 -0.6797
  305MOL0     C41050   7.911  10.797   5.143 -0.4933  0.3802 -0.3877
  305MOL0     C41051   7.826  10.753   5.255 -0.2961 -0.1723  0.8648
  305MOL0     C41052   7.783  10.604   5.232 -0.6344 -0.0624 -0.2373
  305MOL0     C41053   7.679  10.547   5.320 -0.1166 -0.5649 -0.3475
  305MOL0     C41054   7.624  10.404   5.265 -0.2939  0.2719  0.4300
  305MOL0     C41055   7.497  10.364   5.340  0.4941 -0.4145 -0.5809
  305MOL0     C41056   7.411  10.251   5.281  0.0930  0.8578 -0.7486
  305MOL0     N41057   7.487  10.124   5.281 -0.2270 -0.6226  0.3285
  305MOL0     C41058   7.576  10.087   5.188  1.5127  0.0440  0.0950
  305MOL0     C41059   7.630   9.973   5.241 -0.1185  0.0316  0.6943
  305MOL0     C41060   7.742   9.892   5.188  0.8917 -0.4716 -0.3696
  305MOL0     C41061   7.730   9.857   5.036  0.0995  0.1410  0.1853
  305MOL0     C41062   7.632   9.742   5.002 -0.1348 -0.1805  0.0883
  305MOL0     C41063   7.690   9.602   5.028  0.1943  0.3580 -0.4538
  305MOL0     O41064   7.706   9.572   5.165 -0.0935 -0.1109  0.0304
  305MOL0     C41065   7.597   9.509   5.228 -0.1358  0.6314  0.4921
  305MOL0     C41066   7.552   9.384   5.189  0.0759 -0.3038 -0.5830
  305MOL0     C41067   7.449   9.318   5.253 -0.6645 -0.3698 -0.2586
  305MOL0     C41068   7.420   9.185   5.187 -0.5247  0.0761  0.7684
  305MOL0     C41069   7.380   9.387   5.363  0.0363  0.3818  0.0337
  305MOL0     C41070   7.262   9.329   5.434 -0.6426 -0.6990 -0.3917
  305MOL0     O41071   7.205   9.419   5.524 -0.1258  0.0371 -0.7620
  305MOL0     C41072   7.065   9.426   5.517  0.3642  0.2476 -0.0638
  305MOL0     C41073   6.984   9.355   5.610 -0.4605 -0.7890  0.3327
  305MOL0     C41074   6.843   9.355   5.596 -0.8332  0.3514 -0.2383
  305MOL0     C41075   6.778   9.441   5.506  0.8369  0.4557  0.1112
  305MOL0     O41076   6.638   9.449   5.499  0.8557  0.1662  0.4874
  305MOL0     C41077   6.567   9.458   5.623  0.5756 -0.4746 -0.0339
  305MOL0     C41078   6.565   9.590   5.692  0.3407 -0.1740  0.0521
  305MOL0     C41079   6.476   9.695   5.627  1.0060  0.3978 -0.3830
  305MOL0     C41080   6.480   9.699   5.476  0.5782  0.8287 -0.3458
  305MOL0     C41081   6.433   9.840   5.434 -0.2592  0.2036  0.1090
  305MOL0     C41082   6.403   9.824   5.281 -0.4312  0.9690 -1.0528
  305MOL0     C41083   6.361   9.950   5.225  0.1383 -0.2700 -0.2487
  305MOL0     C41084   6.312   9.917   5.085 -0.2324 -0.3453 -0.6346
  305MOL0    Cl41085   6.255  10.060   5.001 -0.0516 -0.3507  0.0951
  305MOL0     C41086   6.857   9.512   5.421  0.9311 -0.1389  0.4798
  305MOL0     C41087   6.992   9.506   5.428  0.0554 -0.1839  0.5984
  305MOL0     O41088   7.213   9.224   5.389  0.6368  0.0605  0.7898
  305MOL0     C41089   7.416   9.525   5.381  0.7248  1.2370 -0.3424
  305MOL0     C41090   7.524   9.581   5.322 -0.1024 -0.4089  0.8237
  305MOL0     N41091   7.558   9.930   5.350  0.9583 -0.3523  0.2321
  305MOL0     N41092   7.480  10.027   5.372 -0.5164  0.8389 -0.0517
  305MOL0     C41093   8.253  10.967   5.129 -0.2870  0.0742  0.7872
  305MOL0     C41094   8.379  10.951   5.090 -0.4538 -0.7602 -0.0781
  305MOL0     C41095   8.786  10.961   4.912  0.7021 -0.4796  0.9706
  305MOL0     C41096   8.881  11.012   4.812  1.1251  0.3385  0.0658
  305MOL0     C41097   9.020  11.014   4.847  0.6167  0.3188  0.3662
  305MOL0     C41098   9.066  10.966   4.971  0.2020 -0.3428  0.0923
  305MOL0     O41099   9.193  10.959   5.018  0.2243  0.7041 -0.3333
  305MOL0     C41100   9.297  11.037   4.955  0.3374  0.5269 -0.2308
  305MOL0     C41101   9.296  11.185   5.002  0.1617  0.4433  0.6230
  305MOL0     C41102   9.250  11.216   5.143  0.7646  0.9993  1.1272
  305MOL0     C41103   9.342  11.156   5.248 -0.1580 -0.0611 -0.1742
  305MOL0     C41104   9.432  11.255   5.295 -1.2021 -0.5929 -0.4602
  305MOL0     C41105   9.496  11.347   5.339 -0.2051 -0.0845  0.6275
  305MOL0     C41106   8.973  10.920   5.059 -0.2066 -0.6290 -0.4965
  305MOL0     C41107   8.835  10.920   5.032  0.3364  0.6437  0.4022
  305MOL0     H41108   8.358  10.957   4.751 -0.0817  0.5973  0.5568
  305MOL0     H41109   8.121  10.979   4.809 -0.9181  1.4688  1.0144
  305MOL0     H41110   8.030  10.945   5.256 -0.6401  1.0158  0.0365
  305MOL0     H41111   7.881  11.018   5.188 -1.4884 -1.1316 -1.7251
  305MOL0     H41112   7.845  10.801   5.056  1.6637  0.9716 -2.0978
  305MOL0     H41113   7.997  10.734   5.116  1.1346  1.8974  1.0233
  305MOL0     H41114   7.863  10.767   5.357 -3.7592 -0.8483  2.3657
  305MOL0     H41115   7.739  10.819   5.249  0.4612  0.6729 -1.6668
  305MOL0     H41116   7.767  10.583   5.126 -0.9339  1.6419 -0.5703
  305MOL0     H41117   7.876  10.552   5.255 -0.5691 -0.6514 -1.7329
  305MOL0     H41118   7.722  10.540   5.421 -3.9857 -2.2523  1.3875
  305MOL0     H41119   7.598  10.621   5.323  1.2258  0.9201  1.8433
  305MOL0     H41120   7.592  10.430   5.164 -4.1678  1.2934  1.7399
  305MOL0     H41121   7.702  10.328   5.254  0.3254  0.7482  1.3249
  305MOL0     H41122   7.519  10.335   5.443  0.5708 -1.4998 -0.8870
  305MOL0     H41123   7.428  10.448   5.353  3.4617  1.9279  1.2259
  305MOL0     H41124   7.391  10.279   5.177  0.3757  0.7101 -0.8419
  305MOL0     H41125   7.317  10.244   5.337  0.2640  0.5355 -0.4998
  305MOL0     H41126   7.607  10.148   5.104 -2.1886  1.4869 -0.4323
  305MOL0     H41127   7.838   9.943   5.197  0.1790  0.7100  0.6423
  305MOL0     H41128   7.747   9.801   5.248  0.5285 -1.2944 -1.5378
  305MOL0     H41129   7.828   9.827   4.998 -0.6076 -1.5831 -0.3808
  305MOL0     H41130   7.695   9.941   4.975  1.3353  0.5594  0.0331
  305MOL0     H41131   7.616   9.746   4.894  1.2198  0.0269 -0.1251
  305MOL0     H41132   7.542   9.755   5.062 -0.5923  0.0663 -0.6455
  305MOL0     H41133   7.793   9.609   4.992  1.3193  1.1803  2.6616
  305MOL0     H41134   7.638   9.524   4.972 -1.0988  1.3350 -0.6561
  305MOL0     H41135   7.607   9.341   5.106  0.8876  0.1329 -0.2783
  305MOL0     H41136   7.403   9.105   5.259  0.1100 -0.4828  0.3018
  305MOL0     H41137   7.331   9.189   5.123 -0.1695 -1.7495  0.0898
  305MOL0     H41138   7.503   9.155   5.123  0.0421 -2.0011  2.3824
  305MOL0     H41139   7.033   9.303   5.692 -0.9910  0.5153  1.5265
  305MOL0     H41140   6.790   9.288   5.663 -0.0991 -0.2575 -0.2457
  305MOL0     H41141   6.462   9.435   5.604  0.0881  1.3395  0.3038
  305MOL0     H41142   6.591   9.379   5.696 -2.0101 -1.6864 -0.4003
  305MOL0     H41143   6.528   9.580   5.794  1.3944 -1.1194  0.3553
  305MOL0     H41144   6.669   9.625   5.698 -0.5803  3.1972 -0.9883
  305MOL0     H41145   6.500   9.798   5.653  1.7877  0.9778 -3.0810
  305MOL0     H41146   6.372   9.668   5.649  0.6003  3.3762  1.9418
  305MOL0     H41147   6.578   9.691   5.426  0.1259  1.9496 -1.4713
  305MOL0     H41148   6.407   9.628   5.439  1.0025  0.4345 -0.4340
  305MOL0     H41149   6.501   9.923   5.455 -1.0777  0.7530  0.6551
  305MOL0     H41150   6.340   9.860   5.489 -0.8155  1.2745 -1.1860
  305MOL0     H41151   6.490   9.779   5.233 -0.1840 -1.8390  1.7100
  305MOL0     H41152   6.323   9.752   5.263 -1.0894  1.2858  0.5083
  305MOL0     H41153   6.441  10.024   5.217 -0.6297  0.5876 -0.2183
  305MOL0     H41154   6.277   9.989   5.283 -0.1524 -1.2608  0.0129
  305MOL0     H41155   6.223   9.854   5.093 -0.3420 -0.1027  0.1274
  305MOL0     H41156   6.390   9.859   5.036  0.2889  1.4639 -2.0718
  305MOL0     H41157   6.803   9.569   5.346 -1.7816 -0.1016  2.3363
  305MOL0     H41158   7.055   9.569   5.365  0.0409 -0.6240  0.1449
  305MOL0     H41159   7.355   9.587   5.445 -2.6422 -0.8205 -1.2936
  305MOL0     H41160   7.560   9.680   5.345 -0.8821  0.2290 -0.5637
  305MOL0     H41161   8.236  10.967   5.236  1.4120  1.0975  1.0948
  305MOL0     H41162   8.458  10.939   5.164  0.1074 -0.9260 -0.6994
  305MOL0     H41163   8.848  11.049   4.716  2.7638 -0.9180 -1.0383
  305MOL0     H41164   9.087  11.056   4.773  0.8133 -0.1550  0.2726
  305MOL0     H41165   9.395  11.010   4.996 -1.2691 -2.8734  1.8845
  305MOL0     H41166   9.300  11.036   4.846  0.4679  0.3794 -0.2253
  305MOL0     H41167   9.226  11.233   4.933  0.6720 -0.7614 -0.7726
  305MOL0     H41168   9.391  11.237   4.991 -0.9410  2.4968  0.3706
  305MOL0     H41169   9.154  11.167   5.160  0.8796 -1.2806 -3.3356
  305MOL0     H41170   9.233  11.324   5.151 -0.7536  0.7319  1.7483
  305MOL0     H41171   9.402  11.068   5.221  1.4951  0.6606  0.9524
  305MOL0     H41172   9.292  11.116   5.336 -1.5411  2.8904  0.4967
  305MOL0     H41173   9.558  11.421   5.386  0.8822 -0.3660 -0.3098
  305MOL0     H41174   9.014  10.878   5.150  1.2134  1.4876 -0.0881
  305MOL0     H41175   8.776  10.862   5.102  0.6805  0.2908  0.4036
  306MOL0     O41176   2.414   0.597   2.620 -0.2613  0.3033 -0.4414
  306MOL0     C41177   2.325   0.574   2.703 -0.4220 -1.1293  0.2304
  306MOL0     O41178   2.200   0.525   2.666 -0.0659 -0.1382 -0.0743
  306MOL0     C41179   2.143   0.565   2.547 -0.9639  0.1519  0.3926
  306MOL0     C41180   2.058   0.471   2.489 -0.6262 -0.3064 -0.0830
  306MOL0     C41181   1.997   0.484   2.369  0.1625 -0.1685 -0.1098
  306MOL0     C41182   2.014   0.599   2.295  0.8200 -0.1991 -0.5374
  306MOL0     O41183   1.933   0.623   2.183 -0.4563 -0.2748  0.4166
  306MOL0     C41184   1.802   0.579   2.180 -0.3858  0.7534 -0.5860
  306MOL0     C41185   1.708   0.667   2.092 -0.6671  0.4962 -0.6530
  306MOL0     C41186   1.753   0.687   1.948  0.7975  0.2183  0.7140
  306MOL0     C41187   1.861   0.795   1.927  0.0821  0.5836 -0.0689
  306MOL0     C41188   1.927   0.785   1.786  0.7822  0.8247 -1.2518
  306MOL0     C41189   2.026   0.896   1.747 -0.5491  0.3101  0.6210
  306MOL0     C41190   2.145   0.891   1.845 -0.6403  0.4638 -0.0931
  306MOL0     C41191   2.224   0.758   1.854 -0.2179 -0.1274  0.3229
  306MOL0     N41192   2.348   0.769   1.937  0.0945  0.5341 -0.2330
  306MOL0     C41193   2.355   0.830   2.055  0.5619  0.0338  0.1074
  306MOL0     C41194   2.483   0.824   2.090 -0.2571 -0.1509 -1.0974
  306MOL0     C41195   2.534   0.869   2.227  0.1363 -0.5521 -0.7431
  306MOL0     C41196   2.615   0.771   2.307  0.5033 -0.0769 -0.4028
  306MOL0     C41197   2.643   0.837   2.438 -0.8779 -0.1974 -0.5498
  306MOL0     C41198   2.722   0.740   2.534 -0.1664  0.1375  0.3408
  306MOL0     O41199   2.746   0.826   2.650 -0.5985  0.0918  0.6999
  306MOL0     C41200   2.798   0.761   2.761 -0.8790  0.0072 -0.3752
  306MOL0     C41201   2.816   0.839   2.865 -0.7037 -0.7580 -0.0994
  306MOL0     C41202   2.864   0.801   2.990  0.6290 -0.4234 -0.1670
  306MOL0     C41203   2.899   0.912   3.092  0.5499  0.0312  0.2537
  306MOL0     C41204   2.880   0.662   3.020  0.4406 -0.1194  0.1812
  306MOL0     C41205   2.956   0.606   3.138 -0.1931 -0.1579 -0.6556
  306MOL0     O41206   2.906   0.487   3.185  0.1537 -0.2477 -0.7736
  306MOL0     C41207   2.972   0.456   3.298  0.3677  1.0453 -0.6216
  306MOL0     C41208   2.928   0.513   3.412 -0.5402  0.0374  0.5343
  306MOL0     C41209   3.013   0.516   3.525  0.9606  0.1001 -0.6939
  306MOL0     C41210   3.134   0.440   3.531  0.0814 -0.2527  0.7871
  306MOL0     O41211   3.241   0.451   3.609 -0.1963  0.1246 -0.0627
  306MOL0     C41212   3.204   0.420   3.740 -0.4431  0.2960 -1.0783
  306MOL0     C41213   3.208   0.272   3.769  0.1181  0.0415 -0.8219
  306MOL0     C41214   3.333   0.186   3.739 -0.1305 -0.2642 -0.1107
  306MOL0     C41215   3.459   0.249   3.782  0.1196 -0.3461 -1.2513
  306MOL0     C41216   3.577   0.148   3.789 -0.0051  0.6395 -0.2762
  306MOL0     C41217   3.618   0.091   3.647  0.0952  0.9218 -0.2044
  306MOL0     C41218   3.727  -0.020   3.661  0.6396 -0.3963 -0.0587
  306MOL0     C41219   3.866   0.039   3.678 -0.5258 -0.6582 -0.4443
  306MOL0    Cl41220   3.978  -0.097   3.628 -0.4711 -0.1059 -0.1300
  306MOL0     C41221   3.172   0.371   3.416 -0.7598 -0.5154 -0.2650
  306MOL0     C41222   3.095   0.382   3.295  0.5167  0.0413 -0.5166
  306MOL0     O41223   3.055   0.669   3.178  0.8912  0.5158 -0.2354
  306MOL0     C41224   2.852   0.572   2.916  0.4345  0.3724  0.3952
  306MOL0     C41225   2.819   0.620   2.784  0.7697 -1.0195  0.4900
  306MOL0     N41226   2.560   0.765   2.000  0.6337  0.4186  0.9122
  306MOL0     N41227   2.476   0.714   1.910 -0.0559  0.1711  0.6272
  306MOL0     C41228   2.097   0.704   2.349  0.4636 -0.5275 -1.5675
  306MOL0     C41229   2.170   0.685   2.478 -0.1021 -0.4225  0.2882
  306MOL0     C41230   2.353   0.596   2.848  0.1560 -0.2441  0.2128
  306MOL0     C41231   2.487   0.616   2.890 -0.1471 -0.3614 -0.2149
  306MOL0     C41232   2.518   0.644   3.017 -0.0982  1.1687 -0.1204
  306MOL0     C41233   2.413   0.677   3.113 -0.9158 -0.3745  0.4125
  306MOL0     O41234   2.427   0.721   3.236  0.4885 -0.4170 -0.3369
  306MOL0     C41235   2.556   0.769   3.264 -0.5752  0.1495  0.0836
  306MOL0     C41236   2.554   0.804   3.415  0.1785 -0.4372  0.3123
  306MOL0     C41237   2.693   0.845   3.468 -0.0843 -0.0986 -0.0079
  306MOL0     C41238   2.726   0.984   3.421 -0.1150 -0.0078 -0.0755
  306MOL0     C41239   2.649   1.078   3.510  0.4117  0.6712  0.5546
  306MOL0     C41240   2.578   1.157   3.569 -0.6141 -0.6182  0.0680
  306MOL0     C41241   2.279   0.645   3.076 -0.6953  0.1938  0.4270
  306MOL0     C41242   2.248   0.612   2.942 -0.6060  0.8213  0.3653
  306MOL0     H41243   2.043   0.374   2.534  0.9197 -0.9948 -0.9628
  306MOL0     H41244   1.931   0.405   2.334 -0.4323 -0.0535  0.7204
  306MOL0     H41245   1.797   0.480   2.134  2.0891 -0.1092  0.8469
  306MOL0     H41246   1.764   0.576   2.282 -1.0313 -0.0098 -0.8319
  306MOL0     H41247   1.618   0.606   2.080  1.0119 -2.1188 -0.9939
  306MOL0     H41248   1.689   0.761   2.145 -0.0521  1.2000 -1.6552
  306MOL0     H41249   1.791   0.588   1.919 -0.2048 -0.4462  1.5644
  306MOL0     H41250   1.673   0.719   1.881  1.6317  0.0865 -0.3640
  306MOL0     H41251   1.804   0.886   1.943 -0.0382  0.6203 -0.7114
  306MOL0     H41252   1.939   0.779   2.002  1.4086 -0.3239 -1.5747
  306MOL0     H41253   1.960   0.682   1.767  3.3843  1.1072  1.1195
  306MOL0     H41254   1.847   0.796   1.712  0.6357  0.8510 -1.0892
  306MOL0     H41255   2.062   0.875   1.646 -0.1667 -1.3999  1.0789
  306MOL0     H41256   1.961   0.982   1.759 -1.1874 -0.3234  1.8923
  306MOL0     H41257   2.215   0.975   1.837 -0.2559  0.1848  0.2890
  306MOL0     H41258   2.109   0.909   1.947  1.5095 -3.2976  1.5158
  306MOL0     H41259   2.259   0.730   1.754  2.1740 -0.2576  1.1494
  306MOL0     H41260   2.153   0.676   1.868  0.4541 -0.9926 -1.1106
  306MOL0     H41261   2.275   0.875   2.114 -1.5860  0.0258 -2.5975
  306MOL0     H41262   2.584   0.966   2.219 -0.1555 -0.3488 -0.1489
  306MOL0     H41263   2.449   0.881   2.295  0.8230  0.5047 -0.0361
  306MOL0     H41264   2.712   0.743   2.264  0.4372 -1.1734  0.1217
  306MOL0     H41265   2.558   0.678   2.315  1.0606 -0.5887 -1.9758
  306MOL0     H41266   2.548   0.866   2.483 -1.0992 -0.7215 -0.6661
  306MOL0     H41267   2.707   0.923   2.417 -0.5155  0.3679  2.4960
  306MOL0     H41268   2.816   0.713   2.485  1.2727  0.4783  2.7229
  306MOL0     H41269   2.666   0.649   2.558  0.1569 -1.2449 -3.4457
  306MOL0     H41270   2.807   0.947   2.862  2.9610 -0.2112  1.9561
  306MOL0     H41271   2.996   0.961   3.078  0.7801 -0.7308 -0.9160
  306MOL0     H41272   2.819   0.986   3.095  0.0691 -0.4977  0.8394
  306MOL0     H41273   2.900   0.870   3.193 -3.5469 -1.0769 -0.0052
  306MOL0     H41274   2.835   0.566   3.398  0.0309  0.2508 -3.4577
  306MOL0     H41275   2.957   0.548   3.612  0.6247 -0.4785 -0.6894
  306MOL0     H41276   3.264   0.465   3.819 -0.1931 -1.5692 -0.1536
  306MOL0     H41277   3.101   0.447   3.765 -0.8234  0.2626 -2.4972
  306MOL0     H41278   3.199   0.269   3.878 -0.8329  1.9556 -0.7988
  306MOL0     H41279   3.123   0.215   3.731  1.6442 -2.1993 -1.0700
  306MOL0     H41280   3.339   0.164   3.632  1.5035  0.1487 -0.1267
  306MOL0     H41281   3.319   0.096   3.800 -0.9483 -1.2254 -1.6441
  306MOL0     H41282   3.486   0.328   3.711 -1.8138  1.0699 -0.5184
  306MOL0     H41283   3.446   0.286   3.884  1.6965 -2.6508 -0.1235
  306MOL0     H41284   3.552   0.067   3.858  0.5677  0.5966 -0.1203
  306MOL0     H41285   3.660   0.201   3.836 -0.3393  0.4822  0.5141
  306MOL0     H41286   3.526   0.050   3.605 -2.3533  0.0226  5.2125
  306MOL0     H41287   3.658   0.167   3.579  0.9424  0.4956 -0.1949
  306MOL0     H41288   3.717  -0.077   3.568 -0.1943  0.3113 -0.4260
  306MOL0     H41289   3.696  -0.080   3.747 -0.4922  0.5421  0.2201
  306MOL0     H41290   3.897   0.081   3.774 -0.0995  0.3329 -0.9952
  306MOL0     H41291   3.882   0.125   3.611  0.2358 -0.7384 -0.3691
  306MOL0     H41292   3.266   0.318   3.408 -0.7515 -0.8463  1.5322
  306MOL0     H41293   3.140   0.328   3.213 -0.9300 -0.4680 -1.0057
  306MOL0     H41294   2.870   0.466   2.932 -0.2165  0.4695  1.9357
  306MOL0     H41295   2.805   0.537   2.716 -0.8548  1.2001 -2.0993
  306MOL0     H41296   2.098   0.802   2.304 -0.6362  1.1445  1.7250
  306MOL0     H41297   2.243   0.756   2.515  0.3592  0.7286 -2.5638
  306MOL0     H41298   2.559   0.598   2.811 -1.4669 -1.5649 -1.1979
  306MOL0     H41299   2.624   0.652   3.040 -0.5925 -0.4859  3.5288
  306MOL0     H41300   2.637   0.699   3.244  1.7078  2.0085  2.2145
  306MOL0     H41301   2.570   0.863   3.209 -0.2185 -1.0008 -1.9127
  306MOL0     H41302   2.507   0.716   3.460 -1.9826  0.3617 -0.2572
  306MOL0     H41303   2.484   0.886   3.432 -0.4758 -1.0221  0.4819
  306MOL0     H41304   2.779   0.783   3.440  0.9604  0.9139  0.8802
  306MOL0     H41305   2.697   0.844   3.577  0.5728 -1.1805 -0.0168
  306MOL0     H41306   2.701   0.997   3.315  1.7906 -1.9358 -0.8389
  306MOL0     H41307   2.834   0.993   3.437  0.3098 -3.4709 -0.2209
  306MOL0     H41308   2.504   1.223   3.611  0.8163  0.0975  1.5605
  306MOL0     H41309   2.200   0.655   3.150  1.0010  3.1149  2.0598
  306MOL0     H41310   2.143   0.620   2.914 -1.0561 -1.6480  1.1279
  307MOL0     O41311   8.065   3.504   5.032  0.0192  0.1344  0.3050
  307MOL0     C41312   8.120   3.591   5.101 -0.7038 -0.0725  0.4339
  307MOL0     O41313   8.132   3.722   5.070  0.8848  0.2958  0.2760
  307MOL0     C41314   8.076   3.773   4.955  0.0211  0.9189 -0.6656
  307MOL0     C41315   8.033   3.900   4.975  0.1209  0.0493 -0.4678
  307MOL0     C41316   7.959   3.967   4.877 -0.0208  0.4193 -0.2953
  307MOL0     C41317   7.949   3.904   4.751  1.0477 -1.3351  0.1464
  307MOL0     O41318   7.882   3.978   4.657  0.1398 -0.3564 -0.0457
  307MOL0     C41319   7.874   3.924   4.523  0.4029 -0.4100 -0.2117
  307MOL0     C41320   7.822   4.018   4.421 -0.5690  0.2488 -0.1419
  307MOL0     C41321   7.684   4.068   4.450 -0.2682 -0.3318 -0.1189
  307MOL0     C41322   7.575   3.982   4.378  0.4032 -0.5097  0.1708
  307MOL0     C41323   7.438   4.037   4.414 -0.1764 -0.6547 -0.8603
  307MOL0     C41324   7.394   4.004   4.555 -1.3235  0.2756 -0.0478
  307MOL0     C41325   7.254   4.065   4.586  0.0520 -0.9178  0.7490
  307MOL0     C41326   7.265   4.214   4.632 -0.2619  0.4449  0.2050
  307MOL0     N41327   7.130   4.262   4.668  0.3599 -0.2107  0.7692
  307MOL0     C41328   7.032   4.205   4.746 -0.1601 -0.2925  0.0311
  307MOL0     C41329   6.934   4.300   4.745 -0.3508 -0.0189 -0.3490
  307MOL0     C41330   6.794   4.272   4.802  0.0503  1.1240 -1.0739
  307MOL0     C41331   6.761   4.348   4.935  0.6960 -0.0897  0.1850
  307MOL0     C41332   6.609   4.359   4.965  0.0487 -0.1615  0.2499
  307MOL0     C41333   6.551   4.213   4.961 -0.0839  0.0384  0.2510
  307MOL0     O41334   6.424   4.219   5.020 -0.5455 -0.7615 -0.0600
  307MOL0     C41335   6.320   4.195   4.940  0.2486 -0.7979  0.0011
  307MOL0     C41336   6.274   4.295   4.854 -1.2037  0.0880  0.4538
  307MOL0     C41337   6.161   4.274   4.778 -0.3968 -0.0011  0.1954
  307MOL0     C41338   6.139   4.394   4.680  0.2301  0.2173 -0.4738
  307MOL0     C41339   6.083   4.155   4.786  0.3283  0.0832 -0.7287
  307MOL0     C41340   5.963   4.126   4.697 -0.7740 -0.0421  0.9054
  307MOL0     O41341   5.935   4.206   4.589 -0.0777  0.5121 -0.6480
  307MOL0     C41342   5.829   4.180   4.500 -0.4377  0.7113  0.1319
  307MOL0     C41343   5.819   4.265   4.387 -1.0118 -0.1138  1.4407
  307MOL0     C41344   5.721   4.252   4.287 -0.3312 -0.4927 -0.0374
  307MOL0     C41345   5.620   4.154   4.290 -0.7337 -0.3305 -0.3313
  307MOL0     O41346   5.523   4.143   4.189  0.0610 -0.3969  0.4863
  307MOL0     C41347   5.468   4.265   4.142  0.0223  0.1358 -0.6804
  307MOL0     C41348   5.334   4.237   4.084  0.0991 -0.4291  0.2477
  307MOL0     C41349   5.254   4.364   4.040 -0.1974  0.4382 -0.0760
  307MOL0     C41350   5.140   4.335   3.947 -0.6583  0.4125 -0.2274
  307MOL0     C41351   5.048   4.447   3.926  0.1030 -0.8525  0.4680
  307MOL0     C41352   4.949   4.402   3.812  0.7818 -0.4936 -0.0825
  307MOL0     C41353   4.835   4.505   3.807  0.9871  0.5837 -0.6100
  307MOL0     C41354   4.741   4.482   3.686 -0.5435  0.9172  0.2394
  307MOL0    Cl41355   4.666   4.315   3.694 -0.1040 -0.4292  0.0231
  307MOL0     C41356   5.636   4.063   4.401  0.3104  0.3731  1.1438
  307MOL0     C41357   5.736   4.079   4.503  0.2136  0.4333 -0.2712
  307MOL0     O41358   5.916   4.018   4.711  0.4267  1.2295  0.2501
  307MOL0     C41359   6.132   4.055   4.879  0.6411 -0.8491  0.2308
  307MOL0     C41360   6.248   4.072   4.947 -0.2093  0.2456 -0.2336
  307MOL0     N41361   6.961   4.404   4.657  0.4758 -0.1613 -0.4964
  307MOL0     N41362   7.080   4.384   4.619 -1.1730  0.6231  1.1495
  307MOL0     C41363   8.006   3.780   4.724  0.9485 -0.9150  0.0718
  307MOL0     C41364   8.075   3.718   4.828  0.7459 -0.0873  0.0804
  307MOL0     C41365   8.195   3.536   5.221  0.2436  0.7165  0.0565
  307MOL0     C41366   8.202   3.396   5.245  1.0945 -0.5433 -0.1006
  307MOL0     C41367   8.271   3.348   5.353  0.8526 -0.5038 -0.2783
  307MOL0     C41368   8.340   3.434   5.436 -0.2855 -0.2684 -0.3752
  307MOL0     O41369   8.423   3.371   5.528 -0.4243  1.1847  0.6630
  307MOL0     C41370   8.529   3.451   5.587  0.0542 -1.1552 -0.0207
  307MOL0     C41371   8.623   3.362   5.674  0.6897  0.3345 -0.4142
  307MOL0     C41372   8.764   3.353   5.620 -0.1618 -0.7655  0.0114
  307MOL0     C41373   8.852   3.266   5.714  0.8888  0.3830 -0.2145
  307MOL0     C41374   8.828   3.121   5.685 -1.0835 -0.1797 -0.1962
  307MOL0     C41375   8.779   3.008   5.658 -0.8467  0.3703 -1.5868
  307MOL0     C41376   8.334   3.574   5.413 -0.1899  0.2964  0.5481
  307MOL0     C41377   8.269   3.624   5.300  0.1751  0.9223  0.4269
  307MOL0     H41378   8.041   3.943   5.073  6.7665 -0.6159 -0.2863
  307MOL0     H41379   7.920   4.063   4.910 -1.5617 -0.8672  1.9429
  307MOL0     H41380   7.972   3.884   4.493 -0.2737 -2.8113  0.5045
  307MOL0     H41381   7.812   3.834   4.523 -0.0108 -0.3431 -4.6996
  307MOL0     H41382   7.887   4.104   4.400  0.0059 -0.1248  0.0624
  307MOL0     H41383   7.816   3.961   4.328  1.5754 -1.5906  0.7549
  307MOL0     H41384   7.667   4.077   4.557  0.3695 -0.5281  0.0039
  307MOL0     H41385   7.670   4.167   4.405 -0.5189  0.8878  2.4570
  307MOL0     H41386   7.584   4.000   4.271 -2.6846 -0.5519 -0.2044
  307MOL0     H41387   7.573   3.875   4.403 -0.3368 -0.3500  0.8771
  307MOL0     H41388   7.451   4.146   4.410  0.3993 -0.4798  2.7261
  307MOL0     H41389   7.362   4.005   4.342  0.1170 -1.6361 -0.7547
  307MOL0     H41390   7.379   3.896   4.562 -1.0258  0.2488  0.2205
  307MOL0     H41391   7.462   4.043   4.632 -2.5647  0.7299  0.8505
  307MOL0     H41392   7.194   4.066   4.495  1.2078 -0.7148 -0.0210
  307MOL0     H41393   7.205   4.011   4.668  0.2741 -3.6643 -0.8510
  307MOL0     H41394   7.311   4.275   4.554 -0.6184  1.9876  1.1557
  307MOL0     H41395   7.336   4.208   4.715 -0.5782 -1.5339  0.3961
  307MOL0     H41396   7.038   4.111   4.799  0.1457 -1.7952 -2.5130
  307MOL0     H41397   6.725   4.300   4.722 -2.8643 -0.2140  0.8051
  307MOL0     H41398   6.794   4.164   4.818  1.9129  1.2784  0.3912
  307MOL0     H41399   6.811   4.444   4.945 -0.0708  0.0874  3.2703
  307MOL0     H41400   6.802   4.292   5.020  0.6368 -0.6333 -0.1383
  307MOL0     H41401   6.555   4.427   4.899  2.8627  0.4189 -1.6478
  307MOL0     H41402   6.601   4.396   5.067 -2.3181 -3.1169  1.2808
  307MOL0     H41403   6.621   4.146   5.011  0.6311  2.1439  2.2443
  307MOL0     H41404   6.535   4.170   4.862 -0.3448  0.4411  0.1143
  307MOL0     H41405   6.320   4.394   4.853  0.0705 -0.4564 -1.7714
  307MOL0     H41406   6.032   4.415   4.676 -0.5581 -1.8992  3.7676
  307MOL0     H41407   6.189   4.487   4.711 -1.4535  0.6729  1.0536
  307MOL0     H41408   6.184   4.363   4.585  0.8130  1.2563 -0.5615
  307MOL0     H41409   5.904   4.333   4.382 -0.2449 -1.0749  1.0827
  307MOL0     H41410   5.728   4.304   4.192  2.0455  1.8107  1.2614
  307MOL0     H41411   5.440   4.332   4.224 -1.4738  2.7313 -3.1122
  307MOL0     H41412   5.529   4.317   4.067 -1.5547  2.8846 -0.2328
  307MOL0     H41413   5.347   4.161   4.006 -1.8618 -2.0886  1.4280
  307MOL0     H41414   5.276   4.181   4.158 -1.2460 -0.7636 -1.0274
  307MOL0     H41415   5.317   4.441   3.995  0.8102 -0.3139  0.0024
  307MOL0     H41416   5.211   4.402   4.133 -0.4941  2.1439 -0.8681
  307MOL0     H41417   5.190   4.301   3.856 -0.5284  0.8706 -0.3285
  307MOL0     H41418   5.098   4.242   3.986  3.9402 -2.2923 -0.9708
  307MOL0     H41419   5.108   4.534   3.898  0.9501 -1.6620 -0.2808
  307MOL0     H41420   4.984   4.461   4.014  1.0846  0.4534  1.0104
  307MOL0     H41421   4.997   4.399   3.714 -0.7425  1.4445 -0.9598
  307MOL0     H41422   4.908   4.306   3.846 -1.2609  0.2891 -0.1801
  307MOL0     H41423   4.876   4.606   3.797 -2.5433  2.2039 -0.2171
  307MOL0     H41424   4.767   4.496   3.892  0.1400  3.6542 -0.8538
  307MOL0     H41425   4.796   4.504   3.594  0.4393 -2.2036 -0.0258
  307MOL0     H41426   4.653   4.547   3.690 -0.6670  0.7778 -0.2648
  307MOL0     H41427   5.561   3.986   4.417  1.7359 -0.9710  1.5407
  307MOL0     H41428   5.737   4.014   4.590  1.8993  0.8634  0.0721
  307MOL0     H41429   6.077   3.967   4.912  2.7274 -2.2631  0.0892
  307MOL0     H41430   6.271   3.995   5.021  1.0545 -0.2923 -1.1587
  307MOL0     H41431   8.010   3.730   4.628  2.6755  0.1941 -0.4764
  307MOL0     H41432   8.130   3.625   4.824  0.2467 -0.4396  1.1762
  307MOL0     H41433   8.148   3.330   5.178 -0.2501 -3.1476  3.2383
  307MOL0     H41434   8.273   3.241   5.374  0.5214 -0.1784  1.5852
  307MOL0     H41435   8.583   3.504   5.508 -0.3325  0.9912  1.0916
  307MOL0     H41436   8.485   3.524   5.655  2.4337 -0.0857  0.4598
  307MOL0     H41437   8.582   3.261   5.671  1.1035  0.1744 -0.6997
  307MOL0     H41438   8.632   3.400   5.776 -0.3602 -4.4158  1.7500
  307MOL0     H41439   8.802   3.455   5.627 -0.5194 -0.7072  1.6832
  307MOL0     H41440   8.762   3.312   5.519  0.1610 -2.8746  0.7993
  307MOL0     H41441   8.835   3.286   5.820 -1.1103 -2.7573  0.1992
  307MOL0     H41442   8.958   3.282   5.690  1.1146 -2.1753 -1.3265
  307MOL0     H41443   8.741   2.909   5.641 -0.4909 -0.3685  1.4352
  307MOL0     H41444   8.386   3.647   5.475 -0.4393 -0.5529  1.7911
  307MOL0     H41445   8.276   3.730   5.280 -2.4950  0.5991 -3.3337
  308MOL0     O41446   6.239   0.836   7.841  0.2048 -0.6599  0.3038
  308MOL0     C41447   6.180   0.742   7.883  0.4801  0.6120 -0.2369
  308MOL0     O41448   6.210   0.610   7.855 -0.0523  0.2661 -0.2727
  308MOL0     C41449   6.332   0.581   7.787  0.0678  0.0371 -0.6204
  308MOL0     C41450   6.446   0.540   7.858 -0.0991  0.1589 -0.2165
  308MOL0     C41451   6.568   0.508   7.789  1.2855  0.3983  0.6086
  308MOL0     C41452   6.572   0.518   7.653  0.2658 -0.0806 -0.0603
  308MOL0     O41453   6.683   0.497   7.577  0.1175  0.1219  0.7964
  308MOL0     C41454   6.805   0.436   7.637  0.9277  0.3761 -0.4417
  308MOL0     C41455   6.906   0.427   7.528 -0.5546  0.7166 -0.3956
  308MOL0     C41456   7.015   0.349   7.602  0.0444 -0.3217  0.1223
  308MOL0     C41457   7.138   0.340   7.508  0.0340 -0.3184  0.3944
  308MOL0     C41458   7.246   0.246   7.558  1.0478 -0.4671 -0.6840
  308MOL0     C41459   7.375   0.266   7.478  0.5962 -0.3394 -0.4406
  308MOL0     C41460   7.459   0.392   7.511 -0.2621  0.1029 -0.4842
  308MOL0     C41461   7.584   0.389   7.424 -1.2507 -0.0581  0.3234
  308MOL0     N41462   7.673   0.486   7.483 -0.9002  1.3288 -0.0968
  308MOL0     C41463   7.657   0.622   7.495  0.4524  0.7193  1.6728
  308MOL0     C41464   7.767   0.659   7.568 -0.2617 -0.3637  0.0756
  308MOL0     C41465   7.814   0.799   7.616 -0.6751 -0.2776 -0.6395
  308MOL0     C41466   7.949   0.850   7.576  1.3745 -0.0693  0.7919
  308MOL0     C41467   7.976   0.822   7.425 -0.1817  0.2857  0.3355
  308MOL0     C41468   8.121   0.852   7.396  0.9987 -0.0372  0.2159
  308MOL0     O41469   8.207   0.744   7.440  0.2028 -0.4207 -0.2824
  308MOL0     C41470   8.337   0.750   7.407 -0.4125  0.8085  0.5737
  308MOL0     C41471   8.394   0.867   7.340 -0.0539 -0.3221  0.2673
  308MOL0     C41472   8.522   0.857   7.284  0.1459 -0.4882  0.3736
  308MOL0     C41473   8.563   0.974   7.200 -0.0097 -0.5358  0.0805
  308MOL0     C41474   8.593   0.734   7.285  0.5720 -0.2586 -0.4548
  308MOL0     C41475   8.727   0.725   7.241 -0.0552 -0.2201  0.2448
  308MOL0     O41476   8.764   0.605   7.201  0.4496 -0.0273  0.2585
  308MOL0     C41477   8.885   0.565   7.231  0.7063 -0.2194 -0.4956
  308MOL0     C41478   8.924   0.556   7.366 -0.0147  0.0218 -0.1901
  308MOL0     C41479   9.044   0.502   7.392 -0.0942 -0.1721  0.5187
  308MOL0     C41480   9.131   0.462   7.289 -0.0877 -0.5592 -0.4991
  308MOL0     O41481   9.247   0.400   7.307  0.2028  0.0376 -0.5343
  308MOL0     C41482   9.321   0.472   7.409 -0.3845  0.3497  0.9870
  308MOL0     C41483   9.471   0.455   7.385  0.1955 -0.8072 -0.2078
  308MOL0     C41484   9.554   0.543   7.483 -0.8316 -0.1363  0.5368
  308MOL0     C41485   9.699   0.551   7.458  0.2447  0.3995  0.5043
  308MOL0     C41486   9.787   0.429   7.489 -0.4466  0.0931 -0.2048
  308MOL0     C41487   9.932   0.460   7.446 -0.1914  1.0825 -0.5015
  308MOL0     C41488   9.999   0.566   7.537  1.0996  1.0663  0.0544
  308MOL0     C41489  10.072   0.486   7.650  0.1685  0.3843 -0.0591
  308MOL0    Cl41490  10.203   0.412   7.576  0.3780 -0.3551 -0.0658
  308MOL0     C41491   9.091   0.473   7.157 -0.0890 -0.1819  0.7989
  308MOL0     C41492   8.970   0.534   7.122 -0.4009  0.9528 -0.0817
  308MOL0     O41493   8.803   0.824   7.248 -0.6741  0.3140 -0.0668
  308MOL0     C41494   8.533   0.621   7.347  0.7199  0.1155 -0.7046
  308MOL0     C41495   8.409   0.631   7.402 -0.4118 -0.3488  0.7262
  308MOL0     N41496   7.851   0.554   7.593  0.1113 -1.2759 -0.2224
  308MOL0     N41497   7.801   0.458   7.530  0.1701  0.1724 -0.2277
  308MOL0     C41498   6.458   0.573   7.587 -0.1345 -0.7227 -0.3538
  308MOL0     C41499   6.341   0.606   7.652 -0.3034 -0.8207  0.1808
  308MOL0     C41500   6.043   0.765   7.930 -1.0869  0.0447  0.0817
  308MOL0     C41501   5.966   0.656   7.980 -0.4943 -0.2117  0.1400
  308MOL0     C41502   5.847   0.684   8.051  0.1460  0.6846 -0.4458
  308MOL0     C41503   5.812   0.818   8.071  0.3206  0.0305  0.0617
  308MOL0     O41504   5.702   0.862   8.142  0.0405 -0.8878  0.1582
  308MOL0     C41505   5.584   0.781   8.143 -0.0829 -0.3843  0.8520
  308MOL0     C41506   5.518   0.732   8.015  0.9397 -0.1095 -0.0233
  308MOL0     C41507   5.370   0.746   8.017  0.0962  1.6510 -1.0384
  308MOL0     C41508   5.323   0.872   7.937 -0.5750 -0.0600 -0.9564
  308MOL0     C41509   5.377   0.999   7.986 -0.2039  0.2736 -0.1792
  308MOL0     C41510   5.412   1.102   8.024  0.2566  0.1723 -0.9159
  308MOL0     C41511   5.880   0.919   8.009 -0.0956 -0.2288  0.3359
  308MOL0     C41512   5.999   0.899   7.951 -0.1514  0.3269  0.2375
  308MOL0     H41513   6.436   0.518   7.964 -3.4722  2.0861  0.0011
  308MOL0     H41514   6.646   0.471   7.855  3.1116 -0.4860 -1.8989
  308MOL0     H41515   6.851   0.498   7.714  0.8733 -2.8430  2.3970
  308MOL0     H41516   6.782   0.335   7.672 -2.3435  0.5304 -1.8252
  308MOL0     H41517   6.853   0.374   7.449 -1.0980  1.0734 -0.2746
  308MOL0     H41518   6.940   0.525   7.492  1.4362  0.3493  0.3160
  308MOL0     H41519   7.038   0.406   7.692 -0.3517  0.1482 -0.0698
  308MOL0     H41520   6.973   0.251   7.628  0.1061  0.1447  2.1342
  308MOL0     H41521   7.115   0.309   7.405  1.2985 -2.0578  0.5862
  308MOL0     H41522   7.173   0.443   7.502 -1.7622  0.2437 -1.9223
  308MOL0     H41523   7.258   0.269   7.664 -1.8000  0.0388 -0.3929
  308MOL0     H41524   7.226   0.139   7.546 -0.5423 -0.2820  0.1277
  308MOL0     H41525   7.434   0.179   7.507 -0.1660 -0.2449  1.5824
  308MOL0     H41526   7.338   0.255   7.376  0.5232 -2.5183 -0.2265
  308MOL0     H41527   7.407   0.488   7.500  1.5419  1.1198 -0.5564
  308MOL0     H41528   7.474   0.395   7.619  0.9465  2.1059 -0.6502
  308MOL0     H41529   7.552   0.421   7.325 -0.6652  2.0416  0.7541
  308MOL0     H41530   7.640   0.295   7.419  2.8242  2.1684 -1.9075
  308MOL0     H41531   7.565   0.671   7.463 -1.7664 -3.1803  1.5217
  308MOL0     H41532   7.734   0.870   7.592  1.9129  3.3819  0.7351
  308MOL0     H41533   7.812   0.805   7.725  2.1981 -1.2831 -0.4656
  308MOL0     H41534   8.023   0.811   7.647 -2.3461 -0.5285  4.8476
  308MOL0     H41535   7.944   0.958   7.594  1.1154  0.1970 -0.6900
  308MOL0     H41536   7.912   0.880   7.358  3.9281  1.8499 -2.6483
  308MOL0     H41537   7.971   0.716   7.395  1.2861  0.4694 -0.6875
  308MOL0     H41538   8.138   0.949   7.444  2.5619 -0.7628  1.2395
  308MOL0     H41539   8.129   0.875   7.289  1.0789  3.9123  0.9088
  308MOL0     H41540   8.343   0.962   7.335  0.0402 -0.2237  1.0153
  308MOL0     H41541   8.630   1.048   7.245  0.3701 -0.1330 -1.0916
  308MOL0     H41542   8.599   0.934   7.104 -1.1169 -0.1438 -0.5176
  308MOL0     H41543   8.466   1.023   7.183 -0.9342 -2.1038  0.6587
  308MOL0     H41544   8.851   0.587   7.440 -1.0078 -1.1850 -0.6435
  308MOL0     H41545   9.084   0.499   7.493  0.1931 -2.3414  0.3776
  308MOL0     H41546   9.289   0.576   7.399 -3.4862 -0.5721  0.4229
  308MOL0     H41547   9.300   0.435   7.510 -1.1992 -0.5244  0.5075
  308MOL0     H41548   9.510   0.353   7.395  4.2025  0.5982  0.1460
  308MOL0     H41549   9.494   0.479   7.281  0.0356  0.1898 -0.0230
  308MOL0     H41550   9.550   0.512   7.588 -0.9015 -0.5221  0.4188
  308MOL0     H41551   9.510   0.643   7.481  1.2863  0.8534 -0.5364
  308MOL0     H41552   9.686   0.568   7.351 -0.9983  2.5599  0.9522
  308MOL0     H41553   9.732   0.645   7.503  1.1429 -0.3501  1.4770
  308MOL0     H41554   9.747   0.343   7.435 -1.1565  0.0059  0.4453
  308MOL0     H41555   9.787   0.405   7.596 -2.3799 -2.0555 -0.6059
  308MOL0     H41556   9.986   0.365   7.452 -2.9551 -0.6183 -0.6165
  308MOL0     H41557   9.949   0.494   7.343 -0.8665 -0.1671 -1.0542
  308MOL0     H41558   9.931   0.632   7.591  0.3380  0.4293 -0.1043
  308MOL0     H41559  10.069   0.626   7.478 -0.2885  0.1652 -2.6420
  308MOL0     H41560  10.004   0.412   7.693 -1.8323  1.0231 -1.8927
  308MOL0     H41561  10.093   0.550   7.735 -1.1867 -2.4582  2.6344
  308MOL0     H41562   9.148   0.432   7.074 -1.9233 -2.0373  0.3750
  308MOL0     H41563   8.927   0.540   7.022  0.6249  1.1491 -0.5265
  308MOL0     H41564   8.582   0.525   7.344  1.5514  0.4867  0.2098
  308MOL0     H41565   8.363   0.536   7.429 -0.1095 -0.4857  0.7613
  308MOL0     H41566   6.459   0.579   7.479 -3.4560  1.9197 -0.3866
  308MOL0     H41567   6.258   0.658   7.603  0.0740 -1.4124 -1.1324
  308MOL0     H41568   5.994   0.551   7.970  1.9296  0.5640 -2.4678
  308MOL0     H41569   5.796   0.606   8.106  1.1413 -1.0435 -1.8422
  308MOL0     H41570   5.604   0.701   8.215 -2.8686  0.0248  2.2321
  308MOL0     H41571   5.507   0.835   8.200  0.7205  1.7319  0.0181
  308MOL0     H41572   5.557   0.631   8.007  2.9712  0.7137 -1.4898
  308MOL0     H41573   5.571   0.789   7.938  0.4476  2.6481  1.5291
  308MOL0     H41574   5.330   0.760   8.118 -0.1286  0.4346 -0.9357
  308MOL0     H41575   5.327   0.652   7.979  1.0523  0.4109  0.7896
  308MOL0     H41576   5.214   0.887   7.934 -0.6254 -0.4162 -0.9671
  308MOL0     H41577   5.347   0.848   7.833 -2.7715  0.7600 -1.7252
  308MOL0     H41578   5.431   1.196   8.073 -0.2626 -0.1705 -0.0406
  308MOL0     H41579   5.839   1.019   8.008 -1.5700 -0.7947 -2.0725
  308MOL0     H41580   6.057   0.983   7.915 -2.7033  0.3516 -4.6785
  309MOL0     O41581   3.697   1.746   2.992 -0.1080 -0.4124  0.7794
  309MOL0     C41582   3.585   1.721   2.941  0.3204  0.2264  0.0919
  309MOL0     O41583   3.549   1.614   2.844  0.1003 -0.9665  0.2019
  309MOL0     C41584   3.638   1.529   2.784 -0.1181 -0.7575 -0.3260
  309MOL0     C41585   3.763   1.481   2.832 -1.4682  0.2698 -0.1555
  309MOL0     C41586   3.824   1.375   2.756 -0.5954 -0.9581  0.0371
  309MOL0     C41587   3.769   1.336   2.637  0.1160  0.0252 -0.7293
  309MOL0     O41588   3.844   1.251   2.563  0.0840  0.7837 -0.1063
  309MOL0     C41589   3.786   1.171   2.456 -0.0371 -1.1318  0.0167
  309MOL0     C41590   3.813   1.265   2.339  0.7052 -0.0828 -0.5301
  309MOL0     C41591   3.770   1.205   2.210  0.4829  0.1054 -0.5971
  309MOL0     C41592   3.841   1.259   2.092  0.0465  0.1995  0.7140
  309MOL0     C41593   3.806   1.166   1.977 -0.0246 -0.7582 -0.3474
  309MOL0     C41594   3.893   1.200   1.857  0.2198 -0.7214 -0.7663
  309MOL0     C41595   3.857   1.107   1.735  0.3660 -0.5106  0.4010
  309MOL0     C41596   3.702   1.100   1.707 -0.6290  0.2232 -0.3560
  309MOL0     N41597   3.680   1.014   1.591  0.4594 -0.5365 -0.6056
  309MOL0     C41598   3.725   0.892   1.567 -0.3547  0.0182  0.0957
  309MOL0     C41599   3.669   0.849   1.453  0.0735  0.1861  0.4406
  309MOL0     C41600   3.702   0.712   1.382  0.3242  0.6742  0.2319
  309MOL0     C41601   3.605   0.606   1.436  0.4209 -0.6823  0.7654
  309MOL0     C41602   3.477   0.597   1.349  0.0976  0.0268  0.5292
  309MOL0     C41603   3.388   0.721   1.336  0.8529  0.1286  0.9276
  309MOL0     O41604   3.260   0.676   1.274 -0.3614  0.0192  0.2215
  309MOL0     C41605   3.181   0.769   1.226  1.3021 -1.1106  0.9436
  309MOL0     C41606   3.184   0.905   1.243  0.0745  0.5115 -0.4566
  309MOL0     C41607   3.082   0.986   1.196  0.4370 -0.2608  0.1912
  309MOL0     C41608   3.109   1.129   1.239 -0.2717  0.6073  0.9890
  309MOL0     C41609   2.971   0.938   1.115  0.8479  0.5493  0.5352
  309MOL0     C41610   2.853   1.011   1.066 -0.0278  0.3620 -0.2651
  309MOL0     O41611   2.760   0.939   1.001  0.3185  0.7719  0.8771
  309MOL0     C41612   2.653   1.000   0.946  0.4311  0.1404  0.4412
  309MOL0     C41613   2.555   1.078   1.008 -0.9269  0.8885 -0.0748
  309MOL0     C41614   2.432   1.102   0.940  0.5689 -0.3819  0.1865
  309MOL0     C41615   2.417   1.068   0.805  1.0312 -0.3453 -0.1894
  309MOL0     O41616   2.306   1.087   0.732 -0.7321  0.4761 -0.6258
  309MOL0     C41617   2.174   1.078   0.792  0.6196 -0.1679  0.2570
  309MOL0     C41618   2.074   1.011   0.700 -0.4666  0.5683 -0.1805
  309MOL0     C41619   1.929   1.013   0.741  0.7402 -0.4472  0.5785
  309MOL0     C41620   1.851   0.931   0.650 -0.0119 -0.1769 -0.8824
  309MOL0     C41621   1.710   0.883   0.704 -0.1196 -0.3063 -0.6137
  309MOL0     C41622   1.710   0.767   0.808 -0.2578 -0.3211  0.0195
  309MOL0     C41623   1.574   0.731   0.865 -0.3841 -0.4696 -0.2323
  309MOL0     C41624   1.460   0.678   0.781  0.7186  0.4082  0.2125
  309MOL0    Cl41625   1.501   0.514   0.727  0.1739 -0.4628  0.0750
  309MOL0     C41626   2.522   1.010   0.741  0.0160  0.1074  0.2069
  309MOL0     C41627   2.638   0.975   0.810 -1.1076  0.6204 -0.5156
  309MOL0     O41628   2.846   1.131   1.089  0.2149  0.2947  0.3865
  309MOL0     C41629   2.971   0.800   1.101 -0.8464 -0.2080 -0.1779
  309MOL0     C41630   3.071   0.723   1.156  0.4955  0.3278 -0.0980
  309MOL0     N41631   3.574   0.942   1.416  0.3083  0.3917  0.4074
  309MOL0     N41632   3.597   1.042   1.495 -0.2950 -0.2543  1.1428
  309MOL0     C41633   3.646   1.395   2.592 -0.9323  0.0588 -0.3044
  309MOL0     C41634   3.584   1.490   2.664  0.4058 -0.6491  0.4559
  309MOL0     C41635   3.466   1.781   2.997  0.0043 -0.0773 -0.1978
  309MOL0     C41636   3.340   1.723   2.987  0.0978  0.6419 -0.6563
  309MOL0     C41637   3.222   1.774   3.045 -0.3026 -0.3898  0.7188
  309MOL0     C41638   3.224   1.895   3.113  0.1916  0.5852  0.3270
  309MOL0     O41639   3.110   1.940   3.169  0.3269  0.4103  0.2538
  309MOL0     C41640   3.107   2.065   3.234  0.5582 -0.0827 -0.3604
  309MOL0     C41641   3.120   2.174   3.139 -0.6641 -0.5026  0.3596
  309MOL0     C41642   3.062   2.308   3.195  0.0489 -0.0484 -0.1255
  309MOL0     C41643   3.150   2.368   3.313 -0.1352 -0.0294 -0.8346
  309MOL0     C41644   3.291   2.376   3.284  0.4207 -0.2157 -0.8634
  309MOL0     C41645   3.408   2.374   3.259 -0.6154  0.2761  0.1665
  309MOL0     C41646   3.352   1.959   3.121  0.1350  0.5334 -0.1474
  309MOL0     C41647   3.477   1.903   3.062  1.2460 -0.7733  0.4285
  309MOL0     H41648   3.806   1.531   2.919 -0.2579 -1.8123  0.5108
  309MOL0     H41649   3.926   1.340   2.775  0.5862  1.1800 -1.8454
  309MOL0     H41650   3.842   1.080   2.434  1.7167  0.0376 -0.5314
  309MOL0     H41651   3.680   1.157   2.479  0.2019 -0.2050  1.8868
  309MOL0     H41652   3.775   1.366   2.354  2.0143  0.4635 -0.6748
  309MOL0     H41653   3.922   1.278   2.330  0.6099  3.1675  1.5190
  309MOL0     H41654   3.782   1.097   2.225  1.3011  0.4173  1.2983
  309MOL0     H41655   3.665   1.232   2.193  0.2036 -1.4489 -1.5001
  309MOL0     H41656   3.811   1.359   2.058 -0.7418 -0.3572 -0.2950
  309MOL0     H41657   3.949   1.258   2.108  0.4546 -2.4142 -1.5043
  309MOL0     H41658   3.834   1.067   2.015 -1.5723  0.4035  4.6889
  309MOL0     H41659   3.701   1.172   1.949  0.3695  1.2361 -1.5955
  309MOL0     H41660   3.870   1.303   1.827 -1.7266  0.1714  3.1707
  309MOL0     H41661   4.001   1.195   1.876  0.2639 -1.6795 -1.1664
  309MOL0     H41662   3.913   1.141   1.648 -1.1758  1.6474  0.1754
  309MOL0     H41663   3.888   1.004   1.753 -2.0266 -1.5773 -1.0452
  309MOL0     H41664   3.668   1.203   1.693 -0.6073  0.1561 -0.8953
  309MOL0     H41665   3.648   1.056   1.792  0.4311  0.2680  0.3623
  309MOL0     H41666   3.782   0.829   1.635 -1.3507  0.7039  1.6180
  309MOL0     H41667   3.686   0.718   1.273  0.5407 -0.6284  0.1186
  309MOL0     H41668   3.804   0.687   1.410 -0.5080  0.8197  3.8633
  309MOL0     H41669   3.582   0.636   1.539 -1.5486 -0.4529  0.3008
  309MOL0     H41670   3.661   0.512   1.430  4.1365  1.4660 -1.9423
  309MOL0     H41671   3.405   0.526   1.392 -1.0949 -0.4712 -2.1131
  309MOL0     H41672   3.498   0.553   1.252 -2.3592 -2.3577  0.9599
  309MOL0     H41673   3.441   0.789   1.268  1.8595  0.3705  1.9166
  309MOL0     H41674   3.378   0.760   1.438 -1.2927  1.5971  0.2239
  309MOL0     H41675   3.267   0.944   1.302 -1.0149 -1.1828  2.4015
  309MOL0     H41676   3.074   1.201   1.164 -3.1862 -3.4910 -2.0874
  309MOL0     H41677   3.077   1.153   1.341  1.3342 -1.6294  2.1122
  309MOL0     H41678   3.213   1.162   1.231  1.2501 -3.5327  1.2240
  309MOL0     H41679   2.583   1.112   1.107 -2.3423  2.8005 -0.2785
  309MOL0     H41680   2.347   1.151   0.985  0.1191 -1.0693  0.1096
  309MOL0     H41681   2.171   1.021   0.885  3.6866 -0.8568  0.0453
  309MOL0     H41682   2.144   1.181   0.811  1.6477  0.3186 -0.5978
  309MOL0     H41683   2.073   1.050   0.598 -1.5184 -0.3339 -0.5312
  309MOL0     H41684   2.110   0.908   0.695 -1.0974  0.3151  0.3975
  309MOL0     H41685   1.893   1.116   0.738 -0.5526 -0.8421  1.5692
  309MOL0     H41686   1.927   0.982   0.846 -0.8579 -3.0775 -0.1360
  309MOL0     H41687   1.822   0.989   0.561 -3.1599 -0.7018 -0.3390
  309MOL0     H41688   1.905   0.838   0.631  0.3364 -0.2840  0.5501
  309MOL0     H41689   1.648   0.847   0.621 -1.9793 -4.0875  2.1110
  309MOL0     H41690   1.659   0.968   0.751 -0.7200 -1.0737  0.1615
  309MOL0     H41691   1.759   0.681   0.763 -3.0587 -1.9468 -0.1553
  309MOL0     H41692   1.772   0.800   0.892  0.2119 -2.2048  0.4474
  309MOL0     H41693   1.529   0.821   0.909 -0.5917 -2.0005  2.9848
  309MOL0     H41694   1.600   0.656   0.941  0.6568  2.3790  2.4801
  309MOL0     H41695   1.448   0.739   0.691 -3.1049 -2.5356 -1.5481
  309MOL0     H41696   1.363   0.676   0.832 -0.8173 -0.0174 -2.5201
  309MOL0     H41697   2.515   0.975   0.638  0.7059  0.6266 -0.0214
  309MOL0     H41698   2.702   0.918   0.744 -2.7577  0.4925 -2.1004
  309MOL0     H41699   2.899   0.741   1.045 -2.0547  1.7829 -0.8079
  309MOL0     H41700   3.066   0.617   1.131 -0.2885  0.4071 -0.3147
  309MOL0     H41701   3.610   1.371   2.493  2.2797  0.6062 -1.7495
  309MOL0     H41702   3.497   1.539   2.621  0.3688 -0.6845  0.4904
  309MOL0     H41703   3.333   1.632   2.929  2.4848  1.3055 -2.1764
  309MOL0     H41704   3.127   1.725   3.026 -1.6674  2.4767 -0.6437
  309MOL0     H41705   3.012   2.076   3.287  0.9713 -0.8837  0.5547
  309MOL0     H41706   3.190   2.074   3.304 -1.7781 -3.2762  3.2126
  309MOL0     H41707   3.069   2.147   3.046  2.4694 -0.6712 -1.4521
  309MOL0     H41708   3.219   2.199   3.100 -1.0126  2.3084  1.0606
  309MOL0     H41709   2.958   2.293   3.225 -0.6485  0.0123 -2.3268
  309MOL0     H41710   3.066   2.382   3.115 -0.3248  1.2139  0.9890
  309MOL0     H41711   3.141   2.312   3.407  4.8864  0.5231  0.2722
  309MOL0     H41712   3.125   2.473   3.332 -0.6465 -0.6396  2.4656
  309MOL0     H41713   3.512   2.365   3.236 -1.0039 -0.1292 -1.5719
  309MOL0     H41714   3.360   2.049   3.182 -0.4397 -0.5038  1.5231
  309MOL0     H41715   3.562   1.969   3.068  1.0926 -0.6171  0.9109
  310MOL0     O41716   0.621   8.045   6.895  0.7008 -0.3901  0.3289
  310MOL0     C41717   0.737   8.055   6.851  1.1225 -0.1784 -0.3809
  310MOL0     O41718   0.789   8.160   6.778  0.8560  0.5926  0.2148
  310MOL0     C41719   0.708   8.263   6.753 -0.0187  0.1952 -0.4354
  310MOL0     C41720   0.620   8.263   6.650 -0.0200 -0.6101  0.7305
  310MOL0     C41721   0.536   8.368   6.631 -0.7601  0.4336  0.2550
  310MOL0     C41722   0.527   8.471   6.729  0.0148 -0.4090  1.1099
  310MOL0     O41723   0.436   8.570   6.709 -0.5673 -0.5909  0.4638
  310MOL0     C41724   0.496   8.698   6.666 -0.6100  0.1850  0.9380
  310MOL0     C41725   0.396   8.806   6.691 -0.3890 -0.1361 -0.1321
  310MOL0     C41726   0.261   8.785   6.628 -0.1087 -0.5910  0.1107
  310MOL0     C41727   0.175   8.919   6.626  0.0179 -0.0008  0.5955
  310MOL0     C41728   0.028   8.874   6.624  0.9396  0.7241  0.1436
  310MOL0     C41729  -0.068   8.993   6.631  0.3407 -0.4463 -0.1986
  310MOL0     C41730  -0.213   8.948   6.649  0.1774  0.1397  0.4503
  310MOL0     C41731  -0.280   8.898   6.518  0.3419 -0.3870  0.3775
  310MOL0     N41732  -0.420   8.859   6.544 -0.6933 -0.1135 -0.2413
  310MOL0     C41733  -0.497   8.768   6.475 -0.3219  0.5529  0.2132
  310MOL0     C41734  -0.616   8.793   6.532  0.2537  0.5602 -0.3114
  310MOL0     C41735  -0.747   8.719   6.500 -0.1954 -0.1324 -0.2257
  310MOL0     C41736  -0.746   8.585   6.570  0.3463  0.0824 -0.0357
  310MOL0     C41737  -0.881   8.508   6.550 -0.0011  0.1713 -0.6787
  310MOL0     C41738  -0.916   8.391   6.644  1.0150 -0.1566 -0.3432
  310MOL0     O41739  -0.811   8.290   6.652  0.2998 -0.0038 -0.3249
  310MOL0     C41740  -0.724   8.278   6.760 -1.0894  0.0585 -0.5900
  310MOL0     C41741  -0.623   8.180   6.734 -0.1588  0.5140  0.5663
  310MOL0     C41742  -0.535   8.150   6.837 -0.1916 -0.8036 -0.5822
  310MOL0     C41743  -0.434   8.044   6.815 -0.0593 -0.3121  0.4633
  310MOL0     C41744  -0.555   8.217   6.958 -0.6263  0.0769 -0.9659
  310MOL0     C41745  -0.482   8.166   7.080  0.2040 -0.3055  0.2997
  310MOL0     O41746  -0.379   8.242   7.121 -0.7815  0.5200 -0.1067
  310MOL0     C41747  -0.319   8.204   7.239 -0.1216  0.1537  0.4714
  310MOL0     C41748  -0.380   8.180   7.358  0.4698 -0.0165 -1.1538
  310MOL0     C41749  -0.309   8.157   7.471 -0.2534  0.6981 -0.1022
  310MOL0     C41750  -0.164   8.161   7.469  0.9222 -0.1365 -0.6389
  310MOL0     O41751  -0.093   8.124   7.584  0.0731  0.3495  0.2938
  310MOL0     C41752   0.057   8.127   7.585 -0.0628  0.7591 -0.3033
  310MOL0     C41753   0.103   8.277   7.602  0.2798  0.5554 -0.0046
  310MOL0     C41754   0.255   8.297   7.569 -0.2376  0.7329 -0.0471
  310MOL0     C41755   0.336   8.219   7.667 -0.1704 -0.0560  0.3458
  310MOL0     C41756   0.488   8.234   7.647 -0.0582 -0.2151 -0.0657
  310MOL0     C41757   0.554   8.354   7.715  0.3504 -1.3508 -0.7315
  310MOL0     C41758   0.709   8.357   7.690  0.5947 -0.3479  1.1602
  310MOL0     C41759   0.775   8.224   7.739 -0.1860  0.2876 -0.6162
  310MOL0    Cl41760   0.738   8.188   7.907  0.5172  0.2462 -0.0144
  310MOL0     C41761  -0.107   8.187   7.347 -0.1222  0.4428  0.5512
  310MOL0     C41762  -0.184   8.209   7.226 -0.2907  0.7625 -0.8382
  310MOL0     O41763  -0.511   8.054   7.123 -0.5305  0.0619  0.2312
  310MOL0     C41764  -0.651   8.311   6.975  0.1820 -0.0977 -0.5308
  310MOL0     C41765  -0.735   8.353   6.875 -0.4377  0.4438 -0.3883
  310MOL0     N41766  -0.601   8.875   6.646 -0.0748  0.2216 -0.5331
  310MOL0     N41767  -0.481   8.913   6.644 -0.3604  0.8658 -0.3763
  310MOL0     C41768   0.621   8.475   6.836  1.0517  0.4333  0.4478
  310MOL0     C41769   0.716   8.369   6.842  0.7715  0.5339 -1.1781
  310MOL0     C41770   0.840   7.955   6.898 -0.1820 -0.6503 -0.0023
  310MOL0     C41771   0.803   7.840   6.987 -0.5764  0.3853  0.6413
  310MOL0     C41772   0.900   7.747   7.030 -0.1118 -0.0783  0.3540
  310MOL0     C41773   1.036   7.767   6.990 -0.7178 -0.4023  0.1789
  310MOL0     O41774   1.144   7.689   7.023  0.0412 -0.3417  0.8499
  310MOL0     C41775   1.124   7.554   7.074  1.3967  0.2618 -0.6582
  310MOL0     C41776   1.228   7.512   7.182 -0.8998  0.1765  0.1735
  310MOL0     C41777   1.262   7.594   7.297 -0.2090  0.0250  0.0287
  310MOL0     C41778   1.357   7.719   7.255  0.2748  0.0386 -0.9289
  310MOL0     C41779   1.418   7.772   7.386  0.2057  0.6306 -0.0314
  310MOL0     C41780   1.451   7.819   7.494 -0.1065 -0.3340  0.1697
  310MOL0     C41781   1.068   7.872   6.900  1.4307  0.6414 -0.7000
  310MOL0     C41782   0.972   7.963   6.854  0.2516 -0.2408 -0.0359
  310MOL0     H41783   0.612   8.170   6.593 -0.3255  0.1579 -0.5144
  310MOL0     H41784   0.466   8.351   6.550  0.8077 -0.7168 -0.9395
  310MOL0     H41785   0.586   8.718   6.726 -0.2134  1.4177 -0.0152
  310MOL0     H41786   0.519   8.697   6.560 -1.8116 -2.7873  0.6039
  310MOL0     H41787   0.377   8.810   6.799 -0.8248 -0.5511 -0.1919
  310MOL0     H41788   0.423   8.904   6.650  0.9404 -0.7342 -0.7292
  310MOL0     H41789   0.277   8.763   6.522 -1.2490 -2.0868  0.2002
  310MOL0     H41790   0.209   8.709   6.688 -0.4160 -0.0225  0.5810
  310MOL0     H41791   0.194   8.973   6.718  2.8075 -0.3480  0.2998
  310MOL0     H41792   0.207   8.972   6.536 -4.0253 -0.2764 -1.2129
  310MOL0     H41793   0.003   8.799   6.548  2.2580 -0.7839  1.1323
  310MOL0     H41794   0.011   8.818   6.717 -2.8761  0.1579 -0.7333
  310MOL0     H41795  -0.040   9.060   6.712  1.3329 -1.8455  0.6588
  310MOL0     H41796  -0.060   9.050   6.539 -0.7392  0.0638  0.0006
  310MOL0     H41797  -0.223   8.872   6.727  2.2855  1.0157  1.6608
  310MOL0     H41798  -0.262   9.039   6.684  1.8110  0.8605  0.9769
  310MOL0     H41799  -0.230   8.812   6.473  1.1935 -0.7244  1.9022
  310MOL0     H41800  -0.272   8.981   6.447 -0.8040 -1.1449 -0.6829
  310MOL0     H41801  -0.472   8.699   6.396 -1.4956  0.4378 -0.0734
  310MOL0     H41802  -0.831   8.774   6.543 -0.1972 -0.4345  0.1568
  310MOL0     H41803  -0.772   8.702   6.395 -1.4098  0.2229 -0.0120
  310MOL0     H41804  -0.737   8.605   6.677 -2.7684 -0.8981  0.5171
  310MOL0     H41805  -0.657   8.530   6.537  1.5952 -0.2234  3.5040
  310MOL0     H41806  -0.858   8.462   6.454  4.0194  2.1162 -0.8676
  310MOL0     H41807  -0.970   8.570   6.543  0.0483  0.5146  1.3463
  310MOL0     H41808  -1.011   8.351   6.608 -0.1992  1.1388  1.2371
  310MOL0     H41809  -0.944   8.438   6.739 -2.4156 -0.2770 -1.1799
  310MOL0     H41810  -0.624   8.134   6.636 -0.8600  0.8538  0.4031
  310MOL0     H41811  -0.377   8.052   6.721 -0.4774  1.8621  0.3595
  310MOL0     H41812  -0.365   8.052   6.899 -0.9860 -0.0683  1.2112
  310MOL0     H41813  -0.483   7.946   6.821 -1.2199  0.2954  1.0971
  310MOL0     H41814  -0.488   8.180   7.364  0.5683  0.5454  1.5905
  310MOL0     H41815  -0.361   8.159   7.566  0.6131 -2.3586  0.5347
  310MOL0     H41816   0.079   8.066   7.673 -1.9750 -0.0832 -0.3763
  310MOL0     H41817   0.101   8.075   7.498  1.5380  0.7806  0.4476
  310MOL0     H41818   0.055   8.342   7.528 -0.5437  0.0831  0.1049
  310MOL0     H41819   0.090   8.316   7.703  0.0092 -0.4696  0.3769
  310MOL0     H41820   0.282   8.403   7.564  1.3772  0.3037 -2.9880
  310MOL0     H41821   0.279   8.267   7.466  2.8819  0.8207  0.5301
  310MOL0     H41822   0.306   8.236   7.770 -1.8528  0.2045 -0.1608
  310MOL0     H41823   0.315   8.115   7.641  0.6471 -0.6219  1.8517
  310MOL0     H41824   0.510   8.239   7.540  0.7532 -1.0055  0.0550
  310MOL0     H41825   0.539   8.145   7.684  1.6039  0.6725 -0.1577
  310MOL0     H41826   0.510   8.448   7.680  0.6302 -0.9516 -0.0261
  310MOL0     H41827   0.523   8.332   7.817  0.6584 -0.4868 -0.4523
  310MOL0     H41828   0.761   8.444   7.731  0.9212  1.1106 -2.0545
  310MOL0     H41829   0.717   8.362   7.581  0.3114 -1.3584  1.0870
  310MOL0     H41830   0.884   8.239   7.734  0.3736 -1.9848  1.9932
  310MOL0     H41831   0.736   8.136   7.687 -0.3637  0.8096 -1.3899
  310MOL0     H41832   0.002   8.192   7.346 -0.0892  0.8583  2.2773
  310MOL0     H41833  -0.138   8.223   7.129 -0.3447  1.9328 -0.7060
  310MOL0     H41834  -0.659   8.363   7.070  0.4403 -0.8467 -0.1000
  310MOL0     H41835  -0.807   8.434   6.878  0.9655  1.8782 -2.1821
  310MOL0     H41836   0.620   8.562   6.900  0.8770  0.2578  0.6863
  310MOL0     H41837   0.779   8.366   6.930  2.5520 -1.0352 -2.4294
  310MOL0     H41838   0.706   7.820   7.029 -0.8657  0.3845 -0.0167
  310MOL0     H41839   0.874   7.662   7.092  1.9564  0.3742  1.9225
  310MOL0     H41840   1.026   7.548   7.124  1.2871 -0.7345 -0.9730
  310MOL0     H41841   1.107   7.474   7.002 -0.2087  0.0459 -0.1022
  310MOL0     H41842   1.318   7.499   7.121 -0.5430  3.3867 -0.1264
  310MOL0     H41843   1.207   7.414   7.226  1.3572  0.6267  2.4640
  310MOL0     H41844   1.319   7.532   7.367 -0.0048  1.0538  0.7946
  310MOL0     H41845   1.168   7.629   7.340 -0.1665  0.9673 -0.6104
  310MOL0     H41846   1.305   7.804   7.210  0.2089  0.9608  0.7945
  310MOL0     H41847   1.443   7.694   7.191  0.3122  2.2540 -1.8399
  310MOL0     H41848   1.480   7.862   7.588 -0.8644  1.0272 -0.2084
  310MOL0     H41849   1.170   7.891   6.870  2.6844  1.1790  3.3871
  310MOL0     H41850   1.021   8.046   6.804  1.8452  0.1033  1.9359
  311MOL0     O41851   6.070   2.343  11.249 -0.6176 -0.6757 -0.2664
  311MOL0     C41852   6.108   2.257  11.167 -0.1054 -1.4316 -0.1353
  311MOL0     O41853   6.047   2.219  11.053  0.3451  0.2230  0.7310
  311MOL0     C41854   5.914   2.255  11.035  0.3515  1.3743  1.2294
  311MOL0     C41855   5.830   2.148  10.995  0.5745  0.2415  0.5452
  311MOL0     C41856   5.698   2.164  10.957  0.1468 -0.3644  0.0644
  311MOL0     C41857   5.643   2.291  10.962 -0.0716  0.0407 -0.2590
  311MOL0     O41858   5.521   2.320  10.905  0.1024 -0.4610  0.1372
  311MOL0     C41859   5.418   2.370  10.988  0.7779 -0.0372  0.0606
  311MOL0     C41860   5.292   2.381  10.907 -0.7408 -0.2888 -0.8887
  311MOL0     C41861   5.175   2.413  10.997  0.5571  0.5508  0.6055
  311MOL0     C41862   5.122   2.293  11.087  0.1063 -0.7160 -0.7687
  311MOL0     C41863   4.996   2.324  11.170 -0.9533  0.1502 -0.4421
  311MOL0     C41864   4.880   2.368  11.071 -0.1973  0.3512 -0.5431
  311MOL0     C41865   4.737   2.360  11.143 -0.1959  1.1584  0.0185
  311MOL0     C41866   4.632   2.434  11.062 -0.3480  0.6451 -0.1117
  311MOL0     N41867   4.498   2.406  11.112  0.0233 -0.3482  0.1338
  311MOL0     C41868   4.443   2.429  11.236  0.7253 -0.3185 -0.3922
  311MOL0     C41869   4.319   2.372  11.227  0.0219  0.3284  0.1110
  311MOL0     C41870   4.230   2.341  11.351  0.4101  0.4620  0.6543
  311MOL0     C41871   4.160   2.205  11.333  1.1528  0.1187  0.1631
  311MOL0     C41872   4.063   2.191  11.453 -0.0473  0.0977  0.8298
  311MOL0     C41873   3.957   2.090  11.432 -0.0616  0.5522  0.5389
  311MOL0     O41874   3.881   2.059  11.558 -0.3502 -0.5422  0.5823
  311MOL0     C41875   3.756   2.110  11.557 -0.1898 -1.1867  0.4302
  311MOL0     C41876   3.657   2.103  11.454 -0.4714  0.0994 -0.0937
  311MOL0     C41877   3.523   2.153  11.474  1.0386 -1.0369 -1.2006
  311MOL0     C41878   3.436   2.151  11.349  0.3962  0.4427  0.4892
  311MOL0     C41879   3.497   2.206  11.609  0.0217 -0.2838  0.4515
  311MOL0     C41880   3.358   2.266  11.635 -0.4260  0.1477  0.1580
  311MOL0     O41881   3.257   2.198  11.573 -0.4993  0.1991  0.0796
  311MOL0     C41882   3.126   2.208  11.600  0.4748 -0.4380 -1.0894
  311MOL0     C41883   3.039   2.256  11.500  0.3264 -0.3195  1.1785
  311MOL0     C41884   2.908   2.287  11.543 -0.2711  0.3441  0.5495
  311MOL0     C41885   2.863   2.251  11.664  0.6192 -0.4276 -0.0975
  311MOL0     O41886   2.740   2.265  11.723  0.3996  0.8989  0.3392
  311MOL0     C41887   2.634   2.210  11.636 -0.7287  0.1321 -0.5248
  311MOL0     C41888   2.607   2.056  11.655 -0.0511 -0.3397  0.0835
  311MOL0     C41889   2.564   2.027  11.797  0.6240  0.1820  0.0579
  311MOL0     C41890   2.410   2.025  11.812  0.0233 -0.2813  0.7990
  311MOL0     C41891   2.359   2.021  11.962 -0.8736 -0.3132  0.0082
  311MOL0     C41892   2.386   1.878  12.000  0.1987 -0.6417  0.3281
  311MOL0     C41893   2.386   1.855  12.150  0.1948 -0.2156  0.0587
  311MOL0     C41894   2.249   1.817  12.224 -0.7124  0.2662  0.5557
  311MOL0    Cl41895   2.264   1.777  12.400 -0.0459 -0.5010  0.3055
  311MOL0     C41896   2.949   2.193  11.757  0.7310 -0.4813 -0.0865
  311MOL0     C41897   3.077   2.168  11.727 -0.4778  0.5272  0.5778
  311MOL0     O41898   3.334   2.360  11.712 -0.6424  0.0237  0.5679
  311MOL0     C41899   3.597   2.215  11.704  0.1020  0.5003 -0.4464
  311MOL0     C41900   3.722   2.170  11.676 -0.8393 -0.5403  0.2243
  311MOL0     N41901   4.295   2.332  11.099  0.1765 -0.0851  0.6180
  311MOL0     N41902   4.402   2.362  11.031  0.4845  0.6368 -0.1290
  311MOL0     C41903   5.727   2.400  10.994  0.9083 -0.4791 -0.5994
  311MOL0     C41904   5.857   2.376  11.040  0.6547  0.0161 -0.7503
  311MOL0     C41905   6.237   2.198  11.187 -0.0961  0.5647  0.3787
  311MOL0     C41906   6.314   2.210  11.299 -0.2044 -0.3837 -0.3113
  311MOL0     C41907   6.418   2.133  11.332  0.3474 -0.4670 -0.0920
  311MOL0     C41908   6.456   2.028  11.242 -0.0666  0.0074 -0.0782
  311MOL0     O41909   6.568   1.944  11.263 -0.8361  0.9234  0.2689
  311MOL0     C41910   6.621   1.949  11.404 -0.1010  0.0904 -0.1315
  311MOL0     C41911   6.754   2.028  11.395 -0.1182  0.0020 -0.2267
  311MOL0     C41912   6.781   2.156  11.486 -0.2369 -1.0885  0.4307
  311MOL0     C41913   6.814   2.107  11.626 -0.0047 -0.4120 -0.4140
  311MOL0     C41914   6.697   2.045  11.694 -0.3291  0.2359  0.4314
  311MOL0     C41915   6.611   1.984  11.753 -0.3042 -0.0800 -0.2036
  311MOL0     C41916   6.383   2.011  11.123  0.4201 -0.3589 -0.3510
  311MOL0     C41917   6.282   2.100  11.092  0.4289 -0.9920 -0.3790
  311MOL0     H41918   5.882   2.053  10.990  0.8547  0.4052  0.2989
  311MOL0     H41919   5.661   2.076  10.907 -0.7562 -0.2462  0.5110
  311MOL0     H41920   5.403   2.292  11.063  2.3598  0.6013  1.0963
  311MOL0     H41921   5.434   2.466  11.038 -1.4340  0.0077  0.8234
  311MOL0     H41922   5.309   2.449  10.823 -0.1252 -0.2686 -0.7525
  311MOL0     H41923   5.273   2.285  10.859 -1.3562  0.0693 -1.3758
  311MOL0     H41924   5.211   2.490  11.067  1.7154 -0.5113  1.2340
  311MOL0     H41925   5.101   2.462  10.934 -0.2384 -0.1136  1.0137
  311MOL0     H41926   5.095   2.205  11.027 -0.3139 -1.4030  0.3789
  311MOL0     H41927   5.199   2.254  11.155 -0.2109 -1.4667 -0.8214
  311MOL0     H41928   4.974   2.238  11.233 -0.4763  2.3040  2.9263
  311MOL0     H41929   5.019   2.401  11.245  1.1984 -0.3755 -0.4859
  311MOL0     H41930   4.899   2.465  11.024 -0.4685 -0.2634 -1.9863
  311MOL0     H41931   4.883   2.300  10.985  3.4243  0.2618 -0.4933
  311MOL0     H41932   4.701   2.258  11.152  0.2058  1.1266  1.5833
  311MOL0     H41933   4.738   2.394  11.247  2.3425 -3.7500  1.9157
  311MOL0     H41934   4.636   2.408  10.956 -1.3815  0.6841 -0.1640
  311MOL0     H41935   4.658   2.540  11.071 -1.0441  1.0267 -2.2173
  311MOL0     H41936   4.496   2.465  11.324  0.8414  0.4312 -0.7585
  311MOL0     H41937   4.296   2.346  11.438  1.4803 -2.6320  0.1529
  311MOL0     H41938   4.155   2.421  11.355  2.0442  2.0180  1.1487
  311MOL0     H41939   4.237   2.127  11.338  0.2442 -0.7329  1.5821
  311MOL0     H41940   4.105   2.197  11.239 -0.7502  1.6815  1.0801
  311MOL0     H41941   4.025   2.292  11.471  2.2542  1.2860 -0.4848
  311MOL0     H41942   4.127   2.161  11.537 -1.2283 -2.4122  0.9003
  311MOL0     H41943   4.002   1.996  11.398 -1.9730 -0.1667 -0.1984
  311MOL0     H41944   3.883   2.108  11.353 -1.9557 -2.8876  1.2741
  311MOL0     H41945   3.679   2.051  11.361  0.0111  1.1208 -0.5600
  311MOL0     H41946   3.346   2.211  11.360  1.6477  2.3957  0.5239
  311MOL0     H41947   3.481   2.200  11.262 -0.9798 -1.4094 -1.3845
  311MOL0     H41948   3.415   2.049  11.315  2.4361  0.2881 -0.4539
  311MOL0     H41949   3.074   2.291  11.403 -0.9066  0.4743  0.9979
  311MOL0     H41950   2.840   2.341  11.478 -1.9453 -0.8865  1.2189
  311MOL0     H41951   2.547   2.275  11.652  0.9714  2.7708 -1.2826
  311MOL0     H41952   2.652   2.235  11.531 -0.6423  2.6283  0.0273
  311MOL0     H41953   2.528   2.026  11.585  0.7411 -0.9119 -0.5742
  311MOL0     H41954   2.695   1.997  11.627 -0.7110 -0.6367 -1.4720
  311MOL0     H41955   2.613   2.097  11.865  0.1075  0.5773  0.0279
  311MOL0     H41956   2.594   1.923  11.815  0.1470 -0.1645 -1.0449
  311MOL0     H41957   2.365   2.118  11.774 -0.3725  0.0212  1.9693
  311MOL0     H41958   2.370   1.944  11.751 -3.6974 -0.4526  3.1657
  311MOL0     H41959   2.257   2.059  11.971  0.1304  2.8194 -0.6079
  311MOL0     H41960   2.417   2.081  12.034 -1.5452 -3.2043  3.2289
  311MOL0     H41961   2.316   1.807  11.956 -0.6975  0.5319 -0.2114
  311MOL0     H41962   2.485   1.844  11.968 -0.1389  0.3153 -1.9209
  311MOL0     H41963   2.411   1.949  12.199  0.9198 -1.7268  2.7644
  311MOL0     H41964   2.464   1.781  12.170  0.3218 -0.0571  0.1573
  311MOL0     H41965   2.230   1.720  12.176 -2.2926  1.3507 -1.1557
  311MOL0     H41966   2.171   1.890  12.204 -2.5970 -1.6723  0.4654
  311MOL0     H41967   2.921   2.171  11.860  2.6260  0.6210  0.7333
  311MOL0     H41968   3.145   2.129  11.802 -0.5253 -1.3690 -0.3042
  311MOL0     H41969   3.575   2.248  11.806 -3.0311  0.9015 -1.1313
  311MOL0     H41970   3.806   2.180  11.744  0.2123 -3.1010 -0.5646
  311MOL0     H41971   5.688   2.500  10.985  0.9861 -0.0923  2.5057
  311MOL0     H41972   5.910   2.464  11.075  0.8527 -0.4432  0.1397
  311MOL0     H41973   6.278   2.298  11.352  0.2353  0.5549 -1.5318
  311MOL0     H41974   6.477   2.167  11.416 -0.2456  1.6673 -0.4917
  311MOL0     H41975   6.551   1.996  11.474 -0.1573 -1.9449  1.2669
  311MOL0     H41976   6.643   1.851  11.448  1.2573 -1.7550 -4.4431
  311MOL0     H41977   6.757   2.060  11.290  1.1631 -0.0675 -0.2219
  311MOL0     H41978   6.842   1.966  11.413  0.5156  1.1144  0.6292
  311MOL0     H41979   6.696   2.224  11.494 -0.2019 -1.1076  1.0148
  311MOL0     H41980   6.864   2.221  11.457 -0.6190 -0.7608  0.0822
  311MOL0     H41981   6.855   2.183  11.693  0.9143  1.0256 -2.5009
  311MOL0     H41982   6.896   2.034  11.624 -0.1047 -0.5603  0.4000
  311MOL0     H41983   6.539   1.923  11.803  0.8080  2.0177  4.4496
  311MOL0     H41984   6.408   1.932  11.053 -1.9461 -1.4037 -0.1189
  311MOL0     H41985   6.233   2.086  10.996 -0.1675  1.8492 -0.5725
  312MOL0     O41986   9.978  10.770   8.604  0.4199  0.3751 -0.0212
  312MOL0     C41987   9.950  10.831   8.710  0.0032 -1.3078  0.0259
  312MOL0     O41988  10.005  10.957   8.748 -0.7719  0.0941 -0.0837
  312MOL0     C41989  10.132  10.994   8.691 -0.5131  1.0341 -0.5521
  312MOL0     C41990  10.158  11.128   8.661  0.1797  0.5677  1.2037
  312MOL0     C41991  10.280  11.162   8.609  0.5431 -0.6629  0.6893
  312MOL0     C41992  10.391  11.074   8.592  0.7058  0.6491  0.3719
  312MOL0     O41993  10.511  11.136   8.565 -0.5159 -0.1885 -0.1227
  312MOL0     C41994  10.624  11.050   8.580  0.3733  0.2008  0.5345
  312MOL0     C41995  10.767  11.115   8.544  0.2513 -0.5290  0.2949
  312MOL0     C41996  10.829  11.031   8.429 -0.0342  0.3075  0.5274
  312MOL0     C41997  10.976  11.058   8.387 -0.1423  0.0171  0.4419
  312MOL0     C41998  10.996  11.199   8.344 -0.0649 -0.7064 -0.5969
  312MOL0     C41999  11.140  11.218   8.301  0.2431 -1.2326  0.0461
  312MOL0     C42000  11.240  11.174   8.404  0.7793 -0.6079  0.2841
  312MOL0     C42001  11.350  11.275   8.411  0.2151  0.3171 -0.5087
  312MOL0     N42002  11.299  11.401   8.471  0.2730  0.3685  0.3745
  312MOL0     C42003  11.210  11.419   8.574 -0.3174 -0.5855  0.1482
  312MOL0     C42004  11.181  11.552   8.588  0.5439  0.2841  0.3909
  312MOL0     C42005  11.089  11.610   8.693  0.7001 -0.6091 -0.4907
  312MOL0     C42006  11.073  11.514   8.819 -0.5742  0.0492  0.4674
  312MOL0     C42007  10.942  11.435   8.809  0.6970  0.7707  0.0309
  312MOL0     C42008  10.944  11.341   8.930 -0.5581 -0.2459  0.4060
  312MOL0     O42009  10.859  11.231   8.915  0.0271  1.0811 -0.1184
  312MOL0     C42010  10.727  11.259   8.959 -0.4110  0.4818  0.6085
  312MOL0     C42011  10.701  11.312   9.080 -0.5470  0.2293  0.2415
  312MOL0     C42012  10.572  11.330   9.134  0.3256  0.3334 -0.2634
  312MOL0     C42013  10.550  11.389   9.272  0.2325 -0.0481 -0.5987
  312MOL0     C42014  10.456  11.293   9.052 -0.6739  0.1220 -0.1919
  312MOL0     C42015  10.315  11.312   9.097  0.1692  0.1912  0.1807
  312MOL0     O42016  10.230  11.220   9.046  0.1435  0.1212 -0.2334
  312MOL0     C42017  10.095  11.216   9.079  0.1975 -0.3470 -0.4929
  312MOL0     C42018  10.065  11.187   9.211 -0.3854  0.8799  0.4606
  312MOL0     C42019   9.929  11.186   9.251  1.1412 -0.0788 -1.1528
  312MOL0     C42020   9.818  11.204   9.167 -0.2211  0.4984  0.0437
  312MOL0     O42021   9.691  11.213   9.223 -0.1794  0.1205 -0.2189
  312MOL0     C42022   9.577  11.263   9.148  0.5184  1.0344  1.3755
  312MOL0     C42023   9.463  11.211   9.241 -1.2027 -0.9056  0.4094
  312MOL0     C42024   9.323  11.233   9.206 -0.8067 -0.8210  0.0367
  312MOL0     C42025   9.292  11.214   9.055  0.8781 -0.7383  0.1712
  312MOL0     C42026   9.150  11.268   9.022 -0.6919 -0.4899 -0.1473
  312MOL0     C42027   9.034  11.171   9.061 -0.1857 -0.1258  0.6277
  312MOL0     C42028   8.909  11.193   8.983 -0.0763  0.1540 -0.0146
  312MOL0     C42029   8.795  11.097   9.022  0.5772 -0.6442 -0.2188
  312MOL0    Cl42030   8.844  10.940   8.955  0.1832  0.0180 -0.1057
  312MOL0     C42031   9.844  11.229   9.032 -0.1846 -0.8129 -0.3412
  312MOL0     C42032   9.981  11.236   8.986  0.3467  0.5525  0.1111
  312MOL0     O42033  10.279  11.404   9.173 -0.0320 -0.0134  0.5127
  312MOL0     C42034  10.484  11.244   8.925  0.0952  0.4811 -0.2876
  312MOL0     C42035  10.612  11.237   8.876 -0.4550  0.2056  0.0691
  312MOL0     N42036  11.257  11.616   8.488  0.6288 -0.8816  0.8050
  312MOL0     N42037  11.322  11.533   8.421 -0.5442 -0.0157 -0.3044
  312MOL0     C42038  10.358  10.938   8.616 -0.5164  0.0947  0.4913
  312MOL0     C42039  10.237  10.900   8.672 -0.5185  0.2903  0.2590
  312MOL0     C42040   9.823  10.798   8.777 -0.1222  0.0610 -0.3458
  312MOL0     C42041   9.773  10.664   8.769  0.1578  0.3245 -0.6839
  312MOL0     C42042   9.655  10.636   8.840 -0.5516 -0.0272 -0.0451
  312MOL0     C42043   9.586  10.735   8.915  0.8744  0.6738  0.1567
  312MOL0     O42044   9.475  10.695   8.980 -1.0241 -0.4693 -0.2537
  312MOL0     C42045   9.403  10.800   9.050  0.6428 -0.8272 -0.3797
  312MOL0     C42046   9.274  10.758   9.128  0.7557 -0.4411 -0.9138
  312MOL0     C42047   9.169  10.680   9.049 -0.2867 -1.4695 -0.5651
  312MOL0     C42048   9.045  10.653   9.140 -0.5418 -0.4299 -0.3188
  312MOL0     C42049   8.948  10.577   9.063 -0.2997  0.2551  0.2932
  312MOL0     C42050   8.876  10.505   8.999  0.5235  0.8582 -0.1538
  312MOL0     C42051   9.636  10.865   8.919 -0.1146  0.2060  0.6370
  312MOL0     C42052   9.751  10.898   8.853  0.0948  0.2716  0.1018
  312MOL0     H42053  10.078  11.201   8.669  0.1788  0.4201  2.9326
  312MOL0     H42054  10.288  11.268   8.590 -0.9979 -1.0719 -2.9625
  312MOL0     H42055  10.626  11.014   8.683  0.8211  0.7051  0.7086
  312MOL0     H42056  10.613  10.958   8.522 -1.8677  0.8022 -0.0843
  312MOL0     H42057  10.743  11.214   8.505  0.0596  0.3910  2.6213
  312MOL0     H42058  10.843  11.117   8.622  0.0589  1.0709  0.4712
  312MOL0     H42059  10.827  10.927   8.463 -0.6523  0.0190 -0.3524
  312MOL0     H42060  10.759  11.042   8.346 -0.5776  0.9404  1.0533
  312MOL0     H42061  11.041  11.046   8.474  0.3735 -3.2960 -0.2605
  312MOL0     H42062  11.006  10.989   8.307 -1.3420 -0.8025  0.6629
  312MOL0     H42063  10.936  11.243   8.264 -0.8165 -1.2846 -0.3595
  312MOL0     H42064  10.978  11.270   8.425 -1.9586 -2.8245  0.9836
  312MOL0     H42065  11.149  11.168   8.205 -1.7906  1.6118 -1.7874
  312MOL0     H42066  11.144  11.325   8.276 -0.6383 -2.0661 -4.4932
  312MOL0     H42067  11.205  11.151   8.505 -2.6264  0.1480 -0.5961
  312MOL0     H42068  11.280  11.077   8.372 -2.8844 -1.9953 -0.5927
  312MOL0     H42069  11.380  11.306   8.310  3.2134  1.8531  0.7179
  312MOL0     H42070  11.432  11.240   8.475 -1.8648  0.2956  2.3452
  312MOL0     H42071  11.174  11.340   8.639  2.7297 -0.4786  2.1817
  312MOL0     H42072  11.135  11.705   8.723  1.2156 -0.9390 -0.2152
  312MOL0     H42073  10.995  11.643   8.650  0.6280  0.3331  0.3393
  312MOL0     H42074  11.070  11.577   8.909 -0.8349  0.7093  0.0070
  312MOL0     H42075  11.162  11.451   8.826  0.1679  0.9321 -0.6289
  312MOL0     H42076  10.950  11.379   8.716  1.7640 -0.6654  0.9537
  312MOL0     H42077  10.857  11.504   8.809  0.2437  0.2496  1.2864
  312MOL0     H42078  10.941  11.382   9.031  2.0636 -0.8225  0.7894
  312MOL0     H42079  11.046  11.300   8.931 -1.1152 -1.7736 -1.0506
  312MOL0     H42080  10.774  11.335   9.157  0.4070 -1.4519 -0.1054
  312MOL0     H42081  10.470  11.336   9.324 -0.3127  1.6585  0.3840
  312MOL0     H42082  10.644  11.382   9.328  1.9992  1.7461 -3.1427
  312MOL0     H42083  10.516  11.491   9.253  2.7292  1.1939  0.9860
  312MOL0     H42084  10.142  11.162   9.283 -2.7749  0.1341  2.9669
  312MOL0     H42085   9.906  11.161   9.354 -2.3938 -0.3548 -1.8765
  312MOL0     H42086   9.584  11.372   9.141  0.1958  0.9628 -0.7022
  312MOL0     H42087   9.571  11.208   9.053 -0.3511  0.4770  1.7463
  312MOL0     H42088   9.473  11.102   9.251 -0.7435 -1.0190 -1.0563
  312MOL0     H42089   9.479  11.264   9.335 -0.3185  1.1244 -0.8272
  312MOL0     H42090   9.307  11.339   9.227 -0.5202 -1.0540  1.5363
  312MOL0     H42091   9.253  11.175   9.267 -1.1111 -0.8669 -0.3502
  312MOL0     H42092   9.362  11.279   9.001  0.8030  0.4210  1.4040
  312MOL0     H42093   9.304  11.108   9.031  3.0107 -0.9938  1.9793
  312MOL0     H42094   9.153  11.275   8.913 -1.8744  1.5337 -0.1097
  312MOL0     H42095   9.152  11.366   9.070  3.0946 -1.1142  1.2898
  312MOL0     H42096   9.080  11.073   9.047 -1.3873 -0.6138 -0.1008
  312MOL0     H42097   9.018  11.184   9.168  1.6101  1.7499  0.7279
  312MOL0     H42098   8.930  11.169   8.879 -6.2234 -1.4361 -1.2735
  312MOL0     H42099   8.874  11.296   8.991 -4.0332 -1.1299  1.9318
  312MOL0     H42100   8.699  11.131   8.980  1.1410 -2.7375 -3.4717
  312MOL0     H42101   8.778  11.087   9.130  2.0947 -1.4270 -0.0317
  312MOL0     H42102   9.763  11.246   8.961 -0.8430 -0.3465  0.5020
  312MOL0     H42103  10.003  11.246   8.880 -0.5947 -4.5477 -0.8664
  312MOL0     H42104  10.404  11.219   8.856 -2.8449  1.3810  2.5255
  312MOL0     H42105  10.623  11.229   8.768  0.1233 -0.9222  0.1902
  312MOL0     H42106  10.432  10.860   8.629 -1.1317 -0.7391 -0.7986
  312MOL0     H42107  10.226  10.796   8.702  2.9775 -0.0750  0.7676
  312MOL0     H42108   9.822  10.574   8.733  0.9918  0.5497 -0.1306
  312MOL0     H42109   9.614  10.536   8.854  1.4489 -0.6791  1.7144
  312MOL0     H42110   9.478  10.853   9.110  1.7891  2.2196 -4.0703
  312MOL0     H42111   9.380  10.875   8.973  1.0802 -0.8508 -0.5358
  312MOL0     H42112   9.227  10.847   9.171  0.9483 -0.1110 -1.3795
  312MOL0     H42113   9.306  10.691   9.208  1.9671  1.5216  0.3068
  312MOL0     H42114   9.219  10.586   9.023 -1.2805 -2.3507  0.5772
  312MOL0     H42115   9.139  10.734   8.959  0.5332  1.9024  1.0576
  312MOL0     H42116   9.010  10.748   9.181  0.2346  0.0013 -0.6256
  312MOL0     H42117   9.072  10.593   9.227 -2.6867 -0.6134  0.2701
  312MOL0     H42118   8.821  10.423   8.957 -0.4711  0.0615  2.4953
  312MOL0     H42119   9.588  10.950   8.967  2.1675  1.6904  0.4684
  312MOL0     H42120   9.798  10.994   8.874 -2.7860  1.9878 -0.6987
  313MOL0     O42121   4.145   1.122   7.674 -0.3151  0.7095 -0.0255
  313MOL0     C42122   4.203   1.025   7.616  0.1775 -0.9084 -0.1334
  313MOL0     O42123   4.137   0.957   7.524  0.1036  0.7871  0.3973
  313MOL0     C42124   4.009   0.995   7.485  0.2920  0.6354 -0.7855
  313MOL0     C42125   3.972   1.068   7.370 -0.3819  0.1644  1.0918
  313MOL0     C42126   3.836   1.099   7.341 -0.3576  1.0176 -0.6097
  313MOL0     C42127   3.740   1.057   7.434  0.0592  0.1702 -0.1898
  313MOL0     O42128   3.608   1.102   7.419  0.3272 -0.3226 -1.0916
  313MOL0     C42129   3.503   1.043   7.504 -0.0595 -0.0787 -0.4650
  313MOL0     C42130   3.373   1.113   7.446 -0.5692  0.2817  0.4647
  313MOL0     C42131   3.242   1.061   7.508  0.5728 -0.9516 -0.5137
  313MOL0     C42132   3.109   1.123   7.447 -0.3669  0.4950 -0.3595
  313MOL0     C42133   2.981   1.058   7.507 -0.8678 -0.2225  0.5564
  313MOL0     C42134   2.858   1.100   7.433  0.0280 -1.2140  0.3775
  313MOL0     C42135   2.728   1.058   7.503 -0.4425 -0.5210  0.3562
  313MOL0     C42136   2.606   1.110   7.426  0.7004  0.3049  0.2697
  313MOL0     N42137   2.495   1.114   7.519  0.6251  0.5384  0.1020
  313MOL0     C42138   2.449   1.234   7.575  0.8330  0.0790  0.2605
  313MOL0     C42139   2.329   1.202   7.637 -1.7021 -0.3274  0.1304
  313MOL0     C42140   2.237   1.294   7.708 -0.4609  0.2790  0.6611
  313MOL0     C42141   2.201   1.264   7.850 -0.0370 -0.0720 -0.3412
  313MOL0     C42142   2.110   1.376   7.906  0.3599  0.4339 -0.2757
  313MOL0     C42143   1.968   1.387   7.861  0.8975  0.4651 -0.1683
  313MOL0     O42144   1.898   1.471   7.951  0.3998  0.2854 -0.6654
  313MOL0     C42145   1.799   1.558   7.910  0.3086 -0.5202 -0.0179
  313MOL0     C42146   1.784   1.613   7.780 -0.2920  1.5520 -0.4075
  313MOL0     C42147   1.665   1.685   7.740  0.3929  0.6326 -0.0637
  313MOL0     C42148   1.652   1.757   7.611  0.3268  0.6202 -0.6106
  313MOL0     C42149   1.574   1.719   7.852 -0.1290 -0.8591 -0.0025
  313MOL0     C42150   1.473   1.827   7.847  0.0705  0.3870 -0.3827
  313MOL0     O42151   1.346   1.778   7.851 -1.5318 -0.5766 -0.0214
  313MOL0     C42152   1.257   1.867   7.901  0.6192  0.5520  0.3348
  313MOL0     C42153   1.174   1.928   7.801  0.0364  1.1436  0.8072
  313MOL0     C42154   1.096   2.039   7.837 -0.0827  0.3105  0.2107
  313MOL0     C42155   1.075   2.074   7.975 -0.2899  0.3726 -0.0531
  313MOL0     O42156   1.011   2.184   8.000  0.4150 -0.0891  0.0738
  313MOL0     C42157   0.989   2.225   8.138 -0.3938 -0.1457 -0.6225
  313MOL0     C42158   1.111   2.277   8.210 -0.3598  0.6415 -0.0067
  313MOL0     C42159   1.084   2.301   8.356  0.2614  0.3340  0.3014
  313MOL0     C42160   0.973   2.406   8.392  0.3880 -0.6658 -0.4033
  313MOL0     C42161   1.010   2.493   8.508  0.2864  0.4313 -0.5691
  313MOL0     C42162   0.957   2.450   8.659  0.3644  0.5737  0.2742
  313MOL0     C42163   0.945   2.564   8.751 -0.2315 -0.0188 -0.4229
  313MOL0     C42164   0.871   2.532   8.869  0.7750 -0.3692 -1.7331
  313MOL0    Cl42165   0.800   2.682   8.946 -0.0063  0.4477  0.2245
  313MOL0     C42166   1.138   1.986   8.071  0.2330  0.4579  0.8139
  313MOL0     C42167   1.228   1.889   8.032 -0.2929  0.3104 -0.3628
  313MOL0     O42168   1.516   1.943   7.854 -0.2913 -0.1292 -0.9258
  313MOL0     C42169   1.586   1.659   7.976 -0.0409  0.2662  0.6042
  313MOL0     C42170   1.697   1.579   8.003  0.5806 -0.3181  0.0896
  313MOL0     N42171   2.317   1.062   7.614  0.2390 -0.1844  0.3968
  313MOL0     N42172   2.413   1.012   7.545  0.8028  0.6180 -0.4011
  313MOL0     C42173   3.775   0.973   7.548  0.8322  0.1218 -0.6225
  313MOL0     C42174   3.906   0.938   7.562  0.3845  0.3752  0.0934
  313MOL0     C42175   4.350   1.006   7.635  0.3151 -0.3894  0.6927
  313MOL0     C42176   4.421   0.921   7.548 -0.3195 -0.3562  0.3982
  313MOL0     C42177   4.548   0.877   7.577  0.9655 -0.2195  0.8287
  313MOL0     C42178   4.604   0.907   7.703  0.1047  0.4890 -0.2915
  313MOL0     O42179   4.725   0.852   7.727  0.8999 -0.1673 -0.3140
  313MOL0     C42180   4.784   0.886   7.862 -0.4935 -0.1506 -0.4524
  313MOL0     C42181   4.920   0.819   7.878  1.1493  0.0137  0.2288
  313MOL0     C42182   4.896   0.664   7.864  1.2738 -0.0705  0.1508
  313MOL0     C42183   5.026   0.591   7.868 -0.8037  0.6096  0.0555
  313MOL0     C42184   5.007   0.447   7.887  0.4139  0.3207  0.6438
  313MOL0     C42185   4.983   0.331   7.911 -0.8939 -0.0024 -0.3505
  313MOL0     C42186   4.537   0.995   7.788 -0.6666 -0.1917 -0.1726
  313MOL0     C42187   4.411   1.050   7.757  0.2351  0.3242 -0.6510
  313MOL0     H42188   4.036   1.107   7.292 -2.1840 -1.4803 -1.3623
  313MOL0     H42189   3.806   1.160   7.256 -0.6033  0.7992 -0.6789
  313MOL0     H42190   3.490   0.935   7.509 -0.7380 -0.0451 -1.1732
  313MOL0     H42191   3.521   1.078   7.605  1.6130 -1.6921 -0.1517
  313MOL0     H42192   3.384   1.221   7.460  1.4863 -0.0235  1.5093
  313MOL0     H42193   3.364   1.072   7.345  0.1365 -2.5169  1.4632
  313MOL0     H42194   3.241   0.952   7.497 -2.8436 -1.6636  3.9503
  313MOL0     H42195   3.233   1.083   7.615  0.9656 -2.5747 -0.1116
  313MOL0     H42196   3.112   1.230   7.473 -1.9877  0.6124 -0.5789
  313MOL0     H42197   3.111   1.125   7.338 -3.5151 -0.8769 -0.5246
  313MOL0     H42198   2.984   0.949   7.510 -0.5872 -0.1988  1.4071
  313MOL0     H42199   2.980   1.092   7.611 -0.4207 -0.0310  0.5005
  313MOL0     H42200   2.854   1.205   7.401 -0.7824 -1.5446 -0.6934
  313MOL0     H42201   2.868   1.048   7.337  2.7759 -0.5431  0.2383
  313MOL0     H42202   2.714   0.950   7.502 -1.0894 -0.4529 -1.6195
  313MOL0     H42203   2.729   1.087   7.609 -3.6860  2.0671 -0.1534
  313MOL0     H42204   2.574   1.037   7.351  2.6095 -0.0897 -0.2333
  313MOL0     H42205   2.610   1.202   7.366  0.2996 -0.8880 -1.6763
  313MOL0     H42206   2.483   1.337   7.570 -0.6282  0.7802  2.8639
  313MOL0     H42207   2.287   1.391   7.719 -1.5766  0.9072  0.3187
  313MOL0     H42208   2.147   1.303   7.646 -1.8473  0.8300  2.6735
  313MOL0     H42209   2.295   1.265   7.906 -0.1512  0.2352 -0.1551
  313MOL0     H42210   2.157   1.164   7.852  0.8141 -0.5286 -2.4445
  313MOL0     H42211   2.158   1.474   7.895  1.4872 -0.2994 -2.8668
  313MOL0     H42212   2.111   1.358   8.014 -0.2724  2.1643  0.0616
  313MOL0     H42213   1.917   1.294   7.885  0.3726  1.5943  3.7975
  313MOL0     H42214   1.965   1.413   7.755 -0.0648 -0.1624 -0.3048
  313MOL0     H42215   1.860   1.588   7.708 -0.6316 -0.1666 -0.2103
  313MOL0     H42216   1.549   1.737   7.581 -0.1672  2.3641 -0.2374
  313MOL0     H42217   1.665   1.865   7.625  4.0229 -0.0071  2.3382
  313MOL0     H42218   1.719   1.721   7.533 -0.9526  1.1050 -1.9867
  313MOL0     H42219   1.177   1.901   7.696 -2.3502 -1.7690  1.3605
  313MOL0     H42220   1.058   2.097   7.754 -0.6105  0.3394  0.4643
  313MOL0     H42221   0.908   2.298   8.143 -0.0806  0.1777 -0.1628
  313MOL0     H42222   0.954   2.138   8.195  0.2263 -0.3220 -0.5003
  313MOL0     H42223   1.196   2.207   8.209  0.1999  1.2978  0.5007
  313MOL0     H42224   1.146   2.366   8.156 -0.9824  1.2392  0.5578
  313MOL0     H42225   1.176   2.313   8.414 -0.6728 -2.0529  2.5059
  313MOL0     H42226   1.052   2.213   8.411  2.0901  1.7808  4.0317
  313MOL0     H42227   0.963   2.462   8.299  0.1414 -1.0650 -0.6205
  313MOL0     H42228   0.876   2.356   8.403 -0.6790  1.2516 -0.7950
  313MOL0     H42229   0.974   2.595   8.492  2.2767  1.1066 -0.9733
  313MOL0     H42230   1.119   2.502   8.516 -0.0112  2.7962  3.1793
  313MOL0     H42231   0.858   2.407   8.645 -0.1259  2.0764 -1.2229
  313MOL0     H42232   1.026   2.371   8.690 -1.1773 -1.9472 -2.1827
  313MOL0     H42233   0.888   2.635   8.689  0.7040  0.1719 -1.0813
  313MOL0     H42234   1.042   2.607   8.775 -1.0087  0.6532  1.7718
  313MOL0     H42235   0.948   2.483   8.928 -0.4659  1.8199  2.0734
  313MOL0     H42236   0.788   2.469   8.836 -0.2004  0.7097 -1.3894
  313MOL0     H42237   1.134   2.010   8.177 -1.3859 -0.4504  0.9982
  313MOL0     H42238   1.284   1.825   8.099  0.1446  0.4513 -0.5933
  313MOL0     H42239   1.504   1.670   8.047  0.8120  2.2945  1.3437
  313MOL0     H42240   1.704   1.526   8.097 -1.8323  1.7116  1.5520
  313MOL0     H42241   3.706   0.934   7.623  2.3705  1.3206  1.5243
  313MOL0     H42242   3.920   0.863   7.640 -1.3407  0.6074  0.6628
  313MOL0     H42243   4.377   0.887   7.455 -0.7124  0.7406  0.1760
  313MOL0     H42244   4.608   0.809   7.517  3.5959  3.0102 -0.5578
  313MOL0     H42245   4.799   0.994   7.864 -1.1287 -0.0627 -0.2421
  313MOL0     H42246   4.711   0.854   7.937 -2.3730  2.0747 -1.2087
  313MOL0     H42247   4.954   0.843   7.979 -2.5074 -0.4905  1.7232
  313MOL0     H42248   4.991   0.852   7.801 -0.0849  1.1725 -0.4626
  313MOL0     H42249   4.843   0.651   7.770  0.8405  1.5775  0.1282
  313MOL0     H42250   4.835   0.636   7.950 -2.1840  5.2014 -0.1331
  313MOL0     H42251   5.079   0.628   7.957 -0.2328 -1.7157  0.7392
  313MOL0     H42252   5.081   0.616   7.777 -0.0494  0.9155  0.5810
  313MOL0     H42253   4.964   0.228   7.935  0.7562  0.1819  2.1270
  313MOL0     H42254   4.585   1.028   7.879 -1.9081  3.1257 -0.5827
  313MOL0     H42255   4.366   1.121   7.826 -0.0517 -0.8073  0.3656
  314MOL0     O42256   1.575   8.448   7.261 -0.3370 -0.5983 -0.7044
  314MOL0     C42257   1.471   8.433   7.329  0.0085 -0.3724 -0.4846
  314MOL0     O42258   1.374   8.337   7.313  0.1953 -0.0421  0.9348
  314MOL0     C42259   1.365   8.276   7.192 -0.8587 -0.1904  0.4954
  314MOL0     C42260   1.379   8.353   7.073 -0.7084  0.3992 -0.7453
  314MOL0     C42261   1.382   8.279   6.948 -0.6282  0.4595  0.6468
  314MOL0     C42262   1.360   8.143   6.949  0.1379  0.2285 -0.1502
  314MOL0     O42263   1.350   8.070   6.840 -0.4289  0.1471  0.1419
  314MOL0     C42264   1.478   8.073   6.777 -0.6115 -1.3645  0.3392
  314MOL0     C42265   1.488   7.954   6.688  0.2065  0.8702  0.0110
  314MOL0     C42266   1.500   7.818   6.769  1.3433 -0.6973  0.7031
  314MOL0     C42267   1.495   7.684   6.683 -0.2290  0.1965  0.0783
  314MOL0     C42268   1.429   7.572   6.769  0.0248 -0.4589 -0.5476
  314MOL0     C42269   1.442   7.441   6.705 -0.0500  0.5642  0.7519
  314MOL0     C42270   1.349   7.334   6.772  0.3799 -0.1215 -0.0181
  314MOL0     C42271   1.349   7.194   6.705 -0.1246  0.4810 -0.4839
  314MOL0     N42272   1.484   7.132   6.703 -0.0971 -0.2754 -0.2667
  314MOL0     C42273   1.519   7.038   6.792 -0.0562  0.1459  0.7340
  314MOL0     C42274   1.645   6.993   6.762  0.4294 -0.4327 -0.7607
  314MOL0     C42275   1.720   6.886   6.836 -0.2399  0.0195  0.6293
  314MOL0     C42276   1.689   6.901   6.982 -0.0643  0.1521 -0.3967
  314MOL0     C42277   1.793   6.816   7.066  0.4357  0.5270 -0.3590
  314MOL0     C42278   1.764   6.668   7.056 -0.1344 -0.9930  0.3727
  314MOL0     O42279   1.643   6.649   7.128  0.2396 -0.1453 -0.5805
  314MOL0     C42280   1.604   6.517   7.145  0.7258 -0.2189 -0.2684
  314MOL0     C42281   1.469   6.486   7.158 -0.8428 -0.1404  0.4576
  314MOL0     C42282   1.422   6.355   7.173  0.3920  0.2777 -0.5172
  314MOL0     C42283   1.277   6.343   7.191  0.6486  0.0501  0.7809
  314MOL0     C42284   1.514   6.243   7.165 -0.3797  0.0416  0.2861
  314MOL0     C42285   1.463   6.107   7.151 -0.4637 -0.0881 -0.0951
  314MOL0     O42286   1.368   6.094   7.065  1.2129 -0.0222  0.7315
  314MOL0     C42287   1.325   5.964   7.026  0.8651 -0.4854 -0.5777
  314MOL0     C42288   1.263   5.870   7.113 -0.1748 -0.7242  0.6571
  314MOL0     C42289   1.193   5.760   7.060 -0.1726 -0.1739 -0.4095
  314MOL0     C42290   1.183   5.740   6.918 -0.0024 -0.0391  0.2546
  314MOL0     O42291   1.128   5.632   6.859 -0.4740  0.7392  0.0840
  314MOL0     C42292   1.178   5.510   6.916  0.6071  0.6919 -0.0795
  314MOL0     C42293   1.218   5.413   6.799 -0.3164 -0.5902 -0.3067
  314MOL0     C42294   1.313   5.308   6.837  1.0694  0.2788 -0.1953
  314MOL0     C42295   1.313   5.191   6.735  0.8668 -0.5662 -1.0250
  314MOL0     C42296   1.294   5.058   6.794 -0.2256 -0.4488  0.5691
  314MOL0     C42297   1.411   4.996   6.852 -0.7049 -0.9872 -1.1545
  314MOL0     C42298   1.364   4.864   6.913 -0.6753 -0.5494  0.8398
  314MOL0     C42299   1.329   4.760   6.815  0.3918  0.2867  0.5215
  314MOL0    Cl42300   1.271   4.598   6.895 -0.6408 -0.2403 -0.1989
  314MOL0     C42301   1.230   5.841   6.830  0.5441 -0.4436 -0.0712
  314MOL0     C42302   1.306   5.951   6.886  0.5617 -0.1970  0.6567
  314MOL0     O42303   1.515   6.022   7.225  0.2188 -0.8747 -0.4332
  314MOL0     C42304   1.649   6.274   7.145  0.6632 -0.0343  0.5363
  314MOL0     C42305   1.690   6.403   7.147 -0.5918  0.7940 -0.6639
  314MOL0     N42306   1.679   7.071   6.651  0.4835  0.2719  0.0366
  314MOL0     N42307   1.590   7.152   6.615  0.0072 -0.0597  0.1063
  314MOL0     C42308   1.321   8.081   7.072  0.9484  0.4030  0.1859
  314MOL0     C42309   1.330   8.146   7.191  0.2946 -0.4251 -0.0986
  314MOL0     C42310   1.448   8.538   7.435  0.1946 -0.1310  0.1570
  314MOL0     C42311   1.326   8.528   7.507 -0.2162 -0.6451  0.5874
  314MOL0     C42312   1.296   8.622   7.600 -0.8970  0.8004 -0.2792
  314MOL0     C42313   1.387   8.718   7.636 -0.3757 -0.3501  0.7856
  314MOL0     O42314   1.337   8.793   7.738  0.0548 -0.2733 -0.9521
  314MOL0     C42315   1.377   8.929   7.743  0.1316 -0.3225 -0.8052
  314MOL0     C42316   1.333   8.993   7.869 -0.1468 -0.0264  0.5740
  314MOL0     C42317   1.331   9.144   7.869  0.3468 -0.3637 -0.4680
  314MOL0     C42318   1.459   9.217   7.839  0.1761 -0.6933  0.6912
  314MOL0     C42319   1.559   9.214   7.946 -0.3605 -0.6276 -0.4616
  314MOL0     C42320   1.643   9.224   8.030  0.0038 -0.0192 -0.3999
  314MOL0     C42321   1.510   8.742   7.557  0.5147  0.1268 -0.3236
  314MOL0     C42322   1.536   8.653   7.458 -0.0117  0.2995  0.1584
  314MOL0     H42323   1.386   8.461   7.068 -0.5173  0.4061 -0.2940
  314MOL0     H42324   1.391   8.337   6.857 -1.2616 -0.8174 -0.2597
  314MOL0     H42325   1.483   8.168   6.723  0.7472 -0.5964  1.7451
  314MOL0     H42326   1.562   8.071   6.847  0.0876 -2.3579 -0.4953
  314MOL0     H42327   1.402   7.941   6.622  0.1009  1.4354  0.0341
  314MOL0     H42328   1.568   7.964   6.614  0.6891  1.5228  0.6062
  314MOL0     H42329   1.593   7.822   6.825  2.4720  0.0597 -1.1350
  314MOL0     H42330   1.414   7.816   6.837  1.0033  2.1435  0.4843
  314MOL0     H42331   1.440   7.695   6.589 -4.3690 -0.5233  2.1518
  314MOL0     H42332   1.596   7.654   6.656  0.3082  1.5260  0.5352
  314MOL0     H42333   1.490   7.580   6.860  0.4310  3.3925 -0.9894
  314MOL0     H42334   1.325   7.595   6.793  0.6300  1.5503  0.4047
  314MOL0     H42335   1.426   7.453   6.597  0.7702 -0.3410  0.5201
  314MOL0     H42336   1.542   7.398   6.709 -0.5296 -0.4906  3.4262
  314MOL0     H42337   1.373   7.315   6.877 -0.6593 -1.3695  0.0133
  314MOL0     H42338   1.247   7.372   6.769  0.6439  0.7082  0.8032
  314MOL0     H42339   1.313   7.213   6.603  1.0228  2.9506 -0.4972
  314MOL0     H42340   1.279   7.121   6.747 -0.8396  0.1553 -2.1365
  314MOL0     H42341   1.454   6.991   6.865 -1.9703 -3.2975 -2.7911
  314MOL0     H42342   1.681   6.789   6.804  2.3826 -1.1159  0.5714
  314MOL0     H42343   1.828   6.896   6.819  0.3833 -3.2562  2.0252
  314MOL0     H42344   1.591   6.861   7.009  0.0918  0.3969  0.5759
  314MOL0     H42345   1.688   7.009   7.000 -1.2357  0.4190 -1.8905
  314MOL0     H42346   1.797   6.840   7.173  2.6306 -1.0497 -0.0143
  314MOL0     H42347   1.899   6.841   7.049  1.3172  0.7287  4.0255
  314MOL0     H42348   1.854   6.614   7.085 -0.5237 -3.4880 -2.5760
  314MOL0     H42349   1.751   6.639   6.951 -0.1608  3.0307 -0.9159
  314MOL0     H42350   1.395   6.565   7.157  1.0929  1.7656  0.0420
  314MOL0     H42351   1.218   6.426   7.233  0.5348 -0.1456  1.0112
  314MOL0     H42352   1.244   6.322   7.089 -0.7046  0.0272  1.1969
  314MOL0     H42353   1.250   6.255   7.249  2.0119  0.0138  1.3920
  314MOL0     H42354   1.251   5.880   7.221  0.1423 -1.2723  0.7417
  314MOL0     H42355   1.143   5.695   7.132  0.7775 -1.5716 -0.9761
  314MOL0     H42356   1.264   5.529   6.982  0.2731  0.2139  0.5046
  314MOL0     H42357   1.099   5.458   6.972 -1.5187  0.2130 -3.2911
  314MOL0     H42358   1.119   5.381   6.763 -0.3229 -2.4196  1.1995
  314MOL0     H42359   1.263   5.459   6.710  3.0669  0.8540  1.9643
  314MOL0     H42360   1.297   5.272   6.939 -0.3411  0.1815 -0.4306
  314MOL0     H42361   1.402   5.371   6.845 -0.2587  2.2516 -0.3493
  314MOL0     H42362   1.233   5.206   6.663  0.3297  1.7492 -0.0427
  314MOL0     H42363   1.403   5.199   6.674  1.6464  0.0948  0.1564
  314MOL0     H42364   1.269   5.006   6.701  2.0544 -2.8100  1.1741
  314MOL0     H42365   1.214   5.056   6.868  0.7895 -2.6342  1.6952
  314MOL0     H42366   1.484   4.982   6.772  1.7542  0.3604  0.7040
  314MOL0     H42367   1.441   5.066   6.930 -1.5804 -1.0548 -0.7447
  314MOL0     H42368   1.280   4.873   6.983  1.2762 -0.2931  3.3152
  314MOL0     H42369   1.449   4.844   6.979  0.4011  1.0565  0.0162
  314MOL0     H42370   1.417   4.735   6.756 -0.0541 -0.0145 -0.0211
  314MOL0     H42371   1.244   4.770   6.748 -0.1481 -1.3732  0.9156
  314MOL0     H42372   1.224   5.839   6.721 -0.5907  1.3765 -0.0785
  314MOL0     H42373   1.338   6.034   6.824 -1.0760  0.3923  0.5405
  314MOL0     H42374   1.719   6.196   7.118  0.9916  0.7350 -0.9142
  314MOL0     H42375   1.796   6.421   7.137  0.2462 -2.0384  1.7737
  314MOL0     H42376   1.314   7.973   7.071  3.8590  0.1368  0.7202
  314MOL0     H42377   1.330   8.079   7.277 -1.4842 -0.5647 -0.1814
  314MOL0     H42378   1.255   8.447   7.495 -2.4733  1.3618 -0.6296
  314MOL0     H42379   1.207   8.609   7.661 -0.2432 -0.8856  0.3759
  314MOL0     H42380   1.486   8.938   7.739 -0.0198  2.1228 -1.3847
  314MOL0     H42381   1.357   8.982   7.649  0.5515  0.9173 -0.2256
  314MOL0     H42382   1.398   8.948   7.944 -1.1723 -3.7546 -0.5478
  314MOL0     H42383   1.230   8.964   7.894 -1.7871  3.9372 -0.6953
  314MOL0     H42384   1.302   9.179   7.968  0.4603 -1.1658 -0.1466
  314MOL0     H42385   1.255   9.179   7.798 -1.2777 -1.1663  0.8005
  314MOL0     H42386   1.431   9.323   7.833  2.1054 -0.0653  1.9515
  314MOL0     H42387   1.502   9.179   7.745  0.7116  2.2000 -0.3450
  314MOL0     H42388   1.735   9.231   8.085  0.7041 -1.2914 -1.3773
  314MOL0     H42389   1.593   8.807   7.583  1.3955 -1.4701  0.9855
  314MOL0     H42390   1.622   8.672   7.395  0.5714  0.3430  0.9657
  315MOL0     O42391   3.600   0.947   3.778  0.5028 -0.0293 -0.2981
  315MOL0     C42392   3.607   1.063   3.802 -0.1911 -0.8703  1.0995
  315MOL0     O42393   3.514   1.143   3.848  0.2540 -0.7475 -0.3630
  315MOL0     C42394   3.428   1.109   3.949  0.9003  0.0640  1.3467
  315MOL0     C42395   3.417   0.985   4.017  0.4622  1.4084  0.5410
  315MOL0     C42396   3.329   0.973   4.128  0.2821 -0.6759  0.4679
  315MOL0     C42397   3.230   1.072   4.150 -0.8171  0.2377 -0.1855
  315MOL0     O42398   3.131   1.055   4.245  0.3390 -0.1622 -0.3845
  315MOL0     C42399   3.095   0.912   4.258 -0.0855 -0.7216 -1.0638
  315MOL0     C42400   2.976   0.908   4.334  0.9142 -0.5414 -0.7353
  315MOL0     C42401   2.892   0.792   4.288 -0.2122  0.2778  0.0967
  315MOL0     C42402   2.752   0.764   4.351 -0.1198 -0.4604  0.1233
  315MOL0     C42403   2.658   0.694   4.265  0.4904 -0.5692  0.2079
  315MOL0     C42404   2.508   0.706   4.307  0.2103  0.2236  0.1372
  315MOL0     C42405   2.404   0.617   4.225  0.7674 -0.5313  0.6548
  315MOL0     C42406   2.256   0.636   4.270 -0.0070 -0.2192  0.7610
  315MOL0     N42407   2.179   0.525   4.209 -0.1203  1.2200  0.6454
  315MOL0     C42408   2.069   0.521   4.124  0.3103  0.7552 -0.1200
  315MOL0     C42409   2.050   0.390   4.111 -0.2204 -0.0488  0.2419
  315MOL0     C42410   1.956   0.329   4.013  0.3695 -0.3946 -0.3520
  315MOL0     C42411   1.837   0.308   4.109  1.2504 -0.1637  0.7753
  315MOL0     C42412   1.725   0.265   4.006 -0.2505  0.4831  0.1175
  315MOL0     C42413   1.600   0.230   4.084  0.5276 -0.1132 -0.5164
  315MOL0     O42414   1.539   0.114   4.018 -0.0669 -0.4930 -0.7953
  315MOL0     C42415   1.427   0.134   3.941 -0.5348  0.2253  0.1666
  315MOL0     C42416   1.315   0.051   3.960 -0.2353  0.2869  0.1385
  315MOL0     C42417   1.205   0.050   3.876 -0.6163  0.3693  1.1645
  315MOL0     C42418   1.100  -0.058   3.913  0.0988  0.2934  0.2704
  315MOL0     C42419   1.201   0.140   3.766 -0.2277  0.3003 -0.5510
  315MOL0     C42420   1.084   0.157   3.685 -0.8118  0.3613  0.0443
  315MOL0     O42421   1.102   0.236   3.573  0.9985  0.1225  0.0734
  315MOL0     C42422   1.019   0.219   3.462 -0.6712  0.7598  0.2995
  315MOL0     C42423   0.909   0.128   3.441 -0.0719  0.6749 -0.9719
  315MOL0     C42424   0.846   0.108   3.319  0.2861  0.2279  0.4218
  315MOL0     C42425   0.893   0.179   3.205  0.2160  0.3330  0.8638
  315MOL0     O42426   0.855   0.133   3.078  0.6772 -0.9479 -0.2841
  315MOL0     C42427   0.950   0.158   2.975  0.3558  0.7841  0.2358
  315MOL0     C42428   0.895   0.068   2.852 -0.1907 -0.4485 -0.1648
  315MOL0     C42429   0.981   0.065   2.725 -0.6827 -0.9307 -0.5421
  315MOL0     C42430   1.072  -0.051   2.730 -0.6185  0.0233  0.4711
  315MOL0     C42431   1.179  -0.033   2.624 -0.7147  0.4019 -0.1969
  315MOL0     C42432   1.279  -0.152   2.640 -0.3639  0.5472  0.3272
  315MOL0     C42433   1.372  -0.141   2.515 -1.0414 -0.5668 -0.5356
  315MOL0     C42434   1.490  -0.046   2.524  0.2385  0.2270  0.5119
  315MOL0    Cl42435   1.587  -0.083   2.669  0.2300  0.7056 -0.5009
  315MOL0     C42436   0.995   0.272   3.221  0.5688  0.2602  0.0455
  315MOL0     C42437   1.051   0.288   3.349 -1.2408  0.3606  0.4988
  315MOL0     O42438   0.973   0.119   3.733 -0.2413 -0.1976 -0.4385
  315MOL0     C42439   1.324   0.212   3.739  0.3538  1.2392 -0.2084
  315MOL0     C42440   1.432   0.201   3.819  0.0428 -0.0287  0.4529
  315MOL0     N42441   2.141   0.313   4.186  0.1030 -0.1323 -0.4336
  315MOL0     N42442   2.218   0.397   4.239  0.3344  0.2573  0.5347
  315MOL0     C42443   3.242   1.188   4.081 -0.3378  0.1539 -0.0824
  315MOL0     C42444   3.337   1.208   3.984  0.1212  0.2719 -0.4302
  315MOL0     C42445   3.739   1.114   3.763 -0.0860 -0.8158 -0.0356
  315MOL0     C42446   3.839   1.029   3.713 -0.1836  0.7159 -0.4824
  315MOL0     C42447   3.963   1.074   3.683 -0.0902  0.1195  0.7205
  315MOL0     C42448   3.991   1.206   3.698  0.0402 -0.3752  0.3444
  315MOL0     O42449   4.109   1.246   3.636 -0.2764  0.2768 -0.2888
  315MOL0     C42450   4.181   1.359   3.685  0.6881 -0.9902 -0.6091
  315MOL0     C42451   4.325   1.340   3.648  0.2339  0.1313  0.2707
  315MOL0     C42452   4.408   1.382   3.772  0.1867  0.8767  0.5760
  315MOL0     C42453   4.556   1.357   3.740  0.1252 -0.3121 -0.2634
  315MOL0     C42454   4.624   1.482   3.690  0.6332  0.5249 -0.1868
  315MOL0     C42455   4.675   1.592   3.656 -0.6555  0.2653 -0.0130
  315MOL0     C42456   3.892   1.294   3.740  0.4167  0.6170  0.1455
  315MOL0     C42457   3.764   1.252   3.777 -0.3473  0.0583  0.4265
  315MOL0     H42458   3.484   0.900   4.008 -0.1783  0.5801  2.8183
  315MOL0     H42459   3.328   0.878   4.181 -0.9363 -0.8219  0.1965
  315MOL0     H42460   3.081   0.880   4.154  3.6356 -0.0501 -1.9361
  315MOL0     H42461   3.169   0.855   4.316 -0.7914  0.6548  1.3317
  315MOL0     H42462   3.002   0.891   4.439  0.2428 -1.0800 -0.6516
  315MOL0     H42463   2.919   1.001   4.331 -1.7150 -2.1094 -2.6397
  315MOL0     H42464   2.875   0.803   4.180 -2.5660 -0.5479  0.3365
  315MOL0     H42465   2.961   0.708   4.299  1.0510  1.2928  0.1778
  315MOL0     H42466   2.759   0.718   4.450  2.2713 -1.1496 -0.2985
  315MOL0     H42467   2.722   0.867   4.373 -0.4443  0.8414 -5.0638
  315MOL0     H42468   2.662   0.735   4.164 -2.9878  2.0730  0.9539
  315MOL0     H42469   2.678   0.588   4.243  1.2768 -0.1739 -1.0586
  315MOL0     H42470   2.505   0.673   4.411  0.9281  1.5601  0.6061
  315MOL0     H42471   2.489   0.814   4.301 -2.9645 -0.1638  1.5743
  315MOL0     H42472   2.406   0.654   4.123 -0.4277 -0.5369  0.6147
  315MOL0     H42473   2.430   0.511   4.230 -1.4881 -1.1914 -0.4273
  315MOL0     H42474   2.224   0.734   4.235  1.3614  0.1467  0.4933
  315MOL0     H42475   2.249   0.630   4.379  0.7381 -2.1037  0.7435
  315MOL0     H42476   2.010   0.604   4.087 -1.9723 -0.7348  0.0033
  315MOL0     H42477   1.913   0.395   3.938 -2.6035 -0.8033  0.8421
  315MOL0     H42478   1.988   0.241   3.957  0.7625  2.2816 -4.8587
  315MOL0     H42479   1.791   0.397   4.154 -5.5045 -2.8709  0.4295
  315MOL0     H42480   1.854   0.237   4.191  0.3848 -1.4027 -0.0799
  315MOL0     H42481   1.756   0.183   3.942  1.0375 -1.1497  2.6870
  315MOL0     H42482   1.704   0.353   3.945  1.1471  1.9113  1.5887
  315MOL0     H42483   1.534   0.316   4.100 -0.7289 -1.3558  1.4556
  315MOL0     H42484   1.630   0.194   4.183  1.1845 -0.1222 -0.7135
  315MOL0     H42485   1.315  -0.009   4.051  1.8610 -2.3601 -1.4451
  315MOL0     H42486   1.153  -0.145   3.952  2.1509  0.7699 -1.2381
  315MOL0     H42487   1.039  -0.021   3.995  0.0167  0.3387  0.1895
  315MOL0     H42488   1.044  -0.104   3.831  0.7343 -0.2853  0.1463
  315MOL0     H42489   0.864   0.073   3.522 -0.9523  0.3192 -1.6827
  315MOL0     H42490   0.764   0.037   3.315 -2.0029  2.7554 -0.5782
  315MOL0     H42491   0.943   0.262   2.942  2.3819  0.9290  0.1609
  315MOL0     H42492   1.051   0.144   3.015 -1.0730  1.6595  4.7468
  315MOL0     H42493   0.868  -0.035   2.880 -2.6629 -0.2878 -1.6995
  315MOL0     H42494   0.804   0.118   2.818  0.2446 -0.4330 -1.3198
  315MOL0     H42495   1.038   0.158   2.725 -0.6318 -0.7703  3.4812
  315MOL0     H42496   0.917   0.055   2.637 -2.0029  0.3291  0.2341
  315MOL0     H42497   1.114  -0.060   2.830  0.1676 -4.0557 -0.0416
  315MOL0     H42498   1.019  -0.144   2.707  1.2207 -0.8406 -0.4708
  315MOL0     H42499   1.232   0.062   2.634 -1.4863  0.8686 -0.5210
  315MOL0     H42500   1.120  -0.041   2.533 -3.5608  2.8860  1.2768
  315MOL0     H42501   1.332  -0.151   2.736  2.4770  0.0441 -1.1372
  315MOL0     H42502   1.239  -0.252   2.620 -1.6970  0.5734  2.5479
  315MOL0     H42503   1.322  -0.113   2.421  0.3849  2.9344 -0.3918
  315MOL0     H42504   1.404  -0.245   2.498  1.8452  0.5037 -2.3715
  315MOL0     H42505   1.459   0.059   2.527  0.1587  0.2268 -0.2486
  315MOL0     H42506   1.546  -0.062   2.432 -2.4014  0.8810 -1.3157
  315MOL0     H42507   1.033   0.339   3.144  3.6272  0.3511  1.4693
  315MOL0     H42508   1.141   0.348   3.360  0.8510 -2.7496  1.5905
  315MOL0     H42509   1.351   0.270   3.651  1.7542  0.2577 -0.4525
  315MOL0     H42510   1.528   0.241   3.787  0.3847 -0.4849  0.9062
  315MOL0     H42511   3.187   1.281   4.100  1.6691  1.8211 -1.9211
  315MOL0     H42512   3.341   1.310   3.947  0.5908  0.5703  0.4205
  315MOL0     H42513   3.814   0.925   3.696 -0.7250  0.7596  0.0098
  315MOL0     H42514   4.048   1.021   3.640  0.8164 -0.4503  3.0609
  315MOL0     H42515   4.150   1.452   3.636  0.0907  0.2198  1.9055
  315MOL0     H42516   4.170   1.367   3.793  2.2980  1.6490 -0.5749
  315MOL0     H42517   4.348   1.395   3.556  2.9155 -0.3113  0.5948
  315MOL0     H42518   4.338   1.232   3.635 -0.3047  0.1500 -0.5078
  315MOL0     H42519   4.381   1.325   3.862  0.2816  1.5832  1.0653
  315MOL0     H42520   4.399   1.491   3.784 -2.1570  0.8353 -0.3484
  315MOL0     H42521   4.572   1.266   3.682 -0.7468 -1.0570  0.6413
  315MOL0     H42522   4.601   1.341   3.838 -0.5503  0.0144  0.1114
  315MOL0     H42523   4.724   1.685   3.632  1.6966 -0.5654  1.2809
  315MOL0     H42524   3.920   1.399   3.735  0.9782  0.4390 -0.9057
  315MOL0     H42525   3.685   1.323   3.799  0.2323  1.1817 -0.9778
  316MOL0     O42526   8.028  10.234   3.356  0.6817 -0.0148  0.1329
  316MOL0     C42527   7.925  10.243   3.423 -0.7748 -0.2871  0.0520
  316MOL0     O42528   7.922  10.242   3.563 -0.3076 -0.3085  0.2013
  316MOL0     C42529   8.044  10.263   3.635  0.1894 -0.9670  0.4771
  316MOL0     C42530   8.123  10.379   3.619 -0.2059 -0.2215 -0.5784
  316MOL0     C42531   8.224  10.414   3.710  0.4823 -0.1151  0.5798
  316MOL0     C42532   8.265  10.327   3.808 -0.4342  0.5914  0.9509
  316MOL0     O42533   8.378  10.357   3.888  0.1776  0.1989 -1.1909
  316MOL0     C42534   8.483  10.258   3.894 -0.4344 -0.2733 -1.2094
  316MOL0     C42535   8.562  10.300   4.018 -0.2318 -0.4991 -0.7826
  316MOL0     C42536   8.645  10.428   3.976  0.2711 -0.0433  0.2090
  316MOL0     C42537   8.759  10.447   4.071 -0.1528  0.2337 -0.7252
  316MOL0     C42538   8.825  10.574   4.044 -0.1256 -0.8106  0.9798
  316MOL0     C42539   8.936  10.597   4.137  0.0541  0.1033 -0.0631
  316MOL0     C42540   9.007  10.732   4.132 -0.0675  0.2453 -0.2355
  316MOL0     C42541   8.941  10.869   4.138 -0.1618  0.0128  0.3995
  316MOL0     N42542   8.856  10.894   4.259  0.3956 -0.4632 -0.1272
  316MOL0     C42543   8.731  10.843   4.279 -0.0193  0.0839  0.2033
  316MOL0     C42544   8.702  10.861   4.413 -0.1852 -0.3777 -0.2343
  316MOL0     C42545   8.570  10.832   4.467 -0.4499 -0.7309 -0.1011
  316MOL0     C42546   8.564  10.690   4.530 -0.5386  0.0930  0.1304
  316MOL0     C42547   8.428  10.668   4.607  0.3772 -0.2137 -0.0484
  316MOL0     C42548   8.296  10.657   4.530 -0.5529 -0.1959  0.3403
  316MOL0     O42549   8.203  10.721   4.616 -0.2038 -0.2207  0.2425
  316MOL0     C42550   8.070  10.707   4.585  0.2958 -0.6484 -0.6067
  316MOL0     C42551   7.980  10.727   4.690 -0.3472  0.1260 -0.3713
  316MOL0     C42552   7.845  10.692   4.682  0.2272  0.8859 -0.3742
  316MOL0     C42553   7.756  10.686   4.804  0.2817  0.2698  0.1893
  316MOL0     C42554   7.797  10.661   4.554  0.6158 -0.4154 -0.2769
  316MOL0     C42555   7.658  10.624   4.530  0.2236 -0.0105 -0.0762
  316MOL0     O42556   7.583  10.706   4.452 -0.1812  0.4506  0.1374
  316MOL0     C42557   7.455  10.678   4.456 -0.1706 -0.2093 -0.6409
  316MOL0     C42558   7.387  10.657   4.336  0.3415 -0.2892 -0.0162
  316MOL0     C42559   7.247  10.626   4.333 -0.7828 -0.0296 -0.3575
  316MOL0     C42560   7.183  10.632   4.458 -0.5216 -0.5186  0.5448
  316MOL0     O42561   7.052  10.611   4.469  0.6610 -0.0706 -0.8279
  316MOL0     C42562   6.966  10.721   4.442  0.5141 -0.9020  0.3185
  316MOL0     C42563   6.834  10.682   4.377 -1.2717 -0.1122  0.9951
  316MOL0     C42564   6.768  10.796   4.291  0.3530  0.0340 -0.9112
  316MOL0     C42565   6.631  10.750   4.229 -0.2269  0.8272  0.4798
  316MOL0     C42566   6.538  10.862   4.181  0.0345  0.1149  0.4685
  316MOL0     C42567   6.414  10.800   4.122 -0.7245 -0.2618 -0.0535
  316MOL0     C42568   6.308  10.910   4.088 -0.8918 -0.6366  0.7820
  316MOL0     C42569   6.190  10.861   4.011 -0.2644 -0.1314 -0.7874
  316MOL0    Cl42570   6.096  10.777   4.125 -0.3350 -0.0038 -0.2234
  316MOL0     C42571   7.251  10.652   4.579  0.6705  0.4253  0.8666
  316MOL0     C42572   7.388  10.681   4.579  0.0127 -0.2617 -0.5178
  316MOL0     O42573   7.625  10.514   4.571 -0.0391  0.4861 -0.1068
  316MOL0     C42574   7.883  10.647   4.441 -0.3397 -0.2242 -0.0716
  316MOL0     C42575   8.021  10.670   4.459 -0.0360  0.0283  0.5309
  316MOL0     N42576   8.816  10.916   4.473 -0.4187  0.6434 -0.4805
  316MOL0     N42577   8.898  10.943   4.380 -0.2900  0.2394 -0.0942
  316MOL0     C42578   8.172  10.225   3.837  1.0144 -0.2403  0.5189
  316MOL0     C42579   8.073  10.188   3.746 -0.6389  0.7358  0.4665
  316MOL0     C42580   7.797  10.224   3.357 -0.6812 -0.7367  0.6839
  316MOL0     C42581   7.793  10.213   3.220  0.4503 -0.1377  0.2674
  316MOL0     C42582   7.666  10.183   3.163  0.3367 -0.0538  0.5757
  316MOL0     C42583   7.557  10.164   3.243 -1.1518 -0.5713  0.3071
  316MOL0     O42584   7.445  10.108   3.187  0.0096 -0.3557 -0.2097
  316MOL0     C42585   7.372  10.204   3.111 -1.1053 -0.2799 -0.3304
  316MOL0     C42586   7.288  10.290   3.202  0.8143  0.8887  0.4064
  316MOL0     C42587   7.203  10.203   3.300 -0.3426 -0.8743 -0.5903
  316MOL0     C42588   7.107  10.302   3.369 -0.4503 -0.2240 -0.6539
  316MOL0     C42589   6.996  10.232   3.452  0.4891  0.0838 -0.3696
  316MOL0     C42590   6.914  10.179   3.524  0.1252 -0.5476  0.7044
  316MOL0     C42591   7.557  10.184   3.384  0.6776  0.3993 -0.3569
  316MOL0     C42592   7.681  10.221   3.442 -0.1920 -0.1736  0.9919
  316MOL0     H42593   8.098  10.437   3.530  1.9713 -0.4720 -1.4102
  316MOL0     H42594   8.283  10.503   3.693 -0.6918  0.4693 -0.5040
  316MOL0     H42595   8.434  10.167   3.931  0.8833  0.4323  2.8535
  316MOL0     H42596   8.533  10.247   3.798  0.1260 -3.5659 -0.6716
  316MOL0     H42597   8.486  10.318   4.094  2.5704 -2.9708  2.9822
  316MOL0     H42598   8.616  10.219   4.068 -3.4516 -1.8148  0.8760
  316MOL0     H42599   8.682  10.407   3.876  1.9586 -1.3173  1.0462
  316MOL0     H42600   8.590  10.522   3.981 -0.3055 -0.4286  3.2840
  316MOL0     H42601   8.715  10.449   4.171 -0.5082  0.9447 -0.8861
  316MOL0     H42602   8.828  10.362   4.071  0.8632  1.0329 -0.5532
  316MOL0     H42603   8.871  10.568   3.945  1.0882  3.4444  1.0798
  316MOL0     H42604   8.765  10.666   4.036  3.3365  1.6287  0.5047
  316MOL0     H42605   8.896  10.590   4.239 -0.6325 -2.3562 -0.4367
  316MOL0     H42606   9.013  10.521   4.120 -0.3443  0.0026 -1.4462
  316MOL0     H42607   9.068  10.737   4.222 -0.3684  5.5640  0.0306
  316MOL0     H42608   9.075  10.729   4.046  0.1276  0.4315 -0.0908
  316MOL0     H42609   8.887  10.886   4.044  0.8896  0.3342 -0.1709
  316MOL0     H42610   9.024  10.939   4.124 -0.4741  0.0560 -1.5821
  316MOL0     H42611   8.669  10.804   4.199  2.2599 -0.0395 -1.6248
  316MOL0     H42612   8.545  10.902   4.548 -4.1952 -0.9616 -0.9039
  316MOL0     H42613   8.507  10.835   4.378  0.1051  1.8077 -0.4991
  316MOL0     H42614   8.651  10.666   4.591 -1.0033  0.6586  1.0419
  316MOL0     H42615   8.571  10.620   4.446  0.9621  2.9502 -2.3501
  316MOL0     H42616   8.426  10.753   4.675  1.0684  1.2669 -1.7891
  316MOL0     H42617   8.432  10.576   4.666 -0.9941  1.3957  2.7496
  316MOL0     H42618   8.278  10.553   4.501 -1.2425  0.3035 -1.1384
  316MOL0     H42619   8.311  10.711   4.436 -0.9267 -2.0301 -0.8055
  316MOL0     H42620   8.027  10.734   4.787  0.1962 -0.4235 -0.5808
  316MOL0     H42621   7.732  10.779   4.857  1.4563 -0.2063  1.6392
  316MOL0     H42622   7.663  10.634   4.778  0.0027  0.0393  1.5513
  316MOL0     H42623   7.815  10.638   4.883 -0.9478  0.9750  1.5990
  316MOL0     H42624   7.451  10.673   4.250  0.6296 -0.8109  0.0974
  316MOL0     H42625   7.190  10.590   4.248  1.2651 -2.8220 -0.6570
  316MOL0     H42626   6.937  10.778   4.530 -2.6192 -0.9899 -0.5536
  316MOL0     H42627   7.024  10.792   4.382 -1.1929  0.1743 -0.1073
  316MOL0     H42628   6.847  10.595   4.312  0.9613  1.2716 -0.5338
  316MOL0     H42629   6.772  10.650   4.462 -0.0937 -1.9724  1.2124
  316MOL0     H42630   6.851  10.828   4.227 -0.7569 -0.4710 -2.6675
  316MOL0     H42631   6.747  10.870   4.369  5.0067 -2.5712  3.4346
  316MOL0     H42632   6.650  10.672   4.154  0.0150 -0.4409  1.8186
  316MOL0     H42633   6.583  10.695   4.310  4.5829 -3.8879  0.6772
  316MOL0     H42634   6.586  10.931   4.111  0.3628  1.4105  1.9172
  316MOL0     H42635   6.512  10.926   4.266 -2.0890  0.9293 -0.7006
  316MOL0     H42636   6.441  10.746   4.030  2.5029  0.8565  0.1398
  316MOL0     H42637   6.372  10.730   4.194 -0.0226 -2.4440 -1.6331
  316MOL0     H42638   6.361  10.981   4.024 -0.0576 -2.7743 -1.0017
  316MOL0     H42639   6.281  10.978   4.170 -0.8393 -0.1316  0.3853
  316MOL0     H42640   6.219  10.795   3.929  0.9152  1.9183 -2.1015
  316MOL0     H42641   6.142  10.953   3.976  3.1316  1.4789 -1.6463
  316MOL0     H42642   7.186  10.662   4.666 -1.7813  1.0183 -0.9379
  316MOL0     H42643   7.431  10.710   4.674 -1.0300 -1.1929  0.2631
  316MOL0     H42644   7.839  10.617   4.347 -1.6144 -2.4370  1.1494
  316MOL0     H42645   8.088  10.656   4.375 -3.2123  2.5453 -2.7514
  316MOL0     H42646   8.186  10.164   3.925 -1.2301  0.2036  1.2548
  316MOL0     H42647   8.004  10.108   3.772  0.2301  0.6037  2.6076
  316MOL0     H42648   7.871  10.221   3.146 -0.5094 -0.0950 -0.7632
  316MOL0     H42649   7.653  10.156   3.058 -0.1826 -1.4688  0.9683
  316MOL0     H42650   7.436  10.269   3.050  0.4280 -1.3163  0.1356
  316MOL0     H42651   7.308  10.153   3.038 -1.4747 -0.9733  0.4780
  316MOL0     H42652   7.218  10.339   3.134 -3.1838 -0.9750  2.7920
  316MOL0     H42653   7.349  10.361   3.258 -1.0340  2.2841  0.7588
  316MOL0     H42654   7.252  10.161   3.389  0.2544 -1.4308 -1.1751
  316MOL0     H42655   7.156  10.121   3.246 -1.5381  0.0594 -0.9916
  316MOL0     H42656   7.060  10.360   3.288  2.6257  0.8562 -1.8270
  316MOL0     H42657   7.156  10.375   3.433 -0.2338 -0.3571 -0.6668
  316MOL0     H42658   6.840  10.120   3.574 -1.4910 -0.6854 -1.7079
  316MOL0     H42659   7.467  10.177   3.443  0.4926 -0.2864 -0.7180
  316MOL0     H42660   7.694  10.230   3.550  1.3190 -1.0389  0.9129
  317MOL0     O42661   6.460  10.596   6.410 -0.3818  0.1491 -0.1090
  317MOL0     C42662   6.480  10.580   6.529  0.1962  0.2765 -0.7084
  317MOL0     O42663   6.598  10.555   6.592 -0.4534 -0.4140  0.3176
  317MOL0     C42664   6.710  10.543   6.516 -0.3079  0.6843 -0.7784
  317MOL0     C42665   6.708  10.451   6.407 -0.4282 -0.2865  0.3970
  317MOL0     C42666   6.827  10.439   6.332  0.5424  0.6719 -0.6503
  317MOL0     C42667   6.940  10.511   6.365 -0.5392  0.5176 -0.1890
  317MOL0     O42668   7.055  10.489   6.291 -0.4235 -0.5507 -1.1354
  317MOL0     C42669   7.071  10.389   6.193 -0.3684  0.2908 -0.0510
  317MOL0     C42670   7.094  10.251   6.252 -0.1081 -0.3529  0.6414
  317MOL0     C42671   7.175  10.165   6.145 -0.0981  0.4467 -0.3529
  317MOL0     C42672   7.124  10.181   5.997 -0.5301  0.1029  0.1403
  317MOL0     C42673   7.198  10.094   5.901 -0.7640 -0.4668  0.8471
  317MOL0     C42674   7.159  10.127   5.756 -0.1891  0.5023 -0.5873
  317MOL0     C42675   7.264  10.080   5.665 -0.4255  0.3672 -0.1528
  317MOL0     C42676   7.242   9.934   5.624 -0.1077 -0.8010  0.1855
  317MOL0     N42677   7.138   9.915   5.521 -0.7162 -0.1868  0.2264
  317MOL0     C42678   7.172   9.941   5.384  0.0285  0.4602  1.0241
  317MOL0     C42679   7.040   9.940   5.319 -0.1761 -1.3383 -0.2620
  317MOL0     C42680   7.015   9.951   5.172  0.1163 -0.2086  0.6148
  317MOL0     C42681   7.124   9.870   5.090 -0.4513 -0.3628 -1.2394
  317MOL0     C42682   7.113   9.719   5.122  0.7991 -0.8820 -0.9428
  317MOL0     C42683   6.995   9.635   5.063 -0.2781 -0.4993 -0.0670
  317MOL0     O42684   7.015   9.494   5.048 -0.2751 -0.6826  0.1391
  317MOL0     C42685   6.910   9.426   4.987 -1.0579  0.1162  0.5629
  317MOL0     C42686   6.930   9.287   4.976 -0.6183  0.1418 -0.0505
  317MOL0     C42687   6.840   9.210   4.909 -0.4320  0.7267 -0.2272
  317MOL0     C42688   6.870   9.062   4.888 -0.8159 -0.4166 -0.0726
  317MOL0     C42689   6.726   9.273   4.850 -0.0525  1.0716  0.2197
  317MOL0     C42690   6.629   9.208   4.776  0.2028  0.8359  0.3482
  317MOL0     O42691   6.501   9.273   4.778  0.4928  0.0079  0.0002
  317MOL0     C42692   6.388   9.210   4.739 -0.4335  0.8600  0.3920
  317MOL0     C42693   6.291   9.284   4.675  0.4993 -0.7953 -0.2246
  317MOL0     C42694   6.174   9.219   4.635 -0.6760 -0.6651 -0.2794
  317MOL0     C42695   6.155   9.085   4.681  0.1944 -0.8890  0.5093
  317MOL0     O42696   6.039   9.025   4.639 -0.0121 -0.5005 -0.0069
  317MOL0     C42697   5.985   8.899   4.689  0.2075  0.5205  0.2831
  317MOL0     C42698   5.950   8.919   4.840 -0.1609 -0.3159 -0.8164
  317MOL0     C42699   5.807   8.984   4.860  0.0974 -0.1510 -0.1794
  317MOL0     C42700   5.778   8.976   5.015  0.9529 -0.3520 -0.2013
  317MOL0     C42701   5.674   9.084   5.063 -0.7024  0.0403  0.1579
  317MOL0     C42702   5.531   9.053   5.006  0.8635 -0.6864 -0.6772
  317MOL0     C42703   5.421   9.144   5.063 -0.5661  0.0397  1.6979
  317MOL0     C42704   5.455   9.289   5.030 -0.5830  0.8358  0.3159
  317MOL0    Cl42705   5.319   9.375   4.965  0.5359 -0.1144  0.2274
  317MOL0     C42706   6.249   9.015   4.747 -0.0031 -1.1242 -0.4380
  317MOL0     C42707   6.377   9.074   4.766  0.2504  0.8483 -0.1694
  317MOL0     O42708   6.662   9.112   4.699  0.0443 -0.5164 -0.7576
  317MOL0     C42709   6.705   9.412   4.864 -0.0316 -0.3947 -0.1638
  317MOL0     C42710   6.796   9.486   4.937  0.4818  0.6143 -0.0979
  317MOL0     N42711   6.939   9.911   5.412 -0.7146 -0.0998 -0.6895
  317MOL0     N42712   6.998   9.904   5.531 -0.4306  0.8893 -0.2198
  317MOL0     C42713   6.939  10.613   6.469 -0.2520  0.0962 -1.0246
  317MOL0     C42714   6.825  10.622   6.547 -0.1859  0.0098  1.4285
  317MOL0     C42715   6.356  10.582   6.611 -1.0502  0.8927 -0.4504
  317MOL0     C42716   6.231  10.620   6.561  0.1412 -0.4852  0.3623
  317MOL0     C42717   6.115  10.630   6.637  0.1982 -0.1715  1.0790
  317MOL0     C42718   6.120  10.603   6.772  0.3762  0.4696 -0.5663
  317MOL0     O42719   6.002  10.633   6.844 -0.3741  0.1511  0.0492
  317MOL0     C42720   6.016  10.689   6.971  0.7413 -0.9042 -0.7503
  317MOL0     C42721   5.999  10.595   7.096  0.5955 -0.8182  0.3985
  317MOL0     C42722   6.044  10.662   7.223 -0.2905 -0.8357 -0.0881
  317MOL0     C42723   6.133  10.576   7.309 -0.0555 -0.7533 -0.1664
  317MOL0     C42724   6.072  10.449   7.362  0.0457  1.1101 -0.1882
  317MOL0     C42725   6.035  10.342   7.405  0.7551  0.6282 -0.0186
  317MOL0     C42726   6.241  10.567   6.831 -0.0676  0.5878  0.2619
  317MOL0     C42727   6.353  10.543   6.749  0.3701 -0.4433  0.0820
  317MOL0     H42728   6.623  10.395   6.370 -0.0668  0.4040 -1.6320
  317MOL0     H42729   6.820  10.354   6.264  2.0932  0.0218 -0.0437
  317MOL0     H42730   7.008  10.404   6.105  0.1933 -1.1510 -0.7370
  317MOL0     H42731   7.169  10.424   6.158 -0.2620 -0.6247 -0.7041
  317MOL0     H42732   7.154  10.267   6.343  0.3356  0.5777  0.1947
  317MOL0     H42733   6.997  10.213   6.283  0.5673 -1.9138  0.9449
  317MOL0     H42734   7.281  10.192   6.145  1.0883 -3.5421 -0.2201
  317MOL0     H42735   7.177  10.060   6.175 -0.1402  1.0310  1.9252
  317MOL0     H42736   7.014  10.177   5.999 -0.8295  4.1693  0.3417
  317MOL0     H42737   7.155  10.281   5.965  2.6666 -1.2613 -1.4578
  317MOL0     H42738   7.304  10.118   5.917 -0.8211  1.1523 -0.8753
  317MOL0     H42739   7.177   9.987   5.913 -6.4061  0.4596  2.1264
  317MOL0     H42740   7.057  10.096   5.733  0.0705 -1.4035  0.6350
  317MOL0     H42741   7.156  10.236   5.747 -1.6723  0.6012  0.6466
  317MOL0     H42742   7.247  10.141   5.575 -0.8597  0.9303  0.3055
  317MOL0     H42743   7.368  10.096   5.693 -0.6630 -0.8363  1.5370
  317MOL0     H42744   7.214   9.885   5.718 -1.7840 -2.6300 -1.1831
  317MOL0     H42745   7.329   9.879   5.586 -0.1868 -2.8447  2.6623
  317MOL0     H42746   7.273   9.960   5.349  0.6694 -1.6951  1.5560
  317MOL0     H42747   6.921   9.908   5.135  0.3285  1.0594 -1.5802
  317MOL0     H42748   7.019  10.054   5.135  0.7302 -1.0783 -1.9031
  317MOL0     H42749   7.224   9.911   5.108  0.9909 -3.9262 -0.1574
  317MOL0     H42750   7.109   9.889   4.984  0.0652 -0.5219 -1.3428
  317MOL0     H42751   7.131   9.700   5.228  0.2604  1.5808 -0.3352
  317MOL0     H42752   7.207   9.689   5.075  2.1023 -1.3730  1.7760
  317MOL0     H42753   6.972   9.688   4.970  1.1332 -2.0729 -1.3917
  317MOL0     H42754   6.908   9.659   5.125 -0.8740  0.6140 -1.2885
  317MOL0     H42755   7.016   9.241   5.024 -1.7257 -0.9188  0.9675
  317MOL0     H42756   6.926   9.057   4.794 -2.8972  2.1263 -1.6015
  317MOL0     H42757   6.935   9.021   4.966 -1.9232 -0.4953  0.8374
  317MOL0     H42758   6.786   8.991   4.886  1.4321 -3.3285  0.9882
  317MOL0     H42759   6.307   9.391   4.665 -2.6889  0.1278  2.6267
  317MOL0     H42760   6.097   9.269   4.577  1.1243  2.2190 -0.3829
  317MOL0     H42761   5.901   8.871   4.625  0.7263  1.5503 -0.8895
  317MOL0     H42762   6.064   8.825   4.679 -0.5082 -0.3065  0.6192
  317MOL0     H42763   5.951   8.819   4.884 -1.2148 -0.0109 -0.0530
  317MOL0     H42764   6.024   8.979   4.893  0.3118  1.6182 -3.4138
  317MOL0     H42765   5.736   8.924   4.803  0.2927  1.2662 -2.0231
  317MOL0     H42766   5.815   9.088   4.827  2.3491 -0.9042 -2.2775
  317MOL0     H42767   5.748   8.873   5.038 -0.1545 -0.5673 -2.3212
  317MOL0     H42768   5.873   8.994   5.066  1.0553  1.8268 -1.0843
  317MOL0     H42769   5.715   9.182   5.035 -1.0526  0.5842  1.4768
  317MOL0     H42770   5.668   9.073   5.172  0.4433  1.8721  0.4472
  317MOL0     H42771   5.524   9.049   4.897  0.2447 -0.2473 -0.6573
  317MOL0     H42772   5.505   8.953   5.044  1.9671 -0.3501  1.1192
  317MOL0     H42773   5.418   9.119   5.169  1.0316  3.3112  2.6480
  317MOL0     H42774   5.328   9.103   5.021 -0.0038  0.2899  0.1454
  317MOL0     H42775   5.529   9.283   4.950 -0.3714 -0.1853  0.5783
  317MOL0     H42776   5.497   9.332   5.121  0.8124  1.2274 -0.4927
  317MOL0     H42777   6.242   8.910   4.776  0.4201 -1.6044 -1.9574
  317MOL0     H42778   6.457   9.019   4.815  0.9359 -0.1243 -2.2696
  317MOL0     H42779   6.616   9.460   4.823  0.5197 -0.0721 -1.0024
  317MOL0     H42780   6.780   9.593   4.947 -0.1708  0.5664 -0.5804
  317MOL0     H42781   7.018  10.682   6.498 -0.8022 -0.7385  3.1261
  317MOL0     H42782   6.827  10.704   6.617  1.2797 -0.0257  1.4600
  317MOL0     H42783   6.223  10.640   6.455 -0.9601  0.0975  0.5300
  317MOL0     H42784   6.024  10.666   6.589 -1.5963 -1.4278  3.3178
  317MOL0     H42785   6.114  10.738   6.965  1.4823 -2.5023 -4.7198
  317MOL0     H42786   5.940  10.767   6.978  2.1984  0.8303 -2.7685
  317MOL0     H42787   6.060  10.508   7.073  0.4822 -1.0988  1.1615
  317MOL0     H42788   5.896  10.560   7.108  0.8180 -1.1709  1.3637
  317MOL0     H42789   5.960  10.703   7.280  0.2688  2.2834 -1.2563
  317MOL0     H42790   6.104  10.748   7.191 -2.4225  2.3342  3.5371
  317MOL0     H42791   6.162  10.639   7.393  1.2661  1.3740 -2.0769
  317MOL0     H42792   6.224  10.548   7.254  1.8264  2.0167  1.3185
  317MOL0     H42793   5.988  10.260   7.457 -0.2659 -1.7794 -4.2652
  317MOL0     H42794   6.254  10.560   6.939  2.3463 -1.5765 -0.1033
  317MOL0     H42795   6.442  10.515   6.805  0.3901 -2.5989 -0.9280
  318MOL0     O42796   5.133   6.134   6.478 -0.1198 -0.4948 -0.3304
  318MOL0     C42797   5.217   6.224   6.463  0.0208 -0.1132 -0.0594
  318MOL0     O42798   5.195   6.347   6.408  0.2152  0.6702  0.4671
  318MOL0     C42799   5.064   6.382   6.351 -0.3930  0.0453 -0.9769
  318MOL0     C42800   4.991   6.287   6.275  0.2263  0.0227  0.0699
  318MOL0     C42801   4.881   6.340   6.197 -0.0991  0.1766  0.6709
  318MOL0     C42802   4.862   6.485   6.173 -0.6237 -0.1206 -0.0877
  318MOL0     O42803   4.782   6.519   6.072  0.2577 -0.4869 -0.2595
  318MOL0     C42804   4.796   6.649   6.004  0.8660  0.2124 -0.6255
  318MOL0     C42805   4.716   6.638   5.871 -0.3236  1.5598 -0.9773
  318MOL0     C42806   4.563   6.647   5.902  0.5284 -0.9463  0.3670
  318MOL0     C42807   4.469   6.660   5.774  0.2862  0.5575  0.7497
  318MOL0     C42808   4.324   6.639   5.813 -0.5131  0.1207 -0.6241
  318MOL0     C42809   4.272   6.755   5.901 -0.3671  0.0323  0.5697
  318MOL0     C42810   4.135   6.716   5.959 -0.0219 -0.1216 -0.1396
  318MOL0     C42811   4.080   6.821   6.055 -0.6964  1.0351 -0.5085
  318MOL0     N42812   3.930   6.816   6.060  0.9516  0.1739 -0.5081
  318MOL0     C42813   3.851   6.708   6.090 -0.2093 -0.7611  0.2338
  318MOL0     C42814   3.732   6.748   6.127 -1.0490 -0.2445  0.2338
  318MOL0     C42815   3.639   6.662   6.203 -0.3565 -0.7712  0.9677
  318MOL0     C42816   3.504   6.672   6.138 -0.3997 -0.2276 -0.4489
  318MOL0     C42817   3.498   6.636   5.994  0.9908 -0.5539 -0.3338
  318MOL0     C42818   3.347   6.627   5.962  0.5228 -0.6955  0.0298
  318MOL0     O42819   3.335   6.556   5.838 -0.7078 -0.2420 -0.2148
  318MOL0     C42820   3.214   6.517   5.788 -0.1131  0.7327 -0.6354
  318MOL0     C42821   3.091   6.542   5.846  0.2723  0.6704 -1.0618
  318MOL0     C42822   2.967   6.506   5.786 -0.1857 -0.2248 -0.0981
  318MOL0     C42823   2.848   6.560   5.868 -0.9889  0.1733  0.6962
  318MOL0     C42824   2.976   6.427   5.674 -0.1067 -0.0730  0.1193
  318MOL0     C42825   2.849   6.384   5.608  0.4117 -0.1665  0.9923
  318MOL0     O42826   2.724   6.406   5.669  0.4767  0.3426 -0.6101
  318MOL0     C42827   2.608   6.348   5.622  0.5566 -0.2313  0.5715
  318MOL0     C42828   2.501   6.431   5.622 -0.3857  0.0117 -0.0845
  318MOL0     C42829   2.370   6.392   5.581  0.2928  0.0619 -0.5755
  318MOL0     C42830   2.348   6.261   5.535  0.1313  0.1530  0.4330
  318MOL0     O42831   2.229   6.230   5.477 -0.1581 -0.7340  0.0898
  318MOL0     C42832   2.188   6.094   5.460 -0.7196  0.5811  0.1955
  318MOL0     C42833   2.044   6.120   5.405  0.2090 -0.8421 -0.1151
  318MOL0     C42834   1.950   6.004   5.397  0.2799  0.5443  0.2555
  318MOL0     C42835   1.829   6.024   5.301 -0.2662  0.3586  1.2191
  318MOL0     C42836   1.754   6.151   5.342 -0.1404 -0.0853 -0.5343
  318MOL0     C42837   1.646   6.181   5.245 -0.7002  0.9599 -0.1691
  318MOL0     C42838   1.550   6.299   5.287 -0.0110 -0.1308  0.0442
  318MOL0     C42839   1.455   6.311   5.168  0.1407 -0.3582  0.4152
  318MOL0    Cl42840   1.344   6.452   5.185 -0.0246 -0.0524  0.2104
  318MOL0     C42841   2.464   6.184   5.531 -0.3124 -0.5606 -0.6169
  318MOL0     C42842   2.589   6.218   5.567 -0.7610  0.6635  1.4198
  318MOL0     O42843   2.861   6.345   5.493  0.8482 -0.5610 -0.7189
  318MOL0     C42844   3.106   6.386   5.624 -0.3615 -1.3154  0.0436
  318MOL0     C42845   3.220   6.432   5.676 -0.3574 -0.2137  0.5809
  318MOL0     N42846   3.724   6.882   6.116  0.1203  0.2824 -0.0636
  318MOL0     N42847   3.842   6.921   6.082 -0.0132  0.1466  0.0297
  318MOL0     C42848   4.934   6.566   6.249 -1.0493  0.3470  0.9445
  318MOL0     C42849   5.038   6.524   6.338 -0.2079  0.1987  0.2809
  318MOL0     C42850   5.347   6.197   6.522  0.5542 -0.0052 -0.3250
  318MOL0     C42851   5.370   6.069   6.575  0.0875  0.0672 -0.0362
  318MOL0     C42852   5.502   6.030   6.605 -0.7038  0.1076  0.8454
  318MOL0     C42853   5.609   6.125   6.599 -0.3187 -0.1042 -0.4363
  318MOL0     O42854   5.744   6.105   6.633 -0.1269  0.3671  0.2551
  318MOL0     C42855   5.791   5.975   6.642 -0.6298  0.0556 -0.2977
  318MOL0     C42856   5.947   5.975   6.680  0.0456  0.1960 -0.4695
  318MOL0     C42857   5.979   6.033   6.821  0.0556 -0.1796  0.3396
  318MOL0     C42858   6.115   6.027   6.877 -0.3232 -0.8888 -0.0370
  318MOL0     C42859   6.216   6.029   6.767 -0.1137 -0.5345 -1.0286
  318MOL0     C42860   6.290   6.015   6.675  0.2821 -0.1283  0.5707
  318MOL0     C42861   5.575   6.253   6.563 -0.0643 -0.4152 -0.5181
  318MOL0     C42862   5.450   6.288   6.521 -0.3846  0.1828  1.1020
  318MOL0     H42863   5.039   6.190   6.267  2.0187  1.0173 -2.4881
  318MOL0     H42864   4.811   6.275   6.146 -2.3380  2.6089  0.3921
  318MOL0     H42865   4.771   6.736   6.066 -1.6446  0.7562 -2.2555
  318MOL0     H42866   4.902   6.646   5.978  1.3365  0.0390  1.1581
  318MOL0     H42867   4.746   6.717   5.802 -0.1046  0.8424 -1.7092
  318MOL0     H42868   4.735   6.543   5.820 -2.9101 -0.6775  1.8269
  318MOL0     H42869   4.528   6.569   5.970 -0.1443  0.2382  1.4421
  318MOL0     H42870   4.552   6.742   5.956  1.4598  0.1422 -1.2622
  318MOL0     H42871   4.477   6.760   5.731  0.4151 -0.2726 -1.2887
  318MOL0     H42872   4.492   6.594   5.689 -1.4565 -0.0667  0.7232
  318MOL0     H42873   4.247   6.634   5.735 -0.2348 -0.8192 -0.8591
  318MOL0     H42874   4.312   6.545   5.867 -3.4639  0.2002 -0.9259
  318MOL0     H42875   4.333   6.773   5.991 -1.2828  3.8964  0.5972
  318MOL0     H42876   4.280   6.847   5.842  1.1047 -1.0706 -1.0599
  318MOL0     H42877   4.067   6.697   5.875  1.7319 -0.5643 -1.5286
  318MOL0     H42878   4.143   6.624   6.017  2.2025  0.3055  0.3198
  318MOL0     H42879   4.103   6.922   6.021 -1.3848  0.7152 -2.0341
  318MOL0     H42880   4.124   6.797   6.152  0.1780  0.8362 -0.9460
  318MOL0     H42881   3.888   6.607   6.104  0.9362 -0.4361 -0.2982
  318MOL0     H42882   3.681   6.561   6.202  0.5528 -0.4107 -0.7121
  318MOL0     H42883   3.638   6.690   6.308 -3.1143 -2.3394  1.4678
  318MOL0     H42884   3.478   6.777   6.148  0.4190 -0.0563 -0.0798
  318MOL0     H42885   3.441   6.607   6.199  0.7151 -2.6980 -1.7702
  318MOL0     H42886   3.546   6.538   5.984  3.5163  0.8140 -3.3314
  318MOL0     H42887   3.553   6.707   5.931  2.1361  0.6938  1.9196
  318MOL0     H42888   3.314   6.731   5.953  2.5116 -0.0489 -0.2526
  318MOL0     H42889   3.284   6.582   6.040 -0.5413  0.3911 -0.1672
  318MOL0     H42890   3.096   6.613   5.928 -1.1702 -1.2306  0.7967
  318MOL0     H42891   2.792   6.481   5.920  0.2977 -0.1792  1.5906
  318MOL0     H42892   2.887   6.631   5.942  0.6429  0.7858 -0.6761
  318MOL0     H42893   2.775   6.607   5.801 -0.6192  2.2567  1.6515
  318MOL0     H42894   2.522   6.528   5.667 -3.4174  1.2765 -1.1657
  318MOL0     H42895   2.287   6.461   5.590  1.5279  1.5574 -0.1996
  318MOL0     H42896   2.255   6.045   5.389 -2.5563 -2.6184  0.4824
  318MOL0     H42897   2.183   6.046   5.559  0.4846 -1.6295 -0.7483
  318MOL0     H42898   1.997   6.192   5.473 -0.9089  1.9476 -3.4756
  318MOL0     H42899   2.045   6.163   5.304  0.6905 -1.8912 -0.5673
  318MOL0     H42900   1.910   5.996   5.499  0.8789  1.4161  0.5755
  318MOL0     H42901   1.994   5.908   5.368 -3.3265 -2.2735  3.1288
  318MOL0     H42902   1.870   6.030   5.200  0.9076 -1.6225  1.5334
  318MOL0     H42903   1.765   5.936   5.296 -1.6713  1.4268 -1.8317
  318MOL0     H42904   1.815   6.240   5.360  1.9172 -0.8630 -3.0887
  318MOL0     H42905   1.697   6.132   5.433 -0.3493  0.4211 -0.5546
  318MOL0     H42906   1.690   6.200   5.147  1.2637  0.5978  0.5917
  318MOL0     H42907   1.597   6.086   5.220  0.0267  0.0230  1.7073
  318MOL0     H42908   1.619   6.384   5.290  2.8056 -2.2515 -1.1185
  318MOL0     H42909   1.512   6.285   5.389 -0.1318 -0.6850 -0.0763
  318MOL0     H42910   1.392   6.221   5.163 -2.6521  1.3142  2.3476
  318MOL0     H42911   1.510   6.323   5.075 -2.2642 -2.0003 -1.3549
  318MOL0     H42912   2.466   6.078   5.509  0.0094 -0.6527 -0.1804
  318MOL0     H42913   2.657   6.134   5.568 -2.9447 -1.2187  0.4222
  318MOL0     H42914   3.098   6.324   5.535 -3.6897  1.3490 -1.7815
  318MOL0     H42915   3.320   6.411   5.640 -0.0172  1.3334  0.5452
  318MOL0     H42916   4.906   6.670   6.255 -0.4271  0.4323  2.8760
  318MOL0     H42917   5.099   6.601   6.384 -0.3309  1.2575 -1.2523
  318MOL0     H42918   5.287   6.000   6.575  1.0990 -1.3087 -2.3582
  318MOL0     H42919   5.520   5.932   6.647 -2.8045  0.0519  1.7169
  318MOL0     H42920   5.736   5.941   6.730 -0.0970 -1.0429 -0.3788
  318MOL0     H42921   5.780   5.922   6.547 -1.9229  1.3769 -0.9457
  318MOL0     H42922   6.005   6.026   6.603 -0.2826  1.6885  0.2296
  318MOL0     H42923   5.980   5.871   6.679 -0.7718 -0.0893  0.5225
  318MOL0     H42924   5.917   5.973   6.887  2.6638 -1.4617  1.7871
  318MOL0     H42925   5.944   6.137   6.826 -1.0615 -0.3626 -2.0381
  318MOL0     H42926   6.141   5.942   6.941  4.1931  0.4307  0.2249
  318MOL0     H42927   6.123   6.116   6.940  0.3403 -0.1232 -1.1635
  318MOL0     H42928   6.351   5.982   6.593 -1.1469  2.6697 -1.7716
  318MOL0     H42929   5.650   6.331   6.557 -3.1806  2.8289 -1.7264
  318MOL0     H42930   5.429   6.390   6.491  1.7098  0.0383 -1.0896
  319MOL0     O42931  11.296   8.226   4.215  0.3445  0.0926  0.4496
  319MOL0     C42932  11.339   8.110   4.186 -0.1729 -0.1527 -1.0490
  319MOL0     O42933  11.280   7.988   4.217  0.3696  0.4453 -0.0894
  319MOL0     C42934  11.164   7.957   4.285  0.3475 -1.4828  0.0053
  319MOL0     C42935  11.089   8.049   4.364  0.1028 -0.1916 -0.2664
  319MOL0     C42936  10.959   8.017   4.403  0.4625  0.1762  0.3845
  319MOL0     C42937  10.908   7.889   4.388 -0.1135 -0.4446  0.8059
  319MOL0     O42938  10.787   7.861   4.449 -0.3523  0.9600  0.1072
  319MOL0     C42939  10.710   7.744   4.407 -0.5417  0.0966  1.2770
  319MOL0     C42940  10.760   7.617   4.471 -0.2889 -0.3203  0.5528
  319MOL0     C42941  10.700   7.584   4.604  0.0448 -0.4306  0.6849
  319MOL0     C42942  10.544   7.574   4.612 -0.3762  0.3048 -0.3765
  319MOL0     C42943  10.474   7.438   4.570  1.2782  0.7041  0.2697
  319MOL0     C42944  10.328   7.430   4.606 -1.0368 -0.4081 -0.2874
  319MOL0     C42945  10.237   7.533   4.542  0.2015  0.9141 -0.4804
  319MOL0     C42946  10.172   7.625   4.652  0.4238 -0.2171 -0.9328
  319MOL0     N42947  10.070   7.550   4.726  0.1987  0.0987 -0.8130
  319MOL0     C42948   9.957   7.484   4.673 -0.4021 -0.4555 -0.4221
  319MOL0     C42949   9.903   7.419   4.778 -0.6487 -0.2164  0.0873
  319MOL0     C42950   9.779   7.337   4.786 -0.3205  0.8932 -0.1392
  319MOL0     C42951   9.664   7.403   4.863  0.0078  0.1243  0.1497
  319MOL0     C42952   9.636   7.539   4.801 -0.3478  0.7456 -0.6561
  319MOL0     C42953   9.480   7.576   4.796 -0.1434  0.2800  0.5397
  319MOL0     O42954   9.420   7.598   4.915 -1.2201 -0.1700 -0.9081
  319MOL0     C42955   9.285   7.632   4.919 -0.3012 -0.5115  0.2445
  319MOL0     C42956   9.208   7.669   4.806 -0.8259 -0.4302  0.0508
  319MOL0     C42957   9.076   7.706   4.807  0.5628 -0.5972  0.2771
  319MOL0     C42958   9.011   7.736   4.679 -0.0085  0.0559  0.7534
  319MOL0     C42959   9.007   7.690   4.934 -0.2359  0.0544 -0.4138
  319MOL0     C42960   8.867   7.717   4.952 -0.0955 -0.3173  0.6450
  319MOL0     O42961   8.818   7.704   5.086  0.4354  0.2928 -0.0230
  319MOL0     C42962   8.685   7.723   5.112  0.1073  0.0874 -0.2187
  319MOL0     C42963   8.583   7.658   5.036 -0.2240 -0.6985  0.1171
  319MOL0     C42964   8.456   7.694   5.077  0.2884  0.1907  0.4043
  319MOL0     C42965   8.423   7.783   5.180 -0.4733 -0.3822 -0.4945
  319MOL0     O42966   8.289   7.806   5.210 -0.2414 -0.2654  0.7142
  319MOL0     C42967   8.259   7.934   5.277 -0.7633  0.5490  0.2434
  319MOL0     C42968   8.107   7.967   5.281  0.1047 -0.2330  0.0239
  319MOL0     C42969   8.049   8.084   5.355 -0.3735  0.1073 -0.0799
  319MOL0     C42970   7.901   8.094   5.304  0.5900 -0.0491  0.5728
  319MOL0     C42971   7.810   8.187   5.378 -0.7180 -0.5293 -0.1740
  319MOL0     C42972   7.659   8.172   5.336  0.2361 -0.2566 -0.2762
  319MOL0     C42973   7.569   8.257   5.437 -0.3441  0.6187 -0.1220
  319MOL0     C42974   7.416   8.245   5.410  0.6676  0.2642 -0.1560
  319MOL0    Cl42975   7.332   8.087   5.433 -0.5401 -0.1256  0.6433
  319MOL0     C42976   8.521   7.843   5.250  0.5652 -0.3702 -0.1946
  319MOL0     C42977   8.656   7.816   5.210 -0.0885 -0.3683 -0.7196
  319MOL0     O42978   8.798   7.763   4.858  0.4575 -0.1031  0.4865
  319MOL0     C42979   9.075   7.642   5.047 -0.3273 -0.0300 -0.5783
  319MOL0     C42980   9.211   7.615   5.037 -0.2500 -0.0059  0.3450
  319MOL0     N42981   9.983   7.435   4.888 -0.1778 -1.1527  0.4777
  319MOL0     N42982  10.085   7.509   4.852  0.3308 -0.0436  0.2346
  319MOL0     C42983  10.991   7.792   4.319 -0.3788  0.1797  0.2001
  319MOL0     C42984  11.114   7.829   4.264  0.4191  0.2189  0.2495
  319MOL0     C42985  11.485   8.098   4.152 -0.1549 -1.0955  0.0537
  319MOL0     C42986  11.576   8.208   4.159 -0.0179 -0.4990  0.0214
  319MOL0     C42987  11.712   8.198   4.127  0.4662  0.0256  0.5252
  319MOL0     C42988  11.773   8.077   4.104 -0.1193  0.4598  0.0234
  319MOL0     O42989  11.914   8.069   4.088  0.5829 -0.1530 -0.2400
  319MOL0     C42990  11.942   7.970   3.980  0.1204  0.6858 -1.0913
  319MOL0     C42991  12.071   8.008   3.919 -0.1446  0.0739  0.4111
  319MOL0     C42992  12.081   8.152   3.852 -0.3237  0.1228 -0.4439
  319MOL0     C42993  12.240   8.180   3.849  0.6836 -0.0607 -0.1719
  319MOL0     C42994  12.270   8.324   3.859 -0.1911  0.7515 -0.1307
  319MOL0     C42995  12.286   8.446   3.872  0.8280 -0.2267  0.3879
  319MOL0     C42996  11.688   7.966   4.113 -1.1580  0.3711 -0.5912
  319MOL0     C42997  11.544   7.972   4.123  0.1365 -0.9587  0.4843
  319MOL0     H42998  11.128   8.146   4.393  0.9902 -0.2502 -1.2163
  319MOL0     H42999  10.894   8.087   4.454 -0.7469 -0.9432  0.4178
  319MOL0     H43000  10.602   7.761   4.418 -1.0790 -1.5643 -0.7542
  319MOL0     H43001  10.724   7.725   4.300  2.7877 -1.7836  1.9220
  319MOL0     H43002  10.728   7.538   4.404 -1.0066  0.6204 -0.2348
  319MOL0     H43003  10.869   7.613   4.474 -0.3455 -3.2480  2.9064
  319MOL0     H43004  10.749   7.492   4.640  1.5511  0.3045  0.5996
  319MOL0     H43005  10.716   7.663   4.679  0.7963 -1.0840  1.2294
  319MOL0     H43006  10.527   7.600   4.717  1.3132  1.1116 -0.2777
  319MOL0     H43007  10.496   7.655   4.557  0.6244  0.3599 -1.1843
  319MOL0     H43008  10.489   7.417   4.464  3.3175  0.1855  0.6131
  319MOL0     H43009  10.533   7.360   4.620  0.5630  0.4192  0.6766
  319MOL0     H43010  10.283   7.335   4.576 -2.5619 -0.4735  1.9305
  319MOL0     H43011  10.318   7.439   4.715 -1.0241 -3.4167  0.0569
  319MOL0     H43012  10.300   7.599   4.483 -0.3817  1.0448 -0.9705
  319MOL0     H43013  10.160   7.482   4.482  0.9588 -1.9714  0.8416
  319MOL0     H43014  10.128   7.717   4.613 -0.5156  0.5631  1.7905
  319MOL0     H43015  10.246   7.660   4.724 -0.3864 -3.3265  1.6825
  319MOL0     H43016   9.932   7.475   4.568  0.0590 -0.1072 -0.5634
  319MOL0     H43017   9.741   7.319   4.685 -1.4469  3.1481 -0.1680
  319MOL0     H43018   9.800   7.240   4.833 -0.7272  0.6196 -0.5134
  319MOL0     H43019   9.703   7.427   4.963 -0.8358  0.0407  0.5152
  319MOL0     H43020   9.581   7.331   4.873  1.1710 -0.9859  3.4574
  319MOL0     H43021   9.665   7.539   4.696 -2.7218  0.5523 -1.3642
  319MOL0     H43022   9.691   7.623   4.845  1.5147 -0.8757  0.2750
  319MOL0     H43023   9.428   7.497   4.741  0.1959 -1.2511  2.2936
  319MOL0     H43024   9.466   7.667   4.737  0.1715 -0.5073 -0.7848
  319MOL0     H43025   9.266   7.674   4.715  1.2060 -1.7661  1.1769
  319MOL0     H43026   8.985   7.842   4.676  2.3018  0.7795 -4.3126
  319MOL0     H43027   9.090   7.721   4.605  1.0019 -0.2490  1.8762
  319MOL0     H43028   8.930   7.667   4.653 -1.5848  1.8247  0.7388
  319MOL0     H43029   8.614   7.593   4.955  1.8020 -0.8175  0.9321
  319MOL0     H43030   8.366   7.651   5.034  1.5859 -2.0521 -0.2559
  319MOL0     H43031   8.304   7.942   5.376 -0.3924 -0.4801  0.1705
  319MOL0     H43032   8.304   8.010   5.212 -2.0397  0.6631 -0.5515
  319MOL0     H43033   8.078   7.968   5.175 -0.3803  0.8791  0.1615
  319MOL0     H43034   8.070   7.872   5.322  1.8725 -1.8344 -1.8465
  319MOL0     H43035   8.109   8.172   5.329  3.4236 -2.3281 -0.2381
  319MOL0     H43036   8.054   8.071   5.463  1.3941  2.0744  0.1527
  319MOL0     H43037   7.905   8.128   5.200 -2.6094 -2.3424 -0.4605
  319MOL0     H43038   7.856   7.995   5.291 -0.3740  0.5146 -0.6642
  319MOL0     H43039   7.844   8.291   5.366 -0.0089 -0.8312 -0.8490
  319MOL0     H43040   7.820   8.156   5.483  0.7100 -1.4150 -0.5395
  319MOL0     H43041   7.649   8.212   5.235 -2.0210 -0.4286 -0.1925
  319MOL0     H43042   7.636   8.065   5.336  1.8469 -0.6341  0.2689
  319MOL0     H43043   7.593   8.363   5.422 -1.5957  0.6732 -2.0950
  319MOL0     H43044   7.590   8.229   5.541  0.7149  0.1354 -0.4481
  319MOL0     H43045   7.405   8.277   5.306 -2.2739 -2.6718 -0.9323
  319MOL0     H43046   7.362   8.321   5.467  2.6028  0.6029  1.3560
  319MOL0     H43047   8.527   7.926   5.320  2.4219 -0.7833  0.1753
  319MOL0     H43048   8.730   7.882   5.255 -2.5939  1.8612  0.3988
  319MOL0     H43049   9.038   7.621   5.147 -1.4675 -1.3845 -1.2479
  319MOL0     H43050   9.267   7.588   5.126  0.3004 -0.1120 -0.0272
  319MOL0     H43051  10.941   7.699   4.292 -0.5833  0.2035  0.4947
  319MOL0     H43052  11.165   7.754   4.205 -0.9123  0.8937 -1.8804
  319MOL0     H43053  11.528   8.302   4.183  0.1235  0.4009 -2.7849
  319MOL0     H43054  11.783   8.280   4.134  1.1586 -0.6704  2.2539
  319MOL0     H43055  11.949   7.874   4.031 -1.2658  0.9273 -0.4050
  319MOL0     H43056  11.857   7.965   3.911 -1.0290 -0.3524  0.3604
  319MOL0     H43057  12.099   7.933   3.845 -2.1231 -2.5379  2.0981
  319MOL0     H43058  12.150   8.011   3.994  1.7454  6.5337 -1.2369
  319MOL0     H43059  12.035   8.227   3.916  1.7071  0.9101  0.1804
  319MOL0     H43060  12.036   8.159   3.753 -1.2659 -0.1212 -0.0400
  319MOL0     H43061  12.290   8.131   3.765 -0.8752  0.3361 -1.3736
  319MOL0     H43062  12.287   8.143   3.940  0.0976 -2.9754 -0.9555
  319MOL0     H43063  12.308   8.548   3.896  1.3776 -0.5894  1.4970
  319MOL0     H43064  11.728   7.865   4.121 -0.1827  0.9368  3.7726
  319MOL0     H43065  11.494   7.876   4.132  3.1596 -2.5215  2.3874
  320MOL0     O43066   3.168   8.969   7.865  0.2157  0.3844 -0.2359
  320MOL0     C43067   3.272   8.987   7.933 -0.9146  0.5326 -0.3319
  320MOL0     O43068   3.375   9.078   7.901 -0.1010 -1.1259 -0.1350
  320MOL0     C43069   3.354   9.170   7.795  0.2580  0.5286 -0.3564
  320MOL0     C43070   3.237   9.245   7.792 -0.0929 -0.1849  0.2518
  320MOL0     C43071   3.220   9.331   7.696 -0.7553 -0.1947 -0.0346
  320MOL0     C43072   3.317   9.342   7.583 -0.3674  0.1695 -0.7143
  320MOL0     O43073   3.305   9.421   7.470 -0.2333 -0.4256 -0.5618
  320MOL0     C43074   3.191   9.507   7.454  0.2898  0.5956 -0.7425
  320MOL0     C43075   3.203   9.553   7.310 -0.1640 -0.0799 -0.2270
  320MOL0     C43076   3.102   9.468   7.230 -0.3669  0.2007 -0.7337
  320MOL0     C43077   2.959   9.514   7.241 -0.6024 -1.0205  0.2777
  320MOL0     C43078   2.866   9.406   7.188  0.4184 -0.6318 -1.1727
  320MOL0     C43079   2.722   9.458   7.174  0.1046  0.0288  0.6443
  320MOL0     C43080   2.628   9.345   7.118  0.0931  0.0927 -0.1980
  320MOL0     C43081   2.493   9.401   7.093  0.4772  0.0872 -0.6636
  320MOL0     N43082   2.395   9.297   7.036  0.1125 -0.5519 -0.5045
  320MOL0     C43083   2.326   9.195   7.109  0.8137 -0.6576  0.6698
  320MOL0     C43084   2.232   9.165   7.008 -0.0103 -0.8627 -0.3681
  320MOL0     C43085   2.126   9.060   7.012 -1.0144 -0.4989  0.2219
  320MOL0     C43086   1.984   9.113   6.978  0.3239 -0.9240  0.1713
  320MOL0     C43087   1.957   9.123   6.830  0.2489  0.5721  0.1300
  320MOL0     C43088   1.871   9.241   6.795 -0.3583 -0.2630  0.0996
  320MOL0     O43089   1.741   9.210   6.851 -0.1332 -0.3927  0.4459
  320MOL0     C43090   1.654   9.317   6.850 -0.0965  0.8531 -0.1103
  320MOL0     C43091   1.659   9.419   6.754 -0.4219 -1.7693  0.6932
  320MOL0     C43092   1.574   9.532   6.772 -0.6979  0.2160 -0.0719
  320MOL0     C43093   1.596   9.640   6.679 -0.0748  0.1468  0.3353
  320MOL0     C43094   1.469   9.528   6.871  0.1324 -0.3283  0.5033
  320MOL0     C43095   1.374   9.648   6.889 -0.5184  0.0748 -0.7199
  320MOL0     O43096   1.283   9.625   6.991  0.1800 -0.5336 -0.2370
  320MOL0     C43097   1.162   9.688   7.001 -0.1134 -0.3907 -0.4002
  320MOL0     C43098   1.052   9.660   6.917 -0.3118 -0.4591  0.5082
  320MOL0     C43099   0.923   9.697   6.955  0.3541  0.4859 -0.1972
  320MOL0     C43100   0.900   9.759   7.079 -0.0043 -0.2357 -0.0649
  320MOL0     O43101   0.782   9.810   7.119  0.8738  0.2113 -0.1694
  320MOL0     C43102   0.671   9.814   7.023 -1.0260  0.1926 -0.1475
  320MOL0     C43103   0.572   9.912   7.073  1.1023 -0.5664 -0.5658
  320MOL0     C43104   0.629  10.053   7.092  0.9138  0.3012  0.5122
  320MOL0     C43105   0.533  10.137   7.167  0.5393 -0.3165  0.2408
  320MOL0     C43106   0.395  10.163   7.110 -0.7975 -0.2914  0.6441
  320MOL0     C43107   0.306  10.228   7.219 -0.1013  0.2913  0.1587
  320MOL0     C43108   0.157  10.240   7.177 -0.7017  0.0939 -0.2158
  320MOL0     C43109   0.089  10.104   7.169  0.8979  0.1436 -0.3194
  320MOL0    Cl43110  -0.091  10.090   7.181  0.1474 -0.3263 -0.1321
  320MOL0     C43111   1.008   9.792   7.154  0.0901  0.1500 -0.3472
  320MOL0     C43112   1.131   9.760   7.118  0.0770 -0.7177 -0.5641
  320MOL0     O43113   1.370   9.732   6.808  0.6953 -0.5378  0.3109
  320MOL0     C43114   1.457   9.414   6.951  0.0693 -0.1681 -0.3795
  320MOL0     C43115   1.556   9.314   6.953 -0.5551 -0.3870  0.7032
  320MOL0     N43116   2.256   9.233   6.894  0.9968 -0.1775  1.1139
  320MOL0     N43117   2.351   9.314   6.909  0.1183  0.6238  0.3091
  320MOL0     C43118   3.429   9.257   7.589  0.2156  0.2675 -0.9643
  320MOL0     C43119   3.454   9.173   7.698  0.0992 -0.0466  0.2888
  320MOL0     C43120   3.299   8.895   8.045 -0.6559  0.1476  0.2882
  320MOL0     C43121   3.208   8.794   8.081  0.6232 -0.5815 -0.7630
  320MOL0     C43122   3.223   8.714   8.190  0.5251  0.3700  0.1546
  320MOL0     C43123   3.341   8.715   8.268  0.1692 -0.1545  0.4147
  320MOL0     O43124   3.342   8.638   8.376  0.3003  0.0869  0.1586
  320MOL0     C43125   3.459   8.562   8.414  0.4322  0.5828  0.6845
  320MOL0     C43126   3.510   8.460   8.303 -0.2214  0.1146 -0.1483
  320MOL0     C43127   3.608   8.353   8.363 -0.4280  0.5322  0.7660
  320MOL0     C43128   3.704   8.288   8.265  0.6647  0.1295  0.6556
  320MOL0     C43129   3.628   8.188   8.192  0.3592 -0.2529 -0.1218
  320MOL0     C43130   3.543   8.120   8.136  0.1685  0.5395  0.2619
  320MOL0     C43131   3.435   8.809   8.225 -0.1535 -0.3450 -0.4917
  320MOL0     C43132   3.419   8.902   8.125 -0.0530 -0.7610  0.3419
  320MOL0     H43133   3.161   9.243   7.869 -0.4986  2.4645  0.0075
  320MOL0     H43134   3.132   9.395   7.702 -0.7568 -0.0126 -1.6357
  320MOL0     H43135   3.099   9.449   7.465 -1.1416  3.0862  1.9479
  320MOL0     H43136   3.178   9.584   7.531  0.6576  0.0458 -0.1106
  320MOL0     H43137   3.185   9.661   7.306 -1.7565 -0.3454 -1.7724
  320MOL0     H43138   3.305   9.529   7.278 -0.2503 -0.4844 -0.2044
  320MOL0     H43139   3.123   9.464   7.123 -0.0526 -1.4353 -0.6327
  320MOL0     H43140   3.099   9.364   7.265 -0.3008  0.2271 -0.6507
  320MOL0     H43141   2.933   9.540   7.345  0.8109  1.5595  0.0804
  320MOL0     H43142   2.947   9.609   7.188  0.5288 -0.8876  0.2255
  320MOL0     H43143   2.897   9.350   7.099 -1.6479 -5.5614  0.8650
  320MOL0     H43144   2.869   9.332   7.269 -2.3624  1.3289  0.9153
  320MOL0     H43145   2.662   9.484   7.261 -4.1511 -4.1822 -0.5725
  320MOL0     H43146   2.727   9.540   7.102 -2.4414 -0.9568 -0.7943
  320MOL0     H43147   2.664   9.295   7.028  0.3818  1.0664 -0.6412
  320MOL0     H43148   2.628   9.273   7.200 -2.6854  0.9259  0.6679
  320MOL0     H43149   2.505   9.470   7.009  0.3591  2.0014  0.8132
  320MOL0     H43150   2.447   9.458   7.175 -2.0817 -1.0456 -1.1935
  320MOL0     H43151   2.329   9.180   7.217 -2.3159  2.3294  1.3253
  320MOL0     H43152   2.141   8.987   6.932 -3.2787  2.8528 -3.6237
  320MOL0     H43153   2.119   9.015   7.112 -2.7025 -1.8270 -0.4521
  320MOL0     H43154   1.970   9.209   7.028  0.6527 -0.3668 -0.7919
  320MOL0     H43155   1.911   9.040   7.017 -0.7674 -0.3126 -0.6542
  320MOL0     H43156   1.911   9.031   6.791  0.6462 -0.2271  1.4755
  320MOL0     H43157   2.050   9.130   6.772 -0.5982 -1.5339 -1.6643
  320MOL0     H43158   1.861   9.245   6.686 -1.2509  0.1050  0.1934
  320MOL0     H43159   1.909   9.332   6.842  1.2333 -0.7575 -0.1601
  320MOL0     H43160   1.739   9.435   6.682  0.9495 -1.3005  2.2604
  320MOL0     H43161   1.694   9.641   6.632  0.9480 -0.3383  2.3375
  320MOL0     H43162   1.515   9.651   6.606  1.7512 -1.3514 -2.0671
  320MOL0     H43163   1.607   9.731   6.738  1.0906 -0.3621  0.9502
  320MOL0     H43164   1.064   9.593   6.833 -1.4684  0.5932 -0.5515
  320MOL0     H43165   0.842   9.658   6.893  1.8117  0.2597 -2.0440
  320MOL0     H43166   0.701   9.860   6.928  1.3274  2.0321  1.3747
  320MOL0     H43167   0.635   9.711   7.011 -0.6209 -0.1280  1.2251
  320MOL0     H43168   0.483   9.914   7.009  0.5482 -1.3095  0.1583
  320MOL0     H43169   0.536   9.870   7.167 -1.2118 -0.3544 -1.2828
  320MOL0     H43170   0.660  10.088   6.993  0.1342 -3.2707 -1.1691
  320MOL0     H43171   0.722  10.058   7.151 -0.3374  2.1563  2.4752
  320MOL0     H43172   0.520  10.084   7.262  0.4517 -2.2353 -0.7939
  320MOL0     H43173   0.592  10.224   7.193  0.8892 -0.8580  1.3171
  320MOL0     H43174   0.346  10.070   7.080  0.2789 -0.6552 -0.0625
  320MOL0     H43175   0.394  10.230   7.024  2.5586  0.2728  0.9110
  320MOL0     H43176   0.312  10.158   7.303 -0.6767 -0.7014 -0.5923
  320MOL0     H43177   0.336  10.331   7.239 -1.8339  1.0368 -0.8201
  320MOL0     H43178   0.145  10.287   7.078 -0.6503  1.3400  0.3475
  320MOL0     H43179   0.108  10.313   7.241  2.8359  0.6216  2.1862
  320MOL0     H43180   0.125  10.051   7.258  1.4238  1.2977  0.1765
  320MOL0     H43181   0.130  10.055   7.081  1.6134  1.5931 -0.8188
  320MOL0     H43182   0.993   9.842   7.249  2.6404 -1.7461  1.1747
  320MOL0     H43183   1.214   9.787   7.183  0.1288 -1.7083 -0.2176
  320MOL0     H43184   1.380   9.404   7.027 -1.4452  1.7873 -1.5491
  320MOL0     H43185   1.557   9.234   7.026  2.7557 -1.6860 -0.5928
  320MOL0     H43186   3.490   9.254   7.499  3.0605  1.5118  0.7872
  320MOL0     H43187   3.535   9.101   7.704 -2.0146 -2.8041 -1.6125
  320MOL0     H43188   3.117   8.780   8.024  1.1474  2.9588 -2.7806
  320MOL0     H43189   3.140   8.652   8.222  1.3490 -1.5507 -1.2679
  320MOL0     H43190   3.540   8.631   8.441 -1.4722  2.9401  0.6991
  320MOL0     H43191   3.441   8.504   8.505  0.8575  0.8214  0.9227
  320MOL0     H43192   3.565   8.515   8.226  3.2579 -2.5333  0.1823
  320MOL0     H43193   3.421   8.407   8.267  1.4303 -0.8377 -3.2436
  320MOL0     H43194   3.559   8.281   8.429 -0.8512  2.2146  2.3560
  320MOL0     H43195   3.659   8.413   8.438  1.8417 -0.8126  0.4082
  320MOL0     H43196   3.768   8.239   8.339  1.0747 -0.0396  0.1843
  320MOL0     H43197   3.759   8.361   8.206 -0.5530  0.9169  0.4430
  320MOL0     H43198   3.488   8.056   8.070  0.8383 -1.0197  1.1541
  320MOL0     H43199   3.532   8.804   8.274  0.3106 -2.3913 -1.4796
  320MOL0     H43200   3.482   8.988   8.106  2.9797 -2.6256  1.2190
  321MOL0     O43201   4.386   1.648  10.338 -0.4325 -0.3900 -1.4439
  321MOL0     C43202   4.404   1.736  10.256  0.7869 -0.4009  0.1158
  321MOL0     O43203   4.307   1.777  10.165 -0.1172  0.0509 -0.0566
  321MOL0     C43204   4.182   1.726  10.177 -0.3798 -1.3946 -0.4787
  321MOL0     C43205   4.130   1.692  10.052  0.2677  0.1986 -0.3024
  321MOL0     C43206   3.994   1.650  10.048  0.4067 -0.5068 -0.0271
  321MOL0     C43207   3.926   1.627  10.169  0.4633  0.1381 -0.1574
  321MOL0     O43208   3.798   1.581  10.179 -0.1883 -1.3194  0.5384
  321MOL0     C43209   3.752   1.499  10.073 -0.2818 -0.4891  0.3525
  321MOL0     C43210   3.686   1.383  10.136 -0.0967 -0.7779 -0.0791
  321MOL0     C43211   3.598   1.302  10.043 -0.7886 -0.4319  0.7666
  321MOL0     C43212   3.500   1.195  10.107 -0.3654 -0.5179 -0.0648
  321MOL0     C43213   3.412   1.138  10.001  0.2250 -0.4490  0.2963
  321MOL0     C43214   3.331   1.018  10.049  1.7780  0.4368  0.4211
  321MOL0     C43215   3.236   0.978   9.933 -0.2073  0.7790 -0.4620
  321MOL0     C43216   3.180   0.830   9.963 -0.1707  0.2190 -0.6578
  321MOL0     N43217   3.272   0.725   9.918  0.6679 -0.1338 -0.5652
  321MOL0     C43218   3.279   0.682   9.792  0.0172 -0.0846  0.0014
  321MOL0     C43219   3.369   0.581   9.798 -0.6971  0.6072  0.6722
  321MOL0     C43220   3.417   0.491   9.690  0.5239 -0.6119  0.0891
  321MOL0     C43221   3.414   0.555   9.552  0.0253  0.0351 -0.1377
  321MOL0     C43222   3.464   0.446   9.445  0.0236 -0.9441 -0.8110
  321MOL0     C43223   3.387   0.311   9.447 -0.5603  0.0739  0.2226
  321MOL0     O43224   3.282   0.314   9.349  0.0326 -0.2281  0.3859
  321MOL0     C43225   3.168   0.362   9.403  0.7461  0.0146 -0.2204
  321MOL0     C43226   3.094   0.291   9.494  0.0240  0.6293 -0.0613
  321MOL0     C43227   2.974   0.342   9.554  0.9021  0.4977  0.4625
  321MOL0     C43228   2.919   0.253   9.663 -0.5743 -0.4894  0.2657
  321MOL0     C43229   2.931   0.470   9.514  0.7695 -0.2891 -0.7623
  321MOL0     C43230   2.809   0.537   9.561 -0.2121  0.3076 -0.8395
  321MOL0     O43231   2.702   0.461   9.546  0.0486  0.1414  0.6933
  321MOL0     C43232   2.579   0.507   9.584  1.0237 -0.6867 -0.8236
  321MOL0     C43233   2.494   0.555   9.490  0.5443 -0.2377 -0.0060
  321MOL0     C43234   2.363   0.600   9.533  0.2084 -0.9961 -0.9844
  321MOL0     C43235   2.327   0.601   9.672 -0.0701 -0.4159 -0.2253
  321MOL0     O43236   2.201   0.649   9.709 -0.0708 -0.8534 -0.2209
  321MOL0     C43237   2.095   0.652   9.617  0.4013  0.1806  1.0303
  321MOL0     C43238   1.966   0.696   9.670  0.3270  0.2721 -0.0079
  321MOL0     C43239   1.910   0.615   9.782  0.4625  0.5971  0.2734
  321MOL0     C43240   1.764   0.658   9.823 -0.6196  0.5994 -0.2087
  321MOL0     C43241   1.728   0.591   9.953  1.1865 -0.7233  0.1998
  321MOL0     C43242   1.588   0.636   9.990 -0.5028 -0.0063 -0.0874
  321MOL0     C43243   1.469   0.584   9.914 -1.3592 -0.1174  0.4148
  321MOL0     C43244   1.334   0.630   9.965 -0.7874  0.1899 -0.2821
  321MOL0    Cl43245   1.208   0.518   9.895  0.0264 -0.0526  0.1404
  321MOL0     C43246   2.419   0.572   9.770 -0.4808  0.8112 -0.3789
  321MOL0     C43247   2.539   0.510   9.725 -0.1149 -0.6530  1.5669
  321MOL0     O43248   2.814   0.655   9.599 -0.7796  0.6342 -0.1451
  321MOL0     C43249   2.998   0.538   9.416 -0.1158  0.3599  0.1039
  321MOL0     C43250   3.109   0.483   9.358  0.6661 -0.0023 -0.1154
  321MOL0     N43251   3.419   0.565   9.925  0.4701  0.2559  0.5321
  321MOL0     N43252   3.360   0.657   9.993  0.0178 -0.4132 -0.8097
  321MOL0     C43253   3.986   1.642  10.294 -0.1860 -0.1835 -0.3593
  321MOL0     C43254   4.111   1.711  10.301  0.0264  0.6541 -0.0129
  321MOL0     C43255   4.541   1.786  10.234 -0.5944  0.2535  0.1116
  321MOL0     C43256   4.655   1.724  10.298 -0.0666  0.5909 -0.1854
  321MOL0     C43257   4.783   1.763  10.262  0.9613 -0.2737 -0.8269
  321MOL0     C43258   4.795   1.867  10.173 -1.2507 -0.1802  0.4627
  321MOL0     O43259   4.919   1.896  10.143  0.2581 -0.1176 -0.4213
  321MOL0     C43260   4.965   1.841  10.012  0.8685 -1.2898 -0.0055
  321MOL0     C43261   5.066   1.727  10.035 -0.5260 -0.0832  1.2632
  321MOL0     C43262   5.200   1.790  10.073 -1.2487  0.2698  0.2001
  321MOL0     C43263   5.220   1.817  10.223 -0.0815 -0.5235  0.0512
  321MOL0     C43264   5.362   1.819  10.255  0.4412  0.5973 -0.3228
  321MOL0     C43265   5.480   1.830  10.270 -0.2681 -0.0303 -0.1363
  321MOL0     C43266   4.689   1.929  10.106 -0.3416 -0.6059  0.6764
  321MOL0     C43267   4.565   1.880  10.133  0.0843 -0.1020  0.5492
  321MOL0     H43268   4.197   1.711   9.969  1.8258  0.1799  0.8858
  321MOL0     H43269   3.941   1.622   9.958 -0.0133 -0.4115  0.1871
  321MOL0     H43270   3.689   1.561  10.008 -1.0025  0.3861  1.8228
  321MOL0     H43271   3.835   1.454  10.019  1.2211 -1.1969  3.0364
  321MOL0     H43272   3.764   1.315  10.172 -1.6042 -1.5742  1.8504
  321MOL0     H43273   3.623   1.420  10.217 -0.4655 -0.6101 -0.4403
  321MOL0     H43274   3.540   1.362   9.971 -1.6462 -0.7645  1.1608
  321MOL0     H43275   3.679   1.251   9.991 -0.2801  0.9098  0.1910
  321MOL0     H43276   3.566   1.123  10.156  2.7315  1.9166 -0.3556
  321MOL0     H43277   3.437   1.242  10.184 -0.0742 -1.2740  0.6422
  321MOL0     H43278   3.347   1.210   9.951 -0.7427 -0.7066  1.1368
  321MOL0     H43279   3.474   1.098   9.921  0.9979 -0.7377  1.0185
  321MOL0     H43280   3.404   0.940  10.073  1.0474 -0.4944 -0.3489
  321MOL0     H43281   3.274   1.053  10.136  0.3391  4.4726 -1.8929
  321MOL0     H43282   3.151   1.046   9.922 -0.9880 -0.5279 -3.6508
  321MOL0     H43283   3.286   0.988   9.836  1.4928  0.7549  0.3719
  321MOL0     H43284   3.082   0.828   9.914 -1.4363  0.5866  1.7114
  321MOL0     H43285   3.157   0.815  10.069  0.0821  2.3758 -0.2468
  321MOL0     H43286   3.229   0.717   9.702 -0.8251 -0.1939  0.4130
  321MOL0     H43287   3.519   0.458   9.716  1.4339  1.8348 -0.1188
  321MOL0     H43288   3.365   0.397   9.706  1.1860 -0.9982  0.0282
  321MOL0     H43289   3.474   0.646   9.553 -1.8031  1.3581 -2.3729
  321MOL0     H43290   3.312   0.580   9.523  0.2715 -0.4519 -1.5291
  321MOL0     H43291   3.562   0.428   9.490  0.2728  1.0131 -0.4797
  321MOL0     H43292   3.467   0.491   9.346 -0.5208  2.2245  0.5136
  321MOL0     H43293   3.347   0.288   9.546 -0.1639 -1.6017  0.0108
  321MOL0     H43294   3.459   0.235   9.416 -2.5809 -1.6186 -0.5246
  321MOL0     H43295   3.120   0.188   9.521 -1.7440 -0.4955 -2.3542
  321MOL0     H43296   2.821   0.287   9.697 -0.9807  0.5340 -1.7717
  321MOL0     H43297   2.901   0.156   9.616  2.9012 -0.3717 -1.6790
  321MOL0     H43298   2.982   0.249   9.753 -0.0423 -0.0871 -0.0824
  321MOL0     H43299   2.496   0.551   9.381  1.5841  0.4859 -0.0219
  321MOL0     H43300   2.282   0.629   9.466 -0.8782  1.5754  1.2742
  321MOL0     H43301   2.119   0.732   9.547 -2.7914  1.1506  0.8896
  321MOL0     H43302   2.077   0.558   9.564 -1.5852  0.1178  1.7235
  321MOL0     H43303   1.977   0.801   9.702  2.3508  1.3843 -3.7887
  321MOL0     H43304   1.891   0.688   9.591  1.3385 -1.0610 -0.8689
  321MOL0     H43305   1.974   0.624   9.871 -1.2775 -1.1529  1.8006
  321MOL0     H43306   1.912   0.510   9.750 -4.0657  0.4510 -0.2360
  321MOL0     H43307   1.774   0.767   9.832  1.7217  0.5813 -1.8390
  321MOL0     H43308   1.686   0.636   9.749 -0.3437  2.0990 -0.9986
  321MOL0     H43309   1.791   0.606  10.041  0.3352  2.5190  0.3885
  321MOL0     H43310   1.734   0.483   9.933 -0.1952 -1.1507  1.9244
  321MOL0     H43311   1.574   0.610  10.095  0.7938 -3.3583 -0.6221
  321MOL0     H43312   1.587   0.744   9.975 -0.2255 -0.2997 -2.6626
  321MOL0     H43313   1.460   0.475   9.923  1.0231 -0.1826  3.3446
  321MOL0     H43314   1.480   0.613   9.810 -1.3018 -0.4521  0.3267
  321MOL0     H43315   1.322   0.737   9.947  0.7292  0.0716 -2.3329
  321MOL0     H43316   1.329   0.620  10.074  1.1333  2.8662  0.1557
  321MOL0     H43317   2.411   0.589   9.877  1.9951 -0.5328  0.1133
  321MOL0     H43318   2.601   0.479   9.809  0.0693 -0.6702  1.4253
  321MOL0     H43319   2.968   0.635   9.378  2.8916  1.6615  0.7141
  321MOL0     H43320   3.160   0.541   9.281  0.8189  2.4653  1.7335
  321MOL0     H43321   3.931   1.619  10.385  0.8659  0.8623  0.5794
  321MOL0     H43322   4.155   1.735  10.397  2.5613  1.3366 -1.2595
  321MOL0     H43323   4.628   1.639  10.359 -1.4504  0.8149 -0.4557
  321MOL0     H43324   4.875   1.722  10.303  2.4846  3.2976 -0.3522
  321MOL0     H43325   4.877   1.809   9.957 -2.2662 -0.4129  4.0500
  321MOL0     H43326   5.008   1.918   9.948 -1.0495 -0.9465 -0.9482
  321MOL0     H43327   5.081   1.683   9.936 -0.1053 -1.0299  1.7365
  321MOL0     H43328   5.018   1.656  10.103 -1.2677 -0.0906  0.7452
  321MOL0     H43329   5.232   1.881  10.021  0.5776  1.1749  2.7159
  321MOL0     H43330   5.274   1.710  10.059 -1.6258 -0.6426  2.9102
  321MOL0     H43331   5.178   1.737  10.285  2.8501 -0.2907  2.5698
  321MOL0     H43332   5.178   1.914  10.249 -3.3270 -1.0638 -2.4268
  321MOL0     H43333   5.584   1.843  10.292 -0.9319  1.1342  2.6963
  321MOL0     H43334   4.697   2.016  10.042 -2.2426  2.0787  3.7247
  321MOL0     H43335   4.489   1.934  10.079  0.1984 -1.0723 -0.6026
  322MOL0     O43336   6.069   9.356   5.675  0.0258  0.3185  0.0564
  322MOL0     C43337   6.124   9.319   5.577 -0.6754 -0.6109  0.1509
  322MOL0     O43338   6.103   9.363   5.460  0.1354  0.2629 -0.4770
  322MOL0     C43339   6.006   9.464   5.444  0.6937 -0.0116  0.2395
  322MOL0     C43340   6.037   9.596   5.488  0.0216  0.3863  0.8963
  322MOL0     C43341   5.950   9.693   5.447 -0.6307 -0.1537 -1.3198
  322MOL0     C43342   5.837   9.669   5.373 -0.0841  1.5241 -0.2314
  322MOL0     O43343   5.764   9.774   5.347  0.2827 -0.8926  0.1296
  322MOL0     C43344   5.618   9.772   5.340 -0.4758 -0.5669  0.2849
  322MOL0     C43345   5.556   9.907   5.373  0.2209  0.7694 -1.1155
  322MOL0     C43346   5.609   9.948   5.514 -0.1968 -0.9063 -0.3761
  322MOL0     C43347   5.585  10.096   5.549 -0.0483  0.3827  0.8488
  322MOL0     C43348   5.657  10.142   5.675 -0.3824 -0.8750 -0.8608
  322MOL0     C43349   5.609  10.275   5.721 -0.2932  0.4216  0.5514
  322MOL0     C43350   5.618  10.323   5.873 -0.1665 -0.4537 -0.0888
  322MOL0     C43351   5.753  10.316   5.944  0.1926 -0.1733  0.5760
  322MOL0     N43352   5.847  10.418   5.880 -0.1018 -0.1154  0.1094
  322MOL0     C43353   5.926  10.387   5.779 -0.2316  0.2195 -0.5193
  322MOL0     C43354   5.986  10.506   5.760 -0.1106 -0.4823  0.0934
  322MOL0     C43355   6.104  10.533   5.670  0.0442 -0.3610 -0.4110
  322MOL0     C43356   6.235  10.478   5.723 -0.7075  0.0380 -0.6726
  322MOL0     C43357   6.366  10.491   5.646 -0.4587  0.4811  0.6716
  322MOL0     C43358   6.387  10.632   5.607  0.3757 -0.0525  0.0878
  322MOL0     O43359   6.380  10.727   5.713  0.4075 -0.5024  0.0662
  322MOL0     C43360   6.487  10.818   5.723  1.1517 -1.4759 -0.1551
  322MOL0     C43361   6.621  10.793   5.710 -1.0913  0.1720  0.0419
  322MOL0     C43362   6.716  10.897   5.709 -0.1336  0.2211 -0.1316
  322MOL0     C43363   6.860  10.855   5.694  0.6346 -0.7948  0.8495
  322MOL0     C43364   6.676  11.033   5.723 -0.0446  0.3824  0.3750
  322MOL0     C43365   6.767  11.147   5.723  0.1562  0.0635  0.3205
  322MOL0     O43366   6.888  11.132   5.673 -0.1955 -0.4572  0.6069
  322MOL0     C43367   6.966  11.229   5.614  0.8269 -0.6155  0.4953
  322MOL0     C43368   7.100  11.202   5.582 -0.3355  0.4888  0.1159
  322MOL0     C43369   7.176  11.297   5.523  0.4227 -0.3798  0.1895
  322MOL0     C43370   7.122  11.417   5.478 -0.3808  0.1051 -0.6480
  322MOL0     O43371   7.210  11.502   5.406  1.0733 -0.5311 -0.6810
  322MOL0     C43372   7.206  11.646   5.453 -0.6496 -0.8950  0.3988
  322MOL0     C43373   7.336  11.719   5.414  0.0236 -0.7568 -0.0878
  322MOL0     C43374   7.464  11.648   5.469 -0.1850 -0.4671  0.5283
  322MOL0     C43375   7.597  11.732   5.437 -0.0107  0.4134 -0.0181
  322MOL0     C43376   7.622  11.856   5.511  0.3594  0.2250 -0.3854
  322MOL0     C43377   7.766  11.898   5.509  0.4867  0.2483  0.9827
  322MOL0     C43378   7.780  12.044   5.551 -0.3915  0.2733  0.0808
  322MOL0     C43379   7.918  12.107   5.540 -0.4091 -0.6704 -0.7093
  322MOL0    Cl43380   8.036  12.024   5.652 -0.2693 -0.1313  0.1171
  322MOL0     C43381   6.988  11.445   5.504 -0.4018 -0.5535  0.4703
  322MOL0     C43382   6.910  11.348   5.567  0.8827 -0.3734 -0.3835
  322MOL0     O43383   6.717  11.248   5.760  1.1777 -0.0609 -0.2911
  322MOL0     C43384   6.536  11.055   5.741 -0.2902 -0.1067 -0.9210
  322MOL0     C43385   6.451  10.949   5.735  0.3956 -0.3770 -1.1567
  322MOL0     N43386   5.924  10.601   5.836 -1.4725 -0.1390 -0.7862
  322MOL0     N43387   5.847  10.550   5.921 -0.6267  0.0784 -0.2614
  322MOL0     C43388   5.812   9.541   5.333  0.4678 -0.3255  0.1432
  322MOL0     C43389   5.891   9.429   5.371 -0.1382 -0.0390 -0.0577
  322MOL0     C43390   6.228   9.216   5.594  0.3726  0.3586  0.7928
  322MOL0     C43391   6.218   9.142   5.713  0.1652 -0.5781  0.3080
  322MOL0     C43392   6.316   9.045   5.734  1.1435  0.4135 -0.9165
  322MOL0     C43393   6.412   9.007   5.644 -0.7926  0.1770  0.2486
  322MOL0     O43394   6.496   8.897   5.672  0.1104 -0.3888 -0.1933
  322MOL0     C43395   6.531   8.826   5.553 -0.4513 -1.4137  0.3642
  322MOL0     C43396   6.617   8.701   5.582  0.9919  0.1301 -0.2156
  322MOL0     C43397   6.656   8.623   5.453  0.5997 -0.1919 -0.3023
  322MOL0     C43398   6.796   8.579   5.435 -0.1414 -0.1090  0.3028
  322MOL0     C43399   6.825   8.474   5.528  0.1037  0.0775 -0.4209
  322MOL0     C43400   6.855   8.396   5.613  0.4175  0.0961 -0.8647
  322MOL0     C43401   6.429   9.085   5.525  0.5149  0.1602  0.0525
  322MOL0     C43402   6.329   9.195   5.506 -0.5214  0.1131 -0.0669
  322MOL0     H43403   6.121   9.626   5.549 -1.0015  1.9359  1.6189
  322MOL0     H43404   5.991   9.794   5.449  1.8114 -1.0401  1.9277
  322MOL0     H43405   5.589   9.749   5.237 -0.2067  1.1125 -0.2089
  322MOL0     H43406   5.579   9.691   5.401 -2.3159  0.3251  0.3617
  322MOL0     H43407   5.588   9.983   5.300 -1.1700  5.0082  2.3090
  322MOL0     H43408   5.447   9.905   5.380  0.2726 -1.4242 -0.3260
  322MOL0     H43409   5.565   9.880   5.588  0.2460 -0.2060  0.5665
  322MOL0     H43410   5.718   9.936   5.514 -0.3222 -2.2831  1.0140
  322MOL0     H43411   5.626  10.161   5.472  0.3042 -3.7879 -2.9013
  322MOL0     H43412   5.479  10.114   5.567 -0.3671  0.4113 -0.9417
  322MOL0     H43413   5.630  10.074   5.756  0.6747  0.2511  0.5091
  322MOL0     H43414   5.767  10.140   5.668 -0.5187 -2.1875 -4.7158
  322MOL0     H43415   5.669  10.343   5.661  4.0278 -2.5367  1.0418
  322MOL0     H43416   5.511  10.300   5.681  0.4458  1.3138 -0.7357
  322MOL0     H43417   5.571  10.421   5.884  4.4513  2.1669 -1.2906
  322MOL0     H43418   5.558  10.253   5.933 -0.5770 -1.6935 -1.8629
  322MOL0     H43419   5.813  10.224   5.938  0.4549  0.0645 -1.6244
  322MOL0     H43420   5.736  10.338   6.049 -0.1937 -0.0364  0.4848
  322MOL0     H43421   5.947  10.288   5.740  0.5041 -0.8875  2.3885
  322MOL0     H43422   6.082  10.486   5.574 -1.7577 -0.4845  0.0409
  322MOL0     H43423   6.122  10.641   5.666  1.3400 -0.5421 -0.0669
  322MOL0     H43424   6.229  10.371   5.743  2.6050  0.3409  3.1090
  322MOL0     H43425   6.254  10.516   5.824  0.6447 -1.4965 -0.3209
  322MOL0     H43426   6.371  10.433   5.554 -1.6954 -0.7417  1.3453
  322MOL0     H43427   6.451  10.470   5.712 -0.5622  1.0112  0.9774
  322MOL0     H43428   6.318  10.665   5.530  0.3156 -1.9901 -0.7567
  322MOL0     H43429   6.482  10.630   5.552 -0.2771  2.7372 -1.2976
  322MOL0     H43430   6.662  10.693   5.697  0.7239  1.0502 -1.3478
  322MOL0     H43431   6.896  10.896   5.599 -2.9021 -0.2170 -0.3750
  322MOL0     H43432   6.910  10.888   5.786  0.0197  0.8226  0.6370
  322MOL0     H43433   6.879  10.748   5.686 -0.3360 -0.8310 -2.0699
  322MOL0     H43434   7.141  11.109   5.619 -0.9185  1.3392  3.2025
  322MOL0     H43435   7.274  11.271   5.484 -1.0240 -3.7906 -1.6219
  322MOL0     H43436   7.123  11.709   5.419 -1.9089 -3.5572 -1.9276
  322MOL0     H43437   7.210  11.645   5.562  2.9574 -3.3910  0.4457
  322MOL0     H43438   7.354  11.723   5.306 -1.9757 -4.2870 -0.7011
  322MOL0     H43439   7.337  11.816   5.464  1.0111 -1.6288  1.6719
  322MOL0     H43440   7.458  11.546   5.431 -0.0336 -0.2056 -0.2022
  322MOL0     H43441   7.446  11.648   5.577 -0.4543 -0.6040  0.4857
  322MOL0     H43442   7.668  11.652   5.457 -0.2735  0.5040  1.4403
  322MOL0     H43443   7.613  11.750   5.331 -0.9281  0.9980 -0.0699
  322MOL0     H43444   7.601  11.822   5.613 -0.0071 -0.8340 -0.7905
  322MOL0     H43445   7.544  11.930   5.488 -1.0203 -0.9048  0.4476
  322MOL0     H43446   7.815  11.825   5.573 -0.1605 -2.9961 -1.9528
  322MOL0     H43447   7.806  11.884   5.407 -2.4379 -0.1425 -0.1918
  322MOL0     H43448   7.745  12.047   5.655 -1.4673  1.2603 -0.2916
  322MOL0     H43449   7.712  12.103   5.490  1.7159  0.7620 -1.9113
  322MOL0     H43450   7.926  12.210   5.577 -0.4673  0.0097 -2.5218
  322MOL0     H43451   7.953  12.103   5.437 -1.6302 -0.3992 -1.1442
  322MOL0     H43452   6.938  11.536   5.474  0.0300 -0.8599 -1.3207
  322MOL0     H43453   6.804  11.368   5.583  1.1258  0.8469 -0.2352
  322MOL0     H43454   6.496  11.155   5.757 -0.6101 -0.2185 -1.0180
  322MOL0     H43455   6.347  10.974   5.750  0.4798 -0.1941 -0.8583
  322MOL0     H43456   5.729   9.520   5.267  0.3566 -4.1552  1.2608
  322MOL0     H43457   5.873   9.331   5.330  1.5270 -0.6331  0.5831
  322MOL0     H43458   6.142   9.171   5.784 -2.9007  1.0008 -3.2855
  322MOL0     H43459   6.311   8.994   5.830  2.4997 -0.2605 -1.1748
  322MOL0     H43460   6.443   8.794   5.496  0.0394 -1.2093 -0.5164
  322MOL0     H43461   6.587   8.896   5.490  0.1038 -1.0816  1.2029
  322MOL0     H43462   6.549   8.634   5.636 -2.0936  0.3827 -3.3614
  322MOL0     H43463   6.694   8.714   5.658  1.5144 -0.6717 -0.6030
  322MOL0     H43464   6.632   8.683   5.365 -2.1431 -1.3280 -0.4044
  322MOL0     H43465   6.584   8.541   5.450 -0.5085  0.7446 -0.2376
  322MOL0     H43466   6.869   8.660   5.438  0.4681 -0.6634  1.1830
  322MOL0     H43467   6.826   8.541   5.337  3.8238  4.5695 -0.6558
  322MOL0     H43468   6.880   8.315   5.679 -3.8594  0.3582  1.3883
  322MOL0     H43469   6.501   9.069   5.446 -0.1281 -0.6289 -0.3848
  322MOL0     H43470   6.331   9.259   5.418  0.3239  0.8612  0.4761
  323MOL0     O43471   7.211   1.631   2.539  0.7740 -0.1659  0.3163
  323MOL0     C43472   7.282   1.534   2.554 -0.4746 -1.0243 -0.1768
  323MOL0     O43473   7.269   1.445   2.651 -0.6223 -0.1575 -0.2811
  323MOL0     C43474   7.174   1.448   2.752  0.0300  0.4714 -0.3891
  323MOL0     C43475   7.218   1.450   2.885  0.8366  0.0194 -0.0309
  323MOL0     C43476   7.125   1.465   2.991  0.7991 -0.6595 -0.3399
  323MOL0     C43477   6.989   1.487   2.976  0.1747 -0.7370  0.2886
  323MOL0     O43478   6.896   1.489   3.073  0.0667  0.3873 -0.1030
  323MOL0     C43479   6.927   1.573   3.185 -0.2586 -0.6177 -0.8430
  323MOL0     C43480   6.823   1.584   3.289 -0.2684 -0.2010 -0.9806
  323MOL0     C43481   6.680   1.633   3.260 -0.2490  0.5544  0.2621
  323MOL0     C43482   6.631   1.585   3.121  0.7365 -0.4379  0.0477
  323MOL0     C43483   6.507   1.652   3.077  0.4640  0.5408 -0.3790
  323MOL0     C43484   6.480   1.621   2.925 -0.8619 -0.2096 -0.0567
  323MOL0     C43485   6.337   1.655   2.884  0.0400  0.1014  0.0933
  323MOL0     C43486   6.301   1.800   2.906 -0.4565 -0.0886 -0.1715
  323MOL0     N43487   6.266   1.828   3.045  0.1545  0.1682  0.3404
  323MOL0     C43488   6.152   1.778   3.102 -0.6313  0.7127 -0.4460
  323MOL0     C43489   6.153   1.845   3.226 -0.2152  0.0855  0.0196
  323MOL0     C43490   6.051   1.843   3.331  1.1289  0.4691  0.6112
  323MOL0     C43491   5.947   1.955   3.325 -0.0241 -0.5573  0.1685
  323MOL0     C43492   5.842   1.918   3.225  0.8411 -0.1540 -0.8720
  323MOL0     C43493   5.725   2.015   3.204  0.1530 -0.0026  0.0548
  323MOL0     O43494   5.667   2.024   3.344 -0.1621 -0.2162  0.5343
  323MOL0     C43495   5.531   2.052   3.350 -0.3169  0.0858 -0.5162
  323MOL0     C43496   5.451   2.120   3.247 -0.1857  0.4284  0.7182
  323MOL0     C43497   5.317   2.148   3.265 -0.3303 -1.0960  0.5851
  323MOL0     C43498   5.245   2.217   3.153 -0.2635 -0.6805  0.5518
  323MOL0     C43499   5.249   2.090   3.368  0.1563  0.3737  0.1885
  323MOL0     C43500   5.101   2.076   3.377 -0.0592  0.1653 -0.1754
  323MOL0     O43501   5.050   2.000   3.478 -0.1277  0.3292 -0.1368
  323MOL0     C43502   4.909   2.003   3.505 -0.1166  0.1478  0.6592
  323MOL0     C43503   4.817   1.954   3.411 -0.2937 -0.1232 -0.1125
  323MOL0     C43504   4.679   1.981   3.425  0.4990  0.2849  0.4243
  323MOL0     C43505   4.632   2.050   3.541  0.9575 -0.3755 -0.3497
  323MOL0     O43506   4.506   2.095   3.567 -0.3116 -0.6826  0.1411
  323MOL0     C43507   4.439   2.167   3.460  0.6901  0.2116  0.1276
  323MOL0     C43508   4.300   2.218   3.510 -0.3817  0.6411  0.0636
  323MOL0     C43509   4.219   2.127   3.597  0.1358  1.2341  0.2709
  323MOL0     C43510   4.083   2.191   3.634  0.2564 -0.2437  0.1916
  323MOL0     C43511   3.987   2.092   3.695 -0.9608 -0.8300 -0.1150
  323MOL0     C43512   3.850   2.169   3.713 -0.1298  0.2553 -0.6212
  323MOL0     C43513   3.749   2.077   3.786  0.2006  0.8777  0.4499
  323MOL0     C43514   3.800   2.039   3.926 -0.1178 -0.2691 -0.0770
  323MOL0    Cl43515   3.677   1.987   4.040  0.4819 -0.4337  0.0463
  323MOL0     C43516   4.716   2.073   3.640  0.0292 -0.9597 -0.5382
  323MOL0     C43517   4.857   2.057   3.621  0.6331 -0.7253  0.6375
  323MOL0     O43518   5.034   2.107   3.277  0.1691 -0.7255 -0.6877
  323MOL0     C43519   5.327   2.022   3.464  0.9107 -0.6011  0.3117
  323MOL0     C43520   5.463   2.001   3.459  0.7515  0.1591  0.3093
  323MOL0     N43521   6.258   1.924   3.239 -0.1253  0.1439 -0.7285
  323MOL0     N43522   6.325   1.916   3.137  0.1900  0.3147 -0.0057
  323MOL0     C43523   6.943   1.492   2.841  1.3081  1.0589 -0.7123
  323MOL0     C43524   7.035   1.478   2.737  0.4406 -0.0572  0.0972
  323MOL0     C43525   7.414   1.537   2.478 -0.5118 -0.3373  0.0332
  323MOL0     C43526   7.434   1.604   2.350  0.0040 -0.7506  0.3175
  323MOL0     C43527   7.556   1.582   2.272  0.0269 -0.1419 -0.0525
  323MOL0     C43528   7.641   1.478   2.314  0.0464 -0.1810  0.1506
  323MOL0     O43529   7.755   1.449   2.251 -0.5389  0.8584  0.4082
  323MOL0     C43530   7.783   1.507   2.127 -0.7305  0.0792  0.6897
  323MOL0     C43531   7.920   1.472   2.075 -0.9372  0.1242  0.1805
  323MOL0     C43532   7.933   1.324   2.066  0.1353  0.3000  0.4865
  323MOL0     C43533   8.060   1.278   1.990 -1.2540 -0.6445 -1.1337
  323MOL0     C43534   8.050   1.304   1.847  1.2077 -0.5539 -0.5831
  323MOL0     C43535   8.068   1.317   1.726  0.9138  0.6843 -0.3392
  323MOL0     C43536   7.622   1.415   2.436 -0.2701 -0.8305 -0.5136
  323MOL0     C43537   7.514   1.445   2.527 -0.0812 -0.4962 -0.4013
  323MOL0     H43538   7.323   1.448   2.914  0.4750 -1.0486  1.2935
  323MOL0     H43539   7.156   1.463   3.095  2.5134  2.9808 -0.6216
  323MOL0     H43540   7.018   1.529   3.228  0.7900 -1.3197 -3.5318
  323MOL0     H43541   6.949   1.670   3.139 -1.7511 -0.4816 -1.3246
  323MOL0     H43542   6.827   1.491   3.345  1.7961 -0.2376 -1.1010
  323MOL0     H43543   6.862   1.664   3.354 -0.3976 -0.2356 -0.8597
  323MOL0     H43544   6.615   1.588   3.336  0.9348 -1.1005  0.3679
  323MOL0     H43545   6.684   1.742   3.256 -0.7516  0.5526 -0.3506
  323MOL0     H43546   6.703   1.607   3.042 -0.2671 -1.1705 -1.1143
  323MOL0     H43547   6.599   1.480   3.111 -3.2797  0.7765 -2.3892
  323MOL0     H43548   6.420   1.603   3.123 -0.2404  0.5860 -1.5987
  323MOL0     H43549   6.513   1.757   3.106  2.7148  0.1111  0.9156
  323MOL0     H43550   6.547   1.672   2.855  2.7139 -4.1130  0.0807
  323MOL0     H43551   6.493   1.512   2.918 -4.0879 -0.6337 -1.1549
  323MOL0     H43552   6.318   1.625   2.780  0.9713 -0.9727  0.2280
  323MOL0     H43553   6.270   1.587   2.936 -0.1810 -1.1543 -1.7319
  323MOL0     H43554   6.214   1.834   2.848 -1.2803  3.2021  2.6711
  323MOL0     H43555   6.379   1.866   2.868 -0.3941  1.3722  2.3000
  323MOL0     H43556   6.079   1.703   3.072 -0.4188 -0.2748  1.3613
  323MOL0     H43557   5.988   1.753   3.336 -4.8777  4.1851  3.6907
  323MOL0     H43558   6.104   1.848   3.427 -1.6878  1.9159  2.2270
  323MOL0     H43559   5.993   2.053   3.312  0.0046 -0.3929  1.3743
  323MOL0     H43560   5.901   1.956   3.425  0.7896  0.3725  0.5556
  323MOL0     H43561   5.796   1.825   3.259 -0.6704  0.2469 -1.7248
  323MOL0     H43562   5.890   1.897   3.129  0.0774  0.7603 -1.4723
  323MOL0     H43563   5.643   1.976   3.142 -1.1110  0.8087  1.1480
  323MOL0     H43564   5.758   2.111   3.165  1.4406  0.1758  1.5110
  323MOL0     H43565   5.505   2.162   3.163  1.5429 -1.8168  0.6048
  323MOL0     H43566   5.180   2.291   3.202  0.7144  1.7021 -1.5001
  323MOL0     H43567   5.308   2.280   3.089  0.2218  1.1521  2.6969
  323MOL0     H43568   5.197   2.139   3.094  2.7292 -3.3197  1.3457
  323MOL0     H43569   4.853   1.899   3.325 -2.6037 -0.7463 -0.7777
  323MOL0     H43570   4.614   1.954   3.342 -0.5764  1.4996  0.8195
  323MOL0     H43571   4.495   2.253   3.421 -2.0392  0.8508 -2.7583
  323MOL0     H43572   4.426   2.100   3.375 -0.5351  1.0039 -0.3300
  323MOL0     H43573   4.305   2.315   3.561 -1.4781 -0.1738  1.8479
  323MOL0     H43574   4.251   2.242   3.416 -0.3217  2.0754  0.3835
  323MOL0     H43575   4.275   2.090   3.683 -0.3168 -6.2724 -1.9312
  323MOL0     H43576   4.198   2.033   3.544  0.5068  0.1500  1.9943
  323MOL0     H43577   4.110   2.275   3.698  0.4969  1.2295 -1.7622
  323MOL0     H43578   4.041   2.230   3.541  1.9400 -0.4702 -0.7005
  323MOL0     H43579   4.024   2.054   3.791  0.9857  0.4637 -0.3007
  323MOL0     H43580   3.970   2.010   3.625  0.8368 -0.1204 -1.4512
  323MOL0     H43581   3.872   2.249   3.785  0.0586  1.6347 -2.1632
  323MOL0     H43582   3.828   2.219   3.618  2.5103  1.0022 -0.9123
  323MOL0     H43583   3.728   1.989   3.725  0.0158  1.2332 -0.0042
  323MOL0     H43584   3.659   2.134   3.810  0.9363  1.5476  1.7216
  323MOL0     H43585   3.851   2.123   3.973  2.3947  0.0916 -3.1059
  323MOL0     H43586   3.875   1.960   3.916  2.4606  1.9255  1.0730
  323MOL0     H43587   4.671   2.128   3.723  0.8442 -1.3640  0.1837
  323MOL0     H43588   4.927   2.093   3.696 -0.8152  0.2714  1.5583
  323MOL0     H43589   5.282   1.970   3.548  0.5581  0.9456  1.1250
  323MOL0     H43590   5.507   1.934   3.531  1.9212 -1.3021 -1.6731
  323MOL0     H43591   6.842   1.497   2.801  1.5784 -1.4466 -1.8964
  323MOL0     H43592   6.989   1.493   2.640 -0.8930  1.8411  0.9601
  323MOL0     H43593   7.361   1.664   2.298 -0.5318  0.1384  2.0474
  323MOL0     H43594   7.569   1.632   2.177  1.3287  0.6043  0.4972
  323MOL0     H43595   7.711   1.491   2.046 -0.3041  2.4483 -0.2347
  323MOL0     H43596   7.786   1.615   2.144  2.9184  0.2237 -0.1230
  323MOL0     H43597   8.001   1.505   2.141 -0.6356  0.4759 -0.3555
  323MOL0     H43598   7.924   1.518   1.976  0.4888  1.7354  0.9334
  323MOL0     H43599   7.847   1.282   2.014  1.4584  1.2863 -2.7513
  323MOL0     H43600   7.928   1.276   2.165 -0.9684  1.4434  1.0149
  323MOL0     H43601   8.077   1.173   2.016 -1.1647  0.2826  3.4390
  323MOL0     H43602   8.148   1.328   2.031 -1.6291  1.5165 -2.8435
  323MOL0     H43603   8.084   1.314   1.620 -1.4808 -5.1218 -0.9445
  323MOL0     H43604   7.694   1.352   2.486 -1.3090 -2.7764 -1.3783
  323MOL0     H43605   7.517   1.397   2.625  0.1024  1.6784  0.7058
  324MOL0     O43606   9.605   8.828   7.598  0.5759 -0.9615  0.6492
  324MOL0     C43607   9.611   8.719   7.550 -0.3630  0.3682  0.3676
  324MOL0     O43608   9.511   8.652   7.476  0.3138 -0.3757 -0.2561
  324MOL0     C43609   9.385   8.704   7.490  1.4149  0.3194  0.0781
  324MOL0     C43610   9.304   8.744   7.377 -0.3259  0.4973  0.2656
  324MOL0     C43611   9.165   8.762   7.396  0.0576  0.1597 -0.2983
  324MOL0     C43612   9.109   8.755   7.523 -0.1889 -0.4735  0.5272
  324MOL0     O43613   8.981   8.776   7.560  0.0360 -0.1633 -0.2356
  324MOL0     C43614   8.887   8.849   7.481 -0.2653  0.6573 -0.5805
  324MOL0     C43615   8.740   8.824   7.518 -0.5721  0.1950 -0.6412
  324MOL0     C43616   8.641   8.902   7.432 -0.1361 -0.5929  1.2898
  324MOL0     C43617   8.506   8.834   7.453 -0.0364 -0.1752  0.2045
  324MOL0     C43618   8.390   8.935   7.404  0.6869  0.6778  0.4931
  324MOL0     C43619   8.376   8.953   7.251  0.4080 -0.8157  0.6311
  324MOL0     C43620   8.239   9.026   7.214 -1.0360  0.5615 -0.3237
  324MOL0     C43621   8.226   9.078   7.062  0.2522 -0.3308  0.4070
  324MOL0     N43622   8.235   8.970   6.963 -0.3551  0.2468 -1.1526
  324MOL0     C43623   8.348   8.927   6.900  0.6372 -0.3857  0.3827
  324MOL0     C43624   8.305   8.840   6.806 -0.6785 -1.0251  0.4243
  324MOL0     C43625   8.388   8.752   6.725  0.4000  1.1643  0.6319
  324MOL0     C43626   8.393   8.623   6.802  0.1317  0.1635  0.5602
  324MOL0     C43627   8.438   8.495   6.730  0.8176  0.0854 -0.8111
  324MOL0     C43628   8.568   8.493   6.649  0.0317  0.0421  0.5854
  324MOL0     O43629   8.679   8.514   6.736 -0.5907  0.2744 -0.5002
  324MOL0     C43630   8.802   8.459   6.725  0.1026  1.4165 -0.2280
  324MOL0     C43631   8.897   8.490   6.826 -0.4879 -0.5894 -0.1699
  324MOL0     C43632   9.022   8.429   6.834  0.0137  0.5631  0.5311
  324MOL0     C43633   9.108   8.473   6.948 -0.6454  0.2664 -0.0153
  324MOL0     C43634   9.060   8.346   6.727  0.1756 -0.4443 -0.1816
  324MOL0     C43635   9.184   8.275   6.716 -0.8740 -0.1593  1.2739
  324MOL0     O43636   9.257   8.252   6.830 -0.9405  0.3100 -0.7844
  324MOL0     C43637   9.382   8.203   6.824 -0.3431 -0.5315  0.1862
  324MOL0     C43638   9.432   8.108   6.928 -0.1049 -0.0286  0.2383
  324MOL0     C43639   9.565   8.054   6.907 -0.2494  0.0198  0.9318
  324MOL0     C43640   9.648   8.094   6.796 -0.2803  0.2731 -0.7675
  324MOL0     O43641   9.775   8.042   6.786 -0.0997 -0.0654 -0.7703
  324MOL0     C43642   9.766   7.927   6.702 -0.5999  0.2501  0.0192
  324MOL0     C43643   9.902   7.853   6.684 -0.6073 -0.2350 -0.6586
  324MOL0     C43644   9.939   7.782   6.816 -0.3927 -0.8929 -0.4486
  324MOL0     C43645  10.075   7.712   6.795 -0.7308  0.9448  0.2321
  324MOL0     C43646  10.070   7.590   6.709 -0.0008  0.2136  0.3375
  324MOL0     C43647  10.212   7.512   6.698  0.1215  0.0342 -0.2512
  324MOL0     C43648  10.219   7.455   6.555  0.7620 -0.1536 -0.7325
  324MOL0     C43649  10.339   7.361   6.539  0.2340  0.7846  0.3033
  324MOL0    Cl43650  10.295   7.209   6.628  0.0761  0.3828 -0.1472
  324MOL0     C43651   9.602   8.188   6.712 -0.4319 -0.1971  0.2402
  324MOL0     C43652   9.476   8.247   6.721  0.0302  0.6686 -0.5611
  324MOL0     O43653   9.224   8.252   6.601  0.0545  0.1453 -0.2933
  324MOL0     C43654   8.976   8.330   6.620  0.0349  0.2987 -0.1004
  324MOL0     C43655   8.847   8.383   6.620  0.2758 -0.6229  0.2640
  324MOL0     N43656   8.170   8.853   6.800 -0.0260 -0.2038 -0.0839
  324MOL0     N43657   8.131   8.930   6.892  0.0065  0.0683 -0.7292
  324MOL0     C43658   9.197   8.727   7.639  1.2742 -0.4206 -0.8924
  324MOL0     C43659   9.327   8.689   7.618 -0.5491 -0.2546  0.8807
  324MOL0     C43660   9.742   8.641   7.558 -0.7678 -0.5171 -0.9302
  324MOL0     C43661   9.754   8.515   7.523  0.6229  0.2602 -0.5472
  324MOL0     C43662   9.869   8.441   7.534 -0.0611  0.0836  0.7166
  324MOL0     C43663   9.989   8.504   7.560  0.0442 -0.6775  0.6069
  324MOL0     O43664  10.113   8.439   7.566 -0.0056 -0.1481 -0.1608
  324MOL0     C43665  10.144   8.330   7.479 -0.0409  0.0804 -0.0987
  324MOL0     C43666  10.077   8.317   7.331 -0.4442  0.2744  0.5525
  324MOL0     C43667  10.074   8.452   7.251  0.1321 -0.1213 -0.1872
  324MOL0     C43668  10.212   8.535   7.258  1.3309  0.4555  0.7184
  324MOL0     C43669  10.322   8.450   7.222  0.4162 -0.4694  0.7104
  324MOL0     C43670  10.399   8.358   7.210  0.0014 -0.3944  0.1377
  324MOL0     C43671   9.980   8.646   7.594 -0.5051 -0.0482 -0.1064
  324MOL0     C43672   9.861   8.714   7.588 -0.4486  0.2663 -0.0373
  324MOL0     H43673   9.358   8.739   7.283  0.0237  4.3411  0.0687
  324MOL0     H43674   9.102   8.784   7.310  1.0122 -1.6040 -1.5077
  324MOL0     H43675   8.903   8.953   7.510 -0.3013  1.2035 -2.4143
  324MOL0     H43676   8.901   8.845   7.373 -1.7692 -0.0206 -0.7668
  324MOL0     H43677   8.731   8.720   7.487  0.3975  0.4167 -1.7072
  324MOL0     H43678   8.708   8.824   7.623 -4.4745 -4.4220 -1.5047
  324MOL0     H43679   8.632   9.010   7.447 -0.4870 -0.2806 -0.8290
  324MOL0     H43680   8.682   8.900   7.331  2.7513 -0.2756  2.3774
  324MOL0     H43681   8.495   8.733   7.413 -1.8527  0.0062  0.1780
  324MOL0     H43682   8.498   8.818   7.561 -2.9854  0.3883  0.1526
  324MOL0     H43683   8.295   8.891   7.436  0.4728  1.2348  0.6351
  324MOL0     H43684   8.396   9.034   7.452  2.6736  1.7053 -1.6630
  324MOL0     H43685   8.463   9.008   7.213 -0.2752 -0.1999 -0.0745
  324MOL0     H43686   8.390   8.857   7.202  1.2690  0.7940 -2.5502
  324MOL0     H43687   8.167   8.945   7.229  1.6532 -1.9932 -0.4219
  324MOL0     H43688   8.223   9.103   7.289  0.0950 -1.2539  1.8901
  324MOL0     H43689   8.303   9.154   7.045  1.0848 -0.7876  1.9903
  324MOL0     H43690   8.132   9.134   7.058 -0.7448 -1.4760  4.1307
  324MOL0     H43691   8.449   8.951   6.930  0.7226 -0.2031 -0.0351
  324MOL0     H43692   8.344   8.729   6.628  0.9806 -1.0418  0.8409
  324MOL0     H43693   8.492   8.785   6.717  0.7819 -0.0584  0.3272
  324MOL0     H43694   8.285   8.606   6.815 -0.0954  1.6282  0.7432
  324MOL0     H43695   8.453   8.644   6.890  0.5414  0.0397  0.3114
  324MOL0     H43696   8.357   8.464   6.665  1.1233  0.3983 -1.3463
  324MOL0     H43697   8.463   8.431   6.815  0.5969  2.6972  1.3620
  324MOL0     H43698   8.559   8.569   6.570 -1.0159 -3.9744 -3.5854
  324MOL0     H43699   8.577   8.402   6.589 -1.9572 -0.3117  0.7498
  324MOL0     H43700   8.874   8.557   6.908 -1.7276  0.2267 -1.1712
  324MOL0     H43701   9.106   8.393   7.022 -0.0403  0.6540  0.4286
  324MOL0     H43702   9.209   8.488   6.910 -1.5807  0.4550 -2.5902
  324MOL0     H43703   9.074   8.569   6.989 -0.9841 -0.1500  0.6867
  324MOL0     H43704   9.382   8.068   7.015  2.6821  0.4385  2.1907
  324MOL0     H43705   9.589   7.978   6.980  1.1320  2.2725  2.9655
  324MOL0     H43706   9.692   7.854   6.737 -1.4773  2.4049  3.0269
  324MOL0     H43707   9.732   7.954   6.601  0.6774  0.1829 -0.4452
  324MOL0     H43708   9.901   7.782   6.601  0.2613 -2.8406  1.4159
  324MOL0     H43709   9.979   7.926   6.658  0.8152 -1.3807  0.1871
  324MOL0     H43710   9.862   7.708   6.839 -1.7691  0.3160 -1.0610
  324MOL0     H43711   9.942   7.857   6.896  2.2533 -1.5497  0.1696
  324MOL0     H43712  10.140   7.781   6.741  0.8111 -0.7034 -0.1272
  324MOL0     H43713  10.110   7.680   6.894 -2.4494  0.0924  0.6156
  324MOL0     H43714  10.037   7.607   6.606 -0.0678  0.3289  0.3769
  324MOL0     H43715  10.004   7.519   6.760  2.0572 -2.7121 -0.8796
  324MOL0     H43716  10.293   7.577   6.730 -1.2763  2.6401 -1.6938
  324MOL0     H43717  10.201   7.422   6.759 -0.6964 -0.9700 -1.8000
  324MOL0     H43718  10.236   7.544   6.493  2.1605 -0.1805 -0.4111
  324MOL0     H43719  10.126   7.404   6.529  1.5752 -1.5130 -1.0735
  324MOL0     H43720  10.433   7.412   6.563  0.0133  1.5838 -0.4281
  324MOL0     H43721  10.351   7.326   6.436 -1.1705 -0.2809  0.4695
  324MOL0     H43722   9.662   8.207   6.624  0.7063  1.0899  1.2476
  324MOL0     H43723   9.449   8.327   6.652  2.5680  3.0240  0.9674
  324MOL0     H43724   9.005   8.255   6.547 -2.7042 -2.5104  1.4241
  324MOL0     H43725   8.777   8.368   6.539 -0.6644 -0.3343  1.0135
  324MOL0     H43726   9.151   8.727   7.737  2.8351 -2.4240 -0.0670
  324MOL0     H43727   9.388   8.653   7.701  0.3457 -1.6989 -0.3452
  324MOL0     H43728   9.658   8.464   7.520 -0.6899  2.5845  0.1446
  324MOL0     H43729   9.862   8.333   7.537 -0.5197  0.0079 -1.4399
  324MOL0     H43730  10.250   8.310   7.462 -0.1675 -2.2891  1.5078
  324MOL0     H43731  10.105   8.242   7.531  0.3328  1.2247  2.2071
  324MOL0     H43732   9.974   8.280   7.336 -1.1824  1.9702 -1.0059
  324MOL0     H43733  10.131   8.241   7.272 -1.7935 -0.5916  0.3650
  324MOL0     H43734  10.009   8.519   7.308  0.6025  1.4114 -1.4015
  324MOL0     H43735  10.036   8.455   7.149 -1.5405 -0.7548  0.3798
  324MOL0     H43736  10.236   8.571   7.358  2.0005 -0.3589  0.8605
  324MOL0     H43737  10.217   8.613   7.182  0.3622 -0.0222  0.1358
  324MOL0     H43738  10.463   8.272   7.210 -1.0966 -1.3019 -2.1868
  324MOL0     H43739  10.076   8.692   7.614 -1.3909  1.1557  1.6110
  324MOL0     H43740   9.860   8.822   7.602 -3.5299  0.4244 -0.7062
  325MOL0     O43741   9.075   1.874   9.323 -0.1984  0.4905  0.7029
  325MOL0     C43742   9.072   1.912   9.203 -0.4214 -0.1034 -0.2369
  325MOL0     O43743   8.971   1.969   9.141 -0.4498 -0.4083 -0.1476
  325MOL0     C43744   8.846   1.968   9.197  0.7043 -0.4954  0.8200
  325MOL0     C43745   8.778   1.851   9.207  0.1096  1.1446 -0.3632
  325MOL0     C43746   8.644   1.851   9.263 -0.4139  0.2961  0.5594
  325MOL0     C43747   8.581   1.971   9.295 -0.5973 -0.1996  0.0467
  325MOL0     O43748   8.449   1.965   9.339 -0.5964  0.7068 -0.2846
  325MOL0     C43749   8.428   2.047   9.450 -0.3891 -0.4287 -0.4628
  325MOL0     C43750   8.287   2.000   9.491  0.3274  0.1840  0.5305
  325MOL0     C43751   8.204   2.090   9.581 -0.2262  0.2012 -0.4264
  325MOL0     C43752   8.055   2.082   9.532  0.6991  0.1035  0.0878
  325MOL0     C43753   7.972   2.152   9.644  0.2942 -0.1232 -0.6806
  325MOL0     C43754   8.005   2.305   9.664  0.4612  0.2521  0.1780
  325MOL0     C43755   7.929   2.385   9.759  0.7506 -0.3194 -0.0187
  325MOL0     C43756   7.812   2.464   9.697  0.3674 -0.3176  0.3428
  325MOL0     N43757   7.762   2.574   9.787  0.2473 -0.1769  0.1731
  325MOL0     C43758   7.635   2.582   9.829  0.0742  0.4049  0.5054
  325MOL0     C43759   7.625   2.710   9.880 -0.4398 -0.5992  0.8511
  325MOL0     C43760   7.512   2.752   9.969  0.9806 -0.1297  0.7871
  325MOL0     C43761   7.383   2.748   9.882  0.2164 -0.3120 -0.1747
  325MOL0     C43762   7.282   2.840   9.951  0.3578  0.3956 -0.5519
  325MOL0     C43763   7.160   2.841   9.863 -0.4031  0.0073  0.1201
  325MOL0     O43764   7.053   2.913   9.923 -0.0370  0.2904  0.2774
  325MOL0     C43765   6.935   2.919   9.853  0.6535  0.0941  0.2763
  325MOL0     C43766   6.837   2.992   9.917  0.6862 -0.1460 -0.0295
  325MOL0     C43767   6.710   3.018   9.868  0.5859  1.0342 -0.5669
  325MOL0     C43768   6.614   3.095   9.964 -0.8197 -0.0405 -0.2611
  325MOL0     C43769   6.671   2.957   9.745  0.1590  0.4214 -0.5861
  325MOL0     C43770   6.530   2.950   9.701  0.1205 -1.3298  0.0160
  325MOL0     O43771   6.472   2.845   9.654  0.3571  0.9548  0.0715
  325MOL0     C43772   6.334   2.833   9.650  0.5303  0.3556  0.8109
  325MOL0     C43773   6.252   2.893   9.752 -0.1489 -0.0090  0.5652
  325MOL0     C43774   6.110   2.904   9.731 -0.8072 -0.2175 -0.4061
  325MOL0     C43775   6.050   2.833   9.629 -0.1791  0.2155 -0.2541
  325MOL0     O43776   5.918   2.827   9.631  1.1054 -0.2599 -0.6595
  325MOL0     C43777   5.845   2.749   9.534 -0.0385 -0.8463  0.1871
  325MOL0     C43778   5.699   2.730   9.588 -0.2460  0.0637 -0.1208
  325MOL0     C43779   5.621   2.646   9.485 -0.7172  0.3536  0.0295
  325MOL0     C43780   5.568   2.719   9.368 -0.5785 -0.3324 -0.0842
  325MOL0     C43781   5.451   2.646   9.301  0.2525  0.0776 -0.3818
  325MOL0     C43782   5.467   2.489   9.267  0.6733  0.3086 -0.0254
  325MOL0     C43783   5.348   2.430   9.181 -0.1904  0.2235  0.2121
  325MOL0     C43784   5.331   2.269   9.187 -0.0864  0.3415 -0.7234
  325MOL0    Cl43785   5.236   2.220   9.330  0.4546  0.3871 -0.0889
  325MOL0     C43786   6.135   2.756   9.539  1.1500  0.5337 -0.6823
  325MOL0     C43787   6.267   2.766   9.546 -0.3136  0.0816 -1.2172
  325MOL0     O43788   6.477   3.059   9.709 -0.4346 -0.8686 -0.4415
  325MOL0     C43789   6.766   2.879   9.677 -0.0917  0.6412 -0.4137
  325MOL0     C43790   6.898   2.862   9.727 -0.2893  0.2992  0.2050
  325MOL0     N43791   7.743   2.773   9.869  0.1185  0.5844  0.2019
  325MOL0     N43792   7.830   2.694   9.814 -0.1008 -0.0774 -0.3335
  325MOL0     C43793   8.645   2.099   9.269  0.1232 -0.0646  0.5975
  325MOL0     C43794   8.780   2.092   9.229  0.9169 -0.5040  1.0358
  325MOL0     C43795   9.198   1.876   9.130  0.0708 -0.0815  0.3314
  325MOL0     C43796   9.317   1.848   9.195  0.3253  0.4597  0.7529
  325MOL0     C43797   9.437   1.830   9.136  0.1331 -0.1755  0.4291
  325MOL0     C43798   9.445   1.802   9.001  0.2498 -0.0266  0.1896
  325MOL0     O43799   9.566   1.781   8.944  0.1192  0.0166 -0.2737
  325MOL0     C43800   9.575   1.707   8.822 -0.6988  0.9709 -0.2151
  325MOL0     C43801   9.718   1.671   8.792 -0.7633  0.3178 -0.4841
  325MOL0     C43802   9.795   1.593   8.903  0.6863  0.2653  0.6544
  325MOL0     C43803   9.943   1.551   8.871  0.1180 -0.3196 -0.6532
  325MOL0     C43804   9.940   1.441   8.776 -0.5922 -0.0136  1.4409
  325MOL0     C43805   9.940   1.344   8.699 -0.2360 -0.5231 -0.8335
  325MOL0     C43806   9.319   1.828   8.933 -0.5959  0.0816 -0.4996
  325MOL0     C43807   9.198   1.861   8.995 -0.4890 -0.3892  0.5118
  325MOL0     H43808   8.819   1.754   9.183  0.2072  1.2225 -0.5103
  325MOL0     H43809   8.594   1.755   9.264  1.3722 -0.6815  1.7193
  325MOL0     H43810   8.499   2.037   9.532  0.7330 -0.1552 -1.3708
  325MOL0     H43811   8.417   2.153   9.426 -0.6476  0.2170  2.2405
  325MOL0     H43812   8.244   1.993   9.391  1.3006  1.9045 -0.0422
  325MOL0     H43813   8.294   1.903   9.542  4.1832  1.2559  2.4049
  325MOL0     H43814   8.219   2.046   9.680  1.1288 -1.8823 -1.4733
  325MOL0     H43815   8.240   2.193   9.587  0.8617 -0.0991 -1.3596
  325MOL0     H43816   8.035   2.130   9.436  2.9103 -2.5882 -1.8680
  325MOL0     H43817   8.017   1.980   9.522 -0.6117  0.5189  0.5285
  325MOL0     H43818   7.865   2.142   9.625  0.1270 -0.6725  0.4400
  325MOL0     H43819   7.988   2.100   9.739  1.0672  2.0059  0.4272
  325MOL0     H43820   8.108   2.316   9.697 -0.0770  2.7585  1.2226
  325MOL0     H43821   8.003   2.355   9.567  0.6225  0.9355  0.5194
  325MOL0     H43822   7.882   2.331   9.841  0.3630  2.0749  1.4313
  325MOL0     H43823   8.002   2.450   9.808  0.8924  0.8939 -1.7401
  325MOL0     H43824   7.726   2.409   9.659  1.9228 -0.8694 -2.6887
  325MOL0     H43825   7.843   2.519   9.608  0.9249 -0.6420  0.3287
  325MOL0     H43826   7.559   2.505   9.821 -0.4821  1.0441 -5.6287
  325MOL0     H43827   7.500   2.672  10.042 -2.8407 -0.2585  0.2044
  325MOL0     H43828   7.538   2.846  10.018  2.5771 -0.0055 -0.2213
  325MOL0     H43829   7.337   2.650   9.872  0.1371 -0.4956  1.7058
  325MOL0     H43830   7.415   2.783   9.783  1.1699 -1.9858 -0.4995
  325MOL0     H43831   7.317   2.943   9.958  1.8729 -0.1741  1.0425
  325MOL0     H43832   7.250   2.782  10.038 -0.9268 -0.0564 -1.2953
  325MOL0     H43833   7.125   2.738   9.849 -0.6408 -0.2471  2.2458
  325MOL0     H43834   7.176   2.884   9.764  0.4398  1.8833  1.0217
  325MOL0     H43835   6.877   3.049  10.000  0.7089 -1.6311  1.0285
  325MOL0     H43836   6.559   3.182   9.926  0.2036  1.7102  2.0498
  325MOL0     H43837   6.530   3.026   9.977  0.0929 -1.3782 -1.1230
  325MOL0     H43838   6.657   3.124  10.060 -1.3634  3.9394 -1.0164
  325MOL0     H43839   6.292   2.951   9.834 -0.3628  3.7623 -1.7671
  325MOL0     H43840   6.042   2.959   9.794  0.4774 -1.3631  2.1135
  325MOL0     H43841   5.836   2.802   9.439  0.8234 -3.4611 -1.4735
  325MOL0     H43842   5.892   2.652   9.512  0.7535 -0.3927 -0.1985
  325MOL0     H43843   5.701   2.671   9.679 -0.5150  1.7223  1.0010
  325MOL0     H43844   5.647   2.825   9.605 -0.0042  0.1557  0.1267
  325MOL0     H43845   5.529   2.625   9.542 -1.3899  0.6497 -0.9234
  325MOL0     H43846   5.666   2.553   9.449  1.0871  1.4430 -0.6531
  325MOL0     H43847   5.532   2.811   9.413  2.3724 -0.5751  3.2144
  325MOL0     H43848   5.648   2.744   9.299 -0.8778  0.5328 -0.1254
  325MOL0     H43849   5.440   2.709   9.212  1.8404  0.4415 -0.3519
  325MOL0     H43850   5.362   2.657   9.364  0.1735 -0.1296 -0.4548
  325MOL0     H43851   5.559   2.476   9.209 -0.2061 -2.6596 -0.9058
  325MOL0     H43852   5.479   2.423   9.353  0.7887  1.7809  1.1206
  325MOL0     H43853   5.353   2.476   9.082  0.8474 -1.4879 -0.5727
  325MOL0     H43854   5.261   2.468   9.236  0.7091  2.3718  0.2397
  325MOL0     H43855   5.430   2.222   9.197  0.2423  1.5556  4.1117
  325MOL0     H43856   5.280   2.233   9.097 -0.6469 -1.6499  0.3302
  325MOL0     H43857   6.085   2.691   9.468  3.1435 -2.9722  0.8594
  325MOL0     H43858   6.321   2.717   9.466 -0.0816 -1.8929  0.0671
  325MOL0     H43859   6.743   2.810   9.596  1.9495 -2.0113  1.1128
  325MOL0     H43860   6.962   2.786   9.684 -4.1103 -2.0656 -1.8332
  325MOL0     H43861   8.603   2.197   9.290  1.7012  0.9009 -0.5797
  325MOL0     H43862   8.839   2.182   9.217  2.0820 -1.5637 -2.6245
  325MOL0     H43863   9.313   1.880   9.299 -2.4039 -0.5484  1.0405
  325MOL0     H43864   9.530   1.816   9.192  0.1635 -1.9924 -0.0306
  325MOL0     H43865   9.524   1.611   8.837 -0.6530  0.9581 -0.1411
  325MOL0     H43866   9.529   1.759   8.738  1.8355  2.0492 -1.0031
  325MOL0     H43867   9.772   1.762   8.765 -0.3895 -0.3314 -2.0543
  325MOL0     H43868   9.721   1.613   8.699  1.9344 -0.6571  0.1166
  325MOL0     H43869   9.738   1.503   8.928 -0.3235  0.2495 -1.4628
  325MOL0     H43870   9.795   1.659   8.990 -1.2260  1.0496  0.1117
  325MOL0     H43871   9.998   1.524   8.961 -1.8501  2.3017  1.5077
  325MOL0     H43872   9.992   1.637   8.825 -1.0796 -1.1288 -3.7253
  325MOL0     H43873   9.934   1.259   8.633 -3.1717  0.0592 -1.4567
  325MOL0     H43874   9.316   1.820   8.825 -0.6467 -0.9884 -0.4308
  325MOL0     H43875   9.108   1.876   8.936 -0.9670  2.0644  1.7161
  326MOL0     O43876   2.587   1.392   2.270 -0.6017 -0.1240 -0.1063
  326MOL0     C43877   2.555   1.305   2.351 -0.6531  0.3125 -0.6929
  326MOL0     O43878   2.437   1.239   2.350  0.0054 -0.1909 -0.1348
  326MOL0     C43879   2.327   1.238   2.263 -1.0496 -1.0421  0.0779
  326MOL0     C43880   2.293   1.328   2.162  0.9235  0.7855  0.5630
  326MOL0     C43881   2.182   1.299   2.082 -0.5275  0.7536  0.3375
  326MOL0     C43882   2.106   1.185   2.098 -0.4997 -0.2837  1.0292
  326MOL0     O43883   2.010   1.129   2.021 -0.3169 -0.5065  0.7229
  326MOL0     C43884   1.913   1.207   1.950  0.3617  0.0380 -0.3038
  326MOL0     C43885   1.853   1.330   2.030 -0.0346  0.1455 -0.2095
  326MOL0     C43886   1.750   1.411   1.951 -0.2368  0.6621  0.0873
  326MOL0     C43887   1.778   1.430   1.797 -0.3838  1.0463  0.1473
  326MOL0     C43888   1.699   1.550   1.729  0.5305 -0.1911  0.3193
  326MOL0     C43889   1.626   1.524   1.596  1.0805 -0.1428 -0.2237
  326MOL0     C43890   1.722   1.525   1.476 -0.0356  0.0741 -0.5308
  326MOL0     C43891   1.673   1.600   1.355  0.3275  0.5372 -0.5130
  326MOL0     N43892   1.563   1.521   1.289  0.0726 -0.1423 -0.3799
  326MOL0     C43893   1.565   1.390   1.266 -0.1134  0.0427  0.1446
  326MOL0     C43894   1.445   1.346   1.239 -0.2885 -1.1498 -0.5293
  326MOL0     C43895   1.398   1.200   1.205 -0.5875  0.6039 -0.7126
  326MOL0     C43896   1.417   1.177   1.058  0.8048 -0.3404 -0.7626
  326MOL0     C43897   1.363   1.048   1.001  0.3706  1.3449 -0.4156
  326MOL0     C43898   1.222   1.004   1.036 -0.6390  0.4584 -0.7568
  326MOL0     O43899   1.181   0.884   0.971 -0.7127 -0.2646  0.0394
  326MOL0     C43900   1.084   0.801   1.028  0.7450  0.0014 -0.3053
  326MOL0     C43901   1.048   0.689   0.958 -0.6410  0.2012  0.5390
  326MOL0     C43902   0.971   0.580   1.008  0.5890 -1.0807 -0.1387
  326MOL0     C43903   0.955   0.452   0.934  0.1218  0.2602 -0.6697
  326MOL0     C43904   0.921   0.591   1.140 -0.4296  0.1563  0.5648
  326MOL0     C43905   0.855   0.494   1.213  0.2987 -0.1031  0.2087
  326MOL0     O43906   0.744   0.429   1.163 -0.6677  0.0449 -0.8424
  326MOL0     C43907   0.669   0.349   1.246 -0.4474 -0.0885  0.3481
  326MOL0     C43908   0.717   0.260   1.348  1.4867 -0.4021  0.2060
  326MOL0     C43909   0.631   0.165   1.408  0.3790 -0.0667 -0.0370
  326MOL0     C43910   0.496   0.162   1.360  0.0923 -0.3526 -0.3278
  326MOL0     O43911   0.415   0.066   1.422  0.6113  0.4507 -0.8783
  326MOL0     C43912   0.448  -0.056   1.358  0.1948 -0.0257 -0.1526
  326MOL0     C43913   0.355  -0.165   1.409  0.7145 -0.2579  0.4175
  326MOL0     C43914   0.208  -0.153   1.353  0.1749  0.3050 -0.5790
  326MOL0     C43915   0.115  -0.258   1.417  0.3303 -0.2734  0.0219
  326MOL0     C43916  -0.041  -0.247   1.397 -0.0652  0.8704  0.2859
  326MOL0     C43917  -0.111  -0.367   1.443 -0.7636 -0.0115 -0.0237
  326MOL0     C43918  -0.260  -0.376   1.388  0.6626  0.0549  0.2314
  326MOL0     C43919  -0.345  -0.258   1.434  0.5119 -0.5167 -0.7493
  326MOL0    Cl43920  -0.486  -0.223   1.319  0.3111 -0.2044 -0.0119
  326MOL0     C43921   0.448   0.246   1.257  0.5666  0.0694  0.4740
  326MOL0     C43922   0.536   0.340   1.207 -0.4766  0.1533 -0.6029
  326MOL0     O43923   0.894   0.478   1.328  0.6345 -0.7864  0.9029
  326MOL0     C43924   0.949   0.705   1.219 -0.2924 -0.0488  0.8867
  326MOL0     C43925   1.023   0.807   1.156 -0.1437 -0.3642 -0.4180
  326MOL0     N43926   1.366   1.451   1.256 -0.8789  0.3702  0.4572
  326MOL0     N43927   1.433   1.555   1.287 -0.2304 -0.1777  1.0316
  326MOL0     C43928   2.129   1.102   2.203 -0.0876 -0.4359 -0.4336
  326MOL0     C43929   2.246   1.125   2.288 -0.3994 -0.2087  0.4373
  326MOL0     C43930   2.639   1.288   2.473  0.1075  0.6503  0.7403
  326MOL0     C43931   2.624   1.179   2.561  0.4366  0.8099  0.9302
  326MOL0     C43932   2.698   1.162   2.673 -0.9583  0.4452  0.3372
  326MOL0     C43933   2.800   1.261   2.701 -0.7433  0.6737  0.1222
  326MOL0     O43934   2.892   1.232   2.803  0.1360 -0.2411 -0.8638
  326MOL0     C43935   2.983   1.330   2.830 -0.4409  0.4982 -0.3667
  326MOL0     C43936   2.920   1.462   2.889  0.7916 -0.1207  0.1765
  326MOL0     C43937   2.826   1.434   3.007 -0.9010 -0.3704 -0.4060
  326MOL0     C43938   2.879   1.457   3.150 -1.3864 -0.4364 -0.7460
  326MOL0     C43939   3.023   1.415   3.167  0.2209 -0.2991  0.1834
  326MOL0     C43940   3.137   1.380   3.195  0.2185 -0.3105  1.2973
  326MOL0     C43941   2.823   1.368   2.607  0.6670  0.7987 -0.1061
  326MOL0     C43942   2.741   1.380   2.499  1.2458 -0.1909 -0.6592
  326MOL0     H43943   2.353   1.417   2.141  0.4969  1.3212  1.5545
  326MOL0     H43944   2.161   1.349   1.988  0.9955  0.5195 -0.1655
  326MOL0     H43945   1.949   1.234   1.850 -0.6277  1.0676 -0.3955
  326MOL0     H43946   1.828   1.141   1.935  0.5479 -0.5528  1.0450
  326MOL0     H43947   1.806   1.288   2.119  0.4591 -2.0751 -0.9128
  326MOL0     H43948   1.942   1.384   2.063  0.8470 -0.1665 -1.9264
  326MOL0     H43949   1.653   1.360   1.957  1.9113 -4.3062 -1.5463
  326MOL0     H43950   1.743   1.505   2.006  0.5062  1.4461 -1.1118
  326MOL0     H43951   1.883   1.455   1.784  0.8109 -3.7011 -1.8181
  326MOL0     H43952   1.759   1.337   1.743 -0.5670  1.4555 -0.5061
  326MOL0     H43953   1.616   1.583   1.792 -0.1354 -2.4744  0.7464
  326MOL0     H43954   1.765   1.635   1.715 -0.1253  0.1294 -0.9140
  326MOL0     H43955   1.571   1.429   1.600  2.1706 -0.7826 -0.0217
  326MOL0     H43956   1.555   1.606   1.579  0.6555 -0.3328  0.5773
  326MOL0     H43957   1.811   1.582   1.504  1.2163 -1.5182 -1.0888
  326MOL0     H43958   1.757   1.425   1.447 -2.0403 -0.7565 -0.2382
  326MOL0     H43959   1.751   1.613   1.280 -0.4575  1.3690 -1.2072
  326MOL0     H43960   1.637   1.700   1.377  2.3210  0.5139  3.7079
  326MOL0     H43961   1.654   1.329   1.274 -0.1895 -0.1202 -0.2478
  326MOL0     H43962   1.460   1.128   1.259 -1.0140 -1.4670 -2.8208
  326MOL0     H43963   1.298   1.182   1.247 -1.3813  3.4429 -1.1450
  326MOL0     H43964   1.526   1.184   1.045  0.7773  1.3965 -0.2650
  326MOL0     H43965   1.375   1.256   0.996 -1.1673 -3.1324 -3.2924
  326MOL0     H43966   1.420   0.973   1.056 -1.3424 -0.1913 -0.6154
  326MOL0     H43967   1.378   1.039   0.893  1.4016 -1.6203 -0.1034
  326MOL0     H43968   1.150   1.077   0.997  1.3168  0.7676 -4.2374
  326MOL0     H43969   1.207   1.000   1.144 -0.4618 -0.4728 -0.7567
  326MOL0     H43970   1.092   0.686   0.858 -0.8669 -0.1858  0.4478
  326MOL0     H43971   1.051   0.401   0.938  0.5344  1.0911  0.3150
  326MOL0     H43972   0.876   0.389   0.976  1.4138  0.5416  2.4640
  326MOL0     H43973   0.926   0.472   0.830 -1.1117  3.2972  0.1498
  326MOL0     H43974   0.823   0.260   1.371  1.9043  2.6615 -1.2739
  326MOL0     H43975   0.665   0.108   1.493  0.9219 -0.0531 -0.2370
  326MOL0     H43976   0.448  -0.047   1.249 -0.3370 -1.6722 -0.3198
  326MOL0     H43977   0.553  -0.075   1.380  0.3923  1.4685  0.2685
  326MOL0     H43978   0.400  -0.259   1.375  0.7644 -0.8068  1.9206
  326MOL0     H43979   0.348  -0.164   1.518 -0.4479  1.5908  0.3588
  326MOL0     H43980   0.204  -0.156   1.244 -0.1871 -0.9502 -0.5505
  326MOL0     H43981   0.178  -0.050   1.371  0.7874  1.1034 -3.5189
  326MOL0     H43982   0.152  -0.359   1.399  0.2174 -0.0822 -1.3594
  326MOL0     H43983   0.122  -0.245   1.526 -0.3670  0.7910 -0.0446
  326MOL0     H43984  -0.046  -0.247   1.288  1.8898  1.9189  0.1525
  326MOL0     H43985  -0.084  -0.154   1.437  2.4686  0.6100  4.1124
  326MOL0     H43986  -0.050  -0.448   1.403 -0.9989 -0.4798  0.5635
  326MOL0     H43987  -0.108  -0.375   1.552  0.6594  1.5163  0.0965
  326MOL0     H43988  -0.314  -0.464   1.425  1.7093 -0.9372 -0.4988
  326MOL0     H43989  -0.267  -0.384   1.279  0.5476  0.0191  0.2410
  326MOL0     H43990  -0.289  -0.164   1.443 -2.3271  1.3730 -1.5588
  326MOL0     H43991  -0.376  -0.279   1.536 -0.3498  2.5367 -0.2920
  326MOL0     H43992   0.342   0.246   1.236  0.3947  0.9432  1.2352
  326MOL0     H43993   0.509   0.406   1.126  1.1573  0.1122 -1.2204
  326MOL0     H43994   0.916   0.710   1.322  0.3805 -0.2395  1.1178
  326MOL0     H43995   1.045   0.902   1.204  1.5360 -0.6620 -0.5284
  326MOL0     H43996   2.076   1.008   2.216 -1.5287  0.3319 -0.5269
  326MOL0     H43997   2.265   1.064   2.376 -1.1247  1.1316  1.5748
  326MOL0     H43998   2.551   1.105   2.531  0.7923  0.9537 -0.3735
  326MOL0     H43999   2.690   1.077   2.740  2.1109 -0.5460 -0.4074
  326MOL0     H44000   3.057   1.286   2.896 -1.6902  1.6611  1.9109
  326MOL0     H44001   3.039   1.353   2.739  3.1885 -0.2064  1.5035
  326MOL0     H44002   2.866   1.520   2.814  0.5330 -1.7539 -0.9542
  326MOL0     H44003   3.005   1.529   2.906  1.5994 -0.2372 -2.8433
  326MOL0     H44004   2.793   1.330   3.003 -0.5187 -0.4759 -0.7772
  326MOL0     H44005   2.735   1.495   3.004 -0.3476  0.5272  0.2364
  326MOL0     H44006   2.814   1.401   3.217  1.8477 -3.3871  0.2283
  326MOL0     H44007   2.871   1.565   3.169 -1.4192 -0.0697 -2.6503
  326MOL0     H44008   3.240   1.350   3.203  1.3920  3.2170  0.9266
  326MOL0     H44009   2.898   1.446   2.608  1.4348  0.0710  1.4243
  326MOL0     H44010   2.765   1.454   2.422 -1.0711 -0.3093 -1.5742
  327MOL0     O44011   7.565   2.666  11.204 -0.5146 -0.4995  0.5050
  327MOL0     C44012   7.593   2.556  11.238  0.3318  0.5654 -0.0412
  327MOL0     O44013   7.502   2.456  11.273  0.0420 -0.7419 -0.7927
  327MOL0     C44014   7.379   2.439  11.223  0.3127 -0.1746  0.8617
  327MOL0     C44015   7.324   2.513  11.120 -0.4521 -0.3351 -0.4109
  327MOL0     C44016   7.200   2.482  11.071  1.4512 -0.6232  0.3640
  327MOL0     C44017   7.119   2.378  11.129 -0.3035  0.3687  0.2283
  327MOL0     O44018   6.990   2.365  11.084  0.4206 -0.1383  0.6091
  327MOL0     C44019   6.918   2.256  11.119 -0.7722 -0.3673  0.4037
  327MOL0     C44020   6.774   2.279  11.083 -0.0855 -0.3474 -1.1483
  327MOL0     C44021   6.712   2.371  11.194 -0.0545  0.1563 -0.9176
  327MOL0     C44022   6.573   2.423  11.154 -0.1772  0.3123 -0.5066
  327MOL0     C44023   6.519   2.523  11.264  0.1883 -0.3673 -0.1796
  327MOL0     C44024   6.392   2.593  11.216  0.1789  0.2526 -0.8365
  327MOL0     C44025   6.351   2.704  11.315  0.0109 -0.3853  0.3932
  327MOL0     C44026   6.212   2.746  11.286  0.3491 -0.9078 -0.2164
  327MOL0     N44027   6.138   2.738  11.403  0.5904  0.0928 -0.0799
  327MOL0     C44028   6.099   2.632  11.481  0.1652  0.2570 -0.6514
  327MOL0     C44029   6.017   2.678  11.581 -0.6295  0.5947 -0.1383
  327MOL0     C44030   5.960   2.593  11.693  0.0457  0.4439 -0.4517
  327MOL0     C44031   5.991   2.640  11.843  0.1689 -0.6067 -0.1319
  327MOL0     C44032   5.919   2.756  11.909 -0.1501 -0.0892  0.7267
  327MOL0     C44033   5.773   2.783  11.859 -0.9099 -0.7010  0.5122
  327MOL0     O44034   5.704   2.658  11.892  0.5249 -0.4490  0.5058
  327MOL0     C44035   5.589   2.633  11.815  0.8097  0.2997  0.8854
  327MOL0     C44036   5.497   2.734  11.780  0.3434 -0.4605 -0.2473
  327MOL0     C44037   5.370   2.714  11.718 -0.5289 -0.3100  0.1886
  327MOL0     C44038   5.273   2.831  11.687  0.9874  0.4183 -0.7127
  327MOL0     C44039   5.336   2.582  11.684 -0.1575 -0.2548 -0.3425
  327MOL0     C44040   5.210   2.541  11.614  0.0803 -0.2330  0.6265
  327MOL0     O44041   5.102   2.512  11.706  0.5368 -0.2321  0.0165
  327MOL0     C44042   4.997   2.446  11.647 -0.8418  0.9051  0.1933
  327MOL0     C44043   5.003   2.311  11.614  0.4648  0.0221  0.1583
  327MOL0     C44044   4.893   2.243  11.553  0.5567 -0.8771 -0.9235
  327MOL0     C44045   4.774   2.316  11.522  0.0665 -0.1957  0.2961
  327MOL0     O44046   4.661   2.266  11.455  0.1589 -0.4991 -0.1824
  327MOL0     C44047   4.606   2.136  11.477 -0.1570 -0.4151 -0.7085
  327MOL0     C44048   4.504   2.148  11.588  0.4667 -0.6125 -0.3914
  327MOL0     C44049   4.481   2.011  11.654 -0.1246  0.5137  0.1245
  327MOL0     C44050   4.359   2.000  11.757 -0.4015 -0.1557  0.0761
  327MOL0     C44051   4.321   1.854  11.788 -1.1792  0.8752  0.1102
  327MOL0     C44052   4.242   1.837  11.919 -0.0972 -0.2601 -0.2087
  327MOL0     C44053   4.107   1.908  11.909  0.3131 -0.4911 -0.4379
  327MOL0     C44054   4.024   1.888  12.030  0.4670  0.1034  1.1698
  327MOL0    Cl44055   3.883   1.997  12.014  0.2825  0.3748  0.1873
  327MOL0     C44056   4.765   2.443  11.574  0.3056 -0.5341 -0.5229
  327MOL0     C44057   4.873   2.510  11.637  0.0038 -0.0972  0.1981
  327MOL0     O44058   5.219   2.518  11.493 -0.2551 -0.3997  0.0253
  327MOL0     C44059   5.441   2.480  11.702  0.4475 -1.0036  0.2819
  327MOL0     C44060   5.559   2.505  11.771 -0.0434 -0.9371 -0.2360
  327MOL0     N44061   6.021   2.819  11.569 -0.2620 -1.1581  0.7347
  327MOL0     N44062   6.086   2.853  11.461 -1.1974 -0.0354 -0.1118
  327MOL0     C44063   7.185   2.308  11.243  0.3674 -0.2367  0.0837
  327MOL0     C44064   7.306   2.337  11.287 -0.1956 -0.4210  0.1342
  327MOL0     C44065   7.736   2.527  11.256  0.7385 -0.3352  0.2577
  327MOL0     C44066   7.836   2.573  11.172 -0.4485  0.7726  0.0075
  327MOL0     C44067   7.976   2.547  11.199  0.2090 -0.1562 -0.5772
  327MOL0     C44068   8.008   2.482  11.317 -0.4989 -0.2353  0.4881
  327MOL0     O44069   8.130   2.448  11.363  0.0943 -0.5576  0.5982
  327MOL0     C44070   8.238   2.527  11.306 -0.0634  0.7914 -0.7203
  327MOL0     C44071   8.374   2.468  11.340 -0.4594  0.2506 -0.2909
  327MOL0     C44072   8.482   2.564  11.293  0.2958  0.9999  0.1362
  327MOL0     C44073   8.594   2.580  11.394  0.2854  0.1091  1.0869
  327MOL0     C44074   8.701   2.678  11.349 -0.2664  0.2782  0.5481
  327MOL0     C44075   8.785   2.763  11.321 -0.6401 -0.5477 -0.1060
  327MOL0     C44076   7.904   2.428  11.397 -0.1292 -0.0876  0.2278
  327MOL0     C44077   7.772   2.453  11.368  0.5710 -0.3751 -0.6624
  327MOL0     H44078   7.386   2.589  11.072 -0.0806  0.2834  0.9810
  327MOL0     H44079   7.160   2.538  10.988  0.9240  0.9973  1.6468
  327MOL0     H44080   6.949   2.171  11.058  2.2805  0.6528  0.3977
  327MOL0     H44081   6.934   2.231  11.224 -0.3291 -0.2393  0.3667
  327MOL0     H44082   6.757   2.318  10.982  0.5400  0.3533 -0.9940
  327MOL0     H44083   6.729   2.181  11.101  0.7682 -0.4745  0.4025
  327MOL0     H44084   6.702   2.320  11.290 -2.5629  1.0964 -0.6077
  327MOL0     H44085   6.776   2.458  11.211 -2.8042  2.2663 -0.6302
  327MOL0     H44086   6.571   2.457  11.050  0.0363  0.1142 -0.5756
  327MOL0     H44087   6.516   2.330  11.159  0.5224 -0.2844 -2.6001
  327MOL0     H44088   6.489   2.475  11.357  0.0514  0.8997  0.4637
  327MOL0     H44089   6.595   2.601  11.279  0.9051 -1.3741  1.6634
  327MOL0     H44090   6.409   2.635  11.117  3.4048  0.8815 -0.1308
  327MOL0     H44091   6.310   2.520  11.211 -1.6683  1.9023  1.8656
  327MOL0     H44092   6.360   2.677  11.420 -1.4087  2.7360  1.4439
  327MOL0     H44093   6.414   2.793  11.304  0.4543 -0.9356 -2.3005
  327MOL0     H44094   6.161   2.700  11.201  3.1641 -0.4995 -2.3038
  327MOL0     H44095   6.227   2.852  11.267 -0.0857 -0.9159 -0.6139
  327MOL0     H44096   6.111   2.525  11.465  3.0250  0.3958  0.0719
  327MOL0     H44097   5.852   2.580  11.689 -0.0737 -0.1200  2.3160
  327MOL0     H44098   5.988   2.487  11.684 -0.6876 -0.3442  4.1555
  327MOL0     H44099   6.100   2.646  11.847  0.2689 -2.4373  1.0525
  327MOL0     H44100   5.973   2.553  11.907 -2.7305 -0.2094 -0.2775
  327MOL0     H44101   5.973   2.849  11.890 -2.8364  1.4156 -0.0620
  327MOL0     H44102   5.913   2.737  12.017  3.6591  1.8624  1.4526
  327MOL0     H44103   5.777   2.808  11.753  2.3344 -0.7666  0.5250
  327MOL0     H44104   5.741   2.871  11.915 -1.1969 -0.1338 -0.5304
  327MOL0     H44105   5.527   2.835  11.808  2.3132 -0.8668 -0.7368
  327MOL0     H44106   5.314   2.930  11.664  0.1291  1.2423  1.1196
  327MOL0     H44107   5.206   2.804  11.605  0.1275  1.3142 -0.3297
  327MOL0     H44108   5.203   2.835  11.771  0.4614 -0.4145 -1.0971
  327MOL0     H44109   5.096   2.258  11.630  1.7132  1.3801 -2.0536
  327MOL0     H44110   4.905   2.139  11.524 -2.0244 -1.9700  1.4577
  327MOL0     H44111   4.562   2.106  11.381 -0.7441  0.0635 -0.5976
  327MOL0     H44112   4.684   2.067  11.510  1.3549 -0.2879 -3.6369
  327MOL0     H44113   4.551   2.211  11.664 -0.8819  1.3515 -1.1185
  327MOL0     H44114   4.413   2.203  11.561  0.3026 -0.8634 -0.3622
  327MOL0     H44115   4.578   1.989  11.700  1.0791  1.9260 -1.5538
  327MOL0     H44116   4.471   1.934  11.577 -1.7849  0.5554  0.2740
  327MOL0     H44117   4.399   2.049  11.847  4.2401 -1.4919 -1.0088
  327MOL0     H44118   4.280   2.056  11.707  2.5050  1.1254 -3.5590
  327MOL0     H44119   4.417   1.803  11.796 -1.3928  0.5828  0.8431
  327MOL0     H44120   4.263   1.807  11.707 -0.3151  0.5210 -0.3168
  327MOL0     H44121   4.231   1.733  11.951  0.0347 -0.0822  0.4231
  327MOL0     H44122   4.302   1.883  11.998 -0.5758 -0.4621  0.2738
  327MOL0     H44123   4.056   1.889  11.814 -1.0913  3.1914 -0.5693
  327MOL0     H44124   4.134   2.013  11.898 -1.1444 -0.0402  0.0315
  327MOL0     H44125   4.074   1.919  12.122  1.0970  1.6433  0.3556
  327MOL0     H44126   3.993   1.785  12.045  1.0185 -0.1388  0.6575
  327MOL0     H44127   4.670   2.486  11.545  0.0123 -1.4236 -0.9103
  327MOL0     H44128   4.859   2.612  11.671  0.2579  0.0038  0.0041
  327MOL0     H44129   5.420   2.378  11.670 -0.4291 -0.8199  0.2406
  327MOL0     H44130   5.630   2.430  11.804  0.4142  0.4682  2.2227
  327MOL0     H44131   7.130   2.230  11.295 -0.7200  0.9014  0.7087
  327MOL0     H44132   7.342   2.270  11.364 -2.0015  2.4005  3.7876
  327MOL0     H44133   7.817   2.639  11.088  5.5288  3.1334  0.0489
  327MOL0     H44134   8.048   2.570  11.120  1.8583  0.2157  0.9696
  327MOL0     H44135   8.235   2.541  11.197 -2.1272  0.4771 -0.7486
  327MOL0     H44136   8.217   2.622  11.355 -3.2949 -0.4231  0.5398
  327MOL0     H44137   8.396   2.373  11.291  3.5230  1.1273 -0.5505
  327MOL0     H44138   8.365   2.453  11.448 -0.0147  4.0947  0.4382
  327MOL0     H44139   8.442   2.665  11.284 -1.2807  0.2439 -2.0590
  327MOL0     H44140   8.505   2.532  11.191  0.8368  2.9851 -0.4175
  327MOL0     H44141   8.632   2.477  11.401 -0.1430 -0.3953 -2.1129
  327MOL0     H44142   8.542   2.616  11.482 -1.3132  0.5290  0.0129
  327MOL0     H44143   8.859   2.836  11.293 -2.0566  1.7195  1.7026
  327MOL0     H44144   7.929   2.369  11.486 -3.7717 -0.3718  1.2305
  327MOL0     H44145   7.695   2.418  11.436  0.9539 -1.4920 -0.7844
  328MOL0     O44146   6.687   0.698   3.401 -0.2012 -0.2216  0.2508
  328MOL0     C44147   6.676   0.715   3.276 -0.0354 -0.1376  0.0778
  328MOL0     O44148   6.573   0.775   3.216  0.2034 -0.5673 -1.1662
  328MOL0     C44149   6.468   0.840   3.291 -0.0100 -0.3851  0.0541
  328MOL0     C44150   6.357   0.865   3.218  0.0697  0.6828  0.4614
  328MOL0     C44151   6.234   0.898   3.270  0.3803  0.9712 -0.8390
  328MOL0     C44152   6.235   0.926   3.407  0.2777 -0.5312  0.7448
  328MOL0     O44153   6.131   0.979   3.476  0.5878  0.0326 -0.2556
  328MOL0     C44154   6.001   1.006   3.425  0.3389 -0.4973 -0.0220
  328MOL0     C44155   5.912   1.090   3.523 -0.2681 -0.2844  0.3274
  328MOL0     C44156   5.778   1.031   3.547  1.0248 -0.4659  0.1430
  328MOL0     C44157   5.773   0.909   3.636  0.4894 -0.4868 -0.4068
  328MOL0     C44158   5.630   0.865   3.655  0.1962  0.0456 -0.0558
  328MOL0     C44159   5.628   0.735   3.742 -0.5853 -0.7981  0.7671
  328MOL0     C44160   5.505   0.664   3.688 -0.6177 -0.2591  0.0817
  328MOL0     C44161   5.455   0.561   3.782  0.4051  0.1900 -0.5661
  328MOL0     N44162   5.334   0.491   3.744  0.6267  0.3087  0.0855
  328MOL0     C44163   5.219   0.491   3.826 -0.4621 -0.1212  0.4276
  328MOL0     C44164   5.123   0.439   3.743 -0.6946 -0.5940  0.3670
  328MOL0     C44165   4.980   0.448   3.775  0.7246 -0.0020  0.0628
  328MOL0     C44166   4.931   0.319   3.841  0.1130  0.1610  0.2960
  328MOL0     C44167   4.858   0.231   3.735 -0.2562 -0.1940 -0.7580
  328MOL0     C44168   4.805   0.095   3.801 -0.5135 -0.1200 -0.0182
  328MOL0     O44169   4.677   0.114   3.875 -0.0857  0.0653 -0.2966
  328MOL0     C44170   4.599   0.001   3.880 -0.3152  0.7434 -1.3933
  328MOL0     C44171   4.642  -0.112   3.950 -0.6386 -0.7717  0.0587
  328MOL0     C44172   4.555  -0.219   3.966  0.6097  0.7644  0.0063
  328MOL0     C44173   4.595  -0.325   4.072 -0.8930 -0.1377 -0.1295
  328MOL0     C44174   4.424  -0.213   3.900 -0.4871  0.5127 -0.1501
  328MOL0     C44175   4.334  -0.332   3.899  0.2845 -0.5132 -0.1728
  328MOL0     O44176   4.220  -0.313   3.828 -0.3206  0.3529  0.1966
  328MOL0     C44177   4.173  -0.420   3.755 -0.2266 -0.5666 -0.6928
  328MOL0     C44178   4.252  -0.525   3.704  0.4275  0.2300  0.3128
  328MOL0     C44179   4.202  -0.618   3.616 -0.1668 -0.6217  0.0235
  328MOL0     C44180   4.065  -0.617   3.578 -0.0290 -0.0246  0.0050
  328MOL0     O44181   4.008  -0.698   3.482 -0.1831  0.5812 -0.1831
  328MOL0     C44182   4.064  -0.830   3.473 -0.5257  0.3576 -0.8048
  328MOL0     C44183   3.946  -0.918   3.423  0.9370  0.9092  0.9460
  328MOL0     C44184   4.000  -1.053   3.379 -0.2272 -0.6320  0.1463
  328MOL0     C44185   3.912  -1.114   3.267  0.0126  0.0898 -0.1161
  328MOL0     C44186   3.974  -1.239   3.197  0.7047  0.0006 -0.2679
  328MOL0     C44187   4.117  -1.219   3.149  0.4606 -0.2529 -0.7785
  328MOL0     C44188   4.143  -1.335   3.048  0.0008  0.0735 -0.3576
  328MOL0     C44189   4.279  -1.318   2.979  0.4492 -1.0571 -0.6217
  328MOL0    Cl44190   4.327  -1.462   2.878  0.1134 -0.2348  0.1122
  328MOL0     C44191   3.995  -0.514   3.632  0.3260  0.8051  0.4921
  328MOL0     C44192   4.048  -0.414   3.712  0.5629  0.6245 -0.4622
  328MOL0     O44193   4.373  -0.434   3.954 -0.1932 -0.1357 -0.0936
  328MOL0     C44194   4.390  -0.096   3.822  0.6735 -0.0468  0.8056
  328MOL0     C44195   4.476   0.008   3.813  0.0218  0.3530  0.3533
  328MOL0     N44196   5.177   0.388   3.629  0.2714 -0.4693  0.0757
  328MOL0     N44197   5.308   0.419   3.630  0.3726 -0.1938  0.1274
  328MOL0     C44198   6.356   0.917   3.482 -0.0208  0.0329  0.7239
  328MOL0     C44199   6.469   0.871   3.424  0.6102  0.5133 -0.4352
  328MOL0     C44200   6.786   0.680   3.185 -0.0725  0.2904 -0.2620
  328MOL0     C44201   6.779   0.699   3.045  0.0216 -0.2239 -0.0537
  328MOL0     C44202   6.879   0.681   2.959  0.1932 -0.5454 -0.1134
  328MOL0     C44203   7.005   0.632   3.008  0.8574  0.5523 -0.3279
  328MOL0     O44204   7.106   0.594   2.929  0.2923 -0.4052  0.0769
  328MOL0     C44205   7.110   0.640   2.793 -0.1066 -0.1061  0.1944
  328MOL0     C44206   7.232   0.564   2.723 -0.2420 -0.0971 -0.2878
  328MOL0     C44207   7.312   0.658   2.632  0.6087 -0.1770  0.1219
  328MOL0     C44208   7.436   0.609   2.570 -0.6031  0.0955  0.0115
  328MOL0     C44209   7.544   0.605   2.674  0.6261  0.2920  0.7059
  328MOL0     C44210   7.637   0.616   2.746 -0.6142 -0.2401  0.1300
  328MOL0     C44211   7.019   0.614   3.144  0.5182  0.0440  0.0528
  328MOL0     C44212   6.918   0.637   3.237 -0.7942 -1.5658  0.2276
  328MOL0     H44213   6.345   0.849   3.111  1.4890  2.2322  0.0203
  328MOL0     H44214   6.141   0.893   3.216 -1.0738  0.7978  1.5206
  328MOL0     H44215   5.998   1.063   3.332 -1.7844 -0.2592  0.1293
  328MOL0     H44216   5.962   0.907   3.401 -2.2703  0.4417 -0.0040
  328MOL0     H44217   5.949   1.109   3.624 -0.7683  0.7245  0.3321
  328MOL0     H44218   5.888   1.185   3.474 -1.8708 -1.6788 -1.7921
  328MOL0     H44219   5.706   1.108   3.577 -0.1303 -2.2708  2.2589
  328MOL0     H44220   5.744   0.987   3.453 -3.0345 -1.2898  1.8061
  328MOL0     H44221   5.838   0.833   3.594  0.7087  0.3463 -1.6089
  328MOL0     H44222   5.799   0.935   3.739 -1.3962 -0.0437  0.0008
  328MOL0     H44223   5.571   0.947   3.698 -0.6769 -0.1893 -0.7546
  328MOL0     H44224   5.585   0.849   3.556 -2.2703 -0.6460  1.0904
  328MOL0     H44225   5.715   0.668   3.743 -0.6510 -0.9577 -1.0554
  328MOL0     H44226   5.614   0.773   3.844 -0.5915  1.8597 -0.1632
  328MOL0     H44227   5.428   0.739   3.668  0.7259  0.9749 -0.6056
  328MOL0     H44228   5.529   0.619   3.592  1.9088 -2.9807  1.8356
  328MOL0     H44229   5.446   0.615   3.877  3.9847  1.2601 -0.6782
  328MOL0     H44230   5.540   0.494   3.769  2.4211  2.6501 -1.0423
  328MOL0     H44231   5.201   0.552   3.915 -1.3975  0.6089 -0.2404
  328MOL0     H44232   4.971   0.530   3.848  1.9349 -1.3682  1.8195
  328MOL0     H44233   4.915   0.477   3.691  1.1760  1.1906  0.0964
  328MOL0     H44234   4.854   0.346   3.914 -0.0509  0.7239 -0.0794
  328MOL0     H44235   4.997   0.253   3.897  1.0630  0.1179 -0.8204
  328MOL0     H44236   4.921   0.209   3.648  0.4305  1.6971 -0.7846
  328MOL0     H44237   4.770   0.280   3.693 -1.6182 -4.6261 -3.8613
  328MOL0     H44238   4.885   0.068   3.871  0.5261  1.3726 -0.5695
  328MOL0     H44239   4.801   0.019   3.723  0.8181 -1.0934  0.8146
  328MOL0     H44240   4.728  -0.109   4.016 -0.5497 -1.4865 -0.0194
  328MOL0     H44241   4.589  -0.431   4.046 -2.0623 -0.8883  2.7987
  328MOL0     H44242   4.702  -0.306   4.085 -1.0452  1.3885 -0.8692
  328MOL0     H44243   4.544  -0.305   4.167 -1.1530 -1.7316  0.0983
  328MOL0     H44244   4.353  -0.541   3.738  1.1732 -0.4511 -2.0230
  328MOL0     H44245   4.274  -0.693   3.585  2.3239  1.8687 -0.6530
  328MOL0     H44246   4.153  -0.849   3.413 -1.1180 -3.3591 -0.7379
  328MOL0     H44247   4.094  -0.861   3.573 -2.9365  1.4720  0.3552
  328MOL0     H44248   3.873  -0.948   3.498 -1.5857 -0.4078 -1.8061
  328MOL0     H44249   3.884  -0.866   3.349 -1.2022  0.9700  2.6606
  328MOL0     H44250   4.000  -1.126   3.460  2.1274 -0.8613 -0.0035
  328MOL0     H44251   4.105  -1.044   3.351  0.0287 -2.1817  0.5154
  328MOL0     H44252   3.816  -1.143   3.311  0.3021  1.8259  1.8369
  328MOL0     H44253   3.892  -1.045   3.185  3.7310  0.1407 -1.1526
  328MOL0     H44254   3.898  -1.259   3.122  2.5576 -0.0419 -2.2282
  328MOL0     H44255   3.970  -1.317   3.274  1.9547  0.6974  0.5472
  328MOL0     H44256   4.128  -1.121   3.102  2.2205 -0.3922 -0.7396
  328MOL0     H44257   4.188  -1.230   3.232  0.1941 -2.3769 -0.7735
  328MOL0     H44258   4.062  -1.344   2.976  0.7375 -0.4616 -1.1424
  328MOL0     H44259   4.149  -1.432   3.098 -0.1458  0.2915  0.0908
  328MOL0     H44260   4.363  -1.292   3.045 -0.3139 -0.6801  0.2195
  328MOL0     H44261   4.261  -1.230   2.917 -2.9837  2.0782  4.1149
  328MOL0     H44262   3.891  -0.510   3.603  0.4349  0.0013 -0.0355
  328MOL0     H44263   3.981  -0.329   3.728  1.2126  1.6292 -2.6652
  328MOL0     H44264   4.290  -0.079   3.784  0.5659  0.2136  1.1993
  328MOL0     H44265   4.444   0.097   3.761 -4.2120 -0.6357  0.8656
  328MOL0     H44266   6.347   0.941   3.587 -2.4658 -0.8805  0.7970
  328MOL0     H44267   6.557   0.863   3.487 -0.4628  1.7414  1.3169
  328MOL0     H44268   6.688   0.734   2.998  0.6135 -1.1078 -1.9613
  328MOL0     H44269   6.863   0.695   2.853 -0.4911  0.0474  0.0632
  328MOL0     H44270   7.017   0.634   2.737 -0.7309 -1.6270  1.3135
  328MOL0     H44271   7.133   0.747   2.796  2.7282 -0.6150 -0.5561
  328MOL0     H44272   7.186   0.482   2.666 -0.4845 -0.1900  0.0367
  328MOL0     H44273   7.293   0.525   2.805 -0.3423  1.4862  0.5764
  328MOL0     H44274   7.338   0.752   2.682 -2.8417  1.0198 -0.0179
  328MOL0     H44275   7.240   0.686   2.555 -0.8960 -0.6271  1.3078
  328MOL0     H44276   7.479   0.674   2.493  3.6536 -1.9793  0.3452
  328MOL0     H44277   7.423   0.509   2.527 -1.3444  0.1993 -0.0232
  328MOL0     H44278   7.709   0.618   2.825  1.2444  1.2316 -1.4966
  328MOL0     H44279   7.117   0.588   3.182  1.0885  4.4697  2.2052
  328MOL0     H44280   6.939   0.632   3.343 -2.3588 -4.3773  0.5217
  329MOL0     O44281   0.752   2.713   7.106 -0.5209 -0.2924  0.0034
  329MOL0     C44282   0.725   2.717   7.226 -0.7855 -0.0325  0.3946
  329MOL0     O44283   0.641   2.636   7.292 -0.3272  1.0865 -0.2202
  329MOL0     C44284   0.547   2.563   7.212 -0.8288 -0.1642  0.3495
  329MOL0     C44285   0.580   2.491   7.093 -0.7073 -0.1447  0.1813
  329MOL0     C44286   0.471   2.448   7.013  0.0785 -0.5526  0.3526
  329MOL0     C44287   0.338   2.466   7.052 -0.8766 -1.3744 -0.3640
  329MOL0     O44288   0.228   2.414   6.986 -0.2081 -0.5561  0.4533
  329MOL0     C44289   0.258   2.312   6.888 -0.1998 -0.7940 -0.4613
  329MOL0     C44290   0.160   2.300   6.777 -0.0103  0.0347  0.0376
  329MOL0     C44291   0.014   2.272   6.812  0.0945  0.8415  0.3911
  329MOL0     C44292  -0.067   2.241   6.687  0.1189 -0.1353  0.4957
  329MOL0     C44293  -0.215   2.287   6.690  0.5695  0.9646  0.4121
  329MOL0     C44294  -0.305   2.185   6.751 -0.1280  0.3165 -0.2337
  329MOL0     C44295  -0.459   2.228   6.743  0.7683 -1.0671 -0.1305
  329MOL0     C44296  -0.538   2.107   6.798  0.6649  0.4926 -0.0963
  329MOL0     N44297  -0.679   2.137   6.823  0.1207  0.5306 -0.9160
  329MOL0     C44298  -0.731   2.224   6.920 -0.3939  0.0164 -0.4413
  329MOL0     C44299  -0.866   2.221   6.910 -0.1448 -0.3029 -0.0433
  329MOL0     C44300  -0.963   2.299   6.982  0.5948 -0.3824  0.5006
  329MOL0     C44301  -1.108   2.266   6.960  0.1557  0.5375  0.3757
  329MOL0     C44302  -1.204   2.364   7.035 -0.1758 -0.0015  0.6402
  329MOL0     C44303  -1.346   2.314   7.032 -0.0756 -0.4798  0.0630
  329MOL0     O44304  -1.432   2.418   7.092  0.4572  0.3711  0.3987
  329MOL0     C44305  -1.555   2.419   7.035  0.1193  0.1206 -0.1419
  329MOL0     C44306  -1.646   2.314   7.062 -0.3403  0.3148 -0.8342
  329MOL0     C44307  -1.779   2.319   7.014  0.7585  0.7484 -0.1658
  329MOL0     C44308  -1.879   2.234   7.082  0.6451  0.1916 -0.0012
  329MOL0     C44309  -1.811   2.415   6.917 -0.3560 -0.6922 -0.4761
  329MOL0     C44310  -1.950   2.430   6.862  0.2686  0.1999  0.3644
  329MOL0     O44311  -1.996   2.565   6.862  0.2129 -0.6675 -0.1730
  329MOL0     C44312  -2.122   2.599   6.809 -0.3896  0.0348  0.1102
  329MOL0     C44313  -2.122   2.724   6.744  0.0506 -0.4881  0.1926
  329MOL0     C44314  -2.243   2.778   6.695  0.7649  0.5694 -0.2372
  329MOL0     C44315  -2.367   2.714   6.722  0.4908  1.1139  1.0262
  329MOL0     O44316  -2.487   2.762   6.668 -0.5101 -0.3607  0.0438
  329MOL0     C44317  -2.609   2.684   6.668  0.4352  0.5073 -0.6271
  329MOL0     C44318  -2.714   2.782   6.601  0.8133  0.2161  0.1298
  329MOL0     C44319  -2.706   2.787   6.449 -0.2105 -0.0899  1.1387
  329MOL0     C44320  -2.596   2.885   6.400  0.5237  0.7710  0.5147
  329MOL0     C44321  -2.591   2.880   6.252 -0.7469  0.4236 -0.2464
  329MOL0     C44322  -2.529   3.004   6.178 -1.0706 -0.9449 -0.4630
  329MOL0     C44323  -2.409   3.051   6.246 -0.0601  0.0181  0.8757
  329MOL0     C44324  -2.373   3.190   6.185 -0.6813  0.3322  1.0631
  329MOL0    Cl44325  -2.216   3.270   6.231  0.4624 -0.0553 -0.1094
  329MOL0     C44326  -2.364   2.594   6.804  0.0230 -0.0662 -0.4342
  329MOL0     C44327  -2.238   2.532   6.844  0.3393 -0.4712  0.9757
  329MOL0     O44328  -2.001   2.332   6.804 -0.5557  0.1012 -0.5281
  329MOL0     C44329  -1.721   2.508   6.876  0.0626 -0.6530 -0.6682
  329MOL0     C44330  -1.595   2.513   6.943  0.5979  0.1858  0.2829
  329MOL0     N44331  -0.898   2.140   6.803 -0.4012 -0.6302  0.5916
  329MOL0     N44332  -0.786   2.079   6.760 -0.2523 -0.5200 -0.4345
  329MOL0     C44333   0.314   2.520   7.177  0.4074  0.5470  0.0394
  329MOL0     C44334   0.419   2.575   7.250 -0.0147  0.5328  0.4017
  329MOL0     C44335   0.810   2.811   7.296  0.6080 -0.0714 -0.6397
  329MOL0     C44336   0.890   2.909   7.226 -0.4816  0.7135  0.5151
  329MOL0     C44337   0.965   3.001   7.302  0.2170  0.5978 -0.1331
  329MOL0     C44338   0.957   3.012   7.445 -0.7373  0.1827 -1.2136
  329MOL0     O44339   1.040   3.088   7.528  0.1573  0.4165 -0.2136
  329MOL0     C44340   1.029   3.227   7.500  0.5320  0.2325  0.1537
  329MOL0     C44341   1.145   3.313   7.566  0.5795  0.0844  0.2811
  329MOL0     C44342   1.290   3.285   7.496  0.6972  1.0688 -0.2805
  329MOL0     C44343   1.411   3.326   7.575  0.0308 -0.0823  0.3334
  329MOL0     C44344   1.401   3.470   7.604 -0.9158 -0.0499  0.1263
  329MOL0     C44345   1.399   3.592   7.628 -0.6117 -0.6332  0.2946
  329MOL0     C44346   0.883   2.904   7.513 -0.9937  0.3753  0.0788
  329MOL0     C44347   0.809   2.811   7.435 -0.1877 -0.6266 -0.2226
  329MOL0     H44348   0.680   2.473   7.055 -0.8159 -0.1312 -0.1188
  329MOL0     H44349   0.501   2.393   6.924 -0.9555  1.4269 -1.3064
  329MOL0     H44350   0.355   2.313   6.839 -0.4707 -1.6645 -1.0243
  329MOL0     H44351   0.262   2.217   6.942  0.1008 -0.5492 -0.0487
  329MOL0     H44352   0.166   2.384   6.707 -1.7378  0.4245  0.3139
  329MOL0     H44353   0.198   2.221   6.712 -0.6399  1.4555 -2.1408
  329MOL0     H44354  -0.002   2.183   6.874 -0.6391 -1.2708 -2.6139
  329MOL0     H44355  -0.032   2.357   6.864 -0.5492  0.1205  1.0385
  329MOL0     H44356  -0.023   2.299   6.605 -1.4270 -1.8648 -1.6551
  329MOL0     H44357  -0.057   2.135   6.662 -1.0129 -0.1251 -0.0626
  329MOL0     H44358  -0.218   2.358   6.772 -3.0191 -0.7750  2.0092
  329MOL0     H44359  -0.252   2.324   6.594  2.4704  2.2194  0.1134
  329MOL0     H44360  -0.299   2.091   6.696 -0.7066 -0.5201  1.1043
  329MOL0     H44361  -0.265   2.164   6.850  1.4464  2.3937 -0.3584
  329MOL0     H44362  -0.468   2.320   6.801 -0.0243 -0.7083 -0.8054
  329MOL0     H44363  -0.492   2.257   6.643 -0.0398 -1.3217  0.0592
  329MOL0     H44364  -0.493   2.068   6.890  0.5763  1.2390  0.2688
  329MOL0     H44365  -0.531   2.020   6.732  1.2132 -0.3894  1.0946
  329MOL0     H44366  -0.677   2.287   6.989 -1.8218  2.9248 -1.7995
  329MOL0     H44367  -0.935   2.294   7.088  1.9125  2.2726  0.3713
  329MOL0     H44368  -0.962   2.404   6.951  0.4326  0.5693  3.4241
  329MOL0     H44369  -1.120   2.165   7.001  1.8954  0.4737  0.7837
  329MOL0     H44370  -1.135   2.258   6.855  1.3932  0.2090  0.0633
  329MOL0     H44371  -1.204   2.452   6.971 -1.2308 -1.9748 -2.3123
  329MOL0     H44372  -1.180   2.400   7.135 -0.5539 -1.3456  1.2350
  329MOL0     H44373  -1.339   2.218   7.084  1.9114 -1.5480 -2.0293
  329MOL0     H44374  -1.382   2.293   6.930  0.8533 -0.4344 -0.2787
  329MOL0     H44375  -1.617   2.241   7.137 -0.3965  2.0550  0.9594
  329MOL0     H44376  -1.970   2.221   7.023  0.3901  1.6373  0.0391
  329MOL0     H44377  -1.846   2.133   7.110  0.6127  0.5188  1.2702
  329MOL0     H44378  -1.909   2.283   7.175  0.9278  0.7982 -0.2298
  329MOL0     H44379  -2.033   2.785   6.739 -1.5277  1.9946  0.8591
  329MOL0     H44380  -2.246   2.869   6.635  0.6080  0.7123 -0.0150
  329MOL0     H44381  -2.591   2.589   6.618  0.8670 -0.1531  0.7398
  329MOL0     H44382  -2.633   2.657   6.771 -0.7769 -2.2819 -1.5560
  329MOL0     H44383  -2.813   2.756   6.638 -0.8237  2.4167 -2.3112
  329MOL0     H44384  -2.696   2.882   6.642 -2.4587  0.9485  0.0366
  329MOL0     H44385  -2.797   2.836   6.414  2.6212  3.7550 -1.5783
  329MOL0     H44386  -2.707   2.684   6.411  0.1939 -0.8714  3.0991
  329MOL0     H44387  -2.626   2.983   6.438  2.8093  1.3931  0.8044
  329MOL0     H44388  -2.498   2.868   6.445  0.6091 -1.8975 -0.5023
  329MOL0     H44389  -2.690   2.858   6.209 -1.5707 -0.3710  1.8980
  329MOL0     H44390  -2.530   2.791   6.237  1.3501  1.9059 -0.9681
  329MOL0     H44391  -2.526   2.979   6.071  2.1767  0.2351 -0.7531
  329MOL0     H44392  -2.603   3.085   6.186 -3.8112 -3.4138  1.3440
  329MOL0     H44393  -2.326   2.979   6.236 -0.4965 -0.8653  2.9437
  329MOL0     H44394  -2.429   3.071   6.352 -0.7891 -0.7835  0.8938
  329MOL0     H44395  -2.463   3.250   6.202 -0.7842  1.0193 -1.4336
  329MOL0     H44396  -2.377   3.190   6.075 -3.5035 -1.5878  1.0918
  329MOL0     H44397  -2.455   2.565   6.854  0.4391  2.5136  2.0431
  329MOL0     H44398  -2.239   2.455   6.920  2.4182  0.1709  1.6961
  329MOL0     H44399  -1.755   2.578   6.800 -1.9307  0.5430  1.2069
  329MOL0     H44400  -1.527   2.591   6.909 -0.2779  2.0582  2.5320
  329MOL0     H44401   0.209   2.523   7.204  0.4691  0.4530  0.2920
  329MOL0     H44402   0.407   2.617   7.349 -2.9377 -2.9236  1.7696
  329MOL0     H44403   0.899   2.913   7.118 -1.6241 -1.8127  0.2548
  329MOL0     H44404   1.013   3.084   7.251 -0.2200  1.4254  0.7689
  329MOL0     H44405   1.019   3.256   7.395  0.0015 -0.1243  0.1037
  329MOL0     H44406   0.935   3.258   7.547  0.2958  0.4781 -0.4680
  329MOL0     H44407   1.158   3.277   7.669  0.1605  0.3097  0.4149
  329MOL0     H44408   1.126   3.421   7.571 -0.2403 -0.1068  2.2824
  329MOL0     H44409   1.286   3.338   7.400 -2.3033  2.6326  0.5787
  329MOL0     H44410   1.312   3.180   7.477  0.3801 -0.0564  4.4880
  329MOL0     H44411   1.492   3.303   7.506 -1.7573 -1.5321 -1.3942
  329MOL0     H44412   1.429   3.272   7.668 -0.1137 -1.5051 -0.4489
  329MOL0     H44413   1.388   3.696   7.650 -2.8252 -0.6887 -0.3027
  329MOL0     H44414   0.876   2.899   7.621 -4.1753 -0.7134 -0.0774
  329MOL0     H44415   0.752   2.731   7.481 -2.2210  0.8836  0.0229
  330MOL0     O44416   5.082   0.467  10.041  0.2384 -0.1940 -0.1306
  330MOL0     C44417   5.032   0.401   9.951  0.0442  0.0827  0.0578
  330MOL0     O44418   5.098   0.348   9.842  0.3214 -0.5690  0.7826
  330MOL0     C44419   5.231   0.379   9.811  0.0790 -0.7139  0.4243
  330MOL0     C44420   5.300   0.287   9.737 -0.9075 -0.0117  0.1943
  330MOL0     C44421   5.432   0.302   9.697  0.4664  0.7186 -0.9333
  330MOL0     C44422   5.496   0.417   9.738 -0.1635 -0.0566 -0.2359
  330MOL0     O44423   5.627   0.438   9.714 -0.7442  0.3527 -0.0572
  330MOL0     C44424   5.720   0.333   9.677  0.0161  0.2357  0.1395
  330MOL0     C44425   5.861   0.391   9.676  0.3370 -0.4943 -0.0377
  330MOL0     C44426   5.967   0.273   9.662 -0.3329  0.4306 -0.0245
  330MOL0     C44427   6.107   0.324   9.604 -0.0904 -0.6226  0.5450
  330MOL0     C44428   6.196   0.210   9.594  0.0283  0.0498 -1.0036
  330MOL0     C44429   6.337   0.254   9.594 -0.2233 -0.3085  0.8615
  330MOL0     C44430   6.438   0.148   9.543 -0.2365 -0.2820  0.5125
  330MOL0     C44431   6.449   0.038   9.656  0.3881  0.3508 -0.4019
  330MOL0     N44432   6.568  -0.049   9.616 -0.9774 -0.2566 -0.4577
  330MOL0     C44433   6.580  -0.113   9.494  0.7380  0.9524 -0.1600
  330MOL0     C44434   6.689  -0.201   9.514 -0.1212  0.4175  0.2254
  330MOL0     C44435   6.719  -0.309   9.422  0.0265  0.2538 -0.4918
  330MOL0     C44436   6.867  -0.320   9.406  0.0770 -0.0965  0.2324
  330MOL0     C44437   6.905  -0.410   9.288 -0.6507 -0.0430 -0.2852
  330MOL0     C44438   7.045  -0.428   9.252  0.0547 -0.4575 -0.4583
  330MOL0     O44439   7.119  -0.311   9.199  0.5178 -0.0995 -0.0545
  330MOL0     C44440   7.253  -0.321   9.195  0.1613 -0.3299  1.0825
  330MOL0     C44441   7.321  -0.202   9.174  0.1680  1.1646  0.2240
  330MOL0     C44442   7.454  -0.206   9.148 -0.5751 -0.6002 -0.5194
  330MOL0     C44443   7.521  -0.081   9.096  0.3701 -0.3395 -0.1019
  330MOL0     C44444   7.536  -0.323   9.154 -0.8456  0.3260  0.7243
  330MOL0     C44445   7.681  -0.339   9.121  0.1415 -0.3400 -0.2462
  330MOL0     O44446   7.720  -0.465   9.095  0.1815  0.3707  0.3601
  330MOL0     C44447   7.856  -0.476   9.048  0.2875  0.0774  0.0689
  330MOL0     C44448   7.888  -0.489   8.915  1.1714  0.6018 -1.3958
  330MOL0     C44449   8.022  -0.520   8.871 -0.5273  0.6951 -0.7502
  330MOL0     C44450   8.130  -0.520   8.962  0.0464  0.5938  0.1216
  330MOL0     O44451   8.265  -0.521   8.920  0.4250  0.4990 -0.0142
  330MOL0     C44452   8.369  -0.525   9.019 -0.1544 -0.0284 -0.6435
  330MOL0     C44453   8.503  -0.521   8.961 -0.6190  0.3208 -0.0523
  330MOL0     C44454   8.520  -0.630   8.869 -0.3073  0.6992  0.4626
  330MOL0     C44455   8.514  -0.765   8.945  0.7124  0.5752 -0.6060
  330MOL0     C44456   8.542  -0.875   8.834 -0.3415  0.3494 -0.0629
  330MOL0     C44457   8.504  -1.017   8.887  0.1513 -0.7401  1.0337
  330MOL0     C44458   8.366  -1.021   8.949 -0.2740 -0.5720  0.3054
  330MOL0     C44459   8.332  -1.171   8.963  0.1598 -0.6792  0.1223
  330MOL0    Cl44460   8.446  -1.262   9.061 -0.5295 -0.4648 -0.7556
  330MOL0     C44461   8.094  -0.508   9.098 -0.0586 -0.0222  0.2244
  330MOL0     C44462   7.958  -0.480   9.141 -1.2828 -1.5852  0.2681
  330MOL0     O44463   7.751  -0.246   9.151 -0.0148  0.5280 -0.1889
  330MOL0     C44464   7.457  -0.442   9.187 -0.4015 -0.1068 -0.1284
  330MOL0     C44465   7.323  -0.437   9.202  0.2333  0.2170 -0.6244
  330MOL0     N44466   6.729  -0.183   9.643 -0.7845  0.3247  0.6288
  330MOL0     N44467   6.662  -0.093   9.703 -0.4386 -0.5093 -0.5804
  330MOL0     C44468   5.430   0.510   9.816  0.8189 -0.6342  0.5816
  330MOL0     C44469   5.297   0.495   9.856 -0.0470 -0.2090  0.2746
  330MOL0     C44470   4.884   0.382   9.931 -0.1730 -0.5045  0.1836
  330MOL0     C44471   4.796   0.399  10.036 -0.2635  0.2107 -0.5544
  330MOL0     C44472   4.661   0.379  10.012 -0.0139 -0.6333 -0.0859
  330MOL0     C44473   4.606   0.338   9.892 -0.3845 -0.0156 -0.0715
  330MOL0     O44474   4.471   0.320   9.853  0.1283  0.1208  0.4582
  330MOL0     C44475   4.364   0.321   9.953 -0.4697  0.4037  0.4654
  330MOL0     C44476   4.369   0.205  10.048 -0.4142  0.2627 -0.9513
  330MOL0     C44477   4.368   0.076   9.971  0.6356  0.6902  0.1608
  330MOL0     C44478   4.340  -0.042  10.068  0.1802 -0.3950 -0.1636
  330MOL0     C44479   4.448  -0.081  10.164  0.8939 -0.4356  0.0539
  330MOL0     C44480   4.538  -0.098  10.242 -0.3514 -0.1820  0.8054
  330MOL0     C44481   4.707   0.315   9.786 -0.4579 -1.7018 -0.4739
  330MOL0     C44482   4.839   0.347   9.802 -0.3096  0.2233  0.6256
  330MOL0     H44483   5.242   0.206   9.693 -0.2544  0.4834 -1.6284
  330MOL0     H44484   5.483   0.233   9.630  2.2690 -1.9461  2.8423
  330MOL0     H44485   5.716   0.265   9.762 -0.7575  1.1551  0.8671
  330MOL0     H44486   5.693   0.283   9.584  1.1362  2.6497 -1.5997
  330MOL0     H44487   5.868   0.454   9.587 -4.5749  0.5781  0.0629
  330MOL0     H44488   5.880   0.450   9.766  1.1369 -0.3295 -0.3025
  330MOL0     H44489   5.986   0.227   9.759  2.5783  3.1126  0.8402
  330MOL0     H44490   5.936   0.199   9.587 -2.6040  1.3375 -0.0376
  330MOL0     H44491   6.081   0.374   9.510  0.3170  1.1785  1.3357
  330MOL0     H44492   6.143   0.400   9.675  1.5664 -0.8800  0.0187
  330MOL0     H44493   6.185   0.136   9.673  1.8580 -0.7140 -1.4169
  330MOL0     H44494   6.177   0.150   9.504  3.0945 -0.4073 -1.4537
  330MOL0     H44495   6.339   0.335   9.521  1.4963 -1.9472 -1.0392
  330MOL0     H44496   6.358   0.304   9.689 -2.0571  2.2004  0.0345
  330MOL0     H44497   6.406   0.103   9.449 -0.7631  1.4514 -0.1778
  330MOL0     H44498   6.535   0.196   9.524 -1.0028  1.3626  0.5260
  330MOL0     H44499   6.359  -0.024   9.657 -0.0137  0.9279 -0.4502
  330MOL0     H44500   6.460   0.094   9.750  2.1328 -1.6640  0.6851
  330MOL0     H44501   6.518  -0.100   9.406 -0.5944  4.1236  1.0890
  330MOL0     H44502   6.691  -0.407   9.463  3.6490 -1.2355 -1.1881
  330MOL0     H44503   6.656  -0.291   9.335 -0.0154 -0.6195 -0.6527
  330MOL0     H44504   6.917  -0.354   9.497 -1.0693  0.4889  1.1115
  330MOL0     H44505   6.921  -0.229   9.379  0.9995 -0.3430  1.1989
  330MOL0     H44506   6.846  -0.370   9.205 -1.1568 -0.7468 -0.2727
  330MOL0     H44507   6.863  -0.506   9.321 -1.0323 -0.7568 -2.6401
  330MOL0     H44508   7.050  -0.514   9.184 -0.6166  0.1470 -1.3030
  330MOL0     H44509   7.098  -0.468   9.339 -0.1637  1.0409  0.3937
  330MOL0     H44510   7.266  -0.109   9.180  0.5487  1.6380 -2.3358
  330MOL0     H44511   7.605  -0.053   9.160  0.3034 -0.5578  0.0821
  330MOL0     H44512   7.564  -0.095   8.997 -0.5281  0.8349 -0.6984
  330MOL0     H44513   7.452   0.004   9.085  0.1132 -0.5353 -0.0286
  330MOL0     H44514   7.820  -0.500   8.831  1.0805  0.1892 -1.2690
  330MOL0     H44515   8.041  -0.514   8.764 -2.5685  1.0358 -1.1238
  330MOL0     H44516   8.358  -0.436   9.080 -0.4277  0.2267 -1.0563
  330MOL0     H44517   8.362  -0.605   9.093  1.0513 -0.3103 -0.7994
  330MOL0     H44518   8.503  -0.430   8.900 -2.4188  0.5401  0.2198
  330MOL0     H44519   8.580  -0.520   9.038  2.1864  2.3704 -2.6240
  330MOL0     H44520   8.624  -0.623   8.833 -0.4351 -0.9112 -0.3521
  330MOL0     H44521   8.443  -0.618   8.793 -1.1717  2.2779  1.5507
  330MOL0     H44522   8.586  -0.769   9.027 -1.5577  3.2497  1.7329
  330MOL0     H44523   8.418  -0.767   8.996  0.2597  2.1638 -1.3179
  330MOL0     H44524   8.649  -0.877   8.811 -0.0934  0.5254  1.0190
  330MOL0     H44525   8.480  -0.865   8.744  1.3236 -0.2028 -1.3213
  330MOL0     H44526   8.517  -1.078   8.798 -1.9363  0.2116  0.0203
  330MOL0     H44527   8.585  -1.039   8.957 -0.2628  1.2324  2.2218
  330MOL0     H44528   8.295  -0.968   8.886 -0.7382  0.7985  1.9126
  330MOL0     H44529   8.371  -0.976   9.049 -0.2085  0.3003 -0.0843
  330MOL0     H44530   8.333  -1.214   8.863 -1.4941 -0.6661  0.0826
  330MOL0     H44531   8.233  -1.172   9.010 -0.0535 -0.8397 -0.3308
  330MOL0     H44532   8.163  -0.522   9.180 -0.4633 -0.9220  0.4223
  330MOL0     H44533   7.951  -0.459   9.247  2.2424 -1.8133  0.6802
  330MOL0     H44534   7.518  -0.529   9.208  1.8504  1.0577 -1.4598
  330MOL0     H44535   7.266  -0.529   9.217  1.1226  0.0690  2.4399
  330MOL0     H44536   5.486   0.600   9.837 -0.4674  0.9239 -2.1603
  330MOL0     H44537   5.256   0.570   9.922  2.2302  2.5763 -1.2482
  330MOL0     H44538   4.846   0.439  10.124  1.1820 -2.0977 -0.2364
  330MOL0     H44539   4.602   0.415  10.096 -0.6955  0.0323 -0.8369
  330MOL0     H44540   4.383   0.418   9.999  1.8075  0.1263  0.2545
  330MOL0     H44541   4.270   0.312   9.899  0.7305 -1.0157 -1.5583
  330MOL0     H44542   4.285   0.214  10.118  0.1162  1.0719 -0.4032
  330MOL0     H44543   4.464   0.206  10.103 -0.1295 -0.9422 -1.3676
  330MOL0     H44544   4.454   0.046   9.910  1.1700 -1.7883  1.9813
  330MOL0     H44545   4.285   0.067   9.901  1.3247 -0.2275 -0.5774
  330MOL0     H44546   4.312  -0.127  10.005  1.3769 -0.8573 -0.0982
  330MOL0     H44547   4.256  -0.026  10.136 -0.0084  0.2317 -0.5460
  330MOL0     H44548   4.610  -0.118  10.318  0.1728 -0.9175  0.1312
  330MOL0     H44549   4.666   0.296   9.688 -1.7833 -1.9843  0.1032
  330MOL0     H44550   4.899   0.336   9.712 -2.1617  0.5063 -0.7250
  331MOL0     O44551   3.422   2.508   4.552  0.0091 -0.1077  0.3966
  331MOL0     C44552   3.528   2.563   4.508  0.0620 -0.2022  0.4473
  331MOL0     O44553   3.527   2.658   4.402  0.8572 -0.1904 -0.0254
  331MOL0     C44554   3.423   2.698   4.321 -0.1311  0.4654  0.3016
  331MOL0     C44555   3.362   2.826   4.332  0.1316 -0.0429  0.1056
  331MOL0     C44556   3.251   2.872   4.266 -1.0036 -0.0585  1.3262
  331MOL0     C44557   3.187   2.799   4.168  0.2462 -0.0988  0.5684
  331MOL0     O44558   3.087   2.859   4.093 -0.3362 -0.0935  0.2614
  331MOL0     C44559   3.055   2.782   3.974 -0.2691 -0.8317  0.4462
  331MOL0     C44560   2.951   2.856   3.888  0.0839  0.5403  0.0852
  331MOL0     C44561   2.816   2.878   3.968 -0.3209 -0.6675 -0.2661
  331MOL0     C44562   2.706   2.935   3.879  0.2597  0.6952 -0.4599
  331MOL0     C44563   2.573   2.941   3.949 -0.1730  0.1433  0.0614
  331MOL0     C44564   2.460   2.886   3.861 -0.0306 -0.5853  0.0213
  331MOL0     C44565   2.319   2.898   3.925  0.1459  0.0213 -1.0401
  331MOL0     C44566   2.287   3.036   3.972  0.0403  0.8328 -0.6855
  331MOL0     N44567   2.144   3.061   4.004 -0.8516  0.1938 -0.2196
  331MOL0     C44568   2.077   3.179   3.980  0.8521  0.3214  0.2715
  331MOL0     C44569   1.985   3.194   4.073 -0.0667 -0.3960  0.1904
  331MOL0     C44570   1.879   3.301   4.061  0.0932  0.2558  0.2149
  331MOL0     C44571   1.754   3.235   3.998  0.8907 -0.0129 -0.6750
  331MOL0     C44572   1.684   3.143   4.108  0.7754 -0.4180  0.1258
  331MOL0     C44573   1.553   3.078   4.052 -0.2629 -0.6848  0.2569
  331MOL0     O44574   1.450   3.173   4.031  0.3599 -0.0916 -0.5540
  331MOL0     C44575   1.339   3.121   3.970 -0.3199 -0.4258  0.3169
  331MOL0     C44576   1.262   3.025   4.030  0.0142  0.7651  0.0246
  331MOL0     C44577   1.148   2.978   3.965  0.2538  0.2615 -0.1741
  331MOL0     C44578   1.051   2.898   4.055  0.2172 -0.0299  0.0022
  331MOL0     C44579   1.112   3.027   3.836 -0.0383 -0.0928 -0.0882
  331MOL0     C44580   0.981   3.001   3.767  0.1430  0.2032  0.8494
  331MOL0     O44581   0.930   2.870   3.782 -1.2211  0.4755  0.1530
  331MOL0     C44582   0.842   2.828   3.689  0.9701  0.4396  0.3539
  331MOL0     C44583   0.851   2.853   3.549  0.9444 -0.5404  0.0345
  331MOL0     C44584   0.754   2.810   3.464  0.2603  0.2774  0.2275
  331MOL0     C44585   0.648   2.732   3.510 -0.5051 -0.4683  1.0094
  331MOL0     O44586   0.553   2.691   3.423 -0.5731 -0.4135 -0.9406
  331MOL0     C44587   0.497   2.776   3.324 -0.3996  0.0928  1.0035
  331MOL0     C44588   0.371   2.711   3.266 -0.8352  0.4706 -0.5813
  331MOL0     C44589   0.403   2.596   3.163 -0.3228 -0.0589  0.3862
  331MOL0     C44590   0.499   2.621   3.041 -0.3579 -0.1133  0.8871
  331MOL0     C44591   0.501   2.494   2.951  1.0104 -0.1974 -0.4420
  331MOL0     C44592   0.586   2.524   2.833  0.2032  0.3222  0.1472
  331MOL0     C44593   0.610   2.399   2.757 -0.6078  0.0158  0.8398
  331MOL0     C44594   0.671   2.424   2.618 -0.1720  0.3787  0.1649
  331MOL0    Cl44595   0.548   2.496   2.520  0.0933  0.1646  0.4397
  331MOL0     C44596   0.646   2.691   3.641 -0.1623 -0.6299  0.1845
  331MOL0     C44597   0.744   2.747   3.730  0.5639 -0.8079  0.1382
  331MOL0     O44598   0.923   3.095   3.717  0.5298 -0.2799 -0.0762
  331MOL0     C44599   1.196   3.128   3.773 -0.3719  0.5068 -0.4027
  331MOL0     C44600   1.306   3.175   3.845  0.4852 -0.4683  0.2343
  331MOL0     N44601   2.010   3.093   4.163  0.3901  0.6208 -0.5988
  331MOL0     N44602   2.104   3.020   4.126 -0.5783 -0.0478 -1.0424
  331MOL0     C44603   3.237   2.668   4.156 -0.2752 -0.0542 -0.4265
  331MOL0     C44604   3.345   2.611   4.234 -0.0533 -0.2040  0.0741
  331MOL0     C44605   3.657   2.525   4.560  0.4483 -0.6748 -0.5153
  331MOL0     C44606   3.775   2.583   4.507 -0.6336 -0.4992 -0.5703
  331MOL0     C44607   3.894   2.540   4.557 -0.2640  0.2201  0.0901
  331MOL0     C44608   3.901   2.442   4.657  0.1878 -0.2375  0.2338
  331MOL0     O44609   4.020   2.410   4.729  0.1478 -0.0857 -0.2688
  331MOL0     C44610   4.130   2.502   4.721  1.0261 -0.0011 -0.6745
  331MOL0     C44611   4.201   2.493   4.857 -0.4893  0.0220  0.9626
  331MOL0     C44612   4.108   2.466   4.974  0.4761  0.4896 -0.3389
  331MOL0     C44613   4.183   2.458   5.105 -0.2706  0.7206 -0.1199
  331MOL0     C44614   4.178   2.587   5.177  0.0863 -0.1433  0.7313
  331MOL0     C44615   4.179   2.689   5.234 -0.7597 -1.0192  0.1679
  331MOL0     C44616   3.795   2.378   4.705  0.3154 -0.8403  0.1197
  331MOL0     C44617   3.667   2.411   4.649 -0.4530  0.3109 -0.1893
  331MOL0     H44618   3.403   2.894   4.405 -1.3228 -1.5862  2.5001
  331MOL0     H44619   3.228   2.977   4.282  1.3217  0.5316  1.2678
  331MOL0     H44620   3.150   2.771   3.920 -0.2016  0.9260  0.1779
  331MOL0     H44621   3.022   2.677   3.974 -1.9666 -0.3212 -0.4776
  331MOL0     H44622   2.989   2.955   3.861  0.2509 -0.0359 -1.9761
  331MOL0     H44623   2.937   2.803   3.793  3.7438  0.1021 -0.3651
  331MOL0     H44624   2.798   2.783   4.020 -0.1329  0.4173  1.8990
  331MOL0     H44625   2.834   2.950   4.048 -1.7750 -1.4474  0.8257
  331MOL0     H44626   2.731   3.033   3.836  1.4644  1.2528  1.4150
  331MOL0     H44627   2.694   2.860   3.800 -1.2478 -2.0234  2.1437
  331MOL0     H44628   2.578   2.892   4.047  2.8671  0.7925  0.3174
  331MOL0     H44629   2.540   3.044   3.969 -0.1362 -0.0532  1.2111
  331MOL0     H44630   2.468   2.920   3.758  2.7673 -1.2908 -0.0634
  331MOL0     H44631   2.472   2.779   3.840 -4.2684 -1.0573 -0.9385
  331MOL0     H44632   2.252   2.886   3.839 -1.0446  2.2709 -0.4953
  331MOL0     H44633   2.326   2.826   4.007 -1.4000  2.2297  1.1764
  331MOL0     H44634   2.313   3.112   3.898  0.1202  1.6311  0.1360
  331MOL0     H44635   2.343   3.051   4.065  0.4796  1.6327 -1.0639
  331MOL0     H44636   2.108   3.254   3.908 -0.7664  0.2265 -0.5824
  331MOL0     H44637   1.859   3.356   4.154 -0.1343 -2.0556  1.6058
  331MOL0     H44638   1.915   3.379   3.994  1.4002  0.6970  1.3935
  331MOL0     H44639   1.783   3.183   3.906  3.2988  3.3995 -2.0894
  331MOL0     H44640   1.688   3.317   3.969  2.3416  2.0917  1.5838
  331MOL0     H44641   1.653   3.196   4.198 -2.3980 -1.6127 -0.1448
  331MOL0     H44642   1.760   3.068   4.133  1.0579 -0.5658 -1.1204
  331MOL0     H44643   1.528   2.993   4.116 -0.3749 -0.8477 -0.0011
  331MOL0     H44644   1.568   3.028   3.956  0.2407  1.1628 -0.6715
  331MOL0     H44645   1.284   2.998   4.133  1.0121 -3.0809 -1.0472
  331MOL0     H44646   1.074   2.915   4.161  1.1461 -1.5282  0.0716
  331MOL0     H44647   0.956   2.946   4.031  1.5146  2.5316 -0.4384
  331MOL0     H44648   1.051   2.795   4.019  0.6388  0.7906 -2.4780
  331MOL0     H44649   0.925   2.922   3.509  1.4913 -1.9228 -1.4193
  331MOL0     H44650   0.765   2.831   3.358 -2.1719 -1.8006 -0.5219
  331MOL0     H44651   0.464   2.864   3.379 -1.6294 -0.2790  0.8767
  331MOL0     H44652   0.565   2.805   3.243  0.6974  0.7732  2.1275
  331MOL0     H44653   0.323   2.656   3.347  4.6895 -3.9602  0.3032
  331MOL0     H44654   0.307   2.787   3.220 -0.5901  1.6355  0.9435
  331MOL0     H44655   0.305   2.561   3.128  0.0481  1.6792 -2.7062
  331MOL0     H44656   0.456   2.517   3.218 -0.3176 -0.3821 -0.0734
  331MOL0     H44657   0.470   2.706   2.979 -0.6673 -2.2417 -2.0990
  331MOL0     H44658   0.598   2.642   3.084 -0.0322  2.2671 -0.8249
  331MOL0     H44659   0.398   2.479   2.917  1.3629 -1.6549 -0.9676
  331MOL0     H44660   0.528   2.409   3.014 -0.6083  0.6047  1.4407
  331MOL0     H44661   0.543   2.596   2.762  0.5985  0.2080 -0.2141
  331MOL0     H44662   0.679   2.563   2.875 -0.4900  0.5875  1.4830
  331MOL0     H44663   0.515   2.351   2.733 -0.7436  1.8222 -2.9753
  331MOL0     H44664   0.689   2.342   2.808  1.0494  0.7549 -0.7841
  331MOL0     H44665   0.692   2.326   2.574 -2.9856 -0.6907  0.9922
  331MOL0     H44666   0.763   2.484   2.624 -0.6741  1.3886 -1.5558
  331MOL0     H44667   0.566   2.628   3.678  1.1584 -0.3849  3.9638
  331MOL0     H44668   0.736   2.729   3.837 -1.6321  1.1791  0.3923
  331MOL0     H44669   1.177   3.151   3.668  0.4214  1.0790 -0.4325
  331MOL0     H44670   1.365   3.247   3.789  0.4931 -0.3680  0.3715
  331MOL0     H44671   3.174   2.596   4.105 -1.1369  0.3857  0.0139
  331MOL0     H44672   3.375   2.507   4.227 -1.6775 -0.6528 -0.7971
  331MOL0     H44673   3.758   2.657   4.429 -2.2702  0.0934  0.2938
  331MOL0     H44674   3.983   2.579   4.508 -0.6932  0.3655 -0.5872
  331MOL0     H44675   4.196   2.496   4.633  1.4355  0.3369 -0.3929
  331MOL0     H44676   4.101   2.607   4.725  0.6308 -0.1406  0.3168
  331MOL0     H44677   4.254   2.584   4.888 -1.9094  0.8638  0.9686
  331MOL0     H44678   4.285   2.422   4.851 -0.6133 -0.0183 -1.8227
  331MOL0     H44679   4.064   2.367   4.959  1.3192  0.2146 -1.0739
  331MOL0     H44680   4.027   2.540   4.981 -1.6904 -1.5972 -1.6584
  331MOL0     H44681   4.287   2.429   5.091  0.2411  1.6143  1.4588
  331MOL0     H44682   4.140   2.380   5.169  1.0789 -0.1792 -0.2854
  331MOL0     H44683   4.190   2.786   5.278  1.0960 -0.9233 -0.4339
  331MOL0     H44684   3.814   2.302   4.781 -2.9876 -0.3657  1.5639
  331MOL0     H44685   3.580   2.352   4.676 -0.2472 -1.7064 -3.4147
  332MOL0     O44686  10.403   8.091   1.121 -0.0741  0.8351  0.9419
  332MOL0     C44687  10.450   7.975   1.112  1.3692 -0.7497 -0.3367
  332MOL0     O44688  10.381   7.866   1.076 -0.6972  0.2382 -0.4170
  332MOL0     C44689  10.248   7.884   1.055  0.2124  0.2597  0.3265
  332MOL0     C44690  10.190   7.943   0.940 -0.4928 -0.4120 -0.0304
  332MOL0     C44691  10.049   7.964   0.926 -0.3567  0.3882  0.2721
  332MOL0     C44692   9.960   7.898   1.007 -0.4220 -0.0519 -1.1093
  332MOL0     O44693   9.828   7.898   0.978  0.7631 -0.1818  0.0550
  332MOL0     C44694   9.766   8.023   0.952  0.0117 -0.5991 -0.6800
  332MOL0     C44695   9.652   8.037   1.051  0.8664 -0.8097 -0.2818
  332MOL0     C44696   9.553   8.154   1.000 -0.6509  0.3502 -0.2474
  332MOL0     C44697   9.441   8.180   1.111 -0.0312  0.3681 -0.0420
  332MOL0     C44698   9.389   8.321   1.093  0.1548 -0.1148 -0.0082
  332MOL0     C44699   9.277   8.350   1.191  0.9018 -0.2125  0.6710
  332MOL0     C44700   9.136   8.285   1.146  0.6209  0.1404  0.1045
  332MOL0     C44701   9.072   8.335   1.016  0.2514 -0.2248  0.9049
  332MOL0     N44702   9.075   8.481   1.014  0.7171  0.1175  0.1745
  332MOL0     C44703   8.967   8.556   1.061 -0.6220 -0.4731  0.5192
  332MOL0     C44704   9.004   8.689   1.039  0.2117 -0.0367 -0.0540
  332MOL0     C44705   8.918   8.806   1.076  0.1146 -0.7010 -0.0652
  332MOL0     C44706   8.777   8.813   1.019  0.3238 -0.5506 -0.4117
  332MOL0     C44707   8.703   8.931   1.075 -0.0174 -0.7875  0.2994
  332MOL0     C44708   8.756   9.079   1.033 -0.3043  0.6672 -0.3760
  332MOL0     O44709   8.675   9.189   1.070 -0.3577 -0.7523 -0.5536
  332MOL0     C44710   8.546   9.184   1.035  0.1833  0.3366 -0.3623
  332MOL0     C44711   8.456   9.205   1.135  0.7525  0.3394 -0.3401
  332MOL0     C44712   8.318   9.222   1.117 -0.0166  0.9412  0.2953
  332MOL0     C44713   8.240   9.246   1.241  0.1398  0.1705  0.6543
  332MOL0     C44714   8.266   9.224   0.985 -0.3123  0.6773 -0.4232
  332MOL0     C44715   8.128   9.250   0.947 -0.0633  0.9878 -1.3443
  332MOL0     O44716   8.086   9.220   0.825  0.4480 -0.5463 -0.2346
  332MOL0     C44717   7.962   9.256   0.785 -0.0297 -0.9248 -0.3246
  332MOL0     C44718   7.847   9.224   0.858 -0.3856  0.0539  1.1424
  332MOL0     C44719   7.725   9.290   0.821  0.1667  0.3274 -0.3718
  332MOL0     C44720   7.722   9.376   0.710  0.4730  0.6971  0.3368
  332MOL0     O44721   7.608   9.448   0.667 -0.5273  0.1061  0.5864
  332MOL0     C44722   7.489   9.380   0.686  0.3721 -0.9704  0.4122
  332MOL0     C44723   7.383   9.449   0.611  0.3286 -0.2313  1.2139
  332MOL0     C44724   7.241   9.401   0.646 -0.2607  0.5509  0.0325
  332MOL0     C44725   7.127   9.503   0.620 -0.0254  0.1444 -0.3353
  332MOL0     C44726   6.989   9.453   0.652 -0.0965  0.3656 -0.2247
  332MOL0     C44727   6.884   9.559   0.616 -0.8377 -0.5441  0.7473
  332MOL0     C44728   6.743   9.507   0.605 -0.7096 -0.6011  0.6674
  332MOL0     C44729   6.646   9.622   0.656 -0.8384 -0.3543 -0.1050
  332MOL0    Cl44730   6.657   9.635   0.829 -0.6021  0.6936 -0.3785
  332MOL0     C44731   7.837   9.403   0.636 -0.1982 -0.4889  0.2693
  332MOL0     C44732   7.958   9.342   0.671 -0.6385 -0.1066 -0.0541
  332MOL0     O44733   8.065   9.313   1.032 -0.7755 -0.0058  0.0418
  332MOL0     C44734   8.363   9.194   0.885 -0.0257 -0.7954  0.2954
  332MOL0     C44735   8.498   9.179   0.904  0.0250 -0.0441 -0.7249
  332MOL0     N44736   9.126   8.697   0.984 -0.8993 -0.2370 -0.5341
  332MOL0     N44737   9.169   8.568   0.966  0.0660 -0.4763  0.1800
  332MOL0     C44738  10.015   7.818   1.112 -0.0836 -0.3020 -0.6937
  332MOL0     C44739  10.159   7.810   1.130  0.7510  0.3681 -0.1208
  332MOL0     C44740  10.595   7.962   1.112 -0.4365 -0.5331 -0.6567
  332MOL0     C44741  10.683   8.060   1.161  0.5004  0.1756 -0.3213
  332MOL0     C44742  10.822   8.048   1.154  0.7549  0.9146  0.0651
  332MOL0     C44743  10.881   7.940   1.087  0.2924  0.1669 -0.7757
  332MOL0     O44744  11.015   7.931   1.080 -0.4220  0.0326 -0.0614
  332MOL0     C44745  11.081   8.060   1.065  0.6236 -0.7305  0.6818
  332MOL0     C44746  11.181   8.024   0.957 -0.2845 -0.5021  0.3733
  332MOL0     C44747  11.316   7.970   0.999  0.0652  0.4754 -0.0946
  332MOL0     C44748  11.427   7.906   0.897 -0.5696 -0.3950  0.0714
  332MOL0     C44749  11.563   7.904   0.964 -0.5327 -0.0962  0.8043
  332MOL0     C44750  11.669   7.896   1.014 -0.2496 -0.4415  0.5722
  332MOL0     C44751  10.795   7.843   1.033 -0.7908  0.0569 -0.1899
  332MOL0     C44752  10.656   7.849   1.051 -0.1226 -1.0829 -0.2185
  332MOL0     H44753  10.242   7.999   0.863  0.3920  2.0170  2.1817
  332MOL0     H44754  10.010   8.020   0.842  0.0775  2.0720  1.1433
  332MOL0     H44755   9.837   8.103   0.976 -0.1286 -1.1564  1.9713
  332MOL0     H44756   9.739   8.033   0.847  0.2457  1.4375 -0.5878
  332MOL0     H44757   9.599   7.943   1.067  0.0820 -0.4175 -0.5551
  332MOL0     H44758   9.691   8.061   1.150 -1.2110 -3.3408  1.2891
  332MOL0     H44759   9.612   8.242   0.971 -0.2111  1.0834  2.5795
  332MOL0     H44760   9.505   8.117   0.909 -2.2773 -1.0034  1.0973
  332MOL0     H44761   9.363   8.104   1.097  0.1692  0.5578 -2.8166
  332MOL0     H44762   9.487   8.166   1.209  1.1154 -1.0096 -0.7263
  332MOL0     H44763   9.477   8.384   1.105  3.9752 -5.1385  1.7177
  332MOL0     H44764   9.353   8.338   0.991  2.4615  0.9121 -0.7126
  332MOL0     H44765   9.301   8.309   1.289  2.5033 -1.5218 -0.2205
  332MOL0     H44766   9.275   8.459   1.195  4.3093 -0.0709  1.6160
  332MOL0     H44767   9.154   8.178   1.132  0.3312  0.2443 -1.2740
  332MOL0     H44768   9.063   8.306   1.223 -0.5193  0.2317 -0.9696
  332MOL0     H44769   8.972   8.294   1.006 -0.9292  2.8588 -1.7036
  332MOL0     H44770   9.125   8.308   0.924 -0.0699  1.8142  0.0577
  332MOL0     H44771   8.875   8.520   1.107 -2.1937  1.8734 -0.6035
  332MOL0     H44772   8.924   8.812   1.185  1.0607 -1.6679 -0.0483
  332MOL0     H44773   8.964   8.896   1.034 -2.0138 -0.1571 -1.4423
  332MOL0     H44774   8.721   8.721   1.040 -0.1961 -0.4260 -1.1974
  332MOL0     H44775   8.790   8.821   0.911  0.3376  5.1554 -0.3001
  332MOL0     H44776   8.711   8.931   1.185  2.6487 -0.7398  0.1708
  332MOL0     H44777   8.606   8.915   1.027  1.8263 -3.6563 -2.8326
  332MOL0     H44778   8.767   9.072   0.924 -0.6346 -0.3212 -0.3595
  332MOL0     H44779   8.848   9.104   1.086  0.0627 -0.8514 -0.2439
  332MOL0     H44780   8.488   9.219   1.238 -1.7972  3.7793  0.1854
  332MOL0     H44781   8.298   9.230   1.332  1.5083 -0.2969 -0.2778
  332MOL0     H44782   8.222   9.354   1.238  0.4015  0.1927 -0.5105
  332MOL0     H44783   8.140   9.203   1.245 -0.7922  2.2103  0.7514
  332MOL0     H44784   7.847   9.154   0.941 -4.4737 -0.0631  1.2532
  332MOL0     H44785   7.636   9.270   0.881 -1.1584 -0.9348 -2.6026
  332MOL0     H44786   7.489   9.277   0.648  2.1711 -1.1643  0.8247
  332MOL0     H44787   7.472   9.383   0.795  1.2962  0.8136  0.5475
  332MOL0     H44788   7.391   9.558   0.620 -2.2124 -0.1781  4.8562
  332MOL0     H44789   7.404   9.408   0.512 -0.2929  0.1711  0.9097
  332MOL0     H44790   7.243   9.368   0.750  1.8312  0.1102 -0.0938
  332MOL0     H44791   7.213   9.315   0.585 -2.1678 -0.0398  1.6725
  332MOL0     H44792   7.144   9.593   0.680  0.3487 -0.3533  0.3227
  332MOL0     H44793   7.142   9.541   0.519  3.0053  1.5371  0.5134
  332MOL0     H44794   6.981   9.438   0.760  1.0663  1.6755  0.0707
  332MOL0     H44795   6.971   9.364   0.591  1.4596  1.8183 -3.0276
  332MOL0     H44796   6.897   9.654   0.669 -2.1976  0.0161  0.1198
  332MOL0     H44797   6.915   9.578   0.513 -2.4814  0.2916  0.3705
  332MOL0     H44798   6.737   9.429   0.681 -2.3286 -0.2241  0.9718
  332MOL0     H44799   6.715   9.468   0.507 -2.4589 -2.0344  1.6833
  332MOL0     H44800   6.545   9.590   0.629 -0.3544 -0.1988 -2.2029
  332MOL0     H44801   6.659   9.722   0.615  4.8129 -0.3665  0.7942
  332MOL0     H44802   7.829   9.472   0.553 -2.9066 -2.2515 -1.0599
  332MOL0     H44803   8.056   9.353   0.626  0.4356 -1.3935  1.8150
  332MOL0     H44804   8.324   9.218   0.787  1.4266 -1.6872 -0.5237
  332MOL0     H44805   8.560   9.164   0.816  1.5813 -3.1728  0.7382
  332MOL0     H44806   9.940   7.764   1.169  2.2178 -2.8088  0.1819
  332MOL0     H44807  10.193   7.744   1.210  0.1189  0.5445  0.3005
  332MOL0     H44808  10.632   8.145   1.205 -1.8863 -0.9948 -0.6665
  332MOL0     H44809  10.878   8.123   1.208 -1.3615  1.2226  2.0213
  332MOL0     H44810  11.014   8.141   1.032 -3.5019 -3.5334  1.3928
  332MOL0     H44811  11.139   8.095   1.151  2.8163 -0.4713 -0.8126
  332MOL0     H44812  11.185   8.114   0.894 -0.6266 -1.0643 -0.4678
  332MOL0     H44813  11.138   7.949   0.891  3.1490 -1.8746 -0.5121
  332MOL0     H44814  11.288   7.883   1.059 -1.8656 -3.0011 -5.3214
  332MOL0     H44815  11.367   8.049   1.054 -1.4887  1.1814  0.3746
  332MOL0     H44816  11.434   7.963   0.805 -1.1154  2.2990  1.6078
  332MOL0     H44817  11.401   7.802   0.874  0.8283 -0.3486 -1.9555
  332MOL0     H44818  11.766   7.898   1.061 -0.4822  1.8012  1.0451
  332MOL0     H44819  10.826   7.757   0.976  0.9084 -0.0225  0.8028
  332MOL0     H44820  10.588   7.777   1.007 -0.0495 -1.5956  0.4840
  333MOL0     O44821   8.579   7.088   6.659  0.5100  0.2407  0.2430
  333MOL0     C44822   8.574   7.195   6.598 -0.1866 -0.2485 -1.0455
  333MOL0     O44823   8.460   7.267   6.572  0.4038 -0.0644  0.3686
  333MOL0     C44824   8.343   7.255   6.646  0.2969 -0.4421  0.6629
  333MOL0     C44825   8.348   7.257   6.781 -0.2185 -0.1789 -0.9421
  333MOL0     C44826   8.235   7.277   6.858 -0.0592 -0.0003 -0.5360
  333MOL0     C44827   8.111   7.285   6.801 -0.3002  0.7026  0.3792
  333MOL0     O44828   8.005   7.287   6.879 -0.2807 -0.0831 -0.8861
  333MOL0     C44829   8.016   7.236   7.008  0.3135 -0.5594 -0.0618
  333MOL0     C44830   7.876   7.246   7.060  0.3823  1.2431 -0.1817
  333MOL0     C44831   7.820   7.391   7.066  0.4627 -0.1695  0.1447
  333MOL0     C44832   7.680   7.391   7.131 -0.1637 -0.4270 -0.5715
  333MOL0     C44833   7.566   7.330   7.058 -0.0184  0.2822  0.0716
  333MOL0     C44834   7.544   7.407   6.923  0.7126  0.6957 -0.3831
  333MOL0     C44835   7.394   7.379   6.866 -0.5655 -0.5138 -0.2232
  333MOL0     C44836   7.355   7.229   6.867 -0.0810 -0.6566  0.1450
  333MOL0     N44837   7.237   7.205   6.784 -0.4412  0.4336 -0.2457
  333MOL0     C44838   7.114   7.235   6.840 -0.0537 -0.2314 -0.2275
  333MOL0     C44839   7.031   7.165   6.752 -0.5607  0.2265 -0.0944
  333MOL0     C44840   6.892   7.126   6.792 -0.2993  0.0815  0.0415
  333MOL0     C44841   6.795   7.248   6.799 -0.2047 -0.6105  0.5343
  333MOL0     C44842   6.676   7.200   6.888 -0.6283 -0.7866  0.6104
  333MOL0     C44843   6.569   7.303   6.919  0.7902  0.7055 -0.1040
  333MOL0     O44844   6.463   7.261   7.007 -0.3157  0.3326 -0.0284
  333MOL0     C44845   6.332   7.268   6.971  0.4703 -0.3659 -0.8916
  333MOL0     C44846   6.290   7.364   6.884 -0.3816 -0.5743  0.6609
  333MOL0     C44847   6.157   7.363   6.835 -0.2076 -0.7259 -0.3095
  333MOL0     C44848   6.111   7.480   6.740  0.6001 -0.0782 -0.4806
  333MOL0     C44849   6.075   7.269   6.889 -0.9042  0.1200 -0.3867
  333MOL0     C44850   5.926   7.254   6.834 -1.0247 -0.5502 -0.5763
  333MOL0     O44851   5.900   7.298   6.711 -0.0551 -0.4384 -0.4294
  333MOL0     C44852   5.768   7.305   6.679 -0.6123  0.2765  0.0812
  333MOL0     C44853   5.693   7.415   6.727 -0.0563  0.1855 -0.7367
  333MOL0     C44854   5.568   7.428   6.694  0.4724  0.0041 -0.2427
  333MOL0     C44855   5.504   7.338   6.608  0.4812 -0.0196 -0.2028
  333MOL0     O44856   5.378   7.361   6.562  0.0615 -0.6140  0.6326
  333MOL0     C44857   5.268   7.292   6.623  0.2967  0.1454  0.0541
  333MOL0     C44858   5.157   7.255   6.517 -0.0124  0.4416  0.8399
  333MOL0     C44859   5.087   7.374   6.449 -0.5938 -0.2843 -0.4520
  333MOL0     C44860   4.963   7.332   6.363  0.1312 -0.3333  0.4383
  333MOL0     C44861   4.915   7.428   6.256 -0.8547 -0.5921  0.9963
  333MOL0     C44862   4.931   7.571   6.281 -0.3630 -0.4046  0.9763
  333MOL0     C44863   4.862   7.649   6.177  0.9159 -1.6234 -0.5191
  333MOL0     C44864   4.843   7.800   6.206 -0.3392 -0.1427  0.2897
  333MOL0    Cl44865   4.993   7.895   6.237  0.0351 -0.2715  0.1333
  333MOL0     C44866   5.578   7.227   6.565 -0.3750  0.0626 -0.1038
  333MOL0     C44867   5.714   7.210   6.596 -0.0495 -0.4288 -0.0726
  333MOL0     O44868   5.848   7.230   6.923  0.1338 -0.0035 -0.1531
  333MOL0     C44869   6.111   7.191   6.999  0.1754  0.5485  0.8263
  333MOL0     C44870   6.242   7.190   7.041  0.1088  0.6544 -0.3456
  333MOL0     N44871   7.097   7.123   6.639 -0.7002 -0.6976 -0.2039
  333MOL0     N44872   7.231   7.131   6.673 -0.2236  0.2243  0.2548
  333MOL0     C44873   8.097   7.274   6.663  0.4142  0.4572 -0.1301
  333MOL0     C44874   8.218   7.258   6.591  0.0974  0.1530 -0.4260
  333MOL0     C44875   8.706   7.259   6.550  0.8596 -0.1619 -0.1477
  333MOL0     C44876   8.821   7.183   6.579 -1.3776 -0.0268 -0.2696
  333MOL0     C44877   8.946   7.231   6.533 -0.2224  0.6544 -0.1729
  333MOL0     C44878   8.959   7.345   6.459  0.2154 -0.1674 -0.3652
  333MOL0     O44879   9.081   7.389   6.410  0.4336 -0.9683  0.3185
  333MOL0     C44880   9.110   7.521   6.364 -0.4376  0.0853 -0.4325
  333MOL0     C44881   9.140   7.629   6.475  0.3262  0.0808 -0.5891
  333MOL0     C44882   9.265   7.622   6.560 -1.0721 -0.6688 -0.1721
  333MOL0     C44883   9.283   7.738   6.660  0.8399  0.5397 -0.0506
  333MOL0     C44884   9.325   7.855   6.584  0.5547 -0.0521  0.2938
  333MOL0     C44885   9.360   7.960   6.532 -0.3417  0.0135 -0.3966
  333MOL0     C44886   8.843   7.419   6.435  0.1776  0.3525  0.3436
  333MOL0     C44887   8.718   7.383   6.486 -0.9881  0.5060  0.4850
  333MOL0     H44888   8.443   7.240   6.830 -0.3060  1.9565  0.0612
  333MOL0     H44889   8.255   7.281   6.964  1.0177  0.7538 -0.7453
  333MOL0     H44890   8.044   7.130   7.008  1.2837 -0.3131 -0.6242
  333MOL0     H44891   8.084   7.300   7.065 -1.5531  3.2000 -1.7154
  333MOL0     H44892   7.814   7.181   6.998  3.1928 -0.9664 -0.8834
  333MOL0     H44893   7.875   7.196   7.158  4.5969  0.3570 -0.3814
  333MOL0     H44894   7.884   7.460   7.122 -1.4249 -0.0521  2.3162
  333MOL0     H44895   7.811   7.443   6.971 -0.1142 -1.9218 -0.8198
  333MOL0     H44896   7.697   7.338   7.225  1.7748 -0.0849 -0.6863
  333MOL0     H44897   7.653   7.495   7.149  2.9923  0.0084  2.6881
  333MOL0     H44898   7.577   7.223   7.037 -1.3522  0.3315 -0.9876
  333MOL0     H44899   7.473   7.340   7.114  0.6349  1.1448  1.0410
  333MOL0     H44900   7.552   7.516   6.927 -0.3878  0.9980 -3.5316
  333MOL0     H44901   7.614   7.361   6.851 -1.6194  1.0207 -3.0362
  333MOL0     H44902   7.325   7.438   6.926 -2.4325 -0.5433 -2.1996
  333MOL0     H44903   7.395   7.425   6.766 -1.5704  0.4245  0.1823
  333MOL0     H44904   7.337   7.209   6.973  0.2337  0.8394  0.5029
  333MOL0     H44905   7.429   7.162   6.823 -2.5383 -2.0510 -2.1829
  333MOL0     H44906   7.090   7.260   6.943 -2.1686 -1.2229 -0.4125
  333MOL0     H44907   6.855   7.055   6.719  0.8488 -0.9127  0.3871
  333MOL0     H44908   6.909   7.074   6.887  1.7432  2.2263  0.9445
  333MOL0     H44909   6.773   7.291   6.700  1.1700  1.0425  0.9143
  333MOL0     H44910   6.818   7.335   6.860 -1.3473  0.6183 -0.7158
  333MOL0     H44911   6.730   7.163   6.975 -1.0381 -0.6147  0.9375
  333MOL0     H44912   6.633   7.110   6.841  0.7756 -0.9831 -0.3490
  333MOL0     H44913   6.535   7.335   6.820  0.9863  0.3624 -0.2874
  333MOL0     H44914   6.612   7.394   6.961  1.5344 -0.1921  1.1498
  333MOL0     H44915   6.361   7.436   6.845  0.3480 -1.0209  1.1380
  333MOL0     H44916   6.185   7.559   6.726  0.3128  0.4094  0.5867
  333MOL0     H44917   6.100   7.436   6.641  0.7586  0.9266 -0.9594
  333MOL0     H44918   6.018   7.532   6.767  0.3717 -0.2614 -0.9054
  333MOL0     H44919   5.738   7.497   6.783 -4.6506  2.7656 -0.3131
  333MOL0     H44920   5.516   7.508   6.745 -0.4597  1.0539 -2.7074
  333MOL0     H44921   5.291   7.207   6.688  2.2715  1.3569  1.0490
  333MOL0     H44922   5.219   7.369   6.683  1.0280  2.5854 -2.2461
  333MOL0     H44923   5.200   7.187   6.443  2.8548 -1.6247  4.1131
  333MOL0     H44924   5.095   7.186   6.574  0.2060  0.9826  1.7577
  333MOL0     H44925   5.166   7.418   6.387 -0.7309 -0.3489 -0.6745
  333MOL0     H44926   5.056   7.450   6.522  0.8299  0.9549 -1.0736
  333MOL0     H44927   5.001   7.245   6.309  0.4336 -0.5029  0.9143
  333MOL0     H44928   4.875   7.303   6.421 -0.2295  0.1091  0.1187
  333MOL0     H44929   4.808   7.412   6.237 -1.2322  2.6358 -0.3196
  333MOL0     H44930   4.974   7.405   6.167 -1.7389  2.2098 -0.4368
  333MOL0     H44931   4.901   7.594   6.383  2.3006 -1.3494  2.0611
  333MOL0     H44932   5.033   7.606   6.261  0.4485 -3.7941 -1.9282
  333MOL0     H44933   4.760   7.614   6.159 -0.3637 -0.8764  4.0288
  333MOL0     H44934   4.916   7.640   6.082 -0.8147  0.7303 -1.8335
  333MOL0     H44935   4.784   7.795   6.298 -0.0722  3.4588  0.8031
  333MOL0     H44936   4.790   7.858   6.130  0.2680  0.9009  0.6278
  333MOL0     H44937   5.536   7.153   6.497 -1.4479 -1.6976  2.3313
  333MOL0     H44938   5.771   7.128   6.554 -0.7569 -0.8966 -0.1390
  333MOL0     H44939   6.035   7.136   7.054  1.6539 -2.7650 -0.1971
  333MOL0     H44940   6.270   7.130   7.126  0.6674  1.8247  0.3197
  333MOL0     H44941   8.002   7.300   6.615 -0.4290  0.6075  1.5390
  333MOL0     H44942   8.210   7.268   6.483 -2.1177  2.6235 -0.1593
  333MOL0     H44943   8.822   7.089   6.633 -2.0660  0.6106  0.8717
  333MOL0     H44944   9.039   7.177   6.545  0.6039  2.0094 -0.3280
  333MOL0     H44945   9.196   7.521   6.296 -0.1855  0.6098 -0.1220
  333MOL0     H44946   9.029   7.551   6.297 -1.9145 -1.2152  0.6722
  333MOL0     H44947   9.050   7.627   6.535 -0.6797 -2.2462 -2.0081
  333MOL0     H44948   9.155   7.729   6.434 -0.7923  0.2814 -0.5306
  333MOL0     H44949   9.356   7.622   6.500 -2.0927 -2.9786 -1.8689
  333MOL0     H44950   9.250   7.527   6.612 -1.8912 -2.3925 -3.3147
  333MOL0     H44951   9.355   7.703   6.734 -1.4752 -2.2723  1.0654
  333MOL0     H44952   9.192   7.760   6.717 -1.3538  2.1416 -3.7428
  333MOL0     H44953   9.382   8.061   6.502  0.3148  0.4036  1.2296
  333MOL0     H44954   8.841   7.505   6.370 -0.0799 -0.7538 -1.1549
  333MOL0     H44955   8.621   7.426   6.463 -2.1368 -3.0794 -2.2337
  334MOL0     O44956   6.512   4.420   8.899 -0.3905  0.3595  0.3362
  334MOL0     C44957   6.550   4.352   8.802 -0.3392 -0.5744 -0.6604
  334MOL0     O44958   6.487   4.345   8.686  0.1497 -0.2412 -0.3765
  334MOL0     C44959   6.354   4.383   8.677  0.2358  0.4935 -0.6096
  334MOL0     C44960   6.261   4.335   8.767  0.1911 -0.7688  0.4013
  334MOL0     C44961   6.130   4.392   8.758 -0.2068  0.7310  0.9405
  334MOL0     C44962   6.093   4.475   8.650  0.6899  0.4903 -0.2649
  334MOL0     O44963   5.960   4.524   8.647  0.4794  0.4861 -0.1001
  334MOL0     C44964   5.850   4.435   8.631  0.8058  0.2418 -0.3051
  334MOL0     C44965   5.752   4.447   8.749 -0.8140  0.4904 -0.1541
  334MOL0     C44966   5.656   4.334   8.750  0.6648 -0.4750  0.1681
  334MOL0     C44967   5.569   4.334   8.616 -0.3979  0.1030  0.6047
  334MOL0     C44968   5.451   4.242   8.644 -0.2210  0.4703 -0.6318
  334MOL0     C44969   5.342   4.305   8.734  0.2463 -0.4863  0.3022
  334MOL0     C44970   5.289   4.451   8.709  0.3338 -0.3813  0.3685
  334MOL0     C44971   5.237   4.477   8.562  0.5393  0.0890  0.6815
  334MOL0     N44972   5.155   4.367   8.511 -0.0464  0.7241 -0.0496
  334MOL0     C44973   5.043   4.310   8.571  0.0381  0.3654  0.0691
  334MOL0     C44974   5.014   4.204   8.490 -0.5425 -0.4383 -0.4504
  334MOL0     C44975   4.906   4.097   8.498  0.5781 -0.0922 -0.1260
  334MOL0     C44976   4.803   4.123   8.391 -0.2851 -0.0034  0.2103
  334MOL0     C44977   4.667   4.055   8.424  0.5850  0.1523  0.1079
  334MOL0     C44978   4.542   4.132   8.383 -0.4863 -0.8357 -0.3822
  334MOL0     O44979   4.557   4.162   8.247  0.5440  0.2984  0.8576
  334MOL0     C44980   4.464   4.219   8.179 -0.5333 -0.1451  0.3009
  334MOL0     C44981   4.509   4.296   8.077  0.6271 -0.6561 -0.0495
  334MOL0     C44982   4.417   4.363   7.982 -0.7603  0.2057 -0.0516
  334MOL0     C44983   4.482   4.444   7.867  0.3682 -0.7705 -0.0984
  334MOL0     C44984   4.277   4.343   7.996 -0.1478 -0.4611 -0.1434
  334MOL0     C44985   4.177   4.412   7.906  0.9442  0.3527  0.1654
  334MOL0     O44986   4.056   4.356   7.916  1.0723 -0.8087 -0.3469
  334MOL0     C44987   3.937   4.418   7.870 -0.6716  0.7924  0.5261
  334MOL0     C44988   3.898   4.551   7.886 -0.3501 -0.1868 -0.4370
  334MOL0     C44989   3.774   4.593   7.842  0.4532 -1.0057  0.7023
  334MOL0     C44990   3.682   4.509   7.781 -0.1564  0.4500  0.0894
  334MOL0     O44991   3.562   4.537   7.725 -0.2922  0.3992  0.7529
  334MOL0     C44992   3.507   4.659   7.755  0.2190 -0.7269 -0.9600
  334MOL0     C44993   3.368   4.667   7.705  0.1425 -0.4521 -0.7831
  334MOL0     C44994   3.304   4.802   7.717  0.1724 -0.8702  0.5330
  334MOL0     C44995   3.161   4.806   7.672 -0.0233  0.8792 -0.3978
  334MOL0     C44996   3.154   4.818   7.520  0.5980  0.1208 -0.3050
  334MOL0     C44997   3.013   4.877   7.476 -0.3217  0.1052 -0.1104
  334MOL0     C44998   2.902   4.767   7.501 -0.1357  0.5340 -0.0905
  334MOL0     C44999   2.769   4.806   7.444  0.1224  0.5517  0.2360
  334MOL0    Cl45000   2.655   4.665   7.420  0.2828 -0.2007 -0.3591
  334MOL0     C45001   3.724   4.370   7.776 -0.1627  0.3835 -0.0525
  334MOL0     C45002   3.844   4.323   7.818 -1.5760 -0.4799  0.1180
  334MOL0     O45003   4.201   4.516   7.845  0.6358  0.7043  0.0279
  334MOL0     C45004   4.242   4.268   8.109  0.0813 -0.0224  0.1657
  334MOL0     C45005   4.329   4.202   8.197 -0.3247 -0.5457 -0.9339
  334MOL0     N45006   5.098   4.195   8.388 -1.4757 -0.0187 -0.0746
  334MOL0     N45007   5.177   4.300   8.391 -0.6710 -0.2728  0.0279
  334MOL0     C45008   6.186   4.496   8.552  0.4014 -0.1902 -0.3848
  334MOL0     C45009   6.313   4.457   8.564 -0.6339  0.6627  0.2895
  334MOL0     C45010   6.682   4.294   8.806 -0.0794  0.1062  0.0117
  334MOL0     C45011   6.741   4.247   8.928 -0.1329 -0.5637 -0.7141
  334MOL0     C45012   6.866   4.195   8.935 -0.6550 -0.4469 -1.1884
  334MOL0     C45013   6.926   4.165   8.818  0.5704 -0.6576  0.3208
  334MOL0     O45014   7.059   4.120   8.809 -0.4079  0.1658 -0.3618
  334MOL0     C45015   7.092   4.019   8.907 -0.2039  0.0570  0.3673
  334MOL0     C45016   7.167   4.079   9.028  0.1879 -0.3194  0.3939
  334MOL0     C45017   7.253   3.974   9.097  0.7632 -0.7567 -0.0465
  334MOL0     C45018   7.342   4.045   9.205  0.0934 -0.0449  0.6971
  334MOL0     C45019   7.465   3.978   9.238  0.2432  0.3324 -0.0986
  334MOL0     C45020   7.581   3.925   9.264 -0.0775 -0.9558 -0.0659
  334MOL0     C45021   6.877   4.204   8.690 -0.4057 -0.3040  0.3551
  334MOL0     C45022   6.756   4.271   8.685  0.2847 -0.3329 -0.6037
  334MOL0     H45023   6.282   4.275   8.855 -0.1436  0.8278  1.6226
  334MOL0     H45024   6.061   4.369   8.838 -0.6394  0.9350  0.6278
  334MOL0     H45025   5.797   4.471   8.542  0.4805  1.3000  0.2971
  334MOL0     H45026   5.880   4.332   8.612  0.9583  1.0750 -7.1615
  334MOL0     H45027   5.812   4.435   8.839  0.1324 -4.3326 -1.1725
  334MOL0     H45028   5.696   4.541   8.749 -0.0734  0.9421 -0.3692
  334MOL0     H45029   5.711   4.242   8.771  0.2453  0.1026  4.8020
  334MOL0     H45030   5.590   4.340   8.837  0.8033 -2.4580  0.4582
  334MOL0     H45031   5.531   4.431   8.583 -0.1498  0.8564  2.4103
  334MOL0     H45032   5.624   4.286   8.534  0.0679  3.6572 -1.3690
  334MOL0     H45033   5.400   4.227   8.548 -2.2410  4.6070 -0.4381
  334MOL0     H45034   5.490   4.152   8.691  1.4776  1.6725  0.3556
  334MOL0     H45035   5.264   4.229   8.725 -1.2271  0.8157  1.4667
  334MOL0     H45036   5.381   4.299   8.836  2.0641  0.7441 -0.2641
  334MOL0     H45037   5.208   4.470   8.780  1.7189  2.1329  1.3899
  334MOL0     H45038   5.372   4.518   8.731 -0.4333  1.3458 -1.7063
  334MOL0     H45039   5.330   4.478   8.503  1.3167 -1.9571  1.7801
  334MOL0     H45040   5.176   4.568   8.558 -2.2111 -1.6263  1.0895
  334MOL0     H45041   4.992   4.332   8.664  1.6128 -1.5702  1.4883
  334MOL0     H45042   4.959   4.006   8.469 -0.1072 -0.8814  1.0308
  334MOL0     H45043   4.858   4.077   8.594 -0.8832 -2.4313 -1.2532
  334MOL0     H45044   4.838   4.087   8.294 -0.9151 -2.4365  0.8171
  334MOL0     H45045   4.779   4.228   8.372 -1.9015 -1.0088 -4.5744
  334MOL0     H45046   4.665   4.050   8.533 -0.2167  0.8601  0.1338
  334MOL0     H45047   4.667   3.957   8.375  0.3165 -0.0719  0.5463
  334MOL0     H45048   4.541   4.226   8.439 -2.8716 -0.4832 -0.9046
  334MOL0     H45049   4.451   4.076   8.407  0.2062 -1.8239  0.0043
  334MOL0     H45050   4.613   4.326   8.065  1.0600 -0.8852  2.5171
  334MOL0     H45051   4.511   4.548   7.885 -1.6499 -0.1584 -0.1041
  334MOL0     H45052   4.576   4.392   7.849  0.2488 -1.0874  0.1782
  334MOL0     H45053   4.421   4.447   7.776  1.5813 -2.2263 -0.9893
  334MOL0     H45054   3.971   4.618   7.929  0.7407 -0.0741 -2.3507
  334MOL0     H45055   3.743   4.697   7.850  1.6596 -0.6697  1.2726
  334MOL0     H45056   3.512   4.681   7.862  2.4360  0.7257 -1.2952
  334MOL0     H45057   3.558   4.743   7.708 -1.6799  0.2327 -1.3752
  334MOL0     H45058   3.355   4.634   7.602 -4.2775  0.9723 -0.8552
  334MOL0     H45059   3.323   4.590   7.769 -0.3884  0.8324  0.4623
  334MOL0     H45060   3.365   4.880   7.673  0.4717 -0.8593  0.9614
  334MOL0     H45061   3.302   4.834   7.822 -1.0574 -1.5637  0.7486
  334MOL0     H45062   3.113   4.712   7.703 -0.0119  0.6137 -1.1599
  334MOL0     H45063   3.111   4.888   7.724  4.0693  1.7166  2.7783
  334MOL0     H45064   3.166   4.716   7.481  1.7153  0.1518 -0.0704
  334MOL0     H45065   3.233   4.886   7.488 -0.8945  0.2258 -4.3535
  334MOL0     H45066   2.996   4.958   7.549 -1.5477 -2.8602  3.1888
  334MOL0     H45067   3.014   4.897   7.369  0.4549 -0.7883 -0.2803
  334MOL0     H45068   2.897   4.730   7.603  0.7818  0.6712  0.0080
  334MOL0     H45069   2.924   4.686   7.431 -1.5754 -1.1345  1.2858
  334MOL0     H45070   2.775   4.840   7.340  1.3841 -1.7405 -0.5088
  334MOL0     H45071   2.712   4.887   7.490  0.3490  0.1990  1.1702
  334MOL0     H45072   3.664   4.291   7.733 -0.6176  0.6275  0.1246
  334MOL0     H45073   3.866   4.220   7.795  0.0936  0.3763 -2.6677
  334MOL0     H45074   4.138   4.255   8.137  0.3042 -1.7665  0.3100
  334MOL0     H45075   4.288   4.136   8.273  1.7397 -2.1703 -1.1381
  334MOL0     H45076   6.157   4.554   8.465  0.3377  0.7373  0.2382
  334MOL0     H45077   6.392   4.487   8.496  1.0086  2.2357  2.7254
  334MOL0     H45078   6.685   4.238   9.021  1.4010  1.0465  0.4214
  334MOL0     H45079   6.909   4.166   9.031 -0.8734 -1.8244 -1.5022
  334MOL0     H45080   7.001   3.962   8.926 -0.9309  0.4242 -1.6675
  334MOL0     H45081   7.158   3.946   8.860 -0.5150  0.4034 -0.6354
  334MOL0     H45082   7.099   4.113   9.106  1.1094  0.4301  0.8904
  334MOL0     H45083   7.225   4.167   8.998  2.2014 -1.3347  1.1251
  334MOL0     H45084   7.320   3.929   9.023  0.2225 -0.2221 -0.8758
  334MOL0     H45085   7.193   3.892   9.138  1.5227 -0.1162  2.5640
  334MOL0     H45086   7.279   4.056   9.294 -1.0808 -1.5601  0.1097
  334MOL0     H45087   7.367   4.146   9.172  1.2885 -0.3160  0.7182
  334MOL0     H45088   7.664   3.863   9.292  0.5065 -1.1250 -2.0343
  334MOL0     H45089   6.932   4.187   8.598  1.6462 -0.3454  1.5396
  334MOL0     H45090   6.715   4.296   8.588 -0.3921  0.5771 -0.0937
  335MOL0     O45091   1.954   8.148  11.048  0.3610  0.3255  0.1617
  335MOL0     C45092   1.992   8.156  11.167  0.3213 -1.3569  0.1370
  335MOL0     O45093   1.982   8.270  11.245 -0.1947 -0.2847 -0.5756
  335MOL0     C45094   1.899   8.374  11.211  0.2513 -0.4986  0.1866
  335MOL0     C45095   1.805   8.414  11.306 -0.5930  0.4259 -0.7199
  335MOL0     C45096   1.717   8.521  11.279  0.6227  0.2199 -0.1292
  335MOL0     C45097   1.723   8.577  11.150  0.6343 -0.0149  0.6408
  335MOL0     O45098   1.632   8.676  11.111 -0.3494  0.4631 -1.0122
  335MOL0     C45099   1.490   8.647  11.109 -0.6384 -0.3031  0.2964
  335MOL0     C45100   1.433   8.706  10.975 -0.3830  0.1915 -0.0661
  335MOL0     C45101   1.278   8.682  10.972  0.1577  0.3142 -0.4991
  335MOL0     C45102   1.203   8.724  10.840 -0.1953  0.0582 -0.2704
  335MOL0     C45103   1.211   8.636  10.720  0.4109  0.1228  0.0248
  335MOL0     C45104   1.155   8.721  10.599  0.3577  0.1121  0.1473
  335MOL0     C45105   1.138   8.623  10.470 -0.5084  0.1914  0.8144
  335MOL0     C45106   1.277   8.593  10.404  0.8136 -0.5104 -0.1524
  335MOL0     N45107   1.256   8.560  10.258  0.0488  0.5789 -0.1574
  335MOL0     C45108   1.164   8.485  10.193  0.3128  0.1258 -0.6386
  335MOL0     C45109   1.198   8.471  10.066  0.2270  0.1032 -0.1499
  335MOL0     C45110   1.121   8.382   9.965  0.1003 -0.2958  0.4489
  335MOL0     C45111   0.989   8.335  10.019  1.1532  0.7784  0.0307
  335MOL0     C45112   0.906   8.276   9.902  0.8704 -0.4204  0.7790
  335MOL0     C45113   0.774   8.345   9.876  0.2667  0.4544 -0.8006
  335MOL0     O45114   0.692   8.344   9.995 -0.1385  0.1104 -0.9453
  335MOL0     C45115   0.591   8.438   9.981 -0.1131  0.8772  0.2456
  335MOL0     C45116   0.609   8.562  10.032 -0.3373 -0.1592 -1.1650
  335MOL0     C45117   0.516   8.668  10.018  0.5057  0.2641 -0.5622
  335MOL0     C45118   0.581   8.800  10.042 -0.5804 -0.1638 -0.8375
  335MOL0     C45119   0.390   8.645   9.960  0.1137  1.0613  0.7912
  335MOL0     C45120   0.284   8.744   9.960  0.9566  0.2578 -0.0813
  335MOL0     O45121   0.300   8.849  10.038  0.0112 -0.1501  0.3975
  335MOL0     C45122   0.228   8.964  10.032  0.0354  0.3229  0.2197
  335MOL0     C45123   0.278   9.085   9.998 -0.1253 -0.1043  0.0882
  335MOL0     C45124   0.196   9.187   9.960  0.0616  0.3163 -0.6002
  335MOL0     C45125   0.060   9.178   9.986  0.0238 -0.3472 -0.0619
  335MOL0     O45126  -0.019   9.287   9.958  0.1854 -0.4900 -0.1452
  335MOL0     C45127  -0.040   9.369  10.078  0.4161 -0.2323  0.3122
  335MOL0     C45128  -0.188   9.348  10.130  0.5470  0.3991 -0.0804
  335MOL0     C45129  -0.210   9.433  10.253  0.4641  0.2702 -0.1130
  335MOL0     C45130  -0.355   9.421  10.309 -0.5433  0.0406 -0.1616
  335MOL0     C45131  -0.459   9.463  10.207 -0.0061  0.0528  0.5229
  335MOL0     C45132  -0.609   9.441  10.243 -0.0537 -0.2691  0.3495
  335MOL0     C45133  -0.707   9.508  10.143 -0.3035 -0.1423  0.2237
  335MOL0     C45134  -0.858   9.487  10.173 -0.0684  0.5417  0.3841
  335MOL0    Cl45135  -0.905   9.315  10.158  0.7106  0.5459 -0.4419
  335MOL0     C45136  -0.002   9.057  10.031 -0.1228 -0.1732 -0.5587
  335MOL0     C45137   0.088   8.953  10.051 -0.0170 -0.7077 -0.2039
  335MOL0     O45138   0.187   8.714   9.889  0.8371 -0.4342  0.0773
  335MOL0     C45139   0.373   8.506   9.902 -0.4010 -0.4734 -0.1220
  335MOL0     C45140   0.475   8.412   9.908  0.3358 -0.3669  0.0607
  335MOL0     N45141   1.310   8.558  10.047  0.3631  0.0638  1.2735
  335MOL0     N45142   1.345   8.602  10.163 -0.1749 -0.3895 -0.3781
  335MOL0     C45143   1.825   8.544  11.063  0.6157 -0.5022  0.9763
  335MOL0     C45144   1.911   8.443  11.095 -0.4572 -1.0941  0.7623
  335MOL0     C45145   2.062   8.042  11.230 -0.1480  0.5055  0.8636
  335MOL0     C45146   2.121   7.945  11.136 -0.3942  0.6786  0.4925
  335MOL0     C45147   2.179   7.833  11.188 -0.2895  0.0485  0.7916
  335MOL0     C45148   2.177   7.808  11.326 -1.0821  0.5133  0.2858
  335MOL0     O45149   2.231   7.707  11.384 -0.2692 -0.4573 -0.8343
  335MOL0     C45150   2.230   7.587  11.318 -0.6642 -0.5584  1.3305
  335MOL0     C45151   2.369   7.554  11.255  0.1247 -0.6047  0.4316
  335MOL0     C45152   2.342   7.427  11.175 -0.7347  0.3328 -0.1687
  335MOL0     C45153   2.475   7.355  11.130 -0.8213  0.0502 -0.0243
  335MOL0     C45154   2.556   7.312  11.251  0.0620  0.1045  0.9941
  335MOL0     C45155   2.630   7.285  11.345 -0.7608  0.1207  0.1785
  335MOL0     C45156   2.125   7.906  11.415  0.2998 -0.2698  0.8363
  335MOL0     C45157   2.073   8.026  11.368  1.2649  0.0434 -0.0260
  335MOL0     H45158   1.797   8.352  11.395 -1.8469  0.7386 -0.6005
  335MOL0     H45159   1.642   8.535  11.356  2.1487  2.6906  1.0252
  335MOL0     H45160   1.478   8.540  11.087  1.5341 -0.5964  0.2610
  335MOL0     H45161   1.434   8.681  11.196 -0.4709 -0.5636  0.5112
  335MOL0     H45162   1.459   8.811  10.955 -2.0717  0.4150 -1.2830
  335MOL0     H45163   1.461   8.645  10.889  0.1171 -0.5278  0.5895
  335MOL0     H45164   1.260   8.577  10.994 -1.5847  1.0775  2.2415
  335MOL0     H45165   1.237   8.739  11.056 -1.9386  0.3864 -1.5107
  335MOL0     H45166   1.100   8.738  10.873 -0.3537 -2.7807  0.7038
  335MOL0     H45167   1.231   8.828  10.821  0.4631 -0.3761 -1.8384
  335MOL0     H45168   1.314   8.608  10.699  0.0614 -2.4594  1.3966
  335MOL0     H45169   1.159   8.543  10.744 -0.9379  0.6851 -0.5489
  335MOL0     H45170   1.053   8.755  10.616  0.0404 -0.8087  0.1490
  335MOL0     H45171   1.228   8.798  10.570 -0.8082 -0.3470 -5.0139
  335MOL0     H45172   1.096   8.526  10.499  0.1305  0.8623  4.4706
  335MOL0     H45173   1.072   8.669  10.395  0.3783 -0.0163 -0.1092
  335MOL0     H45174   1.337   8.522  10.462  1.0266  0.4242  0.7956
  335MOL0     H45175   1.339   8.683  10.401  1.6438 -1.0433 -3.6061
  335MOL0     H45176   1.084   8.438  10.250  0.6574  0.7310  0.3819
  335MOL0     H45177   1.113   8.446   9.876 -0.7025  0.5488  1.1082
  335MOL0     H45178   1.175   8.288   9.954  0.8629  0.3454 -1.7833
  335MOL0     H45179   0.934   8.412  10.075  2.7177 -0.2706  3.3062
  335MOL0     H45180   1.008   8.253  10.090 -1.8335 -0.5222 -0.4898
  335MOL0     H45181   0.873   8.179   9.940 -3.7628  0.3707 -0.5416
  335MOL0     H45182   0.968   8.259   9.813  0.3470  1.4396  0.0111
  335MOL0     H45183   0.721   8.303   9.790 -3.6361  1.7341  0.7409
  335MOL0     H45184   0.795   8.443   9.832  3.3909  1.0211  1.5613
  335MOL0     H45185   0.706   8.587  10.073  0.9030 -1.8120 -2.9316
  335MOL0     H45186   0.561   8.868   9.959 -1.7985  1.9555  1.0741
  335MOL0     H45187   0.538   8.856  10.126  0.4599  5.2653 -3.5106
  335MOL0     H45188   0.686   8.789  10.069 -1.1478 -1.8933  0.9248
  335MOL0     H45189   0.384   9.095   9.975 -0.4268  0.4257 -1.1657
  335MOL0     H45190   0.236   9.284   9.932  0.6303  0.4245  0.5311
  335MOL0     H45191   0.023   9.344  10.164 -0.8464 -0.6668  1.1397
  335MOL0     H45192  -0.028   9.475  10.054  2.7839 -0.7196 -1.0773
  335MOL0     H45193  -0.245   9.381  10.042  1.1993  1.1930 -0.2246
  335MOL0     H45194  -0.204   9.244  10.159 -0.2818  0.7442  0.7196
  335MOL0     H45195  -0.196   9.540  10.235  2.8873  0.0327  0.0346
  335MOL0     H45196  -0.140   9.409  10.334 -0.5421  1.3880  1.1512
  335MOL0     H45197  -0.371   9.319  10.344  4.9109 -1.6376 -1.5735
  335MOL0     H45198  -0.372   9.491  10.392 -1.5671 -0.8612  0.4191
  335MOL0     H45199  -0.447   9.404  10.116 -0.6354  0.3670  0.2298
  335MOL0     H45200  -0.460   9.571  10.190 -2.8140  0.1569  0.7702
  335MOL0     H45201  -0.635   9.337  10.226 -0.8702 -0.0928  0.4638
  335MOL0     H45202  -0.640   9.468  10.344 -1.1088  2.9754 -0.7030
  335MOL0     H45203  -0.684   9.472  10.043 -2.1505  0.5672 -0.4976
  335MOL0     H45204  -0.678   9.612  10.157  4.0545 -1.3774  2.4486
  335MOL0     H45205  -0.916   9.547  10.102 -0.3115  1.2760  1.1779
  335MOL0     H45206  -0.881   9.513  10.277 -0.8552  0.6092  0.1978
  335MOL0     H45207  -0.107   9.047  10.055  0.0579 -1.8112 -0.3832
  335MOL0     H45208   0.058   8.857  10.092 -2.6298 -1.5108 -3.5099
  335MOL0     H45209   0.279   8.465   9.867 -0.8546  0.0197  0.5156
  335MOL0     H45210   0.477   8.314   9.860  1.4415 -1.3422  1.9958
  335MOL0     H45211   1.833   8.598  10.969  2.9782  1.4760  2.1848
  335MOL0     H45212   1.984   8.422  11.017 -2.0457  0.6550 -1.3138
  335MOL0     H45213   2.121   7.958  11.028 -1.2099 -1.6726  0.1386
  335MOL0     H45214   2.234   7.757  11.133  0.7245  2.1843 -1.3164
  335MOL0     H45215   2.216   7.503  11.385  1.7040 -2.1517 -0.0110
  335MOL0     H45216   2.150   7.578  11.243 -0.2848 -0.4361  0.9036
  335MOL0     H45217   2.444   7.548  11.335  0.1324  0.5728  0.5331
  335MOL0     H45218   2.402   7.639  11.196  0.9125  0.1915  1.9577
  335MOL0     H45219   2.290   7.454  11.082  1.4273  1.4152 -1.1340
  335MOL0     H45220   2.277   7.356  11.228  0.5751 -0.0225  1.0180
  335MOL0     H45221   2.540   7.416  11.067  0.3043 -1.5221 -0.4409
  335MOL0     H45222   2.458   7.258  11.081  0.3326 -1.8702  3.0941
  335MOL0     H45223   2.695   7.279  11.430  0.7221 -2.9389 -1.0227
  335MOL0     H45224   2.128   7.889  11.522 -2.1511 -1.1655  0.8143
  335MOL0     H45225   2.048   8.105  11.439 -1.3707 -0.0676 -0.6980
  336MOL0     O45226   5.914   0.765   1.504 -0.1970  0.4504 -0.1480
  336MOL0     C45227   5.986   0.811   1.593  0.3439  0.3709  0.6376
  336MOL0     O45228   6.113   0.775   1.610 -0.3251 -0.3900 -0.6721
  336MOL0     C45229   6.175   0.672   1.546 -0.2830 -0.5693  0.1934
  336MOL0     C45230   6.124   0.542   1.515 -0.0184 -0.4536  0.3370
  336MOL0     C45231   6.216   0.442   1.467 -0.1973 -0.2072  0.0412
  336MOL0     C45232   6.356   0.475   1.464  0.3709 -0.4984 -0.0780
  336MOL0     O45233   6.444   0.380   1.418 -0.0887  0.2054 -0.9238
  336MOL0     C45234   6.445   0.349   1.285  0.8127  0.2907 -0.0784
  336MOL0     C45235   6.516   0.211   1.269  0.7923 -0.1257  0.2185
  336MOL0     C45236   6.429   0.092   1.310 -1.1807 -0.6456 -0.1698
  336MOL0     C45237   6.318   0.033   1.224 -0.2919 -0.5299  0.8547
  336MOL0     C45238   6.250  -0.089   1.283 -0.2573 -1.2916 -0.5172
  336MOL0     C45239   6.322  -0.216   1.230  0.0855 -0.0764 -0.1085
  336MOL0     C45240   6.268  -0.332   1.303 -0.5530  0.5191  0.1723
  336MOL0     C45241   6.332  -0.461   1.254  0.8865  1.0373 -0.1225
  336MOL0     N45242   6.293  -0.562   1.353  0.2089  0.1672  0.9615
  336MOL0     C45243   6.371  -0.613   1.440 -0.2625  0.8734 -0.3021
  336MOL0     C45244   6.300  -0.699   1.516 -0.2892 -0.1815  0.1491
  336MOL0     C45245   6.347  -0.783   1.636 -0.0450  0.2249  0.0879
  336MOL0     C45246   6.275  -0.910   1.650  0.6397  0.1090  0.0154
  336MOL0     C45247   6.289  -0.977   1.790 -0.5990 -1.3681 -0.7684
  336MOL0     C45248   6.428  -1.035   1.812 -0.3664 -0.8278 -0.5831
  336MOL0     O45249   6.446  -1.148   1.732 -0.2888 -0.6538 -0.0787
  336MOL0     C45250   6.575  -1.205   1.734  0.9204 -0.3770  0.2228
  336MOL0     C45251   6.568  -1.344   1.703 -0.7840  0.6358 -0.6301
  336MOL0     C45252   6.685  -1.429   1.709  0.7381 -0.3059 -0.2107
  336MOL0     C45253   6.689  -1.568   1.639  0.6949 -0.2262 -1.0339
  336MOL0     C45254   6.803  -1.372   1.758  0.0781 -0.2150 -0.4347
  336MOL0     C45255   6.921  -1.445   1.800  0.7096  0.0683  0.5476
  336MOL0     O45256   7.042  -1.396   1.758 -0.1404  0.4769  0.3280
  336MOL0     C45257   7.144  -1.465   1.807 -0.3720  1.3331  0.0447
  336MOL0     C45258   7.181  -1.595   1.758 -0.0242 -0.0023 -0.0098
  336MOL0     C45259   7.301  -1.655   1.794  0.2510  0.5145 -0.0672
  336MOL0     C45260   7.378  -1.607   1.897  0.5361 -0.2555  0.2814
  336MOL0     O45261   7.489  -1.676   1.942  0.1696 -0.7104  0.4218
  336MOL0     C45262   7.605  -1.668   1.852  0.5261 -0.7481  0.0315
  336MOL0     C45263   7.687  -1.795   1.888  0.9277  0.1913  0.2790
  336MOL0     C45264   7.783  -1.767   2.005 -0.1505  0.4672  0.3653
  336MOL0     C45265   7.921  -1.722   1.945 -0.3063  0.1251  0.2386
  336MOL0     C45266   8.022  -1.677   2.060 -0.2794  0.0392  0.2504
  336MOL0     C45267   8.166  -1.659   2.012 -1.1499  0.4911  0.5490
  336MOL0     C45268   8.260  -1.643   2.125 -0.4846 -0.1080  0.0192
  336MOL0     C45269   8.404  -1.637   2.082 -1.1684 -0.5751  0.0634
  336MOL0    Cl45270   8.516  -1.610   2.229  0.3786  0.0923 -0.3077
  336MOL0     C45271   7.333  -1.491   1.957  1.0469  0.3822  0.3172
  336MOL0     C45272   7.223  -1.421   1.911 -0.7015 -0.4754 -0.5347
  336MOL0     O45273   6.900  -1.537   1.883 -0.2636 -0.4475  0.0716
  336MOL0     C45274   6.810  -1.235   1.792  0.2334  0.1551 -0.3783
  336MOL0     C45275   6.696  -1.146   1.787  0.1243  0.4517  0.3583
  336MOL0     N45276   6.167  -0.693   1.472 -0.1284 -0.3911  0.0769
  336MOL0     N45277   6.167  -0.603   1.377 -0.4592 -0.4168 -0.2419
  336MOL0     C45278   6.401   0.596   1.519  0.0699 -0.5783  0.3393
  336MOL0     C45279   6.310   0.693   1.550 -0.2989 -0.2436  0.0496
  336MOL0     C45280   5.916   0.886   1.698  0.2741 -0.0117 -0.3499
  336MOL0     C45281   5.773   0.909   1.694 -0.0925 -0.5708 -0.2862
  336MOL0     C45282   5.709   0.995   1.792 -0.3152  0.1735  0.4804
  336MOL0     C45283   5.787   1.042   1.894  0.1598 -0.7516  0.3707
  336MOL0     O45284   5.742   1.115   2.006 -0.1694 -0.1154  0.0980
  336MOL0     C45285   5.609   1.080   2.049 -0.1540 -0.4944 -0.0560
  336MOL0     C45286   5.582   1.158   2.178  0.0386  0.4228 -0.2876
  336MOL0     C45287   5.597   1.305   2.151 -0.5715  0.2408  0.1068
  336MOL0     C45288   5.591   1.385   2.286  1.2540  0.3885 -0.1180
  336MOL0     C45289   5.711   1.371   2.363  0.4443  1.1959  0.6857
  336MOL0     C45290   5.796   1.342   2.439  0.5623 -0.3183  0.0601
  336MOL0     C45291   5.926   1.011   1.906  0.7673  0.2327  0.7245
  336MOL0     C45292   5.989   0.931   1.806  0.6511  0.7082  0.0380
  336MOL0     H45293   6.015   0.539   1.510  0.0316 -0.4539 -1.4214
  336MOL0     H45294   6.173   0.349   1.432 -0.9230 -0.5977  1.8416
  336MOL0     H45295   6.347   0.335   1.238  1.7371 -2.7089 -1.3802
  336MOL0     H45296   6.501   0.422   1.225 -0.3736 -0.7567 -2.6356
  336MOL0     H45297   6.550   0.197   1.166 -0.1069 -0.8832  0.0099
  336MOL0     H45298   6.610   0.203   1.325  2.9115 -0.2593 -3.1096
  336MOL0     H45299   6.510   0.020   1.329  0.1521  1.5553  3.6949
  336MOL0     H45300   6.383   0.121   1.405  0.1465  1.1082 -0.0213
  336MOL0     H45301   6.240   0.108   1.209  1.3015  1.5104  2.2764
  336MOL0     H45302   6.349  -0.004   1.126 -1.4931 -4.3922  1.7391
  336MOL0     H45303   6.257  -0.066   1.390  0.2915 -0.5839 -0.6929
  336MOL0     H45304   6.146  -0.091   1.248 -0.1590 -2.0112 -0.7698
  336MOL0     H45305   6.300  -0.223   1.123 -4.6666  1.1753  0.5476
  336MOL0     H45306   6.430  -0.207   1.248  0.3005 -1.5491 -0.5658
  336MOL0     H45307   6.293  -0.326   1.409  2.2974 -0.5891 -0.3454
  336MOL0     H45308   6.160  -0.333   1.286 -0.4250 -1.2108 -0.7958
  336MOL0     H45309   6.441  -0.454   1.264  0.9325 -1.3360  1.9084
  336MOL0     H45310   6.316  -0.494   1.151 -0.1911 -0.4502  0.5061
  336MOL0     H45311   6.470  -0.576   1.465 -0.1563 -0.0433  0.7416
  336MOL0     H45312   6.456  -0.799   1.638  0.4458  2.0759 -3.5253
  336MOL0     H45313   6.323  -0.724   1.725  1.7010  2.1035 -0.6059
  336MOL0     H45314   6.316  -0.982   1.579  2.3774 -1.1798  2.1881
  336MOL0     H45315   6.168  -0.893   1.636  0.7858 -0.8631 -2.7715
  336MOL0     H45316   6.206  -1.048   1.788 -2.7898  1.0136 -3.3541
  336MOL0     H45317   6.263  -0.900   1.864  0.0541 -0.8662 -1.0533
  336MOL0     H45318   6.439  -1.054   1.919 -0.1327  0.1605 -0.4176
  336MOL0     H45319   6.507  -0.961   1.795 -2.3630  1.3272 -0.9574
  336MOL0     H45320   6.478  -1.392   1.665  1.1469 -4.2325  0.2024
  336MOL0     H45321   6.769  -1.632   1.674  0.3146  0.7416  1.8856
  336MOL0     H45322   6.590  -1.610   1.661 -1.0173  4.4202  1.7786
  336MOL0     H45323   6.701  -1.557   1.531 -1.1327 -1.3616 -1.4110
  336MOL0     H45324   7.127  -1.648   1.679  1.0160 -0.1963 -0.6140
  336MOL0     H45325   7.324  -1.747   1.740 -1.8708 -0.9277  1.3135
  336MOL0     H45326   7.569  -1.688   1.750 -1.3200 -3.9041  1.1635
  336MOL0     H45327   7.672  -1.582   1.865 -1.8254  1.2123 -0.1034
  336MOL0     H45328   7.611  -1.866   1.920 -1.5413  2.9758  1.0081
  336MOL0     H45329   7.744  -1.819   1.797  1.1996 -0.1138  0.5250
  336MOL0     H45330   7.791  -1.855   2.070 -0.2497  1.4994  1.8002
  336MOL0     H45331   7.741  -1.690   2.069  0.9891  1.3622  0.0537
  336MOL0     H45332   7.959  -1.814   1.902 -1.3807 -1.1070  1.7949
  336MOL0     H45333   7.916  -1.648   1.865 -0.5138  1.7416  1.6851
  336MOL0     H45334   8.015  -1.758   2.133 -1.9639  2.9936  3.7029
  336MOL0     H45335   7.983  -1.586   2.106 -1.4659 -0.1097 -0.4045
  336MOL0     H45336   8.190  -1.754   1.963 -1.3516  0.2422  0.9295
  336MOL0     H45337   8.171  -1.576   1.941 -1.3065  2.1807  2.4352
  336MOL0     H45338   8.244  -1.706   2.214 -1.1587 -0.2007 -0.1628
  336MOL0     H45339   8.238  -1.542   2.158  1.4462  0.7444 -1.1331
  336MOL0     H45340   8.416  -1.555   2.011 -1.1968 -1.5260 -1.0556
  336MOL0     H45341   8.442  -1.733   2.045 -0.9837 -2.1397  3.7795
  336MOL0     H45342   7.399  -1.456   2.036  0.3808  0.4099  0.8691
  336MOL0     H45343   7.210  -1.332   1.971  3.1737  1.6598 -2.4922
  336MOL0     H45344   6.902  -1.205   1.841  0.1046 -2.7486  1.9094
  336MOL0     H45345   6.703  -1.039   1.802 -3.1571  1.1574 -2.2051
  336MOL0     H45346   6.508   0.614   1.532 -0.5806  1.8193  3.5164
  336MOL0     H45347   6.348   0.789   1.583  0.8943  0.1860 -2.3504
  336MOL0     H45348   5.705   0.867   1.621 -1.5064 -1.6098  1.5235
  336MOL0     H45349   5.602   1.001   1.776 -0.0605  0.6607 -1.3057
  336MOL0     H45350   5.533   1.107   1.975 -0.1170 -0.9718 -0.2706
  336MOL0     H45351   5.605   0.973   2.072 -1.7806 -1.0889 -2.7210
  336MOL0     H45352   5.651   1.126   2.257  0.2624  1.1207 -0.1977
  336MOL0     H45353   5.478   1.138   2.205 -0.3787  1.7746 -0.8062
  336MOL0     H45354   5.522   1.348   2.085 -0.8078 -0.1727  0.0987
  336MOL0     H45355   5.694   1.326   2.105 -0.0738  0.3050  1.1710
  336MOL0     H45356   5.506   1.342   2.339 -0.0067 -1.4969 -3.3714
  336MOL0     H45357   5.563   1.489   2.269 -3.0872 -0.2027  2.0989
  336MOL0     H45358   5.874   1.334   2.511  0.5595  0.5934  0.1722
  336MOL0     H45359   5.982   1.070   1.978  0.5072 -1.1624  2.1185
  336MOL0     H45360   6.095   0.908   1.816  0.2502 -2.1481 -1.1364
  337MOL0     O45361   5.343  10.006   0.599 -0.1560  0.0685 -0.0614
  337MOL0     C45362   5.407  10.050   0.505  0.9239  0.2189  1.2629
  337MOL0     O45363   5.360  10.136   0.415  0.1492  0.0378 -0.9719
  337MOL0     C45364   5.231  10.183   0.426 -0.1471  0.1356  0.1515
  337MOL0     C45365   5.207  10.315   0.380  0.0783 -0.5162  0.1288
  337MOL0     C45366   5.072  10.358   0.352 -0.0708  0.0441  0.7137
  337MOL0     C45367   4.965  10.293   0.407 -0.4544  0.3999 -0.6964
  337MOL0     O45368   4.848  10.364   0.412  0.5675 -0.1349 -0.3031
  337MOL0     C45369   4.730  10.286   0.451  0.0549 -0.5399  0.3642
  337MOL0     C45370   4.598  10.364   0.425 -0.0268  0.0628  0.7229
  337MOL0     C45371   4.591  10.487   0.519 -1.0810  0.0138  0.4447
  337MOL0     C45372   4.670  10.603   0.470  0.5983 -0.9248  1.3782
  337MOL0     C45373   4.638  10.739   0.516 -0.1196  0.0522  0.3992
  337MOL0     C45374   4.509  10.815   0.470  1.0521  0.4476  0.9511
  337MOL0     C45375   4.497  10.946   0.540 -0.5839 -0.0890 -0.1712
  337MOL0     C45376   4.393  11.039   0.482 -0.5053 -0.5956 -0.0691
  337MOL0     N45377   4.268  11.025   0.565  0.0942 -0.7293  0.3427
  337MOL0     C45378   4.259  11.107   0.676  0.4923 -0.5706 -0.1839
  337MOL0     C45379   4.125  11.120   0.703  0.0679  1.1512 -0.2124
  337MOL0     C45380   4.054  11.187   0.813  0.1204 -0.4163  0.3456
  337MOL0     C45381   3.954  11.295   0.758 -0.5547 -0.2645  0.3330
  337MOL0     C45382   3.883  11.375   0.876  0.1007 -0.0393 -0.2635
  337MOL0     C45383   3.782  11.473   0.822 -0.1361  0.0288  0.3863
  337MOL0     O45384   3.715  11.531   0.929  1.3481 -0.1885 -0.0214
  337MOL0     C45385   3.588  11.586   0.910  0.0913 -0.4531 -1.1660
  337MOL0     C45386   3.539  11.635   0.787  0.1046 -0.5302  0.0580
  337MOL0     C45387   3.413  11.684   0.764 -0.0030 -0.2729  0.3577
  337MOL0     C45388   3.390  11.733   0.620 -0.0334 -0.2471  0.4938
  337MOL0     C45389   3.324  11.703   0.872  0.2815  0.5325  0.1188
  337MOL0     C45390   3.189  11.764   0.876  0.2659 -0.3224  0.2907
  337MOL0     O45391   3.139  11.833   0.762 -0.7496  0.5437  0.5333
  337MOL0     C45392   3.018  11.894   0.779  0.4666 -0.3609  0.5350
  337MOL0     C45393   2.906  11.840   0.845 -0.1467  0.0978  0.5628
  337MOL0     C45394   2.785  11.902   0.843 -0.1554  0.3541  0.6084
  337MOL0     C45395   2.770  12.015   0.771  0.1749 -1.3612 -0.3086
  337MOL0     O45396   2.644  12.071   0.777  0.4658 -0.7843 -0.1326
  337MOL0     C45397   2.538  11.973   0.746 -0.1887 -0.6452 -1.1734
  337MOL0     C45398   2.422  12.032   0.676 -0.0737 -0.3573  0.5358
  337MOL0     C45399   2.465  12.110   0.548  0.2075 -0.5772  1.7898
  337MOL0     C45400   2.429  12.016   0.432 -0.8227 -0.3047  0.1244
  337MOL0     C45401   2.495  12.038   0.296  1.1461 -0.2202 -0.3794
  337MOL0     C45402   2.642  12.038   0.307 -0.6101 -0.0327  0.5207
  337MOL0     C45403   2.686  11.893   0.333  0.3981 -0.1261  0.3561
  337MOL0     C45404   2.823  11.862   0.272 -0.3999  0.3535 -1.0075
  337MOL0    Cl45405   2.945  11.939   0.381 -0.2777  0.5863 -0.1492
  337MOL0     C45406   2.878  12.074   0.704 -0.0623  0.1894 -0.2897
  337MOL0     C45407   3.004  12.011   0.700  0.1575  0.2363  1.0205
  337MOL0     O45408   3.135  11.776   0.983  0.1619 -0.0257 -0.3765
  337MOL0     C45409   3.375  11.646   0.998  0.2070 -0.5744  0.3769
  337MOL0     C45410   3.501  11.591   1.016 -0.1199 -0.2571  0.0110
  337MOL0     N45411   4.064  11.033   0.617 -1.7352 -0.4437 -0.2478
  337MOL0     N45412   4.151  10.972   0.535 -0.1352  0.0998 -0.5614
  337MOL0     C45413   4.981  10.165   0.457  0.2654  1.1025 -0.7395
  337MOL0     C45414   5.113  10.110   0.469 -0.5484  0.0162  0.2602
  337MOL0     C45415   5.542   9.992   0.491  0.2931 -0.4816 -0.9314
  337MOL0     C45416   5.630   9.974   0.602 -0.9450  0.8643  0.4932
  337MOL0     C45417   5.751   9.912   0.584  0.1051 -0.4918 -0.2644
  337MOL0     C45418   5.794   9.893   0.449 -0.7533  0.1047 -0.2358
  337MOL0     O45419   5.915   9.830   0.428 -0.5978 -0.1231  1.2604
  337MOL0     C45420   6.013   9.896   0.342  0.0883  1.0916  0.6127
  337MOL0     C45421   6.142   9.854   0.405  0.6948 -0.8709 -0.6947
  337MOL0     C45422   6.155   9.850   0.555 -0.0920 -0.0381  0.3402
  337MOL0     C45423   6.301   9.813   0.583 -1.3744  0.8908 -0.0699
  337MOL0     C45424   6.340   9.811   0.728  1.2807  0.0973  0.5490
  337MOL0     C45425   6.383   9.820   0.839  0.4567 -0.7735 -0.8699
  337MOL0     C45426   5.712   9.913   0.343  0.0397 -0.3436 -0.2715
  337MOL0     C45427   5.580   9.950   0.367 -0.2053  1.0064  0.2832
  337MOL0     H45428   5.279  10.379   0.331 -0.9820  0.0498 -0.7453
  337MOL0     H45429   5.047  10.455   0.309 -1.0382 -1.1141 -1.4627
  337MOL0     H45430   4.717  10.198   0.387 -1.8600 -0.6564  0.8769
  337MOL0     H45431   4.744  10.256   0.555 -2.7509 -0.2062  0.9067
  337MOL0     H45432   4.589  10.398   0.321  1.6472  1.9851  1.1452
  337MOL0     H45433   4.504  10.309   0.440  0.3320 -0.5674  0.6853
  337MOL0     H45434   4.489  10.522   0.538 -1.4845 -0.6814 -0.3524
  337MOL0     H45435   4.617  10.454   0.619  1.2759  2.1025  0.6086
  337MOL0     H45436   4.778  10.594   0.481  0.6414 -2.6874 -0.1740
  337MOL0     H45437   4.668  10.600   0.361 -1.3684 -1.3951  1.3862
  337MOL0     H45438   4.647  10.740   0.625 -0.5185 -2.0824  0.4933
  337MOL0     H45439   4.715  10.807   0.477  0.1734 -0.4522  0.0943
  337MOL0     H45440   4.509  10.829   0.362 -0.2159 -2.0619  0.5588
  337MOL0     H45441   4.426  10.751   0.501 -0.6361  2.2656  0.3843
  337MOL0     H45442   4.477  10.947   0.648 -0.7845  0.0480 -0.2094
  337MOL0     H45443   4.590  11.003   0.538 -2.4929  3.7315  3.6182
  337MOL0     H45444   4.373  11.033   0.375 -3.3687 -1.0220  0.4196
  337MOL0     H45445   4.440  11.136   0.501  0.1811 -1.4283  3.2563
  337MOL0     H45446   4.344  11.152   0.727  0.7074 -0.6682 -0.4499
  337MOL0     H45447   3.997  11.107   0.862 -2.3959  2.0039  1.6782
  337MOL0     H45448   4.126  11.237   0.878  1.7421  0.6429 -2.0958
  337MOL0     H45449   3.882  11.244   0.694 -0.7504  0.8207 -0.3280
  337MOL0     H45450   4.003  11.361   0.686  2.6822 -0.8602  1.8346
  337MOL0     H45451   3.951  11.441   0.931 -0.6906 -0.7178  1.6103
  337MOL0     H45452   3.825  11.301   0.932  0.0973 -1.2068 -1.7243
  337MOL0     H45453   3.707  11.425   0.757 -0.2431  0.7215 -0.0128
  337MOL0     H45454   3.835  11.555   0.774 -2.0382  1.5568  0.7766
  337MOL0     H45455   3.615  11.641   0.710 -0.0997  0.5374 -0.0771
  337MOL0     H45456   3.302  11.696   0.567  0.9600 -0.9324 -0.7537
  337MOL0     H45457   3.375  11.841   0.616  0.8024 -0.1458 -2.3521
  337MOL0     H45458   3.486  11.730   0.566  0.3880  2.1421  1.0051
  337MOL0     H45459   2.911  11.740   0.886  0.8531 -0.2403 -0.3609
  337MOL0     H45460   2.701  11.853   0.892  1.2057  0.7741  3.5769
  337MOL0     H45461   2.580  11.880   0.706  0.8135 -1.1056  0.8246
  337MOL0     H45462   2.488  11.949   0.840  2.1239 -1.2503 -0.0181
  337MOL0     H45463   2.353  11.951   0.651  1.8677 -1.8100 -0.3444
  337MOL0     H45464   2.375  12.094   0.752  0.3047 -1.4892  1.7237
  337MOL0     H45465   2.571  12.139   0.544  0.0970 -0.2592  0.8642
  337MOL0     H45466   2.408  12.202   0.531  1.7066  0.4215  1.9866
  337MOL0     H45467   2.450  11.909   0.447 -1.3944 -0.3526  0.6240
  337MOL0     H45468   2.321  12.022   0.415 -0.9579 -2.3242 -0.0113
  337MOL0     H45469   2.481  12.138   0.255  1.8103  0.2936  0.6001
  337MOL0     H45470   2.451  11.968   0.224 -1.6183 -0.0700  1.0512
  337MOL0     H45471   2.671  12.063   0.205  0.4936 -1.0481  0.5705
  337MOL0     H45472   2.680  12.115   0.375  0.1152  0.5778 -0.5544
  337MOL0     H45473   2.611  11.829   0.287 -1.0024  2.0403 -0.5402
  337MOL0     H45474   2.686  11.876   0.441 -0.4191  2.4242  0.8308
  337MOL0     H45475   2.839  11.904   0.172 -2.3935  0.6051 -1.2703
  337MOL0     H45476   2.826  11.753   0.259  0.4213  0.1795  0.4311
  337MOL0     H45477   2.871  12.169   0.651  0.4056  0.1410 -0.4417
  337MOL0     H45478   3.093  12.041   0.647  0.5080 -2.6829 -0.2479
  337MOL0     H45479   3.308  11.630   1.082  0.0842  0.2281  0.4359
  337MOL0     H45480   3.531  11.554   1.113 -2.2825 -1.6244  0.2186
  337MOL0     H45481   4.903  10.113   0.511  1.6159  0.9259  1.1405
  337MOL0     H45482   5.123  10.008   0.502  1.4025 -0.0880 -0.5716
  337MOL0     H45483   5.584  10.014   0.692 -2.1120 -0.5672  0.5674
  337MOL0     H45484   5.825   9.905   0.663 -1.1194 -0.2003  0.9476
  337MOL0     H45485   5.997   9.865   0.239  1.3619  3.5179 -0.3844
  337MOL0     H45486   5.992  10.004   0.345  0.4742  1.3134 -2.2115
  337MOL0     H45487   6.222   9.920   0.371  2.1095 -1.1915  1.7562
  337MOL0     H45488   6.168   9.751   0.377 -0.2592 -1.5176  0.6732
  337MOL0     H45489   6.087   9.774   0.596  1.5687 -0.9162  1.5731
  337MOL0     H45490   6.136   9.947   0.601 -0.6319 -0.7800  1.7514
  337MOL0     H45491   6.370   9.885   0.538  0.2889 -0.8512 -0.4632
  337MOL0     H45492   6.316   9.714   0.538  2.0868  1.2232  0.0826
  337MOL0     H45493   6.401   9.828   0.944 -0.4901  2.6240 -0.8773
  337MOL0     H45494   5.755   9.888   0.246  0.2169  1.3817 -0.6754
  337MOL0     H45495   5.516   9.948   0.280  1.8711 -2.9603 -1.4324
  338MOL0     O45496   8.506   1.089  10.944  0.1260  0.1438  0.3918
  338MOL0     C45497   8.460   1.007  10.863 -0.0832  0.4750  0.6475
  338MOL0     O45498   8.399   1.037  10.748  0.5697 -0.5681  0.8566
  338MOL0     C45499   8.364   1.173  10.737 -0.3611 -0.7238 -0.6849
  338MOL0     C45500   8.256   1.211  10.814 -0.3839  0.4154  0.0200
  338MOL0     C45501   8.207   1.338  10.796 -1.0459  1.2571 -0.0651
  338MOL0     C45502   8.270   1.438  10.712 -0.1982  0.0510 -0.1867
  338MOL0     O45503   8.234   1.570  10.698 -0.3761  0.0750  0.9174
  338MOL0     C45504   8.109   1.610  10.750 -0.0454  0.0708  0.0984
  338MOL0     C45505   8.085   1.761  10.726  0.2346 -0.4960  0.4545
  338MOL0     C45506   7.927   1.801  10.730 -0.5530  0.5250  0.6641
  338MOL0     C45507   7.850   1.759  10.859  0.3898 -0.4157 -0.4591
  338MOL0     C45508   7.706   1.793  10.843  1.0640  0.3572 -0.7033
  338MOL0     C45509   7.628   1.773  10.971  0.1752 -0.0675  0.0786
  338MOL0     C45510   7.489   1.837  10.949 -0.0993  0.3495  0.1032
  338MOL0     C45511   7.406   1.779  11.068 -0.6715  0.0665 -0.2551
  338MOL0     N45512   7.268   1.824  11.084 -0.3466  0.4337  0.4384
  338MOL0     C45513   7.164   1.763  11.023  0.4523 -0.2269  0.4321
  338MOL0     C45514   7.057   1.823  11.083  0.3732 -1.3034  0.9336
  338MOL0     C45515   6.917   1.803  11.034  0.0452 -0.4180  0.5130
  338MOL0     C45516   6.862   1.911  10.943 -0.5682 -0.5180  0.3229
  338MOL0     C45517   6.714   1.885  10.910  0.0720 -0.2212 -0.4322
  338MOL0     C45518   6.653   2.007  10.849 -0.9193  0.8131  0.5752
  338MOL0     O45519   6.526   1.961  10.805  0.2747 -0.9742 -0.0780
  338MOL0     C45520   6.430   2.054  10.781  1.5475 -0.6390 -0.5524
  338MOL0     C45521   6.295   2.003  10.754 -0.5756  0.4639  0.2941
  338MOL0     C45522   6.187   2.073  10.716  0.1911 -0.6618 -0.4327
  338MOL0     C45523   6.051   2.004  10.684 -0.5379  0.1004  0.2728
  338MOL0     C45524   6.200   2.217  10.730  0.3505  0.4360  0.3656
  338MOL0     C45525   6.091   2.313  10.706 -0.7500  0.0385 -0.3150
  338MOL0     O45526   5.990   2.292  10.612 -0.3154 -0.2285  0.5677
  338MOL0     C45527   5.910   2.396  10.592 -1.2759 -0.9576 -0.3141
  338MOL0     C45528   5.784   2.398  10.647  0.3647  0.2334 -0.7026
  338MOL0     C45529   5.688   2.504  10.637  0.5801  0.4248  0.2475
  338MOL0     C45530   5.726   2.615  10.560  0.4319  0.9351 -0.6832
  338MOL0     O45531   5.639   2.722  10.544 -0.1059 -0.2185  0.2873
  338MOL0     C45532   5.497   2.694  10.529 -0.7493 -0.3126 -0.1353
  338MOL0     C45533   5.445   2.821  10.465  0.2053  0.4525 -0.0464
  338MOL0     C45534   5.330   2.886  10.551  0.1413 -0.3280  1.4967
  338MOL0     C45535   5.285   3.029  10.509 -0.5563  0.3488 -0.2834
  338MOL0     C45536   5.165   3.084  10.575 -0.2923  0.1150 -0.5705
  338MOL0     C45537   5.032   3.017  10.535  0.0153  0.7955 -0.1970
  338MOL0     C45538   4.908   3.085  10.597 -1.5667 -0.0102 -0.1156
  338MOL0     C45539   4.783   3.032  10.520  0.2186  0.3386 -0.1815
  338MOL0    Cl45540   4.794   2.856  10.489  0.2326 -0.0823  0.1892
  338MOL0     C45541   5.857   2.624  10.515 -0.4262  0.8393  0.0546
  338MOL0     C45542   5.945   2.512  10.523 -0.1597 -1.1257 -0.1444
  338MOL0     O45543   6.094   2.405  10.781 -0.5068 -0.0750 -0.3958
  338MOL0     C45544   6.327   2.267  10.757 -1.0940 -0.2533  0.5398
  338MOL0     C45545   6.440   2.192  10.781  1.0219 -0.4559  0.2002
  338MOL0     N45546   7.105   1.915  11.180  0.9660  0.2932  0.7957
  338MOL0     N45547   7.234   1.908  11.183  0.4522  0.0907  0.2382
  338MOL0     C45548   8.389   1.398  10.645  0.1280 -0.2978  0.2278
  338MOL0     C45549   8.435   1.263  10.661 -0.1096  0.4683  0.5094
  338MOL0     C45550   8.507   0.869  10.870  0.7849  0.6014  0.7952
  338MOL0     C45551   8.447   0.766  10.799 -0.5051 -0.5699  0.6802
  338MOL0     C45552   8.496   0.631  10.816 -0.6262  0.3830  0.7198
  338MOL0     C45553   8.588   0.593  10.915  0.7049  0.5548 -0.0596
  338MOL0     O45554   8.618   0.459  10.926 -0.4573  0.3241  0.5104
  338MOL0     C45555   8.743   0.418  10.970  1.3902  0.4528 -0.2901
  338MOL0     C45556   8.747   0.261  10.974  0.0553  0.3090  0.3566
  338MOL0     C45557   8.734   0.193  10.834  0.1419  0.7767 -0.3517
  338MOL0     C45558   8.710   0.039  10.842 -0.0516  1.5610 -0.4044
  338MOL0     C45559   8.827  -0.033  10.893  0.3421 -0.0743  0.2728
  338MOL0     C45560   8.910  -0.107  10.939 -0.2741 -0.6837  0.3704
  338MOL0     C45561   8.642   0.704  10.992 -0.2759  0.1788 -0.2292
  338MOL0     C45562   8.607   0.838  10.963 -0.9193  0.0263 -0.7089
  338MOL0     H45563   8.206   1.133  10.871  0.4811  0.2492  0.5626
  338MOL0     H45564   8.116   1.367  10.847 -0.0490  1.1778  1.8541
  338MOL0     H45565   8.029   1.554  10.701 -0.2080  1.6978 -1.6032
  338MOL0     H45566   8.101   1.588  10.857  0.9682  1.5032  0.4959
  338MOL0     H45567   8.140   1.820  10.799  2.4930  2.3101 -3.1979
  338MOL0     H45568   8.129   1.783  10.629  1.2148 -0.7439  0.8335
  338MOL0     H45569   7.918   1.908  10.711  1.4918  0.5298 -0.5463
  338MOL0     H45570   7.872   1.744  10.654  0.1483  4.1701 -2.9223
  338MOL0     H45571   7.870   1.653  10.876 -2.0235 -0.9155 -0.3404
  338MOL0     H45572   7.888   1.806  10.950 -1.2127  2.1187 -0.9903
  338MOL0     H45573   7.704   1.899  10.815 -4.7371  0.4494 -1.0091
  338MOL0     H45574   7.667   1.729  10.764  4.2968 -1.5225 -0.9562
  338MOL0     H45575   7.625   1.664  10.979  2.0629 -0.3502 -1.9644
  338MOL0     H45576   7.684   1.806  11.059  0.2621 -2.2444  0.8925
  338MOL0     H45577   7.502   1.944  10.968 -1.6792  0.5117  0.3856
  338MOL0     H45578   7.443   1.814  10.853 -1.0280 -0.1290  0.6541
  338MOL0     H45579   7.460   1.810  11.158  1.3597  0.4537 -1.5370
  338MOL0     H45580   7.399   1.670  11.063  0.4452  0.0429 -2.4952
  338MOL0     H45581   7.160   1.690  10.942 -1.5873  0.5152 -0.2038
  338MOL0     H45582   6.910   1.705  10.985 -1.4678 -0.3999  0.6541
  338MOL0     H45583   6.864   1.790  11.129  2.0940 -4.0390  1.3662
  338MOL0     H45584   6.927   1.914  10.855  1.0645  3.1772  1.4381
  338MOL0     H45585   6.862   2.009  10.993  0.3101  0.5662 -1.6850
  338MOL0     H45586   6.661   1.863  11.003  0.4522 -3.9727 -0.9240
  338MOL0     H45587   6.717   1.802  10.839  3.0576 -1.6703  1.1832
  338MOL0     H45588   6.697   2.038  10.753 -0.1608  1.6416  1.1739
  338MOL0     H45589   6.656   2.093  10.916  3.5354  0.8224  0.7075
  338MOL0     H45590   6.280   1.896  10.766  1.0507  0.0315 -1.1846
  338MOL0     H45591   6.063   1.896  10.699  2.5049  0.0093 -1.9013
  338MOL0     H45592   5.974   2.045  10.751 -1.4743  0.9404 -1.2616
  338MOL0     H45593   6.010   2.029  10.585 -3.4457  1.1372  1.6108
  338MOL0     H45594   5.763   2.316  10.715  4.3275  0.3747  0.9893
  338MOL0     H45595   5.596   2.480  10.690  0.1913 -3.7142 -1.9103
  338MOL0     H45596   5.488   2.607  10.463 -1.0661  1.8358 -3.1332
  338MOL0     H45597   5.445   2.682  10.625 -2.2473 -0.0510 -0.8938
  338MOL0     H45598   5.520   2.899  10.447 -0.9341  2.3382  2.6359
  338MOL0     H45599   5.420   2.801  10.360  1.5769 -1.6905 -0.0072
  338MOL0     H45600   5.367   2.901  10.652 -0.3094  0.4948  1.5453
  338MOL0     H45601   5.244   2.818  10.545  2.1531 -2.9525 -0.1992
  338MOL0     H45602   5.366   3.095  10.539 -0.0240 -0.4184 -0.0063
  338MOL0     H45603   5.266   3.019  10.401 -1.4918 -0.5866 -0.0482
  338MOL0     H45604   5.152   3.188  10.543  0.2708 -0.8876 -4.5364
  338MOL0     H45605   5.167   3.061  10.682  0.9204 -3.0915 -1.1781
  338MOL0     H45606   5.033   3.017  10.426 -1.2219  1.3160 -0.2290
  338MOL0     H45607   5.028   2.912  10.564 -2.3744  1.0283  0.6041
  338MOL0     H45608   4.897   3.193  10.597 -0.5604  0.1254  1.2867
  338MOL0     H45609   4.906   3.061  10.704  0.6865 -0.4762 -0.1313
  338MOL0     H45610   4.788   3.088  10.426  0.3380  0.6664  0.0185
  338MOL0     H45611   4.690   3.054  10.573 -0.4816  1.9506 -1.9709
  338MOL0     H45612   5.892   2.718  10.474  3.2423  0.4657  1.9124
  338MOL0     H45613   6.050   2.519  10.496  0.4957 -0.3978  2.3385
  338MOL0     H45614   6.336   2.375  10.758 -0.9868 -0.1450 -2.4055
  338MOL0     H45615   6.530   2.246  10.808  0.0237  0.2104  2.5268
  338MOL0     H45616   8.451   1.477  10.604  1.6070 -1.2380  0.5528
  338MOL0     H45617   8.529   1.241  10.610 -0.1388  0.0683  0.6247
  338MOL0     H45618   8.365   0.788  10.732 -0.8906 -0.3629  1.2192
  338MOL0     H45619   8.453   0.550  10.759  3.2038 -1.4989  0.1523
  338MOL0     H45620   8.813   0.455  10.894 -1.4454 -1.1652 -3.9963
  338MOL0     H45621   8.776   0.456  11.067  2.2633  2.6300 -1.3750
  338MOL0     H45622   8.672   0.224  11.045 -1.4144 -1.2723 -1.8680
  338MOL0     H45623   8.834   0.223  11.029 -0.6935 -1.2155  0.5475
  338MOL0     H45624   8.829   0.223  10.786  0.4226  1.8987  0.8403
  338MOL0     H45625   8.645   0.234  10.785  0.9161 -0.1418 -2.6972
  338MOL0     H45626   8.697   0.010  10.738  0.4760  3.2844 -0.9859
  338MOL0     H45627   8.622   0.007  10.898  1.9698 -3.1537  0.5180
  338MOL0     H45628   8.977  -0.172  10.991 -0.2260 -1.3917 -0.5518
  338MOL0     H45629   8.731   0.686  11.051  0.4182 -1.1925 -1.6265
  338MOL0     H45630   8.657   0.916  11.020  0.1697 -4.3390  5.2109
  339MOL0     O45631  10.336  10.184   9.110  0.2305  0.4869  0.1548
  339MOL0     C45632  10.364  10.276   9.027 -0.4217 -0.2052 -0.8899
  339MOL0     O45633  10.294  10.389   8.998  0.4601 -0.4697  0.4859
  339MOL0     C45634  10.171  10.408   9.054 -0.0767 -0.2907 -0.1741
  339MOL0     C45635  10.146  10.383   9.187  0.1399  0.0945 -0.9669
  339MOL0     C45636  10.012  10.369   9.235 -0.2168  0.1091 -0.0395
  339MOL0     C45637   9.902  10.378   9.151 -0.5576 -0.8045  0.7018
  339MOL0     O45638   9.773  10.394   9.209 -0.2268 -0.2782  0.1919
  339MOL0     C45639   9.661  10.375   9.112  0.7211 -0.1577 -0.0873
  339MOL0     C45640   9.528  10.344   9.181  0.7381 -0.5370  1.1043
  339MOL0     C45641   9.482  10.451   9.290 -1.1300  0.6202  0.1101
  339MOL0     C45642   9.351  10.414   9.363  0.0502  0.7897  1.2335
  339MOL0     C45643   9.327  10.504   9.479  0.6293 -0.7639 -0.2401
  339MOL0     C45644   9.210  10.437   9.571  0.3847 -0.7913  0.0549
  339MOL0     C45645   9.060  10.430   9.515  0.1235 -0.5871  0.6221
  339MOL0     C45646   8.973  10.386   9.631 -0.0282 -0.7722  0.1061
  339MOL0     N45647   8.831  10.416   9.607 -0.4756  0.4195 -0.5069
  339MOL0     C45648   8.765  10.354   9.493 -0.6654 -1.1103  0.0503
  339MOL0     C45649   8.648  10.413   9.485  0.4942  0.0543 -0.0664
  339MOL0     C45650   8.563  10.396   9.354  0.3278 -0.0135 -0.2372
  339MOL0     C45651   8.415  10.354   9.382 -0.0980  0.5243 -0.1875
  339MOL0     C45652   8.333  10.473   9.424 -0.4873  0.5975  0.4976
  339MOL0     C45653   8.204  10.432   9.506 -0.3989  0.2200 -0.3717
  339MOL0     O45654   8.142  10.313   9.457  0.1463  0.2060  0.0781
  339MOL0     C45655   8.026  10.272   9.511 -0.1534  0.6322 -0.8781
  339MOL0     C45656   7.932  10.350   9.585 -0.5050  0.1523 -0.0948
  339MOL0     C45657   7.808  10.298   9.620  0.3988  0.5155  0.2864
  339MOL0     C45658   7.735  10.376   9.720 -0.4330  0.1376  0.3938
  339MOL0     C45659   7.766  10.176   9.558 -0.5310  0.4665 -0.2615
  339MOL0     C45660   7.633  10.122   9.575 -0.2219  0.3125  0.0004
  339MOL0     O45661   7.523  10.201   9.558 -0.6049 -0.1538  0.0023
  339MOL0     C45662   7.401  10.161   9.515 -0.1053  0.6449  0.3417
  339MOL0     C45663   7.335  10.038   9.550 -0.1570 -0.6853  0.5087
  339MOL0     C45664   7.219   9.996   9.478 -0.2487  0.3054  0.8499
  339MOL0     C45665   7.165  10.087   9.379 -0.4333  0.8331 -1.0240
  339MOL0     O45666   7.049  10.046   9.311 -1.3040  0.0350 -0.6863
  339MOL0     C45667   6.969  10.131   9.237  1.0393  0.1973 -0.5301
  339MOL0     C45668   6.827  10.083   9.236 -0.4855 -0.6110 -0.8050
  339MOL0     C45669   6.801   9.974   9.134  0.0536 -1.0339 -0.2418
  339MOL0     C45670   6.653   9.940   9.120  0.0037 -0.2067  0.2170
  339MOL0     C45671   6.647   9.825   9.025  0.2475  0.0622  0.5134
  339MOL0     C45672   6.501   9.814   8.965  0.2370  0.0398 -0.2891
  339MOL0     C45673   6.492   9.713   8.860 -0.1490  1.1608  0.3136
  339MOL0     C45674   6.371   9.734   8.760  0.3790 -0.6188  0.1670
  339MOL0    Cl45675   6.213   9.720   8.838 -0.0107  0.1597  0.6991
  339MOL0     C45676   7.224  10.205   9.358  0.0262 -0.3428 -0.2772
  339MOL0     C45677   7.344  10.245   9.421  0.1787 -0.1222 -1.1451
  339MOL0     O45678   7.621  10.000   9.578 -0.2148  0.2491 -0.4029
  339MOL0     C45679   7.863  10.097   9.491  0.2543 -0.3222 -0.3527
  339MOL0     C45680   7.986  10.148   9.466 -0.4200 -0.6713 -0.1356
  339MOL0     N45681   8.642  10.501   9.590 -0.2307  0.6689 -0.5745
  339MOL0     N45682   8.748  10.505   9.662 -0.8549 -0.0125 -0.2825
  339MOL0     C45683   9.937  10.414   9.012 -0.0333 -0.3582  0.7925
  339MOL0     C45684  10.065  10.428   8.965 -0.2517  0.0275 -0.3575
  339MOL0     C45685  10.501  10.275   8.950 -0.1107  0.0319 -0.5756
  339MOL0     C45686  10.525  10.358   8.842 -0.7170 -0.8770 -0.2433
  339MOL0     C45687  10.645  10.350   8.771 -0.4425 -0.4940  0.1512
  339MOL0     C45688  10.732  10.250   8.800  0.5988  0.7369 -0.0195
  339MOL0     O45689  10.845  10.244   8.723  0.3435 -0.0608  0.2547
  339MOL0     C45690  10.943  10.141   8.737 -0.7134  0.0392  0.3741
  339MOL0     C45691  10.956  10.052   8.620 -0.3049  0.0387 -0.4589
  339MOL0     C45692  10.832   9.964   8.589 -0.6661  0.0286  0.8746
  339MOL0     C45693  10.878   9.878   8.471 -0.3756 -0.1892 -0.1010
  339MOL0     C45694  10.764   9.804   8.423 -0.5151 -0.3602  0.9081
  339MOL0     C45695  10.656   9.757   8.393  1.1193  0.6305  0.1973
  339MOL0     C45696  10.704  10.158   8.909 -0.5030  0.4625  0.7937
  339MOL0     C45697  10.587  10.167   8.972 -0.5814  0.9085 -0.0309
  339MOL0     H45698  10.224  10.355   9.256  1.2218 -1.0894 -2.6110
  339MOL0     H45699  10.006  10.340   9.339  5.6522 -0.8728  0.3357
  339MOL0     H45700   9.653  10.471   9.060  0.5152 -0.4878 -0.6640
  339MOL0     H45701   9.677  10.297   9.038  0.4378  1.1560 -1.5834
  339MOL0     H45702   9.460  10.339   9.095  1.1111  2.5833  0.4996
  339MOL0     H45703   9.531  10.245   9.226  0.7833 -0.2911  1.6491
  339MOL0     H45704   9.552  10.453   9.374 -3.5626 -0.9992  2.3524
  339MOL0     H45705   9.482  10.543   9.231 -2.0004 -0.4493 -1.6262
  339MOL0     H45706   9.272  10.397   9.290 -0.6808 -1.6721  2.5070
  339MOL0     H45707   9.374  10.312   9.397 -0.8876  0.0772 -0.1832
  339MOL0     H45708   9.415  10.512   9.544 -0.9556  3.0289  1.6986
  339MOL0     H45709   9.301  10.606   9.450 -3.0426 -0.8076  2.2642
  339MOL0     H45710   9.241  10.333   9.584  0.5528 -0.6415  0.9452
  339MOL0     H45711   9.202  10.492   9.666 -1.3860 -2.5354  0.9920
  339MOL0     H45712   9.027  10.531   9.486  3.1466  0.7316  1.3834
  339MOL0     H45713   9.047  10.359   9.433 -1.6567  1.2781 -0.8454
  339MOL0     H45714   8.990  10.447   9.720 -0.6434 -2.8653  1.7484
  339MOL0     H45715   8.996  10.284   9.662 -0.0633 -0.7590  0.1736
  339MOL0     H45716   8.811  10.288   9.420 -1.1055 -2.5915  1.0818
  339MOL0     H45717   8.572  10.496   9.309 -1.0702 -0.9706 -2.7922
  339MOL0     H45718   8.615  10.331   9.284 -0.7316 -1.1909  0.0384
  339MOL0     H45719   8.409  10.285   9.466  1.9565  1.8287  1.1264
  339MOL0     H45720   8.371  10.317   9.289  0.3885 -2.0841  0.5382
  339MOL0     H45721   8.306  10.527   9.332  0.1747 -0.7507 -0.5329
  339MOL0     H45722   8.388  10.548   9.481  1.0090 -0.3028  0.2857
  339MOL0     H45723   8.132  10.512   9.491  0.4462  1.0109 -0.3205
  339MOL0     H45724   8.240  10.412   9.607  2.0142  2.2714 -0.7116
  339MOL0     H45725   7.969  10.439   9.635  0.2402 -0.1967 -0.0245
  339MOL0     H45726   7.728  10.483   9.698 -0.7345 -0.5324 -3.3902
  339MOL0     H45727   7.632  10.341   9.729 -1.2971  1.3301 -3.3445
  339MOL0     H45728   7.790  10.367   9.815  0.9378 -0.7840 -0.4549
  339MOL0     H45729   7.373   9.974   9.629  1.2367 -1.2840 -0.6314
  339MOL0     H45730   7.181   9.898   9.507 -2.1568  1.2913  1.8511
  339MOL0     H45731   6.975  10.226   9.291 -0.3316  0.0411 -0.0783
  339MOL0     H45732   7.010  10.147   9.136  0.4235  2.3034 -0.5022
  339MOL0     H45733   6.805  10.050   9.338 -1.6100 -1.8039 -1.4057
  339MOL0     H45734   6.750  10.159   9.221  0.5241  0.6425  0.2089
  339MOL0     H45735   6.847   9.880   9.163 -1.0647 -1.2029  1.1155
  339MOL0     H45736   6.828  10.003   9.032 -3.2536 -3.4625 -2.0084
  339MOL0     H45737   6.613   9.909   9.217  0.2860 -0.6169  0.2056
  339MOL0     H45738   6.598  10.029   9.088 -3.1603 -1.2040  2.3410
  339MOL0     H45739   6.666   9.726   9.069  0.0825 -0.7468 -1.1734
  339MOL0     H45740   6.721   9.843   8.947  0.6684  6.0251  1.7879
  339MOL0     H45741   6.424   9.802   9.042  0.3490  2.4300  0.2950
  339MOL0     H45742   6.479   9.909   8.915  0.1056  0.3546  0.3530
  339MOL0     H45743   6.471   9.615   8.902 -1.9011  0.0061 -2.9265
  339MOL0     H45744   6.587   9.691   8.810  0.1332  0.7038  1.0411
  339MOL0     H45745   6.383   9.652   8.689  1.2536  3.3561 -4.8005
  339MOL0     H45746   6.380   9.830   8.709 -1.3967 -0.1195  0.7048
  339MOL0     H45747   7.185  10.282   9.292 -0.7727 -2.6579 -2.7106
  339MOL0     H45748   7.388  10.338   9.388 -1.4200  0.9031 -0.5016
  339MOL0     H45749   7.830   9.999   9.458 -3.5623 -0.4711  3.1516
  339MOL0     H45750   8.070  10.093   9.426  0.2444  0.5257 -0.4320
  339MOL0     H45751   9.871  10.452   8.935  1.0852 -0.1057 -0.0690
  339MOL0     H45752  10.090  10.435   8.860 -2.7586 -0.9690 -1.0960
  339MOL0     H45753  10.448  10.433   8.823  1.4737  1.2290 -1.3742
  339MOL0     H45754  10.673  10.413   8.687  1.5339 -0.4680  0.7852
  339MOL0     H45755  11.041  10.186   8.748 -0.1373 -0.5117 -1.9564
  339MOL0     H45756  10.931  10.080   8.827  4.0940  4.8344  4.9734
  339MOL0     H45757  11.041   9.984   8.635 -2.1176 -1.9688  1.4705
  339MOL0     H45758  10.985  10.116   8.536  2.9351 -1.7765 -0.8993
  339MOL0     H45759  10.760  10.044   8.568  1.0005  1.1910 -0.6970
  339MOL0     H45760  10.822   9.895   8.673  2.0523 -1.5155  0.0417
  339MOL0     H45761  10.952   9.802   8.499  0.4820  0.0719 -1.5683
  339MOL0     H45762  10.930   9.931   8.390 -1.1136  1.3451  0.3913
  339MOL0     H45763  10.557   9.718   8.376  1.5223 -0.0703 -0.5941
  339MOL0     H45764  10.772  10.087   8.955 -1.5768 -1.9756 -1.1439
  339MOL0     H45765  10.580  10.105   9.061 -2.5899  0.7392 -0.2625
  340MOL0     O45766   3.840  11.284   3.300  0.0400  0.1666 -0.7341
  340MOL0     C45767   3.855  11.172   3.341  0.1773 -0.1054 -0.0740
  340MOL0     O45768   3.751  11.087   3.383 -0.4517  0.0777 -0.0497
  340MOL0     C45769   3.619  11.129   3.361 -0.3108 -0.2738 -0.1738
  340MOL0     C45770   3.539  11.114   3.473  0.1254 -0.1030 -0.3274
  340MOL0     C45771   3.410  11.168   3.472 -0.1212  1.0058 -0.5491
  340MOL0     C45772   3.349  11.218   3.361 -0.9069 -1.2921  0.6574
  340MOL0     O45773   3.221  11.248   3.342  0.4092  0.8075 -0.2971
  340MOL0     C45774   3.166  11.324   3.449 -0.3674  0.2796  1.1936
  340MOL0     C45775   3.043  11.418   3.422 -0.6971  0.4321  0.3539
  340MOL0     C45776   2.918  11.346   3.387  0.5140  0.6157  0.9369
  340MOL0     C45777   2.823  11.452   3.341 -0.3283  0.1134  0.5789
  340MOL0     C45778   2.671  11.410   3.318  0.1546 -0.7087  0.4080
  340MOL0     C45779   2.562  11.515   3.340 -1.4834  0.4174  0.3389
  340MOL0     C45780   2.548  11.613   3.221 -0.2029 -0.6528  0.5015
  340MOL0     C45781   2.446  11.724   3.268 -0.0223  0.5350  0.0310
  340MOL0     N45782   2.305  11.675   3.259 -0.1712 -0.9494  0.0494
  340MOL0     C45783   2.236  11.655   3.137  0.6938  0.3985  0.6389
  340MOL0     C45784   2.113  11.640   3.178  0.0118  0.1333 -0.2276
  340MOL0     C45785   1.991  11.624   3.085  0.1888  0.2009 -0.0648
  340MOL0     C45786   1.908  11.761   3.088 -0.3119 -0.6294  0.1010
  340MOL0     C45787   1.773  11.766   2.994 -0.5066 -0.0563  0.5562
  340MOL0     C45788   1.701  11.635   2.989 -0.3908  0.6870  0.7721
  340MOL0     O45789   1.563  11.650   2.967  1.1991 -0.2055  0.7081
  340MOL0     C45790   1.518  11.663   2.839  2.0087  0.2594  0.0622
  340MOL0     C45791   1.588  11.674   2.719 -0.0762  0.0595  0.5128
  340MOL0     C45792   1.524  11.692   2.594 -0.1716  0.9144 -0.2292
  340MOL0     C45793   1.623  11.716   2.481 -0.0029  0.1355  0.2246
  340MOL0     C45794   1.382  11.690   2.598 -0.2366 -0.0143 -0.1567
  340MOL0     C45795   1.299  11.710   2.484  0.1908  0.7298 -0.9046
  340MOL0     O45796   1.182  11.795   2.487  0.6214  0.3223 -0.5085
  340MOL0     C45797   1.086  11.787   2.392  0.1406 -0.5204  0.5014
  340MOL0     C45798   1.027  11.908   2.359 -0.6152 -0.3646 -0.1910
  340MOL0     C45799   0.914  11.905   2.281  0.1406  0.1635  1.2052
  340MOL0     C45800   0.860  11.779   2.226 -0.2377  0.1052 -0.5269
  340MOL0     O45801   0.741  11.764   2.160  0.5647 -0.3201 -0.2616
  340MOL0     C45802   0.676  11.888   2.119 -0.3532  0.3718  0.4395
  340MOL0     C45803   0.549  11.843   2.045  0.4164 -0.6304 -0.0500
  340MOL0     C45804   0.449  11.779   2.136 -0.1935 -0.2959 -0.6641
  340MOL0     C45805   0.327  11.765   2.044  0.1463  0.7580  0.7398
  340MOL0     C45806   0.225  11.672   2.116  0.2144  0.6016 -0.5955
  340MOL0     C45807   0.172  11.724   2.249  0.0789  0.3485 -0.4709
  340MOL0     C45808   0.165  11.604   2.352  0.3827 -0.3441  0.2377
  340MOL0     C45809   0.108  11.642   2.488 -0.6513 -0.2741  0.5192
  340MOL0    Cl45810   0.176  11.514   2.608  0.2850 -0.0864 -0.6760
  340MOL0     C45811   0.935  11.663   2.257  0.1347  0.4655  0.2012
  340MOL0     C45812   1.038  11.666   2.345  0.4467  1.1218  0.0631
  340MOL0     O45813   1.337  11.649   2.384 -0.3722 -0.1193 -0.0752
  340MOL0     C45814   1.307  11.683   2.714 -0.9126  0.4202 -1.0616
  340MOL0     C45815   1.376  11.671   2.831 -0.2702  0.8301  0.3275
  340MOL0     N45816   2.099  11.636   3.312  0.3282 -0.3094 -1.6833
  340MOL0     N45817   2.212  11.657   3.362  0.3535  0.7885 -0.2246
  340MOL0     C45818   3.432  11.230   3.252  0.6539  0.3626  0.1114
  340MOL0     C45819   3.563  11.188   3.248 -0.0459  0.7022  0.4294
  340MOL0     C45820   3.995  11.125   3.351 -0.1397 -0.1818 -0.0022
  340MOL0     C45821   4.099  11.218   3.374  0.4052  0.8718  0.3851
  340MOL0     C45822   4.231  11.169   3.366  0.4921 -0.0053 -0.0678
  340MOL0     C45823   4.259  11.029   3.353  0.3502  0.4548  0.1260
  340MOL0     O45824   4.379  10.967   3.341 -0.1470  0.0006 -0.3998
  340MOL0     C45825   4.499  11.037   3.318  1.6494  0.0260  0.8018
  340MOL0     C45826   4.559  11.092   3.442 -0.4953  0.2921 -0.7614
  340MOL0     C45827   4.615  10.986   3.530  0.1113 -0.3436 -0.6112
  340MOL0     C45828   4.704  11.055   3.638 -0.6766  0.5639  0.2937
  340MOL0     C45829   4.835  11.098   3.587  0.1913  0.3924 -0.1258
  340MOL0     C45830   4.946  11.126   3.557 -0.5503  0.0534  0.0407
  340MOL0     C45831   4.149  10.942   3.342 -0.5019  0.7070 -0.0286
  340MOL0     C45832   4.017  10.986   3.350 -0.7230  0.2001  0.4962
  340MOL0     H45833   3.575  11.079   3.569 -0.7313  1.5819  0.6568
  340MOL0     H45834   3.349  11.144   3.559  0.0843 -0.2786 -0.7439
  340MOL0     H45835   3.140  11.256   3.530 -1.8847 -0.8455 -0.1510
  340MOL0     H45836   3.243  11.390   3.490 -0.8541  1.0101  0.9662
  340MOL0     H45837   3.024  11.481   3.510 -0.2264  1.2185 -0.0942
  340MOL0     H45838   3.082  11.480   3.340  0.3728 -3.3454 -2.2657
  340MOL0     H45839   2.941  11.277   3.305  2.5682  2.4316 -0.1227
  340MOL0     H45840   2.883  11.301   3.480 -0.8999 -2.0937 -0.7588
  340MOL0     H45841   2.819  11.529   3.418 -2.8570  1.0719 -0.4011
  340MOL0     H45842   2.852  11.500   3.247  3.1503 -1.6439  0.6049
  340MOL0     H45843   2.653  11.350   3.228  0.6688 -1.2477  0.6534
  340MOL0     H45844   2.646  11.340   3.398  1.2458  2.0076  3.3491
  340MOL0     H45845   2.471  11.455   3.353 -0.0625 -1.7640  0.8072
  340MOL0     H45846   2.597  11.575   3.424  1.5945  1.1826 -1.3258
  340MOL0     H45847   2.646  11.655   3.200  0.0537 -1.3502  0.2591
  340MOL0     H45848   2.505  11.565   3.131  1.5170  0.8080 -1.1701
  340MOL0     H45849   2.456  11.801   3.191  2.3523 -2.1169 -2.5090
  340MOL0     H45850   2.477  11.763   3.366 -1.5281  1.5030  0.1620
  340MOL0     H45851   2.263  11.667   3.033 -1.8155  0.4648 -0.0819
  340MOL0     H45852   2.034  11.611   2.986  3.0150 -0.6831  1.1576
  340MOL0     H45853   1.927  11.541   3.115  0.5299 -0.0993 -0.1641
  340MOL0     H45854   1.968  11.847   3.058  1.4203 -2.4855 -2.1613
  340MOL0     H45855   1.889  11.779   3.195  3.0810  2.8791  0.3163
  340MOL0     H45856   1.799  11.787   2.890 -1.3632 -0.7057  0.1986
  340MOL0     H45857   1.712  11.847   3.035 -2.5149 -1.1134 -0.2189
  340MOL0     H45858   1.705  11.597   3.092  1.9276  0.7343  0.7496
  340MOL0     H45859   1.745  11.559   2.925 -2.3108 -1.2028  1.5558
  340MOL0     H45860   1.694  11.651   2.726 -0.4255 -1.6247  0.6751
  340MOL0     H45861   1.723  11.740   2.519  0.6658 -0.7866 -0.8667
  340MOL0     H45862   1.652  11.627   2.424  1.9368  0.7758  0.1598
  340MOL0     H45863   1.587  11.803   2.425 -0.8907  1.8935  3.3200
  340MOL0     H45864   1.068  12.002   2.393  2.6617 -0.1777 -3.9759
  340MOL0     H45865   0.856  11.993   2.260 -0.0000  0.5603  3.1067
  340MOL0     H45866   0.655  11.957   2.202  1.9391  1.7175 -0.0294
  340MOL0     H45867   0.737  11.938   2.043  1.4563  1.1596  2.3030
  340MOL0     H45868   0.510  11.939   2.011 -0.0238  0.7226  3.7454
  340MOL0     H45869   0.579  11.776   1.963  4.1571 -1.7332  1.9492
  340MOL0     H45870   0.425  11.837   2.226  1.4826  1.6502 -1.3819
  340MOL0     H45871   0.472  11.677   2.168 -1.0046 -0.2797  0.0001
  340MOL0     H45872   0.269  11.855   2.024 -2.2812 -1.1546 -1.6913
  340MOL0     H45873   0.358  11.713   1.952 -0.7175 -1.4617  1.6317
  340MOL0     H45874   0.260  11.569   2.127 -3.6570 -0.6896  1.4339
  340MOL0     H45875   0.145  11.664   2.041  3.6453 -1.6789 -4.4908
  340MOL0     H45876   0.233  11.804   2.292  0.7860 -0.6793  0.4597
  340MOL0     H45877   0.078  11.776   2.227  1.1292  2.2771 -0.6837
  340MOL0     H45878   0.263  11.555   2.362 -0.3735 -1.6102  2.0335
  340MOL0     H45879   0.095  11.530   2.314 -0.5296  0.4921  0.2429
  340MOL0     H45880  -0.000  11.644   2.504 -0.3059  1.6261  3.3554
  340MOL0     H45881   0.163  11.735   2.507  0.6196 -0.9146  0.0887
  340MOL0     H45882   0.915  11.563   2.221 -3.3827  0.3406  2.1104
  340MOL0     H45883   1.088  11.577   2.382 -0.6208  0.9930  1.2545
  340MOL0     H45884   1.200  11.693   2.705 -1.6941 -2.6951  2.6358
  340MOL0     H45885   1.312  11.677   2.918 -1.4138  2.6423 -0.5768
  340MOL0     H45886   3.386  11.272   3.163 -0.0750  0.2411  0.4296
  340MOL0     H45887   3.621  11.214   3.160  0.1397 -0.0618  0.3216
  340MOL0     H45888   4.084  11.325   3.382  0.0309  1.0597 -1.9966
  340MOL0     H45889   4.321  11.228   3.378  0.7656 -0.8797  2.9045
  340MOL0     H45890   4.575  10.981   3.263 -0.4073 -1.6959 -0.3945
  340MOL0     H45891   4.490  11.121   3.248  1.4703 -1.0465 -0.4846
  340MOL0     H45892   4.483  11.139   3.505  0.6316  1.0042  0.0844
  340MOL0     H45893   4.635  11.166   3.417  2.6671 -2.6320 -0.6755
  340MOL0     H45894   4.681  10.915   3.478  0.3033  0.2294 -1.1713
  340MOL0     H45895   4.535  10.935   3.583  1.5048 -0.0059  1.9468
  340MOL0     H45896   4.728  10.982   3.716  0.2951  0.8791  0.2968
  340MOL0     H45897   4.646  11.136   3.683 -4.9444 -2.9393  1.8706
  340MOL0     H45898   5.049  11.153   3.543 -0.2581 -0.0058  1.8641
  340MOL0     H45899   4.162  10.837   3.320  0.7809  1.2203 -2.0632
  340MOL0     H45900   3.934  10.916   3.349 -0.4216 -0.1596  0.4641
  341MOL0     O45901   2.726   5.868   1.919 -0.5353  0.4018  0.5117
  341MOL0     C45902   2.782   5.975   1.908  0.4609 -0.1545  0.0547
  341MOL0     O45903   2.722   6.098   1.938 -0.0516  0.8757 -0.6017
  341MOL0     C45904   2.587   6.093   1.957 -0.2471  0.4453 -0.0531
  341MOL0     C45905   2.512   6.110   1.841  1.1795  0.0939 -0.1757
  341MOL0     C45906   2.374   6.125   1.852  0.4893  0.2411  0.0822
  341MOL0     C45907   2.308   6.094   1.977 -0.0802 -0.0135 -0.6599
  341MOL0     O45908   2.167   6.083   1.979  0.1106 -0.0571  0.6694
  341MOL0     C45909   2.108   6.213   1.944  0.6556 -0.5809  0.0155
  341MOL0     C45910   1.950   6.197   1.941 -0.4875 -0.4030 -0.5227
  341MOL0     C45911   1.915   6.182   2.085 -0.7236 -0.2386 -0.2406
  341MOL0     C45912   1.773   6.128   2.117 -0.1317 -0.3319 -0.9052
  341MOL0     C45913   1.766   6.120   2.270  0.7153 -0.1503  0.2594
  341MOL0     C45914   1.621   6.094   2.308  0.0644 -1.5717 -0.5243
  341MOL0     C45915   1.597   6.036   2.440 -0.1968 -0.1577 -1.2686
  341MOL0     C45916   1.451   5.997   2.469  1.0698 -0.1373 -0.5531
  341MOL0     N45917   1.415   5.954   2.607  0.1599  0.5504 -0.1630
  341MOL0     C45918   1.481   5.984   2.725  0.6518  0.7853 -0.3515
  341MOL0     C45919   1.410   5.932   2.831 -0.0278  0.0981 -0.3036
  341MOL0     C45920   1.426   5.942   2.977  0.4283  0.9175  0.0811
  341MOL0     C45921   1.359   6.073   3.025 -0.0107 -0.4639 -0.4941
  341MOL0     C45922   1.377   6.089   3.174 -0.6173 -0.3173  0.0752
  341MOL0     C45923   1.367   6.233   3.222 -0.8689  0.2117 -0.3630
  341MOL0     O45924   1.248   6.293   3.170 -0.2578  0.4543 -0.3197
  341MOL0     C45925   1.131   6.282   3.248 -0.1072  0.7036 -0.0126
  341MOL0     C45926   1.121   6.218   3.383  0.5770  0.4110  0.0812
  341MOL0     C45927   1.007   6.246   3.465 -0.3436 -0.8933  0.2860
  341MOL0     C45928   0.995   6.183   3.601  0.4585  0.0770  0.6266
  341MOL0     C45929   0.910   6.340   3.415  0.1191 -0.4174 -0.0546
  341MOL0     C45930   0.788   6.382   3.497 -0.5847 -0.0492  1.0517
  341MOL0     O45931   0.787   6.385   3.629 -0.3406  0.3749 -0.1197
  341MOL0     C45932   0.678   6.408   3.706 -0.2073 -0.5970 -0.2963
  341MOL0     C45933   0.548   6.413   3.656  0.0543 -0.3034 -0.2580
  341MOL0     C45934   0.437   6.429   3.743  0.1472 -0.4272 -1.2766
  341MOL0     C45935   0.472   6.445   3.887  1.0092 -0.2812  0.1206
  341MOL0     O45936   0.378   6.469   3.986  0.6426 -0.2364 -0.2772
  341MOL0     C45937   0.307   6.354   4.029  0.1701  0.3529 -0.3084
  341MOL0     C45938   0.228   6.375   4.152 -0.7155  0.0040  0.3240
  341MOL0     C45939   0.097   6.305   4.126  0.6897  0.6682 -0.1081
  341MOL0     C45940   0.001   6.309   4.245  0.4955  0.4667  0.2500
  341MOL0     C45941  -0.141   6.265   4.193  0.3191  1.1023  0.8905
  341MOL0     C45942  -0.242   6.271   4.307  0.4832 -0.2224  0.2481
  341MOL0     C45943  -0.386   6.230   4.276 -0.5646  0.4965 -0.0967
  341MOL0     C45944  -0.489   6.247   4.397 -0.5490 -0.2771 -0.5553
  341MOL0    Cl45945  -0.436   6.123   4.530  0.2062  0.0092  0.7014
  341MOL0     C45946   0.604   6.446   3.928  0.7817 -0.5992  0.0711
  341MOL0     C45947   0.708   6.436   3.841  0.5864  0.3517  0.6009
  341MOL0     O45948   0.705   6.426   3.425  0.2026  0.2106  0.4138
  341MOL0     C45949   0.920   6.390   3.281  0.3745  0.0607 -1.0097
  341MOL0     C45950   1.027   6.364   3.205 -0.2399  1.2397  0.5885
  341MOL0     N45951   1.307   5.856   2.780  0.4814  0.0067 -0.0846
  341MOL0     N45952   1.308   5.871   2.650  0.4920 -0.3697  0.3281
  341MOL0     C45953   2.384   6.066   2.092  0.1171  0.0272  0.7753
  341MOL0     C45954   2.527   6.066   2.078  0.2117  0.2556 -0.1206
  341MOL0     C45955   2.914   5.989   1.854  0.0122 -0.1404  1.3585
  341MOL0     C45956   3.005   6.098   1.882  0.6572 -0.4574 -0.2034
  341MOL0     C45957   3.124   6.113   1.826  0.0067  0.4001  0.0598
  341MOL0     C45958   3.160   6.023   1.723 -0.3170  0.0553 -0.9034
  341MOL0     O45959   3.287   6.035   1.682  0.0732  0.5069  0.8781
  341MOL0     C45960   3.364   5.915   1.651  0.3832  0.2788  0.4939
  341MOL0     C45961   3.374   5.822   1.776  0.1169 -0.2437 -0.2154
  341MOL0     C45962   3.488   5.727   1.784  0.8216 -0.5644  0.7534
  341MOL0     C45963   3.527   5.693   1.934 -0.5182 -0.4123  0.2755
  341MOL0     C45964   3.620   5.578   1.951  0.6504 -0.1545  0.1625
  341MOL0     C45965   3.695   5.486   1.949 -0.0855  0.3094 -0.1859
  341MOL0     C45966   3.080   5.917   1.687 -0.4955  0.8324 -0.2231
  341MOL0     C45967   2.958   5.907   1.747  0.9435  0.0551 -0.5276
  341MOL0     H45968   2.556   6.133   1.744 -0.3049 -0.5005 -1.0154
  341MOL0     H45969   2.308   6.122   1.766 -3.1149 -2.1491  2.6351
  341MOL0     H45970   2.145   6.277   2.024  0.5481 -0.6984  0.1614
  341MOL0     H45971   2.134   6.254   1.846  0.1705 -0.0834  0.0895
  341MOL0     H45972   1.911   6.291   1.901 -1.0190  0.4288  1.7755
  341MOL0     H45973   1.909   6.116   1.881  0.6577 -0.8559 -0.7219
  341MOL0     H45974   1.984   6.113   2.135  2.2133  1.9557 -0.9983
  341MOL0     H45975   1.941   6.279   2.128 -3.0246  1.6617 -2.8350
  341MOL0     H45976   1.694   6.185   2.067  0.1425  0.0197 -0.9417
  341MOL0     H45977   1.754   6.027   2.081 -4.1972 -0.2613  0.5753
  341MOL0     H45978   1.818   6.026   2.291 -2.5267 -2.5890 -1.6712
  341MOL0     H45979   1.803   6.212   2.317  0.3864 -0.1497  0.5133
  341MOL0     H45980   1.567   6.188   2.293 -3.4022 -3.3772 -0.4776
  341MOL0     H45981   1.576   6.040   2.225 -2.3088  3.0753 -2.6206
  341MOL0     H45982   1.656   5.945   2.454  1.5829  0.9920 -0.9367
  341MOL0     H45983   1.630   6.105   2.518  0.3262 -0.2535 -1.4007
  341MOL0     H45984   1.423   5.915   2.402 -1.2786 -0.1300  0.3260
  341MOL0     H45985   1.396   6.089   2.447  1.8117  0.1577 -1.2149
  341MOL0     H45986   1.576   6.036   2.726  0.2204  1.7098 -2.3592
  341MOL0     H45987   1.383   5.860   3.035 -1.6274 -0.1690 -2.7417
  341MOL0     H45988   1.532   5.938   3.001  0.1886 -0.2349  1.0314
  341MOL0     H45989   1.253   6.057   3.007  0.7158 -4.2819 -2.5562
  341MOL0     H45990   1.393   6.156   2.962 -3.2134 -0.3748 -2.2867
  341MOL0     H45991   1.475   6.047   3.195 -0.3888  0.8357  1.4141
  341MOL0     H45992   1.306   6.025   3.228  1.5920 -0.9599  2.3924
  341MOL0     H45993   1.449   6.298   3.188 -0.8614  2.1082  2.9116
  341MOL0     H45994   1.385   6.229   3.329 -0.7117 -1.4106 -0.4305
  341MOL0     H45995   1.207   6.162   3.417 -0.1619  0.8946  3.0251
  341MOL0     H45996   0.903   6.126   3.612 -0.8040  1.8914  0.0253
  341MOL0     H45997   1.082   6.122   3.627 -0.3328 -1.3825 -0.0552
  341MOL0     H45998   0.992   6.263   3.675 -0.5404 -2.1945  3.2036
  341MOL0     H45999   0.524   6.392   3.552  1.4074  0.4664 -0.7421
  341MOL0     H46000   0.333   6.442   3.715  0.0714  0.5116 -0.6031
  341MOL0     H46001   0.239   6.332   3.945 -1.1201 -0.8226  0.9852
  341MOL0     H46002   0.369   6.267   4.054  2.0649  1.9555  0.7467
  341MOL0     H46003   0.277   6.343   4.245 -1.8845 -0.1793  0.8928
  341MOL0     H46004   0.208   6.479   4.178 -1.8929 -0.0453 -0.3243
  341MOL0     H46005   0.113   6.208   4.079  1.3680 -0.3529  2.0913
  341MOL0     H46006   0.049   6.347   4.037  2.4934 -1.0232 -1.9648
  341MOL0     H46007   0.029   6.243   4.328  0.0064  1.0589  0.8922
  341MOL0     H46008  -0.002   6.412   4.280  0.7457  1.4389 -2.3440
  341MOL0     H46009  -0.141   6.170   4.139 -0.4360  0.0510  2.6734
  341MOL0     H46010  -0.163   6.339   4.116 -1.3527 -1.7290 -1.5960
  341MOL0     H46011  -0.206   6.194   4.376  2.0261 -0.7299 -1.0413
  341MOL0     H46012  -0.238   6.372   4.349  0.6866 -1.3364  3.1019
  341MOL0     H46013  -0.382   6.124   4.251 -1.5298  0.9861 -2.7446
  341MOL0     H46014  -0.417   6.294   4.193 -3.5811  1.1178  1.3855
  341MOL0     H46015  -0.593   6.235   4.365 -0.7743 -0.0070  0.0648
  341MOL0     H46016  -0.484   6.351   4.430 -3.7407 -0.6614  1.6037
  341MOL0     H46017   0.621   6.464   4.034 -1.6010  0.6312  0.3118
  341MOL0     H46018   0.810   6.448   3.875  1.2976 -1.4603 -0.7406
  341MOL0     H46019   0.844   6.457   3.240 -0.5325 -1.4540 -1.8915
  341MOL0     H46020   1.019   6.409   3.106 -1.0127  1.9961  0.9898
  341MOL0     H46021   2.329   6.048   2.184 -2.6511 -2.3503 -1.1620
  341MOL0     H46022   2.578   6.048   2.172  2.3736 -0.4292 -1.3557
  341MOL0     H46023   2.986   6.168   1.963  0.6705  0.2813 -0.8302
  341MOL0     H46024   3.188   6.186   1.873  2.3204 -0.9484 -0.8635
  341MOL0     H46025   3.336   5.847   1.571  0.6446 -0.7369  1.2398
  341MOL0     H46026   3.465   5.949   1.626 -0.4094  1.9486 -0.6355
  341MOL0     H46027   3.284   5.760   1.787 -0.1219  0.3012  1.0895
  341MOL0     H46028   3.386   5.888   1.863  1.9279 -1.2200  0.3286
  341MOL0     H46029   3.576   5.761   1.730 -0.9352 -1.1016 -2.7391
  341MOL0     H46030   3.460   5.630   1.740  0.1514 -2.0127  4.0161
  341MOL0     H46031   3.433   5.685   1.989 -0.3714  1.0271  0.7899
  341MOL0     H46032   3.579   5.774   1.986 -3.8733  0.6151  2.3367
  341MOL0     H46033   3.761   5.404   1.965 -1.2729 -1.2193 -2.5271
  341MOL0     H46034   3.111   5.846   1.611 -1.1300  0.7221 -0.3838
  341MOL0     H46035   2.922   5.808   1.722  0.6805  0.0557 -0.1701
  342MOL0     O46036   4.762   7.642  11.259 -0.9766 -0.0849  0.1159
  342MOL0     C46037   4.715   7.577  11.352  0.0337 -0.0962  0.1123
  342MOL0     O46038   4.784   7.479  11.418 -0.0219  0.1537 -0.6274
  342MOL0     C46039   4.918   7.463  11.411  0.4384  0.0410  0.3100
  342MOL0     C46040   4.972   7.384  11.522  0.0258 -0.0173 -0.0375
  342MOL0     C46041   5.114   7.358  11.535  1.3312  0.7116  0.4958
  342MOL0     C46042   5.191   7.417  11.441  1.3635 -0.2983 -0.7202
  342MOL0     O46043   5.325   7.394  11.465  0.1752  0.6647 -0.8797
  342MOL0     C46044   5.431   7.472  11.413  0.0113 -0.3616 -0.5306
  342MOL0     C46045   5.560   7.395  11.452 -0.2646  0.6787 -0.8454
  342MOL0     C46046   5.670   7.492  11.428  0.1853 -0.1946  0.1140
  342MOL0     C46047   5.803   7.411  11.449  0.0735  0.6031  0.2546
  342MOL0     C46048   5.930   7.498  11.437  0.9197  0.4730 -1.4926
  342MOL0     C46049   5.934   7.599  11.543  1.0010 -0.3078 -0.3858
  342MOL0     C46050   6.076   7.644  11.562 -0.2986  0.0000  0.1380
  342MOL0     C46051   6.133   7.750  11.448  0.1863 -0.6807 -0.8179
  342MOL0     N46052   6.277   7.777  11.469 -0.3059 -0.6528 -0.1039
  342MOL0     C46053   6.339   7.860  11.565 -0.5482  0.4039  0.0505
  342MOL0     C46054   6.472   7.810  11.565 -0.4721 -0.9675  0.6682
  342MOL0     C46055   6.600   7.854  11.650  0.4838  0.6842  0.5433
  342MOL0     C46056   6.581   7.809  11.796 -0.3338 -0.2767 -0.4061
  342MOL0     C46057   6.581   7.660  11.818  0.1964  0.2337 -0.4331
  342MOL0     C46058   6.509   7.625  11.944  0.0912 -0.0113  0.2404
  342MOL0     O46059   6.373   7.673  11.949 -0.2333 -1.0672 -0.0926
  342MOL0     C46060   6.263   7.605  11.914 -0.8411 -0.2995  0.7706
  342MOL0     C46061   6.268   7.476  11.870  0.3612 -0.2817  0.5451
  342MOL0     C46062   6.149   7.410  11.855 -0.2091  0.2267  0.6909
  342MOL0     C46063   6.169   7.265  11.802 -0.1072  0.6262 -0.2081
  342MOL0     C46064   6.021   7.471  11.886 -0.3170  0.0311 -0.3417
  342MOL0     C46065   5.888   7.396  11.889  0.4118  0.2425 -0.1497
  342MOL0     O46066   5.788   7.444  11.967  0.2396 -0.1024 -0.4173
  342MOL0     C46067   5.661   7.399  11.938  0.2249 -1.8333  0.4254
  342MOL0     C46068   5.598   7.443  11.822  0.5820  1.0865 -0.2175
  342MOL0     C46069   5.464   7.414  11.802 -0.0237  0.2572  0.5644
  342MOL0     C46070   5.387   7.344  11.900  0.6063  1.0233  0.2757
  342MOL0     O46071   5.255   7.329  11.866 -0.2497 -0.1041 -0.4189
  342MOL0     C46072   5.146   7.320  11.962  0.0449  0.3860 -0.6798
  342MOL0     C46073   5.022   7.369  11.897  1.2795  0.2569  0.4299
  342MOL0     C46074   5.002   7.525  11.911  0.6220 -0.5181  0.1399
  342MOL0     C46075   4.966   7.563  12.055  0.9536  0.3564 -1.1125
  342MOL0     C46076   4.863   7.686  12.068  0.8903 -0.0925  0.4003
  342MOL0     C46077   4.858   7.727  12.210  0.2197  0.2924  0.4593
  342MOL0     C46078   4.732   7.807  12.248 -0.1176 -0.4921  0.0683
  342MOL0     C46079   4.757   7.895  12.372 -0.1952  0.1123 -0.4931
  342MOL0    Cl46080   4.893   8.019  12.343  0.3996  0.2711 -0.1976
  342MOL0     C46081   5.449   7.321  12.025 -0.8545 -0.1822 -0.2152
  342MOL0     C46082   5.581   7.356  12.041  0.1004  0.5108  0.2423
  342MOL0     O46083   5.885   7.304  11.807  0.5848 -0.0327 -0.0962
  342MOL0     C46084   6.025   7.599  11.933 -0.0746  0.1232  0.3423
  342MOL0     C46085   6.142   7.670  11.942 -0.2817 -0.2106  0.3798
  342MOL0     N46086   6.487   7.704  11.473  0.4209 -0.9253  0.6976
  342MOL0     N46087   6.374   7.696  11.419  0.7539 -0.0760  0.1515
  342MOL0     C46088   5.151   7.497  11.335  0.7264  0.0176  0.3540
  342MOL0     C46089   5.014   7.520  11.315 -0.5768  0.8600 -0.3917
  342MOL0     C46090   4.583   7.615  11.413  0.1398 -0.1902  0.2748
  342MOL0     C46091   4.531   7.549  11.524 -0.4153 -0.3492 -0.1607
  342MOL0     C46092   4.400   7.569  11.571  0.9074  0.5537 -0.3725
  342MOL0     C46093   4.305   7.649  11.499 -0.4221  0.3405 -0.1653
  342MOL0     O46094   4.170   7.665  11.524 -0.3698 -0.5078 -0.0307
  342MOL0     C46095   4.101   7.598  11.631 -0.0014 -0.5676 -0.7346
  342MOL0     C46096   3.956   7.652  11.638 -0.8623  0.2707 -0.3224
  342MOL0     C46097   3.901   7.652  11.499  1.0301 -0.5965  1.5181
  342MOL0     C46098   3.747   7.638  11.493 -0.7895 -0.1031 -0.0485
  342MOL0     C46099   3.666   7.719  11.586 -0.7499  0.0234  0.7739
  342MOL0     C46100   3.602   7.777  11.672  0.3761  0.6031 -0.2212
  342MOL0     C46101   4.360   7.727  11.393 -0.2657  0.6906 -0.2862
  342MOL0     C46102   4.494   7.701  11.347  0.5292 -0.4632 -0.6040
  342MOL0     H46103   4.891   7.351  11.587 -1.9552  2.6530 -0.9629
  342MOL0     H46104   5.153   7.294  11.613  1.2457 -2.7738 -2.1131
  342MOL0     H46105   5.429   7.483  11.305  0.1625 -2.0214 -0.7260
  342MOL0     H46106   5.433   7.567  11.467 -1.6919 -0.4476 -0.2354
  342MOL0     H46107   5.579   7.363  11.554 -0.5559  0.3273 -0.8998
  342MOL0     H46108   5.560   7.308  11.385 -2.1300  1.2097 -1.6174
  342MOL0     H46109   5.661   7.537  11.328 -3.8075 -1.7370 -0.4018
  342MOL0     H46110   5.650   7.575  11.496 -1.1054  0.4798 -1.0281
  342MOL0     H46111   5.809   7.369  11.550 -1.1076  1.1802  0.5874
  342MOL0     H46112   5.815   7.346  11.362  1.7440  1.9609 -0.5899
  342MOL0     H46113   6.009   7.424  11.452 -0.3847 -1.1859 -2.3902
  342MOL0     H46114   5.948   7.539  11.337 -0.3306  1.1367 -1.4635
  342MOL0     H46115   5.857   7.674  11.522  0.8842 -0.2765  0.1400
  342MOL0     H46116   5.905   7.553  11.638 -1.8504 -1.0595 -1.5107
  342MOL0     H46117   6.080   7.705  11.653  1.1135 -0.2002  0.2285
  342MOL0     H46118   6.145   7.560  11.577  0.5265  0.4254 -1.1188
  342MOL0     H46119   6.070   7.840  11.447 -3.0513 -2.7566  0.5644
  342MOL0     H46120   6.116   7.703  11.351  1.9244 -0.6495 -1.1762
  342MOL0     H46121   6.292   7.944  11.614  1.2336  2.5188 -1.6585
  342MOL0     H46122   6.694   7.819  11.606  0.7873  0.4755  1.3368
  342MOL0     H46123   6.602   7.963  11.640  0.7410  0.4688 -2.8404
  342MOL0     H46124   6.492   7.857  11.838 -0.8686 -1.9428  0.4722
  342MOL0     H46125   6.653   7.856  11.864  1.6294 -0.6426 -2.1366
  342MOL0     H46126   6.685   7.625  11.822  0.0728 -0.0443  1.5694
  342MOL0     H46127   6.525   7.627  11.730  0.4529  0.1840 -0.5792
  342MOL0     H46128   6.551   7.651  12.042  0.5314 -1.9161  0.6037
  342MOL0     H46129   6.510   7.516  11.956  2.9342 -0.1159 -0.1516
  342MOL0     H46130   6.354   7.417  11.839  0.7596 -0.8117  2.5216
  342MOL0     H46131   6.159   7.196  11.887  1.2261 -2.3888 -2.3361
  342MOL0     H46132   6.084   7.229  11.743 -0.8383  1.7197  0.1294
  342MOL0     H46133   6.264   7.241  11.754 -2.0156 -1.3687 -3.3136
  342MOL0     H46134   5.646   7.504  11.746 -0.5110  0.8757 -1.1037
  342MOL0     H46135   5.420   7.429  11.705 -2.0831 -4.3909  0.5259
  342MOL0     H46136   5.136   7.216  11.994  0.7551  1.1777  2.5099
  342MOL0     H46137   5.168   7.378  12.052 -0.8182 -1.4084  0.7390
  342MOL0     H46138   4.997   7.341  11.794 -1.1120  0.4538  0.8804
  342MOL0     H46139   4.936   7.334  11.955 -0.8432  0.0090 -2.5977
  342MOL0     H46140   4.909   7.550  11.860 -0.6770 -0.8924  2.1980
  342MOL0     H46141   5.090   7.576  11.871 -0.0772 -0.8268 -1.9065
  342MOL0     H46142   4.925   7.474  12.104  0.5398  0.8323 -0.5795
  342MOL0     H46143   5.060   7.588  12.106  0.4334 -1.0823  0.6859
  342MOL0     H46144   4.759   7.662  12.041  0.9620  2.4409 -2.7286
  342MOL0     H46145   4.885   7.757  11.988 -1.1296 -1.7058 -1.7770
  342MOL0     H46146   4.868   7.635  12.267 -0.1481 -0.0323  0.0051
  342MOL0     H46147   4.948   7.787  12.225 -0.9922  2.1510  0.6739
  342MOL0     H46148   4.654   7.732  12.259  0.2650 -1.4544 -2.8230
  342MOL0     H46149   4.706   7.866  12.160  0.3902  0.8675  0.8041
  342MOL0     H46150   4.799   7.832  12.450 -0.7687  0.4063  0.0604
  342MOL0     H46151   4.665   7.934  12.417 -0.7357 -1.8650  0.2281
  342MOL0     H46152   5.398   7.296  12.117  2.6903 -1.0259  1.6817
  342MOL0     H46153   5.623   7.358  12.142 -0.1866  2.5784  0.3656
  342MOL0     H46154   5.929   7.633  11.970 -0.3965  0.2046 -0.5491
  342MOL0     H46155   6.147   7.769  11.986  3.0479  0.1762 -0.5904
  342MOL0     H46156   5.224   7.537  11.265  0.5837 -0.6647 -0.2004
  342MOL0     H46157   4.989   7.574  11.224 -3.5922 -0.3661 -0.4196
  342MOL0     H46158   4.587   7.470  11.574 -3.5531 -1.8977  1.1314
  342MOL0     H46159   4.377   7.517  11.663 -3.7050  0.1918 -1.5105
  342MOL0     H46160   4.099   7.489  11.621 -3.2470 -0.5037 -2.0048
  342MOL0     H46161   4.151   7.628  11.723  2.3689 -2.8608 -1.1473
  342MOL0     H46162   3.947   7.751  11.682 -0.4498  0.3699 -0.4573
  342MOL0     H46163   3.893   7.591  11.704  0.0360  1.3319  1.5922
  342MOL0     H46164   3.948   7.572  11.442 -2.0175 -2.4621  1.4164
  342MOL0     H46165   3.924   7.746  11.449 -0.3226 -2.0994 -2.2490
  342MOL0     H46166   3.731   7.534  11.524  0.5004 -0.2650  0.1217
  342MOL0     H46167   3.710   7.651  11.390  0.3020 -0.0199 -0.4433
  342MOL0     H46168   3.539   7.828  11.742  0.4910  2.7748 -1.5991
  342MOL0     H46169   4.301   7.803  11.342  0.8860  2.1791  0.4948
  342MOL0     H46170   4.527   7.749  11.255 -0.4402 -0.2246 -0.8323
  343MOL0     O46171   1.950   2.660   0.284 -0.3221 -0.0586 -0.2333
  343MOL0     C46172   1.990   2.617   0.175  0.2686  0.9331  0.5495
  343MOL0     O46173   1.905   2.590   0.075  0.1559  0.6938 -0.1829
  343MOL0     C46174   1.776   2.594   0.104 -0.5424  1.0010  0.5605
  343MOL0     C46175   1.707   2.708   0.065  0.4232 -0.5757 -0.3867
  343MOL0     C46176   1.576   2.734   0.126  0.5559 -0.0889 -0.0805
  343MOL0     C46177   1.510   2.640   0.203 -0.0569  0.0898 -0.5028
  343MOL0     O46178   1.393   2.665   0.274 -0.3463  0.2471 -0.6065
  343MOL0     C46179   1.289   2.699   0.196  0.2367  0.3338  0.1656
  343MOL0     C46180   1.218   2.576   0.133  0.4926  0.1875 -0.2437
  343MOL0     C46181   1.161   2.478   0.237 -0.2117 -0.2940  0.0565
  343MOL0     C46182   1.016   2.524   0.272 -0.1446 -0.2838 -0.0294
  343MOL0     C46183   0.944   2.432   0.374 -0.3700  0.3278  0.1425
  343MOL0     C46184   0.801   2.490   0.409 -0.7952  0.7582  0.3345
  343MOL0     C46185   0.731   2.407   0.516  0.2771  0.0716 -0.2978
  343MOL0     C46186   0.582   2.452   0.523 -0.2964 -0.9486 -0.2096
  343MOL0     N46187   0.544   2.442   0.673  0.0848  0.3377 -0.0322
  343MOL0     C46188   0.494   2.327   0.727  0.4020  0.8394 -0.3783
  343MOL0     C46189   0.480   2.357   0.860 -0.2704 -0.2792 -0.1981
  343MOL0     C46190   0.410   2.276   0.962 -0.2037  0.6903 -0.1616
  343MOL0     C46191   0.498   2.195   1.061  1.1770  0.3132  0.0020
  343MOL0     C46192   0.618   2.265   1.123 -0.5975  0.3751  0.1377
  343MOL0     C46193   0.578   2.370   1.220  0.6693 -0.2539  0.0861
  343MOL0     O46194   0.692   2.417   1.273  0.5921 -0.4155 -0.2748
  343MOL0     C46195   0.748   2.389   1.404  0.6982 -0.5378 -0.0436
  343MOL0     C46196   0.817   2.488   1.473  0.0665 -0.0053  0.3994
  343MOL0     C46197   0.893   2.453   1.586  0.3616 -0.4957 -0.3741
  343MOL0     C46198   0.972   2.567   1.633 -0.4902  0.6775 -0.2439
  343MOL0     C46199   0.877   2.326   1.647  1.1056 -0.7693  0.6410
  343MOL0     C46200   0.948   2.284   1.770  0.7063 -0.6821 -0.7683
  343MOL0     O46201   1.078   2.323   1.775  0.5308  0.2645 -0.6697
  343MOL0     C46202   1.141   2.294   1.889  0.2447 -0.0414  0.0051
  343MOL0     C46203   1.174   2.167   1.924 -0.7343  0.0338  0.1324
  343MOL0     C46204   1.256   2.145   2.042  0.8150 -0.1743  0.2544
  343MOL0     C46205   1.304   2.253   2.108 -0.3662 -0.1444 -0.8045
  343MOL0     O46206   1.395   2.250   2.214  0.3550  0.2601  0.6117
  343MOL0     C46207   1.477   2.137   2.246 -0.3334  0.0631 -0.5299
  343MOL0     C46208   1.430   2.057   2.374  0.4425 -0.4466 -0.4160
  343MOL0     C46209   1.418   2.150   2.495 -0.1262  1.1694  0.8054
  343MOL0     C46210   1.471   2.090   2.625 -0.6995  0.8022  0.3495
  343MOL0     C46211   1.438   2.159   2.748  0.0713  0.0154  0.0040
  343MOL0     C46212   1.513   2.096   2.872  0.6208  0.1477  0.0395
  343MOL0     C46213   1.483   2.184   2.999  0.1927 -0.1449 -0.3725
  343MOL0     C46214   1.573   2.150   3.112  0.2983 -0.0741  0.5200
  343MOL0    Cl46215   1.741   2.178   3.066  0.2393  0.0265  0.1088
  343MOL0     C46216   1.273   2.392   2.068  0.3319 -0.3493  0.2319
  343MOL0     C46217   1.188   2.407   1.956  0.0697 -0.1436  0.0308
  343MOL0     O46218   0.886   2.210   1.847  0.3706  0.1733 -0.2897
  343MOL0     C46219   0.789   2.232   1.588  0.7209 -0.2931 -0.8585
  343MOL0     C46220   0.726   2.260   1.467 -1.0333 -0.1345  0.1228
  343MOL0     N46221   0.527   2.490   0.883 -0.2459 -0.2108  0.7030
  343MOL0     N46222   0.568   2.535   0.771  0.2910  0.3695  0.8581
  343MOL0     C46223   1.580   2.521   0.231 -0.1605  0.5191 -0.1722
  343MOL0     C46224   1.707   2.492   0.178  0.1245  0.6050 -0.4337
  343MOL0     C46225   2.133   2.604   0.142 -0.0101  0.5222 -0.0367
  343MOL0     C46226   2.223   2.693   0.201 -0.0324  0.9523  0.9964
  343MOL0     C46227   2.357   2.671   0.165 -0.0255  0.2405  0.0801
  343MOL0     C46228   2.403   2.565   0.082 -0.7115  0.1187 -0.0534
  343MOL0     O46229   2.542   2.542   0.053  0.1151 -0.5547 -0.3598
  343MOL0     C46230   2.628   2.653   0.075  0.5234  0.4951  0.2633
  343MOL0     C46231   2.772   2.613   0.029 -0.2783  0.2796  0.8554
  343MOL0     C46232   2.861   2.746   0.029 -0.0265 -0.4125  0.5218
  343MOL0     C46233   2.991   2.702  -0.041 -0.1917 -0.2116 -0.4295
  343MOL0     C46234   3.081   2.811  -0.062  0.6260  0.2206  0.4739
  343MOL0     C46235   3.136   2.906  -0.101  1.2366 -0.4232  0.5359
  343MOL0     C46236   2.308   2.483   0.024 -0.9039  0.6321  0.5628
  343MOL0     C46237   2.173   2.497   0.052 -0.0183 -1.5151 -0.5374
  343MOL0     H46238   1.761   2.772  -0.004  1.2353  0.4867  1.1652
  343MOL0     H46239   1.518   2.824   0.109 -1.0091 -0.1280  3.8467
  343MOL0     H46240   1.219   2.752   0.262  3.2965  2.2422  2.2099
  343MOL0     H46241   1.317   2.766   0.114 -1.2955 -1.5708 -2.0267
  343MOL0     H46242   1.137   2.614   0.070 -2.2585 -1.5483  1.9580
  343MOL0     H46243   1.290   2.528   0.067  0.2842 -0.4565 -0.0102
  343MOL0     H46244   1.173   2.382   0.185 -1.7746  0.8586 -2.6560
  343MOL0     H46245   1.228   2.483   0.323  0.8246 -0.5033 -0.7129
  343MOL0     H46246   1.020   2.628   0.305  0.9185 -0.2483 -0.2242
  343MOL0     H46247   0.954   2.518   0.183 -1.2088 -0.8626  0.7262
  343MOL0     H46248   0.943   2.328   0.343  0.4885 -0.3048  2.0890
  343MOL0     H46249   1.003   2.437   0.466 -0.5751 -2.5926  0.5236
  343MOL0     H46250   0.812   2.596   0.433  0.5251  1.3112 -2.3538
  343MOL0     H46251   0.743   2.498   0.317  0.7960  0.4014 -0.7439
  343MOL0     H46252   0.730   2.301   0.488  1.0144  0.3471 -1.4278
  343MOL0     H46253   0.789   2.425   0.608 -1.8270  0.8840  0.9563
  343MOL0     H46254   0.523   2.384   0.462 -3.8892  1.7416 -0.0805
  343MOL0     H46255   0.561   2.554   0.487  1.3857 -1.0031 -1.4745
  343MOL0     H46256   0.474   2.234   0.675  1.3553  0.1492  0.4377
  343MOL0     H46257   0.369   2.345   1.036  0.3338  1.1208 -0.2525
  343MOL0     H46258   0.331   2.216   0.917  1.0485 -0.1093 -1.3850
  343MOL0     H46259   0.529   2.104   1.008  0.2449 -0.1996  0.3181
  343MOL0     H46260   0.423   2.168   1.136 -1.9558  0.2839 -2.9011
  343MOL0     H46261   0.695   2.307   1.057 -0.3962  2.5058  1.6338
  343MOL0     H46262   0.665   2.186   1.182 -0.6406  0.6021  0.4772
  343MOL0     H46263   0.504   2.334   1.293 -0.3974  0.5291 -0.5781
  343MOL0     H46264   0.529   2.455   1.172 -0.7799 -1.0668  0.0563
  343MOL0     H46265   0.838   2.574   1.410 -1.6907  0.1050 -0.1008
  343MOL0     H46266   1.027   2.537   1.723  0.2532 -0.1836 -0.9607
  343MOL0     H46267   1.043   2.602   1.558 -1.4476  1.6521 -0.7203
  343MOL0     H46268   0.908   2.652   1.659 -1.4670  0.4280 -1.7177
  343MOL0     H46269   1.145   2.093   1.850  0.3361 -0.1955 -0.0740
  343MOL0     H46270   1.273   2.040   2.066 -0.6893 -0.6195 -0.5458
  343MOL0     H46271   1.487   2.074   2.157 -1.0153  2.5005 -2.4252
  343MOL0     H46272   1.577   2.171   2.272 -0.1911 -0.8461  0.1676
  343MOL0     H46273   1.327   2.019   2.365 -0.2745  0.4327  2.7920
  343MOL0     H46274   1.501   1.975   2.386 -0.0582 -0.7167  0.8722
  343MOL0     H46275   1.311   2.173   2.498 -0.9680 -1.0678 -3.7775
  343MOL0     H46276   1.480   2.238   2.476 -1.1773  1.6050 -0.8399
  343MOL0     H46277   1.445   1.984   2.630 -1.8950  1.1196  1.2621
  343MOL0     H46278   1.578   2.085   2.604 -0.8845 -1.6434 -0.3742
  343MOL0     H46279   1.331   2.153   2.773 -0.0247 -3.2673 -0.6898
  343MOL0     H46280   1.462   2.264   2.731  1.5364 -0.2869  0.0958
  343MOL0     H46281   1.492   1.990   2.891  1.4147 -0.7909 -3.6067
  343MOL0     H46282   1.618   2.092   2.840 -0.0023  0.6960 -2.2302
  343MOL0     H46283   1.375   2.173   3.014  0.1410  0.5682 -0.2238
  343MOL0     H46284   1.505   2.290   2.987  0.5523  0.2068  2.6661
  343MOL0     H46285   1.546   2.052   3.152  0.6622 -0.1809  0.5122
  343MOL0     H46286   1.552   2.223   3.190  3.4187 -0.6241  2.0466
  343MOL0     H46287   1.311   2.478   2.122 -3.8587  1.9914 -0.1672
  343MOL0     H46288   1.173   2.511   1.928 -1.1538  0.1277  1.5830
  343MOL0     H46289   0.784   2.129   1.621  0.4375  0.4327  1.5484
  343MOL0     H46290   0.664   2.183   1.422 -0.3135  0.2841 -1.6968
  343MOL0     H46291   1.551   2.443   0.301  0.2075  1.9575  1.6788
  343MOL0     H46292   1.741   2.392   0.199  0.8054  0.6016 -1.4820
  343MOL0     H46293   2.181   2.763   0.271 -1.2850 -0.6075  1.8613
  343MOL0     H46294   2.419   2.751   0.204 -1.3209  2.3542 -1.9785
  343MOL0     H46295   2.590   2.724   0.000 -2.1290 -2.3330 -1.2890
  343MOL0     H46296   2.630   2.696   0.176 -0.3412 -0.3589  0.6574
  343MOL0     H46297   2.770   2.567  -0.070 -0.9278  2.5025 -0.2404
  343MOL0     H46298   2.803   2.539   0.103 -2.6985 -0.8053  0.8727
  343MOL0     H46299   2.866   2.766   0.136 -1.7347  1.2507  0.3522
  343MOL0     H46300   2.815   2.826  -0.030  2.2481  0.5864 -0.0286
  343MOL0     H46301   2.963   2.665  -0.140  1.8839 -0.2423 -1.0534
  343MOL0     H46302   3.034   2.620   0.018 -1.3831  0.8575  2.0932
  343MOL0     H46303   3.203   2.984  -0.129  0.1554 -0.1778 -1.5338
  343MOL0     H46304   2.329   2.393  -0.033 -1.7837 -0.6227  2.1389
  343MOL0     H46305   2.112   2.413   0.020  1.9954 -2.9131 -0.8919
  344MOL0     O46306   2.853  10.748   9.162  0.5710  0.4161 -0.0417
  344MOL0     C46307   2.788  10.840   9.111 -0.4175  0.6025 -0.2589
  344MOL0     O46308   2.680  10.894   9.167  0.5153 -0.4140 -0.3549
  344MOL0     C46309   2.671  10.913   9.308 -0.1004  0.9640  0.4358
  344MOL0     C46310   2.551  10.883   9.364  0.0784  0.0973 -0.7150
  344MOL0     C46311   2.532  10.896   9.502  0.9481  0.9420 -0.7445
  344MOL0     C46312   2.647  10.926   9.584 -0.7107 -0.5216  1.0116
  344MOL0     O46313   2.647  10.908   9.714 -0.4743  0.2418 -0.3833
  344MOL0     C46314   2.745  10.984   9.797 -0.3233 -0.1504  0.5552
  344MOL0     C46315   2.687  10.999   9.937 -0.3195  0.3813  0.0817
  344MOL0     C46316   2.764  11.112  10.004 -0.0553 -0.4128  0.3732
  344MOL0     C46317   2.806  11.084  10.150 -0.4690 -0.8837 -1.0485
  344MOL0     C46318   2.919  11.184  10.195 -0.4691 -0.3158  0.6334
  344MOL0     C46319   2.865  11.331  10.201 -0.0918  0.1081 -0.7700
  344MOL0     C46320   2.733  11.345  10.272 -0.1109 -0.8389  0.5649
  344MOL0     C46321   2.696  11.500  10.267  0.3574  0.8159  0.4156
  344MOL0     N46322   2.660  11.544  10.133  0.0060  0.0378 -0.3808
  344MOL0     C46323   2.578  11.491  10.035  0.7102  0.2199 -0.6028
  344MOL0     C46324   2.599  11.560   9.926  1.1678 -0.3137 -0.0189
  344MOL0     C46325   2.531  11.530   9.791 -0.0437  1.0335  0.6903
  344MOL0     C46326   2.607  11.413   9.709 -1.0124 -0.1950 -0.7268
  344MOL0     C46327   2.515  11.339   9.610 -0.4016  0.1782  0.3876
  344MOL0     C46328   2.428  11.427   9.507  0.9703 -0.3268  0.0216
  344MOL0     O46329   2.285  11.412   9.532  0.5211  0.2096 -0.0820
  344MOL0     C46330   2.218  11.307   9.473 -0.0580  0.6455  0.4142
  344MOL0     C46331   2.081  11.316   9.482 -0.0970 -0.1246  0.3293
  344MOL0     C46332   1.997  11.212   9.434 -0.0477  1.1540 -0.4887
  344MOL0     C46333   1.853  11.223   9.460 -0.5626  0.0187  0.6669
  344MOL0     C46334   2.057  11.097   9.370 -0.0253  0.0071 -0.5021
  344MOL0     C46335   1.977  10.989   9.310 -0.8654  0.4793 -0.4762
  344MOL0     O46336   2.059  10.893   9.253  0.7425 -0.1187  0.5345
  344MOL0     C46337   2.017  10.760   9.242  0.1510 -0.6076 -0.2037
  344MOL0     C46338   1.921  10.705   9.335 -0.4290 -0.0934  0.4995
  344MOL0     C46339   1.872  10.572   9.341  0.2415  0.3629  0.8078
  344MOL0     C46340   1.927  10.477   9.250 -0.2765  0.6699 -0.7927
  344MOL0     O46341   1.872  10.349   9.254  0.3750  0.1286 -1.0641
  344MOL0     C46342   1.910  10.254   9.154  0.6341  0.4350  0.2636
  344MOL0     C46343   1.816  10.133   9.139 -0.4307  0.3242 -0.5498
  344MOL0     C46344   1.852  10.025   9.234  0.4578  0.8886  0.1754
  344MOL0     C46345   1.779   9.901   9.181 -0.3426 -0.8158 -0.0649
  344MOL0     C46346   1.792   9.776   9.262  0.1168 -0.3261 -0.9942
  344MOL0     C46347   1.930   9.713   9.298  0.1629  0.9182 -0.6175
  344MOL0     C46348   1.993   9.627   9.188  0.0207 -0.0309  0.1563
  344MOL0     C46349   1.909   9.501   9.140 -0.3782 -0.0069  0.1892
  344MOL0    Cl46350   1.966   9.436   8.977  0.2329 -0.5000  0.0128
  344MOL0     C46351   2.021  10.528   9.154 -0.0677 -0.2016 -0.2602
  344MOL0     C46352   2.067  10.665   9.156 -0.8481  0.5997 -0.7200
  344MOL0     O46353   1.858  10.987   9.301  0.5688  0.0601  0.9260
  344MOL0     C46354   2.199  11.092   9.371  0.5136  0.2870 -0.0331
  344MOL0     C46355   2.278  11.197   9.417  0.2024  0.2686 -0.1194
  344MOL0     N46356   2.711  11.642   9.946  0.0365 -0.7007 -0.3328
  344MOL0     N46357   2.742  11.625  10.069  0.5157 -0.3558  0.1855
  344MOL0     C46358   2.766  10.970   9.522 -0.4132 -0.5289  0.2524
  344MOL0     C46359   2.780  10.961   9.382 -0.6107  0.7082 -0.4083
  344MOL0     C46360   2.823  10.876   8.975 -0.2362 -0.2412  0.6109
  344MOL0     C46361   2.963  10.872   8.935  0.4662  0.2292  0.4734
  344MOL0     C46362   3.000  10.902   8.810  0.1740  0.0744  0.8682
  344MOL0     C46363   2.915  10.966   8.717  0.5151  0.6482  0.8003
  344MOL0     O46364   2.953  11.004   8.586 -0.6459 -0.7398  0.2887
  344MOL0     C46365   2.878  11.088   8.491 -0.6273  0.7244  0.1832
  344MOL0     C46366   2.861  11.230   8.528  0.3094 -0.0001 -0.6916
  344MOL0     C46367   2.986  11.307   8.552 -0.2503  0.7466 -0.2410
  344MOL0     C46368   2.970  11.411   8.663  0.1987 -0.5384 -0.4879
  344MOL0     C46369   2.976  11.347   8.800  0.3172  0.1166 -0.8988
  344MOL0     C46370   2.974  11.291   8.912 -0.8769 -0.3909 -0.1752
  344MOL0     C46371   2.773  10.984   8.756 -0.7935  0.3997  0.5461
  344MOL0     C46372   2.733  10.945   8.882  0.1889  0.6742 -0.8136
  344MOL0     H46373   2.464  10.864   9.302 -0.6456 -1.1085  0.5953
  344MOL0     H46374   2.437  10.867   9.547  1.1199  2.6016  0.8100
  344MOL0     H46375   2.845  10.940   9.796  0.7306  2.0341 -2.1017
  344MOL0     H46376   2.753  11.081   9.748 -1.0221  0.7506  2.1694
  344MOL0     H46377   2.585  11.038   9.940  0.0604  1.4812 -0.4821
  344MOL0     H46378   2.688  10.900   9.983 -2.4005 -0.6827 -1.9557
  344MOL0     H46379   2.857  11.134   9.950 -1.2590  4.9128 -0.0865
  344MOL0     H46380   2.713  11.206   9.983 -1.3554 -1.3709 -0.9703
  344MOL0     H46381   2.723  11.090  10.221 -1.0384  1.8700 -1.8466
  344MOL0     H46382   2.831  10.978  10.162 -0.8438 -1.3226 -3.5342
  344MOL0     H46383   2.957  11.152  10.292  3.9443  1.2826 -0.3521
  344MOL0     H46384   3.010  11.163  10.138 -0.5281 -0.5274  0.6128
  344MOL0     H46385   2.936  11.389  10.261 -0.8924 -0.7041  1.0454
  344MOL0     H46386   2.859  11.367  10.098  0.9657  1.2825 -0.4445
  344MOL0     H46387   2.650  11.292  10.225 -0.6614 -0.0439  0.6229
  344MOL0     H46388   2.734  11.299  10.372  3.8826 -0.3597  0.9366
  344MOL0     H46389   2.773  11.559  10.319  1.8270 -0.3118 -0.4198
  344MOL0     H46390   2.603  11.508  10.323  0.9185 -1.2362  1.7272
  344MOL0     H46391   2.510  11.408  10.048  0.5022  0.3142 -1.0720
  344MOL0     H46392   2.432  11.487   9.810  0.4498 -0.9897 -0.9232
  344MOL0     H46393   2.515  11.622   9.734 -2.1320  1.2841  1.6049
  344MOL0     H46394   2.653  11.342   9.779  1.0750  1.2357 -0.5708
  344MOL0     H46395   2.693  11.451   9.653  0.1457 -1.2467  0.2520
  344MOL0     H46396   2.447  11.273   9.664 -0.2663 -1.5826 -1.4368
  344MOL0     H46397   2.589  11.282   9.553 -0.9099 -0.4043  0.3058
  344MOL0     H46398   2.447  11.398   9.404 -0.8595  2.2945 -1.1578
  344MOL0     H46399   2.460  11.532   9.511 -2.5461  0.8960 -0.9056
  344MOL0     H46400   2.052  11.407   9.534  0.3271  0.2222 -0.0323
  344MOL0     H46401   1.799  11.241   9.366 -1.0032  0.3945  0.9886
  344MOL0     H46402   1.812  11.133   9.508  1.7684 -2.0972 -1.0343
  344MOL0     H46403   1.835  11.313   9.520 -2.3120  1.7316 -2.1981
  344MOL0     H46404   1.870  10.773   9.402  0.3226  1.7426 -0.7319
  344MOL0     H46405   1.788  10.547   9.405 -0.6342  2.8428  0.7335
  344MOL0     H46406   1.921  10.301   9.056 -2.2963  1.7962  0.4886
  344MOL0     H46407   2.007  10.209   9.178 -0.1749 -1.1166  0.7882
  344MOL0     H46408   1.711  10.157   9.157 -0.8877 -2.7317  1.8687
  344MOL0     H46409   1.821  10.098   9.036 -3.4727 -2.0997 -0.0308
  344MOL0     H46410   1.829  10.043   9.339  1.6708 -1.6023  0.9575
  344MOL0     H46411   1.957   9.995   9.224  0.1059 -0.6417  0.6948
  344MOL0     H46412   1.672   9.927   9.177 -0.3923 -0.9405  0.3318
  344MOL0     H46413   1.820   9.881   9.082 -0.4066  1.3139 -0.5676
  344MOL0     H46414   1.737   9.702   9.203 -2.8620  2.8195 -2.4907
  344MOL0     H46415   1.750   9.797   9.361 -0.4989 -0.6706 -1.1783
  344MOL0     H46416   1.994   9.797   9.328 -2.3418  1.9658  2.2703
  344MOL0     H46417   1.913   9.641   9.378  2.2653  1.0241 -0.0227
  344MOL0     H46418   2.091   9.596   9.225  0.2999  0.9057  0.2494
  344MOL0     H46419   2.014   9.688   9.099  1.7148  2.6381  2.2053
  344MOL0     H46420   1.802   9.524   9.137 -0.3359  0.1601 -0.1901
  344MOL0     H46421   1.924   9.421   9.213  0.0198 -2.2706 -2.1857
  344MOL0     H46422   2.066  10.450   9.094  1.5615 -1.3617  2.2649
  344MOL0     H46423   2.152  10.704   9.100 -0.7161 -2.2467 -2.7151
  344MOL0     H46424   2.254  11.002   9.343  0.1425 -0.6829  2.1275
  344MOL0     H46425   2.385  11.178   9.420  0.1424 -0.0421  0.1380
  344MOL0     H46426   2.859  10.989   9.575 -1.3494 -1.1718  2.2341
  344MOL0     H46427   2.877  10.983   9.338  0.2282  0.7632  1.4025
  344MOL0     H46428   3.042  10.829   8.995  2.9534  2.4831 -0.9492
  344MOL0     H46429   3.097  10.889   8.763 -0.4963 -1.1135 -0.2296
  344MOL0     H46430   2.930  11.078   8.395  2.1508 -1.5963  1.7482
  344MOL0     H46431   2.787  11.028   8.482 -0.4463  0.4737  0.0207
  344MOL0     H46432   2.800  11.231   8.619  0.8729 -1.5548 -0.2767
  344MOL0     H46433   2.789  11.283   8.463 -1.4809  1.2355  2.0984
  344MOL0     H46434   3.005  11.357   8.457 -1.1935 -1.6732 -1.8135
  344MOL0     H46435   3.068  11.240   8.581  0.7793  2.7829  1.9296
  344MOL0     H46436   2.881  11.469   8.638 -0.4477 -1.5476 -0.5957
  344MOL0     H46437   3.051  11.484   8.657  0.7517 -0.9627  1.2678
  344MOL0     H46438   2.974  11.240   9.006  0.7441 -1.3494 -0.6504
  344MOL0     H46439   2.702  11.027   8.686 -0.3271 -0.4731 -0.4914
  344MOL0     H46440   2.634  10.974   8.915  1.0491  0.7594  1.9109
  345MOL0     O46441   5.184   4.265   1.308  0.8588 -0.5306 -0.4606
  345MOL0     C46442   5.284   4.325   1.324  0.3249  0.3778 -0.1711
  345MOL0     O46443   5.300   4.459   1.324  0.6669 -0.3879 -0.2406
  345MOL0     C46444   5.192   4.542   1.315 -0.5862 -0.2281 -0.1640
  345MOL0     C46445   5.128   4.565   1.194 -0.3780  0.3974  0.8497
  345MOL0     C46446   5.001   4.624   1.189  0.2300  0.0459  0.5026
  345MOL0     C46447   4.927   4.650   1.308  0.7710  0.3997  0.6820
  345MOL0     O46448   4.801   4.703   1.303 -0.2019  0.1405  0.1414
  345MOL0     C46449   4.726   4.690   1.177  0.0247 -0.4811  0.3097
  345MOL0     C46450   4.586   4.717   1.225  0.0293 -0.1273  0.2293
  345MOL0     C46451   4.479   4.699   1.116 -0.3020  1.5250 -1.0108
  345MOL0     C46452   4.368   4.790   1.151  0.0719  0.1033 -0.1202
  345MOL0     C46453   4.261   4.792   1.043  0.5504 -0.1058  0.4223
  345MOL0     C46454   4.305   4.847   0.910 -0.5968 -0.6641 -0.3877
  345MOL0     C46455   4.184   4.864   0.820  0.2221 -0.6399  0.3431
  345MOL0     C46456   4.207   4.921   0.680 -0.3336  0.6434 -0.1999
  345MOL0     N46457   4.078   4.934   0.620 -0.0573  0.3949  0.0407
  345MOL0     C46458   3.984   5.034   0.656 -1.0073  0.1520  0.1114
  345MOL0     C46459   3.878   5.017   0.573 -0.2598 -0.0728 -0.3921
  345MOL0     C46460   3.751   5.103   0.598  0.0296  0.5350 -0.2018
  345MOL0     C46461   3.774   5.245   0.551 -0.2322  0.8117 -0.7136
  345MOL0     C46462   3.782   5.234   0.402 -0.0251 -0.7217  0.5770
  345MOL0     C46463   3.751   5.375   0.335 -0.7291  0.1147 -0.4713
  345MOL0     O46464   3.850   5.475   0.361 -0.0230 -0.1225 -0.4574
  345MOL0     C46465   3.980   5.472   0.315 -0.5760 -0.5456 -0.4669
  345MOL0     C46466   4.069   5.564   0.377 -1.5325 -0.6758  0.7928
  345MOL0     C46467   4.208   5.559   0.359  0.1420  0.1964 -0.1887
  345MOL0     C46468   4.291   5.673   0.406  0.1581  0.5736  0.2966
  345MOL0     C46469   4.260   5.458   0.268 -0.3687  0.6038 -1.6353
  345MOL0     C46470   4.404   5.451   0.240  0.9556 -0.4425 -0.8080
  345MOL0     O46471   4.451   5.397   0.130 -0.7541  0.1940 -0.2453
  345MOL0     C46472   4.585   5.424   0.110 -0.3006  0.4499 -0.4355
  345MOL0     C46473   4.685   5.321   0.103 -0.1748  0.0811 -0.3756
  345MOL0     C46474   4.822   5.354   0.086 -1.0012  0.3357 -0.1836
  345MOL0     C46475   4.852   5.489   0.080  0.0645  0.1704  0.8212
  345MOL0     O46476   4.990   5.524   0.086 -0.0749 -0.5564  0.1662
  345MOL0     C46477   5.095   5.448   0.018  0.3451 -0.5001  0.0011
  345MOL0     C46478   5.226   5.514   0.024 -0.8107  0.2934  0.2180
  345MOL0     C46479   5.332   5.432  -0.055  0.1987  0.5473  0.0606
  345MOL0     C46480   5.473   5.495  -0.047  1.0015  0.2281 -0.7049
  345MOL0     C46481   5.563   5.399  -0.130 -0.2020  0.6092 -0.0957
  345MOL0     C46482   5.699   5.467  -0.136 -0.5484 -0.7103 -0.2158
  345MOL0     C46483   5.806   5.396  -0.218 -0.8192  0.0244  0.1113
  345MOL0     C46484   5.780   5.400  -0.367  0.3717 -0.1790 -0.1267
  345MOL0    Cl46485   5.700   5.250  -0.416  0.3251  0.2374 -0.1931
  345MOL0     C46486   4.757   5.589   0.077  0.2425  0.1101 -0.8894
  345MOL0     C46487   4.621   5.559   0.091 -0.0391  0.0752  0.6659
  345MOL0     O46488   4.477   5.470   0.345  0.0076  0.2396  0.1543
  345MOL0     C46489   4.174   5.375   0.198  0.3689 -0.7384  0.3628
  345MOL0     C46490   4.034   5.389   0.217  0.5786 -0.0707  0.0911
  345MOL0     N46491   3.911   4.922   0.474 -1.0517  0.4275 -0.3692
  345MOL0     N46492   4.034   4.872   0.508 -0.3370  0.0842  0.4358
  345MOL0     C46493   4.994   4.634   1.435  0.0645 -0.5679 -0.2773
  345MOL0     C46494   5.125   4.594   1.429  0.1796  0.5774 -0.4068
  345MOL0     C46495   5.399   4.245   1.374 -0.2174 -0.3201 -0.1753
  345MOL0     C46496   5.395   4.115   1.435  0.0972  0.3222  0.3452
  345MOL0     C46497   5.507   4.051   1.493 -0.5526 -0.2722 -0.3965
  345MOL0     C46498   5.632   4.118   1.489  0.1842  0.4946  0.6146
  345MOL0     O46499   5.749   4.067   1.544  0.3213  0.1708  0.1660
  345MOL0     C46500   5.735   3.942   1.609  0.7293 -0.2602  0.1439
  345MOL0     C46501   5.866   3.880   1.646  0.3249 -0.1501 -0.3588
  345MOL0     C46502   5.849   3.742   1.712  0.2356  0.1373 -0.2379
  345MOL0     C46503   5.963   3.705   1.792  0.6307 -0.6482 -0.0512
  345MOL0     C46504   5.952   3.571   1.851 -0.1630 -0.6412 -0.7376
  345MOL0     C46505   5.941   3.461   1.897  1.0546  0.8033  0.3554
  345MOL0     C46506   5.639   4.247   1.431 -0.2874  0.4488 -0.0275
  345MOL0     C46507   5.525   4.313   1.380 -0.0974  0.9274  0.6511
  345MOL0     H46508   5.187   4.539   1.107  0.9904 -0.9811  2.1011
  345MOL0     H46509   4.961   4.638   1.089 -0.0268  0.4230  0.6598
  345MOL0     H46510   4.743   4.773   1.108 -1.3264 -0.5098 -0.0804
  345MOL0     H46511   4.734   4.587   1.141 -0.6973 -0.5111  0.2274
  345MOL0     H46512   4.567   4.663   1.318 -0.5050 -1.8789 -0.8465
  345MOL0     H46513   4.583   4.823   1.253  0.5553 -0.1932  0.5365
  345MOL0     H46514   4.524   4.724   1.020  1.6654  0.0073 -0.5518
  345MOL0     H46515   4.449   4.594   1.128  0.7438  1.2965 -0.2053
  345MOL0     H46516   4.318   4.750   1.240 -3.9375  0.3176 -2.0374
  345MOL0     H46517   4.408   4.892   1.158  1.0336 -0.2235 -0.8177
  345MOL0     H46518   4.221   4.690   1.037  0.3156 -0.1190  1.9827
  345MOL0     H46519   4.183   4.858   1.082 -0.5866  0.3158 -2.2820
  345MOL0     H46520   4.353   4.945   0.914 -2.5189  0.5904 -3.6707
  345MOL0     H46521   4.376   4.770   0.876  1.4033  0.0167  2.0084
  345MOL0     H46522   4.150   4.763   0.796  0.8280 -1.2053  1.7483
  345MOL0     H46523   4.104   4.930   0.855 -1.4603 -1.6849 -1.3507
  345MOL0     H46524   4.276   4.853   0.629 -0.6257  2.3095 -3.0410
  345MOL0     H46525   4.237   5.025   0.697 -3.2460  1.5051  0.0998
  345MOL0     H46526   3.990   5.096   0.744 -2.2236  1.1739 -0.4958
  345MOL0     H46527   3.670   5.048   0.548  2.3036 -2.5259 -0.8714
  345MOL0     H46528   3.726   5.099   0.704  0.2478 -4.4537 -0.0951
  345MOL0     H46529   3.866   5.291   0.589  1.0771 -1.1407 -1.3605
  345MOL0     H46530   3.697   5.308   0.596 -1.0764 -0.7558  0.1322
  345MOL0     H46531   3.700   5.169   0.369  0.4630  0.5048 -3.7082
  345MOL0     H46532   3.873   5.192   0.358  0.7138  1.1721  0.1812
  345MOL0     H46533   3.663   5.409   0.390 -3.0216 -3.1987 -1.7654
  345MOL0     H46534   3.723   5.369   0.229  2.3628 -0.4865 -1.3414
  345MOL0     H46535   4.022   5.643   0.435 -0.6942  0.5863 -0.1940
  345MOL0     H46536   4.222   5.748   0.445 -1.2687 -0.2897 -0.4899
  345MOL0     H46537   4.353   5.632   0.486 -2.3627 -1.8270  1.1878
  345MOL0     H46538   4.357   5.714   0.328  1.5635 -1.2455  0.4695
  345MOL0     H46539   4.652   5.221   0.125 -0.0836  0.3034  0.8504
  345MOL0     H46540   4.905   5.285   0.085 -1.3251 -0.1877  2.3570
  345MOL0     H46541   5.124   5.357   0.070  1.1711 -1.4875 -2.1001
  345MOL0     H46542   5.070   5.424  -0.086 -2.9179 -0.6434  0.6829
  345MOL0     H46543   5.232   5.615  -0.018  0.1048 -0.5683 -1.8854
  345MOL0     H46544   5.260   5.535   0.126  3.5101 -1.3155 -0.6493
  345MOL0     H46545   5.302   5.440  -0.160  1.7496 -0.0667 -0.4587
  345MOL0     H46546   5.337   5.327  -0.028 -0.1177  0.2375 -1.0271
  345MOL0     H46547   5.467   5.589  -0.102  2.6592  1.7822  1.6225
  345MOL0     H46548   5.503   5.517   0.056 -0.2991  0.2490 -0.3158
  345MOL0     H46549   5.522   5.369  -0.227 -2.1344 -1.8503  1.3673
  345MOL0     H46550   5.561   5.298  -0.089 -1.0401 -0.7320 -3.1520
  345MOL0     H46551   5.678   5.565  -0.179 -1.3389 -1.6842 -2.1348
  345MOL0     H46552   5.742   5.483  -0.036 -0.5596  2.7615 -0.6464
  345MOL0     H46553   5.826   5.295  -0.181  0.7660 -0.0369 -0.8188
  345MOL0     H46554   5.905   5.436  -0.192 -0.8127 -0.8678  1.5675
  345MOL0     H46555   5.880   5.410  -0.410  0.0899  2.6820 -0.3036
  345MOL0     H46556   5.728   5.493  -0.391  0.1567 -0.2940 -0.1049
  345MOL0     H46557   4.790   5.692   0.066  0.2440  0.6633  2.9274
  345MOL0     H46558   4.549   5.639   0.074  0.1242  0.1993  0.5657
  345MOL0     H46559   4.217   5.307   0.125  1.7240  0.8052 -0.3490
  345MOL0     H46560   3.968   5.320   0.166  1.0608 -0.2665 -0.2833
  345MOL0     H46561   4.953   4.666   1.531  1.6482 -0.2347  0.3114
  345MOL0     H46562   5.165   4.563   1.525 -2.1453 -0.2218  0.3703
  345MOL0     H46563   5.306   4.055   1.449  0.9739 -1.5882 -1.6956
  345MOL0     H46564   5.484   3.958   1.544 -3.5723  0.0388 -0.9926
  345MOL0     H46565   5.681   3.957   1.703 -0.3265 -2.4735 -0.0647
  345MOL0     H46566   5.689   3.870   1.542  0.3151  0.3164 -0.1925
  345MOL0     H46567   5.930   3.949   1.702  1.1093 -0.7699 -0.4710
  345MOL0     H46568   5.919   3.870   1.551  1.0830  3.7194 -0.4939
  345MOL0     H46569   5.837   3.658   1.643 -3.3342 -1.6024  2.1944
  345MOL0     H46570   5.760   3.743   1.775  0.0706  1.0413 -0.4713
  345MOL0     H46571   5.967   3.784   1.868 -0.4905  0.3833 -1.0158
  345MOL0     H46572   6.049   3.702   1.725 -1.8736 -3.2406 -3.5558
  345MOL0     H46573   5.919   3.364   1.935 -1.6220  0.8620 -0.7857
  345MOL0     H46574   5.735   4.297   1.425  0.7155 -1.4141 -0.2628
  345MOL0     H46575   5.529   4.413   1.340  0.7381 -0.2450 -2.5319
  346MOL0     O46576   9.708   8.219   2.954 -0.1919  0.9316  0.7304
  346MOL0     C46577   9.698   8.128   3.036 -0.1811  0.1438 -0.3600
  346MOL0     O46578   9.580   8.072   3.082 -0.4274 -0.8010  0.4468
  346MOL0     C46579   9.460   8.105   3.031  0.7645  0.2859 -0.1750
  346MOL0     C46580   9.418   8.224   2.972  0.2903  0.3570  0.4024
  346MOL0     C46581   9.281   8.233   2.937  0.1850 -0.1320  0.2451
  346MOL0     C46582   9.183   8.131   2.955  0.4751 -0.5114 -0.5667
  346MOL0     O46583   9.051   8.161   2.922  0.3707  0.2999  0.4786
  346MOL0     C46584   8.959   8.132   3.027  0.2678 -0.3163  0.5062
  346MOL0     C46585   8.825   8.205   2.997  0.4037  0.3708 -0.9333
  346MOL0     C46586   8.699   8.104   3.007 -0.7188  0.9705 -0.8959
  346MOL0     C46587   8.717   7.975   2.921 -0.3914 -0.9906  0.5657
  346MOL0     C46588   8.598   7.888   2.908 -0.1684  0.5953 -0.2101
  346MOL0     C46589   8.577   7.800   3.040  0.4224 -0.4581 -0.4158
  346MOL0     C46590   8.471   7.698   3.012  0.4205 -0.1996  0.3936
  346MOL0     C46591   8.330   7.773   3.017  0.5088 -0.4111 -0.1534
  346MOL0     N46592   8.216   7.681   3.068 -0.5063 -0.3545  0.2093
  346MOL0     C46593   8.131   7.621   2.977  0.8019  0.0640  0.5968
  346MOL0     C46594   8.026   7.574   3.047 -0.3132  0.5051 -0.0071
  346MOL0     C46595   7.895   7.501   2.998 -0.1224 -0.0521  0.5404
  346MOL0     C46596   7.793   7.600   2.932  0.1972  0.3902 -0.1579
  346MOL0     C46597   7.655   7.539   2.890  1.1063 -0.5445  0.1500
  346MOL0     C46598   7.578   7.625   2.783 -0.2071  1.2651 -0.4876
  346MOL0     O46599   7.479   7.526   2.736 -0.0049 -0.2297 -0.0552
  346MOL0     C46600   7.355   7.577   2.723 -0.1205  0.8257 -0.2340
  346MOL0     C46601   7.248   7.488   2.722 -0.1377  0.1554 -0.2755
  346MOL0     C46602   7.118   7.527   2.709 -0.3137  0.1777 -0.3723
  346MOL0     C46603   7.013   7.417   2.736  0.1464 -0.1712  0.3195
  346MOL0     C46604   7.094   7.664   2.674  0.6698  0.8803  0.2413
  346MOL0     C46605   6.953   7.717   2.664  0.6263 -0.7736 -0.4433
  346MOL0     O46606   6.856   7.651   2.734 -0.1701 -0.4393 -0.0007
  346MOL0     C46607   6.725   7.697   2.721 -1.1454  0.0891 -0.0697
  346MOL0     C46608   6.682   7.813   2.784  0.2857 -0.8965 -0.9486
  346MOL0     C46609   6.547   7.858   2.770  1.6311  0.4929  1.2257
  346MOL0     C46610   6.448   7.776   2.702 -0.8914  0.5216 -0.0164
  346MOL0     O46611   6.316   7.808   2.694 -0.1258 -0.1003  0.0307
  346MOL0     C46612   6.272   7.910   2.782  0.4148 -0.1989  0.4661
  346MOL0     C46613   6.123   7.931   2.769 -0.9139 -0.7655  0.4169
  346MOL0     C46614   6.044   7.806   2.804 -0.0561 -0.1465 -0.3448
  346MOL0     C46615   5.891   7.831   2.771 -0.3319 -0.1804 -0.0938
  346MOL0     C46616   5.785   7.732   2.827 -0.8115  0.6284  0.6293
  346MOL0     C46617   5.642   7.785   2.810  0.6076  0.8027  0.3428
  346MOL0     C46618   5.537   7.692   2.879 -0.1186 -0.3561 -0.4809
  346MOL0     C46619   5.422   7.680   2.775 -0.1413 -0.1851 -0.3650
  346MOL0    Cl46620   5.301   7.574   2.834 -0.1785 -0.0911 -0.4644
  346MOL0     C46621   6.497   7.656   2.650 -0.4716  0.0271  0.0930
  346MOL0     C46622   6.636   7.618   2.652  0.5005  0.0255 -1.2898
  346MOL0     O46623   6.937   7.811   2.584 -0.9098 -0.4144 -0.6094
  346MOL0     C46624   7.197   7.764   2.677 -0.0880 -0.7933  0.0732
  346MOL0     C46625   7.329   7.712   2.698  0.3643  0.9847  0.0782
  346MOL0     N46626   8.056   7.598   3.183  0.2645  1.3639 -0.1081
  346MOL0     N46627   8.168   7.664   3.188  0.1204  0.5446 -0.7603
  346MOL0     C46628   9.232   8.012   3.011  0.4193 -0.4365 -0.4549
  346MOL0     C46629   9.367   8.002   3.056  0.6374 -0.1901  0.7067
  346MOL0     C46630   9.821   8.072   3.094  0.7874 -0.1948  0.2642
  346MOL0     C46631   9.945   8.137   3.076 -1.4490  0.4491  0.9739
  346MOL0     C46632  10.068   8.102   3.138  0.4155 -0.3300 -0.5422
  346MOL0     C46633  10.072   7.986   3.215  0.7076 -0.3853 -0.2061
  346MOL0     O46634  10.181   7.927   3.275  0.3889  0.0084 -0.5277
  346MOL0     C46635  10.303   7.999   3.294  0.0204  0.8900 -0.5314
  346MOL0     C46636  10.403   7.914   3.367  0.0973 -0.7492 -1.0698
  346MOL0     C46637  10.543   7.978   3.362  0.5149  1.3311  0.5182
  346MOL0     C46638  10.563   8.079   3.468  0.4856 -0.1714  0.2636
  346MOL0     C46639  10.687   8.157   3.449  0.4481  0.2830  0.4479
  346MOL0     C46640  10.787   8.218   3.440  0.7124  0.6017  0.1470
  346MOL0     C46641   9.955   7.908   3.222 -0.2309 -0.3747  0.1009
  346MOL0     C46642   9.826   7.957   3.164 -0.6146  0.3866 -0.1560
  346MOL0     H46643   9.483   8.303   2.938  0.6305  1.1143  2.6573
  346MOL0     H46644   9.253   8.331   2.901  1.3132  0.4570  0.9375
  346MOL0     H46645   8.951   8.023   3.028  0.9808 -0.3792  0.0757
  346MOL0     H46646   8.994   8.163   3.126 -0.8456  1.2821  0.4560
  346MOL0     H46647   8.813   8.293   3.060  0.4877 -0.5144  0.3535
  346MOL0     H46648   8.814   8.245   2.896 -3.4603  1.2675 -0.3266
  346MOL0     H46649   8.684   8.081   3.112  1.7712  1.2871 -0.3984
  346MOL0     H46650   8.615   8.163   2.970 -3.3044 -0.1498  2.7563
  346MOL0     H46651   8.726   8.028   2.825  1.4586  0.2755  1.3848
  346MOL0     H46652   8.800   7.910   2.950  1.2829  2.6039  5.0855
  346MOL0     H46653   8.510   7.946   2.881 -1.0609 -0.7536 -0.3112
  346MOL0     H46654   8.613   7.821   2.823  0.2134  0.9136 -0.3961
  346MOL0     H46655   8.669   7.752   3.075  1.1770 -0.0614 -1.7870
  346MOL0     H46656   8.548   7.866   3.122 -0.4623 -1.0988 -0.2060
  346MOL0     H46657   8.489   7.635   2.925 -0.6448 -0.0766  0.0768
  346MOL0     H46658   8.473   7.630   3.098  0.2877  0.6900  1.1123
  346MOL0     H46659   8.308   7.822   2.922 -0.3378 -0.0693  0.2076
  346MOL0     H46660   8.345   7.855   3.088  1.0518 -1.3251  0.8203
  346MOL0     H46661   8.130   7.611   2.869 -1.5368  1.1837  0.4416
  346MOL0     H46662   7.920   7.427   2.921 -1.7618  0.4328 -0.5047
  346MOL0     H46663   7.863   7.446   3.087 -1.3379 -2.1897 -1.1192
  346MOL0     H46664   7.840   7.627   2.837  1.2968 -0.7811  0.0155
  346MOL0     H46665   7.780   7.685   2.999 -1.6281  0.1497 -0.1630
  346MOL0     H46666   7.591   7.521   2.977  1.6348  2.0012  1.1385
  346MOL0     H46667   7.679   7.441   2.847  0.4865 -0.3538 -0.6421
  346MOL0     H46668   7.649   7.652   2.704  0.2803 -1.8832 -1.2731
  346MOL0     H46669   7.524   7.710   2.827 -0.5703  0.7016  0.1747
  346MOL0     H46670   7.266   7.382   2.741 -1.1828  0.0931  0.4213
  346MOL0     H46671   6.936   7.414   2.659  0.8145  0.4007 -0.3777
  346MOL0     H46672   7.053   7.315   2.723 -1.9438 -0.9201 -0.7462
  346MOL0     H46673   6.976   7.441   2.836  0.5388  2.3533 -0.0856
  346MOL0     H46674   6.753   7.875   2.838 -2.0319  0.0423  1.2342
  346MOL0     H46675   6.520   7.954   2.813  0.2640 -0.1343  1.8128
  346MOL0     H46676   6.306   7.912   2.886  3.7446  2.0797 -0.5103
  346MOL0     H46677   6.320   7.999   2.742 -0.0096 -1.3990 -2.9948
  346MOL0     H46678   6.098   8.023   2.823  0.3884  0.2514 -0.6386
  346MOL0     H46679   6.096   7.950   2.665 -1.9173 -2.1973  0.3868
  346MOL0     H46680   6.047   7.804   2.914 -3.6384  2.2918 -0.0186
  346MOL0     H46681   6.093   7.721   2.756  0.3641 -0.5522  0.7726
  346MOL0     H46682   5.862   7.933   2.797 -0.3712  0.1199 -1.2845
  346MOL0     H46683   5.891   7.829   2.662  0.4763  0.6141 -0.1169
  346MOL0     H46684   5.806   7.716   2.934 -0.9493 -0.3351  0.5211
  346MOL0     H46685   5.794   7.634   2.779  1.2058  1.4389 -0.8139
  346MOL0     H46686   5.651   7.885   2.853  2.0429  1.5570 -1.5449
  346MOL0     H46687   5.621   7.791   2.703 -5.6293  0.6029  1.1920
  346MOL0     H46688   5.489   7.745   2.962  0.7542 -0.6504  0.2319
  346MOL0     H46689   5.573   7.591   2.906  0.5145 -0.0397 -0.1085
  346MOL0     H46690   5.471   7.648   2.683 -0.0872 -2.3453  0.3399
  346MOL0     H46691   5.367   7.773   2.760 -2.5854 -1.4826  0.0094
  346MOL0     H46692   6.428   7.594   2.594 -0.7158  0.6572 -0.3155
  346MOL0     H46693   6.677   7.529   2.605  1.6241 -1.1348  1.6871
  346MOL0     H46694   7.172   7.861   2.636  1.6819 -1.5139 -3.0891
  346MOL0     H46695   7.406   7.785   2.673  0.4161  0.3711 -1.7327
  346MOL0     H46696   9.170   7.925   3.030  0.0523  0.3030  2.1523
  346MOL0     H46697   9.394   7.915   3.113 -0.2132 -2.1965 -1.7486
  346MOL0     H46698   9.949   8.220   3.005  0.1113 -1.3528 -1.1894
  346MOL0     H46699  10.146   8.171   3.107 -1.4976  1.5533 -1.4144
  346MOL0     H46700  10.346   8.058   3.213 -2.0717  1.2123 -1.4731
  346MOL0     H46701  10.272   8.084   3.357  0.2297  0.9495 -0.5082
  346MOL0     H46702  10.404   7.822   3.307 -3.3947 -1.2361 -0.5808
  346MOL0     H46703  10.374   7.883   3.468  0.1592 -0.9943 -1.1260
  346MOL0     H46704  10.562   8.020   3.263  1.1692  2.6712  1.1813
  346MOL0     H46705  10.610   7.892   3.369 -0.7236  0.3337  0.5268
  346MOL0     H46706  10.560   8.036   3.569 -2.1537  0.0172  0.3201
  346MOL0     H46707  10.482   8.152   3.471  2.4691  2.1979 -0.0924
  346MOL0     H46708  10.890   8.246   3.446  1.0343 -0.7410  1.5267
  346MOL0     H46709   9.958   7.815   3.277 -1.2255  0.2144  1.1883
  346MOL0     H46710   9.736   7.898   3.175 -0.3017  0.0119  0.4237
  347MOL0     O46711   8.946   9.579   2.047  0.2053 -1.3200  0.4643
  347MOL0     C46712   8.949   9.587   2.173 -0.0996 -0.2663 -1.3277
  347MOL0     O46713   8.865   9.521   2.260 -0.3062 -0.4915 -0.4100
  347MOL0     C46714   8.766   9.437   2.207  0.5726  0.2779 -1.0440
  347MOL0     C46715   8.724   9.330   2.281 -0.2552  0.2185  0.4581
  347MOL0     C46716   8.610   9.253   2.240 -0.1007 -0.2648  0.5882
  347MOL0     C46717   8.534   9.277   2.127  0.7390 -0.5656 -1.0514
  347MOL0     O46718   8.417   9.208   2.101  0.4977  0.2871 -0.0932
  347MOL0     C46719   8.313   9.268   2.039  0.0306 -0.2530 -0.1435
  347MOL0     C46720   8.191   9.199   2.091 -0.6464  0.2561  0.2996
  347MOL0     C46721   8.068   9.268   2.023  0.6113  0.1876 -0.3674
  347MOL0     C46722   7.955   9.166   2.027  0.2859 -1.2909 -0.1261
  347MOL0     C46723   7.832   9.243   1.983  0.2790  0.1873 -0.4983
  347MOL0     C46724   7.706   9.148   1.964  0.1959  0.6502 -0.1361
  347MOL0     C46725   7.578   9.212   1.911 -0.2661 -0.3637 -0.2618
  347MOL0     C46726   7.592   9.250   1.763  0.0393 -0.7577  0.2472
  347MOL0     N46727   7.479   9.332   1.723  0.3771 -0.3830 -0.0728
  347MOL0     C46728   7.347   9.291   1.749  0.1227  0.4260 -0.9965
  347MOL0     C46729   7.265   9.362   1.657 -0.8714 -0.0182 -0.2564
  347MOL0     C46730   7.109   9.340   1.657 -1.0182  0.2270 -0.5040
  347MOL0     C46731   7.037   9.433   1.766  0.4993 -0.1865 -0.8911
  347MOL0     C46732   6.890   9.389   1.778 -0.6953 -0.3510  0.3165
  347MOL0     C46733   6.802   9.412   1.650 -0.1590 -0.3666 -0.3052
  347MOL0     O46734   6.668   9.361   1.685 -0.2901 -0.4787  0.7001
  347MOL0     C46735   6.585   9.308   1.589  0.2161  0.4317 -0.0886
  347MOL0     C46736   6.460   9.364   1.565 -0.9763 -0.0142  0.2406
  347MOL0     C46737   6.367   9.313   1.473  0.4113  0.9060 -0.6952
  347MOL0     C46738   6.243   9.413   1.449  0.5196  0.8235  0.5379
  347MOL0     C46739   6.387   9.187   1.417 -0.0735  0.5296 -0.3137
  347MOL0     C46740   6.302   9.128   1.312  1.0116 -0.8101  0.6761
  347MOL0     O46741   6.356   9.018   1.256 -0.2900 -0.0051  0.6390
  347MOL0     C46742   6.285   8.972   1.143 -0.0942 -0.6404 -0.5047
  347MOL0     C46743   6.311   9.039   1.029  0.3447 -0.1747 -0.7271
  347MOL0     C46744   6.235   9.021   0.911 -0.1415  0.1358 -0.1223
  347MOL0     C46745   6.128   8.924   0.914  0.1260  0.6555  0.6296
  347MOL0     O46746   6.066   8.916   0.794  0.2958  0.3861 -0.2299
  347MOL0     C46747   5.935   8.863   0.793  0.3680  0.7456 -0.2290
  347MOL0     C46748   5.898   8.855   0.645 -0.1058 -0.8923 -0.1229
  347MOL0     C46749   5.748   8.809   0.626  0.7211  0.7149 -0.5176
  347MOL0     C46750   5.736   8.654   0.624  0.7577  0.2408  0.1536
  347MOL0     C46751   5.576   8.619   0.609 -0.1864  0.0937 -0.4367
  347MOL0     C46752   5.549   8.474   0.612  0.4572  0.4038 -0.0166
  347MOL0     C46753   5.569   8.410   0.750  0.1937  0.0738  0.1782
  347MOL0     C46754   5.503   8.279   0.762 -0.4220  0.3658 -0.3904
  347MOL0    Cl46755   5.579   8.169   0.640  0.0792 -0.0515  0.2723
  347MOL0     C46756   6.108   8.846   1.032 -0.4650 -0.1212  0.7507
  347MOL0     C46757   6.186   8.873   1.146  0.0298  1.0469 -1.1328
  347MOL0     O46758   6.206   9.190   1.271  0.8176 -0.4554  0.6181
  347MOL0     C46759   6.510   9.120   1.455  0.5084 -0.4589 -0.3562
  347MOL0     C46760   6.611   9.181   1.533  0.0627  0.5375  0.5077
  347MOL0     N46761   7.351   9.437   1.582  0.2490  0.8547  0.6175
  347MOL0     N46762   7.472   9.418   1.616  0.3240  0.2070 -0.7708
  347MOL0     C46763   8.578   9.391   2.050  0.2639 -0.0309  0.3817
  347MOL0     C46764   8.687   9.470   2.094 -0.1687  0.6830  0.1589
  347MOL0     C46765   9.058   9.677   2.240  0.6947  0.2077  0.0571
  347MOL0     C46766   9.146   9.757   2.157  0.4482  0.1984  0.0391
  347MOL0     C46767   9.239   9.838   2.217  0.5442 -0.1510  0.9705
  347MOL0     C46768   9.242   9.851   2.353 -0.0849  0.2172 -0.8584
  347MOL0     O46769   9.327   9.945   2.403  0.0506 -0.1533  0.2091
  347MOL0     C46770   9.307  10.002   2.531 -0.3592  0.0250  0.2214
  347MOL0     C46771   9.388   9.926   2.635  0.0015  0.2978 -0.1112
  347MOL0     C46772   9.454  10.020   2.731 -0.2036 -0.9638  0.1389
  347MOL0     C46773   9.548   9.940   2.821  0.1797 -0.1960 -0.5703
  347MOL0     C46774   9.634  10.028   2.903 -0.7134 -0.6823 -0.1774
  347MOL0     C46775   9.701  10.090   2.977  0.6296 -0.0235 -0.1695
  347MOL0     C46776   9.152   9.779   2.436 -0.7155 -0.3673  0.5865
  347MOL0     C46777   9.061   9.695   2.381  0.3661 -0.6664 -1.1275
  347MOL0     H46778   8.775   9.316   2.375  0.9798 -0.9031 -0.3432
  347MOL0     H46779   8.583   9.184   2.319  0.1060 -0.7442  0.2434
  347MOL0     H46780   8.320   9.374   2.062 -3.0447  1.0187 -3.9386
  347MOL0     H46781   8.312   9.265   1.930  2.0087  1.1754 -0.2546
  347MOL0     H46782   8.206   9.097   2.055  2.4611 -0.1888  2.4747
  347MOL0     H46783   8.197   9.199   2.201  0.3966  2.2593  0.3004
  347MOL0     H46784   8.037   9.349   2.089  1.6098  1.2942 -1.2195
  347MOL0     H46785   8.092   9.307   1.924  1.7387  1.8282  0.5080
  347MOL0     H46786   7.974   9.088   1.952 -0.4251 -1.1840 -0.4249
  347MOL0     H46787   7.941   9.121   2.125 -2.2021 -2.0285 -0.7645
  347MOL0     H46788   7.808   9.307   2.068  0.9759 -0.4389  0.1817
  347MOL0     H46789   7.844   9.308   1.896 -1.0394 -1.1984 -1.7737
  347MOL0     H46790   7.737   9.065   1.900 -1.8255 -1.0646  0.9876
  347MOL0     H46791   7.682   9.103   2.061 -2.8758  1.4486 -0.4227
  347MOL0     H46792   7.499   9.139   1.929  0.3771 -0.4187  2.9892
  347MOL0     H46793   7.564   9.302   1.972 -0.9316 -0.8659  0.3285
  347MOL0     H46794   7.598   9.151   1.716  0.3845 -1.8791  2.5407
  347MOL0     H46795   7.692   9.293   1.756  0.2510 -0.8320  2.2143
  347MOL0     H46796   7.318   9.238   1.839  0.3861  0.6518 -0.7807
  347MOL0     H46797   7.085   9.372   1.555  2.8017  0.6496 -1.4403
  347MOL0     H46798   7.095   9.235   1.683 -0.5519  0.3212  0.1457
  347MOL0     H46799   7.040   9.541   1.748 -2.3102 -0.0044 -0.7925
  347MOL0     H46800   7.076   9.414   1.866 -0.0202 -0.1060 -0.6733
  347MOL0     H46801   6.838   9.442   1.858  0.2211  1.1805 -0.0720
  347MOL0     H46802   6.889   9.282   1.803 -2.7753 -2.2465 -5.9635
  347MOL0     H46803   6.839   9.357   1.563 -2.8453 -0.7277 -1.3156
  347MOL0     H46804   6.794   9.515   1.615  1.7924 -0.1573 -0.2633
  347MOL0     H46805   6.446   9.465   1.602  3.6628  2.0824 -2.7060
  347MOL0     H46806   6.146   9.362   1.458  1.6068 -0.9624  3.4172
  347MOL0     H46807   6.250   9.501   1.513  2.8042  2.2037 -1.4393
  347MOL0     H46808   6.262   9.450   1.348  0.9599  0.1409  0.3658
  347MOL0     H46809   6.383   9.119   1.038 -0.8239  0.7082  1.4711
  347MOL0     H46810   6.246   9.096   0.833 -1.3101  0.6659  0.1911
  347MOL0     H46811   5.934   8.767   0.845 -2.0945 -0.3519 -2.1178
  347MOL0     H46812   5.867   8.931   0.847 -1.7890 -0.9564 -0.6789
  347MOL0     H46813   5.902   8.959   0.609 -0.1856 -0.0175  2.1773
  347MOL0     H46814   5.981   8.803   0.596  0.7966  0.9210 -0.6462
  347MOL0     H46815   5.718   8.853   0.531 -1.5728 -0.1345 -0.2388
  347MOL0     H46816   5.687   8.849   0.708 -0.2108 -0.4844 -0.5935
  347MOL0     H46817   5.780   8.607   0.535  0.5497  0.4361 -0.0562
  347MOL0     H46818   5.776   8.616   0.718 -0.8051 -4.0149 -0.6664
  347MOL0     H46819   5.548   8.653   0.509 -3.5527 -0.1454  0.3013
  347MOL0     H46820   5.516   8.667   0.688 -1.1977 -1.4657 -0.2214
  347MOL0     H46821   5.447   8.465   0.573  0.0549  1.7658  0.6351
  347MOL0     H46822   5.614   8.416   0.546  1.0152 -0.9277  1.6381
  347MOL0     H46823   5.535   8.479   0.827 -1.2765  0.3370 -0.6638
  347MOL0     H46824   5.677   8.396   0.743  0.0737 -0.1022 -2.6587
  347MOL0     H46825   5.395   8.298   0.757 -0.3723  1.5804  2.1286
  347MOL0     H46826   5.516   8.234   0.861  3.0424 -1.7248 -1.6036
  347MOL0     H46827   6.022   8.781   1.031  1.0566 -2.2116 -0.1325
  347MOL0     H46828   6.161   8.821   1.238  1.7988 -2.1762 -2.3007
  347MOL0     H46829   6.530   9.021   1.415  1.6410 -0.3901 -0.0041
  347MOL0     H46830   6.704   9.129   1.550  0.3393  0.6843 -0.5422
  347MOL0     H46831   8.530   9.413   1.955 -1.0151 -1.7891  0.5668
  347MOL0     H46832   8.709   9.559   2.036  2.5877  1.3234  1.9635
  347MOL0     H46833   9.127   9.749   2.050  0.7846  0.7394 -0.0609
  347MOL0     H46834   9.289   9.906   2.149 -0.6721  0.3285  0.5319
  347MOL0     H46835   9.342  10.105   2.515 -0.5615 -0.0825 -1.0340
  347MOL0     H46836   9.201  10.009   2.561 -0.4694 -0.3558 -0.0821
  347MOL0     H46837   9.459   9.860   2.585 -0.5505 -0.0555 -0.4492
  347MOL0     H46838   9.329   9.856   2.696  2.9144  0.7193  3.5081
  347MOL0     H46839   9.377  10.073   2.788  1.1373  0.9056  0.2919
  347MOL0     H46840   9.511  10.095   2.677 -0.4075 -1.0012 -0.1303
  347MOL0     H46841   9.608   9.871   2.761  0.5156 -0.6505  0.2731
  347MOL0     H46842   9.484   9.893   2.896 -2.4057  4.0119  0.2022
  347MOL0     H46843   9.756  10.155   3.042 -1.5707 -0.3559  2.1855
  347MOL0     H46844   9.157   9.794   2.543  1.8019 -0.8802  0.6195
  347MOL0     H46845   8.996   9.647   2.454 -1.9814  0.9479 -2.0410
  348MOL0     O46846   9.447   2.162   5.410 -0.5536 -0.4119  0.0930
  348MOL0     C46847   9.352   2.228   5.368  0.0830 -0.1060  0.6879
  348MOL0     O46848   9.237   2.271   5.438  0.0388 -0.1604 -0.5932
  348MOL0     C46849   9.218   2.209   5.567  0.1912 -0.3590  0.1122
  348MOL0     C46850   9.195   2.077   5.585  0.0426  0.3170  0.6766
  348MOL0     C46851   9.174   2.014   5.710  0.8557 -0.8668  0.3008
  348MOL0     C46852   9.171   2.096   5.824 -0.0967 -0.0036 -0.4533
  348MOL0     O46853   9.144   2.037   5.948 -0.6932 -0.7686 -0.3185
  348MOL0     C46854   9.076   2.118   6.048 -0.8293  0.1529 -1.1273
  348MOL0     C46855   9.040   2.030   6.169  0.2827  0.4166  0.2136
  348MOL0     C46856   8.952   1.909   6.126 -0.0361  0.0587  0.1530
  348MOL0     C46857   8.819   1.912   6.189  0.5298  0.2785  0.7624
  348MOL0     C46858   8.760   1.768   6.198 -0.1353 -0.5353  0.8197
  348MOL0     C46859   8.751   1.716   6.050 -0.4573  0.3501 -0.2461
  348MOL0     C46860   8.654   1.790   5.957 -0.2397 -0.1289  0.6701
  348MOL0     C46861   8.504   1.776   5.999 -0.0593 -0.3209  0.4598
  348MOL0     N46862   8.409   1.835   5.902 -0.0810  0.0762 -0.1338
  348MOL0     C46863   8.364   1.773   5.785  0.0988  0.0680 -0.3923
  348MOL0     C46864   8.266   1.841   5.730 -0.4294 -1.0255 -0.6122
  348MOL0     C46865   8.166   1.794   5.628 -0.4397  0.5977  0.3754
  348MOL0     C46866   8.064   1.907   5.592 -0.4219 -0.1704  0.0228
  348MOL0     C46867   7.990   1.866   5.471  0.4436 -0.8239  0.0237
  348MOL0     C46868   7.903   1.972   5.407 -0.1046  0.3283 -0.1772
  348MOL0     O46869   7.860   1.926   5.276  0.3472  0.6823  0.7542
  348MOL0     C46870   7.725   1.947   5.248 -0.3391  0.5993 -0.1565
  348MOL0     C46871   7.667   1.866   5.165  0.2952  0.9120 -0.0123
  348MOL0     C46872   7.523   1.852   5.147 -0.0766  0.5833  1.2894
  348MOL0     C46873   7.482   1.738   5.051 -0.2477  0.1787 -0.5866
  348MOL0     C46874   7.434   1.942   5.206 -0.6918  0.7859  0.3674
  348MOL0     C46875   7.287   1.930   5.200  0.1469 -0.2131  0.3323
  348MOL0     O46876   7.220   2.021   5.270 -0.0898 -0.9473  0.4915
  348MOL0     C46877   7.084   2.012   5.306 -0.3180  0.2720  0.4037
  348MOL0     C46878   7.017   2.138   5.334  0.3809 -0.4404 -0.1402
  348MOL0     C46879   6.884   2.136   5.375 -0.1246 -0.5475  0.0287
  348MOL0     C46880   6.808   2.013   5.377 -0.7706 -0.4829 -0.2517
  348MOL0     O46881   6.675   2.016   5.397  0.8408 -0.1770  0.1737
  348MOL0     C46882   6.604   1.891   5.384  0.9381  0.9247 -1.5551
  348MOL0     C46883   6.463   1.920   5.404  0.3731 -0.0896  0.6827
  348MOL0     C46884   6.352   1.827   5.347 -0.1697  0.1166  0.0062
  348MOL0     C46885   6.221   1.890   5.375 -0.0355 -0.4759 -0.9153
  348MOL0     C46886   6.100   1.833   5.293 -0.4771 -0.6495 -0.2737
  348MOL0     C46887   5.972   1.904   5.301  0.3596  0.0929  0.8010
  348MOL0     C46888   5.906   1.906   5.436  0.3511  0.4656 -0.0439
  348MOL0     C46889   5.754   1.924   5.427  0.2526 -0.0486  0.1247
  348MOL0    Cl46890   5.725   2.087   5.400 -0.0135 -0.1816  0.1583
  348MOL0     C46891   6.879   1.895   5.354  0.0068 -0.5003 -0.2203
  348MOL0     C46892   7.014   1.890   5.319 -0.4572 -0.5802  0.2112
  348MOL0     O46893   7.233   1.849   5.126  0.0575  0.1114 -0.0046
  348MOL0     C46894   7.501   2.052   5.275  0.3995  0.7131  0.0253
  348MOL0     C46895   7.649   2.057   5.296 -0.1627  1.3615 -0.0727
  348MOL0     N46896   8.250   1.940   5.828  0.3824 -0.1507 -0.4179
  348MOL0     N46897   8.337   1.937   5.920  0.1348 -0.0849 -0.1111
  348MOL0     C46898   9.189   2.236   5.805  0.2787  0.1139 -0.2411
  348MOL0     C46899   9.216   2.292   5.680  0.2904  0.6521 -0.4276
  348MOL0     C46900   9.355   2.267   5.229 -0.0015  0.2283  0.5218
  348MOL0     C46901   9.253   2.354   5.172 -0.1402 -0.8690 -0.4253
  348MOL0     C46902   9.249   2.385   5.037 -0.3571 -0.2154  0.3236
  348MOL0     C46903   9.329   2.309   4.945  0.3724  0.3631 -0.3345
  348MOL0     O46904   9.311   2.337   4.811  0.3390  0.0246  0.0925
  348MOL0     C46905   9.393   2.264   4.714 -0.0662  0.4700  0.5343
  348MOL0     C46906   9.331   2.274   4.569  0.4420  0.6426 -0.4981
  348MOL0     C46907   9.190   2.202   4.558 -0.9483 -0.3423 -0.1182
  348MOL0     C46908   9.096   2.254   4.448  0.3642 -0.4338  0.0339
  348MOL0     C46909   8.963   2.194   4.470 -0.9144 -1.3214 -1.3119
  348MOL0     C46910   8.856   2.146   4.484 -0.8231 -0.1856 -0.2509
  348MOL0     C46911   9.424   2.222   4.993 -0.1793 -0.8680  0.0860
  348MOL0     C46912   9.443   2.207   5.132 -0.0664 -0.0066  0.5704
  348MOL0     H46913   9.199   2.013   5.498 -2.9805  1.4983 -0.4572
  348MOL0     H46914   9.135   1.912   5.708  0.6081 -0.9895  4.1877
  348MOL0     H46915   9.141   2.198   6.083 -2.2413  1.3062 -1.0707
  348MOL0     H46916   8.984   2.157   6.003 -0.3138  1.7929 -0.8012
  348MOL0     H46917   9.128   2.005   6.230 -1.2009 -1.4273  1.7629
  348MOL0     H46918   8.983   2.089   6.240 -1.4043 -0.9566  0.0671
  348MOL0     H46919   8.950   1.890   6.019  1.0488 -0.9885  0.2920
  348MOL0     H46920   9.009   1.821   6.160 -2.9707 -2.4004 -0.8344
  348MOL0     H46921   8.829   1.943   6.294 -1.3439 -2.2803  1.8086
  348MOL0     H46922   8.747   1.976   6.136 -0.0612 -1.5189 -0.7251
  348MOL0     H46923   8.827   1.704   6.255  0.8311 -1.3826 -1.1646
  348MOL0     H46924   8.660   1.775   6.241 -0.5586  2.8093 -0.4437
  348MOL0     H46925   8.845   1.711   5.994 -0.6799 -0.8012 -0.5554
  348MOL0     H46926   8.720   1.612   6.066  0.0164 -0.0869 -1.9348
  348MOL0     H46927   8.683   1.895   5.950 -0.3443 -0.1105  0.5207
  348MOL0     H46928   8.671   1.751   5.857  0.4877 -0.5561  0.9525
  348MOL0     H46929   8.497   1.838   6.089 -1.1780 -0.6013  0.5725
  348MOL0     H46930   8.477   1.673   6.022  3.6021 -1.9424 -1.5262
  348MOL0     H46931   8.391   1.671   5.760 -0.4977 -0.3812  0.7506
  348MOL0     H46932   8.214   1.746   5.542 -0.2661  0.1004  0.7419
  348MOL0     H46933   8.115   1.706   5.669  1.4807 -1.3078 -1.1287
  348MOL0     H46934   8.122   1.998   5.575  3.4376 -2.3457  0.5872
  348MOL0     H46935   7.998   1.946   5.670  1.9654  0.5790  1.7692
  348MOL0     H46936   7.922   1.782   5.488  2.4047 -2.2908  1.1598
  348MOL0     H46937   8.061   1.821   5.400  0.7458  0.2698 -0.3909
  348MOL0     H46938   7.958   2.067   5.398 -0.7294  0.6954 -0.1658
  348MOL0     H46939   7.812   1.985   5.466 -0.1312 -1.2802  0.1585
  348MOL0     H46940   7.728   1.784   5.129 -0.5164  0.5244 -0.5351
  348MOL0     H46941   7.420   1.660   5.098  1.4947 -1.4827 -0.9143
  348MOL0     H46942   7.420   1.789   4.977 -2.6212  1.0988  1.8612
  348MOL0     H46943   7.570   1.692   5.007 -0.3304 -0.7150  0.1596
  348MOL0     H46944   7.085   2.222   5.338 -1.8279  1.3824  1.3049
  348MOL0     H46945   6.833   2.228   5.401 -1.4282 -0.3512 -2.7991
  348MOL0     H46946   6.614   1.850   5.283 -2.5841  3.6091 -3.2270
  348MOL0     H46947   6.633   1.813   5.455 -1.7004  2.4961  1.4716
  348MOL0     H46948   6.453   1.937   5.512 -0.2766  2.2174  0.3271
  348MOL0     H46949   6.435   2.017   5.361 -2.4510 -0.0198  2.4043
  348MOL0     H46950   6.358   1.728   5.393  1.5458  0.5211  0.7360
  348MOL0     H46951   6.357   1.817   5.238  0.4712 -0.8380  0.1121
  348MOL0     H46952   6.196   1.872   5.480  1.0375  3.7256  0.2740
  348MOL0     H46953   6.238   1.996   5.353 -2.1325  0.8544  3.0308
  348MOL0     H46954   6.087   1.727   5.320 -1.7268 -0.8354 -1.5707
  348MOL0     H46955   6.137   1.832   5.190 -1.3804  0.7693 -0.6267
  348MOL0     H46956   6.007   2.003   5.271 -1.6320 -0.2727 -3.4173
  348MOL0     H46957   5.912   1.855   5.224  1.4179 -1.0241  0.6555
  348MOL0     H46958   5.953   1.973   5.509 -1.6467  3.3011 -1.1588
  348MOL0     H46959   5.913   1.806   5.478 -1.9760  0.3667  0.2697
  348MOL0     H46960   5.708   1.889   5.520 -2.2156 -2.6085 -1.9047
  348MOL0     H46961   5.714   1.873   5.339  0.2056  1.9717 -1.1105
  348MOL0     H46962   6.829   1.799   5.352 -0.7086 -0.1333 -1.9723
  348MOL0     H46963   7.063   1.795   5.303  1.4884  0.4106 -0.0558
  348MOL0     H46964   7.444   2.138   5.306 -0.2009 -0.7072  3.3712
  348MOL0     H46965   7.692   2.137   5.356  0.0643 -0.6821  2.6583
  348MOL0     H46966   9.175   2.306   5.887 -2.4149 -2.5656  1.7963
  348MOL0     H46967   9.237   2.398   5.669  2.2551  0.1418 -2.2037
  348MOL0     H46968   9.181   2.391   5.244  1.2413 -1.9218  1.5731
  348MOL0     H46969   9.183   2.455   4.987  2.7151  0.4248 -3.2728
  348MOL0     H46970   9.488   2.318   4.708 -0.2761  0.8291  0.4032
  348MOL0     H46971   9.409   2.159   4.741 -2.0310  0.2561  1.0123
  348MOL0     H46972   9.406   2.251   4.493  2.6975 -0.5237  1.9302
  348MOL0     H46973   9.302   2.378   4.553  0.0837  0.3623 -1.6968
  348MOL0     H46974   9.141   2.206   4.656 -0.5499 -3.1981  0.2733
  348MOL0     H46975   9.202   2.094   4.550 -0.3559 -0.2257 -0.8612
  348MOL0     H46976   9.141   2.216   4.355 -2.9898 -1.7146 -1.2133
  348MOL0     H46977   9.090   2.363   4.441 -0.0004 -0.4185  0.5309
  348MOL0     H46978   8.759   2.104   4.498 -0.6401  0.4155  4.4523
  348MOL0     H46979   9.497   2.180   4.924 -0.3783  0.3103 -0.8628
  348MOL0     H46980   9.527   2.150   5.168 -0.1100 -2.0166 -2.1853
  349MOL0     O46981   5.862   5.812   6.059 -0.2424 -0.0899 -0.1615
  349MOL0     C46982   5.795   5.814   6.156  0.3151 -0.5152 -0.1732
  349MOL0     O46983   5.837   5.778   6.279 -0.6521  0.9963 -0.9001
  349MOL0     C46984   5.964   5.733   6.295 -0.3032  0.2561  0.8968
  349MOL0     C46985   6.005   5.612   6.234  0.3673  0.3352  0.3695
  349MOL0     C46986   6.132   5.552   6.258 -1.4304 -0.1803 -0.1283
  349MOL0     C46987   6.228   5.622   6.333  0.4937 -0.0432  0.0999
  349MOL0     O46988   6.361   5.588   6.362  0.3224 -0.0084  0.3775
  349MOL0     C46989   6.381   5.446   6.388  0.3179 -0.8507  0.1820
  349MOL0     C46990   6.517   5.438   6.473 -0.5075 -0.1280  0.3223
  349MOL0     C46991   6.535   5.291   6.509  0.4784  0.1124 -0.4068
  349MOL0     C46992   6.671   5.269   6.569 -0.3387  0.1350  0.4236
  349MOL0     C46993   6.701   5.125   6.634 -0.5160  0.0880  0.2080
  349MOL0     C46994   6.626   5.109   6.768 -0.2634  0.5041  0.7895
  349MOL0     C46995   6.616   4.968   6.821 -0.4872 -0.9406 -0.0091
  349MOL0     C46996   6.766   4.920   6.856 -0.0802 -0.0905  0.6407
  349MOL0     N46997   6.835   4.982   6.973  0.4716 -0.1530  0.8422
  349MOL0     C46998   6.889   4.915   7.078 -0.1351 -0.2520  0.0583
  349MOL0     C46999   6.964   5.016   7.134  0.2237  0.4203 -0.8230
  349MOL0     C47000   7.036   4.983   7.266  0.3139 -0.1292 -0.3301
  349MOL0     C47001   7.172   5.031   7.280 -0.1620 -0.2316 -0.3210
  349MOL0     C47002   7.264   4.979   7.175  0.3097 -0.5980  0.5359
  349MOL0     C47003   7.412   4.999   7.194 -0.3632 -0.2179  0.0248
  349MOL0     O47004   7.465   4.927   7.087 -0.1736  1.2316  0.5335
  349MOL0     C47005   7.592   4.881   7.114  1.1162  0.2308  0.3888
  349MOL0     C47006   7.632   4.774   7.031  0.3421  0.0296 -0.5653
  349MOL0     C47007   7.749   4.703   7.066 -0.4878  1.2197 -0.2577
  349MOL0     C47008   7.771   4.576   6.981 -0.4151  0.1526  0.0716
  349MOL0     C47009   7.827   4.739   7.177  0.7032  0.3366 -0.3182
  349MOL0     C47010   7.928   4.657   7.231 -0.6134 -0.9863  0.2036
  349MOL0     O47011   8.043   4.712   7.281 -0.5829 -0.3852  0.2721
  349MOL0     C47012   8.102   4.647   7.389 -0.1710  0.1756 -0.4874
  349MOL0     C47013   8.198   4.548   7.372  0.1308 -0.0179 -0.3171
  349MOL0     C47014   8.281   4.493   7.482  0.3194  0.0800  0.6088
  349MOL0     C47015   8.246   4.535   7.611 -0.1333 -0.5677  0.1121
  349MOL0     O47016   8.322   4.484   7.706  0.2538 -1.0106  1.0807
  349MOL0     C47017   8.269   4.479   7.842 -0.2256 -0.4241  0.0706
  349MOL0     C47018   8.320   4.609   7.917 -0.4251  0.3648 -0.2622
  349MOL0     C47019   8.429   4.579   8.018 -0.5930  0.5618  0.4559
  349MOL0     C47020   8.374   4.555   8.158  0.4882 -0.3799  0.1528
  349MOL0     C47021   8.494   4.556   8.254  0.0935  0.6192  0.1623
  349MOL0     C47022   8.538   4.696   8.306 -0.2263  0.0427  0.3021
  349MOL0     C47023   8.647   4.661   8.408  0.4872  0.3589  0.2557
  349MOL0     C47024   8.651   4.773   8.504 -0.2557 -0.1170  0.3780
  349MOL0    Cl47025   8.792   4.746   8.627 -0.1217 -0.0876  0.2352
  349MOL0     C47026   8.148   4.639   7.624  0.5442 -0.5117 -0.1601
  349MOL0     C47027   8.071   4.692   7.519  0.6096  1.2902  0.0550
  349MOL0     O47028   7.886   4.541   7.245  0.0234  0.6869  0.1181
  349MOL0     C47029   7.793   4.863   7.239 -0.7531  0.3204  0.3506
  349MOL0     C47030   7.678   4.933   7.205  0.9016  0.5649 -0.1131
  349MOL0     N47031   6.973   5.122   7.061  0.6737 -0.0911  0.0166
  349MOL0     N47032   6.891   5.105   6.966  0.8739 -0.2459  0.0608
  349MOL0     C47033   6.194   5.752   6.377 -0.3737  0.3605 -1.1020
  349MOL0     C47034   6.058   5.802   6.366  0.2652 -0.3950  0.0578
  349MOL0     C47035   5.653   5.876   6.142 -0.7370 -0.7403 -0.2181
  349MOL0     C47036   5.605   5.898   6.014 -0.3884  0.7416  0.6934
  349MOL0     C47037   5.473   5.942   5.988  0.1148 -0.4961  0.3066
  349MOL0     C47038   5.392   5.967   6.102 -0.7309  0.0697  0.3170
  349MOL0     O47039   5.262   6.009   6.092  0.1423 -0.5091 -0.5115
  349MOL0     C47040   5.198   6.053   5.966  1.2956  0.5574 -0.1782
  349MOL0     C47041   5.192   6.205   5.951 -0.6371 -0.1778 -0.0169
  349MOL0     C47042   5.128   6.241   5.819  0.5564 -0.6848  0.1802
  349MOL0     C47043   5.073   6.384   5.823  0.0417 -0.4196  0.0790
  349MOL0     C47044   4.978   6.398   5.706 -0.7012 -0.2641 -1.1481
  349MOL0     C47045   4.907   6.390   5.611  0.7076 -0.1928  0.0955
  349MOL0     C47046   5.442   5.943   6.229 -0.7159 -0.2808 -0.8259
  349MOL0     C47047   5.577   5.899   6.249 -0.1060 -0.5494  0.4782
  349MOL0     H47048   5.935   5.572   6.161 -0.8765  4.2679 -0.8356
  349MOL0     H47049   6.147   5.456   6.211 -0.6124 -0.7084  1.1744
  349MOL0     H47050   6.295   5.409   6.445  2.4203 -1.3132  3.2723
  349MOL0     H47051   6.387   5.398   6.291  0.5572 -1.3914  0.4615
  349MOL0     H47052   6.601   5.470   6.410 -0.0829 -2.3776 -0.3539
  349MOL0     H47053   6.503   5.498   6.563  0.4518 -1.6215  1.5026
  349MOL0     H47054   6.462   5.266   6.587  0.9559  0.9285  0.3188
  349MOL0     H47055   6.526   5.233   6.417 -1.5919  2.1969 -1.6112
  349MOL0     H47056   6.750   5.292   6.497 -0.7485  1.5478  0.4048
  349MOL0     H47057   6.683   5.340   6.652  1.4080  1.1960 -0.6854
  349MOL0     H47058   6.682   5.035   6.575 -1.3960  0.4592 -0.0800
  349MOL0     H47059   6.808   5.130   6.656 -0.2441  1.1946 -1.2252
  349MOL0     H47060   6.661   5.178   6.846  2.9332  0.1819 -0.2389
  349MOL0     H47061   6.523   5.134   6.740 -0.5667  1.7845  2.8181
  349MOL0     H47062   6.557   4.961   6.913  0.2206 -3.5543  0.3297
  349MOL0     H47063   6.572   4.908   6.741  0.0547  0.8988 -1.7813
  349MOL0     H47064   6.828   4.931   6.766 -0.1092 -1.4008  0.4349
  349MOL0     H47065   6.733   4.819   6.882 -3.0949  0.7817  0.4697
  349MOL0     H47066   6.866   4.817   7.119  0.8968 -0.9101 -0.8873
  349MOL0     H47067   6.969   5.025   7.342 -1.5835 -1.5114 -1.1409
  349MOL0     H47068   7.035   4.877   7.292 -1.9111  0.4423  2.3569
  349MOL0     H47069   7.203   4.996   7.379  0.5209 -0.9400 -0.7716
  349MOL0     H47070   7.176   5.139   7.267 -0.8961 -0.2253 -0.5441
  349MOL0     H47071   7.233   5.016   7.077 -0.1099  0.5037  1.0669
  349MOL0     H47072   7.255   4.870   7.176  2.3293 -0.8152 -0.3203
  349MOL0     H47073   7.441   4.954   7.289 -0.1679 -0.9751 -0.3823
  349MOL0     H47074   7.451   5.100   7.181 -2.0228  0.4533 -0.0247
  349MOL0     H47075   7.563   4.748   6.952  1.9315 -0.3251 -1.9031
  349MOL0     H47076   7.864   4.520   6.995 -1.3533 -0.6436  4.9531
  349MOL0     H47077   7.695   4.501   7.006  1.3502 -1.9645 -0.6481
  349MOL0     H47078   7.772   4.598   6.874  3.0147  0.6799  0.0968
  349MOL0     H47079   8.207   4.506   7.272 -1.9218 -0.2671 -0.4481
  349MOL0     H47080   8.363   4.424   7.464  0.3367 -0.9090  3.8257
  349MOL0     H47081   8.161   4.461   7.842 -0.1464 -1.2057  2.2597
  349MOL0     H47082   8.306   4.393   7.899 -0.5433 -3.4172 -3.8601
  349MOL0     H47083   8.345   4.693   7.852  0.2997  1.1527  0.9817
  349MOL0     H47084   8.234   4.635   7.979 -0.1048  1.1272 -0.1257
  349MOL0     H47085   8.497   4.664   8.012  0.8930 -0.5320  1.2326
  349MOL0     H47086   8.485   4.491   7.987 -0.9591 -0.4616  2.5017
  349MOL0     H47087   8.318   4.645   8.187  3.8248  2.0258 -0.3164
  349MOL0     H47088   8.321   4.459   8.157  1.5328 -0.9745 -0.1858
  349MOL0     H47089   8.577   4.511   8.199 -2.3111 -0.5714 -2.7599
  349MOL0     H47090   8.470   4.490   8.338  2.3109 -0.1551  0.2531
  349MOL0     H47091   8.580   4.762   8.230  3.2273 -0.9041  1.2011
  349MOL0     H47092   8.454   4.751   8.350  1.9058  2.4225  1.7006
  349MOL0     H47093   8.747   4.647   8.366  0.7377 -2.2462  1.5021
  349MOL0     H47094   8.620   4.565   8.454 -0.8560 -0.1186 -1.4043
  349MOL0     H47095   8.555   4.782   8.555  0.6920  2.5722  1.9292
  349MOL0     H47096   8.663   4.869   8.452  0.4053 -0.3741  0.0343
  349MOL0     H47097   8.132   4.696   7.715 -1.8745  2.1220 -2.0747
  349MOL0     H47098   8.003   4.775   7.535  0.9540  2.0882 -2.2420
  349MOL0     H47099   7.852   4.897   7.323 -0.1721 -2.5316  1.2127
  349MOL0     H47100   7.657   5.022   7.264  0.3665 -0.2074  0.9122
  349MOL0     H47101   6.262   5.829   6.413 -2.6975  2.8924 -1.7842
  349MOL0     H47102   6.027   5.897   6.408 -1.8281 -0.5072 -1.1340
  349MOL0     H47103   5.670   5.875   5.931  0.6424  0.6166  1.5150
  349MOL0     H47104   5.443   5.951   5.884  0.3464  0.9807  0.3453
  349MOL0     H47105   5.238   5.999   5.880  0.6089  0.0895 -0.2041
  349MOL0     H47106   5.097   6.013   5.961  1.2496 -0.0086  3.1679
  349MOL0     H47107   5.295   6.242   5.950 -0.0375 -1.7650  0.2459
  349MOL0     H47108   5.134   6.237   6.038 -0.6393 -2.8737  1.0955
  349MOL0     H47109   5.041   6.177   5.800 -1.1169  2.1780 -3.1044
  349MOL0     H47110   5.196   6.207   5.741 -1.4404 -2.7917 -0.7424
  349MOL0     H47111   5.155   6.457   5.825 -0.7543  0.5166  2.2893
  349MOL0     H47112   5.013   6.396   5.914  1.8993 -0.1669  1.3306
  349MOL0     H47113   4.835   6.395   5.532  0.9096  0.5113 -0.0530
  349MOL0     H47114   5.380   5.953   6.317  0.5677 -0.6170  0.1485
  349MOL0     H47115   5.608   5.882   6.351 -0.0239  3.4446  1.2898
  350MOL0     O47116   9.294   3.607   2.492 -0.3541 -0.0834 -0.2672
  350MOL0     C47117   9.374   3.575   2.578 -0.4382 -0.0615  0.2944
  350MOL0     O47118   9.348   3.573   2.718  0.2663  0.8281  0.4757
  350MOL0     C47119   9.221   3.563   2.762 -1.3157 -0.2676 -0.4692
  350MOL0     C47120   9.129   3.478   2.699 -0.5351  1.3541 -0.3674
  350MOL0     C47121   8.995   3.471   2.745 -0.1713 -0.1637  0.4750
  350MOL0     C47122   8.958   3.552   2.850 -0.0123 -0.2074  0.5288
  350MOL0     O47123   8.825   3.551   2.904 -0.0748  0.2325  0.9514
  350MOL0     C47124   8.724   3.492   2.813 -0.0753 -0.4714  0.1320
  350MOL0     C47125   8.583   3.498   2.881 -0.7641  0.2548  0.2342
  350MOL0     C47126   8.555   3.647   2.909  1.0998 -0.3491 -0.3857
  350MOL0     C47127   8.403   3.663   2.927  0.1664 -0.3431  0.2829
  350MOL0     C47128   8.347   3.615   3.071  0.4362 -0.6433  0.6545
  350MOL0     C47129   8.197   3.585   3.055 -0.1516 -0.1747  0.4600
  350MOL0     C47130   8.110   3.701   3.006  0.3633  0.4334  0.9533
  350MOL0     C47131   7.966   3.654   3.016  0.2980  0.5926 -0.4402
  350MOL0     N47132   7.873   3.756   2.957  0.3422  0.6847  0.2133
  350MOL0     C47133   7.733   3.737   2.930  0.3700  0.2184  0.5783
  350MOL0     C47134   7.685   3.862   2.900 -0.9623 -0.1958 -0.5625
  350MOL0     C47135   7.552   3.901   2.856 -0.1373 -0.5615 -1.0139
  350MOL0     C47136   7.547   4.021   2.771  0.4735 -0.3952 -0.1247
  350MOL0     C47137   7.420   4.026   2.688 -0.3034 -0.9037  0.4988
  350MOL0     C47138   7.376   4.160   2.639 -0.2018 -0.1547 -0.6237
  350MOL0     O47139   7.258   4.144   2.568  0.2346  0.2747  0.1122
  350MOL0     C47140   7.197   4.246   2.508  0.5940 -1.0958 -0.9023
  350MOL0     C47141   7.246   4.377   2.492 -0.2115 -0.7867  0.4034
  350MOL0     C47142   7.169   4.484   2.435  0.9795  0.8705 -0.4628
  350MOL0     C47143   7.211   4.636   2.439 -0.3788 -0.2203 -0.6224
  350MOL0     C47144   7.036   4.448   2.390 -0.0555  0.0613 -0.6241
  350MOL0     C47145   6.951   4.551   2.327  0.0651 -0.4561 -0.2173
  350MOL0     O47146   6.933   4.539   2.191  0.3992 -0.0601 -0.0400
  350MOL0     C47147   6.856   4.620   2.112 -0.4430  0.1628 -0.5972
  350MOL0     C47148   6.916   4.714   2.030 -0.4850  0.0941 -0.6433
  350MOL0     C47149   6.837   4.802   1.952  0.4062 -0.0465 -0.2742
  350MOL0     C47150   6.695   4.784   1.944  0.7775 -0.4314 -0.2305
  350MOL0     O47151   6.614   4.857   1.857 -0.1042 -0.4971  0.0787
  350MOL0     C47152   6.664   4.957   1.772  0.3208  1.3180 -0.0360
  350MOL0     C47153   6.559   4.992   1.661 -0.4648  0.0549  1.0161
  350MOL0     C47154   6.450   5.079   1.716  0.7607 -0.2395 -0.2243
  350MOL0     C47155   6.355   5.135   1.610  0.6017 -0.0946 -0.3342
  350MOL0     C47156   6.225   5.194   1.670 -0.9747  0.5653  0.3662
  350MOL0     C47157   6.129   5.228   1.556  0.2178  0.8580 -0.3496
  350MOL0     C47158   5.994   5.289   1.591 -0.8365 -0.2201  0.7693
  350MOL0     C47159   5.874   5.191   1.562 -0.4705 -0.3012  0.8294
  350MOL0    Cl47160   5.843   5.191   1.381 -0.3302  0.0205  0.0390
  350MOL0     C47161   6.642   4.685   2.033 -0.2886 -0.1323  0.4375
  350MOL0     C47162   6.718   4.610   2.115 -0.3032  0.4695  0.0351
  350MOL0     O47163   6.906   4.635   2.397 -0.2265  0.1918  0.0885
  350MOL0     C47164   6.999   4.315   2.390 -0.1520  0.7237 -0.0352
  350MOL0     C47165   7.078   4.217   2.450  0.7587 -0.3946 -0.0324
  350MOL0     N47166   7.787   3.950   2.911 -0.6065 -0.1854  0.2601
  350MOL0     N47167   7.896   3.883   2.945  0.1566 -0.1182 -0.3097
  350MOL0     C47168   9.054   3.628   2.919 -0.8212 -0.4999 -0.7567
  350MOL0     C47169   9.189   3.631   2.877  0.2328  0.4020  0.4346
  350MOL0     C47170   9.501   3.511   2.536  0.4376 -0.4418 -0.7206
  350MOL0     C47171   9.534   3.509   2.400 -1.3122  0.6896 -0.4614
  350MOL0     C47172   9.652   3.445   2.349 -0.0212 -0.5719 -0.0986
  350MOL0     C47173   9.732   3.376   2.440  0.1251  0.3647 -0.8418
  350MOL0     O47174   9.833   3.307   2.382 -0.6640  0.2168  0.0091
  350MOL0     C47175   9.948   3.282   2.456  0.9707 -0.8210 -0.3817
  350MOL0     C47176  10.048   3.394   2.448 -0.7861  0.0328 -0.1618
  350MOL0     C47177  10.188   3.336   2.487  0.3640 -0.2120  0.0048
  350MOL0     C47178  10.277   3.462   2.487 -0.2763 -0.5047 -0.5942
  350MOL0     C47179  10.415   3.438   2.529  0.1303 -0.2717 -0.3643
  350MOL0     C47180  10.526   3.422   2.568 -0.6613  0.0941  0.6436
  350MOL0     C47181   9.709   3.399   2.586  0.2818  0.5961  1.1776
  350MOL0     C47182   9.586   3.457   2.628 -0.0850  0.1369 -0.2717
  350MOL0     H47183   9.163   3.419   2.615  1.8932  0.7355  0.9715
  350MOL0     H47184   8.932   3.400   2.691 -1.6001 -1.3138  3.4703
  350MOL0     H47185   8.716   3.544   2.717  0.3682  1.4111  1.0621
  350MOL0     H47186   8.750   3.388   2.792  1.0187  0.0067 -0.9968
  350MOL0     H47187   8.518   3.441   2.814  0.2926 -1.4680  0.6107
  350MOL0     H47188   8.580   3.446   2.977 -0.6870 -1.1003 -0.4854
  350MOL0     H47189   8.613   3.695   2.988 -0.5784 -0.2480  0.8181
  350MOL0     H47190   8.584   3.703   2.820  2.6566 -0.0860  0.2556
  350MOL0     H47191   8.390   3.771   2.919  0.0291 -0.4078 -0.3922
  350MOL0     H47192   8.346   3.616   2.846 -0.9352  3.2044 -1.1894
  350MOL0     H47193   8.403   3.530   3.110 -2.1777 -2.8614 -0.1337
  350MOL0     H47194   8.354   3.694   3.147  0.0248 -1.9438  2.0961
  350MOL0     H47195   8.181   3.504   2.982 -2.4629  2.4086 -2.1540
  350MOL0     H47196   8.163   3.543   3.150  0.7914  1.0690  1.3623
  350MOL0     H47197   8.124   3.803   3.043  3.0759  0.8061 -0.7640
  350MOL0     H47198   8.119   3.713   2.897 -0.7707  2.2465  1.0241
  350MOL0     H47199   7.932   3.629   3.117 -2.1561  0.5432 -1.2269
  350MOL0     H47200   7.962   3.560   2.961 -0.7220  0.5340 -0.2670
  350MOL0     H47201   7.684   3.642   2.915  0.7452  0.0157  0.6106
  350MOL0     H47202   7.503   3.825   2.794 -0.1712  1.3345 -3.4508
  350MOL0     H47203   7.485   3.907   2.943  0.9031  2.5518 -0.2777
  350MOL0     H47204   7.632   4.007   2.704  1.2762  0.2089  0.7275
  350MOL0     H47205   7.550   4.110   2.835  0.8725 -0.2095 -0.4045
  350MOL0     H47206   7.335   3.982   2.742 -2.9359  4.4542  1.3468
  350MOL0     H47207   7.453   3.969   2.601 -3.3638 -3.1675  0.6600
  350MOL0     H47208   7.458   4.201   2.579  1.3054 -0.3387  1.1973
  350MOL0     H47209   7.366   4.235   2.718 -2.5937 -0.5903 -0.4306
  350MOL0     H47210   7.348   4.391   2.526  0.1333 -0.9477 -0.5159
  350MOL0     H47211   7.280   4.665   2.359  0.4557  2.2890  0.9164
  350MOL0     H47212   7.135   4.713   2.449 -1.2618 -1.0102 -1.0099
  350MOL0     H47213   7.270   4.639   2.531 -3.2107 -1.6253  1.3775
  350MOL0     H47214   7.023   4.730   2.025 -0.3754  1.1372  2.5194
  350MOL0     H47215   6.896   4.867   1.889  0.3317  0.4256  0.1415
  350MOL0     H47216   6.685   5.041   1.838 -1.6466  0.6687  1.5446
  350MOL0     H47217   6.756   4.923   1.725  1.0700 -0.2622  2.3700
  350MOL0     H47218   6.606   5.043   1.577 -3.3112  0.5642 -0.3807
  350MOL0     H47219   6.510   4.898   1.635 -1.2942  0.5359  0.8380
  350MOL0     H47220   6.497   5.165   1.764  0.0580  1.7628 -2.8723
  350MOL0     H47221   6.399   5.015   1.787  1.3510 -0.9496 -0.4243
  350MOL0     H47222   6.401   5.203   1.539 -0.6676 -1.7483 -2.8730
  350MOL0     H47223   6.318   5.049   1.553 -1.1464  1.2337 -1.2750
  350MOL0     H47224   6.272   5.282   1.716  1.6376  0.8751 -2.5512
  350MOL0     H47225   6.177   5.117   1.731 -0.2410 -0.4339 -0.3026
  350MOL0     H47226   6.174   5.298   1.486  0.1215  4.6762  3.0580
  350MOL0     H47227   6.124   5.132   1.504  4.5411  1.1629 -1.6613
  350MOL0     H47228   5.982   5.382   1.535  0.9460 -0.6627 -0.4383
  350MOL0     H47229   5.994   5.320   1.696 -1.7166 -1.1314  1.0580
  350MOL0     H47230   5.789   5.225   1.622 -2.4273 -0.9455 -1.4088
  350MOL0     H47231   5.887   5.084   1.577 -1.7781 -0.6353 -0.1786
  350MOL0     H47232   6.535   4.677   2.044 -0.3043 -1.6396 -0.4992
  350MOL0     H47233   6.667   4.534   2.174 -1.7536 -0.0832 -1.8361
  350MOL0     H47234   6.899   4.289   2.356 -0.3965  0.7205  0.6700
  350MOL0     H47235   7.046   4.113   2.439 -1.2841  0.4283 -3.9011
  350MOL0     H47236   9.032   3.671   3.016  0.2822 -0.8038 -0.3529
  350MOL0     H47237   9.277   3.674   2.923  2.2728 -1.4922 -1.4482
  350MOL0     H47238   9.458   3.550   2.335 -1.5293 -0.1006 -0.7203
  350MOL0     H47239   9.668   3.456   2.243 -1.3113 -1.8381 -0.4520
  350MOL0     H47240   9.927   3.264   2.562  0.7248 -2.4373 -0.6751
  350MOL0     H47241   9.982   3.185   2.419 -2.0525 -2.5743  1.0330
  350MOL0     H47242  10.009   3.478   2.507  1.3069  1.1151 -0.2268
  350MOL0     H47243  10.055   3.434   2.347  0.6610 -2.3907 -1.0966
  350MOL0     H47244  10.211   3.254   2.419 -3.6164 -1.5947  0.0791
  350MOL0     H47245  10.179   3.297   2.589  1.0984  1.4638  0.7506
  350MOL0     H47246  10.230   3.546   2.538  2.1224  2.6961 -3.2395
  350MOL0     H47247  10.274   3.510   2.389  0.2093  1.2280  0.2111
  350MOL0     H47248  10.627   3.404   2.600 -0.7025  0.6070  1.0803
  350MOL0     H47249   9.772   3.348   2.659  2.2738 -0.1353 -0.9599
  350MOL0     H47250   9.577   3.449   2.736 -0.3380  0.5718 -0.2568
  351MOL0     O47251  11.194   9.168   8.640  0.5030  0.1574  0.5151
  351MOL0     C47252  11.210   9.098   8.737  0.1936  0.9828 -1.0864
  351MOL0     O47253  11.334   9.080   8.797 -0.3165 -0.4479 -0.5707
  351MOL0     C47254  11.456   9.124   8.757  0.6085  0.4076  0.5580
  351MOL0     C47255  11.566   9.038   8.768  0.4620  0.1614 -0.4183
  351MOL0     C47256  11.695   9.084   8.739 -0.1188  0.6789  0.5165
  351MOL0     C47257  11.713   9.202   8.669 -0.4980  0.2187  0.0590
  351MOL0     O47258  11.836   9.224   8.621 -0.4143 -0.2967 -0.6480
  351MOL0     C47259  11.887   9.366   8.638  1.0417  0.9392  0.3737
  351MOL0     C47260  12.032   9.348   8.651 -0.7597  0.2719  0.1111
  351MOL0     C47261  12.105   9.476   8.606 -0.1879 -0.4244  0.6443
  351MOL0     C47262  12.250   9.448   8.608 -0.2781  0.2913 -0.2893
  351MOL0     C47263  12.334   9.579   8.574 -0.0743  0.4420  0.1674
  351MOL0     C47264  12.485   9.553   8.582 -0.0020 -0.0737  0.4431
  351MOL0     C47265  12.540   9.648   8.481 -0.5060  0.1768  1.0695
  351MOL0     C47266  12.580   9.788   8.525 -0.0734 -0.3420 -0.1092
  351MOL0     N47267  12.480   9.860   8.607  0.3265  0.5321  0.3019
  351MOL0     C47268  12.381   9.926   8.546 -0.3689 -0.2709 -0.6238
  351MOL0     C47269  12.308   9.962   8.652 -0.6909 -0.6087 -0.3419
  351MOL0     C47270  12.179  10.037   8.637 -0.6921  0.4195  0.3404
  351MOL0     C47271  12.069   9.985   8.730  1.0139 -0.8964 -0.0960
  351MOL0     C47272  11.941  10.071   8.707 -1.0072  1.0177 -0.2141
  351MOL0     C47273  11.923  10.189   8.812 -0.0404  0.9702 -0.2742
  351MOL0     O47274  11.803  10.266   8.778  0.2453 -0.5070  0.1667
  351MOL0     C47275  11.684  10.207   8.815 -0.2452  0.3556  0.2348
  351MOL0     C47276  11.593  10.165   8.711 -0.8803 -0.4016 -0.1937
  351MOL0     C47277  11.472  10.102   8.734  0.4395  0.1642 -0.4642
  351MOL0     C47278  11.394  10.064   8.610 -0.2807  0.4036 -0.6261
  351MOL0     C47279  11.430  10.081   8.869 -0.3680 -0.3642  0.2385
  351MOL0     C47280  11.300  10.024   8.902  0.2599 -0.4047 -0.1389
  351MOL0     O47281  11.274  10.004   9.028  0.0723 -0.5372 -0.0758
  351MOL0     C47282  11.148   9.966   9.068 -0.5004 -0.0665 -0.0493
  351MOL0     C47283  11.092   9.838   9.052  0.5292  0.1929 -0.1300
  351MOL0     C47284  10.955   9.816   9.091  0.6383 -0.4529  0.1796
  351MOL0     C47285  10.882   9.918   9.152  0.1841  0.7185  0.1710
  351MOL0     O47286  10.761   9.909   9.220 -0.4542 -0.3146 -0.1784
  351MOL0     C47287  10.685   9.792   9.181 -0.4520  1.3322  0.5100
  351MOL0     C47288  10.537   9.831   9.199  0.2645 -0.3496  0.0203
  351MOL0     C47289  10.439   9.721   9.241  0.5557 -0.5230  0.6512
  351MOL0     C47290  10.290   9.739   9.199 -0.8505 -0.1143 -0.2768
  351MOL0     C47291  10.238   9.648   9.075 -0.3628 -0.0418  0.7934
  351MOL0     C47292  10.311   9.688   8.944 -0.1879  0.0761  0.4427
  351MOL0     C47293  10.269   9.589   8.822 -0.0821 -0.4686  0.8588
  351MOL0     C47294  10.328   9.638   8.690 -0.3406  0.1529  0.2284
  351MOL0    Cl47295  10.510   9.655   8.703  0.4456 -0.2281  0.0980
  351MOL0     C47296  10.941  10.045   9.178 -0.0189 -0.3403 -0.5091
  351MOL0     C47297  11.070  10.070   9.126  0.4261  0.8717  0.6744
  351MOL0     O47298  11.229   9.980   8.814 -0.4205  0.1259  0.4534
  351MOL0     C47299  11.521  10.114   8.971 -0.1502  0.5563  0.4010
  351MOL0     C47300  11.642  10.178   8.940 -0.5080  0.5419 -0.3479
  351MOL0     N47301  12.369   9.915   8.770 -0.4876  0.2681 -0.0559
  351MOL0     N47302  12.472   9.851   8.735 -0.1734  0.2728 -0.2007
  351MOL0     C47303  11.600   9.284   8.652  0.1155 -0.2907 -0.3959
  351MOL0     C47304  11.474   9.248   8.705 -0.3786 -0.5306 -0.8998
  351MOL0     C47305  11.102   9.026   8.802  0.4025  0.1164  0.1066
  351MOL0     C47306  11.128   8.946   8.914 -0.1933 -0.1638  0.1943
  351MOL0     C47307  11.025   8.870   8.963  0.7434  1.2241 -0.1768
  351MOL0     C47308  10.896   8.878   8.907  1.2566 -0.0154 -0.0241
  351MOL0     O47309  10.787   8.808   8.945 -0.4419 -0.3197 -1.2126
  351MOL0     C47310  10.785   8.742   9.074 -0.6195 -0.3725  0.6939
  351MOL0     C47311  10.682   8.633   9.066  0.1374  0.9573  0.1009
  351MOL0     C47312  10.541   8.689   9.053 -0.1723 -0.2938  0.2692
  351MOL0     C47313  10.425   8.582   9.055 -0.7489 -0.6342  0.2319
  351MOL0     C47314  10.434   8.492   9.173  0.2960 -0.4540 -0.2480
  351MOL0     C47315  10.447   8.399   9.249 -0.7467 -0.4203 -0.3022
  351MOL0     C47316  10.873   8.953   8.801 -0.6349  0.0954  0.7757
  351MOL0     C47317  10.975   9.034   8.754  0.2987 -0.3826  0.8822
  351MOL0     H47318  11.564   8.944   8.823  1.7189  0.8736  0.9201
  351MOL0     H47319  11.778   9.019   8.761 -0.0040  0.3870 -0.7227
  351MOL0     H47320  11.854   9.432   8.558 -0.3628  0.6408  0.6774
  351MOL0     H47321  11.859   9.412   8.733  0.0002  2.8187 -0.7847
  351MOL0     H47322  12.061   9.320   8.753 -0.2606 -0.3439 -0.1931
  351MOL0     H47323  12.068   9.270   8.583 -0.9680 -0.0595  0.3752
  351MOL0     H47324  12.068   9.495   8.504 -0.4717 -2.1808  0.3843
  351MOL0     H47325  12.082   9.565   8.665 -0.4607  1.0637 -1.5697
  351MOL0     H47326  12.275   9.425   8.712 -0.7084 -0.9059 -0.4335
  351MOL0     H47327  12.270   9.362   8.545 -0.5719 -1.2892  1.6638
  351MOL0     H47328  12.300   9.610   8.475  1.3554  1.6396  0.0169
  351MOL0     H47329  12.302   9.651   8.649 -1.7898 -3.2321  3.3435
  351MOL0     H47330  12.517   9.568   8.686  0.6872  0.7834  0.1123
  351MOL0     H47331  12.517   9.452   8.553 -1.4840  0.2097 -2.4611
  351MOL0     H47332  12.630   9.599   8.442 -0.7795  0.7162 -0.2794
  351MOL0     H47333  12.470   9.660   8.398  0.9686 -1.4846 -0.5144
  351MOL0     H47334  12.597   9.852   8.438 -3.1075  0.2891 -0.3245
  351MOL0     H47335  12.670   9.792   8.588  1.2535  2.5852 -1.9373
  351MOL0     H47336  12.352   9.952   8.445  0.0073 -0.4222 -0.7714
  351MOL0     H47337  12.200  10.144   8.650  0.6152  0.6213 -2.6166
  351MOL0     H47338  12.143  10.026   8.534  0.7335  0.9520 -0.2340
  351MOL0     H47339  12.093   9.997   8.836  0.9034 -1.5499  0.0038
  351MOL0     H47340  12.059   9.879   8.705 -1.2972 -0.3646 -1.7251
  351MOL0     H47341  11.855  10.006   8.724 -1.3849  1.4684 -0.3808
  351MOL0     H47342  11.948  10.128   8.614 -0.5552  2.8859  0.8918
  351MOL0     H47343  12.007  10.258   8.814 -0.2653  1.2367 -0.0139
  351MOL0     H47344  11.935  10.154   8.915  3.5588  1.1568 -0.5053
  351MOL0     H47345  11.633  10.181   8.611  0.8202  1.6834  0.7279
  351MOL0     H47346  11.448  10.095   8.520 -0.4418  0.7658 -0.6001
  351MOL0     H47347  11.376   9.956   8.618 -1.4321  0.6945  1.7317
  351MOL0     H47348  11.294  10.109   8.604 -0.3615  0.0442 -2.4109
  351MOL0     H47349  11.142   9.768   8.987 -0.3486  2.0034 -2.9630
  351MOL0     H47350  10.907   9.723   9.062 -1.0470 -0.4084  2.5559
  351MOL0     H47351  10.704   9.745   9.084 -3.1760  0.6897  0.1989
  351MOL0     H47352  10.700   9.722   9.264 -2.8808  0.5517  0.3606
  351MOL0     H47353  10.520   9.913   9.269  1.5734 -0.0819  0.0578
  351MOL0     H47354  10.520   9.868   9.098  0.2092 -0.4003  0.0103
  351MOL0     H47355  10.448   9.716   9.350  0.4642 -0.3414  0.6674
  351MOL0     H47356  10.472   9.637   9.180  2.2009  0.5157  0.0348
  351MOL0     H47357  10.224   9.709   9.281  0.5734 -0.3751  0.8099
  351MOL0     H47358  10.269   9.844   9.177 -0.4552 -0.1917 -1.0546
  351MOL0     H47359  10.133   9.657   9.047 -0.2492 -2.8253 -0.9399
  351MOL0     H47360  10.246   9.539   9.085 -0.7262 -0.4657 -2.4165
  351MOL0     H47361  10.271   9.788   8.922 -1.8547 -0.6766 -0.0723
  351MOL0     H47362  10.417   9.678   8.968 -0.3069  1.1452  1.5338
  351MOL0     H47363  10.161   9.575   8.816 -0.0104 -1.0159  0.8127
  351MOL0     H47364  10.313   9.490   8.841  0.7214 -0.2372  0.2863
  351MOL0     H47365  10.302   9.738   8.652 -0.2126  0.1086  0.0248
  351MOL0     H47366  10.302   9.568   8.610  2.0978 -0.4350 -0.1311
  351MOL0     H47367  10.874  10.116   9.227 -1.1955 -0.0936 -2.3735
  351MOL0     H47368  11.119  10.166   9.137  4.5264 -0.3361 -3.6711
  351MOL0     H47369  11.496  10.097   9.075  0.7788  0.2622  0.5844
  351MOL0     H47370  11.719  10.190   9.016 -1.3828  1.1666  0.4787
  351MOL0     H47371  11.618   9.386   8.619 -2.3699  0.9088  1.6164
  351MOL0     H47372  11.393   9.321   8.703  2.7548  3.2464 -2.0041
  351MOL0     H47373  11.225   8.941   8.962 -1.5584  0.0529  3.2002
  351MOL0     H47374  11.038   8.795   9.039  0.0501 -0.3972 -1.5909
  351MOL0     H47375  10.879   8.696   9.103 -0.2795  0.4139  0.8653
  351MOL0     H47376  10.753   8.810   9.154 -0.3058 -1.7197  2.0032
  351MOL0     H47377  10.687   8.569   9.154  0.6262  3.5220  2.0549
  351MOL0     H47378  10.710   8.572   8.979 -0.3625  0.0674  0.5513
  351MOL0     H47379  10.531   8.734   8.954  2.3714  3.1559  1.3661
  351MOL0     H47380  10.519   8.774   9.119 -2.4390 -2.0065  1.8612
  351MOL0     H47381  10.430   8.536   8.957  1.9786 -0.3296  0.1442
  351MOL0     H47382  10.335   8.644   9.063 -0.1709  0.5215 -1.7073
  351MOL0     H47383  10.456   8.315   9.315 -2.4604  0.6086  1.3368
  351MOL0     H47384  10.771   8.956   8.763 -0.5899 -0.1270  0.6323
  351MOL0     H47385  10.951   9.097   8.669 -2.0247 -0.9453  1.0613
  352MOL0     O47386   4.189   6.955   8.446  0.4248  1.2566 -0.6640
  352MOL0     C47387   4.233   6.944   8.337  1.6969  0.9706  0.4029
  352MOL0     O47388   4.167   6.865   8.238  0.4104 -0.6704  0.1722
  352MOL0     C47389   4.045   6.816   8.246 -0.2901  0.0140 -0.2724
  352MOL0     C47390   4.022   6.686   8.197  0.3129 -0.3792  0.2431
  352MOL0     C47391   3.889   6.639   8.198 -0.3278  0.0169 -0.2365
  352MOL0     C47392   3.777   6.719   8.239 -0.1285  0.3007  0.9435
  352MOL0     O47393   3.653   6.658   8.234 -0.3633 -0.3653 -0.5431
  352MOL0     C47394   3.546   6.738   8.216  0.3760 -0.7665 -0.1636
  352MOL0     C47395   3.412   6.665   8.198 -0.5967 -0.2431  0.3242
  352MOL0     C47396   3.415   6.586   8.064  0.4942  0.0977 -0.3914
  352MOL0     C47397   3.268   6.549   8.019  0.1538 -0.3231 -0.4653
  352MOL0     C47398   3.216   6.429   8.096  0.2603  0.6184 -1.5768
  352MOL0     C47399   3.075   6.386   8.047 -0.2976 -0.7414 -0.9151
  352MOL0     C47400   3.007   6.283   8.136 -0.2778  0.2579 -0.2713
  352MOL0     C47401   2.860   6.234   8.090  0.6247 -0.1741  0.2554
  352MOL0     N47402   2.864   6.180   7.956 -0.1202 -0.3396  0.1914
  352MOL0     C47403   2.889   6.054   7.924  0.2824 -0.3057 -0.1543
  352MOL0     C47404   2.879   6.051   7.786  0.2064 -1.0091  0.6653
  352MOL0     C47405   2.903   5.936   7.693  0.2991 -0.0206  0.2240
  352MOL0     C47406   3.041   5.863   7.716 -0.9172  0.1153 -0.5402
  352MOL0     C47407   3.161   5.947   7.650  0.7661 -0.2787 -0.0129
  352MOL0     C47408   3.292   5.940   7.735  0.6952  0.1463  0.7689
  352MOL0     O47409   3.259   6.012   7.859 -0.3107  0.0755 -0.4906
  352MOL0     C47410   3.362   6.041   7.934  0.3853  1.1431 -0.3114
  352MOL0     C47411   3.407   5.940   8.028  0.2090 -0.5704 -0.4561
  352MOL0     C47412   3.522   5.962   8.101  0.5137  0.6379  0.4702
  352MOL0     C47413   3.562   5.849   8.190 -0.4352  0.2003  0.4475
  352MOL0     C47414   3.600   6.075   8.078 -0.1387 -0.5609  0.2625
  352MOL0     C47415   3.735   6.101   8.135  0.0668  0.1387  0.3598
  352MOL0     O47416   3.770   6.229   8.158  1.3658 -0.1882  0.6599
  352MOL0     C47417   3.900   6.249   8.183 -0.5143  0.1556  0.0289
  352MOL0     C47418   3.999   6.238   8.081 -0.8787 -0.0587 -0.3705
  352MOL0     C47419   4.130   6.280   8.112 -0.1654  0.2803 -0.1245
  352MOL0     C47420   4.172   6.319   8.235 -0.4260  0.2726  0.7915
  352MOL0     O47421   4.309   6.348   8.248  0.2961 -0.5166  0.2611
  352MOL0     C47422   4.354   6.397   8.372  0.0399 -0.1367 -0.1383
  352MOL0     C47423   4.504   6.441   8.365 -0.1202  0.1115  0.0711
  352MOL0     C47424   4.520   6.569   8.282  0.7622 -0.2649  0.3542
  352MOL0     C47425   4.651   6.563   8.204 -0.3569 -0.1897 -0.9696
  352MOL0     C47426   4.662   6.698   8.133  0.4208  0.4406 -0.1142
  352MOL0     C47427   4.765   6.685   8.020 -0.1287  0.5206  0.2340
  352MOL0     C47428   4.693   6.620   7.901  0.5717 -0.0296  0.0296
  352MOL0     C47429   4.785   6.549   7.799 -0.5079 -0.8093 -0.8513
  352MOL0    Cl47430   4.694   6.468   7.672  0.5769  0.3358 -0.4116
  352MOL0     C47431   4.076   6.329   8.343 -0.8508  0.3588 -0.1873
  352MOL0     C47432   3.941   6.295   8.308  0.6250 -0.3925  0.4758
  352MOL0     O47433   3.813   6.008   8.149  0.3046  0.1120 -0.0737
  352MOL0     C47434   3.557   6.172   7.987 -0.6073  0.1409  0.3999
  352MOL0     C47435   3.442   6.160   7.911  0.9100  0.6565 -0.4526
  352MOL0     N47436   2.858   6.184   7.742  0.2173  0.3452 -0.1107
  352MOL0     N47437   2.839   6.262   7.842  0.1399  0.6038  0.3478
  352MOL0     C47438   3.801   6.848   8.273  0.8704  0.0118 -0.1109
  352MOL0     C47439   3.932   6.895   8.275 -0.6065 -0.1110 -0.3323
  352MOL0     C47440   4.367   6.996   8.312  0.0492  0.3843  0.1867
  352MOL0     C47441   4.425   6.995   8.185  0.1053 -0.2641 -0.1108
  352MOL0     C47442   4.559   7.041   8.175  0.6376  0.5633  0.3620
  352MOL0     C47443   4.625   7.110   8.281  1.3348  0.4319 -0.4537
  352MOL0     O47444   4.753   7.163   8.258 -0.6304 -0.0569 -0.5480
  352MOL0     C47445   4.800   7.264   8.355 -0.3143 -0.0430 -0.1382
  352MOL0     C47446   4.943   7.313   8.323  0.9651 -0.6504  0.5498
  352MOL0     C47447   5.045   7.211   8.375  0.3760 -0.1725  0.8040
  352MOL0     C47448   5.185   7.238   8.316  0.0467 -0.8417 -0.2623
  352MOL0     C47449   5.250   7.360   8.369  0.0807  0.6541  0.0473
  352MOL0     C47450   5.325   7.457   8.391  0.3827 -0.5646  0.4522
  352MOL0     C47451   4.567   7.096   8.412  0.0385 -1.0226 -0.6524
  352MOL0     C47452   4.440   7.040   8.424 -0.4824 -0.0292 -0.0210
  352MOL0     H47453   4.102   6.620   8.166 -2.5586 -3.7408 -0.7656
  352MOL0     H47454   3.866   6.536   8.172  2.5457 -1.1192  1.2711
  352MOL0     H47455   3.541   6.794   8.310  5.8709  0.3736 -0.2404
  352MOL0     H47456   3.575   6.797   8.129  1.8194  1.9227  2.0037
  352MOL0     H47457   3.397   6.594   8.280 -0.7334  2.5424  2.8676
  352MOL0     H47458   3.330   6.737   8.195 -0.9058 -0.6157 -0.6882
  352MOL0     H47459   3.468   6.644   7.988  1.7668 -1.4704 -0.7413
  352MOL0     H47460   3.476   6.498   8.086 -0.0577 -0.5574 -1.4460
  352MOL0     H47461   3.212   6.642   8.019  1.0819  0.2565 -0.8434
  352MOL0     H47462   3.261   6.523   7.913 -1.4361  3.1070 -1.3512
  352MOL0     H47463   3.278   6.339   8.085 -1.8585 -1.8444  3.2489
  352MOL0     H47464   3.210   6.453   8.203 -1.1941 -0.8990 -1.2688
  352MOL0     H47465   3.021   6.480   8.035  2.2208  0.8958 -0.3065
  352MOL0     H47466   3.099   6.350   7.946 -3.0002 -0.7404 -1.6246
  352MOL0     H47467   3.069   6.193   8.139 -0.8031 -0.0859  0.5054
  352MOL0     H47468   2.993   6.325   8.236  0.6995 -3.1681  1.4478
  352MOL0     H47469   2.786   6.315   8.087  0.4372 -0.3705 -1.5709
  352MOL0     H47470   2.830   6.157   8.162  2.9170 -2.4931 -1.0771
  352MOL0     H47471   2.891   5.971   7.993  2.0374  1.0695  1.5343
  352MOL0     H47472   2.827   5.857   7.694  0.4072 -0.1266  0.6556
  352MOL0     H47473   2.896   5.980   7.593  4.7738 -0.6718 -0.5909
  352MOL0     H47474   3.048   5.764   7.670 -0.9136 -0.8507  1.4347
  352MOL0     H47475   3.074   5.843   7.818  1.1730 -1.1186 -1.3915
  352MOL0     H47476   3.131   6.051   7.660 -0.5651 -0.8270  2.8087
  352MOL0     H47477   3.176   5.911   7.548  0.4544 -1.1583  0.2371
  352MOL0     H47478   3.372   5.978   7.672  0.6433 -2.1860 -0.8458
  352MOL0     H47479   3.328   5.838   7.751  1.4688  0.1065 -0.9683
  352MOL0     H47480   3.349   5.850   8.046 -0.0959 -0.4440 -0.8079
  352MOL0     H47481   3.572   5.888   8.291 -0.0864 -2.9736  1.7292
  352MOL0     H47482   3.488   5.769   8.195 -0.2201  0.0834  2.2688
  352MOL0     H47483   3.656   5.809   8.151 -1.6716  0.9920 -3.9519
  352MOL0     H47484   3.959   6.194   7.990  0.6877 -1.1333 -0.5725
  352MOL0     H47485   4.207   6.278   8.036  4.0747 -0.7380  3.6932
  352MOL0     H47486   4.300   6.486   8.405 -1.5767 -0.7369 -1.0570
  352MOL0     H47487   4.341   6.316   8.444  1.0936  0.5555  0.8601
  352MOL0     H47488   4.551   6.457   8.462 -0.1578 -0.5944  0.2169
  352MOL0     H47489   4.572   6.366   8.323  1.5240  1.6516 -0.1231
  352MOL0     H47490   4.509   6.666   8.330 -2.5247  0.5927 -1.7915
  352MOL0     H47491   4.448   6.570   8.200  3.1651 -2.2272 -1.9640
  352MOL0     H47492   4.736   6.544   8.270  1.7642  0.5478 -3.3202
  352MOL0     H47493   4.658   6.484   8.128  2.4642 -1.4667  0.4886
  352MOL0     H47494   4.700   6.768   8.207 -1.4712  1.0388  0.3528
  352MOL0     H47495   4.561   6.734   8.109  0.0335 -0.0288  0.7729
  352MOL0     H47496   4.799   6.783   7.987  0.9760  1.0188  2.6598
  352MOL0     H47497   4.854   6.625   8.040  0.0517  0.0134 -1.8708
  352MOL0     H47498   4.649   6.709   7.855  2.8447  1.5747  0.7878
  352MOL0     H47499   4.617   6.551   7.937  0.1151  0.8087  0.6939
  352MOL0     H47500   4.851   6.474   7.846  1.8746  1.2522 -0.7093
  352MOL0     H47501   4.856   6.620   7.756  0.8077 -1.2327  0.5490
  352MOL0     H47502   4.097   6.393   8.428 -0.8369  1.4398 -0.9849
  352MOL0     H47503   3.871   6.317   8.389  0.9775 -0.2199  0.7401
  352MOL0     H47504   3.615   6.263   7.979 -2.2465  1.0530 -2.1889
  352MOL0     H47505   3.408   6.235   7.841  1.3742  1.9858  0.7061
  352MOL0     H47506   3.718   6.913   8.297  0.6336 -0.7666  1.2869
  352MOL0     H47507   3.952   6.996   8.310  4.9951 -0.7828 -0.6049
  352MOL0     H47508   4.372   6.943   8.107  2.8210 -3.6690  0.0613
  352MOL0     H47509   4.606   7.036   8.078  1.8672  1.3258  0.8957
  352MOL0     H47510   4.731   7.349   8.351  1.6130  1.5924 -0.5150
  352MOL0     H47511   4.801   7.231   8.459  0.5130 -4.2051 -1.2707
  352MOL0     H47512   4.956   7.410   8.372  0.8608  0.7436 -2.0404
  352MOL0     H47513   4.952   7.317   8.214 -0.6769 -3.2997  0.2408
  352MOL0     H47514   5.022   7.110   8.339 -0.6552  0.7556 -1.3009
  352MOL0     H47515   5.054   7.214   8.484 -0.8199  1.1349  0.8966
  352MOL0     H47516   5.186   7.262   8.210 -0.2630 -0.5315 -0.1948
  352MOL0     H47517   5.247   7.148   8.328  0.0587 -0.8265 -0.2123
  352MOL0     H47518   5.381   7.548   8.395  3.3061 -2.2293 -0.0563
  352MOL0     H47519   4.615   7.139   8.500  2.1761  1.1982 -2.7463
  352MOL0     H47520   4.401   7.031   8.525  2.4000  3.3376  1.5872
  353MOL0     O47521   3.585   6.706   7.777 -0.8070  0.3983 -0.7764
  353MOL0     C47522   3.584   6.829   7.775  0.2554  0.6454  0.2759
  353MOL0     O47523   3.488   6.906   7.708 -0.3190 -0.4505 -0.0272
  353MOL0     C47524   3.387   6.832   7.657  0.9307 -0.4597  0.1684
  353MOL0     C47525   3.399   6.798   7.521 -0.2002  0.2620  0.3426
  353MOL0     C47526   3.298   6.712   7.460  0.4358  0.5889 -0.2377
  353MOL0     C47527   3.187   6.672   7.537 -0.3023 -0.0196 -0.4670
  353MOL0     O47528   3.098   6.583   7.475 -0.4345  0.2042  0.5271
  353MOL0     C47529   3.082   6.453   7.533  0.5960 -0.5485 -0.1037
  353MOL0     C47530   2.982   6.371   7.460 -0.5478 -0.8207  0.2803
  353MOL0     C47531   2.839   6.403   7.466  0.2456  0.6721 -0.0550
  353MOL0     C47532   2.743   6.328   7.378 -0.3213  0.1713  0.2418
  353MOL0     C47533   2.602   6.356   7.422 -0.3945 -0.4146  0.1702
  353MOL0     C47534   2.512   6.320   7.309 -0.3095 -0.5443 -0.3634
  353MOL0     C47535   2.373   6.330   7.362 -0.3162  0.5081 -0.3561
  353MOL0     C47536   2.272   6.373   7.253  0.1668 -0.1332 -0.3814
  353MOL0     N47537   2.139   6.370   7.306 -0.1754 -0.3186  0.1913
  353MOL0     C47538   2.068   6.269   7.372 -0.1141 -0.0963 -0.2635
  353MOL0     C47539   1.949   6.320   7.406 -0.7084  0.5289  0.8262
  353MOL0     C47540   1.839   6.252   7.489 -0.3438 -0.5974  0.6394
  353MOL0     C47541   1.728   6.345   7.545 -0.4845 -0.1423 -0.1946
  353MOL0     C47542   1.742   6.364   7.699 -0.5317 -0.1084  0.3048
  353MOL0     C47543   1.868   6.425   7.749 -0.5116  0.9594  0.8947
  353MOL0     O47544   1.859   6.436   7.892 -0.1131  0.5669 -0.1964
  353MOL0     C47545   1.959   6.501   7.968 -0.2661  0.4427 -0.4419
  353MOL0     C47546   1.938   6.521   8.109  0.4177 -0.5797 -0.2797
  353MOL0     C47547   2.025   6.597   8.187  0.4194  0.8030  0.6276
  353MOL0     C47548   1.991   6.614   8.330  0.9118  0.7882  0.4191
  353MOL0     C47549   2.142   6.656   8.130  1.0924  0.2547  0.1403
  353MOL0     C47550   2.241   6.745   8.202  0.2585 -0.4510  0.1470
  353MOL0     O47551   2.323   6.824   8.127  1.1609 -0.1212  0.8278
  353MOL0     C47552   2.434   6.889   8.163  0.6749 -0.4409  0.2340
  353MOL0     C47553   2.460   7.005   8.087  0.0574  1.1792  0.3565
  353MOL0     C47554   2.567   7.092   8.131  0.1574  0.2215 -1.0494
  353MOL0     C47555   2.660   7.039   8.236  1.1217 -0.4323 -0.0653
  353MOL0     O47556   2.763   7.128   8.267  0.2886  0.3162  0.2855
  353MOL0     C47557   2.837   7.114   8.390 -0.3237  0.2637  0.0467
  353MOL0     C47558   2.919   7.236   8.411  0.5169 -0.7910 -0.2957
  353MOL0     C47559   3.070   7.196   8.431 -0.3431 -0.4134 -0.2926
  353MOL0     C47560   3.174   7.311   8.402 -0.5642  0.0756  0.3127
  353MOL0     C47561   3.177   7.355   8.258  0.4336  0.2352  0.2401
  353MOL0     C47562   3.301   7.445   8.233  0.1377  0.8178  1.0362
  353MOL0     C47563   3.297   7.480   8.087 -0.2668 -0.2588  0.6516
  353MOL0     C47564   3.381   7.611   8.048  1.1448  0.1679  0.2049
  353MOL0    Cl47565   3.284   7.765   8.083  0.0636 -0.1362  0.0681
  353MOL0     C47566   2.633   6.919   8.297  0.7905  0.2610 -0.1566
  353MOL0     C47567   2.524   6.842   8.266 -0.5581  0.0077  0.1672
  353MOL0     O47568   2.252   6.715   8.325 -0.0675 -0.7196 -0.2230
  353MOL0     C47569   2.167   6.639   7.992 -0.3287  0.1824 -0.0316
  353MOL0     C47570   2.071   6.569   7.915  0.0194 -0.2753  0.4168
  353MOL0     N47571   1.958   6.445   7.351 -0.0186 -0.2162 -0.5532
  353MOL0     N47572   2.070   6.482   7.296  0.1561  0.8025 -1.0678
  353MOL0     C47573   3.181   6.706   7.675  0.0465 -1.0153  0.4163
  353MOL0     C47574   3.285   6.775   7.732  0.3491 -0.2979 -0.8954
  353MOL0     C47575   3.704   6.898   7.833  0.8049 -0.8576  0.8969
  353MOL0     C47576   3.715   7.038   7.791 -0.2319 -0.1042  0.3238
  353MOL0     C47577   3.825   7.113   7.822  0.4830  0.1960  0.3171
  353MOL0     C47578   3.928   7.067   7.894  0.2652 -0.3330  0.1288
  353MOL0     O47579   4.030   7.157   7.929 -0.4352 -0.0712 -0.4344
  353MOL0     C47580   4.156   7.089   7.933  0.4245  1.0516 -0.2320
  353MOL0     C47581   4.245   7.168   7.852  0.1331 -0.1312 -0.2230
  353MOL0     C47582   4.275   7.148   7.704  0.6907 -0.9827  0.3669
  353MOL0     C47583   4.143   7.174   7.623 -0.8055  0.3283  0.2875
  353MOL0     C47584   4.164   7.164   7.479  0.0324  0.3579  0.4452
  353MOL0     C47585   4.169   7.163   7.354 -0.3720 -0.3732 -0.0558
  353MOL0     C47586   3.923   6.938   7.944  0.7161  0.3513  0.1027
  353MOL0     C47587   3.809   6.847   7.910  0.1658 -0.1301  0.4963
  353MOL0     H47588   3.468   6.845   7.452 -0.4697 -1.5201 -1.2222
  353MOL0     H47589   3.318   6.705   7.353 -0.6771  2.6341 -0.6333
  353MOL0     H47590   3.178   6.402   7.543  1.0950  0.6339  1.7418
  353MOL0     H47591   3.043   6.471   7.634  3.9163 -1.4101  1.4830
  353MOL0     H47592   3.003   6.387   7.354  1.6605  0.9020  0.9105
  353MOL0     H47593   3.007   6.267   7.484  2.3069 -0.6641 -1.4800
  353MOL0     H47594   2.817   6.367   7.567  1.4816 -0.9668 -0.3265
  353MOL0     H47595   2.837   6.512   7.458  1.0938  0.5733 -2.5535
  353MOL0     H47596   2.763   6.355   7.274  0.4679 -0.6264  0.1789
  353MOL0     H47597   2.767   6.221   7.387 -1.1295 -0.0387  0.0102
  353MOL0     H47598   2.580   6.291   7.508  0.7326  0.5264  1.2151
  353MOL0     H47599   2.594   6.460   7.456  2.7907 -0.6345  2.0462
  353MOL0     H47600   2.535   6.379   7.220 -0.2363 -0.1063 -0.0559
  353MOL0     H47601   2.526   6.219   7.269  0.0932 -0.2180 -1.0565
  353MOL0     H47602   2.348   6.228   7.395  0.4393  0.3002 -0.3946
  353MOL0     H47603   2.367   6.389   7.454 -0.1106  3.0497 -1.9080
  353MOL0     H47604   2.275   6.317   7.159 -3.5854 -1.5227  0.1390
  353MOL0     H47605   2.310   6.471   7.223  2.7193 -1.0721 -0.4757
  353MOL0     H47606   2.102   6.167   7.388 -2.5132 -1.1688 -1.3341
  353MOL0     H47607   1.801   6.174   7.423  0.7021 -0.2447 -0.4103
  353MOL0     H47608   1.889   6.200   7.572  0.9777  1.2212  1.0609
  353MOL0     H47609   1.626   6.314   7.522 -0.5722  0.1199 -0.1507
  353MOL0     H47610   1.742   6.444   7.501 -0.6831 -0.6552 -1.4663
  353MOL0     H47611   1.726   6.270   7.752 -1.9762  1.0017  1.9450
  353MOL0     H47612   1.664   6.433   7.732  1.0308  1.4068  0.9298
  353MOL0     H47613   1.863   6.521   7.697 -0.3617  0.0893 -0.7684
  353MOL0     H47614   1.955   6.368   7.714 -2.1381  0.3685 -2.5515
  353MOL0     H47615   1.860   6.473   8.166 -0.1541  1.7086  0.9552
  353MOL0     H47616   1.885   6.590   8.346  0.7778 -0.5097 -1.9280
  353MOL0     H47617   2.047   6.529   8.371 -0.5106 -1.0394 -1.2035
  353MOL0     H47618   2.007   6.714   8.371 -0.8174  0.0140  3.2954
  353MOL0     H47619   2.393   7.028   8.005  1.3234 -0.1096 -1.1083
  353MOL0     H47620   2.597   7.186   8.085  2.4058  0.5825  0.9823
  353MOL0     H47621   2.782   7.094   8.482 -0.6726  0.8395 -0.0315
  353MOL0     H47622   2.891   7.023   8.364  1.5181  1.4165 -0.3582
  353MOL0     H47623   2.909   7.315   8.337  1.3074 -0.9184 -0.5485
  353MOL0     H47624   2.879   7.281   8.503 -0.7341 -2.1203 -0.1366
  353MOL0     H47625   3.090   7.110   8.366  3.9862 -0.6080  0.9832
  353MOL0     H47626   3.085   7.159   8.532  0.9082 -0.7518 -0.5919
  353MOL0     H47627   3.145   7.394   8.468  0.1243 -1.9047  3.2886
  353MOL0     H47628   3.278   7.282   8.423 -0.1899 -3.9310 -5.0066
  353MOL0     H47629   3.087   7.414   8.237 -2.1884 -3.0457  1.2311
  353MOL0     H47630   3.179   7.273   8.185  1.8545  0.4958 -0.0348
  353MOL0     H47631   3.298   7.538   8.292 -1.3343  1.5876 -0.1936
  353MOL0     H47632   3.394   7.392   8.258  0.2412 -0.5978 -1.9422
  353MOL0     H47633   3.193   7.486   8.052 -0.0778 -0.8949 -0.0295
  353MOL0     H47634   3.334   7.400   8.023  0.8894 -0.0749  1.0786
  353MOL0     H47635   3.412   7.612   7.943  1.0814  2.8362  0.1419
  353MOL0     H47636   3.478   7.606   8.100  1.8864  0.9898 -1.0521
  353MOL0     H47637   2.695   6.878   8.377 -3.2258  0.4787  3.4241
  353MOL0     H47638   2.503   6.744   8.306 -2.6154 -0.4811 -1.9402
  353MOL0     H47639   2.248   6.687   7.937 -0.2233 -1.1125 -1.0563
  353MOL0     H47640   2.092   6.563   7.809 -2.2314 -0.4195 -0.0527
  353MOL0     H47641   3.101   6.668   7.738  0.0501 -2.8068 -0.6185
  353MOL0     H47642   3.278   6.784   7.839  2.7547 -3.0559 -0.3765
  353MOL0     H47643   3.647   7.085   7.721 -0.9166  0.7611  1.5310
  353MOL0     H47644   3.837   7.216   7.791 -0.3556  1.0732  2.6788
  353MOL0     H47645   4.188   7.077   8.036  0.7955 -1.4138 -0.5546
  353MOL0     H47646   4.150   6.996   7.876 -1.7258  1.1724 -0.2886
  353MOL0     H47647   4.339   7.148   7.904  1.4477 -0.6179 -2.6626
  353MOL0     H47648   4.221   7.275   7.859  2.4218  0.5339 -1.4170
  353MOL0     H47649   4.309   7.050   7.668 -2.1432 -1.9907  0.2054
  353MOL0     H47650   4.358   7.213   7.673 -0.6622 -0.2671 -1.9981
  353MOL0     H47651   4.117   7.274   7.658  2.7966  1.1760  0.9453
  353MOL0     H47652   4.071   7.097   7.651  1.6402 -2.3005 -0.1828
  353MOL0     H47653   4.156   7.171   7.248 -3.3059 -1.3340  0.1512
  353MOL0     H47654   4.009   6.903   8.000  1.9738  2.8074 -0.1794
  353MOL0     H47655   3.791   6.741   7.928 -1.2977 -0.1480 -0.8921
  354MOL0     O47656   9.883   1.842   9.644  0.0037 -0.0154 -0.0497
  354MOL0     C47657   9.957   1.843   9.736 -0.2894  0.3551 -0.1876
  354MOL0     O47658   9.961   1.941   9.830  0.4509 -0.7964  0.0386
  354MOL0     C47659   9.874   2.058   9.844 -0.0202 -0.1604  0.8708
  354MOL0     C47660   9.736   2.052   9.815 -0.3268 -0.6858  0.3942
  354MOL0     C47661   9.652   2.162   9.848  0.6724 -0.1949 -0.5515
  354MOL0     C47662   9.689   2.265   9.928 -0.0319 -0.0011 -0.0442
  354MOL0     O47663   9.600   2.363   9.970  0.7302  0.1044 -0.7442
  354MOL0     C47664   9.647   2.490  10.026 -0.5048 -0.2993 -0.0541
  354MOL0     C47665   9.536   2.581  10.063 -0.0288  0.4942  0.1943
  354MOL0     C47666   9.443   2.606   9.942  0.1901 -0.5552 -1.4303
  354MOL0     C47667   9.323   2.685   9.977 -0.2198 -0.0349  0.7302
  354MOL0     C47668   9.221   2.667   9.868  0.8001 -0.3948 -0.7694
  354MOL0     C47669   9.269   2.705   9.728  0.7374  0.3083  0.5646
  354MOL0     C47670   9.158   2.675   9.622  0.2854 -0.1948 -0.8058
  354MOL0     C47671   9.043   2.776   9.637  0.3550  0.6618  0.6196
  354MOL0     N47672   9.044   2.890   9.534 -0.3472  0.9139  0.3526
  354MOL0     C47673   9.037   2.875   9.396 -0.6660  0.2905 -0.0590
  354MOL0     C47674   9.098   2.986   9.331 -0.0811 -0.4535 -0.6809
  354MOL0     C47675   9.126   3.000   9.180 -0.4697 -0.7182 -0.6887
  354MOL0     C47676   9.029   3.095   9.116  0.2525  0.7017 -0.6030
  354MOL0     C47677   8.873   3.060   9.139 -0.9148 -0.0942 -0.7997
  354MOL0     C47678   8.790   3.168   9.081 -0.1398 -0.3890  0.2116
  354MOL0     O47679   8.660   3.166   9.128  0.2569  0.1486  0.5138
  354MOL0     C47680   8.591   3.052   9.126 -0.5024  0.9558 -0.0419
  354MOL0     C47681   8.496   3.032   9.232  0.1062 -0.3175  0.0681
  354MOL0     C47682   8.414   2.920   9.241  0.0011  0.1927  0.2783
  354MOL0     C47683   8.299   2.940   9.340 -0.4930 -0.3426 -0.0092
  354MOL0     C47684   8.434   2.818   9.144 -0.0246 -0.2442 -0.4398
  354MOL0     C47685   8.338   2.700   9.130  0.1381  0.0198  0.2255
  354MOL0     O47686   8.198   2.721   9.140  0.5293 -0.0582 -0.4711
  354MOL0     C47687   8.119   2.609   9.158 -0.7007  0.2304  0.8384
  354MOL0     C47688   7.996   2.625   9.099  0.3198 -0.0471 -0.6383
  354MOL0     C47689   7.903   2.528   9.109  0.0430 -0.3565  0.3014
  354MOL0     C47690   7.917   2.415   9.190 -0.2680  0.2605  0.1668
  354MOL0     O47691   7.814   2.323   9.196 -0.3784  0.1726 -0.1467
  354MOL0     C47692   7.803   2.219   9.290  0.2915 -0.1685  0.1197
  354MOL0     C47693   7.657   2.187   9.305  0.4875  0.3523 -0.2309
  354MOL0     C47694   7.591   2.127   9.174  0.4878  0.0101 -0.3098
  354MOL0     C47695   7.439   2.112   9.174  0.8784  0.5298  0.9359
  354MOL0     C47696   7.384   2.008   9.278  0.8542 -0.7313 -0.0064
  354MOL0     C47697   7.255   2.064   9.335 -0.0729 -0.1134 -0.1356
  354MOL0     C47698   7.183   1.960   9.416  0.1528  0.3258 -0.8099
  354MOL0     C47699   7.052   2.019   9.463  0.1798 -0.8897 -0.1982
  354MOL0    Cl47700   6.966   1.928   9.577 -0.3832  0.4877 -0.1723
  354MOL0     C47701   8.038   2.401   9.262 -0.3025  0.4359  0.0317
  354MOL0     C47702   8.146   2.501   9.251 -0.1807 -0.1553  0.2010
  354MOL0     O47703   8.393   2.595   9.100 -0.6127  0.4657 -0.2693
  354MOL0     C47704   8.528   2.826   9.040 -0.8555 -0.2181 -0.0664
  354MOL0     C47705   8.603   2.944   9.033  0.7589  0.8617 -0.2046
  354MOL0     N47706   9.116   3.072   9.440  0.0313 -0.8279 -0.6564
  354MOL0     N47707   9.087   3.014   9.556  0.1610 -0.5556 -0.3097
  354MOL0     C47708   9.822   2.266   9.963 -0.5245 -0.0092 -0.3780
  354MOL0     C47709   9.921   2.167   9.917 -0.0770  0.0345 -0.1957
  354MOL0     C47710  10.061   1.743   9.742  0.0969  0.1047  0.8943
  354MOL0     C47711  10.146   1.750   9.857 -0.1395  0.1768  1.2244
  354MOL0     C47712  10.239   1.646   9.868  0.0785 -0.0944 -0.5053
  354MOL0     C47713  10.261   1.544   9.770 -0.5973 -0.4368 -0.5698
  354MOL0     O47714  10.363   1.464   9.799 -0.4731 -0.3926  0.1971
  354MOL0     C47715  10.366   1.334   9.737  0.2080 -0.7174 -0.6578
  354MOL0     C47716  10.429   1.324   9.599  0.2226 -0.0791  0.8665
  354MOL0     C47717  10.556   1.408   9.556 -0.4288  0.5376 -0.0281
  354MOL0     C47718  10.680   1.363   9.636 -0.7533 -0.2087  0.0560
  354MOL0     C47719  10.722   1.224   9.630  0.4041  0.4304  0.4615
  354MOL0     C47720  10.757   1.109   9.633 -0.1359 -0.2518 -0.7757
  354MOL0     C47721  10.183   1.549   9.651 -0.3578  0.3942 -0.3622
  354MOL0     C47722  10.093   1.650   9.634 -0.0121 -0.0552 -1.3749
  354MOL0     H47723   9.699   1.963   9.765  0.1853 -0.3619 -0.5986
  354MOL0     H47724   9.554   2.162   9.800  1.2585 -0.8546 -1.8157
  354MOL0     H47725   9.708   2.467  10.114  0.3361  0.1067 -0.5126
  354MOL0     H47726   9.709   2.540   9.951  0.0884 -0.8310  0.0715
  354MOL0     H47727   9.492   2.521  10.143 -4.5074 -0.1011 -2.3952
  354MOL0     H47728   9.573   2.673  10.109  1.9102  1.5487 -3.1368
  354MOL0     H47729   9.503   2.661   9.869 -2.2366  2.5634 -1.3103
  354MOL0     H47730   9.417   2.513   9.891  1.8908 -0.4434 -2.5605
  354MOL0     H47731   9.283   2.631  10.064  1.0648 -2.3711 -0.0207
  354MOL0     H47732   9.358   2.786   9.998 -0.2938  0.2991 -0.6710
  354MOL0     H47733   9.195   2.561   9.864  1.9730 -0.8757  2.0584
  354MOL0     H47734   9.130   2.712   9.910 -0.6479 -2.8837 -0.9942
  354MOL0     H47735   9.286   2.812   9.740  1.7570  0.3388 -0.8663
  354MOL0     H47736   9.353   2.646   9.690  0.1956 -0.9401  1.2237
  354MOL0     H47737   9.204   2.690   9.524  1.1682  0.9449 -0.2415
  354MOL0     H47738   9.129   2.570   9.629 -0.5695  0.1404  1.6719
  354MOL0     H47739   9.061   2.826   9.733  0.2392  1.2167  0.3590
  354MOL0     H47740   8.945   2.729   9.629 -0.2764  2.2634 -3.5157
  354MOL0     H47741   8.997   2.789   9.343  0.7682  1.0089 -2.4983
  354MOL0     H47742   9.220   3.056   9.186 -0.1241 -1.3504  4.1626
  354MOL0     H47743   9.145   2.900   9.140  0.1347 -1.4270  1.2356
  354MOL0     H47744   9.054   3.111   9.011  1.2915  2.3151 -0.1547
  354MOL0     H47745   9.038   3.186   9.177 -0.0128  0.0410  0.4615
  354MOL0     H47746   8.852   3.056   9.247  1.2736 -2.8606 -0.3492
  354MOL0     H47747   8.855   2.960   9.099  0.5125  0.1527 -2.1466
  354MOL0     H47748   8.786   3.154   8.973 -0.1481  1.3771 -0.0456
  354MOL0     H47749   8.824   3.269   9.105 -1.9542 -0.3224  3.0546
  354MOL0     H47750   8.491   3.109   9.310 -3.7262 -2.2129  1.9521
  354MOL0     H47751   8.207   2.967   9.287  0.9725 -0.2965 -2.7178
  354MOL0     H47752   8.274   2.847   9.392 -0.8438  0.2217  0.8695
  354MOL0     H47753   8.314   3.017   9.417  0.8836 -1.1240  0.5263
  354MOL0     H47754   7.981   2.714   9.039  1.5937 -0.3102 -1.3853
  354MOL0     H47755   7.812   2.535   9.050  0.8338 -1.9165 -1.1715
  354MOL0     H47756   7.858   2.134   9.248 -2.3139 -0.9041 -2.0008
  354MOL0     H47757   7.831   2.249   9.392  0.4936 -2.8122  0.9223
  354MOL0     H47758   7.652   2.115   9.387 -3.2784  0.4096 -0.2598
  354MOL0     H47759   7.600   2.277   9.330  1.4912  1.1805 -0.8486
  354MOL0     H47760   7.636   2.028   9.164  2.3242  0.6787  0.8454
  354MOL0     H47761   7.613   2.177   9.079  0.5575 -0.3025 -0.4623
  354MOL0     H47762   7.402   2.209   9.206  2.0044  1.0029  0.8523
  354MOL0     H47763   7.399   2.092   9.074 -1.6548  3.1983  1.2811
  354MOL0     H47764   7.456   1.976   9.354  0.5848  1.6720  1.3308
  354MOL0     H47765   7.359   1.917   9.221  0.2517  0.1907 -1.2619
  354MOL0     H47766   7.284   2.151   9.395 -1.3507  1.3439 -1.5302
  354MOL0     H47767   7.195   2.109   9.255 -0.6318 -0.2645  0.1903
  354MOL0     H47768   7.227   1.948   9.515 -2.0640  0.3103  0.2316
  354MOL0     H47769   7.167   1.864   9.366 -2.8565  0.3189 -0.0234
  354MOL0     H47770   7.000   2.037   9.368  1.9813  2.9569 -0.6331
  354MOL0     H47771   7.072   2.120   9.497  0.6077 -1.1760  0.4120
  354MOL0     H47772   8.051   2.330   9.343  0.2660  4.1498  3.5288
  354MOL0     H47773   8.243   2.486   9.296  0.0016 -0.5702 -0.3209
  354MOL0     H47774   8.545   2.748   8.967 -1.3710 -0.2217 -0.1815
  354MOL0     H47775   8.686   2.947   8.962  0.1562  2.2166 -0.9044
  354MOL0     H47776   9.870   2.340  10.026 -0.7414 -0.6688  0.5966
  354MOL0     H47777  10.023   2.165   9.952 -0.0829 -3.6329 -0.0152
  354MOL0     H47778  10.143   1.839   9.920  0.6485 -0.3913  2.0895
  354MOL0     H47779  10.299   1.648   9.959  1.4503  1.5294 -1.3989
  354MOL0     H47780  10.414   1.254   9.794 -1.8477 -0.4332  1.6502
  354MOL0     H47781  10.260   1.310   9.746  0.2779 -0.3055  3.1664
  354MOL0     H47782  10.351   1.345   9.525  0.4832 -0.9999  0.3192
  354MOL0     H47783  10.458   1.220   9.581  0.3128 -0.0432  0.8071
  354MOL0     H47784  10.543   1.514   9.579 -1.9202  1.1782 -3.1658
  354MOL0     H47785  10.567   1.404   9.447  0.1549  1.9520 -0.0418
  354MOL0     H47786  10.669   1.399   9.739 -3.3385  2.9621 -1.1789
  354MOL0     H47787  10.767   1.416   9.595 -0.9278  0.2200  0.2385
  354MOL0     H47788  10.797   1.010   9.620  0.4295 -0.0972 -0.2766
  354MOL0     H47789  10.180   1.472   9.574 -0.6738 -0.4808  0.4995
  354MOL0     H47790  10.030   1.651   9.545  0.0903 -1.2159 -1.4694
  355MOL0     O47791   4.812  10.966   8.533 -0.3388 -0.2037  0.1087
  355MOL0     C47792   4.933  10.985   8.554  0.0603  0.8744  0.0546
  355MOL0     O47793   5.012  10.910   8.632  0.6659  0.1441  0.0544
  355MOL0     C47794   4.966  10.795   8.691 -0.2619  0.8900  0.5422
  355MOL0     C47795   4.897  10.693   8.622  0.2331 -0.4990 -0.0455
  355MOL0     C47796   4.853  10.582   8.693  0.9390  0.0628  0.2439
  355MOL0     C47797   4.877  10.567   8.827 -0.4209 -0.5362  0.1211
  355MOL0     O47798   4.854  10.443   8.891 -0.0329 -0.5753  0.3033
  355MOL0     C47799   4.958  10.357   8.872 -0.1258  0.9308  0.1800
  355MOL0     C47800   4.915  10.223   8.908 -0.1111  0.0115 -0.6209
  355MOL0     C47801   5.018  10.124   8.851 -0.2927 -0.3874  0.0645
  355MOL0     C47802   5.011   9.979   8.900 -0.2429  1.2450 -0.7838
  355MOL0     C47803   4.875   9.903   8.864  0.1528 -0.8738  0.6077
  355MOL0     C47804   4.836   9.913   8.717 -0.3498 -0.1091  0.0163
  355MOL0     C47805   4.714   9.822   8.681 -0.4232  0.2523 -0.0597
  355MOL0     C47806   4.745   9.667   8.690  0.0852  0.2869  0.3403
  355MOL0     N47807   4.858   9.619   8.601  0.1072  0.2792 -0.4114
  355MOL0     C47808   4.845   9.552   8.482  0.5925 -1.4044 -1.5349
  355MOL0     C47809   4.948   9.462   8.493  0.7529 -0.8787  0.8454
  355MOL0     C47810   4.967   9.344   8.388 -0.6624 -0.6432 -0.1926
  355MOL0     C47811   4.857   9.242   8.381 -0.5126  0.6526  0.3746
  355MOL0     C47812   4.844   9.168   8.509  0.5966  0.1745 -0.4640
  355MOL0     C47813   4.828   9.017   8.514 -1.2645  0.2336  0.4991
  355MOL0     O47814   4.708   8.968   8.451 -0.0012  0.0829 -0.5526
  355MOL0     C47815   4.586   8.989   8.514 -0.0429 -0.3506 -0.1142
  355MOL0     C47816   4.471   8.938   8.451 -0.5687 -0.0655 -0.1486
  355MOL0     C47817   4.337   8.957   8.491 -0.0626  0.5642  0.2750
  355MOL0     C47818   4.233   8.883   8.415  0.3792  0.3970 -0.1171
  355MOL0     C47819   4.313   9.028   8.616  0.5054  0.3912  0.7402
  355MOL0     C47820   4.182   9.040   8.680 -0.4058 -0.3787  0.0343
  355MOL0     O47821   4.185   9.019   8.825  0.7354  0.0241  0.5821
  355MOL0     C47822   4.069   9.042   8.889 -0.9734 -0.2989  0.6499
  355MOL0     C47823   4.031   9.176   8.930 -0.4600  0.4145  0.1842
  355MOL0     C47824   3.914   9.197   8.994  0.1580 -0.2990  0.3436
  355MOL0     C47825   3.841   9.084   9.035 -0.2083 -0.3565 -0.1158
  355MOL0     O47826   3.728   9.107   9.109  0.1308  0.1988  0.3461
  355MOL0     C47827   3.604   9.112   9.031 -0.1979 -0.1451 -0.5700
  355MOL0     C47828   3.477   9.129   9.120 -0.2208  0.2876 -0.4156
  355MOL0     C47829   3.457   9.011   9.217 -0.0113  0.1324 -0.6995
  355MOL0     C47830   3.404   8.879   9.161 -0.0334  0.4007  0.7920
  355MOL0     C47831   3.373   8.778   9.275 -0.2403 -0.3590  0.5835
  355MOL0     C47832   3.499   8.729   9.349  0.9756  0.1963 -0.1240
  355MOL0     C47833   3.469   8.579   9.398 -0.8961 -0.2038 -0.4412
  355MOL0     C47834   3.598   8.512   9.456 -0.5980 -0.3196 -0.4712
  355MOL0    Cl47835   3.712   8.604   9.554 -0.0694 -0.4472  0.1536
  355MOL0     C47836   3.877   8.952   9.024  0.5306 -0.5899 -0.0618
  355MOL0     C47837   3.993   8.933   8.942  0.1965  0.1178 -0.2831
  355MOL0     O47838   4.079   9.054   8.610  0.0514 -0.3952 -0.0643
  355MOL0     C47839   4.425   9.074   8.686  0.4413 -0.3397 -0.0804
  355MOL0     C47840   4.557   9.057   8.636  0.4757 -0.7108 -0.3346
  355MOL0     N47841   5.024   9.480   8.601  1.0566  0.0514 -0.3698
  355MOL0     N47842   4.970   9.580   8.667  0.2651 -0.5139 -0.8231
  355MOL0     C47843   4.951  10.663   8.894 -0.4777  0.4129 -0.2835
  355MOL0     C47844   4.987  10.779   8.828 -1.3989 -0.8848  0.2918
  355MOL0     C47845   4.996  11.118   8.524  0.0586  1.2364  0.1541
  355MOL0     C47846   5.121  11.151   8.580 -0.1015 -0.3964 -0.3174
  355MOL0     C47847   5.176  11.272   8.536 -0.2205  0.0823  0.4115
  355MOL0     C47848   5.112  11.358   8.449  0.1315  0.5694  0.4060
  355MOL0     O47849   5.187  11.467   8.417 -0.0943  0.5622  0.1464
  355MOL0     C47850   5.144  11.557   8.311 -0.3505  0.4335 -0.5801
  355MOL0     C47851   5.239  11.677   8.295 -1.0638 -0.0946  0.0072
  355MOL0     C47852   5.386  11.639   8.286  0.4784 -0.2414 -0.2164
  355MOL0     C47853   5.472  11.760   8.237 -0.6862 -0.3990 -0.0086
  355MOL0     C47854   5.603  11.738   8.298  0.0991  0.1989 -0.1192
  355MOL0     C47855   5.716  11.716   8.333  0.2818  0.2028 -1.5221
  355MOL0     C47856   4.995  11.325   8.401  0.9447 -0.5881 -0.1200
  355MOL0     C47857   4.934  11.208   8.440 -0.0912 -0.6624  0.5979
  355MOL0     H47858   4.867  10.698   8.518 -0.8919 -0.7953  0.2561
  355MOL0     H47859   4.811  10.494   8.644 -0.9820  2.0433 -1.8874
  355MOL0     H47860   4.987  10.350   8.767  1.0742 -0.1991  0.5552
  355MOL0     H47861   5.045  10.382   8.933 -0.6867  0.7397  1.0833
  355MOL0     H47862   4.909  10.213   9.017  1.3872 -1.8054 -0.6445
  355MOL0     H47863   4.824  10.204   8.851  0.8130  0.3410 -2.2977
  355MOL0     H47864   4.998  10.125   8.744  2.3675  1.4138 -0.5122
  355MOL0     H47865   5.120  10.164   8.856 -0.2623 -0.5267  0.6855
  355MOL0     H47866   5.084   9.911   8.856 -0.8018 -0.0595  0.2306
  355MOL0     H47867   5.028   9.983   9.008  0.4480  5.2331 -0.8975
  355MOL0     H47868   4.897   9.799   8.889  2.3725 -0.8670 -1.0768
  355MOL0     H47869   4.789   9.949   8.915 -0.0814  0.4193 -0.8811
  355MOL0     H47870   4.811  10.019   8.703  1.6182  0.6165  1.4479
  355MOL0     H47871   4.925   9.889   8.659 -2.3615 -0.5535 -3.1396
  355MOL0     H47872   4.629   9.842   8.746  1.0718 -2.8051  3.2015
  355MOL0     H47873   4.686   9.849   8.579  0.0027  0.9459  0.0000
  355MOL0     H47874   4.653   9.618   8.657 -0.9084  1.0746  1.8267
  355MOL0     H47875   4.763   9.630   8.791  1.4239 -0.4429 -0.1433
  355MOL0     H47876   4.765   9.566   8.410 -0.4022 -1.0243 -0.3947
  355MOL0     H47877   4.978   9.404   8.296  2.5851 -1.0364 -0.1947
  355MOL0     H47878   5.070   9.309   8.402  0.1298  1.4995 -0.1537
  355MOL0     H47879   4.891   9.158   8.320  0.2607 -0.9601  2.8616
  355MOL0     H47880   4.761   9.276   8.342  0.6378  1.8281 -1.5616
  355MOL0     H47881   4.770   9.228   8.564  3.6913  3.2463  0.7136
  355MOL0     H47882   4.944   9.177   8.553 -0.1902  0.3310  1.3795
  355MOL0     H47883   4.836   8.982   8.618 -3.3339  2.1542  1.4022
  355MOL0     H47884   4.916   8.979   8.462 -0.1088  0.5281  2.1419
  355MOL0     H47885   4.495   8.868   8.371 -1.1013 -1.9723  1.2717
  355MOL0     H47886   4.282   8.834   8.330  2.6902 -1.0058  1.8695
  355MOL0     H47887   4.190   8.801   8.473  1.6869  0.1807  0.6100
  355MOL0     H47888   4.160   8.954   8.376  2.3863  1.5923 -1.9229
  355MOL0     H47889   4.097   9.256   8.897 -0.3062 -0.6941 -2.4565
  355MOL0     H47890   3.888   9.297   9.030  1.4949 -0.2956  1.4095
  355MOL0     H47891   3.599   9.193   8.958 -4.7665  1.0820  0.8057
  355MOL0     H47892   3.595   9.017   8.979  0.8174 -2.4098  2.9782
  355MOL0     H47893   3.478   9.225   9.173  0.7879 -0.1610  0.4154
  355MOL0     H47894   3.385   9.134   9.061 -0.3144 -0.7447 -0.3629
  355MOL0     H47895   3.383   9.049   9.288 -0.2091  1.3192 -1.5078
  355MOL0     H47896   3.548   8.997   9.276 -0.2893 -0.4380 -0.4035
  355MOL0     H47897   3.317   8.889   9.095  0.0682 -0.8183  0.4329
  355MOL0     H47898   3.481   8.832   9.099  0.8222  2.9627 -0.2221
  355MOL0     H47899   3.337   8.687   9.227  0.7723 -0.1146 -0.6901
  355MOL0     H47900   3.294   8.808   9.345 -0.7803 -2.2426  0.8402
  355MOL0     H47901   3.583   8.712   9.281  0.1864 -1.0750 -0.8513
  355MOL0     H47902   3.515   8.799   9.431  1.3823 -0.7700  0.6426
  355MOL0     H47903   3.425   8.522   9.316  0.8624  1.0445 -2.3459
  355MOL0     H47904   3.396   8.574   9.480  0.6216 -0.3604  0.9615
  355MOL0     H47905   3.656   8.469   9.373  0.9349  0.1049  0.3522
  355MOL0     H47906   3.563   8.421   9.505 -1.3444 -1.7873 -3.4515
  355MOL0     H47907   3.803   8.876   9.045 -1.9470  1.6987  0.0143
  355MOL0     H47908   4.028   8.833   8.917 -3.0754 -1.1235 -0.4594
  355MOL0     H47909   4.411   9.108   8.788 -2.7189  2.0994 -1.1622
  355MOL0     H47910   4.635   9.088   8.704 -0.4352 -2.6085  1.7238
  355MOL0     H47911   4.967  10.650   9.001  1.0328  0.6702 -0.4577
  355MOL0     H47912   5.036  10.863   8.876 -4.3481  0.9460  0.3379
  355MOL0     H47913   5.177  11.082   8.643 -0.1087 -1.9020 -1.8762
  355MOL0     H47914   5.272  11.281   8.587 -0.4064  1.5390  0.5261
  355MOL0     H47915   5.140  11.510   8.213  2.1077  2.3353 -1.7140
  355MOL0     H47916   5.046  11.601   8.330 -0.4360 -0.3419  0.9076
  355MOL0     H47917   5.231  11.752   8.375 -0.5527 -0.6380  0.5861
  355MOL0     H47918   5.213  11.723   8.200 -1.5289 -2.4950 -1.1022
  355MOL0     H47919   5.408  11.561   8.214 -0.6680  0.8631 -1.8304
  355MOL0     H47920   5.399  11.606   8.390 -1.4817  0.7763  0.4176
  355MOL0     H47921   5.438  11.857   8.275  2.6888  0.0837  2.2408
  355MOL0     H47922   5.473  11.758   8.128  0.2369 -0.8830  0.0064
  355MOL0     H47923   5.820  11.699   8.355 -0.2444 -0.6662  0.4740
  355MOL0     H47924   4.936  11.387   8.333 -0.6265 -0.4833  1.2668
  355MOL0     H47925   4.835  11.185   8.400 -0.5188 -1.5521  2.0714
  356MOL0     O47926  10.968   7.100   6.133  0.4619  0.1046  0.2425
  356MOL0     C47927  11.015   7.202   6.167 -0.4977 -0.9866 -0.0554
  356MOL0     O47928  11.143   7.245   6.140  0.4811  0.3266  0.6742
  356MOL0     C47929  11.232   7.172   6.068  0.0641  0.6403  0.0291
  356MOL0     C47930  11.227   7.045   6.001  0.2516 -0.1680 -0.9633
  356MOL0     C47931  11.341   6.993   5.935 -0.4081 -0.2188 -0.2623
  356MOL0     C47932  11.462   7.058   5.944 -0.0815  0.9465  0.5954
  356MOL0     O47933  11.570   6.991   5.895 -0.4017 -0.8178 -0.3457
  356MOL0     C47934  11.691   7.060   5.908  0.3446 -0.8229  0.4884
  356MOL0     C47935  11.801   6.967   5.855  0.2201 -0.2318  0.2989
  356MOL0     C47936  11.806   6.838   5.930  0.3517 -0.2760  0.3630
  356MOL0     C47937  11.934   6.760   5.898  0.0820  1.3297 -0.4192
  356MOL0     C47938  11.936   6.695   5.755 -0.3007  0.6916  0.0360
  356MOL0     C47939  12.038   6.586   5.749 -0.4255 -0.6600 -0.0025
  356MOL0     C47940  12.070   6.526   5.609  0.4723 -0.2231  0.0527
  356MOL0     C47941  11.950   6.479   5.523 -0.5298  0.4777 -0.6217
  356MOL0     N47942  11.887   6.346   5.562 -0.3206  0.0984  0.2455
  356MOL0     C47943  11.914   6.235   5.489 -0.4930  0.5609  0.0914
  356MOL0     C47944  11.874   6.133   5.565  0.0087  0.4418 -0.7301
  356MOL0     C47945  11.869   5.989   5.530 -0.2244  0.5110 -1.0281
  356MOL0     C47946  12.008   5.930   5.535  0.3514  0.1094  0.1632
  356MOL0     C47947  12.034   5.895   5.689 -0.7600  0.3384 -0.6542
  356MOL0     C47948  12.165   5.818   5.707 -0.1199 -0.4708 -0.1280
  356MOL0     O47949  12.274   5.872   5.629  0.6960 -0.0039 -0.1443
  356MOL0     C47950  12.400   5.828   5.638  0.0770  0.7019 -0.2630
  356MOL0     C47951  12.495   5.906   5.581 -0.9494 -0.0987 -0.2123
  356MOL0     C47952  12.631   5.862   5.582  0.4140 -0.4623 -0.7300
  356MOL0     C47953  12.728   5.954   5.518 -0.9809  0.5813  0.2530
  356MOL0     C47954  12.666   5.739   5.644 -0.6702 -0.3994 -0.6723
  356MOL0     C47955  12.809   5.699   5.673  0.4433 -0.0625  0.8406
  356MOL0     O47956  12.907   5.790   5.666 -0.1242 -0.5527  0.4678
  356MOL0     C47957  13.035   5.752   5.682  0.5351  0.7102 -0.4033
  356MOL0     C47958  13.087   5.630   5.644  0.0283  0.8997 -0.1987
  356MOL0     C47959  13.228   5.603   5.651  0.3851  0.4220 -0.6257
  356MOL0     C47960  13.314   5.702   5.694  0.5881 -0.1917 -0.4653
  356MOL0     O47961  13.445   5.661   5.716 -0.3318  0.4396 -0.4143
  356MOL0     C47962  13.529   5.767   5.741 -0.1482 -0.1214  0.0577
  356MOL0     C47963  13.670   5.714   5.769  0.0477  0.0431 -0.3322
  356MOL0     C47964  13.753   5.824   5.826 -0.5620  0.3065  0.4327
  356MOL0     C47965  13.896   5.758   5.841 -0.1553 -0.0844  1.0553
  356MOL0     C47966  13.983   5.864   5.888 -0.0251  0.8491  0.1381
  356MOL0     C47967  14.126   5.821   5.922 -0.4971 -0.9183 -0.2026
  356MOL0     C47968  14.208   5.945   5.973  0.2332  0.0239  0.2384
  356MOL0     C47969  14.274   6.030   5.863 -0.1550  0.1060  0.7132
  356MOL0    Cl47970  14.351   6.161   5.965 -0.3605 -0.0410 -0.0771
  356MOL0     C47971  13.262   5.835   5.716  1.3049  0.0927 -0.4063
  356MOL0     C47972  13.123   5.857   5.708 -0.0172 -0.3740  0.0887
  356MOL0     O47973  12.820   5.580   5.704  0.0906  0.0023  0.6595
  356MOL0     C47974  12.554   5.666   5.699 -1.0835  0.0246  0.0941
  356MOL0     C47975  12.423   5.701   5.686 -1.2038  0.6232 -0.4379
  356MOL0     N47976  11.816   6.185   5.675  0.3100  0.4172 -0.0971
  356MOL0     N47977  11.830   6.309   5.679 -0.7107  0.0490  0.0999
  356MOL0     C47978  11.468   7.178   6.024 -0.1665 -0.1542  0.2218
  356MOL0     C47979  11.357   7.226   6.088 -0.7072  0.3849 -0.0448
  356MOL0     C47980  10.941   7.289   6.256 -0.4413  0.5028  0.0321
  356MOL0     C47981  10.985   7.414   6.283  0.4114 -0.6271  0.1172
  356MOL0     C47982  10.900   7.500   6.354 -1.1803  0.5425 -0.5692
  356MOL0     C47983  10.776   7.459   6.416  0.8822 -0.2351  0.5003
  356MOL0     O47984  10.697   7.555   6.483  0.2877 -0.4257  0.3542
  356MOL0     C47985  10.735   7.694   6.504  0.3356  1.0187  0.4800
  356MOL0     C47986  10.615   7.766   6.574  0.4722 -0.0992  0.2921
  356MOL0     C47987  10.487   7.757   6.487  0.7956 -0.8277  0.8564
  356MOL0     C47988  10.364   7.835   6.537  1.0570 -0.2244  0.9740
  356MOL0     C47989  10.240   7.831   6.457 -0.2027  0.3895 -0.2949
  356MOL0     C47990  10.134   7.825   6.396  0.2520  0.5822  0.3354
  356MOL0     C47991  10.732   7.325   6.394 -0.2524  0.8504  0.5576
  356MOL0     C47992  10.824   7.239   6.322 -0.3124 -0.0456 -0.0996
  356MOL0     H47993  11.130   6.997   5.993  0.0472 -0.0781  0.6815
  356MOL0     H47994  11.351   6.894   5.894  1.6371  0.6457 -2.0092
  356MOL0     H47995  11.687   7.152   5.848 -2.1009  0.1476  1.9910
  356MOL0     H47996  11.717   7.093   6.009 -0.1076 -0.5863  0.5318
  356MOL0     H47997  11.797   6.944   5.749 -0.8427  1.9756 -0.1865
  356MOL0     H47998  11.898   7.018   5.864  0.9017 -1.0958 -1.6372
  356MOL0     H47999  11.810   6.859   6.037 -0.5669  1.5445  0.0760
  356MOL0     H48000  11.718   6.777   5.907 -0.5414  1.3647 -0.7105
  356MOL0     H48001  12.023   6.821   5.916  0.0643  0.9097  1.2410
  356MOL0     H48002  11.940   6.678   5.970  0.6377  1.0824 -0.7419
  356MOL0     H48003  11.839   6.647   5.735 -0.2628 -0.5128  2.4375
  356MOL0     H48004  11.942   6.774   5.680  0.7020 -3.5315 -4.8859
  356MOL0     H48005  12.133   6.619   5.793 -0.2982 -2.1864  0.9331
  356MOL0     H48006  12.002   6.502   5.808 -0.9521  1.5650  3.0865
  356MOL0     H48007  12.122   6.602   5.550 -2.4851  2.0745  0.1193
  356MOL0     H48008  12.148   6.451   5.622  0.2851 -0.6556 -1.1685
  356MOL0     H48009  11.980   6.468   5.418 -0.3622  0.7714 -0.6050
  356MOL0     H48010  11.874   6.555   5.503 -0.3065  1.0080  0.5071
  356MOL0     H48011  11.958   6.227   5.391 -0.5255  0.8391  0.0532
  356MOL0     H48012  11.793   5.933   5.586  2.3517 -0.2907  1.9160
  356MOL0     H48013  11.839   5.969   5.426 -2.5815  3.7417 -1.1301
  356MOL0     H48014  12.084   5.997   5.495  0.0036 -0.6172 -1.8793
  356MOL0     H48015  12.009   5.838   5.476  0.1337 -1.6836  2.8245
  356MOL0     H48016  11.949   5.835   5.723 -0.9560  0.6649 -0.5658
  356MOL0     H48017  12.032   5.988   5.748  0.2683 -0.5696  0.8849
  356MOL0     H48018  12.140   5.714   5.682 -1.0507  0.0692 -1.5782
  356MOL0     H48019  12.193   5.820   5.812 -0.4182 -0.3310 -0.0511
  356MOL0     H48020  12.473   6.003   5.536  0.6373  0.3535 -0.0655
  356MOL0     H48021  12.806   5.901   5.463 -1.5942 -0.6313  0.5308
  356MOL0     H48022  12.686   6.014   5.437  1.0387  1.8154  0.0324
  356MOL0     H48023  12.770   6.022   5.593  1.7810 -0.6097 -0.0990
  356MOL0     H48024  13.033   5.546   5.602  2.2217 -0.1777 -1.0361
  356MOL0     H48025  13.278   5.510   5.626 -0.2825  0.7945 -3.8039
  356MOL0     H48026  13.532   5.831   5.652 -1.5045  1.4116  1.0582
  356MOL0     H48027  13.489   5.821   5.827 -1.5489  0.5094 -0.9312
  356MOL0     H48028  13.675   5.641   5.851 -3.0661  1.6576  1.4976
  356MOL0     H48029  13.714   5.668   5.680  0.9012 -0.0983  0.1496
  356MOL0     H48030  13.705   5.868   5.914  1.7756 -0.0740  1.9756
  356MOL0     H48031  13.770   5.898   5.747 -1.3090 -0.0205 -0.0473
  356MOL0     H48032  13.899   5.673   5.910  3.8025 -1.6875 -0.7834
  356MOL0     H48033  13.934   5.716   5.747 -0.8817  1.8337 -0.1553
  356MOL0     H48034  13.930   5.912   5.971 -0.3556  2.6822 -1.0690
  356MOL0     H48035  13.989   5.951   5.822 -0.8207 -0.4400 -1.7147
  356MOL0     H48036  14.123   5.737   5.992  0.6932 -1.1800 -0.4448
  356MOL0     H48037  14.184   5.786   5.835 -2.5774 -0.3339 -1.8998
  356MOL0     H48038  14.285   5.900   6.037  0.1536 -1.5133 -0.6955
  356MOL0     H48039  14.137   5.993   6.041  0.3138 -1.6516  1.5810
  356MOL0     H48040  14.207   6.084   5.796  0.3458  0.9200  0.8679
  356MOL0     H48041  14.345   5.964   5.813  0.3393 -0.9396  2.6600
  356MOL0     H48042  13.321   5.921   5.746 -0.0416  0.6962  0.6439
  356MOL0     H48043  13.084   5.957   5.725  3.7471  0.8225  2.8902
  356MOL0     H48044  12.578   5.573   5.751 -0.3331 -0.9326 -1.8628
  356MOL0     H48045  12.349   5.633   5.727  0.3482 -0.0169  1.5099
  356MOL0     H48046  11.560   7.233   6.043  0.3814 -1.6231  2.2034
  356MOL0     H48047  11.371   7.310   6.156  2.9254 -2.7188  3.5518
  356MOL0     H48048  11.079   7.457   6.251 -0.0526  0.0033 -0.4169
  356MOL0     H48049  10.937   7.598   6.384 -1.2799  1.0222 -1.9644
  356MOL0     H48050  10.824   7.711   6.565  0.4308  1.7811  0.1502
  356MOL0     H48051  10.755   7.737   6.405  1.7686  0.5293  0.5372
  356MOL0     H48052  10.645   7.872   6.575  2.2924 -0.4235  4.8537
  356MOL0     H48053  10.599   7.728   6.675 -1.7779 -2.6026 -0.9112
  356MOL0     H48054  10.456   7.652   6.482 -0.6161 -0.4218  0.5143
  356MOL0     H48055  10.511   7.786   6.384 -0.9235  2.8359  1.3370
  356MOL0     H48056  10.396   7.938   6.553 -2.6110  0.9309  1.9125
  356MOL0     H48057  10.347   7.796   6.638  1.8009  0.1905  1.2696
  356MOL0     H48058  10.041   7.835   6.344 -0.0165  2.2797  1.0870
  356MOL0     H48059  10.640   7.282   6.431 -0.7837 -0.2087 -1.8270
  356MOL0     H48060  10.795   7.140   6.287  3.7031 -0.3394 -3.4782
  357MOL0     O48061  11.347   1.333   8.029  1.1178  0.3041  0.4602
  357MOL0     C48062  11.439   1.270   8.081  0.5017  1.0630  0.4253
  357MOL0     O48063  11.436   1.135   8.102 -0.4266  0.3279  0.0765
  357MOL0     C48064  11.321   1.058   8.085 -0.1697  0.3297  0.1037
  357MOL0     C48065  11.196   1.090   8.131  0.2494  0.3164 -0.0538
  357MOL0     C48066  11.080   1.011   8.108 -0.2411  0.3203  0.6005
  357MOL0     C48067  11.091   0.896   8.025 -0.3612  0.1944 -0.1062
  357MOL0     O48068  11.000   0.795   8.013  0.3624  0.4725  0.0365
  357MOL0     C48069  10.890   0.782   8.107 -0.2669  0.9166  0.6135
  357MOL0     C48070  10.761   0.853   8.071  0.4573 -0.2602 -0.0150
  357MOL0     C48071  10.674   0.873   8.196  0.8299  0.1224 -0.0568
  357MOL0     C48072  10.538   0.940   8.168 -0.8520  0.7324 -0.1699
  357MOL0     C48073  10.478   1.007   8.293 -0.5311 -0.1809  0.6637
  357MOL0     C48074  10.325   1.008   8.309 -0.6764 -0.1581  0.6779
  357MOL0     C48075  10.301   1.065   8.451  1.3334  0.2908 -0.0068
  357MOL0     C48076  10.146   1.082   8.477  0.8972  0.0084 -0.4445
  357MOL0     N48077  10.068   0.955   8.486  0.3651 -0.0410  0.2653
  357MOL0     C48078  10.055   0.877   8.595  0.9169  0.2001 -0.5914
  357MOL0     C48079   9.971   0.772   8.562  0.0987 -0.6614 -0.6462
  357MOL0     C48080   9.924   0.670   8.660 -0.2231 -0.3059  0.4326
  357MOL0     C48081   9.774   0.651   8.669  0.0155 -0.7355 -0.8496
  357MOL0     C48082   9.732   0.525   8.735  0.0288  0.0058 -0.0747
  357MOL0     C48083   9.581   0.511   8.751  0.4336  0.4319 -0.2839
  357MOL0     O48084   9.525   0.632   8.811 -0.1353  0.6196 -0.4766
  357MOL0     C48085   9.396   0.640   8.853 -0.0067 -0.1376 -1.0405
  357MOL0     C48086   9.355   0.747   8.926 -0.1161  0.2925 -0.1753
  357MOL0     C48087   9.226   0.763   8.979 -0.3808  0.7602  0.6181
  357MOL0     C48088   9.184   0.901   9.034 -0.1807  0.1071  0.3133
  357MOL0     C48089   9.134   0.660   8.951  0.0840 -0.5348 -0.4114
  357MOL0     C48090   8.987   0.670   8.978  0.4282  0.0189 -0.4577
  357MOL0     O48091   8.910   0.573   8.910  0.2267 -0.5181  0.8710
  357MOL0     C48092   8.773   0.564   8.932  0.1760  0.0524 -0.8721
  357MOL0     C48093   8.719   0.479   9.029  0.2647  0.4436 -0.0626
  357MOL0     C48094   8.584   0.479   9.044 -0.1718 -0.1382 -0.7276
  357MOL0     C48095   8.498   0.558   8.966  0.5326  0.0184 -0.0033
  357MOL0     O48096   8.362   0.544   8.985 -0.5643 -0.1741  0.3827
  357MOL0     C48097   8.282   0.549   8.866 -0.0834 -0.3092  0.1825
  357MOL0     C48098   8.137   0.523   8.906 -0.0776 -1.2514  0.5758
  357MOL0     C48099   8.102   0.377   8.924  0.0314  0.6305 -0.2757
  357MOL0     C48100   8.087   0.296   8.786 -1.0465  0.0376 -0.3867
  357MOL0     C48101   8.008   0.362   8.686 -0.4057  0.5615 -0.1225
  357MOL0     C48102   7.866   0.389   8.740  0.9334 -0.6447  0.3934
  357MOL0     C48103   7.786   0.260   8.769 -0.8669 -0.9308 -0.7598
  357MOL0     C48104   7.646   0.291   8.719 -0.1907 -0.1318  0.5668
  357MOL0    Cl48105   7.614   0.325   8.542 -0.1474 -0.2323 -0.0892
  357MOL0     C48106   8.555   0.645   8.869  0.4288  0.4458  0.5320
  357MOL0     C48107   8.695   0.651   8.849 -0.7904 -0.1462 -1.0072
  357MOL0     O48108   8.942   0.742   9.068 -0.2000 -0.0766 -0.2431
  357MOL0     C48109   9.182   0.545   8.888  0.7696 -0.0008  0.3324
  357MOL0     C48110   9.308   0.530   8.846  0.3443 -0.7774 -0.2566
  357MOL0     N48111   9.953   0.781   8.424 -1.1729  0.0548 -0.2953
  357MOL0     N48112  10.014   0.890   8.385  0.8475  0.7589  0.3398
  357MOL0     C48113  11.224   0.867   7.983  0.3012 -0.0583 -0.5826
  357MOL0     C48114  11.344   0.937   8.014  0.6876 -0.8282 -0.1013
  357MOL0     C48115  11.552   1.347   8.134 -0.1990  0.0037  0.0394
  357MOL0     C48116  11.547   1.493   8.114 -0.2686  0.5361 -0.1075
  357MOL0     C48117  11.651   1.574   8.156 -0.0538  0.8921  0.8505
  357MOL0     C48118  11.754   1.525   8.237  1.0417 -0.1338  0.1565
  357MOL0     O48119  11.858   1.593   8.282 -0.3744 -0.4160 -1.2071
  357MOL0     C48120  11.853   1.743   8.271  0.1174  0.5126  0.3022
  357MOL0     C48121  11.904   1.802   8.137 -0.8240 -0.0569 -0.5339
  357MOL0     C48122  12.059   1.800   8.137 -0.3376  0.3921  0.5428
  357MOL0     C48123  12.116   1.897   8.245 -0.1921  0.4694  0.6707
  357MOL0     C48124  12.069   2.037   8.241 -0.3824 -0.0329 -0.1378
  357MOL0     C48125  12.044   2.153   8.247 -0.0153  0.5633  0.0133
  357MOL0     C48126  11.748   1.382   8.258 -0.8087  1.0343 -0.4175
  357MOL0     C48127  11.661   1.289   8.199 -0.7247 -0.1911  0.0074
  357MOL0     H48128  11.176   1.179   8.190 -1.5108  0.6883 -1.1405
  357MOL0     H48129  10.986   1.045   8.151 -0.0877 -1.4345  2.4466
  357MOL0     H48130  10.877   0.674   8.111  1.2622  0.3072 -4.3388
  357MOL0     H48131  10.921   0.815   8.207 -2.3735 -0.3919  1.7727
  357MOL0     H48132  10.786   0.955   8.039 -0.4238 -0.2204 -0.6204
  357MOL0     H48133  10.706   0.807   7.989  1.1563 -1.4542  0.1730
  357MOL0     H48134  10.661   0.781   8.255  2.4212 -0.1441 -0.0648
  357MOL0     H48135  10.727   0.938   8.266  1.9153  0.2256 -0.9482
  357MOL0     H48136  10.530   1.008   8.083  0.1208 -0.6684 -1.4162
  357MOL0     H48137  10.471   0.854   8.153 -2.0668  1.0294  2.8403
  357MOL0     H48138  10.523   0.961   8.382 -0.1013 -0.7833  0.1402
  357MOL0     H48139  10.508   1.112   8.307 -2.4875  0.4017  0.8138
  357MOL0     H48140  10.276   1.072   8.235  1.3186  3.2314  2.0727
  357MOL0     H48141  10.277   0.910   8.321 -2.4889  1.0791  5.7134
  357MOL0     H48142  10.340   0.999   8.529 -0.5513  0.0357  0.7756
  357MOL0     H48143  10.345   1.164   8.459  0.7244  0.7345 -1.6911
  357MOL0     H48144  10.100   1.140   8.397 -3.0968 -2.5778 -0.3145
  357MOL0     H48145  10.128   1.135   8.572  2.6099  0.4880 -0.3625
  357MOL0     H48146  10.086   0.915   8.692  1.5172  0.3168 -0.8272
  357MOL0     H48147   9.970   0.572   8.643 -2.5548 -1.7605  1.8697
  357MOL0     H48148   9.960   0.701   8.758 -0.9872 -1.2252  1.0206
  357MOL0     H48149   9.725   0.658   8.571 -2.3811 -0.9606  0.2521
  357MOL0     H48150   9.745   0.739   8.728  1.1523 -1.1738  0.3979
  357MOL0     H48151   9.783   0.519   8.831  1.8479  0.6635 -0.9460
  357MOL0     H48152   9.769   0.444   8.671  0.1771  1.6446 -2.2006
  357MOL0     H48153   9.562   0.417   8.804 -2.0193  0.4543 -1.0271
  357MOL0     H48154   9.531   0.501   8.654 -1.1872 -1.8615  0.7004
  357MOL0     H48155   9.433   0.822   8.930  0.3838 -0.2543  0.8181
  357MOL0     H48156   9.272   0.964   9.046  2.5635 -2.3231 -4.1978
  357MOL0     H48157   9.134   0.956   8.954  1.8713 -1.8224 -2.4904
  357MOL0     H48158   9.115   0.890   9.118 -0.5758  0.7973  0.0840
  357MOL0     H48159   8.788   0.415   9.083 -0.5299  0.0160  0.4599
  357MOL0     H48160   8.557   0.410   9.124 -0.1313  0.5718 -0.0883
  357MOL0     H48161   8.279   0.648   8.819  4.0051 -0.8830 -1.8449
  357MOL0     H48162   8.328   0.484   8.791  0.1153 -0.7485  0.6778
  357MOL0     H48163   8.117   0.578   8.999 -0.9631 -1.2826  0.4107
  357MOL0     H48164   8.064   0.565   8.837  0.5639 -0.5872  0.2796
  357MOL0     H48165   8.005   0.374   8.975  0.8638 -1.5563  1.3592
  357MOL0     H48166   8.173   0.326   8.990  0.6681 -0.0366 -1.4423
  357MOL0     H48167   8.187   0.278   8.745  0.4542  2.9771  1.6171
  357MOL0     H48168   8.051   0.195   8.809  2.0756 -1.1439 -0.1924
  357MOL0     H48169   8.012   0.293   8.601  1.8614 -3.2371  2.7305
  357MOL0     H48170   8.058   0.455   8.657  0.8652 -0.1604 -0.3077
  357MOL0     H48171   7.866   0.451   8.830  3.0223  1.1592 -0.7509
  357MOL0     H48172   7.817   0.462   8.675  5.0146  1.8079 -0.2661
  357MOL0     H48173   7.791   0.218   8.870  1.0103 -0.7002 -0.7180
  357MOL0     H48174   7.832   0.187   8.702  1.7704 -0.5961  0.5198
  357MOL0     H48175   7.607   0.370   8.783  0.3632  0.5792  0.0404
  357MOL0     H48176   7.583   0.205   8.742  3.2626 -2.2650  3.0303
  357MOL0     H48177   8.485   0.695   8.802  0.9360 -1.5699 -1.6610
  357MOL0     H48178   8.746   0.715   8.778  1.6472 -1.5207 -0.5985
  357MOL0     H48179   9.123   0.464   8.846  0.9730  0.2805 -0.5346
  357MOL0     H48180   9.343   0.441   8.796 -0.8696 -1.6263  0.3633
  357MOL0     H48181  11.234   0.774   7.929  0.9536  0.4960 -1.4614
  357MOL0     H48182  11.444   0.910   7.981  2.0536  1.7340  1.6640
  357MOL0     H48183  11.457   1.534   8.070  1.4444  2.1785 -2.2975
  357MOL0     H48184  11.646   1.673   8.112 -0.9207  0.2216 -0.6484
  357MOL0     H48185  11.748   1.773   8.277 -0.5838 -1.9770  4.8702
  357MOL0     H48186  11.891   1.797   8.359 -0.4583  2.1740 -0.4183
  357MOL0     H48187  11.874   1.904   8.112 -0.3920 -0.1653 -1.5368
  357MOL0     H48188  11.865   1.739   8.057 -2.5318 -2.5608  2.0487
  357MOL0     H48189  12.102   1.838   8.044  2.9823 -0.8334  1.4643
  357MOL0     H48190  12.086   1.694   8.135 -0.6754  0.2977 -1.4057
  357MOL0     H48191  12.220   1.903   8.213 -0.4780 -0.7646 -0.5651
  357MOL0     H48192  12.100   1.847   8.341 -0.5286 -0.7453  0.0042
  357MOL0     H48193  12.024   2.258   8.252  2.9870  1.1728  1.8031
  357MOL0     H48194  11.832   1.336   8.308 -0.9890  1.0497 -0.0969
  357MOL0     H48195  11.688   1.184   8.207  0.0995  0.0789  1.2039
  358MOL0     O48196   3.132   9.780   6.255 -0.5873  0.0653 -0.0672
  358MOL0     C48197   3.065   9.859   6.187 -0.7840  0.0819  0.7516
  358MOL0     O48198   2.931   9.858   6.173 -0.0531  0.0560  0.8869
  358MOL0     C48199   2.868   9.762   6.246 -0.2910  1.0254  0.3730
  358MOL0     C48200   2.848   9.632   6.209 -0.6178  0.2639  0.2067
  358MOL0     C48201   2.759   9.549   6.280 -0.1002  0.1979  0.1352
  358MOL0     C48202   2.681   9.603   6.381 -0.7680 -0.4344 -0.0622
  358MOL0     O48203   2.593   9.533   6.457  0.1619 -0.0603  0.0168
  358MOL0     C48204   2.575   9.395   6.424  0.9559 -0.6634  0.1081
  358MOL0     C48205   2.441   9.340   6.494  1.2254 -1.1633  0.6075
  358MOL0     C48206   2.431   9.195   6.468  0.1796 -0.7556 -0.8734
  358MOL0     C48207   2.320   9.134   6.560 -1.1119 -0.5492  1.0760
  358MOL0     C48208   2.311   8.996   6.501  0.1724 -0.7794  1.2031
  358MOL0     C48209   2.202   8.920   6.582  0.1585 -0.6869  0.0592
  358MOL0     C48210   2.192   8.776   6.545 -0.3541  0.5144  0.8450
  358MOL0     C48211   2.310   8.688   6.594 -0.0185 -0.7344  0.2897
  358MOL0     N48212   2.321   8.549   6.538  0.0486  0.3071 -0.4420
  358MOL0     C48213   2.271   8.440   6.604  0.2057 -0.1775 -0.4031
  358MOL0     C48214   2.268   8.349   6.507  0.9986  0.5898  0.9149
  358MOL0     C48215   2.219   8.212   6.514 -0.1384 -0.5419  0.6973
  358MOL0     C48216   2.269   8.144   6.643  0.1549  0.2753 -1.0678
  358MOL0     C48217   2.307   8.000   6.631  0.1956 -0.5791  0.0626
  358MOL0     C48218   2.373   7.945   6.752 -1.4614 -0.7581 -0.8721
  358MOL0     O48219   2.273   7.872   6.827  0.1683  0.0976 -0.1339
  358MOL0     C48220   2.268   7.733   6.827 -0.5471  1.2619  0.1200
  358MOL0     C48221   2.351   7.650   6.746  0.2914  0.0874 -0.4380
  358MOL0     C48222   2.338   7.512   6.747  0.1132  0.9565  0.1848
  358MOL0     C48223   2.422   7.435   6.638  0.7602 -0.1379 -1.0250
  358MOL0     C48224   2.251   7.448   6.843  0.9610 -0.1262 -0.3250
  358MOL0     C48225   2.217   7.303   6.849 -0.4670  1.0732 -0.2969
  358MOL0     O48226   2.283   7.218   6.783 -0.4131 -0.3208 -0.1854
  358MOL0     C48227   2.262   7.080   6.781 -0.0262  0.3025  0.5730
  358MOL0     C48228   2.365   7.011   6.710 -0.2648 -1.3353  0.5255
  358MOL0     C48229   2.344   6.878   6.677  0.1559 -0.3578 -0.2564
  358MOL0     C48230   2.224   6.813   6.707  0.7673  0.1249  0.5612
  358MOL0     O48231   2.185   6.685   6.660  0.2506 -0.4287 -0.1097
  358MOL0     C48232   2.270   6.616   6.563  0.6326  1.1970 -0.4101
  358MOL0     C48233   2.195   6.504   6.502  0.5203  0.1373  0.4401
  358MOL0     C48234   2.114   6.557   6.383  0.7309 -0.8807  0.4158
  358MOL0     C48235   2.007   6.453   6.355 -0.4611 -0.8419 -0.3986
  358MOL0     C48236   1.938   6.468   6.224  0.3269  0.4794  0.5484
  358MOL0     C48237   1.826   6.368   6.206 -0.3089  0.2114 -1.0141
  358MOL0     C48238   1.718   6.400   6.110 -0.2187 -0.4392 -0.0386
  358MOL0     C48239   1.653   6.276   6.039 -0.7471 -0.2474 -0.7721
  358MOL0    Cl48240   1.550   6.203   6.162 -0.0270 -0.1082  0.3181
  358MOL0     C48241   2.119   6.879   6.777  0.0272  0.5696  0.3563
  358MOL0     C48242   2.133   7.015   6.816 -0.7700  0.5471 -0.4008
  358MOL0     O48243   2.124   7.278   6.913  1.4391  0.1860 -0.1946
  358MOL0     C48244   2.180   7.538   6.933 -0.5169 -0.7342 -0.1381
  358MOL0     C48245   2.197   7.675   6.932  0.8838  0.1997  0.4888
  358MOL0     N48246   2.323   8.396   6.392 -0.0592 -0.0924 -0.5030
  358MOL0     N48247   2.354   8.517   6.414 -0.0577 -0.0846  0.7359
  358MOL0     C48248   2.698   9.734   6.419 -0.0260  0.1047 -0.6062
  358MOL0     C48249   2.786   9.812   6.350 -0.4401 -0.1957  0.4761
  358MOL0     C48250   3.139   9.961   6.109 -0.2755 -0.1992  0.4245
  358MOL0     C48251   3.069  10.079   6.073 -0.1152 -0.0968 -0.3730
  358MOL0     C48252   3.128  10.167   5.977  0.4017 -0.7078  0.5933
  358MOL0     C48253   3.259  10.150   5.932  0.3462 -0.2753 -0.2322
  358MOL0     O48254   3.326  10.233   5.852 -0.1859 -0.3004 -0.1122
  358MOL0     C48255   3.291  10.374   5.852 -0.1688  0.1475 -0.9515
  358MOL0     C48256   3.419  10.457   5.801  0.3015 -0.5122  1.2004
  358MOL0     C48257   3.545  10.418   5.865  0.2439 -0.0308  0.0901
  358MOL0     C48258   3.545  10.432   6.014 -0.1514  0.7313 -0.7773
  358MOL0     C48259   3.512  10.563   6.060  0.3449  0.0954  0.6772
  358MOL0     C48260   3.485  10.668   6.107  0.4308 -0.1756  0.2674
  358MOL0     C48261   3.332  10.040   5.974 -0.2696 -0.1351  0.2418
  358MOL0     C48262   3.277   9.948   6.061 -0.6923  1.7136  0.5868
  358MOL0     H48263   2.905   9.592   6.126  2.4175  2.4711  1.0345
  358MOL0     H48264   2.756   9.444   6.253  0.0834  0.2395 -0.0560
  358MOL0     H48265   2.550   9.385   6.318  0.4173  0.6994  0.0821
  358MOL0     H48266   2.658   9.334   6.462  1.3443 -0.2096 -0.0004
  358MOL0     H48267   2.450   9.355   6.602  3.1325 -0.4837  0.3876
  358MOL0     H48268   2.344   9.386   6.472  1.4337 -0.7029  0.6450
  358MOL0     H48269   2.404   9.180   6.363 -0.5723 -0.8215 -0.6804
  358MOL0     H48270   2.526   9.146   6.489 -0.4392 -0.9967  1.6409
  358MOL0     H48271   2.359   9.137   6.662  2.9571  1.8025 -0.3104
  358MOL0     H48272   2.228   9.193   6.554 -0.4961  0.2631 -2.3890
  358MOL0     H48273   2.283   9.003   6.396 -1.1006  2.2539  1.6320
  358MOL0     H48274   2.407   8.945   6.512  2.7822  3.8098  2.6987
  358MOL0     H48275   2.220   8.923   6.690 -2.6252  2.7496  0.6265
  358MOL0     H48276   2.107   8.973   6.566  1.4109  1.5621 -0.3771
  358MOL0     H48277   2.101   8.731   6.586 -1.7995  1.3541 -1.2736
  358MOL0     H48278   2.182   8.768   6.437  0.8702 -0.1461  0.7634
  358MOL0     H48279   2.302   8.690   6.703 -2.2538 -1.7274  0.1874
  358MOL0     H48280   2.408   8.730   6.569 -0.7850  0.5114 -0.6938
  358MOL0     H48281   2.234   8.427   6.705  0.5790  1.6665  0.0168
  358MOL0     H48282   2.110   8.211   6.510 -0.1815 -1.0631  1.6570
  358MOL0     H48283   2.262   8.153   6.433 -0.5394  3.0426 -2.3554
  358MOL0     H48284   2.182   8.142   6.710 -0.1852 -0.8787 -1.5329
  358MOL0     H48285   2.355   8.191   6.691 -0.9313  2.7647 -1.4043
  358MOL0     H48286   2.384   7.999   6.554 -0.5924 -0.1462 -0.7436
  358MOL0     H48287   2.226   7.939   6.590  0.5808  0.7866 -3.0028
  358MOL0     H48288   2.417   8.025   6.811  3.2596 -3.9403  0.5574
  358MOL0     H48289   2.463   7.887   6.729  1.6307  3.1344  0.4416
  358MOL0     H48290   2.405   7.693   6.662  1.3483  1.0880  0.7121
  358MOL0     H48291   2.479   7.495   6.567  0.6698  1.8564  0.5046
  358MOL0     H48292   2.487   7.362   6.686  0.1950 -0.3718 -0.6103
  358MOL0     H48293   2.349   7.373   6.585 -0.0911  0.7715 -0.9477
  358MOL0     H48294   2.448   7.058   6.660 -2.7630 -0.1411 -2.8551
  358MOL0     H48295   2.425   6.828   6.624  0.4022 -0.3717  0.1294
  358MOL0     H48296   2.294   6.683   6.480  0.7939  1.7388  0.0654
  358MOL0     H48297   2.360   6.579   6.612 -0.9420 -0.8280  1.1773
  358MOL0     H48298   2.275   6.441   6.460 -0.2180  0.9338 -2.3898
  358MOL0     H48299   2.127   6.454   6.572 -0.6852 -1.0817 -1.5193
  358MOL0     H48300   2.186   6.568   6.301  1.5295  2.9945  1.4491
  358MOL0     H48301   2.062   6.651   6.404  1.7016 -0.4669  1.0413
  358MOL0     H48302   2.042   6.350   6.351 -1.6033 -1.3272  1.0290
  358MOL0     H48303   1.939   6.462   6.441 -0.6571  0.0415 -0.6363
  358MOL0     H48304   2.009   6.446   6.144 -0.1464 -3.0536  0.9649
  358MOL0     H48305   1.898   6.570   6.226 -1.4972 -0.1710  3.1246
  358MOL0     H48306   1.857   6.264   6.193  0.9229  0.0989  1.9430
  358MOL0     H48307   1.776   6.367   6.303  0.7348  0.6462 -0.4479
  358MOL0     H48308   1.763   6.461   6.031 -0.2902 -0.0183  0.2422
  358MOL0     H48309   1.645   6.468   6.155  1.4593  1.1570  0.4007
  358MOL0     H48310   1.729   6.202   6.013 -0.0778 -0.1263  0.6900
  358MOL0     H48311   1.595   6.300   5.950 -1.2504  0.3003 -0.3047
  358MOL0     H48312   2.032   6.825   6.812 -0.8842  2.3128  0.9469
  358MOL0     H48313   2.057   7.051   6.884  2.0151  1.3527  2.5432
  358MOL0     H48314   2.125   7.495   7.016  0.6340 -1.0644  0.4710
  358MOL0     H48315   2.157   7.747   7.003  0.4316 -0.2995  0.7438
  358MOL0     H48316   2.640   9.770   6.504  0.4831 -0.5596  0.0450
  358MOL0     H48317   2.796   9.917   6.376  4.5042  0.1600 -1.6964
  358MOL0     H48318   2.965  10.099   6.099  0.1063 -1.4082  1.7644
  358MOL0     H48319   3.061  10.241   5.932 -0.5072  0.4441  3.6240
  358MOL0     H48320   3.214  10.391   5.776 -0.3972 -0.6225 -0.8981
  358MOL0     H48321   3.242  10.421   5.938 -1.0237 -1.4829 -0.4957
  358MOL0     H48322   3.396  10.564   5.800  3.1087  0.1933 -0.8187
  358MOL0     H48323   3.427  10.415   5.700 -0.1357 -1.2378  1.4548
  358MOL0     H48324   3.622  10.490   5.833 -1.4903  1.0348 -1.9118
  358MOL0     H48325   3.578  10.321   5.826  3.7793  0.7606  0.7696
  358MOL0     H48326   3.646  10.411   6.051 -1.4590  0.6801  3.2793
  358MOL0     H48327   3.477  10.358   6.056 -1.0709  0.5008 -2.5785
  358MOL0     H48328   3.468  10.762   6.157  0.4368 -1.6461  3.2086
  358MOL0     H48329   3.435  10.018   5.947 -0.8851 -1.6985 -0.9396
  358MOL0     H48330   3.334   9.860   6.088 -2.5198  0.2452 -0.1166
  359MOL0     O48331   9.153   4.558   1.167  0.5871 -0.7697  0.3634
  359MOL0     C48332   9.232   4.612   1.086  0.8394 -0.8232 -0.4848
  359MOL0     O48333   9.210   4.611   0.952 -0.5791 -0.1897  0.0046
  359MOL0     C48334   9.094   4.561   0.901 -0.5083 -0.3592 -0.0448
  359MOL0     C48335   8.968   4.618   0.937  0.0615  0.0477 -0.3321
  359MOL0     C48336   8.854   4.561   0.881  0.2127 -1.0893 -0.0366
  359MOL0     C48337   8.863   4.457   0.795  0.2623  0.5392  0.0466
  359MOL0     O48338   8.750   4.420   0.729  0.5538 -0.7883 -0.9252
  359MOL0     C48339   8.731   4.475   0.599 -0.3352 -0.2936  0.5518
  359MOL0     C48340   8.603   4.426   0.546  0.2750 -0.1858  0.1278
  359MOL0     C48341   8.495   4.520   0.605  0.6184  1.2027  0.6584
  359MOL0     C48342   8.365   4.496   0.523 -0.5800  0.4669 -0.2714
  359MOL0     C48343   8.252   4.565   0.587  0.5568 -0.3448  0.1692
  359MOL0     C48344   8.125   4.571   0.507 -0.3870  0.3703  0.1345
  359MOL0     C48345   8.124   4.608   0.362  0.9310  0.4471 -0.5924
  359MOL0     C48346   8.169   4.752   0.321  0.0134  0.7134  0.3994
  359MOL0     N48347   8.109   4.870   0.377  0.0882 -0.6414 -1.3783
  359MOL0     C48348   8.176   4.948   0.471  0.9143  0.3630 -0.4591
  359MOL0     C48349   8.101   5.069   0.475  0.5541  0.8332 -0.3575
  359MOL0     C48350   8.123   5.197   0.562 -1.0925 -0.1063  0.0565
  359MOL0     C48351   8.271   5.208   0.596 -0.8957 -0.1617 -0.3181
  359MOL0     C48352   8.302   5.335   0.675 -0.4008  0.2040  0.4295
  359MOL0     C48353   8.445   5.361   0.690 -0.0673  0.0288  0.7031
  359MOL0     O48354   8.456   5.478   0.778  0.1156 -0.0980  0.1044
  359MOL0     C48355   8.584   5.511   0.818  0.1264  0.4671 -0.4096
  359MOL0     C48356   8.692   5.432   0.798 -0.7812  0.1721 -0.7962
  359MOL0     C48357   8.826   5.477   0.833 -0.6251 -0.4938 -0.2033
  359MOL0     C48358   8.943   5.387   0.801  0.5478  0.5441  0.3962
  359MOL0     C48359   8.846   5.611   0.878 -0.4598  0.4236  0.8048
  359MOL0     C48360   8.979   5.668   0.923 -0.0144 -0.2803  0.0599
  359MOL0     O48361   8.988   5.803   0.933  0.3677 -0.8117 -0.5044
  359MOL0     C48362   9.110   5.850   0.961  0.5576  0.6086 -0.7177
  359MOL0     C48363   9.130   5.894   1.094  0.2241 -1.1562 -0.1249
  359MOL0     C48364   9.251   5.932   1.138  0.6123 -0.8012 -0.1275
  359MOL0     C48365   9.353   5.958   1.043  0.4089 -0.1195  0.1683
  359MOL0     O48366   9.473   6.002   1.092 -0.2673  0.1683  0.4152
  359MOL0     C48367   9.584   5.988   1.002 -0.1569  0.1848 -0.2643
  359MOL0     C48368   9.699   6.071   1.064  0.2564 -0.8684  0.5103
  359MOL0     C48369   9.722   6.060   1.212  0.1505  0.3682 -0.0212
  359MOL0     C48370   9.845   6.127   1.259 -0.4480 -1.1162  0.6363
  359MOL0     C48371   9.874   6.091   1.402 -0.6478  0.5427  0.0556
  359MOL0     C48372   9.975   5.972   1.414 -0.5827  0.2982  0.0805
  359MOL0     C48373  10.122   6.023   1.414 -1.2092  0.7805 -0.7889
  359MOL0     C48374  10.223   5.910   1.438  0.1005 -0.5313 -0.5804
  359MOL0    Cl48375  10.390   5.966   1.387  0.2549  0.2842  0.0438
  359MOL0     C48376   9.321   5.921   0.909 -0.3666 -0.9033 -0.1794
  359MOL0     C48377   9.202   5.874   0.870 -0.4469  0.2293  0.7301
  359MOL0     O48378   9.079   5.592   0.941 -0.0458  0.2371  0.0441
  359MOL0     C48379   8.727   5.687   0.888  0.0959  0.3509  0.0453
  359MOL0     C48380   8.600   5.638   0.853 -0.5174  0.3056  0.2453
  359MOL0     N48381   7.987   5.052   0.388  0.3191 -0.3002 -0.6479
  359MOL0     N48382   7.998   4.939   0.334  0.8135 -0.7421  0.1564
  359MOL0     C48383   8.986   4.398   0.761 -1.0124 -0.5103 -0.1403
  359MOL0     C48384   9.101   4.459   0.810  1.1858 -0.1025  0.0155
  359MOL0     C48385   9.366   4.660   1.108  0.3098  0.1964  0.1215
  359MOL0     C48386   9.432   4.742   1.026  0.4850 -0.3267 -0.0251
  359MOL0     C48387   9.563   4.782   1.054  0.0273 -0.0278 -0.0592
  359MOL0     C48388   9.634   4.737   1.166  0.1293  0.1435 -0.7677
  359MOL0     O48389   9.766   4.777   1.173 -0.1708  0.0085  0.4666
  359MOL0     C48390   9.852   4.749   1.293 -0.3314 -0.1219  0.3970
  359MOL0     C48391   9.912   4.605   1.305 -0.2521  0.9770  0.0810
  359MOL0     C48392  10.018   4.585   1.202  0.0950 -0.1860  0.3335
  359MOL0     C48393  10.167   4.597   1.251  0.6564  0.0533 -0.0531
  359MOL0     C48394  10.208   4.739   1.241 -0.4703 -0.0330 -0.9077
  359MOL0     C48395  10.255   4.853   1.259 -0.1449  0.2531  0.3237
  359MOL0     C48396   9.565   4.665   1.259  0.6971 -0.2830 -0.9693
  359MOL0     C48397   9.431   4.617   1.225 -0.6628  0.1296 -0.4960
  359MOL0     H48398   8.958   4.710   0.994  1.0987 -0.0102 -0.0388
  359MOL0     H48399   8.758   4.610   0.891  0.1572 -0.5537 -2.6145
  359MOL0     H48400   8.752   4.583   0.592  1.6435 -0.7084 -0.8337
  359MOL0     H48401   8.797   4.423   0.528 -2.4182  1.6131 -3.0417
  359MOL0     H48402   8.597   4.429   0.437  1.7225 -0.5774  0.0141
  359MOL0     H48403   8.592   4.322   0.580 -0.9483  0.6307  2.4024
  359MOL0     H48404   8.465   4.494   0.707 -0.8196  0.8382  0.1699
  359MOL0     H48405   8.513   4.628   0.595 -0.4709  1.5331  1.9901
  359MOL0     H48406   8.384   4.538   0.424 -0.6058 -1.9282 -1.3456
  359MOL0     H48407   8.343   4.390   0.514 -0.0006  0.3973 -0.9583
  359MOL0     H48408   8.213   4.502   0.667 -2.5740  0.7542 -0.3417
  359MOL0     H48409   8.280   4.662   0.629 -0.7258  0.5040 -0.8811
  359MOL0     H48410   8.077   4.473   0.496 -1.0453  0.9535 -4.0440
  359MOL0     H48411   8.057   4.637   0.562  0.4644  3.2255 -1.9909
  359MOL0     H48412   8.185   4.549   0.292  1.1189  2.8844 -2.6614
  359MOL0     H48413   8.016   4.604   0.345  0.2713  1.2688  2.6599
  359MOL0     H48414   8.151   4.762   0.213  0.1639 -1.5675  0.1132
  359MOL0     H48415   8.277   4.741   0.324 -0.0159  0.4831  0.6209
  359MOL0     H48416   8.265   4.918   0.526 -0.1592  1.0386  1.7664
  359MOL0     H48417   8.097   5.289   0.509  1.4324  1.6335  1.6217
  359MOL0     H48418   8.063   5.195   0.654  1.4448 -0.6080  1.7883
  359MOL0     H48419   8.325   5.195   0.502 -1.3510 -1.2268 -0.4378
  359MOL0     H48420   8.290   5.121   0.660 -1.7407  0.1107  0.3277
  359MOL0     H48421   8.251   5.312   0.769 -1.3672 -1.1635 -0.4119
  359MOL0     H48422   8.258   5.428   0.638 -3.0631 -0.9188  0.5443
  359MOL0     H48423   8.514   5.373   0.606 -1.3222 -0.8422 -0.5006
  359MOL0     H48424   8.485   5.272   0.741 -0.5475 -1.1563 -0.9118
  359MOL0     H48425   8.682   5.327   0.773 -0.4214  0.0898 -0.6000
  359MOL0     H48426   8.910   5.292   0.759  1.7719  0.9056 -1.5215
  359MOL0     H48427   9.015   5.433   0.733  0.7283  0.2766  0.4069
  359MOL0     H48428   8.994   5.362   0.895  0.5667  1.4279  0.6362
  359MOL0     H48429   9.049   5.912   1.164  1.3532 -1.2629  1.2373
  359MOL0     H48430   9.261   5.957   1.243 -3.2146  1.4401 -0.1193
  359MOL0     H48431   9.617   5.884   1.009  0.6139  0.5338  2.8533
  359MOL0     H48432   9.561   6.025   0.901 -0.8978  1.4978  0.3590
  359MOL0     H48433   9.790   6.052   1.007  0.9361  2.0451  0.4644
  359MOL0     H48434   9.669   6.174   1.041 -2.0271 -2.0047 -2.2870
  359MOL0     H48435   9.715   5.953   1.234 -0.0189  0.2931 -0.4291
  359MOL0     H48436   9.643   6.121   1.258  1.4332 -0.8954  4.2786
  359MOL0     H48437   9.924   6.101   1.188 -1.3080  0.2545 -0.9088
  359MOL0     H48438   9.812   6.231   1.269 -0.1185 -0.9627  0.1653
  359MOL0     H48439   9.788   6.055   1.459  2.0935 -2.3999  2.7605
  359MOL0     H48440   9.923   6.179   1.445  0.5870  0.2578 -0.7277
  359MOL0     H48441   9.949   5.939   1.515  2.3173  0.9260  1.1268
  359MOL0     H48442   9.955   5.892   1.342 -0.4056 -1.5608  1.9829
  359MOL0     H48443  10.130   6.105   1.486  0.5265 -0.2769  0.3113
  359MOL0     H48444  10.146   6.068   1.317 -0.1627  0.7050 -0.5713
  359MOL0     H48445  10.205   5.821   1.378  0.9344 -0.0014 -1.6552
  359MOL0     H48446  10.226   5.883   1.544  0.6406  0.6718 -0.2669
  359MOL0     H48447   9.395   5.943   0.832 -0.7636 -1.0753 -0.6168
  359MOL0     H48448   9.184   5.836   0.770  0.9532  2.5351 -0.4805
  359MOL0     H48449   8.731   5.788   0.930 -1.9040  0.7418 -0.6140
  359MOL0     H48450   8.512   5.700   0.869 -1.5830 -0.6203 -1.7138
  359MOL0     H48451   8.981   4.322   0.684 -0.4846 -1.3976  0.6758
  359MOL0     H48452   9.196   4.426   0.770  0.7721  0.2492 -1.3001
  359MOL0     H48453   9.379   4.779   0.939 -0.8168 -1.2920  0.3115
  359MOL0     H48454   9.611   4.849   0.983 -1.4455  0.5688 -0.5270
  359MOL0     H48455   9.934   4.821   1.292 -2.1430  2.0649  0.1241
  359MOL0     H48456   9.797   4.767   1.385 -1.8390 -0.6180 -0.3730
  359MOL0     H48457   9.844   4.521   1.295  2.3198 -0.9419 -4.0430
  359MOL0     H48458   9.961   4.588   1.401 -0.9007  1.4946  0.5161
  359MOL0     H48459   9.999   4.650   1.116 -0.0691  1.9981  1.9280
  359MOL0     H48460   9.997   4.488   1.157 -1.1526  0.0853  0.3038
  359MOL0     H48461  10.229   4.540   1.181 -0.4169 -1.3390  0.0874
  359MOL0     H48462  10.180   4.554   1.351 -0.5559 -1.0618 -0.3591
  359MOL0     H48463  10.299   4.946   1.287  1.4504 -0.5116  0.4666
  359MOL0     H48464   9.597   4.650   1.362  0.6519 -0.6826 -1.0102
  359MOL0     H48465   9.379   4.565   1.305 -2.2105  2.8382  0.4087
  360MOL0     O48466   2.519   8.304  10.719 -0.0633 -0.3025  0.5844
  360MOL0     C48467   2.615   8.286  10.800  0.5683 -0.0811  0.6981
  360MOL0     O48468   2.683   8.385  10.860  0.0594  0.1087 -0.0688
  360MOL0     C48469   2.678   8.512  10.806  0.5636  0.9351  0.7559
  360MOL0     C48470   2.781   8.558  10.732  0.5652  0.1715 -0.1381
  360MOL0     C48471   2.789   8.691  10.674  1.0310 -0.2193  0.2360
  360MOL0     C48472   2.670   8.767  10.687 -0.7455  0.0689 -0.0030
  360MOL0     O48473   2.679   8.888  10.633 -0.0900  0.1704 -0.4637
  360MOL0     C48474   2.561   8.950  10.594 -0.0024  0.8280 -0.1099
  360MOL0     C48475   2.478   8.869  10.489 -1.0001 -0.7615  0.3159
  360MOL0     C48476   2.340   8.911  10.513  0.0570  0.6205 -0.4228
  360MOL0     C48477   2.242   8.821  10.440 -0.2854  0.0945 -0.0815
  360MOL0     C48478   2.102   8.824  10.501  0.8420  0.5503  0.3416
  360MOL0     C48479   2.032   8.954  10.463  0.5318  0.0909  0.2081
  360MOL0     C48480   1.917   8.997  10.563 -0.1611  1.1827  0.9194
  360MOL0     C48481   1.872   9.139  10.538  0.2949 -0.7918  1.4736
  360MOL0     N48482   1.795   9.165  10.407 -0.5334  0.1532 -0.0951
  360MOL0     C48483   1.705   9.259  10.390  0.2273 -1.2612  0.1427
  360MOL0     C48484   1.656   9.247  10.266 -0.1001 -0.2331  0.6108
  360MOL0     C48485   1.560   9.335  10.188  0.3377 -0.9059  0.8942
  360MOL0     C48486   1.432   9.244  10.150  0.5672 -0.4050 -0.2781
  360MOL0     C48487   1.313   9.333  10.126 -0.7414  0.8356  0.2177
  360MOL0     C48488   1.203   9.248  10.049 -0.2149  0.4962  0.4354
  360MOL0     O48489   1.120   9.326   9.963  0.1343  0.0102  0.4368
  360MOL0     C48490   1.002   9.263   9.916  1.5588 -1.0628 -0.1727
  360MOL0     C48491   1.006   9.132   9.857  0.1694 -0.5328 -0.1580
  360MOL0     C48492   0.891   9.067   9.815 -0.2928  0.1532 -0.0372
  360MOL0     C48493   0.898   8.920   9.779  0.2092 -0.2600 -0.0309
  360MOL0     C48494   0.772   9.145   9.797  0.5354 -0.5979 -0.2457
  360MOL0     C48495   0.645   9.110   9.745  1.5352  0.1944  0.9770
  360MOL0     O48496   0.544   9.208   9.751  0.0042 -0.0350  1.2812
  360MOL0     C48497   0.425   9.203   9.683 -0.0825  0.2434  0.1872
  360MOL0     C48498   0.356   9.324   9.668  0.6074  0.3545 -1.1705
  360MOL0     C48499   0.223   9.324   9.614  0.1951  0.7044  0.3478
  360MOL0     C48500   0.161   9.206   9.574 -0.2126  0.4989 -0.5094
  360MOL0     O48501   0.035   9.211   9.519  0.4114  0.2052 -0.4059
  360MOL0     C48502  -0.052   9.104   9.542  0.2234  0.2885  1.6261
  360MOL0     C48503  -0.190   9.180   9.558  0.9089  0.6486  0.1917
  360MOL0     C48504  -0.295   9.075   9.595 -0.8243 -0.8175  0.2639
  360MOL0     C48505  -0.272   9.019   9.733  0.4542  0.4051  0.3008
  360MOL0     C48506  -0.393   8.938   9.792  0.3536 -0.1777  0.8784
  360MOL0     C48507  -0.346   8.886   9.935 -0.4247  0.5456  0.9457
  360MOL0     C48508  -0.273   8.749   9.933  0.3100  0.4113  1.0022
  360MOL0     C48509  -0.290   8.692  10.074 -0.3553  0.2939 -0.7503
  360MOL0    Cl48510  -0.244   8.520  10.067  0.1539  0.1227  0.3473
  360MOL0     C48511   0.227   9.091   9.585 -0.2442 -0.1299 -0.6791
  360MOL0     C48512   0.354   9.081   9.642 -0.0196  0.3216 -0.3154
  360MOL0     O48513   0.638   9.012   9.686  0.0302  0.1863  0.0619
  360MOL0     C48514   0.770   9.279   9.860 -0.5851  0.3080  0.0306
  360MOL0     C48515   0.884   9.338   9.917 -0.3600  0.0875 -0.6699
  360MOL0     N48516   1.724   9.143  10.205 -0.3870  0.8256 -0.7120
  360MOL0     N48517   1.793   9.080  10.301 -0.2429 -0.6199  0.0723
  360MOL0     C48518   2.568   8.729  10.776  0.9079  0.3186 -0.1797
  360MOL0     C48519   2.563   8.593  10.819 -0.7911  0.2683  0.9118
  360MOL0     C48520   2.650   8.147  10.831 -0.6850  0.3747  0.0229
  360MOL0     C48521   2.611   8.034  10.758 -0.0418 -0.4680 -0.3141
  360MOL0     C48522   2.665   7.910  10.770 -0.0619 -0.6385 -0.1421
  360MOL0     C48523   2.774   7.893  10.855  0.1329  0.7020  0.2698
  360MOL0     O48524   2.829   7.768  10.861 -0.5831  0.2031 -0.1406
  360MOL0     C48525   2.963   7.748  10.911  0.0967 -0.0052  0.2348
  360MOL0     C48526   2.973   7.595  10.940  0.1962 -0.1499  0.1366
  360MOL0     C48527   2.867   7.555  11.047  0.3030 -0.1769  0.0230
  360MOL0     C48528   2.904   7.405  11.080  0.0118  0.3840  0.6691
  360MOL0     C48529   2.858   7.315  10.979  1.1263  0.0726 -0.3627
  360MOL0     C48530   2.834   7.236  10.890 -0.4063  0.3990  0.3524
  360MOL0     C48531   2.809   8.000  10.937  0.1993  1.1196  1.1928
  360MOL0     C48532   2.749   8.123  10.929  0.1801 -0.6062  0.5497
  360MOL0     H48533   2.860   8.487  10.712  1.5904  1.2533  0.0093
  360MOL0     H48534   2.869   8.730  10.613 -0.1606 -0.3391 -1.4832
  360MOL0     H48535   2.505   8.979  10.684 -0.5140  1.6931 -0.6913
  360MOL0     H48536   2.573   9.046  10.543 -1.0010  0.6362 -0.7358
  360MOL0     H48537   2.514   8.887  10.388 -1.3078 -0.7092  0.2132
  360MOL0     H48538   2.474   8.760  10.502 -0.1212 -0.9474 -0.8529
  360MOL0     H48539   2.310   8.905  10.618  1.9829  0.2310  0.1295
  360MOL0     H48540   2.334   9.010  10.466 -1.1617  0.3544 -0.8667
  360MOL0     H48541   2.243   8.846  10.334  1.1962 -0.0975 -0.1280
  360MOL0     H48542   2.275   8.716  10.441  0.2323  0.2540  0.1841
  360MOL0     H48543   2.055   8.735  10.457 -1.2730  2.6464 -1.9056
  360MOL0     H48544   2.114   8.814  10.609 -2.5002 -3.8088  0.5846
  360MOL0     H48545   2.102   9.038  10.465 -0.6436  1.1646 -1.7959
  360MOL0     H48546   2.008   8.948  10.357  2.1738  1.4026 -0.2814
  360MOL0     H48547   1.838   8.921  10.562  1.9478 -1.1690  0.6547
  360MOL0     H48548   1.957   8.993  10.665  2.7025  1.2673 -0.1184
  360MOL0     H48549   1.954   9.211  10.536  0.6865 -1.1137 -2.6943
  360MOL0     H48550   1.808   9.162  10.624 -0.9579 -3.7314  1.4327
  360MOL0     H48551   1.681   9.328  10.470  1.0415  0.0056 -0.6619
  360MOL0     H48552   1.531   9.422  10.249  0.4699  0.7136 -1.2395
  360MOL0     H48553   1.607   9.371  10.096 -1.8942 -2.2992 -0.8692
  360MOL0     H48554   1.420   9.197  10.248  2.3712  1.7063  1.0504
  360MOL0     H48555   1.460   9.173  10.073  2.6317 -0.1317  0.1599
  360MOL0     H48556   1.336   9.406  10.048 -1.5323  0.0736 -0.7556
  360MOL0     H48557   1.277   9.387  10.214  3.0170  1.2568  1.6591
  360MOL0     H48558   1.142   9.200  10.126  1.8285 -0.9601  1.2524
  360MOL0     H48559   1.246   9.174   9.981 -1.7602  2.9985 -3.6548
  360MOL0     H48560   1.105   9.088   9.853  2.5646  4.2781 -0.4875
  360MOL0     H48561   0.966   8.869   9.849  0.6352 -0.3797 -0.5291
  360MOL0     H48562   0.801   8.878   9.810  0.6314 -0.6150  0.8338
  360MOL0     H48563   0.909   8.884   9.677 -5.4285 -1.8041 -0.4302
  360MOL0     H48564   0.404   9.414   9.707  0.4108  0.7314 -1.7961
  360MOL0     H48565   0.165   9.416   9.611 -1.6460 -0.4178 -0.3493
  360MOL0     H48566  -0.064   9.047   9.449  0.7079  0.9816  1.1296
  360MOL0     H48567  -0.036   9.028   9.618 -3.8015 -0.9900  1.4425
  360MOL0     H48568  -0.176   9.245   9.645  0.2286 -0.7809  1.4083
  360MOL0     H48569  -0.230   9.237   9.473 -2.5185 -0.2942  0.9910
  360MOL0     H48570  -0.302   9.002   9.514  1.3816  0.8704 -1.5785
  360MOL0     H48571  -0.388   9.129   9.615 -0.0296  0.2427  1.3001
  360MOL0     H48572  -0.187   8.949   9.728  2.0192  2.1123  1.6411
  360MOL0     H48573  -0.252   9.098   9.805  1.1426  0.2367  0.3064
  360MOL0     H48574  -0.394   8.852   9.723  3.3538  1.0743 -0.9457
  360MOL0     H48575  -0.487   8.992   9.785  1.3781  1.5106 -1.4965
  360MOL0     H48576  -0.278   8.954   9.987  0.0666 -1.3805  2.9485
  360MOL0     H48577  -0.438   8.861   9.990  0.2759 -1.8711  1.1427
  360MOL0     H48578  -0.171   8.756   9.895  1.0382 -2.4625  2.1429
  360MOL0     H48579  -0.335   8.688   9.867  0.1433  4.1404 -2.6490
  360MOL0     H48580  -0.392   8.691  10.114 -0.1868 -0.6750 -0.3166
  360MOL0     H48581  -0.230   8.747  10.147  0.3871 -0.2548 -0.9376
  360MOL0     H48582   0.170   9.002   9.559 -0.0456 -0.7974  1.0255
  360MOL0     H48583   0.399   8.985   9.666 -0.2499  0.3722  0.3492
  360MOL0     H48584   0.679   9.339   9.857 -0.6305  0.2217 -0.6921
  360MOL0     H48585   0.869   9.418   9.988 -1.4464 -1.6660  1.2034
  360MOL0     H48586   2.486   8.795  10.803  0.9388 -0.5742  2.3783
  360MOL0     H48587   2.469   8.562  10.863 -2.5953  3.1565 -0.5488
  360MOL0     H48588   2.541   8.037  10.674  1.6378 -2.1051 -1.8619
  360MOL0     H48589   2.618   7.840  10.702  0.0807 -0.6109 -0.2696
  360MOL0     H48590   3.038   7.781  10.838  0.9785  1.3615  1.7025
  360MOL0     H48591   2.988   7.802  11.002 -2.0200 -1.0610  1.5224
  360MOL0     H48592   3.078   7.571  10.961  0.1345 -1.7651 -1.2061
  360MOL0     H48593   2.948   7.531  10.855 -3.0706 -0.3792  1.1419
  360MOL0     H48594   2.765   7.572  11.011  0.4601 -1.9070 -1.3069
  360MOL0     H48595   2.880   7.614  11.139  1.5839 -1.0180  0.4058
  360MOL0     H48596   2.864   7.364  11.173 -2.6053 -2.8040 -1.6353
  360MOL0     H48597   3.012   7.398  11.095 -0.0976  1.3283  2.0441
  360MOL0     H48598   2.814   7.165  10.812  4.1105  1.1724 -1.7976
  360MOL0     H48599   2.884   7.988  11.014  1.5855 -1.1129 -0.3880
  360MOL0     H48600   2.781   8.189  11.009 -0.6331 -4.5824  4.5618
  361MOL0     O48601  11.147   1.924   7.901 -0.0211  0.2977  0.9444
  361MOL0     C48602  11.212   1.993   7.822 -0.7311 -0.3678 -0.8432
  361MOL0     O48603  11.171   2.043   7.711 -0.0799  0.0886 -0.4977
  361MOL0     C48604  11.040   2.031   7.663  0.4541 -0.1001  0.7917
  361MOL0     C48605  11.003   2.121   7.559  0.2223 -0.3126  0.1316
  361MOL0     C48606  10.896   2.103   7.464 -0.6702  0.7613  0.0382
  361MOL0     C48607  10.819   1.987   7.491 -0.5594  0.4760  0.5078
  361MOL0     O48608  10.704   1.955   7.426 -0.3275  0.0833 -0.3015
  361MOL0     C48609  10.626   2.067   7.385  0.3198  0.5286 -0.5927
  361MOL0     C48610  10.486   2.003   7.401  0.0301  0.4586  1.5422
  361MOL0     C48611  10.373   2.102   7.388  0.5176 -0.4568  0.3851
  361MOL0     C48612  10.245   2.035   7.423 -0.5683 -1.3933  0.0872
  361MOL0     C48613  10.132   2.140   7.432 -0.1746 -0.0295  0.7631
  361MOL0     C48614   9.993   2.070   7.421 -1.2068  0.1549  0.2848
  361MOL0     C48615   9.890   2.178   7.442  0.0105 -0.4263  0.5924
  361MOL0     C48616   9.745   2.130   7.399  0.5307 -0.4741 -0.8119
  361MOL0     N48617   9.669   2.049   7.500  0.3107 -0.4549  0.3903
  361MOL0     C48618   9.529   2.057   7.522 -0.4419 -0.7306 -0.9327
  361MOL0     C48619   9.504   1.957   7.615  0.1506  0.5516 -0.6604
  361MOL0     C48620   9.374   1.926   7.687  0.0637  0.4590 -0.6802
  361MOL0     C48621   9.285   1.847   7.603  0.4446  0.0144 -0.2008
  361MOL0     C48622   9.225   1.930   7.488 -0.6847  0.1178  0.4227
  361MOL0     C48623   9.133   1.849   7.390 -0.2897 -0.4582  0.9513
  361MOL0     O48624   9.037   1.767   7.475 -0.0819  0.3291 -0.1138
  361MOL0     C48625   8.919   1.828   7.503 -0.2991 -0.9996 -0.4464
  361MOL0     C48626   8.810   1.806   7.421  0.6821 -0.0822  0.9287
  361MOL0     C48627   8.677   1.847   7.456  0.1789  0.5693 -0.6768
  361MOL0     C48628   8.562   1.800   7.363  0.3743  0.4604 -0.2549
  361MOL0     C48629   8.669   1.939   7.566  0.0955  0.0606  0.2709
  361MOL0     C48630   8.544   1.993   7.623 -0.7374 -0.2165  0.4245
  361MOL0     O48631   8.563   2.093   7.710  0.5130 -0.0716  0.0250
  361MOL0     C48632   8.466   2.160   7.769  0.7253 -0.5992 -1.0706
  361MOL0     C48633   8.333   2.128   7.790 -0.1474  0.5396  0.9618
  361MOL0     C48634   8.241   2.220   7.844  0.1473  0.8341  0.4388
  361MOL0     C48635   8.282   2.336   7.903 -0.4049 -0.5508  0.1273
  361MOL0     O48636   8.206   2.416   7.982 -0.0901  0.6676 -0.7761
  361MOL0     C48637   8.072   2.382   8.017 -0.2431  0.6365  0.4691
  361MOL0     C48638   8.024   2.459   8.134 -0.1543  0.1616 -0.2699
  361MOL0     C48639   7.989   2.603   8.109  0.3055 -0.4067 -0.3506
  361MOL0     C48640   7.882   2.668   8.211 -0.4150  0.0040  0.0895
  361MOL0     C48641   7.868   2.819   8.176  0.3476  0.3141 -0.5086
  361MOL0     C48642   7.757   2.843   8.066  0.4028  0.5478  0.3524
  361MOL0     C48643   7.718   2.991   8.048  0.3591 -0.5503 -0.3303
  361MOL0     C48644   7.629   3.049   8.164  0.0911 -0.4956  0.1776
  361MOL0    Cl48645   7.449   3.028   8.135  0.8692  0.3206 -0.1271
  361MOL0     C48646   8.420   2.378   7.881  0.2961  0.0762  0.8962
  361MOL0     C48647   8.503   2.286   7.816  0.0107  0.4316 -0.2020
  361MOL0     O48648   8.439   1.948   7.578 -0.2338  0.2958 -0.4507
  361MOL0     C48649   8.788   1.969   7.640  0.2422  0.7691 -0.5478
  361MOL0     C48650   8.900   1.895   7.621 -0.4841  0.4648 -0.3615
  361MOL0     N48651   9.626   1.887   7.636 -0.6358  0.1214  0.0966
  361MOL0     N48652   9.715   1.937   7.555  0.0656 -0.2280  0.1843
  361MOL0     C48653  10.856   1.899   7.588  0.7921  0.3121 -0.6447
  361MOL0     C48654  10.964   1.912   7.676  0.4099  1.2206  1.0015
  361MOL0     C48655  11.343   2.043   7.865  0.2224  0.2034 -0.7460
  361MOL0     C48656  11.400   1.987   7.979 -0.6127  0.8380  0.5466
  361MOL0     C48657  11.526   2.020   8.015  0.4066  0.1546 -0.4017
  361MOL0     C48658  11.606   2.107   7.942  0.0228 -0.4754 -0.2433
  361MOL0     O48659  11.729   2.135   7.998  0.1084 -0.8557  0.5964
  361MOL0     C48660  11.841   2.188   7.920 -0.6199 -0.1470 -0.5072
  361MOL0     C48661  11.927   2.078   7.858 -0.2294 -0.2441  0.2154
  361MOL0     C48662  12.009   2.119   7.742 -0.3186 -0.4421  0.3104
  361MOL0     C48663  12.088   2.002   7.681 -0.9402 -0.3820 -0.1271
  361MOL0     C48664  12.160   2.044   7.562 -0.4080  0.3015  0.8542
  361MOL0     C48665  12.221   2.070   7.463  0.2791 -0.0380 -0.9110
  361MOL0     C48666  11.553   2.162   7.827 -0.5004  0.9461 -0.2682
  361MOL0     C48667  11.418   2.131   7.791  0.4254  0.3218  0.1805
  361MOL0     H48668  11.070   2.205   7.545  1.8497 -1.5371  0.2828
  361MOL0     H48669  10.885   2.175   7.383  2.2576 -0.3791 -1.5291
  361MOL0     H48670  10.639   2.150   7.455 -0.7762 -1.5336  2.2694
  361MOL0     H48671  10.648   2.100   7.283 -1.1670 -0.2631 -1.2074
  361MOL0     H48672  10.478   1.936   7.314 -1.2717  1.1389  1.1042
  361MOL0     H48673  10.462   1.934   7.482 -4.2220 -0.2377 -0.0432
  361MOL0     H48674  10.395   2.183   7.459  0.9141  1.8713 -2.2172
  361MOL0     H48675  10.359   2.137   7.285 -0.6587 -1.0398  0.3358
  361MOL0     H48676  10.238   1.970   7.336  1.3263  0.0996 -1.2737
  361MOL0     H48677  10.263   1.985   7.519 -3.2147 -0.7245  1.0012
  361MOL0     H48678  10.148   2.193   7.527 -1.2858  2.0856 -0.1638
  361MOL0     H48679  10.141   2.213   7.352  1.0125 -1.2740 -0.2860
  361MOL0     H48680   9.990   2.017   7.325 -1.2789  0.0972  0.3178
  361MOL0     H48681   9.981   1.994   7.499 -2.0039  0.5808  0.5832
  361MOL0     H48682   9.889   2.199   7.550 -1.9303  0.7242  0.3748
  361MOL0     H48683   9.922   2.267   7.388 -1.7755 -0.5019 -0.6684
  361MOL0     H48684   9.745   2.060   7.316  5.6101 -1.0993 -0.5795
  361MOL0     H48685   9.681   2.216   7.375  1.0133  0.7205  1.8050
  361MOL0     H48686   9.469   2.128   7.467  0.4952 -0.1035 -1.1542
  361MOL0     H48687   9.387   1.881   7.785 -2.5917  1.5764  0.2795
  361MOL0     H48688   9.321   2.018   7.712 -3.3940 -1.5846  0.1214
  361MOL0     H48689   9.201   1.801   7.657  1.0413 -0.6996  0.1303
  361MOL0     H48690   9.344   1.761   7.569  0.2497 -0.8529  1.5233
  361MOL0     H48691   9.306   1.970   7.427  0.6683 -0.5987  1.6874
  361MOL0     H48692   9.168   2.013   7.531 -1.4617 -0.4609  0.5526
  361MOL0     H48693   9.178   1.765   7.335  0.9619 -1.8173  3.8697
  361MOL0     H48694   9.074   1.922   7.334 -0.2559  0.7280  2.3960
  361MOL0     H48695   8.816   1.768   7.319 -0.1416  1.5292  0.2312
  361MOL0     H48696   8.601   1.738   7.281 -1.7531 -0.7969 -0.3883
  361MOL0     H48697   8.492   1.736   7.418  1.6699 -1.0900 -0.3182
  361MOL0     H48698   8.507   1.887   7.326 -0.4712  0.3783  0.7650
  361MOL0     H48699   8.301   2.031   7.753 -2.2260  2.1092 -1.7415
  361MOL0     H48700   8.139   2.185   7.851  0.1697  0.3965 -1.1596
  361MOL0     H48701   7.997   2.396   7.938  0.9740  1.1555 -0.6345
  361MOL0     H48702   8.068   2.275   8.039 -0.1271  0.5818  0.2252
  361MOL0     H48703   7.936   2.405   8.170 -2.5496  3.0279 -1.2703
  361MOL0     H48704   8.100   2.459   8.212  1.7275  1.1505 -2.0066
  361MOL0     H48705   7.959   2.613   8.004  0.8928 -0.1377 -0.4965
  361MOL0     H48706   8.082   2.659   8.102 -0.9572  1.6852 -1.7862
  361MOL0     H48707   7.787   2.615   8.201  1.2706 -2.8880 -2.4617
  361MOL0     H48708   7.918   2.659   8.314 -0.4586 -1.5689 -0.0104
  361MOL0     H48709   7.962   2.863   8.143 -0.3052 -1.0234 -4.7306
  361MOL0     H48710   7.843   2.879   8.264 -0.3741  0.5098 -0.8385
  361MOL0     H48711   7.792   2.800   7.971  2.4562  0.0628  1.2736
  361MOL0     H48712   7.661   2.794   8.083 -0.0332  0.1930 -2.5729
  361MOL0     H48713   7.669   3.014   7.953  1.1878  0.7237 -0.4819
  361MOL0     H48714   7.813   3.045   8.043 -0.0505  0.0694 -2.4674
  361MOL0     H48715   7.651   3.153   8.189  1.5898 -0.8315  0.3298
  361MOL0     H48716   7.650   2.991   8.254 -2.4711  1.1169  1.9867
  361MOL0     H48717   8.441   2.476   7.924 -0.2894  1.1569 -1.1257
  361MOL0     H48718   8.608   2.312   7.824 -0.2686  1.3982  0.5357
  361MOL0     H48719   8.789   2.040   7.721 -0.0912 -1.1970  1.2693
  361MOL0     H48720   8.983   1.902   7.691  0.1359  1.4761 -1.1685
  361MOL0     H48721  10.788   1.815   7.583 -1.2614  1.8307  0.4994
  361MOL0     H48722  10.984   1.834   7.749  1.8492  0.5128 -0.1010
  361MOL0     H48723  11.334   1.921   8.035  1.2979 -1.8524 -0.1602
  361MOL0     H48724  11.572   1.983   8.107  0.1013  1.2509  0.2179
  361MOL0     H48725  11.810   2.264   7.847 -3.7936  0.2668  1.1295
  361MOL0     H48726  11.901   2.241   7.994  0.8943 -1.0837 -1.0036
  361MOL0     H48727  11.853   2.006   7.823  0.7642 -1.7970  1.2244
  361MOL0     H48728  11.990   2.029   7.933  1.5140 -1.5285 -1.9814
  361MOL0     H48729  12.069   2.205   7.773 -0.6664 -0.6218  1.5506
  361MOL0     H48730  11.934   2.152   7.669 -0.8136 -2.3632 -0.0986
  361MOL0     H48731  12.029   1.912   7.661 -0.6341 -1.0280  1.6885
  361MOL0     H48732  12.158   1.972   7.759 -0.9305 -1.3303 -0.4847
  361MOL0     H48733  12.265   2.085   7.366 -2.1940 -0.2033 -2.1448
  361MOL0     H48734  11.614   2.237   7.777 -0.2139  1.0211  0.1815
  361MOL0     H48735  11.366   2.163   7.701 -1.3595 -0.2995  0.9365
  362MOL0     O48736   7.549   0.553   4.225  0.3565 -0.0733  0.3474
  362MOL0     C48737   7.578   0.445   4.174  0.1924 -0.3026 -0.3589
  362MOL0     O48738   7.510   0.333   4.189  0.3546 -0.3483 -0.1611
  362MOL0     C48739   7.392   0.315   4.272  0.1411  0.7189  0.5258
  362MOL0     C48740   7.370   0.370   4.397  0.2283  0.3840 -0.7614
  362MOL0     C48741   7.254   0.321   4.469 -0.1866 -0.3639  0.3392
  362MOL0     C48742   7.173   0.218   4.432 -0.7976 -0.7406 -0.4919
  362MOL0     O48743   7.070   0.194   4.514 -0.0667 -0.1328  0.6207
  362MOL0     C48744   6.947   0.250   4.466 -0.4279  0.0597  0.2760
  362MOL0     C48745   6.834   0.194   4.542 -0.0361  0.3693  0.2919
  362MOL0     C48746   6.706   0.267   4.493 -0.6121  0.2057 -0.0444
  362MOL0     C48747   6.584   0.220   4.571  0.3950  0.6910 -0.5736
  362MOL0     C48748   6.562   0.278   4.710 -0.1913 -0.8273 -0.2119
  362MOL0     C48749   6.450   0.211   4.789 -0.5573  0.2029 -0.3100
  362MOL0     C48750   6.462   0.052   4.824 -0.5117  0.0289  0.0573
  362MOL0     C48751   6.506   0.026   4.967  0.2026 -0.1093 -0.0790
  362MOL0     N48752   6.464  -0.102   5.022  0.5305 -0.0929 -0.1068
  362MOL0     C48753   6.536  -0.213   5.012 -0.7817 -0.2717 -0.3175
  362MOL0     C48754   6.458  -0.308   5.051 -0.0755 -0.0942 -0.0389
  362MOL0     C48755   6.497  -0.455   5.061 -0.4967  1.1912  0.3779
  362MOL0     C48756   6.427  -0.527   5.182 -0.5851 -0.0475  0.1971
  362MOL0     C48757   6.482  -0.498   5.324  0.3013 -0.0803 -0.2964
  362MOL0     C48758   6.624  -0.552   5.348 -0.2665 -0.7554  0.3477
  362MOL0     O48759   6.721  -0.456   5.302 -0.0245 -0.2121  0.3561
  362MOL0     C48760   6.858  -0.489   5.327 -0.0357 -1.4760  0.2571
  362MOL0     C48761   6.899  -0.622   5.336 -0.3756 -1.3750  0.2409
  362MOL0     C48762   7.029  -0.652   5.361 -1.2173 -0.1353 -0.1317
  362MOL0     C48763   7.074  -0.789   5.355  0.2742  0.8525 -0.9838
  362MOL0     C48764   7.125  -0.550   5.384  0.8295 -0.2981 -0.2881
  362MOL0     C48765   7.263  -0.565   5.441 -0.3858  0.0186  0.3018
  362MOL0     O48766   7.349  -0.452   5.446 -0.5542 -0.3592  0.5300
  362MOL0     C48767   7.474  -0.459   5.503 -0.5872  0.4192  0.8830
  362MOL0     C48768   7.506  -0.517   5.632  0.4264 -0.3442 -0.3154
  362MOL0     C48769   7.644  -0.514   5.668  0.1013 -0.2972  0.4075
  362MOL0     C48770   7.745  -0.461   5.594 -0.3125 -0.5218 -0.1661
  362MOL0     O48771   7.867  -0.455   5.666 -0.4858  0.0010  0.3011
  362MOL0     C48772   7.976  -0.368   5.615  0.9181  0.9665 -0.5580
  362MOL0     C48773   8.106  -0.403   5.678  0.0781 -0.1493 -0.0836
  362MOL0     C48774   8.219  -0.301   5.641 -0.1410  0.6682  0.1885
  362MOL0     C48775   8.346  -0.370   5.678  0.4171  0.6227 -0.2411
  362MOL0     C48776   8.468  -0.288   5.653  0.3544  0.6169 -0.5953
  362MOL0     C48777   8.601  -0.370   5.661  0.3942  0.0468 -0.6425
  362MOL0     C48778   8.719  -0.284   5.601 -0.8282  1.6275  0.2613
  362MOL0     C48779   8.835  -0.374   5.602  0.1764 -0.1134  0.6229
  362MOL0    Cl48780   8.825  -0.470   5.452 -0.1403 -0.1933  0.0602
  362MOL0     C48781   7.712  -0.398   5.471 -0.5569  0.0634 -0.1292
  362MOL0     C48782   7.581  -0.412   5.422 -0.3854  0.0984  0.0825
  362MOL0     O48783   7.301  -0.676   5.476  0.7215 -0.3502  0.2510
  362MOL0     C48784   7.080  -0.415   5.381 -0.6667  0.5362 -0.5685
  362MOL0     C48785   6.943  -0.385   5.348  0.1586  0.3542 -0.4738
  362MOL0     N48786   6.333  -0.252   5.093 -0.9993 -0.1623 -0.5680
  362MOL0     N48787   6.336  -0.124   5.073 -0.2498 -0.0023  0.1658
  362MOL0     C48788   7.199   0.153   4.313 -0.7077 -1.0172  0.9157
  362MOL0     C48789   7.303   0.215   4.233 -0.0822 -0.0476  0.4201
  362MOL0     C48790   7.693   0.436   4.086  0.2313  0.0090 -0.4369
  362MOL0     C48791   7.791   0.536   4.076  0.6952  0.3808  0.1160
  362MOL0     C48792   7.905   0.515   3.991  0.5280 -0.4105 -0.4186
  362MOL0     C48793   7.906   0.397   3.901  0.2003 -0.4331  0.3451
  362MOL0     O48794   8.014   0.378   3.813  0.2573 -0.3430 -0.5521
  362MOL0     C48795   8.135   0.461   3.828 -0.0336 -0.3883 -0.0444
  362MOL0     C48796   8.225   0.424   3.717  0.1758 -0.1986  0.4229
  362MOL0     C48797   8.338   0.527   3.695  0.1166  1.4231  0.4040
  362MOL0     C48798   8.429   0.537   3.819 -0.3080 -0.1395 -0.0545
  362MOL0     C48799   8.560   0.601   3.785 -0.1623  1.8177  0.9215
  362MOL0     C48800   8.671   0.635   3.751 -0.7737 -0.5232 -0.2532
  362MOL0     C48801   7.808   0.300   3.914  0.0609  0.2797  1.2090
  362MOL0     C48802   7.699   0.318   4.002 -0.0169  0.3270  0.2911
  362MOL0     H48803   7.435   0.453   4.422  5.0566 -2.6793 -1.7771
  362MOL0     H48804   7.244   0.376   4.562 -1.8064 -0.1957  0.0981
  362MOL0     H48805   6.939   0.359   4.470 -0.8529  0.0426 -0.0051
  362MOL0     H48806   6.930   0.215   4.364 -0.1877  0.8394 -0.0337
  362MOL0     H48807   6.823   0.087   4.523 -1.2699  0.4176  0.6381
  362MOL0     H48808   6.851   0.221   4.647  0.4160  0.7664  0.1193
  362MOL0     H48809   6.707   0.376   4.499 -2.6980  0.2709 -0.0210
  362MOL0     H48810   6.691   0.250   4.387 -0.3728  1.5048 -0.3090
  362MOL0     H48811   6.497   0.240   4.506  0.4009  0.8797 -0.5254
  362MOL0     H48812   6.577   0.113   4.589 -1.9618  1.1070  1.4886
  362MOL0     H48813   6.659   0.266   4.760  0.4139 -0.6517 -1.3058
  362MOL0     H48814   6.553   0.387   4.702 -0.2642 -0.6897  1.4080
  362MOL0     H48815   6.440   0.263   4.885  1.0698 -0.4904  0.2675
  362MOL0     H48816   6.352   0.222   4.742 -0.4055  0.7705 -0.5008
  362MOL0     H48817   6.363   0.010   4.803 -0.8325  0.7963 -0.0001
  362MOL0     H48818   6.546   0.006   4.771  0.6461  1.6829  0.3841
  362MOL0     H48819   6.472   0.102   5.038  3.4604  1.4552 -0.0047
  362MOL0     H48820   6.615   0.033   4.973  0.6507 -4.8057  0.7465
  362MOL0     H48821   6.636  -0.222   4.973 -1.8480  0.2721 -3.4388
  362MOL0     H48822   6.466  -0.493   4.964  4.1506 -0.4594 -0.7171
  362MOL0     H48823   6.606  -0.464   5.061 -0.3705  1.1559 -3.7020
  362MOL0     H48824   6.447  -0.632   5.162  2.0616  0.1805  1.2067
  362MOL0     H48825   6.319  -0.509   5.184 -0.5102  0.3965  0.7424
  362MOL0     H48826   6.417  -0.546   5.397  0.6384 -3.8857 -2.2107
  362MOL0     H48827   6.478  -0.394   5.358 -3.2710 -0.3195  0.4023
  362MOL0     H48828   6.639  -0.647   5.295 -2.8509 -2.6848  2.7549
  362MOL0     H48829   6.641  -0.569   5.455 -0.4382  0.6011  0.6125
  362MOL0     H48830   6.823  -0.699   5.339  0.4555 -2.2107  0.2857
  362MOL0     H48831   7.180  -0.788   5.329 -0.0522  2.3174 -2.4152
  362MOL0     H48832   7.054  -0.840   5.450  0.0691  2.1741 -0.3001
  362MOL0     H48833   7.020  -0.846   5.279 -1.4148  1.1371 -0.0503
  362MOL0     H48834   7.421  -0.549   5.691  0.9280 -0.7042  0.2242
  362MOL0     H48835   7.658  -0.541   5.773 -0.5981  0.5631  0.7320
  362MOL0     H48836   7.980  -0.381   5.506  1.1879  1.5208 -0.6180
  362MOL0     H48837   7.952  -0.265   5.641  0.3313 -0.0709  3.6945
  362MOL0     H48838   8.091  -0.405   5.786  2.4373  0.2094  0.3150
  362MOL0     H48839   8.141  -0.503   5.651 -2.5000 -1.1889  0.1989
  362MOL0     H48840   8.207  -0.204   5.689  0.9641  0.8469  0.1346
  362MOL0     H48841   8.205  -0.289   5.533 -2.8163 -1.0456  0.2447
  362MOL0     H48842   8.343  -0.396   5.784 -2.2194  1.5528 -0.0110
  362MOL0     H48843   8.356  -0.467   5.629  0.0212 -1.1052  2.8680
  362MOL0     H48844   8.477  -0.211   5.731 -1.3539  1.7380 -1.4346
  362MOL0     H48845   8.449  -0.240   5.557  0.9639  0.6157 -0.7214
  362MOL0     H48846   8.627  -0.383   5.766 -1.4731  0.6627 -0.0646
  362MOL0     H48847   8.589  -0.462   5.604 -0.0006  1.0371 -2.2139
  362MOL0     H48848   8.743  -0.205   5.673 -0.7242 -0.3826  2.6141
  362MOL0     H48849   8.698  -0.240   5.504 -2.8765 -0.8312 -0.5212
  362MOL0     H48850   8.846  -0.440   5.688  1.4230 -1.3392 -0.4307
  362MOL0     H48851   8.923  -0.309   5.595  0.5573 -0.6122  0.7393
  362MOL0     H48852   7.782  -0.328   5.425 -0.1703  1.0315  1.8210
  362MOL0     H48853   7.553  -0.351   5.336 -0.6671 -0.2381 -0.0692
  362MOL0     H48854   7.153  -0.335   5.395  2.1511 -1.5323 -2.3147
  362MOL0     H48855   6.915  -0.281   5.340  0.4302  0.3562 -1.7157
  362MOL0     H48856   7.131   0.074   4.283  0.2400 -1.8197  0.8502
  362MOL0     H48857   7.320   0.182   4.131  0.6062 -2.9057  1.3627
  362MOL0     H48858   7.788   0.630   4.131 -1.2193  0.8718 -0.7498
  362MOL0     H48859   7.983   0.589   4.001 -0.0655  0.5090 -2.1849
  362MOL0     H48860   8.099   0.562   3.805  3.3659  0.7037 -1.1534
  362MOL0     H48861   8.182   0.463   3.927 -0.8793  3.4630  0.4346
  362MOL0     H48862   8.160   0.444   3.631 -2.2002  0.3604  2.2237
  362MOL0     H48863   8.255   0.319   3.717  1.1945  0.0785 -0.3686
  362MOL0     H48864   8.291   0.624   3.676  0.9048  1.5989 -0.7865
  362MOL0     H48865   8.392   0.491   3.607 -2.1529 -2.2066  0.2951
  362MOL0     H48866   8.466   0.437   3.841  0.8489  0.8838  3.2091
  362MOL0     H48867   8.387   0.585   3.908  1.6648  1.7714 -0.0661
  362MOL0     H48868   8.771   0.667   3.732  0.2334 -2.2705  1.8456
  362MOL0     H48869   7.823   0.215   3.847  2.0606  0.3224  1.5478
  362MOL0     H48870   7.623   0.241   4.013 -2.7290  2.4944 -1.7645
  363MOL0     O48871   4.135   0.953   2.988  1.0553  0.4742  0.4354
  363MOL0     C48872   4.199   1.051   2.951 -0.3376  0.9826  0.2355
  363MOL0     O48873   4.158   1.180   2.976 -0.5526 -0.8796  0.5754
  363MOL0     C48874   4.052   1.198   3.061  0.9769  0.7788  1.1936
  363MOL0     C48875   3.913   1.197   3.022 -0.2820  0.2346 -0.3323
  363MOL0     C48876   3.813   1.239   3.120  0.3490  0.3248 -0.6459
  363MOL0     C48877   3.852   1.262   3.254  0.0081 -0.1058 -0.4108
  363MOL0     O48878   3.756   1.315   3.345  0.8274  0.6676  0.2059
  363MOL0     C48879   3.620   1.306   3.324  0.5554  0.0016  0.1130
  363MOL0     C48880   3.562   1.325   3.461 -0.2439  0.2263 -0.2367
  363MOL0     C48881   3.412   1.294   3.461  0.0706 -0.1797 -0.4638
  363MOL0     C48882   3.350   1.328   3.594 -0.1912  0.3044 -0.0138
  363MOL0     C48883   3.195   1.307   3.601 -0.1029 -0.8661 -0.5011
  363MOL0     C48884   3.127   1.376   3.719 -0.0880  0.2627  0.2105
  363MOL0     C48885   2.981   1.383   3.700  0.6656  0.0703  0.1814
  363MOL0     C48886   2.914   1.479   3.800  0.8519 -0.4136  0.1006
  363MOL0     N48887   2.766   1.472   3.781  0.4777  0.1909  0.2727
  363MOL0     C48888   2.688   1.395   3.866  0.2622 -0.0065 -0.1504
  363MOL0     C48889   2.564   1.394   3.813 -0.0264 -0.1027 -0.2950
  363MOL0     C48890   2.449   1.327   3.885 -1.1412 -0.1250  0.2462
  363MOL0     C48891   2.312   1.391   3.871  0.0746 -0.5728 -0.3225
  363MOL0     C48892   2.209   1.300   3.938  0.6254  1.2498  0.1015
  363MOL0     C48893   2.068   1.358   3.928  0.5643  0.8364  0.0149
  363MOL0     O48894   2.041   1.475   4.010 -0.0134  0.3701  0.3270
  363MOL0     C48895   1.934   1.551   3.987  0.2175  0.3186  0.4481
  363MOL0     C48896   1.818   1.503   4.030  0.0981  0.2857 -0.0806
  363MOL0     C48897   1.710   1.586   4.037  0.0413  1.1059  0.3399
  363MOL0     C48898   1.574   1.514   4.067 -0.2834 -0.9742  0.3722
  363MOL0     C48899   1.723   1.723   4.003  0.1902 -0.8996  0.0155
  363MOL0     C48900   1.614   1.820   4.016  0.1631  0.2107 -0.2657
  363MOL0     O48901   1.493   1.778   4.064 -0.4494 -1.2766 -0.0093
  363MOL0     C48902   1.384   1.853   4.021  0.7503  0.8958 -0.2043
  363MOL0     C48903   1.341   1.972   4.085 -0.6454 -0.0252 -0.1626
  363MOL0     C48904   1.216   2.029   4.046  0.1613  0.0600 -0.1989
  363MOL0     C48905   1.140   1.971   3.943  0.2959  0.0650  0.1103
  363MOL0     O48906   1.021   2.029   3.897  0.6288 -0.1291 -0.3190
  363MOL0     C48907   0.973   2.146   3.962 -0.0260  0.3597 -0.3017
  363MOL0     C48908   0.846   2.198   3.891 -0.3627 -0.3912 -0.9505
  363MOL0     C48909   0.869   2.254   3.753  0.8192  0.1414  0.6681
  363MOL0     C48910   0.741   2.328   3.700  0.4830  0.1914  0.0474
  363MOL0     C48911   0.733   2.353   3.543  0.0165  0.2587  0.4287
  363MOL0     C48912   0.743   2.222   3.472 -0.2028  0.0675 -0.1656
  363MOL0     C48913   0.703   2.236   3.323 -0.4298  0.2647  0.4306
  363MOL0     C48914   0.674   2.097   3.264 -0.3244  0.7926  0.9370
  363MOL0    Cl48915   0.588   2.096   3.108 -0.2272 -0.3224  0.1679
  363MOL0     C48916   1.187   1.853   3.887 -0.4004  0.0814  0.0542
  363MOL0     C48917   1.298   1.795   3.935 -0.2849 -0.3290  0.6153
  363MOL0     O48918   1.627   1.937   3.972  0.1000  0.0305  0.0182
  363MOL0     C48919   1.851   1.773   3.975  0.6484 -0.3863  0.0862
  363MOL0     C48920   1.957   1.686   3.970 -0.7148  0.0900 -0.0638
  363MOL0     N48921   2.570   1.476   3.701  0.2949 -0.2023 -0.7399
  363MOL0     N48922   2.690   1.522   3.679 -0.0542 -0.1341  0.1400
  363MOL0     C48923   3.982   1.244   3.292  0.5640 -0.0502 -0.0634
  363MOL0     C48924   4.082   1.199   3.198  0.3338 -0.7341 -0.3881
  363MOL0     C48925   4.320   1.023   2.877  0.9698  0.0237  0.3475
  363MOL0     C48926   4.373   1.123   2.783 -0.3379  0.3734 -0.1431
  363MOL0     C48927   4.480   1.094   2.688  0.8283  0.4752 -0.2115
  363MOL0     C48928   4.535   0.964   2.699 -0.1141 -0.2184  0.1749
  363MOL0     O48929   4.645   0.925   2.629 -0.4911 -0.2542  0.4126
  363MOL0     C48930   4.702   0.997   2.517  0.0520  0.0266  0.1636
  363MOL0     C48931   4.620   0.990   2.388  0.6171 -0.4221 -0.3590
  363MOL0     C48932   4.591   0.844   2.337 -0.0949 -0.7641  0.2056
  363MOL0     C48933   4.515   0.838   2.203 -0.7197  0.7298  0.0917
  363MOL0     C48934   4.583   0.931   2.115  0.0105  0.0726  0.0068
  363MOL0     C48935   4.617   1.007   2.036 -0.4506  0.8335  0.3349
  363MOL0     C48936   4.481   0.867   2.793  0.1375 -0.3919  0.6237
  363MOL0     C48937   4.382   0.895   2.885  0.5967  0.2818 -0.3503
  363MOL0     H48938   3.886   1.174   2.920 -2.4124  1.9748 -0.2253
  363MOL0     H48939   3.707   1.237   3.094  0.1810  2.9453 -0.4194
  363MOL0     H48940   3.580   1.382   3.256  1.9659 -1.8190 -3.0117
  363MOL0     H48941   3.597   1.204   3.290 -2.7688  1.0676 -1.2401
  363MOL0     H48942   3.621   1.261   3.528  1.1032  1.9090  0.2388
  363MOL0     H48943   3.576   1.429   3.491  0.5074  0.1760 -0.3884
  363MOL0     H48944   3.380   1.356   3.377  0.0951 -0.4932 -0.7110
  363MOL0     H48945   3.384   1.191   3.436 -2.7589  0.3909  0.1150
  363MOL0     H48946   3.384   1.255   3.668 -3.7719 -0.5565  0.9715
  363MOL0     H48947   3.378   1.431   3.619 -0.0644  0.0755  0.8158
  363MOL0     H48948   3.159   1.340   3.504  0.1710 -0.2850 -0.4116
  363MOL0     H48949   3.165   1.202   3.591 -1.1200 -0.5264 -1.0837
  363MOL0     H48950   3.153   1.335   3.817  0.4796  0.7223  0.2601
  363MOL0     H48951   3.165   1.479   3.723 -1.0938  0.6361  0.4176
  363MOL0     H48952   2.972   1.417   3.597  1.3653  0.8915  0.3736
  363MOL0     H48953   2.932   1.285   3.703 -1.0710  0.3762 -6.0678
  363MOL0     H48954   2.943   1.578   3.766 -0.7052 -0.8573 -2.7468
  363MOL0     H48955   2.945   1.461   3.904 -2.3839 -2.1557  0.9118
  363MOL0     H48956   2.714   1.361   3.966 -1.9883 -1.6876 -0.0373
  363MOL0     H48957   2.435   1.225   3.849 -2.8465 -0.6918  2.3319
  363MOL0     H48958   2.468   1.323   3.992 -2.3736  1.5993  0.5830
  363MOL0     H48959   2.287   1.421   3.769  0.3158  2.4531  0.4075
  363MOL0     H48960   2.324   1.486   3.925  4.1075  0.4370 -2.5454
  363MOL0     H48961   2.230   1.294   4.045 -1.1978 -1.9218  0.4174
  363MOL0     H48962   2.204   1.196   3.903 -1.8332  0.7520  1.7010
  363MOL0     H48963   1.994   1.280   3.948  0.1081  1.5432  1.2405
  363MOL0     H48964   2.063   1.393   3.825  2.1753  1.4620  0.1119
  363MOL0     H48965   1.825   1.401   4.067 -4.3088  0.0417  0.6750
  363MOL0     H48966   1.510   1.546   3.984 -1.4571  1.3450  2.0475
  363MOL0     H48967   1.590   1.406   4.071  1.1491 -0.9686 -2.5954
  363MOL0     H48968   1.543   1.531   4.170  0.2333  1.0205  0.2385
  363MOL0     H48969   1.402   2.017   4.162  0.0304 -2.9266  1.1440
  363MOL0     H48970   1.183   2.110   4.110 -1.7197 -0.0880 -0.9207
  363MOL0     H48971   0.947   2.118   4.064  2.5058  0.8564  0.5513
  363MOL0     H48972   1.050   2.224   3.964  0.8787 -0.5384  0.4276
  363MOL0     H48973   0.775   2.116   3.884 -0.9887  0.2573 -2.8884
  363MOL0     H48974   0.789   2.263   3.958  0.1964 -1.3577  0.5070
  363MOL0     H48975   0.890   2.161   3.699  0.6055 -1.4050  3.1061
  363MOL0     H48976   0.958   2.317   3.747  1.6839 -1.1759 -0.9333
  363MOL0     H48977   0.654   2.264   3.717  1.4417 -2.0023 -2.4916
  363MOL0     H48978   0.740   2.423   3.754 -0.4752 -0.0631  0.4968
  363MOL0     H48979   0.815   2.422   3.520 -0.9353  1.1781 -0.3621
  363MOL0     H48980   0.633   2.398   3.536 -0.2545 -0.4666 -0.5749
  363MOL0     H48981   0.849   2.195   3.471 -0.0257  0.5305 -2.6921
  363MOL0     H48982   0.679   2.153   3.526 -1.6093  1.4419 -0.0014
  363MOL0     H48983   0.789   2.288   3.279  0.0011 -0.7242  0.0785
  363MOL0     H48984   0.614   2.300   3.319 -0.5352  0.4703  3.4338
  363MOL0     H48985   0.612   2.044   3.335 -0.2351  0.5616  0.8434
  363MOL0     H48986   0.773   2.050   3.254 -0.8121 -0.0718  0.0010
  363MOL0     H48987   1.133   1.804   3.806 -1.5976 -2.1805  2.0885
  363MOL0     H48988   1.310   1.691   3.906 -0.6125 -0.4601  0.9357
  363MOL0     H48989   1.869   1.878   3.954  0.6593 -0.5680 -0.8385
  363MOL0     H48990   2.061   1.716   3.969 -1.6149  3.6659  0.5653
  363MOL0     H48991   4.011   1.255   3.396 -2.1632 -2.0197  1.0078
  363MOL0     H48992   4.183   1.175   3.228  0.4242 -0.2641 -0.3116
  363MOL0     H48993   4.345   1.225   2.807  1.7192  0.6344  1.4086
  363MOL0     H48994   4.517   1.174   2.625 -2.5140  1.1484 -1.4990
  363MOL0     H48995   4.718   1.103   2.539 -1.5042  0.3392 -0.0912
  363MOL0     H48996   4.802   0.959   2.495  0.6180  0.5963  1.6058
  363MOL0     H48997   4.670   1.051   2.313 -0.9836 -0.2775 -1.3629
  363MOL0     H48998   4.524   1.043   2.397 -0.1306 -1.1882 -3.1325
  363MOL0     H48999   4.538   0.795   2.419 -1.9138  0.7164 -0.0161
  363MOL0     H49000   4.684   0.788   2.325  1.7208  1.9263  0.5673
  363MOL0     H49001   4.412   0.869   2.218 -0.5477  1.3736 -0.0375
  363MOL0     H49002   4.514   0.737   2.162 -3.4586  0.9648 -0.5997
  363MOL0     H49003   4.665   1.070   1.964 -1.3472  1.3726  0.1813
  363MOL0     H49004   4.518   0.766   2.778  0.7392  0.0179 -0.7855
  363MOL0     H49005   4.343   0.821   2.954 -1.7401  0.1002 -1.7757
  364MOL0     O49006   3.730   0.186   4.412 -0.2022  0.4926 -0.0635
  364MOL0     C49007   3.708   0.161   4.531 -0.7661  0.3581  1.4414
  364MOL0     O49008   3.803   0.157   4.626 -0.4217  0.3583  0.0859
  364MOL0     C49009   3.933   0.181   4.587 -1.1748 -0.3797 -0.8240
  364MOL0     C49010   4.017   0.086   4.527 -0.5822 -0.5526 -0.4313
  364MOL0     C49011   4.149   0.115   4.506 -0.8308 -0.3517  0.8904
  364MOL0     C49012   4.207   0.234   4.554  0.5487 -0.4090  0.2414
  364MOL0     O49013   4.340   0.238   4.551 -0.4384 -0.4952 -0.1818
  364MOL0     C49014   4.404   0.360   4.584  0.6522 -0.5243 -1.0348
  364MOL0     C49015   4.549   0.344   4.543  0.1702 -0.5584 -0.1881
  364MOL0     C49016   4.565   0.312   4.392  0.3399  0.1308 -0.2403
  364MOL0     C49017   4.696   0.240   4.367  0.8660  0.7045 -0.1564
  364MOL0     C49018   4.726   0.220   4.216 -0.1340  0.0600  0.2466
  364MOL0     C49019   4.839   0.106   4.190  0.1815 -0.9213 -0.3351
  364MOL0     C49020   4.966   0.132   4.277  0.0449 -0.2505 -0.3572
  364MOL0     C49021   5.079   0.035   4.264 -1.2162  0.5860  0.1871
  364MOL0     N49022   5.201   0.063   4.352 -0.1322  0.2255 -0.3484
  364MOL0     C49023   5.333   0.096   4.331  0.8218  0.6753 -0.6802
  364MOL0     C49024   5.399   0.078   4.452  0.2460  0.1125 -0.1625
  364MOL0     C49025   5.552   0.074   4.465 -0.3916  0.0290 -0.1768
  364MOL0     C49026   5.601   0.216   4.480 -0.0434 -0.2161  0.0416
  364MOL0     C49027   5.741   0.225   4.537 -0.9483 -0.4423 -0.7882
  364MOL0     C49028   5.806   0.358   4.505 -0.1264 -0.0687  0.5751
  364MOL0     O49029   5.940   0.330   4.546 -0.4121 -0.2592 -0.5691
  364MOL0     C49030   6.042   0.393   4.469  0.5783  0.6552  0.4789
  364MOL0     C49031   6.041   0.415   4.325  0.3073  0.5982  0.0424
  364MOL0     C49032   6.150   0.464   4.257  0.0072 -0.0851 -0.0073
  364MOL0     C49033   6.135   0.481   4.119  0.1759 -0.2788  0.3649
  364MOL0     C49034   6.272   0.483   4.320 -0.4940  0.6525 -0.5767
  364MOL0     C49035   6.397   0.529   4.254  1.0424 -0.5686 -0.5781
  364MOL0     O49036   6.393   0.647   4.188  0.5273  0.4343 -0.2139
  364MOL0     C49037   6.510   0.671   4.109  0.4833 -0.2858 -0.1443
  364MOL0     C49038   6.577   0.787   4.136 -0.5724  0.2175 -0.5031
  364MOL0     C49039   6.682   0.832   4.060 -0.2545  1.0094 -0.0436
  364MOL0     C49040   6.709   0.779   3.936  0.3892  0.3592  0.4548
  364MOL0     O49041   6.813   0.831   3.867  0.2386 -0.1966 -0.6427
  364MOL0     C49042   6.876   0.756   3.764  0.2659 -0.3845  0.4520
  364MOL0     C49043   6.975   0.839   3.689  0.1613 -0.4117  0.1644
  364MOL0     C49044   7.049   0.754   3.602 -0.1274  0.1523  0.2677
  364MOL0     C49045   7.156   0.837   3.523 -0.3453  1.2784 -0.5484
  364MOL0     C49046   7.268   0.749   3.462 -0.4712  0.7260  0.2778
  364MOL0     C49047   7.364   0.842   3.386  0.1374 -0.2764  0.1678
  364MOL0     C49048   7.459   0.759   3.309  0.0217 -0.5844 -0.7505
  364MOL0     C49049   7.392   0.698   3.187  0.2070  0.6258  0.3076
  364MOL0    Cl49050   7.511   0.640   3.067  0.1582  0.2251  0.4505
  364MOL0     C49051   6.633   0.665   3.895  0.3411  1.2263  1.3625
  364MOL0     C49052   6.532   0.615   3.980  0.2873  0.9390  0.5055
  364MOL0     O49053   6.497   0.456   4.268  0.0333 -0.4529 -0.2241
  364MOL0     C49054   6.280   0.454   4.461 -0.8192  1.1688 -1.1077
  364MOL0     C49055   6.169   0.406   4.539 -0.0586 -0.2529 -0.5639
  364MOL0     N49056   5.304   0.038   4.542 -0.3348  0.2293 -0.4485
  364MOL0     N49057   5.188   0.036   4.491 -1.1006 -0.3187 -0.0065
  364MOL0     C49058   4.132   0.331   4.619  0.6965 -0.3010  0.7809
  364MOL0     C49059   3.991   0.301   4.639 -0.4229 -0.5120 -0.1833
  364MOL0     C49060   3.572   0.124   4.574  0.1962  0.7556 -0.1486
  364MOL0     C49061   3.529   0.154   4.707 -0.3095  0.3598 -0.0748
  364MOL0     C49062   3.402   0.141   4.740  0.8123 -0.1316 -0.0495
  364MOL0     C49063   3.305   0.088   4.656  0.7046  0.3515  0.7551
  364MOL0     O49064   3.171   0.075   4.686 -0.8194  0.6587 -0.2650
  364MOL0     C49065   3.093  -0.035   4.624  0.0667 -0.8562  0.3926
  364MOL0     C49066   2.958  -0.052   4.706  0.2060  0.2583 -0.3177
  364MOL0     C49067   2.856  -0.106   4.612 -0.4017 -0.5635  0.3551
  364MOL0     C49068   2.723  -0.121   4.681 -0.4490 -0.2651  0.3342
  364MOL0     C49069   2.629  -0.193   4.595 -0.0930  0.1485  0.1706
  364MOL0     C49070   2.554  -0.249   4.522 -0.1173  0.1774  0.2422
  364MOL0     C49071   3.348   0.048   4.531  0.3908 -0.8610  0.3051
  364MOL0     C49072   3.481   0.068   4.487  0.9347 -0.3991  0.1582
  364MOL0     H49073   3.968  -0.008   4.505 -1.5161 -0.2990  0.4738
  364MOL0     H49074   4.213   0.040   4.459  1.3158  1.5894  0.5318
  364MOL0     H49075   4.365   0.455   4.547  0.8219  0.2176  0.5949
  364MOL0     H49076   4.400   0.370   4.693  0.4928 -2.4122 -0.8313
  364MOL0     H49077   4.604   0.432   4.576  2.2360 -1.8523  0.0167
  364MOL0     H49078   4.591   0.263   4.603 -1.0020 -1.2426 -0.2469
  364MOL0     H49079   4.483   0.252   4.350 -1.4121  0.6923  2.1514
  364MOL0     H49080   4.558   0.398   4.324 -2.9815  0.6063  0.5215
  364MOL0     H49081   4.773   0.297   4.419  1.6050  1.2207 -1.7245
  364MOL0     H49082   4.692   0.137   4.404  1.1707 -0.0346 -2.0280
  364MOL0     H49083   4.631   0.187   4.173 -1.1676  2.8748  0.1724
  364MOL0     H49084   4.757   0.315   4.171 -1.1873  0.3345  0.0845
  364MOL0     H49085   4.806   0.002   4.203 -0.9555 -0.4757  0.4883
  364MOL0     H49086   4.877   0.124   4.089 -0.2039  1.5920 -0.0790
  364MOL0     H49087   5.000   0.232   4.252 -2.1239 -0.1380 -3.5784
  364MOL0     H49088   4.943   0.129   4.384 -0.3032 -0.1817 -0.4270
  364MOL0     H49089   5.102   0.049   4.158  4.0425  1.6044  1.1898
  364MOL0     H49090   5.038  -0.065   4.282 -0.5311  0.5331  1.5663
  364MOL0     H49091   5.376   0.119   4.234 -0.7127 -0.8074 -1.7796
  364MOL0     H49092   5.572   0.007   4.550  2.8672 -0.9575 -1.5541
  364MOL0     H49093   5.601   0.023   4.382 -0.4783 -1.2346  0.5183
  364MOL0     H49094   5.532   0.273   4.542  0.7337  0.1681  0.5775
  364MOL0     H49095   5.593   0.257   4.379 -0.5937 -1.3122 -0.3698
  364MOL0     H49096   5.802   0.148   4.488  0.1439  0.6732 -1.2437
  364MOL0     H49097   5.740   0.222   4.646  1.9506  0.7279 -0.6193
  364MOL0     H49098   5.753   0.435   4.561  0.2196  1.3553 -0.9500
  364MOL0     H49099   5.796   0.385   4.399  3.6504 -0.8636 -0.1592
  364MOL0     H49100   5.960   0.386   4.259  0.6063  1.3008 -0.6499
  364MOL0     H49101   6.099   0.388   4.074 -1.0928  0.5884 -0.4972
  364MOL0     H49102   6.057   0.556   4.099  1.5392  1.0010 -0.3665
  364MOL0     H49103   6.221   0.537   4.082 -1.1141  1.9748  0.5696
  364MOL0     H49104   6.576   0.848   4.226 -3.1566 -0.3291 -0.0874
  364MOL0     H49105   6.733   0.921   4.093  2.8439 -0.2803 -1.0165
  364MOL0     H49106   6.924   0.668   3.808 -2.5122 -1.5721  1.3167
  364MOL0     H49107   6.806   0.726   3.686  3.4074 -0.6193 -2.4712
  364MOL0     H49108   6.917   0.910   3.630  0.0039  0.9493  1.8773
  364MOL0     H49109   7.044   0.890   3.757  1.4973 -3.2836  1.1515
  364MOL0     H49110   6.973   0.708   3.537  0.6758 -1.9405  0.7210
  364MOL0     H49111   7.099   0.674   3.658 -2.3968 -2.1023 -0.7116
  364MOL0     H49112   7.104   0.879   3.436 -3.7200 -1.6253 -0.1911
  364MOL0     H49113   7.191   0.914   3.592 -1.6527  0.8798  0.5989
  364MOL0     H49114   7.232   0.674   3.391 -4.3267  1.1442  1.5413
  364MOL0     H49115   7.324   0.697   3.541 -0.4311 -0.8421 -0.7309
  364MOL0     H49116   7.302   0.906   3.323  0.9787 -2.6412 -3.3694
  364MOL0     H49117   7.412   0.904   3.463 -0.1804 -1.4463  1.3562
  364MOL0     H49118   7.493   0.671   3.364 -1.9495 -0.0391  1.4963
  364MOL0     H49119   7.537   0.825   3.271 -1.7751 -0.4486 -4.7630
  364MOL0     H49120   7.312   0.763   3.151  0.2451  0.4984 -0.0149
  364MOL0     H49121   7.332   0.610   3.211  0.4042 -0.1080 -1.6431
  364MOL0     H49122   6.619   0.628   3.794 -0.5537 -0.1644  1.9781
  364MOL0     H49123   6.462   0.541   3.943 -0.4652  2.6982 -1.8357
  364MOL0     H49124   6.375   0.459   4.514 -2.2443 -0.6809  1.9041
  364MOL0     H49125   6.182   0.391   4.645 -0.6940  0.6997 -0.3296
  364MOL0     H49126   4.176   0.416   4.669 -1.1721  1.6366 -0.6641
  364MOL0     H49127   3.917   0.365   4.686  1.6265  1.5642  0.3941
  364MOL0     H49128   3.602   0.189   4.779 -2.3154  2.3286  1.1126
  364MOL0     H49129   3.363   0.184   4.832 -1.0840 -0.6966 -0.5268
  364MOL0     H49130   3.057  -0.006   4.525  1.6180  2.5629  0.6797
  364MOL0     H49131   3.155  -0.124   4.612 -0.2796 -0.9617 -0.7257
  364MOL0     H49132   2.925   0.044   4.748 -1.8278 -1.2285  1.7251
  364MOL0     H49133   2.975  -0.116   4.794  0.8931 -0.8753 -1.2508
  364MOL0     H49134   2.895  -0.203   4.581 -2.8515 -1.7802  0.8488
  364MOL0     H49135   2.835  -0.034   4.532 -1.5190  2.0610  2.8307
  364MOL0     H49136   2.686  -0.019   4.698  3.1622  1.3951 -0.8061
  364MOL0     H49137   2.732  -0.175   4.776  0.7121  0.7741  0.8481
  364MOL0     H49138   2.491  -0.288   4.444 -3.0948  1.9342  1.5717
  364MOL0     H49139   3.271   0.031   4.457 -1.1213 -0.4204  1.7059
  364MOL0     H49140   3.504   0.035   4.386  0.7075  1.2187 -0.4559
  365MOL0     O49141   6.935  11.016   4.378  0.1976  0.3123 -0.2517
  365MOL0     C49142   7.009  11.109   4.371 -0.2917 -0.2925 -0.1930
  365MOL0     O49143   6.986  11.217   4.298 -0.2511  0.8075  0.3108
  365MOL0     C49144   6.880  11.244   4.214  0.0412 -0.1673  0.0874
  365MOL0     C49145   6.746  11.195   4.226 -0.6419 -0.2270 -0.8988
  365MOL0     C49146   6.652  11.241   4.133  0.1941 -0.1851  0.3235
  365MOL0     C49147   6.677  11.328   4.028  0.0424  0.4229 -0.1390
  365MOL0     O49148   6.577  11.401   3.969  0.2687 -0.0994 -0.2482
  365MOL0     C49149   6.533  11.514   4.053 -0.4384  0.3990  1.3807
  365MOL0     C49150   6.380  11.504   4.101 -0.6857  0.7319 -0.5236
  365MOL0     C49151   6.365  11.404   4.213  0.1196  0.0285 -0.9235
  365MOL0     C49152   6.253  11.439   4.319  0.8442 -0.0195 -0.5222
  365MOL0     C49153   6.276  11.354   4.449  0.2946  0.1582  0.2255
  365MOL0     C49154   6.151  11.366   4.535  0.7803 -0.3930 -1.1786
  365MOL0     C49155   6.143  11.244   4.629 -0.4886  0.2642 -0.4537
  365MOL0     C49156   6.045  11.264   4.746 -0.2425  0.0546 -0.4790
  365MOL0     N49157   5.993  11.138   4.795  0.0913 -0.0136 -0.5246
  365MOL0     C49158   6.016  11.075   4.913  0.6607 -0.7084  0.2776
  365MOL0     C49159   5.929  10.969   4.915 -0.3472 -0.3143  0.4505
  365MOL0     C49160   5.935  10.865   5.021  0.7039  0.2871 -0.9328
  365MOL0     C49161   5.863  10.910   5.152 -0.1822  1.0498  1.2843
  365MOL0     C49162   5.839  10.792   5.261  0.9968 -0.7126 -0.3034
  365MOL0     C49163   5.785  10.659   5.216  0.4827 -0.6031 -1.0069
  365MOL0     O49164   5.798  10.576   5.334  0.4271  0.8235 -0.5823
  365MOL0     C49165   5.690  10.574   5.417  0.1987  1.2137  0.0972
  365MOL0     C49166   5.672  10.646   5.535 -0.0330  0.0969 -0.0395
  365MOL0     C49167   5.565  10.644   5.616 -0.0634  0.2072 -1.3511
  365MOL0     C49168   5.561  10.743   5.737 -0.7487 -0.1981  0.5746
  365MOL0     C49169   5.459  10.559   5.571  0.1084  0.2810  1.0982
  365MOL0     C49170   5.317  10.555   5.630 -0.1594 -0.1872  0.2694
  365MOL0     O49171   5.223  10.504   5.542  0.4738  0.2272 -0.0048
  365MOL0     C49172   5.094  10.489   5.579 -0.4139  1.0053 -1.0894
  365MOL0     C49173   5.053  10.430   5.702  0.0953  0.4492  0.1709
  365MOL0     C49174   4.915  10.422   5.727 -0.5624  0.3938  0.5219
  365MOL0     C49175   4.816  10.457   5.628  0.8120  0.8090  0.2159
  365MOL0     O49176   4.689  10.435   5.674 -0.2326  0.5185 -0.0085
  365MOL0     C49177   4.576  10.511   5.623  0.0647 -0.2883 -0.4982
  365MOL0     C49178   4.485  10.505   5.744 -0.3187 -0.1637  0.4268
  365MOL0     C49179   4.363  10.594   5.713  0.2761 -0.3655 -0.4766
  365MOL0     C49180   4.270  10.615   5.836  0.5844 -0.0109 -0.7289
  365MOL0     C49181   4.120  10.661   5.798 -0.1301 -0.3957 -0.4286
  365MOL0     C49182   4.031  10.541   5.753 -0.6138 -1.1845  0.2425
  365MOL0     C49183   3.879  10.564   5.755 -0.0939  0.1435 -0.5937
  365MOL0     C49184   3.833  10.686   5.672  0.4752  0.9086 -0.0449
  365MOL0    Cl49185   3.846  10.835   5.765 -0.2501 -0.2521  0.6543
  365MOL0     C49186   4.869  10.509   5.505  0.6498  0.2496  0.4736
  365MOL0     C49187   5.004  10.522   5.479  0.0223  0.1809 -0.0859
  365MOL0     O49188   5.294  10.596   5.744 -0.3460 -0.5655  0.0323
  365MOL0     C49189   5.468  10.490   5.446 -0.7866  0.4012  0.0059
  365MOL0     C49190   5.580  10.500   5.372  0.1868  0.2446  0.1748
  365MOL0     N49191   5.839  10.990   4.815  0.3368 -0.5164 -0.1821
  365MOL0     N49192   5.879  11.086   4.740  0.6103 -0.6048  0.9625
  365MOL0     C49193   6.809  11.362   4.010 -0.3264 -0.3347 -0.0283
  365MOL0     C49194   6.912  11.324   4.104  0.8343  0.6934 -0.7371
  365MOL0     C49195   7.130  11.107   4.459  0.9833  0.8734  0.3186
  365MOL0     C49196   7.242  11.171   4.419 -1.1440 -0.0436 -0.3057
  365MOL0     C49197   7.356  11.153   4.498 -0.2615  0.0539 -0.7287
  365MOL0     C49198   7.360  11.067   4.614  0.0487 -0.4020 -0.0041
  365MOL0     O49199   7.471  11.053   4.700  0.1138  0.0618 -0.1657
  365MOL0     C49200   7.603  11.059   4.641 -1.3328 -0.2063 -1.1109
  365MOL0     C49201   7.675  11.198   4.662  0.3279  1.3113  0.2222
  365MOL0     C49202   7.693  11.235   4.801 -0.7313 -0.7070 -0.5020
  365MOL0     C49203   7.811  11.157   4.872  0.7527 -0.3886  0.1546
  365MOL0     C49204   7.934  11.213   4.828  0.3414 -0.0584 -0.1542
  365MOL0     C49205   8.033  11.274   4.789  0.1396  0.0035 -0.8765
  365MOL0     C49206   7.238  11.001   4.664 -0.3436 -0.8824 -0.3610
  365MOL0     C49207   7.133  11.024   4.580  0.8543  0.6370  0.4544
  365MOL0     H49208   6.724  11.131   4.311  3.2936 -1.5563 -0.7039
  365MOL0     H49209   6.550  11.210   4.157  0.9136 -3.9539 -0.7589
  365MOL0     H49210   6.604  11.543   4.131  1.2741  1.9085 -0.6147
  365MOL0     H49211   6.542  11.596   3.982 -2.2252 -0.5534 -0.0343
  365MOL0     H49212   6.335  11.598   4.135 -2.1314 -1.2258  3.5378
  365MOL0     H49213   6.326  11.477   4.010  2.3184 -0.1786 -2.1609
  365MOL0     H49214   6.345  11.305   4.170 -2.8545 -1.8629  3.9571
  365MOL0     H49215   6.456  11.395   4.274 -2.2262  0.9671  3.0758
  365MOL0     H49216   6.260  11.540   4.359 -0.0696 -0.4677  0.8420
  365MOL0     H49217   6.157  11.417   4.271  0.8643 -2.9116  0.5568
  365MOL0     H49218   6.303  11.254   4.416 -2.3148 -0.5179 -0.1402
  365MOL0     H49219   6.362  11.404   4.493  0.0331  2.4749 -1.6850
  365MOL0     H49220   6.147  11.465   4.582  0.4914 -1.1919  0.5476
  365MOL0     H49221   6.056  11.356   4.482 -0.1199 -0.7682  0.4503
  365MOL0     H49222   6.107  11.160   4.570 -3.4333  1.0251  0.0920
  365MOL0     H49223   6.242  11.226   4.671 -1.2037 -0.9563  0.7889
  365MOL0     H49224   5.961  11.328   4.715 -1.0851 -0.1552  1.2540
  365MOL0     H49225   6.092  11.316   4.830 -0.4995 -1.8753  0.9281
  365MOL0     H49226   6.089  11.104   4.987  0.3100  1.3435 -0.1030
  365MOL0     H49227   5.887  10.775   4.982  4.0207 -2.0205 -0.1839
  365MOL0     H49228   6.037  10.832   5.043 -0.0371 -2.4500 -1.2389
  365MOL0     H49229   5.764  10.938   5.114 -0.2328 -0.3673  0.2833
  365MOL0     H49230   5.922  10.992   5.194  0.2017  1.1983  0.4636
  365MOL0     H49231   5.773  10.833   5.338  0.2726  3.5776 -2.8291
  365MOL0     H49232   5.936  10.772   5.307  3.1810 -1.8572 -4.8005
  365MOL0     H49233   5.850  10.611   5.142 -0.0754 -1.1998 -1.1167
  365MOL0     H49234   5.680  10.674   5.191  0.4497  1.1561  0.0378
  365MOL0     H49235   5.753  10.709   5.570  2.0322 -2.8947  0.9727
  365MOL0     H49236   5.523  10.839   5.703 -0.1631  0.4827  1.7858
  365MOL0     H49237   5.492  10.706   5.814 -0.0512 -2.3757  0.2325
  365MOL0     H49238   5.662  10.752   5.778  0.0833 -2.0507 -0.9085
  365MOL0     H49239   5.129  10.409   5.777 -1.6371 -1.0919  1.6206
  365MOL0     H49240   4.889  10.385   5.826 -0.9997  2.4271  1.2098
  365MOL0     H49241   4.613  10.613   5.613 -0.8574  0.3358  1.7141
  365MOL0     H49242   4.537  10.466   5.531  2.3809 -3.0010 -0.2786
  365MOL0     H49243   4.448  10.403   5.759  0.3428 -0.2772  1.3072
  365MOL0     H49244   4.548  10.527   5.830  0.8309 -0.1217 -0.4037
  365MOL0     H49245   4.304  10.549   5.632 -3.1004 -0.0471  1.6198
  365MOL0     H49246   4.393  10.689   5.668 -0.5692  0.7305  1.1624
  365MOL0     H49247   4.259  10.530   5.904 -4.0166 -1.1407 -2.5208
  365MOL0     H49248   4.312  10.703   5.886  1.0530  1.4063 -3.4091
  365MOL0     H49249   4.130  10.719   5.706  2.4862 -2.7628 -1.7888
  365MOL0     H49250   4.072  10.725   5.873  0.3883  0.3343 -0.7111
  365MOL0     H49251   4.064  10.520   5.651 -2.0092 -1.1559 -0.2343
  365MOL0     H49252   4.047  10.458   5.823 -0.7807  0.7810  2.7704
  365MOL0     H49253   3.840  10.579   5.856  3.4258 -1.7227  1.2630
  365MOL0     H49254   3.832  10.473   5.716  1.7663 -1.6245  1.0548
  365MOL0     H49255   3.728  10.676   5.642  0.6484 -0.5558 -0.2522
  365MOL0     H49256   3.897  10.691   5.583 -1.3111 -1.1120 -1.5631
  365MOL0     H49257   4.791  10.544   5.439  1.2253  1.0503  0.2042
  365MOL0     H49258   5.030  10.572   5.386 -0.7899 -0.1553 -0.5074
  365MOL0     H49259   5.389  10.426   5.408 -0.6986  0.1133  0.3061
  365MOL0     H49260   5.584  10.445   5.278 -0.8048 -0.5537  0.5837
  365MOL0     H49261   6.831  11.440   3.938  0.1226  0.5903  1.0721
  365MOL0     H49262   7.014  11.351   4.081  0.4690  0.2059 -3.3040
  365MOL0     H49263   7.244  11.232   4.330  0.1407  2.2929  1.2103
  365MOL0     H49264   7.451  11.200   4.471  0.8104 -1.3727  0.4071
  365MOL0     H49265   7.668  10.985   4.689 -2.6319 -0.1973  0.7374
  365MOL0     H49266   7.589  11.042   4.534 -3.2262 -1.7947 -0.6633
  365MOL0     H49267   7.626  11.276   4.604  1.5856  0.7511 -1.6832
  365MOL0     H49268   7.774  11.189   4.618  0.5273  2.0598  0.5057
  365MOL0     H49269   7.599  11.205   4.849  0.0294 -1.8492  0.3129
  365MOL0     H49270   7.719  11.340   4.814  2.3157 -1.1403 -2.2628
  365MOL0     H49271   7.802  11.051   4.845 -1.2406  0.4043 -2.7911
  365MOL0     H49272   7.809  11.161   4.981 -1.6361  1.7824  0.1350
  365MOL0     H49273   8.109  11.342   4.759 -0.3750  1.5071  1.0679
  365MOL0     H49274   7.227  10.959   4.763 -0.7213  0.6688  0.2912
  365MOL0     H49275   7.039  10.974   4.600 -0.3461  1.8978 -1.6760
  366MOL0     O49276   4.398   0.746   3.293  0.0018  0.0015 -0.5142
  366MOL0     C49277   4.397   0.864   3.325 -0.9855  0.2100 -0.0978
  366MOL0     O49278   4.301   0.930   3.390  0.0739 -0.1997  0.8542
  366MOL0     C49279   4.198   0.857   3.443 -0.0864  0.1985 -0.2789
  366MOL0     C49280   4.220   0.762   3.538  0.0816  0.1541  0.5211
  366MOL0     C49281   4.116   0.681   3.586 -0.0447 -1.1258  0.7156
  366MOL0     C49282   3.985   0.702   3.549 -0.5774 -1.2038  0.3223
  366MOL0     O49283   3.889   0.621   3.612 -0.3806 -0.4189 -0.3715
  366MOL0     C49284   3.749   0.644   3.596  0.5990 -0.4400 -0.3785
  366MOL0     C49285   3.675   0.510   3.554  0.6403  0.1305  0.2626
  366MOL0     C49286   3.716   0.474   3.413 -0.2173 -0.8708 -0.0051
  366MOL0     C49287   3.842   0.383   3.409  0.3159  0.2655  0.1218
  366MOL0     C49288   3.915   0.366   3.272 -0.0953  0.3576 -0.8745
  366MOL0     C49289   4.063   0.331   3.278 -0.1598 -0.0522 -0.0385
  366MOL0     C49290   4.091   0.198   3.348  0.3078 -0.7582 -0.6933
  366MOL0     C49291   4.142   0.213   3.489  0.0237  0.0695 -1.0824
  366MOL0     N49292   4.286   0.255   3.495  0.3200 -0.1414 -0.5588
  366MOL0     C49293   4.335   0.378   3.501  0.6319 -0.1674 -0.3669
  366MOL0     C49294   4.469   0.359   3.489 -0.1281 -0.4770  0.1492
  366MOL0     C49295   4.581   0.458   3.491  0.6395 -0.2221  0.2930
  366MOL0     C49296   4.691   0.419   3.402 -0.6929  0.2810  0.0790
  366MOL0     C49297   4.664   0.471   3.251  0.3107 -0.0145 -0.7001
  366MOL0     C49298   4.791   0.476   3.169  0.6329  0.8242 -1.2082
  366MOL0     O49299   4.778   0.555   3.046  0.1240  0.5035 -0.2304
  366MOL0     C49300   4.894   0.576   2.965  0.2621 -0.0698  0.1588
  366MOL0     C49301   5.010   0.509   2.976 -0.7212 -0.2521 -0.1181
  366MOL0     C49302   5.117   0.543   2.889  0.3324  0.4123  0.2442
  366MOL0     C49303   5.252   0.461   2.894  0.5140 -0.3378 -0.6095
  366MOL0     C49304   5.095   0.647   2.783 -0.0259  0.3184 -0.3264
  366MOL0     C49305   5.192   0.680   2.680 -0.4948  0.6640  0.0863
  366MOL0     O49306   5.316   0.704   2.730 -0.0170  0.2508  0.7663
  366MOL0     C49307   5.422   0.736   2.649 -0.2265 -0.0530 -0.0485
  366MOL0     C49308   5.545   0.703   2.701 -0.4291 -0.0149 -0.8826
  366MOL0     C49309   5.658   0.748   2.644 -0.5888 -0.7857 -0.2603
  366MOL0     C49310   5.662   0.821   2.528  0.6005 -0.0978 -0.9270
  366MOL0     O49311   5.787   0.876   2.481 -0.2931  0.0960  0.5961
  366MOL0     C49312   5.861   0.794   2.392  0.0158  0.4585  0.4119
  366MOL0     C49313   5.976   0.881   2.340  0.2207 -0.1792 -0.1464
  366MOL0     C49314   5.941   1.031   2.326 -0.0571 -0.1207  0.2637
  366MOL0     C49315   6.041   1.119   2.246 -0.3818  0.1452  0.8512
  366MOL0     C49316   6.171   1.171   2.323 -1.0698 -0.3773  0.0323
  366MOL0     C49317   6.144   1.274   2.435  0.1431 -0.0378  0.4250
  366MOL0     C49318   6.265   1.299   2.521  0.0716  0.2102 -0.0237
  366MOL0     C49319   6.364   1.403   2.457  0.7867  0.0250  0.7297
  366MOL0    Cl49320   6.503   1.450   2.568  0.2854  0.2354  0.1260
  366MOL0     C49321   5.529   0.847   2.470 -0.4165 -0.2180 -0.2744
  366MOL0     C49322   5.409   0.803   2.525 -0.3780  0.2443 -1.2362
  366MOL0     O49323   5.164   0.673   2.564  0.5860  0.3010  0.2813
  366MOL0     C49324   4.969   0.705   2.770 -0.0720 -0.2044  0.5947
  366MOL0     C49325   4.868   0.668   2.858 -0.3104  0.6708 -0.1780
  366MOL0     N49326   4.493   0.227   3.490  0.0315  0.4592 -0.2448
  366MOL0     N49327   4.385   0.160   3.504  0.2103  0.5118 -1.0767
  366MOL0     C49328   3.962   0.811   3.451  0.9409 -0.6358  0.4788
  366MOL0     C49329   4.074   0.877   3.405  0.0924  0.2267  0.4930
  366MOL0     C49330   4.508   0.952   3.276 -0.1504 -0.1850  0.5740
  366MOL0     C49331   4.582   0.921   3.157 -0.5539 -0.1681  0.3747
  366MOL0     C49332   4.705   0.985   3.136 -0.5082 -0.2094 -0.1217
  366MOL0     C49333   4.752   1.086   3.221  0.2869 -0.7269 -0.1035
  366MOL0     O49334   4.862   1.153   3.173 -0.2559 -0.1234 -0.4666
  366MOL0     C49335   4.883   1.286   3.221  0.6520  0.7673  0.8277
  366MOL0     C49336   4.991   1.279   3.332  0.1805  0.1399  0.1737
  366MOL0     C49337   5.015   1.434   3.357 -0.1318  1.1751 -0.6021
  366MOL0     C49338   5.047   1.538   3.246 -0.4664 -0.6217  1.0069
  366MOL0     C49339   5.148   1.495   3.147  0.0425  0.1337 -0.4065
  366MOL0     C49340   5.229   1.437   3.064  0.1987 -0.4271  0.2356
  366MOL0     C49341   4.670   1.126   3.332  0.0359  0.0153  0.2073
  366MOL0     C49342   4.554   1.053   3.361 -0.2228  0.4505 -0.5241
  366MOL0     H49343   4.324   0.741   3.562 -0.4571 -1.3914  1.6249
  366MOL0     H49344   4.136   0.611   3.667 -1.9792 -0.4006  1.8912
  366MOL0     H49345   3.705   0.678   3.691  0.1072  2.9780 -1.6979
  366MOL0     H49346   3.727   0.715   3.517 -0.7321 -0.7231 -0.2880
  366MOL0     H49347   3.692   0.424   3.620  1.4129 -2.5951 -3.1996
  366MOL0     H49348   3.567   0.524   3.549  0.4492 -0.8519  1.2416
  366MOL0     H49349   3.638   0.422   3.358 -0.4314 -0.7794  0.2114
  366MOL0     H49350   3.740   0.568   3.362 -0.0380 -2.4468 -3.0475
  366MOL0     H49351   3.908   0.421   3.488 -1.9274  2.1637  1.2174
  366MOL0     H49352   3.811   0.280   3.429  0.1366  0.1929 -0.5255
  366MOL0     H49353   3.862   0.284   3.223  0.4961 -0.5602 -0.0242
  366MOL0     H49354   3.906   0.460   3.217  1.7713 -0.7428 -3.2498
  366MOL0     H49355   4.100   0.324   3.175 -1.0555  2.9911 -0.6858
  366MOL0     H49356   4.122   0.409   3.326 -0.0967 -0.5776  0.7513
  366MOL0     H49357   3.999   0.141   3.362  0.5276 -0.6534  1.5362
  366MOL0     H49358   4.153   0.135   3.284  0.4147  0.4808 -1.8657
  366MOL0     H49359   4.132   0.118   3.542 -0.7974  1.2712  1.0776
  366MOL0     H49360   4.082   0.286   3.545 -0.9289 -0.9280 -0.7711
  366MOL0     H49361   4.287   0.473   3.522  0.7199 -0.1777 -0.1187
  366MOL0     H49362   4.540   0.553   3.457  0.0919  0.3373  2.3940
  366MOL0     H49363   4.622   0.471   3.591  2.2219 -0.5253 -0.2810
  366MOL0     H49364   4.712   0.312   3.406  0.4798  0.4094 -1.6567
  366MOL0     H49365   4.777   0.470   3.446 -1.6697 -0.4898  3.0948
  366MOL0     H49366   4.622   0.572   3.247 -0.0782 -0.1737 -0.6778
  366MOL0     H49367   4.594   0.402   3.202 -1.4310  2.4053 -1.8431
  366MOL0     H49368   4.818   0.375   3.136  2.2489  1.4600 -1.9190
  366MOL0     H49369   4.873   0.512   3.232  1.4129 -3.2804  0.4551
  366MOL0     H49370   5.033   0.421   3.034  1.6332 -0.2560 -0.9521
  366MOL0     H49371   5.316   0.523   2.957 -1.0646 -0.9828  1.7710
  366MOL0     H49372   5.243   0.365   2.947 -2.3926 -1.9143 -3.5382
  366MOL0     H49373   5.291   0.439   2.794 -3.7243 -1.0617 -2.3225
  366MOL0     H49374   5.557   0.648   2.794 -0.3102 -1.0281 -1.4785
  366MOL0     H49375   5.741   0.735   2.713  0.3790 -2.6560 -1.6700
  366MOL0     H49376   5.893   0.698   2.433  0.6601  0.2651 -0.5127
  366MOL0     H49377   5.801   0.776   2.302  3.8515  0.0207 -2.2785
  366MOL0     H49378   6.061   0.867   2.408  0.5501  0.9082 -0.3084
  366MOL0     H49379   6.005   0.847   2.240  1.2135  2.5798 -0.9104
  366MOL0     H49380   5.906   1.093   2.409 -1.7998 -0.0803 -0.4576
  366MOL0     H49381   5.851   1.018   2.266  2.0657 -0.1151 -3.1991
  366MOL0     H49382   6.088   1.065   2.163  0.3410  2.7644 -0.5442
  366MOL0     H49383   5.988   1.207   2.209  0.4235  1.1162  1.9184
  366MOL0     H49384   6.244   1.203   2.248  0.4468 -1.1387  1.1396
  366MOL0     H49385   6.223   1.088   2.372  2.3969  0.5921 -1.6572
  366MOL0     H49386   6.105   1.364   2.387  0.5943  0.3463  0.7671
  366MOL0     H49387   6.056   1.248   2.496 -1.4696 -0.4884 -1.9280
  366MOL0     H49388   6.316   1.208   2.552  0.0382  0.9990  2.6879
  366MOL0     H49389   6.220   1.340   2.612 -1.7114  2.5876 -1.8355
  366MOL0     H49390   6.302   1.491   2.437 -0.6987 -1.3249 -0.8844
  366MOL0     H49391   6.422   1.365   2.373  1.6570 -0.3084  1.4634
  366MOL0     H49392   5.528   0.896   2.373 -3.7752 -1.6394 -1.1130
  366MOL0     H49393   5.319   0.845   2.481 -1.2753 -1.6035 -1.2368
  366MOL0     H49394   4.948   0.771   2.686 -0.1181  2.2600  2.4146
  366MOL0     H49395   4.768   0.709   2.867  0.2068  1.8222  0.7114
  366MOL0     H49396   3.866   0.842   3.410 -0.0191 -0.9086  2.3575
  366MOL0     H49397   4.069   0.950   3.325  2.7242 -1.9248 -1.8179
  366MOL0     H49398   4.550   0.835   3.099  3.2143 -0.0367 -2.2716
  366MOL0     H49399   4.750   0.961   3.040 -3.7789  2.0078 -2.4087
  366MOL0     H49400   4.915   1.338   3.130 -0.2338 -1.6045 -0.9561
  366MOL0     H49401   4.791   1.336   3.251 -1.5872 -1.5908 -1.4895
  366MOL0     H49402   5.079   1.226   3.296  0.1571  1.6993 -2.3795
  366MOL0     H49403   4.944   1.226   3.416  0.8428  0.2690  0.6371
  366MOL0     H49404   5.091   1.439   3.435  2.8156  0.9964 -3.2423
  366MOL0     H49405   4.935   1.468   3.423  0.3273  0.0498  0.5601
  366MOL0     H49406   5.075   1.636   3.286 -0.8539  1.4025 -3.1408
  366MOL0     H49407   4.951   1.551   3.196 -0.3971  0.6114  1.1605
  366MOL0     H49408   5.288   1.387   2.990 -0.0769 -1.4462  0.6877
  366MOL0     H49409   4.691   1.198   3.410 -2.5765  0.1294  0.9027
  366MOL0     H49410   4.492   1.082   3.445 -1.9523  0.5423 -1.8018
  367MOL0     O49411   0.754  10.061   0.062 -0.1776  0.0621 -0.1012
  367MOL0     C49412   0.670   9.990   0.009  0.3117 -0.3426 -0.5276
  367MOL0     O49413   0.576  10.038  -0.076  0.7617 -0.4105 -0.6705
  367MOL0     C49414   0.601  10.155  -0.141 -0.7599  0.6622 -0.4122
  367MOL0     C49415   0.498  10.246  -0.157 -0.2962 -0.0515 -0.2356
  367MOL0     C49416   0.523  10.375  -0.217 -0.3274 -0.3986 -0.1968
  367MOL0     C49417   0.655  10.415  -0.264  0.1425  0.2956  0.1930
  367MOL0     O49418   0.678  10.525  -0.337 -0.4343 -0.1440 -0.7294
  367MOL0     C49419   0.575  10.627  -0.342  0.2112  0.0391 -0.3961
  367MOL0     C49420   0.630  10.748  -0.425 -0.3909 -0.5202 -0.3673
  367MOL0     C49421   0.759  10.795  -0.355 -0.2721 -0.5137 -0.7216
  367MOL0     C49422   0.839  10.885  -0.444  0.6434 -0.1420  0.7450
  367MOL0     C49423   0.970  10.946  -0.400 -0.2104  0.1105 -0.5202
  367MOL0     C49424   1.083  10.969  -0.509 -0.4224  0.8150  1.1279
  367MOL0     C49425   1.038  11.039  -0.636 -0.1071  0.1257  0.3968
  367MOL0     C49426   1.021  11.189  -0.615  0.3693 -0.3375 -0.1848
  367MOL0     N49427   1.143  11.259  -0.567 -0.6190  0.0067  0.1573
  367MOL0     C49428   1.268  11.260  -0.618  0.8706 -0.2470  0.0305
  367MOL0     C49429   1.343  11.325  -0.531 -0.1103 -0.7375 -1.2878
  367MOL0     C49430   1.487  11.357  -0.553  0.8552  0.8023 -1.0448
  367MOL0     C49431   1.574  11.384  -0.429 -0.2147  0.5379  0.0130
  367MOL0     C49432   1.544  11.517  -0.351  0.5746 -0.1068  0.1703
  367MOL0     C49433   1.621  11.506  -0.222 -0.4713 -0.4104 -0.1923
  367MOL0     O49434   1.614  11.642  -0.158  0.0747  0.0068  0.2076
  367MOL0     C49435   1.730  11.707  -0.131  0.3692 -0.3037  0.2919
  367MOL0     C49436   1.821  11.735  -0.235  0.5222  1.1681  1.2887
  367MOL0     C49437   1.943  11.799  -0.221  0.0485 -0.2729 -0.1197
  367MOL0     C49438   2.007  11.839  -0.357  0.1940  0.0738  0.4388
  367MOL0     C49439   1.983  11.825  -0.087 -0.5195 -0.0995 -0.1956
  367MOL0     C49440   2.118  11.869  -0.048 -0.5937 -0.7945 -1.2961
  367MOL0     O49441   2.213  11.850  -0.143  0.0849 -0.7140 -0.3345
  367MOL0     C49442   2.340  11.903  -0.130  0.0609  0.2395  0.2985
  367MOL0     C49443   2.445  11.814  -0.080  0.9027 -0.0876  0.0645
  367MOL0     C49444   2.573  11.873  -0.069 -0.1651 -0.0436 -0.0561
  367MOL0     C49445   2.604  12.010  -0.094 -0.0321  0.0375  0.0769
  367MOL0     O49446   2.729  12.055  -0.058  0.6613  0.4495 -0.1317
  367MOL0     C49447   2.759  12.197  -0.059 -0.1947  0.1036 -0.2799
  367MOL0     C49448   2.861  12.224   0.053  0.5368 -0.1424 -0.6112
  367MOL0     C49449   3.005  12.222   0.010  0.0878  0.1840  0.3195
  367MOL0     C49450   3.039  12.085  -0.036  0.3900  0.3148  1.3864
  367MOL0     C49451   3.182  12.059  -0.058  0.1857  0.7928  0.3885
  367MOL0     C49452   3.256  12.141  -0.164  1.0842 -0.3914  0.1350
  367MOL0     C49453   3.191  12.122  -0.309 -0.0266  0.6771  1.1591
  367MOL0     C49454   3.273  12.212  -0.409 -0.5479  0.0788  0.1108
  367MOL0    Cl49455   3.422  12.113  -0.427 -0.1928 -0.2233  0.0657
  367MOL0     C49456   2.503  12.094  -0.146 -0.0798 -0.4204  0.1392
  367MOL0     C49457   2.374  12.034  -0.164  0.3778 -0.5694 -0.0687
  367MOL0     O49458   2.143  11.914   0.071  0.2665  0.1438 -0.2149
  367MOL0     C49459   1.892  11.786   0.018  0.6236 -0.9106 -0.1868
  367MOL0     C49460   1.765  11.736   0.001 -0.4316  0.7210  0.1090
  367MOL0     N49461   1.266  11.343  -0.420 -0.1362 -0.5399  0.1806
  367MOL0     N49462   1.146  11.308  -0.443 -0.2509  0.0133  0.9202
  367MOL0     C49463   0.757  10.326  -0.249  1.1406  0.9231 -0.7496
  367MOL0     C49464   0.732  10.196  -0.190  0.1859  0.1666  0.0740
  367MOL0     C49465   0.655   9.853   0.039  0.8689 -0.0440  0.1680
  367MOL0     C49466   0.534   9.777  -0.011  0.2581 -0.6904 -0.3681
  367MOL0     C49467   0.525   9.636   0.000  0.6354 -0.7814  0.4511
  367MOL0     C49468   0.625   9.566   0.059 -0.2190  0.0569 -0.1986
  367MOL0     O49469   0.614   9.428   0.072 -0.2645 -0.5887 -0.5223
  367MOL0     C49470   0.659   9.354  -0.038 -0.2579 -0.2499  0.0160
  367MOL0     C49471   0.788   9.398  -0.105 -0.3560 -0.1491 -0.9276
  367MOL0     C49472   0.918   9.383  -0.026  0.5069 -0.0425 -0.4280
  367MOL0     C49473   1.044   9.439  -0.092 -0.2895  0.3784  0.1855
  367MOL0     C49474   1.153   9.435   0.008  0.4004 -0.4351  0.3093
  367MOL0     C49475   1.250   9.450   0.085  0.1156 -0.4698  0.0659
  367MOL0     C49476   0.734   9.637   0.111  0.4770  0.7133  0.2819
  367MOL0     C49477   0.756   9.776   0.096 -0.0913 -0.3590  0.0969
  367MOL0     H49478   0.398  10.222  -0.123 -0.5584  3.7654  2.2909
  367MOL0     H49479   0.431  10.432  -0.226 -1.1888 -2.0234 -3.5215
  367MOL0     H49480   0.479  10.590  -0.379  0.2613  0.0589 -0.5501
  367MOL0     H49481   0.554  10.664  -0.241  4.7016  1.8372  0.1257
  367MOL0     H49482   0.649  10.719  -0.529 -4.5687  0.8129 -1.7101
  367MOL0     H49483   0.549  10.821  -0.430 -0.4746 -0.6733 -2.9738
  367MOL0     H49484   0.738  10.851  -0.263 -0.3993 -0.3480 -0.8509
  367MOL0     H49485   0.824  10.709  -0.335  1.0517  0.8899  1.4441
  367MOL0     H49486   0.844  10.829  -0.537  1.0709 -3.2834  2.5264
  367MOL0     H49487   0.770  10.968  -0.464 -0.9597 -1.3837  0.8762
  367MOL0     H49488   0.954  11.034  -0.336 -3.6750 -0.6163 -0.1668
  367MOL0     H49489   1.013  10.868  -0.338  2.6092  1.1631 -1.0006
  367MOL0     H49490   1.163  11.023  -0.457  0.8946 -0.4119  0.4220
  367MOL0     H49491   1.124  10.871  -0.537  0.7160  1.3149  0.9646
  367MOL0     H49492   1.105  11.027  -0.721 -0.4871  0.7869 -0.0033
  367MOL0     H49493   0.948  10.983  -0.665 -0.3021  0.5176  0.2458
  367MOL0     H49494   0.960  11.206  -0.526  1.3565  0.5929  0.3457
  367MOL0     H49495   0.986  11.243  -0.703 -0.4963  1.3861  1.1578
  367MOL0     H49496   1.299  11.230  -0.717  1.9248  3.1348 -0.7891
  367MOL0     H49497   1.533  11.279  -0.613  2.1647  1.0094 -0.3386
  367MOL0     H49498   1.495  11.451  -0.607 -0.3280  0.2922 -2.1506
  367MOL0     H49499   1.675  11.381  -0.472  0.6183 -0.6079  1.9011
  367MOL0     H49500   1.559  11.294  -0.369  2.6995  0.9418  1.5312
  367MOL0     H49501   1.438  11.530  -0.330  0.8992  0.4084  1.6148
  367MOL0     H49502   1.592  11.600  -0.405  3.2753 -1.3235  0.5124
  367MOL0     H49503   1.723  11.477  -0.249 -0.0294  1.6384 -0.9158
  367MOL0     H49504   1.580  11.436  -0.148 -0.2482 -1.7400 -1.2900
  367MOL0     H49505   1.787  11.702  -0.333  0.1944  0.1350  1.7363
  367MOL0     H49506   2.004  11.755  -0.427  0.5835  0.3207  0.1245
  367MOL0     H49507   1.937  11.916  -0.392  2.4274  0.9610 -2.4395
  367MOL0     H49508   2.099  11.897  -0.353 -0.5341  1.2186  1.8335
  367MOL0     H49509   2.418  11.712  -0.056 -1.0175  0.8191  2.0407
  367MOL0     H49510   2.659  11.808  -0.059  0.5323  0.0758 -3.8177
  367MOL0     H49511   2.804  12.222  -0.155  0.2387  0.0927 -0.0816
  367MOL0     H49512   2.670  12.256  -0.036  0.3349  0.3807  1.1991
  367MOL0     H49513   2.844  12.327   0.086 -1.1544 -0.6277  0.1553
  367MOL0     H49514   2.842  12.160   0.139 -0.0554  2.8027  1.6361
  367MOL0     H49515   3.065  12.248   0.097 -1.1301  1.6305  0.7731
  367MOL0     H49516   3.018  12.286  -0.078 -0.3155 -2.3109 -1.6775
  367MOL0     H49517   3.019  12.004   0.035 -1.6656 -0.7261 -0.2694
  367MOL0     H49518   2.979  12.061  -0.125 -0.4613 -0.6724  2.1978
  367MOL0     H49519   3.199  11.952  -0.069  0.5688  0.6656  1.9404
  367MOL0     H49520   3.225  12.092   0.038 -2.1010 -0.7013  2.0300
  367MOL0     H49521   3.260  12.246  -0.134 -0.0353 -0.2881 -0.0082
  367MOL0     H49522   3.358  12.102  -0.166  1.1930 -0.0906 -1.5247
  367MOL0     H49523   3.088  12.158  -0.317  0.9692  3.6047  0.1292
  367MOL0     H49524   3.202  12.015  -0.327  0.5753  0.9350 -0.1626
  367MOL0     H49525   3.283  12.317  -0.380 -4.5666  1.4788 -2.6287
  367MOL0     H49526   3.220  12.210  -0.505  1.2848  1.4903 -0.9984
  367MOL0     H49527   2.517  12.193  -0.188  1.9219 -0.0947  1.4735
  367MOL0     H49528   2.292  12.093  -0.203  0.0459 -1.3718 -0.6079
  367MOL0     H49529   1.912  11.808   0.122 -2.3275 -2.4337  0.8332
  367MOL0     H49530   1.697  11.713   0.082  1.4131 -0.6734  1.3411
  367MOL0     H49531   0.859  10.356  -0.272  2.7102 -2.5551  0.9005
  367MOL0     H49532   0.816  10.128  -0.177 -1.6182 -2.4165 -1.0260
  367MOL0     H49533   0.449   9.832  -0.050  1.5087  2.2972  0.8325
  367MOL0     H49534   0.435   9.585  -0.033 -0.5181  1.3658  0.0920
  367MOL0     H49535   0.672   9.253   0.001  1.2214  0.5678  1.8166
  367MOL0     H49536   0.578   9.352  -0.112 -1.4246 -0.3673  1.2561
  367MOL0     H49537   0.784   9.502  -0.140  2.1806 -0.1529 -1.4285
  367MOL0     H49538   0.802   9.350  -0.202  0.9238 -0.0235 -0.8246
  367MOL0     H49539   0.937   9.276  -0.012 -0.1700 -0.2554 -1.0560
  367MOL0     H49540   0.913   9.422   0.076 -0.1900 -0.7906 -0.1689
  367MOL0     H49541   1.033   9.544  -0.121  2.8788  1.9334  3.8015
  367MOL0     H49542   1.086   9.378  -0.173  3.2064  1.0016  1.3504
  367MOL0     H49543   1.333   9.467   0.151 -0.6298 -0.3675  1.0033
  367MOL0     H49544   0.805   9.568   0.154 -1.4117 -2.6463 -1.5700
  367MOL0     H49545   0.841   9.820   0.148 -0.4996  1.8467 -0.9663
  368MOL0     O49546   7.457   6.781  10.342  0.2250 -0.8957  0.6313
  368MOL0     C49547   7.577   6.757  10.378 -0.5550 -0.4094 -0.2343
  368MOL0     O49548   7.637   6.637  10.403 -0.0673  0.6952  0.1230
  368MOL0     C49549   7.561   6.523  10.415 -1.2473 -0.2775 -0.8908
  368MOL0     C49550   7.607   6.408  10.355  1.0939 -0.9255  0.6570
  368MOL0     C49551   7.530   6.295  10.368  0.0642 -0.1664  0.3934
  368MOL0     C49552   7.408   6.295  10.440  0.6117  0.7285  0.5491
  368MOL0     O49553   7.339   6.180  10.457  0.1684  1.1707 -0.2186
  368MOL0     C49554   7.207   6.188  10.414  0.2071 -0.5558 -0.3433
  368MOL0     C49555   7.147   6.057  10.351  0.4188 -0.5409 -1.0560
  368MOL0     C49556   6.993   6.062  10.324  0.5506 -0.1855  0.4198
  368MOL0     C49557   6.962   5.934  10.236  0.6238  0.0888  0.2649
  368MOL0     C49558   6.805   5.918  10.206  0.0233  0.1697  0.4818
  368MOL0     C49559   6.728   5.851  10.322  0.5923  0.2076 -0.0703
  368MOL0     C49560   6.574   5.826  10.283 -1.2491 -0.9030 -0.3488
  368MOL0     C49561   6.571   5.721  10.182  0.2965  0.8716 -0.1471
  368MOL0     N49562   6.439   5.720  10.122  0.2026 -0.0680 -0.0771
  368MOL0     C49563   6.330   5.682  10.196  0.4220  1.3007 -0.3158
  368MOL0     C49564   6.223   5.666  10.111 -0.1704 -0.0941  0.1193
  368MOL0     C49565   6.086   5.605  10.116  0.6992 -0.3383 -0.1806
  368MOL0     C49566   5.975   5.710  10.164  0.0946 -0.1250  0.6919
  368MOL0     C49567   5.838   5.644  10.157 -0.1650  0.2243 -0.3854
  368MOL0     C49568   5.723   5.739  10.170  0.6383 -0.1056  0.4735
  368MOL0     O49569   5.752   5.811  10.279  0.5202  0.3493 -0.7749
  368MOL0     C49570   5.658   5.894  10.327 -0.2949  0.1978 -0.0893
  368MOL0     C49571   5.666   5.935  10.463 -0.5595  0.2352 -0.0853
  368MOL0     C49572   5.568   6.022  10.519  0.3939  0.4591 -0.2334
  368MOL0     C49573   5.611   6.092  10.651  0.0163 -0.1950 -0.1360
  368MOL0     C49574   5.449   6.055  10.456 -0.1706  0.8638  0.0384
  368MOL0     C49575   5.332   6.123  10.518  0.1730  0.2350  0.2374
  368MOL0     O49576   5.214   6.136  10.442  0.9096  0.0533  0.8348
  368MOL0     C49577   5.110   6.217  10.490 -0.5050  0.1054  0.0518
  368MOL0     C49578   5.071   6.331  10.417 -0.8055 -0.4049 -0.4434
  368MOL0     C49579   4.972   6.414  10.463  0.6886 -0.4478  0.5518
  368MOL0     C49580   4.908   6.391  10.581  0.0286  0.0124  0.1115
  368MOL0     O49581   4.810   6.489  10.617  0.2171 -0.4469 -0.6685
  368MOL0     C49582   4.747   6.481  10.746  0.7486 -0.0900 -1.7016
  368MOL0     C49583   4.617   6.568  10.748 -0.1420  0.5474  0.0660
  368MOL0     C49584   4.529   6.533  10.873  0.1942  0.6918 -0.0393
  368MOL0     C49585   4.408   6.625  10.882  0.2113  0.0302  1.1785
  368MOL0     C49586   4.356   6.625  11.028 -0.7119 -0.7545 -0.2970
  368MOL0     C49587   4.237   6.715  11.036  0.8599 -0.1320 -0.8427
  368MOL0     C49588   4.174   6.683  11.180 -0.0749 -0.3506  0.4197
  368MOL0     C49589   4.128   6.810  11.241  1.2263  0.8954  0.2530
  368MOL0    Cl49590   4.004   6.805  11.372 -0.3636  0.3601  0.2082
  368MOL0     C49591   4.940   6.270  10.650 -0.7299  0.9963  0.1149
  368MOL0     C49592   5.047   6.186  10.613 -0.2668  0.5783  0.3004
  368MOL0     O49593   5.343   6.169  10.632  0.1012  0.1681  0.2263
  368MOL0     C49594   5.438   6.003  10.321  0.7620 -0.4630  0.7521
  368MOL0     C49595   5.542   5.932  10.259  0.0334  0.2373  0.2277
  368MOL0     N49596   6.273   5.716   9.989 -0.0725  0.3229 -0.7361
  368MOL0     N49597   6.397   5.752   9.996  0.1691  0.2269  0.3457
  368MOL0     C49598   7.367   6.410  10.502  0.1044  0.2013 -0.2393
  368MOL0     C49599   7.446   6.525  10.492  0.3124 -0.0298 -0.1701
  368MOL0     C49600   7.664   6.869  10.393  0.4130 -0.5546  0.6044
  368MOL0     C49601   7.618   7.002  10.387 -0.2508 -0.1441  0.0336
  368MOL0     C49602   7.696   7.108  10.414 -0.9461  0.2907  0.9166
  368MOL0     C49603   7.826   7.099  10.445 -0.2015  0.5409  0.2669
  368MOL0     O49604   7.906   7.207  10.463 -0.5599  0.0424 -1.2749
  368MOL0     C49605   7.866   7.338  10.501  0.3481  0.1403  0.0867
  368MOL0     C49606   8.005   7.415  10.502  0.4143  0.5572 -0.0575
  368MOL0     C49607   8.095   7.372  10.628 -0.0109  0.0131  0.4396
  368MOL0     C49608   8.202   7.486  10.654  0.3319  0.2500 -0.4153
  368MOL0     C49609   8.252   7.472  10.792 -0.2549  0.1743  1.0496
  368MOL0     C49610   8.283   7.487  10.909 -0.0242  0.7836 -0.4576
  368MOL0     C49611   7.877   6.972  10.451  0.1812 -0.1586  0.0014
  368MOL0     C49612   7.799   6.862  10.425  0.4137  0.7395  0.2875
  368MOL0     H49613   7.699   6.413  10.298 -0.2267  1.9027 -1.4817
  368MOL0     H49614   7.574   6.206  10.325  1.8774  0.8752 -0.0455
  368MOL0     H49615   7.141   6.224  10.493 -1.4590 -1.3135 -1.3271
  368MOL0     H49616   7.187   6.261  10.336 -4.7444 -0.5719  0.5787
  368MOL0     H49617   7.189   6.038  10.252 -3.9820 -1.2185 -3.0668
  368MOL0     H49618   7.177   5.972  10.414  0.8437 -0.2030 -0.7953
  368MOL0     H49619   6.915   6.058  10.400 -0.4655  0.8797 -0.5275
  368MOL0     H49620   6.985   6.158  10.272  6.2169 -0.1494 -1.0159
  368MOL0     H49621   7.019   5.939  10.143  0.2410 -1.6123 -0.1018
  368MOL0     H49622   6.988   5.840  10.286  1.4825 -0.3727 -1.0116
  368MOL0     H49623   6.767   6.007  10.155  0.3569 -1.1338 -2.2221
  368MOL0     H49624   6.806   5.844  10.126  0.6850 -0.0916  0.7254
  368MOL0     H49625   6.786   5.761  10.347  1.4416  0.2174 -1.8579
  368MOL0     H49626   6.742   5.924  10.402  0.3166  1.7354 -1.3577
  368MOL0     H49627   6.526   5.799  10.378  4.7536 -2.7836  2.6315
  368MOL0     H49628   6.538   5.926  10.260 -2.2728 -1.3581 -0.8028
  368MOL0     H49629   6.593   5.622  10.221 -1.3114  0.8916  0.9181
  368MOL0     H49630   6.641   5.746  10.102  1.9526  3.0321  1.8159
  368MOL0     H49631   6.324   5.644  10.297 -0.6282  1.1879 -0.4081
  368MOL0     H49632   6.068   5.558  10.019  1.6341 -0.0964 -0.4831
  368MOL0     H49633   6.082   5.520  10.185 -2.7015  0.1585  0.3910
  368MOL0     H49634   5.981   5.782  10.083 -1.3929 -2.0154 -1.2187
  368MOL0     H49635   5.981   5.764  10.259 -0.9973  0.0218  0.6916
  368MOL0     H49636   5.831   5.568  10.236 -1.9360  2.7412  2.0555
  368MOL0     H49637   5.837   5.585  10.064  1.1645 -0.5306  0.0399
  368MOL0     H49638   5.626   5.688  10.174 -0.2920  1.4278 -1.1457
  368MOL0     H49639   5.713   5.808  10.086  2.6943 -1.5422 -1.0721
  368MOL0     H49640   5.751   5.900  10.521 -1.1184  0.3917  0.8391
  368MOL0     H49641   5.721   6.090  10.656 -0.0096  0.2784  2.8927
  368MOL0     H49642   5.574   6.195  10.657 -1.2670 -0.7178  2.0839
  368MOL0     H49643   5.572   6.049  10.744 -0.7807  0.7632 -0.0123
  368MOL0     H49644   5.137   6.361  10.336  0.8406 -2.8720 -0.1397
  368MOL0     H49645   4.958   6.503  10.403 -0.5953 -0.4450  0.8432
  368MOL0     H49646   4.715   6.376  10.756  1.3163 -0.1924 -0.8911
  368MOL0     H49647   4.816   6.506  10.827  0.0071  1.9995 -1.6674
  368MOL0     H49648   4.637   6.675  10.751  1.8705  0.3087 -2.2346
  368MOL0     H49649   4.564   6.553  10.654  0.8404 -0.0533 -0.4066
  368MOL0     H49650   4.584   6.531  10.967 -0.7011 -3.2236  0.5966
  368MOL0     H49651   4.504   6.427  10.866  1.9777  0.2515 -0.4166
  368MOL0     H49652   4.437   6.725  10.848  1.0334 -0.4956  0.2762
  368MOL0     H49653   4.329   6.581  10.820  0.5086 -0.0336  0.8454
  368MOL0     H49654   4.430   6.660  11.100 -1.0181 -1.3490  0.3267
  368MOL0     H49655   4.321   6.528  11.065 -1.7895 -0.4769 -0.5428
  368MOL0     H49656   4.265   6.820  11.024 -2.8883  0.7969 -3.5714
  368MOL0     H49657   4.163   6.690  10.959 -0.1060  0.2241 -0.0509
  368MOL0     H49658   4.228   6.622  11.253  0.2619 -0.4889  0.0518
  368MOL0     H49659   4.085   6.625  11.157 -0.3032  0.8968 -2.1103
  368MOL0     H49660   4.112   6.876  11.156  2.8703 -2.7082 -3.1420
  368MOL0     H49661   4.214   6.857  11.290  2.4396  0.4428 -1.3559
  368MOL0     H49662   4.888   6.241  10.740  0.6083 -1.2624  0.2247
  368MOL0     H49663   5.075   6.100  10.672  2.4222 -0.3716 -2.1209
  368MOL0     H49664   5.345   6.026  10.268 -0.8587 -4.8619  1.2688
  368MOL0     H49665   5.529   5.907  10.154 -0.7434  3.5010 -0.5666
  368MOL0     H49666   7.282   6.422  10.569  0.2958 -2.2394  0.5290
  368MOL0     H49667   7.400   6.602  10.552 -0.1873  1.1224 -1.9458
  368MOL0     H49668   7.516   7.033  10.367  0.2794  2.2593  0.7407
  368MOL0     H49669   7.659   7.207  10.391 -2.1816 -0.4332 -0.3170
  368MOL0     H49670   7.803   7.387  10.425 -1.0501  0.4093  1.3642
  368MOL0     H49671   7.815   7.332  10.597 -0.4420  1.6436 -0.2046
  368MOL0     H49672   7.980   7.520  10.519 -4.1833 -0.3246 -0.0326
  368MOL0     H49673   8.055   7.411  10.405 -1.0005  2.2717 -0.9016
  368MOL0     H49674   8.149   7.277  10.616 -2.3781 -1.8012  2.7731
  368MOL0     H49675   8.040   7.352  10.721  0.8578 -1.5657  0.6574
  368MOL0     H49676   8.147   7.580  10.642 -0.1191 -0.3478 -4.2490
  368MOL0     H49677   8.280   7.458  10.583  1.8403  1.8373  0.5287
  368MOL0     H49678   8.308   7.512  11.010 -0.3781  1.7499 -0.5985
  368MOL0     H49679   7.982   6.949  10.466 -0.0153 -1.6133 -0.6644
  368MOL0     H49680   7.839   6.763  10.444 -1.8416  0.2142  3.0919
  369MOL0     O49681   0.017   6.698   4.345 -0.0052  0.2227  0.9405
  369MOL0     C49682   0.072   6.775   4.273 -0.7494 -0.1426  0.2095
  369MOL0     O49683   0.010   6.852   4.180  0.5078 -0.5626 -0.4088
  369MOL0     C49684  -0.123   6.820   4.155  0.4216  0.3612  0.1665
  369MOL0     C49685  -0.212   6.930   4.120 -0.0394 -0.8609  0.4127
  369MOL0     C49686  -0.350   6.923   4.090  0.2669 -0.1288 -0.6360
  369MOL0     C49687  -0.399   6.792   4.080 -0.2578 -0.9554 -0.6112
  369MOL0     O49688  -0.532   6.778   4.045  0.0638  0.2830  0.3411
  369MOL0     C49689  -0.608   6.717   4.147 -1.2749  0.4356 -0.2147
  369MOL0     C49690  -0.754   6.749   4.143 -0.3034 -0.4208  0.3165
  369MOL0     C49691  -0.779   6.901   4.146 -0.1423  0.3586 -0.3769
  369MOL0     C49692  -0.918   6.912   4.200  0.0338 -0.6163 -0.3210
  369MOL0     C49693  -0.981   7.050   4.186  0.2525  0.2183 -0.1886
  369MOL0     C49694  -1.136   7.038   4.197  0.7022  0.8941  0.6280
  369MOL0     C49695  -1.205   7.168   4.171 -0.3163  1.1562  0.3193
  369MOL0     C49696  -1.356   7.151   4.156 -0.4181  0.1487 -0.2165
  369MOL0     N49697  -1.423   7.148   4.288  0.1129  0.0367  0.0538
  369MOL0     C49698  -1.458   7.032   4.351 -0.7440  0.2009 -0.0936
  369MOL0     C49699  -1.487   7.077   4.474  0.4685  0.5393 -1.0637
  369MOL0     C49700  -1.526   6.997   4.606 -0.1613  0.0537 -0.1134
  369MOL0     C49701  -1.442   6.865   4.610 -0.4708  0.8769  0.0507
  369MOL0     C49702  -1.294   6.882   4.609 -0.5979 -0.0263 -1.1077
  369MOL0     C49703  -1.242   6.968   4.727 -0.6650 -0.2734  0.5783
  369MOL0     O49704  -1.112   6.923   4.767 -0.5207 -0.4404  0.3603
  369MOL0     C49705  -0.994   6.973   4.705  0.2718 -0.4977  0.8109
  369MOL0     C49706  -0.867   6.931   4.763  0.8413  0.4754  0.8668
  369MOL0     C49707  -0.754   6.998   4.721  0.0185 -0.4747  0.7729
  369MOL0     C49708  -0.632   6.984   4.809 -0.9162 -0.4820  0.0490
  369MOL0     C49709  -0.744   7.071   4.595  0.1804 -0.5388 -0.5645
  369MOL0     C49710  -0.621   7.114   4.529  0.4742 -0.2390  0.0408
  369MOL0     O49711  -0.620   7.241   4.469 -0.0812  0.6285 -0.0921
  369MOL0     C49712  -0.502   7.293   4.448 -0.3726 -0.5377  0.1039
  369MOL0     C49713  -0.408   7.320   4.556  0.0223  0.1171 -0.1619
  369MOL0     C49714  -0.293   7.378   4.519  0.2579 -0.4390  0.6287
  369MOL0     C49715  -0.258   7.421   4.385 -0.0489  0.0718 -0.2280
  369MOL0     O49716  -0.136   7.486   4.351 -0.1677  0.4380 -0.1741
  369MOL0     C49717  -0.095   7.578   4.445  0.3597  0.5458 -0.0818
  369MOL0     C49718   0.007   7.675   4.386  0.7112 -0.0290  0.6319
  369MOL0     C49719   0.146   7.614   4.401  0.0875  0.0456 -0.2566
  369MOL0     C49720   0.255   7.665   4.312  0.3031 -0.3068  0.3519
  369MOL0     C49721   0.387   7.635   4.375  0.6674  0.0441 -0.3215
  369MOL0     C49722   0.515   7.626   4.289  0.8753 -0.7141  0.2575
  369MOL0     C49723   0.640   7.624   4.373 -0.4598 -0.2946  0.5317
  369MOL0     C49724   0.769   7.624   4.292  0.4287  1.2117  0.4905
  369MOL0    Cl49725   0.810   7.765   4.202 -0.4783 -0.1520  0.0092
  369MOL0     C49726  -0.349   7.405   4.285 -1.1816 -0.4641 -0.1260
  369MOL0     C49727  -0.469   7.336   4.315  0.2513  0.4784  0.1670
  369MOL0     O49728  -0.522   7.039   4.525  0.2223 -0.1892 -0.4630
  369MOL0     C49729  -0.869   7.106   4.538  0.4136  0.1059  0.1830
  369MOL0     C49730  -0.995   7.060   4.592  0.2475 -0.2593 -0.7908
  369MOL0     N49731  -1.491   7.212   4.469 -0.1242 -1.3313  0.4218
  369MOL0     N49732  -1.442   7.259   4.362 -0.2690  0.4987 -0.3434
  369MOL0     C49733  -0.318   6.676   4.096 -0.6018  0.1703  0.2767
  369MOL0     C49734  -0.181   6.690   4.135  0.7667  0.6441  0.3329
  369MOL0     C49735   0.215   6.800   4.293 -0.6521 -0.3970  0.4383
  369MOL0     C49736   0.300   6.834   4.184  0.2771 -0.1973 -0.2040
  369MOL0     C49737   0.438   6.857   4.206 -0.0298 -1.2836 -0.9207
  369MOL0     C49738   0.502   6.849   4.334 -0.3030 -0.4777 -0.1264
  369MOL0     O49739   0.631   6.883   4.353 -1.0807  0.4417 -0.0380
  369MOL0     C49740   0.719   6.891   4.239  0.0976 -0.5275  0.2487
  369MOL0     C49741   0.860   6.917   4.301  0.1586 -0.0112  0.2855
  369MOL0     C49742   0.974   6.946   4.207 -0.5314  0.3644  0.0985
  369MOL0     C49743   1.099   6.952   4.307  0.0736 -0.1065 -0.5854
  369MOL0     C49744   1.225   6.931   4.237 -0.2630 -1.0168 -0.1986
  369MOL0     C49745   1.315   6.906   4.156  0.5446  0.3019 -0.2834
  369MOL0     C49746   0.417   6.807   4.437  1.0201  0.4926 -0.1285
  369MOL0     C49747   0.281   6.779   4.419  0.4229 -0.1482  0.2863
  369MOL0     H49748  -0.172   7.031   4.126 -0.7468 -0.6347  1.6878
  369MOL0     H49749  -0.408   7.013   4.076  0.2935 -0.0616 -0.3377
  369MOL0     H49750  -0.591   6.609   4.141 -2.5072  0.1528  0.9626
  369MOL0     H49751  -0.571   6.749   4.245  0.7368  1.6229 -1.2941
  369MOL0     H49752  -0.790   6.713   4.046  2.9276  0.9251 -1.5561
  369MOL0     H49753  -0.797   6.699   4.230 -1.5545  0.9080  0.4964
  369MOL0     H49754  -0.708   6.957   4.208 -1.4180  0.2423  1.2503
  369MOL0     H49755  -0.781   6.949   4.048 -3.8765 -0.0078 -0.6062
  369MOL0     H49756  -0.976   6.849   4.133  2.6862 -0.2477 -3.1683
  369MOL0     H49757  -0.923   6.867   4.300  0.3801 -0.8002 -0.3848
  369MOL0     H49758  -0.951   7.121   4.264 -0.3302  0.0054  0.2370
  369MOL0     H49759  -0.944   7.084   4.089 -1.3522 -1.4464 -1.4396
  369MOL0     H49760  -1.165   6.951   4.138  1.6908  0.3080  0.9746
  369MOL0     H49761  -1.165   7.019   4.301 -1.2616  2.3168  0.3963
  369MOL0     H49762  -1.176   7.236   4.251  0.1449 -2.5536  3.6025
  369MOL0     H49763  -1.178   7.212   4.074 -2.6134 -2.4513 -2.2291
  369MOL0     H49764  -1.386   7.062   4.101 -0.1202 -0.1577  0.1032
  369MOL0     H49765  -1.385   7.243   4.105 -1.4585  0.5615  1.0689
  369MOL0     H49766  -1.463   6.932   4.311 -0.4619 -0.1469  0.7243
  369MOL0     H49767  -1.503   7.058   4.693 -0.0762 -0.2812  0.0988
  369MOL0     H49768  -1.632   6.970   4.600 -0.0724 -0.8561  1.8639
  369MOL0     H49769  -1.454   6.795   4.527  3.3684 -3.0468  2.3906
  369MOL0     H49770  -1.480   6.810   4.696 -4.3746  1.7494 -0.9097
  369MOL0     H49771  -1.271   6.927   4.512  2.8692 -0.2237 -0.5026
  369MOL0     H49772  -1.247   6.783   4.605  1.6430  0.9987 -1.3129
  369MOL0     H49773  -1.293   6.956   4.823 -0.0666  1.6166  1.1686
  369MOL0     H49774  -1.251   7.071   4.693 -1.1732 -0.7664 -0.8986
  369MOL0     H49775  -0.866   6.842   4.825  0.8578 -0.9975 -1.1777
  369MOL0     H49776  -0.654   6.964   4.914  0.3148  2.5294  0.9899
  369MOL0     H49777  -0.588   6.891   4.771  3.2401  0.3845  2.1980
  369MOL0     H49778  -0.556   7.062   4.802  1.4839 -2.7063  0.1107
  369MOL0     H49779  -0.438   7.284   4.654 -1.2874 -0.3671 -0.7161
  369MOL0     H49780  -0.228   7.391   4.605  0.7497 -0.4706  0.2630
  369MOL0     H49781  -0.184   7.627   4.483  0.5346  0.4855  0.4161
  369MOL0     H49782  -0.037   7.531   4.525 -1.7993 -0.0438  1.2191
  369MOL0     H49783  -0.016   7.677   4.279 -0.5379  1.4185  0.8895
  369MOL0     H49784  -0.010   7.768   4.441 -1.9849 -1.9315  3.4223
  369MOL0     H49785   0.145   7.508   4.375 -1.1264 -0.5517  2.0041
  369MOL0     H49786   0.169   7.615   4.508  1.5597  0.7000 -0.5429
  369MOL0     H49787   0.250   7.616   4.215  2.0708  0.2973 -0.0763
  369MOL0     H49788   0.247   7.774   4.306 -1.1392 -0.4043  0.1071
  369MOL0     H49789   0.366   7.542   4.429  1.1343 -0.4564 -0.9855
  369MOL0     H49790   0.402   7.710   4.453 -0.1516  1.0983 -1.1478
  369MOL0     H49791   0.508   7.537   4.226 -2.5149 -1.3193  1.2902
  369MOL0     H49792   0.515   7.714   4.224  1.9113 -1.9092 -1.4237
  369MOL0     H49793   0.637   7.539   4.442 -1.6532 -0.4067  0.3658
  369MOL0     H49794   0.648   7.723   4.420 -3.1824  0.5785 -0.6085
  369MOL0     H49795   0.770   7.544   4.217  1.9076  2.0795 -0.4704
  369MOL0     H49796   0.852   7.592   4.356 -0.7160 -2.3096  0.4568
  369MOL0     H49797  -0.339   7.440   4.183 -1.9640 -1.7703 -0.6796
  369MOL0     H49798  -0.550   7.337   4.242 -0.9976  1.2161  1.5182
  369MOL0     H49799  -0.880   7.164   4.447  0.8510  1.9293  1.2644
  369MOL0     H49800  -1.081   7.087   4.531  0.1772  0.3568 -0.4271
  369MOL0     H49801  -0.369   6.580   4.099  0.2067 -0.3058 -0.7653
  369MOL0     H49802  -0.119   6.601   4.138  0.9309  0.4060 -3.8678
  369MOL0     H49803   0.255   6.848   4.086 -0.5833 -1.8340 -0.0614
  369MOL0     H49804   0.485   6.861   4.108 -1.4383 -0.3895 -1.6031
  369MOL0     H49805   0.719   6.802   4.175  0.4403  0.6436 -1.4342
  369MOL0     H49806   0.691   6.972   4.172  3.3034  1.0264  0.6268
  369MOL0     H49807   0.873   6.824   4.358 -3.0243 -1.2538 -0.8216
  369MOL0     H49808   0.844   7.001   4.370 -0.8920  1.4446 -1.6376
  369MOL0     H49809   0.955   7.038   4.152 -0.9383  1.2570  1.6695
  369MOL0     H49810   0.997   6.865   4.137  2.5313  1.2729 -0.0935
  369MOL0     H49811   1.086   6.866   4.374 -0.8126 -0.4175 -1.1535
  369MOL0     H49812   1.102   7.043   4.367  2.0454 -1.6192  1.8363
  369MOL0     H49813   1.382   6.887   4.075 -0.1742  1.2506 -1.1218
  369MOL0     H49814   0.458   6.782   4.535  0.6712  0.5619  0.0367
  369MOL0     H49815   0.226   6.751   4.509 -2.8857  2.3315 -0.7590
  370MOL0     O49816   8.887   0.872  10.356 -0.1047  0.3442  0.3513
  370MOL0     C49817   8.930   0.904  10.244  0.3575  0.4941  1.2300
  370MOL0     O49818   8.943   1.028  10.201  0.0118  0.0789 -0.3037
  370MOL0     C49819   8.911   1.136  10.270 -0.5432  0.3180 -0.4281
  370MOL0     C49820   9.007   1.183  10.363 -0.8117  0.3412 -0.1812
  370MOL0     C49821   8.976   1.285  10.453 -0.7201 -0.4819  1.0628
  370MOL0     C49822   8.851   1.352  10.438  0.6614  0.7147 -0.5034
  370MOL0     O49823   8.831   1.454  10.520  0.3035  0.7805  0.2324
  370MOL0     C49824   8.903   1.577  10.502  0.1251 -0.4340  0.7506
  370MOL0     C49825   8.860   1.684  10.597 -1.0069  0.8382 -0.1922
  370MOL0     C49826   8.713   1.719  10.591 -0.3490  0.1022 -0.0311
  370MOL0     C49827   8.640   1.722  10.450 -0.3781  0.3694  0.4799
  370MOL0     C49828   8.487   1.747  10.465  0.4642 -0.3572 -0.1254
  370MOL0     C49829   8.458   1.903  10.466  0.0292 -0.5705  0.3502
  370MOL0     C49830   8.331   1.953  10.539 -0.2950 -0.0671 -0.2855
  370MOL0     C49831   8.336   2.105  10.539 -0.0721  0.5458 -0.2896
  370MOL0     N49832   8.219   2.151  10.621 -0.3077 -0.0794 -0.5658
  370MOL0     C49833   8.215   2.168  10.756 -0.3321  0.2493  0.5813
  370MOL0     C49834   8.100   2.230  10.784  1.3929  0.1701 -0.1947
  370MOL0     C49835   8.053   2.242  10.924  0.4214  0.2003  0.1994
  370MOL0     C49836   7.906   2.224  10.915  0.3423  0.6567  0.2625
  370MOL0     C49837   7.846   2.198  11.059  0.1806  0.2061  0.7465
  370MOL0     C49838   7.684   2.161  11.059  0.1937 -0.3499  1.0567
  370MOL0     O49839   7.622   2.284  10.998  0.6972 -0.5947 -0.0758
  370MOL0     C49840   7.492   2.255  10.951  0.2278  0.2564  0.0358
  370MOL0     C49841   7.464   2.309  10.830 -0.3340 -0.7976  0.0303
  370MOL0     C49842   7.346   2.292  10.754 -0.1781  0.9357  0.6838
  370MOL0     C49843   7.345   2.369  10.628 -0.1227 -0.5072  0.0012
  370MOL0     C49844   7.247   2.209  10.801  0.5992  0.1070  0.3221
  370MOL0     C49845   7.112   2.201  10.744 -0.0945  0.1204 -0.3667
  370MOL0     O49846   7.090   2.227  10.614  0.3601 -0.7716  0.1206
  370MOL0     C49847   6.964   2.217  10.554 -0.7087  0.5381 -0.1353
  370MOL0     C49848   6.968   2.189  10.419  0.8054 -0.2123  1.5684
  370MOL0     C49849   6.848   2.164  10.352  0.5022 -1.7256  0.2175
  370MOL0     C49850   6.729   2.191  10.414  0.6942 -0.0523  0.8294
  370MOL0     O49851   6.612   2.191  10.338  0.7542 -0.7231 -0.2426
  370MOL0     C49852   6.485   2.213  10.404 -0.5143 -0.3044 -0.0702
  370MOL0     C49853   6.384   2.261  10.293  0.6348 -0.4372  1.2097
  370MOL0     C49854   6.240   2.254  10.346  1.2506  0.8553 -0.3283
  370MOL0     C49855   6.125   2.312  10.271  0.1481  0.7782 -0.0171
  370MOL0     C49856   6.001   2.211  10.283 -0.0118 -0.5360  0.0139
  370MOL0     C49857   5.870   2.267  10.240 -0.4174 -0.6467  0.6961
  370MOL0     C49858   5.770   2.166  10.196  0.0530  0.2695 -0.2511
  370MOL0     C49859   5.635   2.230  10.168  0.6838 -0.2801  0.3927
  370MOL0    Cl49860   5.641   2.384  10.066  0.1693  0.3436  0.1688
  370MOL0     C49861   6.728   2.229  10.545  0.6075  0.1866  0.3959
  370MOL0     C49862   6.841   2.241  10.622 -0.3475  1.0891  0.6954
  370MOL0     O49863   7.027   2.180  10.827 -0.3595  0.4161 -0.5619
  370MOL0     C49864   7.270   2.154  10.930 -0.7618 -0.2098 -0.1062
  370MOL0     C49865   7.393   2.172  11.001  0.2260 -0.5021 -0.0984
  370MOL0     N49866   8.047   2.274  10.667  0.3097 -0.6281 -0.2617
  370MOL0     N49867   8.109   2.217  10.573  0.8482 -0.2603  0.5991
  370MOL0     C49868   8.760   1.310  10.338  0.9084  0.0584  0.0225
  370MOL0     C49869   8.797   1.205  10.252 -0.2369  0.2563 -0.7010
  370MOL0     C49870   8.959   0.800  10.147  0.1089  0.3634  0.3738
  370MOL0     C49871   8.939   0.664  10.190 -0.7954 -0.2162 -0.8233
  370MOL0     C49872   8.967   0.560  10.101 -0.2529 -0.4696  0.3382
  370MOL0     C49873   8.991   0.582   9.972  0.3073 -0.5813 -0.5002
  370MOL0     O49874   9.008   0.469   9.900  0.0050  0.1214  0.9496
  370MOL0     C49875   9.050   0.478   9.762 -0.4584  0.5766  0.3196
  370MOL0     C49876   9.066   0.339   9.707  0.0722  0.5277  0.0166
  370MOL0     C49877   8.931   0.257   9.699  0.8035 -0.0487 -0.2716
  370MOL0     C49878   8.801   0.336   9.671 -0.1164 -0.2859 -0.6019
  370MOL0     C49879   8.814   0.386   9.536  0.0460  0.0181  0.3664
  370MOL0     C49880   8.800   0.431   9.425 -0.3639 -0.7414  0.1955
  370MOL0     C49881   9.024   0.714   9.929  0.2801  0.0543 -0.1963
  370MOL0     C49882   9.005   0.822  10.014 -0.6885 -0.2330 -0.5736
  370MOL0     H49883   9.104   1.138  10.382 -0.9951 -0.3949 -0.9407
  370MOL0     H49884   9.053   1.320  10.521  0.2823  1.6926 -1.0761
  370MOL0     H49885   9.007   1.560  10.533 -0.3931 -0.1087  2.7785
  370MOL0     H49886   8.904   1.613  10.398  0.0674  2.2300  1.5792
  370MOL0     H49887   8.873   1.658  10.702 -1.0851 -1.0604 -0.6147
  370MOL0     H49888   8.921   1.771  10.576 -0.4395  0.7142  0.8730
  370MOL0     H49889   8.661   1.647  10.655  0.4081  0.8121  1.4329
  370MOL0     H49890   8.687   1.815  10.638 -1.8386  0.1477 -0.8632
  370MOL0     H49891   8.687   1.805  10.396  1.0035  1.7078  3.5093
  370MOL0     H49892   8.665   1.629  10.397  2.3540  1.3906 -0.2260
  370MOL0     H49893   8.427   1.720  10.378 -0.4335  1.9064 -0.2922
  370MOL0     H49894   8.436   1.696  10.548 -0.1727 -1.9192 -1.4450
  370MOL0     H49895   8.547   1.950  10.508  1.1289 -1.8590 -0.4544
  370MOL0     H49896   8.462   1.933  10.360  4.7534  2.5462  1.0836
  370MOL0     H49897   8.246   1.915  10.481  0.5967  0.3396 -1.9168
  370MOL0     H49898   8.338   1.909  10.639 -2.0334  0.3214  0.0414
  370MOL0     H49899   8.322   2.135  10.435  0.8533 -0.9783 -0.8753
  370MOL0     H49900   8.431   2.144  10.575 -0.6711  1.1901  0.6515
  370MOL0     H49901   8.284   2.133  10.833 -2.1244 -1.3829  1.5134
  370MOL0     H49902   8.090   2.157  10.982 -2.7945 -1.4815 -0.0370
  370MOL0     H49903   8.083   2.335  10.974  0.8040 -0.3303  0.9894
  370MOL0     H49904   7.888   2.131  10.860 -1.3150 -0.5477  2.6489
  370MOL0     H49905   7.867   2.311  10.862 -2.5309  0.8559  2.4501
  370MOL0     H49906   7.865   2.285  11.123 -0.3337 -0.9183  2.5280
  370MOL0     H49907   7.893   2.110  11.105 -1.3473 -2.1559 -1.9260
  370MOL0     H49908   7.649   2.134  11.159 -1.2772 -0.6695  0.4763
  370MOL0     H49909   7.681   2.073  10.995 -1.7539 -1.3976  2.4897
  370MOL0     H49910   7.537   2.385  10.804  1.7602 -3.0158 -0.9188
  370MOL0     H49911   7.343   2.305  10.539  2.3018 -1.0313  0.2516
  370MOL0     H49912   7.262   2.440  10.630 -0.3667 -0.7812 -0.2368
  370MOL0     H49913   7.436   2.430  10.618 -1.5935  1.5161 -2.0295
  370MOL0     H49914   7.068   2.173  10.379  0.7457  0.5590  1.0759
  370MOL0     H49915   6.847   2.140  10.246  0.4000 -1.4769  0.1594
  370MOL0     H49916   6.444   2.122  10.448  0.4397  0.6331  2.9810
  370MOL0     H49917   6.480   2.286  10.485 -1.9313  1.5685 -1.7109
  370MOL0     H49918   6.401   2.359  10.248 -0.1587 -1.2800 -1.0755
  370MOL0     H49919   6.406   2.188  10.214 -0.2408  0.3351  0.2177
  370MOL0     H49920   6.235   2.311  10.439 -1.5938  1.4543 -0.7708
  370MOL0     H49921   6.224   2.148  10.369  0.0480  0.9846 -0.5028
  370MOL0     H49922   6.112   2.416  10.300  2.1167  1.3923 -1.1069
  370MOL0     H49923   6.144   2.323  10.164  2.6699  3.8933  0.6017
  370MOL0     H49924   5.989   2.194  10.390 -1.9820 -0.8325 -0.2108
  370MOL0     H49925   6.030   2.116  10.237  0.1357 -2.4038  3.6187
  370MOL0     H49926   5.835   2.335  10.318 -0.7166  0.5665 -0.4510
  370MOL0     H49927   5.879   2.345  10.164 -1.0765  1.3129  2.5219
  370MOL0     H49928   5.749   2.094  10.276 -0.0450 -0.5097 -0.9635
  370MOL0     H49929   5.806   2.114  10.107 -0.2827 -0.5201  0.0635
  370MOL0     H49930   5.574   2.243  10.258 -1.0478  1.9666 -0.9963
  370MOL0     H49931   5.581   2.162  10.102 -1.5787  2.1527 -0.4256
  370MOL0     H49932   6.636   2.245  10.600  0.0508  1.8453 -0.9178
  370MOL0     H49933   6.837   2.279  10.723  2.2909  1.8822  0.5866
  370MOL0     H49934   7.184   2.101  10.971 -1.1451 -1.4304 -2.3202
  370MOL0     H49935   7.409   2.133  11.101  1.8642 -0.7253 -0.4199
  370MOL0     H49936   8.673   1.370  10.313  0.0752 -0.7583  0.8685
  370MOL0     H49937   8.738   1.185  10.163  0.5701  0.6289 -1.3300
  370MOL0     H49938   8.899   0.637  10.288 -1.6585  2.2467 -0.4445
  370MOL0     H49939   8.966   0.466  10.154  2.4893  0.7836  2.9055
  370MOL0     H49940   8.984   0.540   9.700  0.7615  1.4702 -0.1362
  370MOL0     H49941   9.153   0.515   9.760  1.3081 -3.7629  0.7096
  370MOL0     H49942   9.133   0.282   9.773 -1.0807  0.1022  0.8522
  370MOL0     H49943   9.114   0.348   9.609 -0.1335  2.0151  0.0225
  370MOL0     H49944   8.913   0.221   9.801  1.3528 -3.0433 -1.1329
  370MOL0     H49945   8.945   0.173   9.631  0.2689  0.1579 -0.6463
  370MOL0     H49946   8.780   0.423   9.733  3.1475  0.5746 -0.5309
  370MOL0     H49947   8.717   0.266   9.682  1.3860 -1.9819  0.7156
  370MOL0     H49948   8.795   0.490   9.336 -1.6875 -0.2804  0.5541
  370MOL0     H49949   9.072   0.731   9.833 -1.2237 -2.1594 -1.4305
  370MOL0     H49950   9.037   0.917   9.973 -1.8044 -0.8629 -3.1227
  371MOL0     O49951   6.624   1.053  10.927  0.6739  1.0570 -0.4912
  371MOL0     C49952   6.697   1.105  11.008  0.6206 -0.4254 -0.1317
  371MOL0     O49953   6.643   1.194  11.107 -0.2178  0.0390  0.2793
  371MOL0     C49954   6.506   1.197  11.112 -0.0294  0.1306 -0.0239
  371MOL0     C49955   6.430   1.277  11.026 -0.6558  0.3291  0.1087
  371MOL0     C49956   6.296   1.284  11.047  0.4392  0.2267 -0.1262
  371MOL0     C49957   6.234   1.216  11.154 -0.2349 -0.1579  0.1933
  371MOL0     O49958   6.098   1.212  11.170  0.6601  0.2397 -0.3720
  371MOL0     C49959   6.044   1.340  11.178 -0.3880  0.4249 -1.0649
  371MOL0     C49960   5.913   1.333  11.255  0.4501 -0.7453  0.2844
  371MOL0     C49961   5.797   1.263  11.174 -1.2103  0.2248  0.3622
  371MOL0     C49962   5.660   1.289  11.239 -0.4886 -0.0829 -0.0482
  371MOL0     C49963   5.553   1.242  11.139 -0.7563  0.5256  0.5414
  371MOL0     C49964   5.412   1.293  11.188 -0.9322  0.4523 -0.2113
  371MOL0     C49965   5.291   1.283  11.091  0.2545 -0.2435  0.1167
  371MOL0     C49966   5.318   1.366  10.969  0.1407 -0.5370 -0.0130
  371MOL0     N49967   5.188   1.382  10.895  0.2868 -0.0314  0.4848
  371MOL0     C49968   5.087   1.470  10.923  1.2657  0.8408  0.7974
  371MOL0     C49969   4.981   1.433  10.848 -0.8665 -0.0131  0.1593
  371MOL0     C49970   4.843   1.496  10.837 -0.4583  0.9713 -0.1794
  371MOL0     C49971   4.739   1.426  10.937 -0.1631 -0.8639  0.1871
  371MOL0     C49972   4.805   1.402  11.082 -0.8335 -0.7522 -0.2337
  371MOL0     C49973   4.697   1.344  11.183 -0.1656 -0.3566  0.0562
  371MOL0     O49974   4.646   1.211  11.140  0.7872 -0.1548 -0.4186
  371MOL0     C49975   4.727   1.102  11.160  0.1486 -0.1089  0.2859
  371MOL0     C49976   4.859   1.101  11.218  0.1399 -0.0520 -0.3948
  371MOL0     C49977   4.942   0.989  11.239 -0.0474  0.0849  0.7402
  371MOL0     C49978   5.076   1.015  11.299 -1.0721  0.6234  0.0777
  371MOL0     C49979   4.885   0.862  11.204  0.6729  0.4278  0.0061
  371MOL0     C49980   4.960   0.737  11.227 -0.1345  0.3487  0.4194
  371MOL0     O49981   5.093   0.740  11.256 -0.1030  0.0747  0.0958
  371MOL0     C49982   5.150   0.614  11.284  0.3790 -0.2483 -0.1873
  371MOL0     C49983   5.256   0.571  11.203 -0.2307  0.3398  0.8426
  371MOL0     C49984   5.312   0.449  11.232 -0.0322  0.7199  0.9673
  371MOL0     C49985   5.281   0.371  11.346 -0.2358 -1.0252 -0.2877
  371MOL0     O49986   5.352   0.256  11.382  0.4246 -0.5114 -0.3432
  371MOL0     C49987   5.406   0.165  11.273 -0.8218 -0.4694 -0.0516
  371MOL0     C49988   5.439   0.027  11.321 -0.8889 -0.3637 -0.1418
  371MOL0     C49989   5.543  -0.032  11.225  0.6302  0.4704 -0.0235
  371MOL0     C49990   5.549  -0.190  11.248  0.0653  0.5120 -0.1612
  371MOL0     C49991   5.608  -0.240  11.387 -0.9198 -0.1612 -0.8629
  371MOL0     C49992   5.758  -0.260  11.370  0.4417  0.4735  0.4914
  371MOL0     C49993   5.823  -0.298  11.504 -1.3548 -0.3948 -0.9502
  371MOL0     C49994   5.976  -0.314  11.481  0.5652 -0.5159  0.5928
  371MOL0    Cl49995   6.051  -0.382  11.625 -0.6575  0.1629 -0.8119
  371MOL0     C49996   5.190   0.430  11.437 -0.2628 -0.9490  0.0020
  371MOL0     C49997   5.123   0.543  11.403 -0.2057  0.6008  0.2189
  371MOL0     O49998   4.882   0.642  11.244 -0.4134 -0.8450 -0.1213
  371MOL0     C49999   4.757   0.861  11.148 -0.0108  0.7971 -0.2461
  371MOL0     C50000   4.678   0.974  11.118 -0.6775  0.5199 -0.8098
  371MOL0     N50001   5.012   1.321  10.770  0.5007 -0.1823  0.1284
  371MOL0     N50002   5.139   1.292  10.801  0.0047 -0.4059 -0.2475
  371MOL0     C50003   6.311   1.134  11.236 -0.9647  0.0135 -0.9511
  371MOL0     C50004   6.449   1.125  11.217 -0.3092 -0.1005  0.2474
  371MOL0     C50005   6.844   1.086  11.001  0.1502  1.2982  0.1908
  371MOL0     C50006   6.907   0.997  10.914 -0.7076  0.2276 -0.4493
  371MOL0     C50007   7.052   0.978  10.909  0.2037 -0.4675 -0.2879
  371MOL0     C50008   7.123   1.031  11.011 -0.1175 -1.1780  0.2239
  371MOL0     O50009   7.264   1.011  11.017  0.1356  0.7827 -0.2079
  371MOL0     C50010   7.338   0.924  10.926 -0.7837 -0.0108  0.3112
  371MOL0     C50011   7.436   0.854  11.015 -0.4943  0.3080 -0.9085
  371MOL0     C50012   7.544   0.934  11.076 -0.0570 -1.3570 -0.3016
  371MOL0     C50013   7.675   0.867  11.122 -0.6090 -0.7924  0.6106
  371MOL0     C50014   7.789   0.951  11.146  0.3418 -0.6136  0.0085
  371MOL0     C50015   7.884   1.017  11.166  0.3061  0.2595  0.0049
  371MOL0     C50016   7.058   1.116  11.106 -0.3396 -0.3346 -1.0394
  371MOL0     C50017   6.925   1.147  11.101 -0.4701 -0.1113 -0.0906
  371MOL0     H50018   6.489   1.332  10.954  2.9981  0.7137  3.0692
  371MOL0     H50019   6.241   1.339  10.972  0.2905 -2.1829 -1.9128
  371MOL0     H50020   6.108   1.414  11.227  0.6270 -0.4555 -1.0205
  371MOL0     H50021   6.026   1.376  11.076  2.3380  1.4450 -1.2798
  371MOL0     H50022   5.912   1.294  11.357 -0.1089 -1.9574 -0.1678
  371MOL0     H50023   5.884   1.438  11.267 -0.4247 -0.9448 -0.0033
  371MOL0     H50024   5.794   1.294  11.070 -1.2032  1.1302  0.6209
  371MOL0     H50025   5.826   1.158  11.186 -0.6382  0.7053  5.9201
  371MOL0     H50026   5.656   1.224  11.326  0.2870 -0.1568 -0.0649
  371MOL0     H50027   5.637   1.392  11.269 -0.3104 -0.5940  1.9617
  371MOL0     H50028   5.582   1.272  11.038  1.6693  1.0865  1.3281
  371MOL0     H50029   5.545   1.133  11.145  0.4115  0.3631 -0.4464
  371MOL0     H50030   5.389   1.245  11.283  1.9968  0.3414  0.5594
  371MOL0     H50031   5.421   1.396  11.225  1.6373 -0.7432  3.0015
  371MOL0     H50032   5.253   1.182  11.071 -0.8763  0.2219 -0.1937
  371MOL0     H50033   5.203   1.317  11.148 -0.9931 -2.2303 -0.5152
  371MOL0     H50034   5.395   1.312  10.913  0.8914 -2.1133  2.4111
  371MOL0     H50035   5.357   1.464  10.998  0.0739 -0.3211 -0.6271
  371MOL0     H50036   5.088   1.548  10.999  1.0541  1.9128 -0.2631
  371MOL0     H50037   4.858   1.599  10.869  0.0809  0.5498  0.9984
  371MOL0     H50038   4.794   1.499  10.740 -2.2742 -0.1300  0.6576
  371MOL0     H50039   4.696   1.335  10.894 -1.3192 -1.0554  1.6771
  371MOL0     H50040   4.652   1.489  10.954  0.6849  0.0038  1.5236
  371MOL0     H50041   4.833   1.496  11.130  0.8577 -1.1693 -0.3455
  371MOL0     H50042   4.887   1.329  11.080 -0.5589 -0.4537 -0.0686
  371MOL0     H50043   4.619   1.420  11.168  1.9137  1.9515  0.2526
  371MOL0     H50044   4.735   1.344  11.285 -2.4844 -3.0685  1.0582
  371MOL0     H50045   4.899   1.201  11.231 -2.4969  0.8156  2.4701
  371MOL0     H50046   5.085   1.121  11.325  0.2681  1.1902 -2.3849
  371MOL0     H50047   5.095   0.948  11.383  2.8342 -0.1582 -1.2018
  371MOL0     H50048   5.152   0.999  11.222 -3.5470  0.6925 -2.5508
  371MOL0     H50049   5.287   0.634  11.120  0.1205 -0.9153 -0.0072
  371MOL0     H50050   5.388   0.412  11.164 -0.9893 -3.7162  1.9816
  371MOL0     H50051   5.333   0.151  11.193  2.2288 -3.0589 -2.6416
  371MOL0     H50052   5.496   0.204  11.225 -0.4715 -1.3022 -0.0740
  371MOL0     H50053   5.484   0.043  11.419 -2.7132  0.4802  0.6138
  371MOL0     H50054   5.347  -0.032  11.328 -0.2059 -1.5608 -0.9889
  371MOL0     H50055   5.637   0.017  11.251  0.4629  0.2423  1.0817
  371MOL0     H50056   5.515  -0.011  11.122 -0.4170  0.6466  0.2884
  371MOL0     H50057   5.444  -0.223  11.246  0.1104 -0.1060  2.8999
  371MOL0     H50058   5.605  -0.243  11.171 -0.1200  0.1911 -0.0789
  371MOL0     H50059   5.562  -0.336  11.414  2.4508 -1.2683  1.7620
  371MOL0     H50060   5.586  -0.169  11.467  0.8232 -1.6715  1.0818
  371MOL0     H50061   5.782  -0.344  11.305  0.3085  1.2258 -0.5482
  371MOL0     H50062   5.792  -0.163  11.332 -2.1229  2.3351  2.6144
  371MOL0     H50063   5.783  -0.392  11.542 -0.7715  0.2419  1.3886
  371MOL0     H50064   5.803  -0.224  11.581  0.4194 -1.1737  0.3168
  371MOL0     H50065   6.014  -0.214  11.458 -1.7049  0.3860  0.5128
  371MOL0     H50066   5.997  -0.378  11.395 -0.6462 -1.2476  0.8151
  371MOL0     H50067   5.187   0.386  11.537  0.8649 -0.8654  0.0916
  371MOL0     H50068   5.051   0.574  11.479 -1.1645 -1.7221  0.3349
  371MOL0     H50069   4.714   0.763  11.130  1.0189  0.3780 -0.5251
  371MOL0     H50070   4.590   0.961  11.057 -0.1009  4.0492 -2.6605
  371MOL0     H50071   6.264   1.072  11.312  3.8291 -2.2064  0.6023
  371MOL0     H50072   6.506   1.060  11.283  1.3231 -0.8084 -1.7447
  371MOL0     H50073   6.843   0.940  10.848 -2.0283 -0.5087  1.3934
  371MOL0     H50074   7.096   0.920  10.828  0.4526  0.2877 -0.7054
  371MOL0     H50075   7.271   0.847  10.886 -0.5170 -0.1429  0.1158
  371MOL0     H50076   7.396   0.983  10.854  0.6086 -1.6821 -0.0169
  371MOL0     H50077   7.480   0.776  10.952  0.8986  0.8403 -0.6221
  371MOL0     H50078   7.384   0.803  11.097 -1.3511 -0.3396 -1.8356
  371MOL0     H50079   7.498   0.985  11.161  1.2257  0.4354 -0.6177
  371MOL0     H50080   7.569   1.017  11.008  1.6423 -0.5679  1.2153
  371MOL0     H50081   7.700   0.797  11.042 -0.3480 -3.0897  2.5995
  371MOL0     H50082   7.672   0.807  11.214  0.2814 -1.4409  0.2336
  371MOL0     H50083   7.954   1.094  11.192 -1.2635  1.6628  0.2204
  371MOL0     H50084   7.119   1.152  11.189  0.4305 -1.9495 -0.8757
  371MOL0     H50085   6.895   1.213  11.181 -0.2973  1.3485 -1.1852
  372MOL0     O50086   6.634   7.030   1.035  0.2223  0.0012 -0.9301
  372MOL0     C50087   6.711   6.936   1.063  0.5669 -0.4017  0.2363
  372MOL0     O50088   6.679   6.809   1.095 -0.0797  0.3752  0.6336
  372MOL0     C50089   6.551   6.770   1.068  0.8722 -0.0719 -0.4236
  372MOL0     C50090   6.484   6.677   1.154 -1.0907 -0.9200 -0.1140
  372MOL0     C50091   6.354   6.636   1.140 -0.9376 -0.2254 -0.8492
  372MOL0     C50092   6.278   6.668   1.029 -1.2483  0.9680 -0.1997
  372MOL0     O50093   6.149   6.619   1.029  0.8168 -0.4087  0.0958
  372MOL0     C50094   6.058   6.664   0.927 -0.8859 -0.4497  0.7809
  372MOL0     C50095   5.917   6.636   0.957  0.2502  0.0515 -0.1938
  372MOL0     C50096   5.825   6.647   0.833  0.3643  0.7590  0.4674
  372MOL0     C50097   5.723   6.529   0.816  0.7255  0.3642 -0.3267
  372MOL0     C50098   5.609   6.562   0.909  0.4320 -0.8816 -0.3674
  372MOL0     C50099   5.482   6.470   0.916 -0.0860  0.5525  0.2724
  372MOL0     C50100   5.443   6.412   0.776  0.0377  0.9407  0.3516
  372MOL0     C50101   5.311   6.340   0.775  0.0129  0.2379  0.2755
  372MOL0     N50102   5.197   6.416   0.831  0.5244 -0.4590  0.1610
  372MOL0     C50103   5.107   6.381   0.929 -0.5847  0.4176  0.7048
  372MOL0     C50104   5.002   6.461   0.918  0.2071  0.4238  0.0491
  372MOL0     C50105   4.870   6.453   1.004 -0.2701 -0.3566  0.3736
  372MOL0     C50106   4.876   6.526   1.144 -0.1622  0.3861  0.2580
  372MOL0     C50107   4.898   6.681   1.124  0.1924  0.3012  0.3992
  372MOL0     C50108   4.906   6.740   1.268  0.2156  0.8632  0.4471
  372MOL0     O50109   4.791   6.713   1.348 -0.0335  0.2524 -0.1718
  372MOL0     C50110   4.665   6.753   1.312  0.3868 -0.0093 -0.0184
  372MOL0     C50111   4.635   6.882   1.258 -0.0515 -0.5391  0.0055
  372MOL0     C50112   4.511   6.915   1.221 -0.9622 -0.3226 -0.0164
  372MOL0     C50113   4.500   7.061   1.179  0.4945  1.2490 -0.0716
  372MOL0     C50114   4.415   6.819   1.231  0.3522  1.8077  0.4375
  372MOL0     C50115   4.285   6.852   1.180 -0.5306 -0.4909  0.3150
  372MOL0     O50116   4.181   6.845   1.277  0.2991 -0.0079 -0.5538
  372MOL0     C50117   4.049   6.834   1.245  0.7968  0.2345 -0.4773
  372MOL0     C50118   3.966   6.814   1.352  0.4341 -0.2633 -0.7566
  372MOL0     C50119   3.833   6.790   1.330  0.6569  0.3728  0.4280
  372MOL0     C50120   3.773   6.785   1.210 -0.7162  0.2013  0.1945
  372MOL0     O50121   3.631   6.773   1.207  0.8722  0.0827  0.4368
  372MOL0     C50122   3.570   6.787   1.081  0.1236  0.0144  0.2745
  372MOL0     C50123   3.412   6.800   1.108 -0.5156 -0.9081 -0.5176
  372MOL0     C50124   3.329   6.785   0.984 -0.6149  0.0041 -0.8063
  372MOL0     C50125   3.188   6.804   1.017  0.3435  0.3208  0.1536
  372MOL0     C50126   3.118   6.818   0.874  0.1619 -0.3240 -0.4241
  372MOL0     C50127   3.130   6.681   0.797 -0.4411  0.1416 -0.2617
  372MOL0     C50128   3.052   6.690   0.666 -1.1372 -0.0270 -0.2185
  372MOL0     C50129   2.898   6.669   0.693  0.6257 -0.4193  0.0020
  372MOL0    Cl50130   2.793   6.638   0.556 -0.0509 -0.1455 -0.1168
  372MOL0     C50131   3.852   6.785   1.097 -0.3080 -0.3607 -0.6360
  372MOL0     C50132   3.997   6.806   1.116  0.1912  0.1607 -0.9705
  372MOL0     O50133   4.278   6.916   1.079  0.3895  0.1233  0.4892
  372MOL0     C50134   4.437   6.697   1.304  0.9477  0.0256  0.4969
  372MOL0     C50135   4.567   6.669   1.341  0.5253 -0.0683 -0.3677
  372MOL0     N50136   5.030   6.548   0.807  0.4139  0.0842 -0.3535
  372MOL0     N50137   5.138   6.518   0.766 -0.3706 -0.1287  0.5452
  372MOL0     C50138   6.340   6.747   0.932 -0.7031 -0.5335  0.5100
  372MOL0     C50139   6.477   6.803   0.948 -0.0256 -0.0965  0.1981
  372MOL0     C50140   6.859   6.965   1.072  0.7944 -0.5092  0.1900
  372MOL0     C50141   6.896   7.101   1.071  0.0479 -0.0332  0.2560
  372MOL0     C50142   7.030   7.135   1.067  0.1753 -1.0161  0.1838
  372MOL0     C50143   7.128   7.045   1.072 -0.6047 -0.5986 -0.1886
  372MOL0     O50144   7.263   7.076   1.069  0.3208  0.2337 -0.6064
  372MOL0     C50145   7.300   7.211   1.109  0.0677  0.4398 -0.6695
  372MOL0     C50146   7.444   7.209   1.165  0.6661 -0.1451 -0.4173
  372MOL0     C50147   7.465   7.179   1.316 -1.2443  0.0652  0.2467
  372MOL0     C50148   7.455   7.313   1.401  0.1816  0.5125 -0.5134
  372MOL0     C50149   7.456   7.277   1.546  0.3369  0.7778  0.0081
  372MOL0     C50150   7.459   7.258   1.672 -0.5004 -1.1655  0.7467
  372MOL0     C50151   7.091   6.906   1.078  0.2479  0.4481 -0.5693
  372MOL0     C50152   6.956   6.864   1.079 -0.5278 -0.5199  0.8847
  372MOL0     H50153   6.542   6.654   1.243 -0.8207 -0.6527 -0.2197
  372MOL0     H50154   6.323   6.586   1.231  2.1698  0.8330  0.9214
  372MOL0     H50155   6.083   6.766   0.895 -0.9423 -0.6982 -0.0682
  372MOL0     H50156   6.088   6.605   0.841  0.3085  0.1170  0.7840
  372MOL0     H50157   5.904   6.537   1.002 -2.9384  0.4048 -0.1047
  372MOL0     H50158   5.859   6.698   1.026 -1.9202 -1.3357 -0.6522
  372MOL0     H50159   5.776   6.744   0.836  0.9163  1.0322  0.8481
  372MOL0     H50160   5.890   6.642   0.745  0.1401  2.5752  0.1624
  372MOL0     H50161   5.715   6.524   0.707  3.1177 -3.1179 -0.5075
  372MOL0     H50162   5.771   6.438   0.853  0.9947  1.3469  1.8943
  372MOL0     H50163   5.645   6.601   1.004 -1.4600 -3.2620  1.4500
  372MOL0     H50164   5.571   6.649   0.854  0.7342 -1.4956 -1.6069
  372MOL0     H50165   5.507   6.392   0.989  1.8843  1.1922  0.3211
  372MOL0     H50166   5.399   6.532   0.952 -1.9119 -1.1842 -0.7593
  372MOL0     H50167   5.427   6.496   0.708 -0.7984  0.0253 -0.6075
  372MOL0     H50168   5.522   6.345   0.741 -1.4368 -2.3856  2.7961
  372MOL0     H50169   5.324   6.243   0.824  0.4790  0.4651  0.6009
  372MOL0     H50170   5.275   6.317   0.674  1.6374 -1.6664  0.0725
  372MOL0     H50171   5.118   6.291   0.989 -1.7810  0.8779  1.6597
  372MOL0     H50172   4.795   6.506   0.944  0.2412 -1.5712 -1.4042
  372MOL0     H50173   4.845   6.349   1.029  0.5869 -0.5165  0.5722
  372MOL0     H50174   4.949   6.473   1.206  0.7033 -1.2558 -2.0640
  372MOL0     H50175   4.782   6.507   1.197 -1.2406 -2.7164 -2.4757
  372MOL0     H50176   4.819   6.719   1.059  1.7280 -0.5666 -2.1062
  372MOL0     H50177   4.990   6.704   1.071  0.2870 -1.1596 -0.1158
  372MOL0     H50178   4.919   6.848   1.265  0.2634  1.0447  3.6754
  372MOL0     H50179   4.993   6.698   1.318 -1.6406 -1.5717  1.8493
  372MOL0     H50180   4.722   6.947   1.266 -0.4948 -0.2195  4.3748
  372MOL0     H50181   4.510   7.059   1.070  1.1527  0.2067 -0.0007
  372MOL0     H50182   4.399   7.098   1.200 -1.1545 -2.8555  0.0147
  372MOL0     H50183   4.572   7.130   1.224  0.7202  1.7183 -1.1146
  372MOL0     H50184   4.006   6.793   1.450 -1.9869 -1.4892  0.0495
  372MOL0     H50185   3.773   6.764   1.417 -1.4433  1.1370 -0.7278
  372MOL0     H50186   3.604   6.880   1.034  1.3186  0.7325  2.4263
  372MOL0     H50187   3.591   6.703   1.014  0.1219 -0.3140  0.6834
  372MOL0     H50188   3.375   6.725   1.179  0.6157 -0.0040  1.0928
  372MOL0     H50189   3.389   6.901   1.144 -0.5954 -0.4037 -1.9128
  372MOL0     H50190   3.344   6.681   0.954  1.9079  0.0666 -0.0059
  372MOL0     H50191   3.373   6.855   0.912  2.0373  0.3861  1.0626
  372MOL0     H50192   3.139   6.718   1.063 -3.5860  2.7159  0.9671
  372MOL0     H50193   3.166   6.883   1.090 -0.6116  2.1753 -2.0228
  372MOL0     H50194   3.161   6.902   0.820 -1.2714 -0.2149 -1.4714
  372MOL0     H50195   3.016   6.857   0.884  0.7626  1.5225 -1.1016
  372MOL0     H50196   3.236   6.664   0.779 -0.1374 -0.7861  2.0944
  372MOL0     H50197   3.094   6.599   0.859 -0.8420  1.3085  1.1092
  372MOL0     H50198   3.087   6.612   0.597  1.0834 -0.0161  0.8008
  372MOL0     H50199   3.072   6.780   0.607  0.4748 -0.2866 -0.1117
  372MOL0     H50200   2.847   6.750   0.746  0.0969 -1.0429  0.4651
  372MOL0     H50201   2.887   6.583   0.760  2.0171 -0.1179  0.6597
  372MOL0     H50202   3.804   6.776   1.001  0.1790  2.3669 -1.2285
  372MOL0     H50203   4.050   6.805   1.021  1.0025  0.0721 -0.5315
  372MOL0     H50204   4.361   6.621   1.320  2.6056 -2.0641 -0.9496
  372MOL0     H50205   4.602   6.577   1.388  3.4487  1.2997  0.3203
  372MOL0     H50206   6.296   6.756   0.834  1.1087 -4.4346 -0.8885
  372MOL0     H50207   6.521   6.862   0.868  0.4295  3.7244  3.0213
  372MOL0     H50208   6.821   7.175   1.044 -1.1675 -2.1971 -2.8137
  372MOL0     H50209   7.040   7.242   1.052 -2.6018 -0.7109 -0.0246
  372MOL0     H50210   7.280   7.286   1.032 -2.3950 -0.3636 -0.9091
  372MOL0     H50211   7.237   7.248   1.189  1.1099  1.1390 -0.1617
  372MOL0     H50212   7.485   7.310   1.158  1.5927 -0.5645 -1.2056
  372MOL0     H50213   7.507   7.146   1.102 -2.0459 -2.1523 -1.3124
  372MOL0     H50214   7.567   7.145   1.332 -0.7452  2.0984  1.8810
  372MOL0     H50215   7.390   7.106   1.349 -0.7412 -0.3873  0.3925
  372MOL0     H50216   7.359   7.353   1.369  0.3858  0.2533 -1.4651
  372MOL0     H50217   7.535   7.385   1.380  1.6051 -0.7746  0.2911
  372MOL0     H50218   7.469   7.227   1.774  3.6820 -2.8586  0.0119
  372MOL0     H50219   7.163   6.827   1.095  0.4558  0.8171  0.3011
  372MOL0     H50220   6.941   6.757   1.069 -1.7032 -0.1372 -3.0789
  373MOL0     O50221   7.965   3.922   0.161 -0.2493 -0.1630 -0.2946
  373MOL0     C50222   8.047   3.844   0.207  1.4257 -0.1792  0.5301
  373MOL0     O50223   8.022   3.738   0.298 -0.3757  0.1640  0.5629
  373MOL0     C50224   7.902   3.749   0.368 -0.6014 -1.1005  0.0044
  373MOL0     C50225   7.784   3.716   0.305 -0.2287 -0.1590 -0.0761
  373MOL0     C50226   7.656   3.741   0.363  0.1591  0.5678 -0.6580
  373MOL0     C50227   7.653   3.801   0.487 -0.6565  0.2017  0.5380
  373MOL0     O50228   7.524   3.823   0.545 -0.7081 -0.2498 -0.3566
  373MOL0     C50229   7.516   3.837   0.684 -0.0510 -0.9385  0.2700
  373MOL0     C50230   7.377   3.848   0.743 -1.3659  0.3439  0.1702
  373MOL0     C50231   7.283   3.763   0.659  0.3371 -0.2473 -0.6764
  373MOL0     C50232   7.145   3.753   0.733  0.6455 -0.6165  1.0345
  373MOL0     C50233   7.044   3.680   0.648  0.2351  0.1585 -0.0052
  373MOL0     C50234   6.903   3.714   0.684  0.6817  0.3078  0.1180
  373MOL0     C50235   6.853   3.609   0.787  0.0153  0.7750  0.8576
  373MOL0     C50236   6.709   3.614   0.836 -0.0884 -0.6968  0.7347
  373MOL0     N50237   6.689   3.740   0.911  0.2343 -0.3895  0.5279
  373MOL0     C50238   6.728   3.768   1.040 -0.1632  0.0661  0.2329
  373MOL0     C50239   6.696   3.896   1.067  0.4972  0.5186  0.3055
  373MOL0     C50240   6.707   3.952   1.204 -0.1277  0.6280  0.0411
  373MOL0     C50241   6.598   3.893   1.293  0.0774  0.0346 -0.2191
  373MOL0     C50242   6.598   3.953   1.437  0.3296  0.7640 -0.0566
  373MOL0     C50243   6.480   3.900   1.528 -1.1441 -0.0979 -0.2131
  373MOL0     O50244   6.518   3.756   1.544  0.1976 -0.2884 -0.0578
  373MOL0     C50245   6.575   3.728   1.667 -0.1541  0.3494  0.9105
  373MOL0     C50246   6.561   3.596   1.699 -0.4889 -0.2272  0.1252
  373MOL0     C50247   6.633   3.535   1.802  1.1367  0.0257  0.1128
  373MOL0     C50248   6.625   3.386   1.818  0.3147 -0.2509 -0.9846
  373MOL0     C50249   6.707   3.617   1.886 -0.1527 -0.3290  0.1504
  373MOL0     C50250   6.798   3.560   1.988  0.4769  0.5970 -0.8105
  373MOL0     O50251   6.769   3.555   2.123  0.9800 -0.6895  0.4984
  373MOL0     C50252   6.853   3.477   2.197  0.3394  0.2892 -0.4135
  373MOL0     C50253   6.906   3.531   2.315  1.0337 -0.5244  0.0875
  373MOL0     C50254   6.988   3.457   2.392  0.6574 -0.2999 -0.1193
  373MOL0     C50255   7.019   3.324   2.372 -0.0053  1.2535  0.0195
  373MOL0     O50256   7.085   3.243   2.454 -0.1561  0.1740 -0.2277
  373MOL0     C50257   7.102   3.272   2.591  0.1615  0.4978 -0.4072
  373MOL0     C50258   7.164   3.160   2.680  0.4250 -0.6360  0.4368
  373MOL0     C50259   7.305   3.131   2.619  0.3660 -0.0310 -0.0471
  373MOL0     C50260   7.392   3.054   2.723  0.2446 -0.9721 -0.9613
  373MOL0     C50261   7.342   2.911   2.729 -0.6030  0.7209  0.0829
  373MOL0     C50262   7.429   2.829   2.835  0.0089 -0.1130  0.4388
  373MOL0     C50263   7.582   2.845   2.815  1.5862  0.3459  0.1099
  373MOL0     C50264   7.651   2.762   2.922  0.4630  0.7367  0.2336
  373MOL0    Cl50265   7.623   2.819   3.083 -0.2702 -0.0961  0.2843
  373MOL0     C50266   6.971   3.270   2.256  0.5094  0.5876  0.6767
  373MOL0     C50267   6.882   3.338   2.169  0.0875  0.2992  0.2338
  373MOL0     O50268   6.904   3.512   1.942  0.0852  0.2067  0.0405
  373MOL0     C50269   6.705   3.758   1.864 -0.3656  0.5930 -0.6274
  373MOL0     C50270   6.642   3.810   1.756  0.4735 -0.2239  0.4312
  373MOL0     N50271   6.650   3.949   0.948 -0.4178  0.2599  0.2948
  373MOL0     N50272   6.637   3.852   0.861 -0.4720  0.1622  0.5369
  373MOL0     C50273   7.773   3.834   0.549 -0.2289  0.5308  0.1283
  373MOL0     C50274   7.897   3.809   0.500  0.5986  0.1514  0.0870
  373MOL0     C50275   8.179   3.873   0.161 -0.4029 -0.4968 -0.7061
  373MOL0     C50276   8.218   3.974   0.075 -0.5011  0.4168  0.7113
  373MOL0     C50277   8.355   3.987   0.051 -0.3204 -1.0159  0.3137
  373MOL0     C50278   8.455   3.904   0.101  0.5539  0.5186  0.9623
  373MOL0     O50279   8.590   3.909   0.057 -0.6206  0.3656  0.7179
  373MOL0     C50280   8.632   3.978  -0.058  0.2289  0.5144 -0.1669
  373MOL0     C50281   8.782   3.969  -0.053 -0.3348 -0.3508 -0.0405
  373MOL0     C50282   8.856   4.010  -0.181 -0.5058  0.6434 -0.5007
  373MOL0     C50283   8.861   3.887  -0.285  0.2559  0.1838 -1.2689
  373MOL0     C50284   8.993   3.833  -0.273  0.1836  0.7367 -0.2407
  373MOL0     C50285   9.107   3.801  -0.280 -0.1616 -0.2820  0.2283
  373MOL0     C50286   8.407   3.808   0.179  0.2088  0.2948 -0.7670
  373MOL0     C50287   8.273   3.799   0.219  0.1777  0.2070 -0.3303
  373MOL0     H50288   7.785   3.674   0.204  1.7612  0.4546 -0.3591
  373MOL0     H50289   7.561   3.707   0.323  1.3832 -1.3590 -2.1217
  373MOL0     H50290   7.543   3.740   0.728 -2.2026 -2.3471 -1.2955
  373MOL0     H50291   7.567   3.927   0.721  1.5580 -1.5742 -0.3240
  373MOL0     H50292   7.386   3.809   0.845  0.9725  0.3111  0.0066
  373MOL0     H50293   7.346   3.952   0.758  1.6881  1.4760 -0.5630
  373MOL0     H50294   7.266   3.807   0.560 -1.3967  1.7185  0.4187
  373MOL0     H50295   7.331   3.666   0.644 -0.3011 -0.2983 -2.8283
  373MOL0     H50296   7.161   3.701   0.828 -0.5755  2.7905  3.2626
  373MOL0     H50297   7.108   3.854   0.751 -2.6832 -1.4347 -0.3649
  373MOL0     H50298   7.054   3.713   0.544  2.0916  3.8489  1.2054
  373MOL0     H50299   7.057   3.571   0.654  0.3649  0.1428 -0.5065
  373MOL0     H50300   6.886   3.812   0.730  2.0583  0.1865  0.9024
  373MOL0     H50301   6.846   3.704   0.591 -1.9889 -0.6113  1.7398
  373MOL0     H50302   6.881   3.509   0.751  0.2425 -0.1984  3.5608
  373MOL0     H50303   6.913   3.611   0.878  1.3196  0.1892  0.0540
  373MOL0     H50304   6.684   3.527   0.897 -1.5390 -1.0598 -0.3170
  373MOL0     H50305   6.634   3.599   0.758 -0.5521  1.3677  0.7258
  373MOL0     H50306   6.774   3.688   1.098  1.1752  1.3147  0.9478
  373MOL0     H50307   6.804   3.924   1.247 -0.3180 -0.6432 -0.3132
  373MOL0     H50308   6.702   4.060   1.194 -0.0995  0.4462 -3.0428
  373MOL0     H50309   6.618   3.786   1.305 -0.6656 -0.0708  0.1554
  373MOL0     H50310   6.499   3.911   1.249  1.1937  3.1513 -1.7414
  373MOL0     H50311   6.589   4.060   1.417 -1.5259  0.2288 -2.5993
  373MOL0     H50312   6.695   3.929   1.481 -0.3404 -1.2635  0.4377
  373MOL0     H50313   6.391   3.922   1.467 -3.7494 -0.3241  3.2031
  373MOL0     H50314   6.479   3.959   1.619 -1.9369 -2.0761  1.1485
  373MOL0     H50315   6.508   3.537   1.626 -2.1896  0.8232  0.4561
  373MOL0     H50316   6.641   3.337   1.721  3.2492  0.9722 -1.2343
  373MOL0     H50317   6.696   3.342   1.889 -2.0562 -2.9005 -0.0748
  373MOL0     H50318   6.526   3.360   1.855  1.6972  0.2017  3.6423
  373MOL0     H50319   6.889   3.636   2.340  2.2123 -0.6581  1.6156
  373MOL0     H50320   7.038   3.516   2.468  0.5635  1.0818 -1.0904
  373MOL0     H50321   7.166   3.360   2.608  1.5208 -0.4632 -0.3452
  373MOL0     H50322   7.002   3.284   2.633  0.8180 -3.0125  2.7169
  373MOL0     H50323   7.168   3.184   2.787  0.9254 -0.6850  0.4320
  373MOL0     H50324   7.103   3.071   2.664 -4.4536  2.5907 -1.3820
  373MOL0     H50325   7.358   3.225   2.601  1.0912 -0.2036  1.0687
  373MOL0     H50326   7.290   3.085   2.521 -4.4758  2.0602 -0.5466
  373MOL0     H50327   7.497   3.062   2.692 -0.4328  3.4336 -2.8098
  373MOL0     H50328   7.377   3.102   2.821  2.3433 -1.2797 -0.4387
  373MOL0     H50329   7.348   2.870   2.628 -3.3971 -1.2755  0.6169
  373MOL0     H50330   7.241   2.894   2.766  0.1347  3.4034  3.9316
  373MOL0     H50331   7.406   2.866   2.935  1.1131 -3.0624  1.9362
  373MOL0     H50332   7.395   2.725   2.831  0.3245 -0.1972 -0.2094
  373MOL0     H50333   7.611   2.950   2.824 -0.3291  0.9973 -0.7367
  373MOL0     H50334   7.602   2.818   2.711  1.5916  6.1795 -1.7778
  373MOL0     H50335   7.757   2.760   2.895  0.1957 -1.4423 -0.8705
  373MOL0     H50336   7.611   2.661   2.913  1.8555  0.2985 -1.7664
  373MOL0     H50337   6.985   3.163   2.242  0.1563  0.9172 -3.5770
  373MOL0     H50338   6.820   3.276   2.105 -1.2972  0.3648  1.4635
  373MOL0     H50339   6.755   3.816   1.940 -2.0347 -0.0038  0.9980
  373MOL0     H50340   6.654   3.917   1.743  2.6160 -0.4237  0.3961
  373MOL0     H50341   7.771   3.898   0.637 -0.7986 -0.1742  0.6497
  373MOL0     H50342   7.979   3.839   0.564  0.0764  1.6991  0.0567
  373MOL0     H50343   8.145   4.038   0.027  0.2476  0.2931 -0.6488
  373MOL0     H50344   8.376   4.068  -0.018 -0.7200 -0.7503  0.5006
  373MOL0     H50345   8.590   3.930  -0.146 -0.8634  0.9431  0.1009
  373MOL0     H50346   8.594   4.081  -0.051  0.6388  0.6398  0.3049
  373MOL0     H50347   8.798   3.863  -0.033  2.7700  0.4794  2.6372
  373MOL0     H50348   8.823   4.021   0.034 -0.3322  1.3870 -1.0178
  373MOL0     H50349   8.956   4.043  -0.151 -0.3502  0.4186 -0.7656
  373MOL0     H50350   8.798   4.096  -0.216  1.5525  1.6972 -1.4742
  373MOL0     H50351   8.842   3.927  -0.385 -0.1004  0.8001 -0.9556
  373MOL0     H50352   8.782   3.816  -0.258  2.2523 -1.1857  1.5730
  373MOL0     H50353   9.208   3.779  -0.309 -1.3786 -3.9134 -1.8710
  373MOL0     H50354   8.470   3.727   0.214  0.5805 -0.8050 -3.7111
  373MOL0     H50355   8.244   3.717   0.283 -0.5861  3.2629  3.6247
  374MOL0     O50356   4.543   2.779   0.546  0.8655  0.4440 -0.1100
  374MOL0     C50357   4.626   2.699   0.579 -0.1024 -0.0446 -0.0318
  374MOL0     O50358   4.612   2.562   0.571  0.5397  0.5334  0.1381
  374MOL0     C50359   4.497   2.499   0.517 -0.6857  0.9100 -0.1320
  374MOL0     C50360   4.453   2.376   0.567 -0.7305  0.0319 -0.2100
  374MOL0     C50361   4.339   2.306   0.519  0.2678 -0.1571 -0.3445
  374MOL0     C50362   4.271   2.350   0.414 -0.6692 -0.8655 -0.1028
  374MOL0     O50363   4.152   2.293   0.365 -0.3660  0.5016  0.2194
  374MOL0     C50364   4.041   2.381   0.370  0.9220  0.1086 -0.7497
  374MOL0     C50365   3.980   2.366   0.514  0.3951  0.5243  0.4044
  374MOL0     C50366   3.848   2.441   0.538  0.6598  0.3507 -0.3288
  374MOL0     C50367   3.800   2.413   0.677  0.1751  0.2130 -0.2499
  374MOL0     C50368   3.668   2.492   0.697  1.0823 -0.8394  0.3699
  374MOL0     C50369   3.652   2.640   0.671 -0.6186  0.1897  0.3383
  374MOL0     C50370   3.765   2.722   0.743  0.2320  1.1182 -0.6155
  374MOL0     C50371   3.745   2.728   0.890  0.2732 -0.0608  0.6227
  374MOL0     N50372   3.806   2.850   0.954  0.4361  0.2967 -0.1163
  374MOL0     C50373   3.736   2.962   0.982 -0.8133 -1.3877  0.7208
  374MOL0     C50374   3.831   3.061   1.017  0.1354  1.1476  0.3217
  374MOL0     C50375   3.796   3.199   1.035  0.7161 -0.7305 -0.3879
  374MOL0     C50376   3.803   3.262   0.894 -0.7857 -0.1208  0.6260
  374MOL0     C50377   3.756   3.403   0.888 -0.3684  0.3170  0.0623
  374MOL0     C50378   3.611   3.419   0.842  0.1808 -0.7012 -0.2533
  374MOL0     O50379   3.516   3.369   0.941  0.2881  0.4735  0.8005
  374MOL0     C50380   3.460   3.251   0.919 -0.1518 -0.4994  0.2246
  374MOL0     C50381   3.432   3.184   0.791 -0.0678 -0.6285  0.4055
  374MOL0     C50382   3.362   3.059   0.778 -0.8660 -0.1440  0.0049
  374MOL0     C50383   3.341   3.001   0.635  0.3305 -1.1671  0.0816
  374MOL0     C50384   3.331   2.984   0.903 -0.5226 -1.1327 -0.3104
  374MOL0     C50385   3.292   2.844   0.913  0.8194 -0.1628 -0.1380
  374MOL0     O50386   3.305   2.763   0.804 -0.0845 -0.1958 -0.0200
  374MOL0     C50387   3.237   2.639   0.792 -0.3988 -0.6536  0.2758
  374MOL0     C50388   3.269   2.534   0.709 -0.1201 -0.4124  0.1745
  374MOL0     C50389   3.186   2.430   0.671  0.1781 -0.1521 -0.2468
  374MOL0     C50390   3.059   2.429   0.723  0.1266  0.7452 -0.6373
  374MOL0     O50391   2.975   2.329   0.685 -0.1187  0.8239 -0.4361
  374MOL0     C50392   2.959   2.235   0.791 -0.8427 -0.1189 -1.0332
  374MOL0     C50393   2.876   2.118   0.739 -0.7026  0.1385 -0.5742
  374MOL0     C50394   2.826   2.037   0.865 -0.4808 -0.2603  0.4609
  374MOL0     C50395   2.818   1.892   0.837 -0.5191  0.3116  0.0324
  374MOL0     C50396   2.769   1.815   0.959 -0.4796 -0.1606 -0.1288
  374MOL0     C50397   2.741   1.671   0.924  0.9839 -0.5701  0.3492
  374MOL0     C50398   2.658   1.607   1.026 -0.1097 -0.0901 -0.2898
  374MOL0     C50399   2.694   1.461   1.017  0.2154 -0.7438  0.1166
  374MOL0    Cl50400   2.568   1.376   1.100 -0.2685  0.0250  0.3223
  374MOL0     C50401   3.016   2.534   0.799 -0.0001  0.1359  1.5231
  374MOL0     C50402   3.107   2.629   0.837  0.4729  0.5689 -0.5764
  374MOL0     O50403   3.253   2.799   1.021  0.6427 -0.4807  0.0310
  374MOL0     C50404   3.355   3.059   1.028 -0.0001 -0.0180  0.0241
  374MOL0     C50405   3.423   3.181   1.037  0.5970  0.3649  0.0328
  374MOL0     N50406   3.949   3.001   1.018 -0.1056  0.0593 -0.2275
  374MOL0     N50407   3.936   2.881   0.977  0.1742 -0.0545  0.1570
  374MOL0     C50408   4.322   2.469   0.357 -0.2684 -0.3484 -0.1571
  374MOL0     C50409   4.435   2.540   0.404  0.0767 -0.4163 -0.1626
  374MOL0     C50410   4.771   2.744   0.592 -1.2234  1.2789  0.5860
  374MOL0     C50411   4.816   2.868   0.555 -0.4225 -0.9252  0.4368
  374MOL0     C50412   4.947   2.907   0.583 -0.5509  0.2901 -0.2593
  374MOL0     C50413   5.045   2.815   0.631  0.8471  0.1252  1.2296
  374MOL0     O50414   5.176   2.854   0.639  0.0453  0.1193 -0.2175
  374MOL0     C50415   5.272   2.767   0.697 -0.2165  0.3926 -0.0599
  374MOL0     C50416   5.414   2.823   0.707  0.0626 -0.1110  0.5979
  374MOL0     C50417   5.429   2.946   0.797  0.0313 -0.0877 -0.2447
  374MOL0     C50418   5.557   3.025   0.768  1.4397  0.1165  0.3946
  374MOL0     C50419   5.672   2.954   0.817  0.2910  0.3702 -0.3016
  374MOL0     C50420   5.771   2.890   0.853  0.9364 -0.4455  0.1613
  374MOL0     C50421   5.004   2.690   0.666 -0.1853  0.8979  0.1284
  374MOL0     C50422   4.869   2.649   0.643 -0.6432 -1.0872  0.9115
  374MOL0     H50423   4.518   2.336   0.645  0.4537 -0.2543 -1.3019
  374MOL0     H50424   4.314   2.221   0.582 -2.4738  0.3340 -0.6391
  374MOL0     H50425   4.071   2.486   0.361 -1.6203  0.9297 -0.5422
  374MOL0     H50426   3.967   2.354   0.294  0.9431 -1.9328 -0.1028
  374MOL0     H50427   3.971   2.259   0.538  2.3311 -0.2442 -1.9205
  374MOL0     H50428   4.053   2.410   0.582  0.8503  0.5467 -0.0905
  374MOL0     H50429   3.846   2.549   0.515 -1.5274  0.5056  0.3473
  374MOL0     H50430   3.768   2.397   0.478 -1.0891 -1.1163  2.8319
  374MOL0     H50431   3.791   2.305   0.695 -0.0517 -0.2964 -3.0267
  374MOL0     H50432   3.884   2.450   0.737 -0.6191 -0.0185  1.0419
  374MOL0     H50433   3.592   2.450   0.630 -2.1484  2.6014  1.4957
  374MOL0     H50434   3.629   2.466   0.796  0.9997 -0.5675  0.4102
  374MOL0     H50435   3.667   2.654   0.564  0.7730 -1.0721  0.3394
  374MOL0     H50436   3.550   2.675   0.694 -0.7692  0.2979 -0.4825
  374MOL0     H50437   3.863   2.679   0.724  0.4242  1.6935 -0.9548
  374MOL0     H50438   3.756   2.825   0.706 -0.2033  3.1404  4.3478
  374MOL0     H50439   3.799   2.645   0.937  3.5734  0.4762 -1.8224
  374MOL0     H50440   3.641   2.727   0.924 -0.0609  0.6015 -0.3276
  374MOL0     H50441   3.628   2.972   0.970 -0.6181 -1.3436 -1.5683
  374MOL0     H50442   3.697   3.210   1.080  0.3091 -0.6743 -1.2869
  374MOL0     H50443   3.855   3.241   1.117 -1.1517  2.2056 -0.4098
  374MOL0     H50444   3.754   3.206   0.813  1.8448  2.0037 -2.7048
  374MOL0     H50445   3.908   3.266   0.862 -0.5805 -1.4881  1.0783
  374MOL0     H50446   3.819   3.456   0.816 -1.3724  0.4808 -0.7296
  374MOL0     H50447   3.766   3.446   0.988  1.2817 -0.3620  0.2265
  374MOL0     H50448   3.588   3.385   0.741 -1.0983  0.1734 -0.2804
  374MOL0     H50449   3.594   3.527   0.847 -2.9267 -1.1415  1.3649
  374MOL0     H50450   3.449   3.236   0.697 -2.6953  2.2490  1.3775
  374MOL0     H50451   3.332   3.076   0.556  0.2616  1.6694  2.5961
  374MOL0     H50452   3.414   2.927   0.604  1.4196  0.7434 -2.1714
  374MOL0     H50453   3.247   2.946   0.622  0.8913 -1.8580 -1.2067
  374MOL0     H50454   3.369   2.549   0.670 -0.2543  2.0615  0.5928
  374MOL0     H50455   3.216   2.354   0.600 -1.6327  0.3258 -1.6057
  374MOL0     H50456   3.056   2.202   0.829 -2.1676 -1.2632  1.5707
  374MOL0     H50457   2.907   2.275   0.878 -1.6620 -1.6981 -0.7642
  374MOL0     H50458   2.789   2.149   0.680 -0.4482  0.5701 -0.7302
  374MOL0     H50459   2.948   2.065   0.676 -0.0455 -1.4192  1.4100
  374MOL0     H50460   2.722   2.068   0.868 -0.5040  0.2352 -2.2246
  374MOL0     H50461   2.890   2.064   0.949 -0.5726 -2.8386  1.4438
  374MOL0     H50462   2.760   1.880   0.745 -0.0129 -0.6348 -0.1798
  374MOL0     H50463   2.918   1.858   0.808 -1.2750 -2.8802  0.7529
  374MOL0     H50464   2.673   1.860   0.985 -2.8949 -2.6781 -3.6645
  374MOL0     H50465   2.842   1.826   1.039 -1.0539  0.2890  0.3420
  374MOL0     H50466   2.689   1.671   0.827 -0.1906  1.9630  0.9041
  374MOL0     H50467   2.834   1.614   0.913  1.6966  0.0464  2.7192
  374MOL0     H50468   2.551   1.614   1.002 -0.5893 -0.7682  1.4418
  374MOL0     H50469   2.674   1.642   1.129 -4.5446 -0.2045  0.6534
  374MOL0     H50470   2.786   1.429   1.067  0.9559  0.6657 -0.2867
  374MOL0     H50471   2.701   1.430   0.913  0.1998 -0.2813 -0.0267
  374MOL0     H50472   2.916   2.523   0.840 -1.5084 -2.5528 -2.2251
  374MOL0     H50473   3.070   2.711   0.897  1.6945 -0.4891  1.7254
  374MOL0     H50474   3.330   3.012   1.122  3.5351 -0.8148  0.7145
  374MOL0     H50475   3.447   3.231   1.130 -0.5001  1.7827 -0.4063
  374MOL0     H50476   4.271   2.490   0.264  0.0193 -2.9024 -0.9790
  374MOL0     H50477   4.475   2.629   0.356  1.4969 -0.8718  0.1238
  374MOL0     H50478   4.742   2.938   0.516  0.1916 -1.3706 -1.6676
  374MOL0     H50479   4.984   3.008   0.571  4.0815 -0.8137  2.2574
  374MOL0     H50480   5.250   2.758   0.804  2.6281  1.2609  0.6963
  374MOL0     H50481   5.270   2.667   0.652 -2.0067 -0.7497  2.2838
  374MOL0     H50482   5.445   2.845   0.605  1.9753 -2.0370  0.6897
  374MOL0     H50483   5.479   2.742   0.743 -1.1202 -0.5717  1.8027
  374MOL0     H50484   5.431   2.938   0.906 -0.5592  2.5074  0.0167
  374MOL0     H50485   5.348   3.011   0.763 -1.3742 -0.6727  1.7898
  374MOL0     H50486   5.550   3.120   0.821  0.1800  0.1426  0.2113
  374MOL0     H50487   5.559   3.054   0.663  0.2604  1.1575  0.6364
  374MOL0     H50488   5.863   2.841   0.879  0.8802  0.0199  1.2895
  374MOL0     H50489   5.069   2.611   0.702 -0.9524  1.6941  3.5677
  374MOL0     H50490   4.843   2.546   0.668 -0.9024 -0.6504  2.5538
  375MOL0     O50491   3.779   9.224   7.643 -0.4234  0.6113  0.1384
  375MOL0     C50492   3.896   9.237   7.625  0.1277 -0.0031  0.1007
  375MOL0     O50493   3.978   9.140   7.578 -0.3595  0.0620 -0.7563
  375MOL0     C50494   3.931   9.019   7.534 -0.0329  0.3619  0.3272
  375MOL0     C50495   3.825   9.003   7.441  1.0791 -0.1075  0.1113
  375MOL0     C50496   3.796   8.876   7.387  0.2375  0.2600  0.1079
  375MOL0     C50497   3.866   8.756   7.432 -0.5357 -0.2757  0.5138
  375MOL0     O50498   3.857   8.628   7.367  0.0973 -0.0224  0.6757
  375MOL0     C50499   3.730   8.561   7.381 -0.0872 -0.1951  0.0354
  375MOL0     C50500   3.701   8.494   7.248 -0.0993 -1.1974  0.5051
  375MOL0     C50501   3.818   8.410   7.201  0.4744 -0.4317 -1.0102
  375MOL0     C50502   3.762   8.312   7.090 -0.4756  0.6198  0.5525
  375MOL0     C50503   3.870   8.213   7.047 -0.2586  0.1067  0.6654
  375MOL0     C50504   3.812   8.094   6.968  0.2168  0.2752 -0.6949
  375MOL0     C50505   3.912   8.006   6.892 -0.4599 -0.3184  0.0290
  375MOL0     C50506   3.972   7.895   6.970 -0.2674  0.0327 -0.5714
  375MOL0     N50507   4.023   7.790   6.885  0.4650 -0.4593 -0.4842
  375MOL0     C50508   4.110   7.793   6.785 -0.1163 -0.1037 -0.1180
  375MOL0     C50509   4.090   7.678   6.725  0.2146 -0.3080 -0.1817
  375MOL0     C50510   4.150   7.638   6.597 -0.0113 -0.2781  0.1485
  375MOL0     C50511   4.160   7.764   6.508 -0.8025  0.2418 -0.4913
  375MOL0     C50512   4.209   7.725   6.368  0.1200  0.4376 -0.7396
  375MOL0     C50513   4.098   7.687   6.268 -0.2698 -0.2288  0.2008
  375MOL0     O50514   4.067   7.545   6.283 -0.3467 -0.2700  0.2480
  375MOL0     C50515   4.150   7.450   6.225 -0.0252 -0.5736 -0.1407
  375MOL0     C50516   4.156   7.334   6.301 -0.2046 -0.0236  0.7969
  375MOL0     C50517   4.232   7.222   6.260 -0.3912  0.3523  1.2786
  375MOL0     C50518   4.221   7.094   6.349 -0.5171 -0.3265  0.0401
  375MOL0     C50519   4.314   7.226   6.145 -0.4348 -1.9838  0.4919
  375MOL0     C50520   4.396   7.112   6.097  0.6965  0.1598  0.1401
  375MOL0     O50521   4.496   7.153   6.006 -0.0633 -0.0314 -0.6305
  375MOL0     C50522   4.615   7.084   5.998  0.1824  0.1203 -0.5697
  375MOL0     C50523   4.675   7.048   6.117  0.1780 -0.0058 -0.1982
  375MOL0     C50524   4.804   6.996   6.121 -0.7851 -0.3623 -0.1776
  375MOL0     C50525   4.878   6.987   6.005  0.3023  0.9184 -0.5830
  375MOL0     O50526   5.012   6.954   6.010  0.0657  0.2188 -0.5064
  375MOL0     C50527   5.065   6.896   5.894  0.7679  0.6012  0.7191
  375MOL0     C50528   5.174   6.808   5.967 -0.2847 -0.6272 -0.4889
  375MOL0     C50529   5.257   6.724   5.868  0.4355 -0.3768 -0.7295
  375MOL0     C50530   5.333   6.618   5.945  0.2505  0.2222 -0.6641
  375MOL0     C50531   5.423   6.546   5.848 -0.3739 -0.0066 -0.2836
  375MOL0     C50532   5.518   6.446   5.918 -0.6309  0.0518 -0.4462
  375MOL0     C50533   5.604   6.366   5.825  0.4582 -0.6413  0.6707
  375MOL0     C50534   5.686   6.247   5.893  0.7608 -0.6639 -0.4744
  375MOL0    Cl50535   5.796   6.174   5.778  0.2560 -0.0142  0.2392
  375MOL0     C50536   4.822   7.043   5.889 -0.7853  0.0699 -0.2804
  375MOL0     C50537   4.697   7.081   5.882  0.1898  0.3372  1.1367
  375MOL0     O50538   4.374   6.993   6.122  0.0362 -0.4862  0.5358
  375MOL0     C50539   4.306   7.347   6.061 -0.4259  0.4571 -0.5386
  375MOL0     C50540   4.216   7.452   6.095 -0.6479 -0.0709  0.0589
  375MOL0     N50541   4.002   7.600   6.809 -1.3667 -0.2800 -0.3631
  375MOL0     N50542   3.973   7.672   6.905 -0.1861  0.1255  0.2700
  375MOL0     C50543   3.972   8.779   7.522 -0.7961 -0.2842 -0.2377
  375MOL0     C50544   4.000   8.906   7.577  0.1968  0.1997 -0.7983
  375MOL0     C50545   3.956   9.353   7.678 -0.9987 -0.6495 -0.8687
  375MOL0     C50546   3.881   9.459   7.728 -1.1622 -0.4581 -0.6181
  375MOL0     C50547   3.936   9.579   7.774 -0.6853 -0.3231 -0.2792
  375MOL0     C50548   4.072   9.597   7.784 -0.9273  1.0487  0.0978
  375MOL0     O50549   4.119   9.720   7.821  0.3249  0.3237  0.0208
  375MOL0     C50550   4.253   9.755   7.804 -1.1417  0.9525  0.9007
  375MOL0     C50551   4.274   9.804   7.661  0.3662  0.4064  0.8219
  375MOL0     C50552   4.379   9.915   7.654  0.2015  0.2552 -0.0872
  375MOL0     C50553   4.523   9.853   7.648  0.0395 -0.0222  0.8423
  375MOL0     C50554   4.621   9.944   7.597 -0.1830  0.0618 -0.7187
  375MOL0     C50555   4.717   9.997   7.537  0.6369  0.3387 -0.2993
  375MOL0     C50556   4.153   9.483   7.744  0.0480 -0.6636  0.1192
  375MOL0     C50557   4.094   9.367   7.694 -0.0158  0.1922  1.0534
  375MOL0     H50558   3.758   9.086   7.424 -0.0217 -0.6955  1.3901
  375MOL0     H50559   3.715   8.886   7.315  0.1593  0.8104  0.2659
  375MOL0     H50560   3.726   8.482   7.458  0.7728 -2.2916 -1.9436
  375MOL0     H50561   3.652   8.636   7.393 -0.1097 -0.3271  0.7621
  375MOL0     H50562   3.621   8.424   7.274 -0.7416 -0.4317  0.6391
  375MOL0     H50563   3.665   8.560   7.169 -1.0486 -3.4176 -1.0144
  375MOL0     H50564   3.896   8.473   7.157 -1.8402  3.0767 -0.5267
  375MOL0     H50565   3.854   8.352   7.287 -0.8353  1.7559  1.1539
  375MOL0     H50566   3.679   8.255   7.134 -0.5333  0.0162 -0.3127
  375MOL0     H50567   3.724   8.368   7.004  0.4656  1.0478  0.4078
  375MOL0     H50568   3.929   8.272   6.976 -3.9310  0.1063 -2.7057
  375MOL0     H50569   3.935   8.184   7.130 -0.2325  1.4359  1.1352
  375MOL0     H50570   3.759   8.023   7.033  1.0047 -1.0504 -1.4526
  375MOL0     H50571   3.743   8.138   6.895  1.0875  1.1242 -1.0121
  375MOL0     H50572   3.856   7.960   6.811 -0.5340 -0.4837  0.1752
  375MOL0     H50573   3.996   8.062   6.850 -2.3173  4.8727  2.4235
  375MOL0     H50574   3.893   7.844   7.026 -0.6431  0.9227 -0.2623
  375MOL0     H50575   4.052   7.921   7.039 -1.2845  1.4561  0.1339
  375MOL0     H50576   4.168   7.880   6.757 -0.7134 -0.2045 -1.8095
  375MOL0     H50577   4.251   7.603   6.621 -0.9419 -2.5993  1.0035
  375MOL0     H50578   4.096   7.556   6.548 -0.4411  0.8062 -1.2569
  375MOL0     H50579   4.248   7.822   6.538 -0.7722 -0.4380  0.8142
  375MOL0     H50580   4.073   7.829   6.502 -0.4232  0.7431 -0.6287
  375MOL0     H50581   4.285   7.646   6.369 -2.2361 -2.1162  2.7783
  375MOL0     H50582   4.255   7.814   6.326 -2.7302  2.9107  1.0186
  375MOL0     H50583   4.136   7.711   6.168  0.3050  0.7575  0.6417
  375MOL0     H50584   4.009   7.745   6.293 -0.3744 -0.5630  0.5987
  375MOL0     H50585   4.095   7.322   6.390  0.0926 -0.6018  0.9253
  375MOL0     H50586   4.167   7.127   6.437  2.9927  1.6165  1.6851
  375MOL0     H50587   4.157   7.019   6.301  0.5106 -1.9228  1.0572
  375MOL0     H50588   4.314   7.043   6.377 -1.8941 -1.9625  1.8838
  375MOL0     H50589   4.618   7.062   6.208  1.3522  3.3838  0.1403
  375MOL0     H50590   4.864   6.964   6.206 -1.2100 -2.1657 -0.5114
  375MOL0     H50591   4.990   6.843   5.835  2.0846  0.4313 -0.8834
  375MOL0     H50592   5.111   6.968   5.827 -1.4395  0.5058 -1.0056
  375MOL0     H50593   5.235   6.885   6.016 -2.2327  0.8311 -0.2093
  375MOL0     H50594   5.138   6.734   6.039  1.8418 -2.2352 -0.9749
  375MOL0     H50595   5.342   6.778   5.827  0.2912  0.5912  0.2040
  375MOL0     H50596   5.187   6.681   5.796 -3.1612 -2.0746  3.2942
  375MOL0     H50597   5.383   6.663   6.032 -0.5890  1.0219 -0.5743
  375MOL0     H50598   5.261   6.546   5.985 -0.2916  0.9152 -0.3718
  375MOL0     H50599   5.494   6.618   5.806 -1.2195  1.3330  0.5309
  375MOL0     H50600   5.368   6.505   5.762  1.1612 -0.2423 -1.1928
  375MOL0     H50601   5.589   6.509   5.972  2.4542 -1.0369 -2.9196
  375MOL0     H50602   5.468   6.374   5.984  0.6968  0.9660  1.6879
  375MOL0     H50603   5.672   6.434   5.774 -0.3180  0.6519  1.2955
  375MOL0     H50604   5.538   6.323   5.748  1.1945 -2.1963  0.8725
  375MOL0     H50605   5.619   6.170   5.932 -0.7288  0.4276 -0.7871
  375MOL0     H50606   5.740   6.291   5.977  1.1922 -0.3156 -0.9260
  375MOL0     H50607   4.887   7.060   5.803  0.3062  0.5934  0.6256
  375MOL0     H50608   4.655   7.116   5.788  2.3430 -2.1604 -0.9068
  375MOL0     H50609   4.368   7.354   5.972 -1.9031 -1.3720 -1.7995
  375MOL0     H50610   4.218   7.542   6.034  1.3143 -0.5994 -0.7290
  375MOL0     H50611   4.033   8.699   7.563  1.0621  1.2760  0.2153
  375MOL0     H50612   4.089   8.914   7.638  0.2624 -1.5782 -0.5916
  375MOL0     H50613   3.773   9.451   7.726 -1.1085 -1.1278 -0.8770
  375MOL0     H50614   3.856   9.647   7.803 -0.4457 -0.6381  1.1753
  375MOL0     H50615   4.273   9.839   7.870  0.0894 -0.6631  2.6656
  375MOL0     H50616   4.314   9.671   7.839 -0.2436  1.6660  1.0522
  375MOL0     H50617   4.185   9.862   7.635  0.3362 -0.9370 -2.5677
  375MOL0     H50618   4.288   9.714   7.601 -0.4556  0.7868  0.0497
  375MOL0     H50619   4.368   9.976   7.744  1.2208  0.8857 -0.3694
  375MOL0     H50620   4.367   9.985   7.570 -1.4090  0.7409  0.5258
  375MOL0     H50621   4.535   9.762   7.589  2.7028  0.2775  0.7851
  375MOL0     H50622   4.558   9.815   7.745  3.2248  0.0766 -0.1690
  375MOL0     H50623   4.799  10.009   7.470  0.7419 -4.6928 -1.4677
  375MOL0     H50624   4.261   9.494   7.751  0.2949 -2.4679 -0.3340
  375MOL0     H50625   4.165   9.290   7.667 -1.4129 -1.5952  2.2123
  376MOL0     O50626   4.186   8.921   4.169  0.3644  0.0490  0.2955
  376MOL0     C50627   4.141   8.895   4.058  0.2215 -0.6603 -0.4710
  376MOL0     O50628   4.019   8.838   4.030 -0.6188 -0.7443  0.1187
  376MOL0     C50629   3.932   8.803   4.126 -0.6897  0.1184  0.0791
  376MOL0     C50630   3.921   8.868   4.257 -0.4361 -0.1497  0.3606
  376MOL0     C50631   3.827   8.819   4.349 -0.2882 -0.5219  1.1080
  376MOL0     C50632   3.733   8.711   4.322 -1.1651  0.3130  0.3225
  376MOL0     O50633   3.639   8.663   4.409 -0.9404 -0.1417  0.3458
  376MOL0     C50634   3.644   8.704   4.540  0.0595 -0.2544  0.1879
  376MOL0     C50635   3.543   8.822   4.564  0.0387 -0.2448  0.1892
  376MOL0     C50636   3.402   8.801   4.529  0.0358 -0.3240 -0.8802
  376MOL0     C50637   3.332   8.724   4.638 -1.0895 -0.4104 -0.5998
  376MOL0     C50638   3.192   8.692   4.625 -0.5667  1.2384  0.6767
  376MOL0     C50639   3.140   8.644   4.768 -0.2234  0.1993  0.2360
  376MOL0     C50640   2.985   8.619   4.769 -0.1100 -0.1386 -0.1710
  376MOL0     C50641   2.947   8.593   4.919  0.3158 -0.0913 -0.6511
  376MOL0     N50642   2.803   8.567   4.941 -0.6209  0.3504 -0.4288
  376MOL0     C50643   2.704   8.670   4.943 -0.7735  0.2699 -0.4781
  376MOL0     C50644   2.599   8.610   5.004 -0.3083 -0.4145  0.8194
  376MOL0     C50645   2.463   8.673   5.038  0.6872 -1.0594 -0.7866
  376MOL0     C50646   2.486   8.768   5.154  0.3694 -0.5078  0.3835
  376MOL0     C50647   2.372   8.860   5.195  0.5716 -0.6900  0.0407
  376MOL0     C50648   2.240   8.782   5.213  0.9497 -0.8284 -0.1992
  376MOL0     O50649   2.145   8.871   5.258  0.1768  0.3215  0.6937
  376MOL0     C50650   2.009   8.827   5.224  0.0349  0.3507  0.0982
  376MOL0     C50651   1.977   8.693   5.183 -0.1852 -0.9076  0.6451
  376MOL0     C50652   1.843   8.670   5.141 -0.2185 -0.6544 -0.0123
  376MOL0     C50653   1.793   8.527   5.094 -0.1375  0.0805 -0.5790
  376MOL0     C50654   1.741   8.775   5.155 -0.2565  0.4443 -0.5537
  376MOL0     C50655   1.602   8.756   5.098 -0.0540  0.1531  0.7775
  376MOL0     O50656   1.506   8.817   5.187  0.0565 -0.1218  1.2216
  376MOL0     C50657   1.371   8.814   5.167 -0.3766 -0.2664  0.2455
  376MOL0     C50658   1.299   8.909   5.247 -0.3788  0.5074 -0.0980
  376MOL0     C50659   1.160   8.916   5.235 -0.3949  0.3934 -0.9691
  376MOL0     C50660   1.085   8.832   5.157 -0.4415 -0.1783  0.9046
  376MOL0     O50661   0.950   8.843   5.162  0.4054  0.1934 -0.2886
  376MOL0     C50662   0.863   8.757   5.091 -0.0899  0.3124  0.6342
  376MOL0     C50663   0.717   8.798   5.133 -0.8531 -0.0962 -0.6258
  376MOL0     C50664   0.616   8.712   5.070  0.2294  0.3164 -0.1563
  376MOL0     C50665   0.476   8.780   5.068  0.1697  0.0599  0.9622
  376MOL0     C50666   0.438   8.816   4.927  0.2237 -0.4860  0.2683
  376MOL0     C50667   0.316   8.909   4.922 -0.0342  0.1810 -0.0011
  376MOL0     C50668   0.265   8.889   4.780  0.4635 -0.8101  0.6840
  376MOL0     C50669   0.136   8.979   4.753  0.5166 -0.3585 -0.6954
  376MOL0    Cl50670   0.186   9.156   4.755 -0.1148  0.0038  0.2436
  376MOL0     C50671   1.156   8.730   5.090  0.1741 -0.0210  0.0174
  376MOL0     C50672   1.298   8.717   5.097 -0.3301 -0.7455  0.5585
  376MOL0     O50673   1.579   8.732   4.979  0.9359  0.0873  0.3422
  376MOL0     C50674   1.780   8.893   5.219 -0.0629 -1.1585 -1.4557
  376MOL0     C50675   1.915   8.921   5.249  0.6204  0.2460 -0.4613
  376MOL0     N50676   2.636   8.472   5.018 -0.3633 -0.2774 -0.4086
  376MOL0     N50677   2.757   8.453   4.984  1.0222 -0.1564  0.0520
  376MOL0     C50678   3.745   8.648   4.196  0.2162 -0.6016  0.9069
  376MOL0     C50679   3.848   8.691   4.104 -0.0458  0.2640  0.0532
  376MOL0     C50680   4.233   8.951   3.953 -1.0781  0.6451  0.2289
  376MOL0     C50681   4.209   8.933   3.819 -0.3806  0.3226  0.1120
  376MOL0     C50682   4.308   8.966   3.723  0.0823 -0.0570 -0.0275
  376MOL0     C50683   4.424   9.031   3.759  0.3585 -1.1949  0.1108
  376MOL0     O50684   4.506   9.065   3.647 -0.5038  1.7123  0.3322
  376MOL0     C50685   4.642   9.096   3.674  1.1601 -0.4973  0.2105
  376MOL0     C50686   4.735   8.988   3.731 -0.1198 -0.4280  0.0607
  376MOL0     C50687   4.727   8.853   3.656  0.7003 -0.3148 -1.0330
  376MOL0     C50688   4.798   8.737   3.712  1.1921 -0.1779 -0.0647
  376MOL0     C50689   4.934   8.776   3.762 -0.8541 -1.2486  0.2189
  376MOL0     C50690   5.033   8.823   3.822 -0.1125  0.1407  0.2913
  376MOL0     C50691   4.449   9.058   3.895  0.0019 -1.0320 -0.0173
  376MOL0     C50692   4.359   9.016   3.993 -0.0932 -0.0543 -0.1075
  376MOL0     H50693   3.985   8.947   4.293 -0.9812 -0.4360  2.0500
  376MOL0     H50694   3.819   8.869   4.445  2.4405 -1.0704  1.7040
  376MOL0     H50695   3.618   8.622   4.608 -0.3546  0.0099  0.3575
  376MOL0     H50696   3.742   8.740   4.575  0.4262 -1.0018 -0.0618
  376MOL0     H50697   3.550   8.862   4.666 -0.3433 -0.2986  0.2370
  376MOL0     H50698   3.575   8.904   4.499  1.6296 -1.2466 -0.3561
  376MOL0     H50699   3.353   8.899   4.522  1.2671  0.8320  3.4588
  376MOL0     H50700   3.401   8.746   4.435 -0.2291 -3.2849  0.7593
  376MOL0     H50701   3.388   8.630   4.633  3.0313  1.7439  0.3054
  376MOL0     H50702   3.365   8.765   4.734  1.6212  1.8529 -2.3321
  376MOL0     H50703   3.137   8.779   4.590  0.3085  1.4537 -0.1976
  376MOL0     H50704   3.182   8.618   4.545 -0.8062  1.2947  0.6540
  376MOL0     H50705   3.192   8.555   4.803  1.1819 -0.4595 -3.1224
  376MOL0     H50706   3.166   8.725   4.837 -1.9479 -0.1000  1.2992
  376MOL0     H50707   2.932   8.710   4.739  1.5350  0.8916 -0.0755
  376MOL0     H50708   2.949   8.530   4.717  3.4199 -0.7531 -1.8227
  376MOL0     H50709   2.985   8.674   4.983  2.0925  1.6221 -3.6635
  376MOL0     H50710   3.002   8.502   4.947  1.2310  0.2524 -1.2914
  376MOL0     H50711   2.707   8.773   4.910 -3.8889  1.3984  2.2558
  376MOL0     H50712   2.433   8.731   4.950 -1.3029  3.1989  2.3153
  376MOL0     H50713   2.384   8.601   5.059 -0.3417  0.1630 -0.2767
  376MOL0     H50714   2.574   8.822   5.120  0.9970 -1.8227 -0.1768
  376MOL0     H50715   2.512   8.702   5.237  2.1104 -0.4676 -0.0959
  376MOL0     H50716   2.377   8.949   5.132  4.0457 -0.9443 -0.2588
  376MOL0     H50717   2.405   8.904   5.289 -0.7889  3.3225 -1.1515
  376MOL0     H50718   2.243   8.700   5.286 -1.0816 -1.5152 -0.8120
  376MOL0     H50719   2.212   8.743   5.115  0.7836  1.1871 -1.0163
  376MOL0     H50720   2.050   8.613   5.177 -1.2940 -1.8038 -1.4312
  376MOL0     H50721   1.867   8.489   5.023  0.7381  0.5878  0.0436
  376MOL0     H50722   1.798   8.450   5.171  1.1676  0.0935 -0.6312
  376MOL0     H50723   1.695   8.532   5.047 -1.8710  1.7435  2.8302
  376MOL0     H50724   1.343   8.985   5.311 -2.4291  1.7266 -0.0413
  376MOL0     H50725   1.101   8.985   5.294  0.9360 -0.9529  2.1267
  376MOL0     H50726   0.881   8.755   4.983 -1.6780 -1.7699  0.3547
  376MOL0     H50727   0.874   8.660   5.138 -0.0162 -0.4317 -0.8475
  376MOL0     H50728   0.708   8.799   5.242 -1.4415 -3.0752 -0.5717
  376MOL0     H50729   0.702   8.902   5.105  0.6317 -0.3679 -2.6864
  376MOL0     H50730   0.605   8.621   5.129 -0.7461 -2.3040 -3.9671
  376MOL0     H50731   0.637   8.677   4.968  0.8539  1.0812 -0.3078
  376MOL0     H50732   0.403   8.715   5.117  1.1978 -3.0151 -1.2115
  376MOL0     H50733   0.481   8.873   5.125  1.7911  0.0771  0.8396
  376MOL0     H50734   0.426   8.733   4.857  2.3686  0.6243 -1.5371
  376MOL0     H50735   0.523   8.868   4.881 -0.1918 -0.5420 -0.5985
  376MOL0     H50736   0.242   8.878   4.995 -1.3946  1.2890 -0.8650
  376MOL0     H50737   0.336   9.012   4.954 -2.1528  0.8474 -0.6599
  376MOL0     H50738   0.227   8.787   4.772 -0.3994 -0.3937 -1.0551
  376MOL0     H50739   0.346   8.904   4.708  0.7302  0.4472  1.2169
  376MOL0     H50740   0.059   8.967   4.829  1.7319  0.4151  0.6924
  376MOL0     H50741   0.096   8.952   4.654 -0.3233 -0.1186 -0.4314
  376MOL0     H50742   1.107   8.647   5.040 -1.1783  2.0128 -2.2328
  376MOL0     H50743   1.357   8.651   5.034  3.4648  1.8968  1.0153
  376MOL0     H50744   1.717   8.973   5.255  1.7009  0.6734 -2.2425
  376MOL0     H50745   1.930   9.018   5.296  0.2951  0.2003 -0.2610
  376MOL0     H50746   3.676   8.565   4.184 -0.3781 -0.0924  0.7573
  376MOL0     H50747   3.870   8.627   4.019 -4.2347 -2.9226  1.0445
  376MOL0     H50748   4.122   8.883   3.778 -1.3732  2.7287 -0.8812
  376MOL0     H50749   4.294   8.941   3.618  0.2094  2.6806 -0.7765
  376MOL0     H50750   4.678   9.134   3.579  3.2997  2.1807  1.9403
  376MOL0     H50751   4.651   9.182   3.741 -0.2533 -1.3302  1.5394
  376MOL0     H50752   4.728   8.965   3.837 -0.4313 -1.8792 -0.2557
  376MOL0     H50753   4.833   9.036   3.721  0.0636 -0.0937  2.7255
  376MOL0     H50754   4.761   8.871   3.553  0.5139  0.5336 -0.9577
  376MOL0     H50755   4.622   8.824   3.647  0.7967 -0.1644 -3.3316
  376MOL0     H50756   4.799   8.664   3.631 -1.9520  1.1257 -1.4337
  376MOL0     H50757   4.744   8.687   3.794  1.4990 -1.3466 -0.5506
  376MOL0     H50758   5.107   8.874   3.880 -1.9662  2.2983  0.9358
  376MOL0     H50759   4.541   9.111   3.913 -0.0800 -0.6785 -0.6256
  376MOL0     H50760   4.387   9.021   4.098 -1.4701 -1.3214  0.3491
  377MOL0     O50761   0.607   4.379   6.467 -0.1570 -0.8997 -0.1321
  377MOL0     C50762   0.648   4.474   6.410  0.3930  0.2395  1.0095
  377MOL0     O50763   0.686   4.590   6.465  0.1694 -0.0555  0.6128
  377MOL0     C50764   0.678   4.616   6.604 -0.7456 -0.0730  0.3171
  377MOL0     C50765   0.599   4.719   6.649  0.2706 -0.9172  0.0125
  377MOL0     C50766   0.553   4.717   6.780 -0.0491  0.2374 -0.7453
  377MOL0     C50767   0.599   4.619   6.876 -0.2856 -0.5057  0.2133
  377MOL0     O50768   0.542   4.635   7.002  0.4671 -0.3047  0.0209
  377MOL0     C50769   0.529   4.516   7.085  0.1596 -0.7859  0.5509
  377MOL0     C50770   0.462   4.569   7.206 -0.2107  0.2988 -0.7238
  377MOL0     C50771   0.389   4.451   7.272 -0.5572  0.9835  1.0081
  377MOL0     C50772   0.252   4.412   7.201 -0.2769 -0.5068  0.8690
  377MOL0     C50773   0.174   4.292   7.264 -0.2924  0.2548  0.6317
  377MOL0     C50774   0.128   4.317   7.407 -0.7218 -0.4800  0.0527
  377MOL0     C50775   0.100   4.195   7.496  0.2876  0.0462  0.7990
  377MOL0     C50776  -0.016   4.112   7.447  0.2128 -0.1417  0.1616
  377MOL0     N50777  -0.136   4.164   7.524 -0.0519  0.7236 -0.1728
  377MOL0     C50778  -0.211   4.267   7.497  0.1768 -1.0084 -0.8871
  377MOL0     C50779  -0.301   4.274   7.600 -0.1992  0.6382 -0.3220
  377MOL0     C50780  -0.415   4.366   7.635  1.4690 -0.3446 -0.1216
  377MOL0     C50781  -0.365   4.508   7.660 -0.3479 -0.4531 -0.4099
  377MOL0     C50782  -0.481   4.599   7.697 -1.3118 -0.6138  0.6477
  377MOL0     C50783  -0.444   4.755   7.702 -1.2345 -0.0519 -0.4933
  377MOL0     O50784  -0.567   4.824   7.741  0.4742  0.4063 -0.6679
  377MOL0     C50785  -0.651   4.866   7.641 -0.5461  0.9645  0.0801
  377MOL0     C50786  -0.770   4.906   7.687  0.9967 -0.8025  0.1490
  377MOL0     C50787  -0.870   4.958   7.598 -1.7261 -1.2012  0.7554
  377MOL0     C50788  -0.991   5.011   7.662  0.3526  0.0334  0.5192
  377MOL0     C50789  -0.843   4.970   7.461 -0.4648  1.2935  0.2376
  377MOL0     C50790  -0.919   5.036   7.356 -0.1141  1.1119 -0.2804
  377MOL0     O50791  -0.926   4.972   7.237  0.2419 -0.4859  0.3992
  377MOL0     C50792  -1.001   5.027   7.134 -0.0713  0.4962  0.3239
  377MOL0     C50793  -0.951   5.070   7.007  0.4543  0.2654 -0.0652
  377MOL0     C50794  -1.041   5.127   6.913 -0.6138 -0.5989  1.2742
  377MOL0     C50795  -1.178   5.147   6.938 -0.8218 -0.5064 -0.9383
  377MOL0     O50796  -1.246   5.196   6.837 -0.1747  0.1548  0.6712
  377MOL0     C50797  -1.364   5.266   6.862 -0.3762  0.4531 -0.4254
  377MOL0     C50798  -1.467   5.174   6.798  0.8819 -0.9648 -1.0202
  377MOL0     C50799  -1.607   5.233   6.830  0.2504 -0.2153  0.2540
  377MOL0     C50800  -1.694   5.226   6.703 -0.5906  0.6761 -0.9631
  377MOL0     C50801  -1.827   5.292   6.729  0.5082 -0.1002 -0.7278
  377MOL0     C50802  -1.928   5.292   6.609  0.0545 -1.1671 -0.4204
  377MOL0     C50803  -1.959   5.161   6.544  0.9244 -0.1004 -0.1890
  377MOL0     C50804  -2.051   5.180   6.425  0.6880 -0.3613 -0.5858
  377MOL0    Cl50805  -2.223   5.189   6.489  0.0836  0.6548  0.1677
  377MOL0     C50806  -1.224   5.099   7.066  0.3136 -0.8628  0.1539
  377MOL0     C50807  -1.143   5.042   7.163 -0.3570 -0.1622  0.1192
  377MOL0     O50808  -0.980   5.137   7.389 -0.0310  0.3437 -0.1272
  377MOL0     C50809  -0.719   4.927   7.413 -1.5555 -0.4281 -0.0938
  377MOL0     C50810  -0.623   4.863   7.499  0.4710  0.1388  0.5096
  377MOL0     N50811  -0.277   4.166   7.682 -0.2185  0.4386  1.1547
  377MOL0     N50812  -0.184   4.092   7.629  1.1030  0.6704 -0.1942
  377MOL0     C50813   0.681   4.519   6.825  1.1404 -0.5751  0.2359
  377MOL0     C50814   0.732   4.527   6.697  0.5108  0.1560  0.2539
  377MOL0     C50815   0.699   4.446   6.273  0.3631 -0.0853 -0.0027
  377MOL0     C50816   0.801   4.513   6.205  0.1757 -0.5912  0.6203
  377MOL0     C50817   0.844   4.481   6.076  0.6310  0.0426 -0.1479
  377MOL0     C50818   0.776   4.389   6.004  0.1954  0.3549  0.0923
  377MOL0     O50819   0.813   4.369   5.874  0.2502 -0.7263  0.2308
  377MOL0     C50820   0.707   4.355   5.778 -0.2922 -0.3476 -0.2737
  377MOL0     C50821   0.727   4.473   5.681 -0.6657 -0.1539 -0.0873
  377MOL0     C50822   0.644   4.451   5.558  0.0033  0.3038 -0.6863
  377MOL0     C50823   0.656   4.316   5.479 -0.5010 -0.2592 -0.1512
  377MOL0     C50824   0.595   4.321   5.345 -0.6008 -0.3547  0.1390
  377MOL0     C50825   0.554   4.322   5.233 -0.1707  0.2821  0.3082
  377MOL0     C50826   0.667   4.319   6.068  0.8926 -0.1511 -0.2598
  377MOL0     C50827   0.639   4.347   6.199 -0.1559  0.4990  0.1138
  377MOL0     H50828   0.572   4.794   6.575 -0.7770  1.4548  2.6414
  377MOL0     H50829   0.487   4.799   6.809  2.3895  1.9920  0.2205
  377MOL0     H50830   0.470   4.451   7.021  0.8561  3.7245 -5.5794
  377MOL0     H50831   0.621   4.465   7.115 -0.2037 -1.5318  0.4149
  377MOL0     H50832   0.530   4.613   7.280 -3.1737  0.6467  2.0309
  377MOL0     H50833   0.376   4.632   7.181 -0.3065 -1.0289 -4.3894
  377MOL0     H50834   0.455   4.366   7.294 -0.8211  0.2859 -0.6811
  377MOL0     H50835   0.366   4.483   7.373 -0.6369 -0.1124  1.3524
  377MOL0     H50836   0.189   4.500   7.187 -0.9189 -1.1008 -0.1083
  377MOL0     H50837   0.283   4.381   7.101 -1.9387  0.0787  0.1482
  377MOL0     H50838   0.092   4.262   7.198  1.6815 -0.9760 -1.4001
  377MOL0     H50839   0.249   4.212   7.264 -2.1950 -1.7111  2.6741
  377MOL0     H50840   0.194   4.388   7.459 -0.4711 -1.5094  1.1915
  377MOL0     H50841   0.030   4.362   7.390 -1.0957 -0.9507  0.9104
  377MOL0     H50842   0.189   4.132   7.510 -0.0319 -1.3290 -2.3803
  377MOL0     H50843   0.066   4.236   7.591 -4.5289  0.3662 -0.7850
  377MOL0     H50844   0.012   4.007   7.455  0.7765  0.1073  1.7797
  377MOL0     H50845  -0.044   4.147   7.347  0.1714  0.9842  0.5463
  377MOL0     H50846  -0.198   4.334   7.413  0.4437  0.4122  0.2495
  377MOL0     H50847  -0.476   4.374   7.545  2.0663 -0.9701 -0.5893
  377MOL0     H50848  -0.472   4.332   7.722 -0.0736  3.7124  0.6635
  377MOL0     H50849  -0.311   4.546   7.573  2.3591 -1.7972  0.5849
  377MOL0     H50850  -0.305   4.522   7.750 -0.0238 -1.7734 -0.4051
  377MOL0     H50851  -0.519   4.573   7.796 -0.8970  1.5367  1.4344
  377MOL0     H50852  -0.563   4.579   7.627 -1.2015  1.6400 -0.1970
  377MOL0     H50853  -0.395   4.795   7.613  3.3904  0.9420  2.1652
  377MOL0     H50854  -0.373   4.783   7.781 -2.5412  2.2144 -0.0498
  377MOL0     H50855  -0.785   4.901   7.794 -1.6108  1.2415 -0.0302
  377MOL0     H50856  -0.981   5.116   7.691  0.4007 -0.1599  1.2307
  377MOL0     H50857  -1.077   5.008   7.595  0.6234  3.1707 -0.1142
  377MOL0     H50858  -1.012   4.963   7.758  0.7709 -1.0077  0.1105
  377MOL0     H50859  -0.846   5.051   6.985 -0.0428 -1.2865 -1.2749
  377MOL0     H50860  -1.005   5.150   6.813 -1.8797  0.6703  1.0794
  377MOL0     H50861  -1.386   5.269   6.969  2.5688  0.3312  0.2821
  377MOL0     H50862  -1.356   5.364   6.814  2.4095  0.0817 -0.8669
  377MOL0     H50863  -1.456   5.165   6.689 -0.4857  3.1101 -1.6851
  377MOL0     H50864  -1.460   5.076   6.845 -0.7260 -0.2413  0.8752
  377MOL0     H50865  -1.598   5.336   6.865  1.9072 -0.3454  0.3149
  377MOL0     H50866  -1.657   5.189   6.917  2.6613  1.3173  2.6069
  377MOL0     H50867  -1.640   5.274   6.621  0.5536  1.7518  0.3823
  377MOL0     H50868  -1.703   5.120   6.677  2.7977  0.2384 -0.7574
  377MOL0     H50869  -1.810   5.396   6.758  1.6247 -0.7808  1.2213
  377MOL0     H50870  -1.867   5.246   6.819  2.2527  0.8883  0.6236
  377MOL0     H50871  -2.019   5.342   6.644 -0.3473 -2.3432  0.2925
  377MOL0     H50872  -1.874   5.359   6.542 -1.0595  0.6154  0.3618
  377MOL0     H50873  -2.015   5.097   6.612 -0.6752  0.4187 -0.9888
  377MOL0     H50874  -1.869   5.103   6.517 -0.2294 -2.2496  0.3620
  377MOL0     H50875  -2.039   5.096   6.356  0.9778  0.3206 -1.3746
  377MOL0     H50876  -2.022   5.271   6.373  0.3408  1.6062  2.4275
  377MOL0     H50877  -1.329   5.107   7.094  0.2265 -0.3361 -0.3196
  377MOL0     H50878  -1.184   5.013   7.259  0.4485  1.0979  0.8776
  377MOL0     H50879  -0.666   4.934   7.319  3.5316 -0.0241  2.4329
  377MOL0     H50880  -0.523   4.831   7.470 -0.3550 -0.2615 -2.2225
  377MOL0     H50881   0.712   4.446   6.900 -1.1611 -2.1577 -0.2416
  377MOL0     H50882   0.777   4.441   6.649  1.0888  1.0096 -0.7897
  377MOL0     H50883   0.846   4.589   6.268 -0.2615 -0.1106  0.3537
  377MOL0     H50884   0.925   4.537   6.031  0.5853  0.7732  0.6712
  377MOL0     H50885   0.722   4.257   5.731 -3.5971 -1.0976  0.0253
  377MOL0     H50886   0.605   4.367   5.815 -0.4446 -0.7787 -0.5520
  377MOL0     H50887   0.833   4.490   5.659 -0.6863  2.0809  1.2430
  377MOL0     H50888   0.715   4.571   5.729  2.8719  0.0341  0.7555
  377MOL0     H50889   0.652   4.531   5.483 -4.6804  1.2246 -0.5629
  377MOL0     H50890   0.542   4.451   5.599 -0.4122  1.4329 -1.6510
  377MOL0     H50891   0.613   4.235   5.539  0.0038 -2.1241 -2.2139
  377MOL0     H50892   0.761   4.286   5.467  0.3205  1.8767  1.0288
  377MOL0     H50893   0.514   4.305   5.135  1.2049 -1.6619  0.0461
  377MOL0     H50894   0.610   4.249   6.007 -0.6015 -0.3881  1.3437
  377MOL0     H50895   0.567   4.286   6.252 -0.1046  1.8533  1.8173
  378MOL0     O50896   7.994   1.706   8.019 -0.2351 -0.2006 -0.4000
  378MOL0     C50897   8.105   1.753   7.998  0.1296  0.0410 -0.8661
  378MOL0     O50898   8.133   1.868   7.927 -0.5366 -0.0144  0.3426
  378MOL0     C50899   8.021   1.932   7.878 -1.3883  0.2318  0.3667
  378MOL0     C50900   7.924   1.975   7.963  0.4116 -0.0413 -0.2250
  378MOL0     C50901   7.830   2.072   7.918 -0.1716  0.1754 -0.2624
  378MOL0     C50902   7.829   2.107   7.783  0.0967  0.8921 -0.0594
  378MOL0     O50903   7.730   2.194   7.743  0.1813 -0.3106 -0.4698
  378MOL0     C50904   7.657   2.173   7.622 -0.1866  0.0800 -0.0983
  378MOL0     C50905   7.516   2.243   7.601  0.2658  0.3370  0.2248
  378MOL0     C50906   7.418   2.206   7.709 -0.0280  0.4415 -0.7200
  378MOL0     C50907   7.442   2.254   7.853 -0.4286 -0.1760  0.3879
  378MOL0     C50908   7.311   2.270   7.922 -0.6696  0.0735  0.0708
  378MOL0     C50909   7.210   2.151   7.919 -0.0825  0.5935 -0.2258
  378MOL0     C50910   7.084   2.175   7.992  0.4456 -0.2189 -0.4791
  378MOL0     C50911   7.098   2.136   8.141 -0.5593 -0.2026 -0.5407
  378MOL0     N50912   6.958   2.129   8.189  0.1054 -0.4204 -1.2105
  378MOL0     C50913   6.882   2.022   8.218  0.0545  0.1460 -0.0841
  378MOL0     C50914   6.758   2.074   8.243 -0.7205 -0.1001  0.1504
  378MOL0     C50915   6.626   2.000   8.261  0.3909 -0.0817 -0.5680
  378MOL0     C50916   6.559   2.056   8.388  0.2723 -0.5232 -0.6923
  378MOL0     C50917   6.423   1.983   8.419  0.2903 -0.0479  0.4960
  378MOL0     C50918   6.342   2.069   8.513  0.2839 -0.8542  0.4799
  378MOL0     O50919   6.247   2.158   8.448  0.5254  0.8013  0.5069
  378MOL0     C50920   6.188   2.258   8.521 -0.0608 -0.8231  0.3239
  378MOL0     C50921   6.202   2.292   8.651  0.0695 -0.1582 -0.1180
  378MOL0     C50922   6.137   2.402   8.709  0.7871  0.7574 -0.4418
  378MOL0     C50923   6.146   2.420   8.863 -1.0420 -0.0801  0.2878
  378MOL0     C50924   6.043   2.482   8.636  0.0306 -0.4111 -0.0828
  378MOL0     C50925   5.951   2.591   8.696 -0.6920 -0.1209  0.0861
  378MOL0     O50926   5.961   2.631   8.825 -1.0236 -0.4313  0.4524
  378MOL0     C50927   5.889   2.748   8.849 -0.3974 -0.3313  0.4549
  378MOL0     C50928   5.814   2.755   8.962 -0.2950  0.4137 -0.1057
  378MOL0     C50929   5.739   2.873   9.000  0.1980  0.4325 -0.0804
  378MOL0     C50930   5.750   2.985   8.927  0.5149 -0.1870  0.1473
  378MOL0     O50931   5.675   3.093   8.954 -0.2995 -0.2988 -0.7568
  378MOL0     C50932   5.764   3.194   9.001  0.0294 -0.3855 -0.1152
  378MOL0     C50933   5.746   3.312   8.907 -0.8395 -0.0456  0.6523
  378MOL0     C50934   5.867   3.398   8.900 -0.5260  0.6804  0.7515
  378MOL0     C50935   5.892   3.488   9.022 -0.3779 -0.6389 -0.1723
  378MOL0     C50936   6.041   3.534   9.027  0.2855 -1.0613  0.4502
  378MOL0     C50937   6.076   3.641   9.129 -0.9345 -0.4220 -0.1926
  378MOL0     C50938   6.190   3.746   9.094 -0.0873  0.3278 -0.9238
  378MOL0     C50939   6.133   3.884   9.089  0.3171 -0.5129 -0.1755
  378MOL0    Cl50940   6.256   3.996   9.032 -0.2152 -0.3000  0.0274
  378MOL0     C50941   5.827   2.983   8.815 -0.6796 -0.8647 -0.1957
  378MOL0     C50942   5.905   2.861   8.778  0.7813  0.9373 -0.2438
  378MOL0     O50943   5.867   2.637   8.616 -0.6350 -0.0329 -0.0505
  378MOL0     C50944   6.025   2.443   8.499 -0.5527 -0.5268 -0.0629
  378MOL0     C50945   6.096   2.330   8.448 -0.1808 -0.4566  0.3476
  378MOL0     N50946   6.767   2.218   8.240 -0.4206  0.3081 -0.5750
  378MOL0     N50947   6.888   2.241   8.204  0.1218  0.3064 -0.6383
  378MOL0     C50948   7.922   2.052   7.694 -0.2967 -0.9988 -0.4161
  378MOL0     C50949   8.022   1.964   7.740  0.1709  0.3127 -0.1469
  378MOL0     C50950   8.220   1.700   8.076  1.0901 -0.1942 -0.4234
  378MOL0     C50951   8.207   1.576   8.130 -0.7639 -0.0419 -0.0067
  378MOL0     C50952   8.320   1.533   8.199 -0.1073  1.2321  0.8448
  378MOL0     C50953   8.443   1.589   8.206  0.6423 -0.4682  0.1037
  378MOL0     O50954   8.545   1.537   8.279  0.2029 -0.0429 -0.3540
  378MOL0     C50955   8.668   1.607   8.309  0.8226  0.1416 -0.0880
  378MOL0     C50956   8.781   1.539   8.242 -0.2755  0.6674  1.0252
  378MOL0     C50957   8.790   1.562   8.090 -0.0806 -0.3607  0.2033
  378MOL0     C50958   8.880   1.677   8.049 -0.3377 -0.3339  0.8186
  378MOL0     C50959   9.026   1.653   8.069  0.3615 -0.7144  0.1473
  378MOL0     C50960   9.142   1.637   8.091  0.1112 -0.7959  0.6990
  378MOL0     C50961   8.450   1.714   8.146 -0.3186  0.4140 -0.4351
  378MOL0     C50962   8.341   1.770   8.085 -0.1403  0.2281 -0.4375
  378MOL0     H50963   7.922   1.939   8.066 -0.7562 -1.0576 -0.5697
  378MOL0     H50964   7.745   2.099   7.981  0.1659  0.3630  0.1135
  378MOL0     H50965   7.719   2.191   7.533 -1.3969 -1.3814 -1.2937
  378MOL0     H50966   7.640   2.065   7.617  0.3678  0.0187 -0.8960
  378MOL0     H50967   7.535   2.351   7.607  0.2594  0.5773 -2.6580
  378MOL0     H50968   7.469   2.223   7.504  0.1374 -1.9368  0.7062
  378MOL0     H50969   7.330   2.259   7.672  0.1190 -0.6630 -2.8614
  378MOL0     H50970   7.403   2.098   7.714 -2.0126  0.7165  3.3530
  378MOL0     H50971   7.506   2.182   7.905  0.4059  0.7419  0.6796
  378MOL0     H50972   7.483   2.356   7.853 -1.9585  0.4765  0.9865
  378MOL0     H50973   7.331   2.279   8.029 -0.0243 -0.7985  0.0370
  378MOL0     H50974   7.269   2.366   7.890  0.4887  0.8530  0.8102
  378MOL0     H50975   7.180   2.118   7.819 -0.7460 -2.8930  0.9918
  378MOL0     H50976   7.259   2.062   7.958  1.6432  1.3848 -0.4918
  378MOL0     H50977   7.053   2.280   7.981 -1.7377 -0.5216  1.8251
  378MOL0     H50978   7.002   2.119   7.947 -0.4989 -1.3813  2.4177
  378MOL0     H50979   7.152   2.213   8.197  0.5910 -1.0300 -0.4655
  378MOL0     H50980   7.147   2.039   8.155  0.3864  0.1931 -0.9504
  378MOL0     H50981   6.910   1.919   8.204  3.5189  0.9703  0.0409
  378MOL0     H50982   6.560   2.016   8.176  1.2233 -0.2935 -1.2586
  378MOL0     H50983   6.647   1.893   8.269  1.2009  0.1407  0.7333
  378MOL0     H50984   6.533   2.162   8.382 -2.8055 -1.0397  1.3903
  378MOL0     H50985   6.627   2.048   8.473  0.0780 -0.0111 -0.4809
  378MOL0     H50986   6.437   1.886   8.468 -0.1492  0.5946  1.9643
  378MOL0     H50987   6.369   1.967   8.325  1.4653 -0.1691 -0.1677
  378MOL0     H50988   6.412   2.138   8.561  0.9161 -0.6124 -0.7412
  378MOL0     H50989   6.292   2.012   8.592  1.0249 -0.2526  1.3960
  378MOL0     H50990   6.250   2.226   8.723  2.2025  2.3769  0.9257
  378MOL0     H50991   6.202   2.340   8.911  0.3206  2.5979  3.6258
  378MOL0     H50992   6.198   2.514   8.884 -1.0189  0.9403 -3.6484
  378MOL0     H50993   6.045   2.425   8.905 -2.1327  1.6909 -2.3426
  378MOL0     H50994   5.810   2.667   9.025  2.7986 -0.7692 -1.3776
  378MOL0     H50995   5.689   2.868   9.097 -3.7181 -0.7939 -1.9310
  378MOL0     H50996   5.732   3.236   9.097  2.3780  2.3265 -0.3798
  378MOL0     H50997   5.870   3.166   9.007 -0.1647 -1.3087 -0.8126
  378MOL0     H50998   5.736   3.277   8.803  0.3675 -1.5795  1.0220
  378MOL0     H50999   5.664   3.377   8.939 -1.2967 -0.4001  0.2156
  378MOL0     H51000   5.867   3.463   8.812  3.5430  2.0594  1.5414
  378MOL0     H51001   5.956   3.334   8.899 -1.2557 -0.3594 -0.4697
  378MOL0     H51002   5.823   3.573   9.013  0.8465  0.2930 -0.9615
  378MOL0     H51003   5.871   3.439   9.117 -0.4762  1.7823  1.1334
  378MOL0     H51004   6.059   3.581   8.930  0.0075  1.7131  1.6333
  378MOL0     H51005   6.112   3.453   9.043  1.0587 -0.9222 -1.8329
  378MOL0     H51006   5.983   3.697   9.131 -1.4440 -1.2749  1.1102
  378MOL0     H51007   6.091   3.594   9.227 -0.4840  1.3058  0.6105
  378MOL0     H51008   6.249   3.718   9.006 -0.5458  0.5850 -1.3189
  378MOL0     H51009   6.266   3.736   9.172  0.8425  0.5295 -1.7753
  378MOL0     H51010   6.102   3.913   9.190  0.5838 -0.0389 -0.2310
  378MOL0     H51011   6.043   3.887   9.027 -0.1722  0.6889  0.5591
  378MOL0     H51012   5.838   3.072   8.755  1.6718 -0.2500  1.0085
  378MOL0     H51013   5.974   2.868   8.695 -0.8895  1.0925 -1.6732
  378MOL0     H51014   5.961   2.506   8.438 -0.2060  0.4998  0.6113
  378MOL0     H51015   6.078   2.305   8.344  2.0311  0.1351 -0.2054
  378MOL0     H51016   7.916   2.082   7.590 -1.2901  2.0778  0.4457
  378MOL0     H51017   8.102   1.921   7.680  0.4713  0.3026  0.2584
  378MOL0     H51018   8.127   1.505   8.108  0.1264 -0.7815 -0.9234
  378MOL0     H51019   8.317   1.438   8.251  0.0829  1.0621  0.5475
  378MOL0     H51020   8.661   1.713   8.285  0.2395 -0.0299 -0.6708
  378MOL0     H51021   8.670   1.593   8.418  0.0831 -1.6985 -0.2749
  378MOL0     H51022   8.773   1.432   8.259  1.3494  0.4953  0.9254
  378MOL0     H51023   8.868   1.561   8.305 -1.6106  0.0425  3.1919
  378MOL0     H51024   8.689   1.578   8.049  0.5415  0.6005 -1.0008
  378MOL0     H51025   8.825   1.470   8.044  0.5693 -0.0999  0.1719
  378MOL0     H51026   8.841   1.768   8.096  1.8506  1.5904 -0.8732
  378MOL0     H51027   8.869   1.685   7.941  1.1128  3.0116  0.7962
  378MOL0     H51028   9.243   1.621   8.124 -0.3300 -0.9064  2.0500
  378MOL0     H51029   8.539   1.776   8.142  0.7756 -0.8859  1.8446
  378MOL0     H51030   8.355   1.872   8.052 -4.5250  1.2280  0.1262
  379MOL0     O51031   7.894   6.332   4.755  0.3659  0.2217  0.5108
  379MOL0     C51032   7.824   6.353   4.653  0.5940 -0.5688  0.0024
  379MOL0     O51033   7.688   6.369   4.661 -0.4024 -0.0041 -0.1355
  379MOL0     C51034   7.629   6.326   4.779  0.2498  0.2783  1.4124
  379MOL0     C51035   7.520   6.391   4.818  0.1358  0.5529 -0.3596
  379MOL0     C51036   7.447   6.339   4.931  0.0732 -0.0097  0.1466
  379MOL0     C51037   7.474   6.219   4.996 -0.5670  0.7318  0.3404
  379MOL0     O51038   7.415   6.182   5.113 -0.2523  0.5025  0.4127
  379MOL0     C51039   7.364   6.047   5.116  0.5922  0.6455 -0.1312
  379MOL0     C51040   7.337   6.021   5.260 -0.1271  0.5432 -0.1064
  379MOL0     C51041   7.233   6.115   5.330  0.0165 -0.7201  0.3361
  379MOL0     C51042   7.103   6.106   5.246 -0.3284  0.1832  0.2748
  379MOL0     C51043   6.978   6.153   5.321  0.6391  0.6643 -0.0980
  379MOL0     C51044   6.854   6.156   5.222 -0.7888  0.2041  0.0314
  379MOL0     C51045   6.731   6.224   5.278 -0.4175  0.0044 -0.0423
  379MOL0     C51046   6.659   6.136   5.390 -0.2119 -0.0932  0.4530
  379MOL0     N51047   6.523   6.180   5.429 -0.5348  0.3652 -0.5472
  379MOL0     C51048   6.487   6.217   5.551  0.4427  0.8295  0.3229
  379MOL0     C51049   6.352   6.228   5.540  0.4616  0.2657 -0.5147
  379MOL0     C51050   6.260   6.237   5.661  0.6289 -0.5923  0.4928
  379MOL0     C51051   6.204   6.368   5.683  0.0988 -0.4306  1.3248
  379MOL0     C51052   6.077   6.353   5.767 -0.3102  0.6693  0.2742
  379MOL0     C51053   5.996   6.479   5.800  0.7788  0.0557 -0.1876
  379MOL0     O51054   6.066   6.584   5.863 -0.8757 -0.2307  1.0525
  379MOL0     C51055   5.999   6.698   5.885 -0.4219 -0.1610 -0.3702
  379MOL0     C51056   5.859   6.710   5.904  0.4504 -0.5924 -0.2005
  379MOL0     C51057   5.797   6.836   5.926 -0.7018  0.1400 -1.0004
  379MOL0     C51058   5.653   6.846   5.947 -0.5718 -0.7261 -0.7448
  379MOL0     C51059   5.887   6.952   5.943 -0.5362 -0.5570  0.1143
  379MOL0     C51060   5.843   7.086   5.982 -0.5189 -0.2819  0.5092
  379MOL0     O51061   5.721   7.103   6.027  0.4759  0.3732  0.5179
  379MOL0     C51062   5.668   7.226   6.067 -1.1324  0.0544 -0.4298
  379MOL0     C51063   5.678   7.262   6.199 -0.1704  0.2369 -0.1201
  379MOL0     C51064   5.626   7.395   6.247 -0.5523  0.7878  0.4687
  379MOL0     C51065   5.548   7.466   6.167  0.2770 -0.3619 -0.7990
  379MOL0     O51066   5.482   7.581   6.197 -0.9496  0.2460 -0.6026
  379MOL0     C51067   5.373   7.591   6.278 -0.0663  0.5442  0.3293
  379MOL0     C51068   5.359   7.733   6.318 -0.6051 -0.1037 -0.0683
  379MOL0     C51069   5.470   7.761   6.417 -0.3788  0.2944 -0.6587
  379MOL0     C51070   5.417   7.869   6.515 -0.7897 -0.3428  0.3271
  379MOL0     C51071   5.513   7.966   6.592  0.1624  0.1433  0.3798
  379MOL0     C51072   5.625   7.886   6.657 -0.2030 -0.5916 -0.1817
  379MOL0     C51073   5.746   7.977   6.685 -1.0526 -0.2390 -0.1842
  379MOL0     C51074   5.821   7.933   6.802 -1.0681  0.1588 -0.9993
  379MOL0    Cl51075   5.876   7.762   6.784  0.3694  0.2048 -0.1473
  379MOL0     C51076   5.542   7.430   6.032  0.1981 -0.1645 -0.4275
  379MOL0     C51077   5.597   7.314   5.979 -0.1295  0.4171  0.2543
  379MOL0     O51078   5.926   7.178   5.968 -1.1322  0.1003 -0.1023
  379MOL0     C51079   6.030   6.929   5.942  0.5344 -0.4500 -0.0488
  379MOL0     C51080   6.079   6.802   5.917 -0.4121 -0.5707 -0.6048
  379MOL0     N51081   6.310   6.221   5.414  0.2640 -0.1694  0.6997
  379MOL0     N51082   6.417   6.194   5.346 -0.0677  0.0150  0.2208
  379MOL0     C51083   7.579   6.146   4.943  0.1379 -0.2865 -0.2468
  379MOL0     C51084   7.656   6.207   4.838 -0.0282 -0.9469 -0.1867
  379MOL0     C51085   7.881   6.394   4.528 -0.0796 -1.0156  0.0397
  379MOL0     C51086   7.792   6.440   4.425  0.9603  0.4919 -0.2840
  379MOL0     C51087   7.837   6.490   4.303  0.4593 -0.3142  0.2647
  379MOL0     C51088   7.982   6.504   4.290  0.2749  0.4159 -0.6740
  379MOL0     O51089   8.043   6.542   4.171  0.2664 -1.2817  0.1030
  379MOL0     C51090   7.958   6.566   4.051 -0.4220  0.2167  0.8695
  379MOL0     C51091   8.053   6.570   3.927  0.3690  0.2491 -0.4026
  379MOL0     C51092   7.995   6.589   3.783 -0.0787  1.0304 -0.8296
  379MOL0     C51093   7.924   6.471   3.717 -0.6804  0.1128  0.1453
  379MOL0     C51094   7.794   6.454   3.773  0.3013 -0.1114 -0.1202
  379MOL0     C51095   7.680   6.453   3.810  0.5172  0.2288 -0.5215
  379MOL0     C51096   8.069   6.458   4.390 -0.4219  0.1713 -0.5676
  379MOL0     C51097   8.023   6.396   4.507  0.2723  0.7121  0.2001
  379MOL0     H51098   7.495   6.484   4.768  5.5338  0.1654 -4.8377
  379MOL0     H51099   7.377   6.410   4.974 -1.2482 -2.6274  2.6973
  379MOL0     H51100   7.270   6.036   5.060 -0.3711  0.6564  1.4187
  379MOL0     H51101   7.437   5.973   5.083  0.3308 -0.2482  1.2024
  379MOL0     H51102   7.297   5.919   5.261 -0.6495  0.6998 -1.6488
  379MOL0     H51103   7.433   6.021   5.313 -0.5494 -0.0565  0.6735
  379MOL0     H51104   7.212   6.086   5.433 -3.3022 -0.0883 -0.0313
  379MOL0     H51105   7.271   6.216   5.339 -1.1090 -0.2710  0.2473
  379MOL0     H51106   7.111   6.178   5.164 -1.7366 -2.4380 -2.3793
  379MOL0     H51107   7.093   6.004   5.208  0.2687  1.4324 -3.7070
  379MOL0     H51108   6.965   6.077   5.398  1.0119 -2.3191 -2.7338
  379MOL0     H51109   6.987   6.250   5.370 -2.7631 -0.1185  2.4273
  379MOL0     H51110   6.891   6.204   5.131 -0.7319  0.1104  0.0048
  379MOL0     H51111   6.832   6.053   5.192 -0.5602  0.0628  0.3368
  379MOL0     H51112   6.768   6.321   5.313 -0.6465  0.7158 -1.7129
  379MOL0     H51113   6.658   6.246   5.200 -0.5294  1.1869  0.3680
  379MOL0     H51114   6.718   6.128   5.482  1.7524  3.2865 -0.3408
  379MOL0     H51115   6.651   6.033   5.352 -1.3540 -0.4440  1.5743
  379MOL0     H51116   6.549   6.228   5.639 -1.6063  1.5993  1.7409
  379MOL0     H51117   6.184   6.159   5.650 -2.3100  1.6824  2.7461
  379MOL0     H51118   6.304   6.204   5.756 -0.6413 -0.0556  1.2874
  379MOL0     H51119   6.171   6.402   5.584 -0.0198 -3.7165  0.1141
  379MOL0     H51120   6.278   6.433   5.732 -2.2491  1.8834  2.0376
  379MOL0     H51121   6.099   6.291   5.855 -0.6128  0.0270 -0.1000
  379MOL0     H51122   6.010   6.286   5.714 -1.7789 -0.4674  3.3431
  379MOL0     H51123   5.916   6.444   5.866  1.1858  0.1036  0.3412
  379MOL0     H51124   5.943   6.517   5.712 -1.1259  0.9236  1.2478
  379MOL0     H51125   5.792   6.626   5.896 -0.6490  0.2263  0.2396
  379MOL0     H51126   5.612   6.922   5.879  2.8716  1.2569 -0.8186
  379MOL0     H51127   5.602   6.751   5.931  0.2892 -0.9519 -2.3566
  379MOL0     H51128   5.636   6.861   6.054  0.8469  2.1678 -0.8259
  379MOL0     H51129   5.722   7.188   6.265 -2.8092  1.2122  3.0146
  379MOL0     H51130   5.632   7.423   6.352  0.2142  1.3836  0.2714
  379MOL0     H51131   5.285   7.569   6.217  1.2823 -1.9699 -0.8836
  379MOL0     H51132   5.374   7.524   6.364 -0.1813  0.4625  0.2679
  379MOL0     H51133   5.365   7.806   6.236  0.3858  2.8733  2.4370
  379MOL0     H51134   5.259   7.753   6.358 -0.1198  1.2411  0.5488
  379MOL0     H51135   5.564   7.783   6.364 -0.3964  0.1076 -0.7703
  379MOL0     H51136   5.488   7.670   6.476 -2.4647 -0.1845 -0.6859
  379MOL0     H51137   5.346   7.930   6.459 -0.8551 -0.5544  0.1765
  379MOL0     H51138   5.349   7.817   6.585 -1.3143  0.6484  0.5697
  379MOL0     H51139   5.464   8.031   6.665 -0.3433 -0.8814  0.9731
  379MOL0     H51140   5.547   8.032   6.511 -0.7272 -0.2853 -0.3681
  379MOL0     H51141   5.589   7.837   6.748 -3.8141  1.7507 -0.1462
  379MOL0     H51142   5.646   7.810   6.580  1.5375 -2.0830  1.6637
  379MOL0     H51143   5.710   8.080   6.687 -2.1627 -0.6248  0.5166
  379MOL0     H51144   5.804   7.963   6.593 -0.7032 -0.1907  0.0276
  379MOL0     H51145   5.769   7.942   6.898  1.8952 -0.1364  0.7557
  379MOL0     H51146   5.915   7.988   6.812 -2.6143  3.1866 -1.9275
  379MOL0     H51147   5.494   7.493   5.957 -0.4299 -1.5258 -1.2112
  379MOL0     H51148   5.588   7.292   5.873 -0.4246  1.4662  0.0440
  379MOL0     H51149   6.098   7.011   5.958 -0.6704  1.1246 -2.3211
  379MOL0     H51150   6.186   6.782   5.920  0.4764  3.4649  0.1645
  379MOL0     H51151   7.620   6.054   4.983 -3.0621 -1.8506 -0.2874
  379MOL0     H51152   7.735   6.153   4.787 -1.3285 -1.2596 -1.9501
  379MOL0     H51153   7.686   6.447   4.449  1.5170  1.5080  2.1287
  379MOL0     H51154   7.760   6.537   4.242 -1.7124 -1.9457  1.5715
  379MOL0     H51155   7.882   6.492   4.021  0.2866  0.8941 -3.0083
  379MOL0     H51156   7.914   6.666   4.056 -1.2667 -0.0405 -0.7087
  379MOL0     H51157   8.103   6.473   3.939  1.8061  1.2608  2.9108
  379MOL0     H51158   8.137   6.636   3.947 -0.2265  0.7527  0.5146
  379MOL0     H51159   8.081   6.627   3.727  3.9306 -0.7585  3.4444
  379MOL0     H51160   7.923   6.671   3.794  0.6235  1.4972  0.4752
  379MOL0     H51161   7.985   6.381   3.729  0.0687  0.3390 -1.6884
  379MOL0     H51162   7.910   6.492   3.611  0.1226  0.8184  0.1727
  379MOL0     H51163   7.582   6.458   3.851  1.3202  0.2996  1.4974
  379MOL0     H51164   8.177   6.472   4.384  0.2980 -2.5518  2.6444
  379MOL0     H51165   8.091   6.371   4.587  1.3878 -2.0318 -1.4456
  380MOL0     O51166   4.918   4.054   9.706  0.0969 -0.0242 -0.5362
  380MOL0     C51167   4.918   4.134   9.799  0.4634 -0.3438 -0.1772
  380MOL0     O51168   4.805   4.175   9.863  0.3576 -0.3528  0.1129
  380MOL0     C51169   4.680   4.134   9.823 -0.0661  0.2328 -0.3085
  380MOL0     C51170   4.614   4.036   9.899 -0.6441  0.1769  0.2962
  380MOL0     C51171   4.485   3.994   9.858 -0.3440  0.0582 -0.2331
  380MOL0     C51172   4.422   4.046   9.748 -0.0660  0.6624 -0.8612
  380MOL0     O51173   4.304   3.986   9.714 -0.1904  0.2421 -0.3703
  380MOL0     C51174   4.217   4.046   9.616  0.3872  0.0004 -0.1022
  380MOL0     C51175   4.092   3.975   9.617 -0.2261 -0.0234  0.3540
  380MOL0     C51176   4.008   4.009   9.744  0.4938  0.0185 -0.0396
  380MOL0     C51177   3.854   3.981   9.732  0.3278 -0.4970  0.3286
  380MOL0     C51178   3.782   4.075   9.840  0.1529 -0.4295 -0.5576
  380MOL0     C51179   3.842   4.050   9.978 -0.3000 -0.1020 -0.0585
  380MOL0     C51180   3.758   4.132  10.083  0.1359  0.1605  0.6260
  380MOL0     C51181   3.771   4.284  10.066 -0.1947 -0.6213  1.3902
  380MOL0     N51182   3.671   4.350  10.147 -0.6629  0.0284  0.0777
  380MOL0     C51183   3.531   4.354  10.133 -0.1370  0.7733 -1.0733
  380MOL0     C51184   3.486   4.449  10.217  0.3746  0.1992  0.0303
  380MOL0     C51185   3.345   4.504  10.216  0.2825  0.2145  0.0916
  380MOL0     C51186   3.320   4.603  10.100 -0.2825 -0.1767  0.6556
  380MOL0     C51187   3.187   4.676  10.123  1.0175 -0.1955  0.1654
  380MOL0     C51188   3.061   4.582  10.132 -0.7011  0.3895 -0.1786
  380MOL0     O51189   3.076   4.471  10.036 -0.4727 -1.2187 -0.6583
  380MOL0     C51190   2.970   4.404   9.995 -0.1434  0.0998  0.8743
  380MOL0     C51191   2.996   4.310   9.897  0.4661 -0.4197  0.1763
  380MOL0     C51192   2.890   4.234   9.847  0.1158 -0.4096  0.0229
  380MOL0     C51193   2.935   4.133   9.742  0.4509  0.6064  0.3565
  380MOL0     C51194   2.757   4.252   9.886  0.2639 -0.4773 -0.1460
  380MOL0     C51195   2.636   4.193   9.821 -1.2587 -0.9907  0.4464
  380MOL0     O51196   2.526   4.165   9.900 -0.5431  0.3784 -0.5946
  380MOL0     C51197   2.417   4.112   9.846  0.0979  0.1345 -0.0155
  380MOL0     C51198   2.385   3.974   9.861  0.3918  1.1450  0.0261
  380MOL0     C51199   2.261   3.929   9.811 -0.5259  0.4659 -0.0371
  380MOL0     C51200   2.171   4.011   9.746 -0.3873  0.5249  0.2448
  380MOL0     O51201   2.044   3.975   9.692  0.0763  0.3666 -0.3811
  380MOL0     C51202   1.967   3.880   9.757  0.3428  0.6835  0.3226
  380MOL0     C51203   1.821   3.913   9.741 -0.2336  0.2125 -0.3172
  380MOL0     C51204   1.757   3.856   9.608 -0.4410  0.0953 -0.6873
  380MOL0     C51205   1.625   3.931   9.583 -0.0004 -0.2661  0.5504
  380MOL0     C51206   1.562   3.863   9.459 -1.0471 -0.1198  0.3475
  380MOL0     C51207   1.449   3.949   9.407  0.4530  0.2411 -0.5240
  380MOL0     C51208   1.492   4.086   9.344 -0.2781  0.2498 -0.0370
  380MOL0     C51209   1.377   4.165   9.288 -0.8880  0.1262  0.9533
  380MOL0    Cl51210   1.276   4.229   9.422  0.1934 -0.6092 -0.1374
  380MOL0     C51211   2.206   4.147   9.738 -0.5884 -0.3875 -0.6269
  380MOL0     C51212   2.325   4.197   9.794  1.0594  0.2061 -0.2536
  380MOL0     O51213   2.642   4.176   9.704 -0.1627  0.4905  0.4464
  380MOL0     C51214   2.733   4.345   9.982 -0.3124 -0.7012 -0.5807
  380MOL0     C51215   2.837   4.425  10.034 -1.0159 -0.0238  0.6251
  380MOL0     N51216   3.595   4.513  10.279 -0.0253 -0.5130 -0.4317
  380MOL0     N51217   3.704   4.455  10.236 -0.7233 -0.5167 -0.4650
  380MOL0     C51218   4.478   4.157   9.685 -0.4500  0.5007  0.4515
  380MOL0     C51219   4.612   4.205   9.723  0.7708  0.1978  0.0291
  380MOL0     C51220   5.043   4.204   9.831 -0.4557  1.0916  0.2387
  380MOL0     C51221   5.167   4.142   9.790  0.3049  0.6447 -0.0557
  380MOL0     C51222   5.291   4.191   9.828  0.2247  0.3951 -0.0042
  380MOL0     C51223   5.300   4.316   9.885 -0.4326 -0.5431  0.8663
  380MOL0     O51224   5.409   4.389   9.921 -0.0536 -0.3469 -0.6383
  380MOL0     C51225   5.538   4.329   9.908  0.2919 -0.3697 -0.4749
  380MOL0     C51226   5.644   4.411   9.982  0.3852 -0.3410  0.1282
  380MOL0     C51227   5.650   4.551   9.914  1.0298 -0.8234 -0.4986
  380MOL0     C51228   5.750   4.666   9.957 -0.4611  0.0741 -0.4618
  380MOL0     C51229   5.720   4.741  10.080 -0.6571 -0.3051 -0.1402
  380MOL0     C51230   5.697   4.824  10.170 -0.2658  0.5703  0.3674
  380MOL0     C51231   5.178   4.387   9.903 -0.4369 -0.8629  0.4950
  380MOL0     C51232   5.051   4.334   9.888  0.4596 -0.4914  0.2872
  380MOL0     H51233   4.672   3.991   9.978  0.5555 -0.8522 -1.1142
  380MOL0     H51234   4.427   3.920   9.913 -0.7822  0.2613 -0.4192
  380MOL0     H51235   4.211   4.149   9.652 -2.4704 -0.7338  1.8076
  380MOL0     H51236   4.263   4.039   9.517  2.0959  0.2296  0.6252
  380MOL0     H51237   4.041   3.985   9.521  1.3581 -4.2452 -1.1654
  380MOL0     H51238   4.119   3.869   9.613 -2.0089 -0.5625  1.2264
  380MOL0     H51239   4.050   3.962   9.833 -0.0087  1.2243  0.8706
  380MOL0     H51240   4.025   4.115   9.762  1.8997 -0.0228 -1.0209
  380MOL0     H51241   3.811   3.995   9.633 -1.6960  0.7325  1.3230
  380MOL0     H51242   3.840   3.875   9.755  2.4405 -0.4504  2.1818
  380MOL0     H51243   3.784   4.180   9.811 -0.4730 -0.7728 -1.9335
  380MOL0     H51244   3.675   4.051   9.846  0.1221 -0.9169 -2.4887
  380MOL0     H51245   3.833   3.943   9.998 -2.6573 -0.3618 -2.1168
  380MOL0     H51246   3.946   4.085   9.987  0.4524 -1.2357 -3.2327
  380MOL0     H51247   3.651   4.116  10.065  0.7009 -1.7736 -1.4532
  380MOL0     H51248   3.780   4.091  10.182 -2.8668 -0.9294  0.9482
  380MOL0     H51249   3.781   4.320   9.963  0.5769 -2.2438  0.8780
  380MOL0     H51250   3.865   4.313  10.115 -0.8723  1.5478  1.5340
  380MOL0     H51251   3.473   4.299  10.059 -0.1125 -5.0740  2.6417
  380MOL0     H51252   3.281   4.416  10.213  1.6307 -0.7706 -0.5213
  380MOL0     H51253   3.329   4.560  10.309  0.1087  1.0342 -0.4184
  380MOL0     H51254   3.310   4.552  10.003 -2.0477 -0.8270  1.1318
  380MOL0     H51255   3.395   4.679  10.077  0.4922 -1.0952  0.0873
  380MOL0     H51256   3.173   4.728  10.027 -0.3894  0.6963  0.8215
  380MOL0     H51257   3.189   4.756  10.198 -1.8685 -2.2502  2.6812
  380MOL0     H51258   2.973   4.641  10.105 -1.3427 -1.0901 -1.4471
  380MOL0     H51259   3.054   4.537  10.232  0.8851 -0.5778 -0.4595
  380MOL0     H51260   3.099   4.283   9.875  0.4100 -1.8074  1.4429
  380MOL0     H51261   3.037   4.155   9.710  1.2001 -0.2788  2.0288
  380MOL0     H51262   2.922   4.029   9.772 -3.0377  0.3200 -1.6071
  380MOL0     H51263   2.877   4.132   9.649 -0.1652 -0.5954  0.7365
  380MOL0     H51264   2.452   3.903   9.908 -0.5866 -0.0699 -0.3469
  380MOL0     H51265   2.238   3.824   9.828  0.4674  0.3807  0.9330
  380MOL0     H51266   1.984   3.776   9.729  0.6284  0.7922  0.0828
  380MOL0     H51267   1.992   3.886   9.863 -2.1199  0.6151  0.9618
  380MOL0     H51268   1.767   3.852   9.815  0.4912 -3.5671 -2.6687
  380MOL0     H51269   1.798   4.020   9.745  0.9478  0.5081 -1.1621
  380MOL0     H51270   1.744   3.748   9.617  0.5174  0.0767  0.9046
  380MOL0     H51271   1.830   3.866   9.527  0.3065 -1.6716 -0.2898
  380MOL0     H51272   1.563   3.930   9.673  3.2991  0.4545  3.0557
  380MOL0     H51273   1.639   4.036   9.558  0.0113 -0.8851 -2.3061
  380MOL0     H51274   1.527   3.760   9.473 -1.6712 -0.0769 -0.7618
  380MOL0     H51275   1.633   3.867   9.376 -2.2567 -0.0436 -0.7113
  380MOL0     H51276   1.404   3.906   9.316  1.1512  1.4596 -1.4805
  380MOL0     H51277   1.381   3.962   9.492 -0.1036 -1.7098 -0.6187
  380MOL0     H51278   1.548   4.058   9.254 -1.5790 -1.8315 -0.2458
  380MOL0     H51279   1.537   4.156   9.416  0.0693 -0.4158  0.4021
  380MOL0     H51280   1.307   4.105   9.229 -0.8286 -2.1973  3.0822
  380MOL0     H51281   1.413   4.248   9.227  1.9252 -1.7291 -0.1176
  380MOL0     H51282   2.138   4.214   9.685  1.0387 -0.6295 -3.1960
  380MOL0     H51283   2.359   4.300   9.801  1.9009 -0.1952  3.0176
  380MOL0     H51284   2.632   4.378  10.005 -1.1379 -1.9476 -2.2113
  380MOL0     H51285   2.826   4.494  10.117 -1.1768  1.4795 -0.5837
  380MOL0     H51286   4.419   4.198   9.603 -1.6268 -1.5703  0.1691
  380MOL0     H51287   4.662   4.298   9.695  2.5337 -0.4962  0.7325
  380MOL0     H51288   5.169   4.046   9.740  2.9063  0.1424  0.8804
  380MOL0     H51289   5.382   4.137   9.805  0.1691  0.5428 -0.5737
  380MOL0     H51290   5.532   4.228   9.951  1.6201  0.6068  2.2779
  380MOL0     H51291   5.567   4.335   9.803  1.3878 -2.1966 -0.3240
  380MOL0     H51292   5.740   4.359   9.983 -0.1810 -1.4165  0.3780
  380MOL0     H51293   5.615   4.430  10.086 -2.5217 -0.7181 -0.5309
  380MOL0     H51294   5.551   4.597   9.924  1.6902  0.4718  0.3714
  380MOL0     H51295   5.667   4.542   9.806 -2.7884  1.2694 -1.4432
  380MOL0     H51296   5.752   4.744   9.879  0.7038 -0.4820 -1.0197
  380MOL0     H51297   5.850   4.627   9.979 -0.4409  0.8264  0.8826
  380MOL0     H51298   5.670   4.899  10.241 -0.9091  0.6805  0.0138
  380MOL0     H51299   5.187   4.491   9.933 -0.8754 -0.9350  0.8855
  380MOL0     H51300   4.967   4.403   9.897  2.6230  2.2813  0.6510
  381MOL0     O51301   5.681   1.458   1.378  0.3923 -0.7463 -0.1696
  381MOL0     C51302   5.649   1.455   1.261 -0.0024 -0.2115  0.5344
  381MOL0     O51303   5.550   1.524   1.206 -0.6033  0.7174  0.0463
  381MOL0     C51304   5.469   1.587   1.292  1.0012 -0.2444 -0.3917
  381MOL0     C51305   5.355   1.526   1.331 -0.0616  1.0839 -0.0299
  381MOL0     C51306   5.263   1.591   1.410  0.2799  1.4697 -0.6418
  381MOL0     C51307   5.294   1.723   1.461  0.0266  0.1501  0.2702
  381MOL0     O51308   5.216   1.804   1.547 -0.2877 -1.0397 -0.0072
  381MOL0     C51309   5.125   1.730   1.632 -0.7593  0.9079  0.1354
  381MOL0     C51310   5.073   1.790   1.762 -0.4512  0.1241 -0.1485
  381MOL0     C51311   5.182   1.780   1.877  0.2716 -0.4738  1.0667
  381MOL0     C51312   5.159   1.655   1.958  0.1017 -0.1673  0.2281
  381MOL0     C51313   5.251   1.637   2.078  0.2181 -1.1482  0.4281
  381MOL0     C51314   5.220   1.509   2.155  0.0922  0.3104  0.6130
  381MOL0     C51315   5.086   1.519   2.233 -0.0186  0.8360 -0.0577
  381MOL0     C51316   5.067   1.389   2.310  0.5927 -0.4195 -0.7393
  381MOL0     N51317   4.921   1.382   2.338  0.8872  0.0649  0.0023
  381MOL0     C51318   4.859   1.469   2.427  0.3713 -0.8956  0.7463
  381MOL0     C51319   4.730   1.422   2.447  0.6870  0.0983 -0.4856
  381MOL0     C51320   4.624   1.495   2.528 -0.1388  0.2588 -0.0923
  381MOL0     C51321   4.489   1.530   2.451  0.2362  0.7285 -0.2788
  381MOL0     C51322   4.508   1.623   2.325 -0.0603 -0.3683  0.3302
  381MOL0     C51323   4.415   1.590   2.209  0.1866  0.3916  0.0224
  381MOL0     O51324   4.464   1.632   2.083  0.3613 -0.3765  0.0926
  381MOL0     C51325   4.557   1.563   2.007  0.1880 -0.2490  0.3214
  381MOL0     C51326   4.579   1.599   1.879 -1.0964  0.9294  0.5603
  381MOL0     C51327   4.679   1.541   1.796  0.0439  0.0115  0.3529
  381MOL0     C51328   4.686   1.598   1.661  0.1884  0.2489  1.4490
  381MOL0     C51329   4.754   1.430   1.844 -0.5076  0.2238 -0.1232
  381MOL0     C51330   4.827   1.343   1.745  0.0534  0.7600 -0.2942
  381MOL0     O51331   4.811   1.206   1.768 -0.0371  0.0310 -0.4997
  381MOL0     C51332   4.866   1.113   1.682 -0.9021 -0.1583 -0.6225
  381MOL0     C51333   4.983   1.122   1.600  0.0084 -1.0246 -0.0008
  381MOL0     C51334   5.031   1.015   1.514  0.4628  0.5628  0.1705
  381MOL0     C51335   4.973   0.888   1.526  0.2089  0.4988  0.0417
  381MOL0     O51336   5.009   0.779   1.463  0.2168  0.2668 -0.1220
  381MOL0     C51337   5.130   0.768   1.394 -0.1331 -0.5077 -0.8802
  381MOL0     C51338   5.166   0.623   1.411 -0.1614 -1.4202  1.0869
  381MOL0     C51339   5.066   0.531   1.324  0.1278  0.3737 -0.5655
  381MOL0     C51340   5.118   0.380   1.323 -0.0318 -0.9152  0.2018
  381MOL0     C51341   5.074   0.315   1.448  0.7941 -0.8543 -0.4863
  381MOL0     C51342   5.098   0.166   1.423 -0.5447  0.1782  0.3060
  381MOL0     C51343   5.087   0.084   1.551  0.1640 -0.0993 -0.9769
  381MOL0     C51344   4.944   0.068   1.608  0.4130 -0.5511 -0.1940
  381MOL0    Cl51345   4.866   0.218   1.677 -0.4083 -0.7179 -0.0368
  381MOL0     C51346   4.859   0.870   1.602 -0.5833 -0.3620  0.3640
  381MOL0     C51347   4.811   0.983   1.680 -0.5669 -0.0379  0.5890
  381MOL0     O51348   4.909   1.397   1.664  0.1336  0.4203 -0.0330
  381MOL0     C51349   4.734   1.392   1.976  0.0303  0.1808 -0.6002
  381MOL0     C51350   4.639   1.454   2.053 -0.2771 -0.9326  0.2367
  381MOL0     N51351   4.709   1.316   2.360  0.6926  0.3757  0.2779
  381MOL0     N51352   4.820   1.297   2.300 -0.0182 -0.7643  1.0158
  381MOL0     C51353   5.410   1.788   1.410  0.2381 -0.5033 -1.4567
  381MOL0     C51354   5.488   1.730   1.318  0.0726 -0.1586  1.0378
  381MOL0     C51355   5.724   1.364   1.178  0.6400  0.2252 -0.1229
  381MOL0     C51356   5.862   1.350   1.206  0.9835  0.1249  0.5167
  381MOL0     C51357   5.944   1.293   1.100  0.0121 -0.1194 -1.0024
  381MOL0     C51358   5.886   1.240   0.986 -0.5992  0.0875 -1.2373
  381MOL0     O51359   5.967   1.180   0.884 -0.5321  0.3277 -0.2708
  381MOL0     C51360   6.084   1.242   0.835 -0.1529  1.1772 -0.7196
  381MOL0     C51361   6.166   1.132   0.767 -0.7580  0.0109  0.2531
  381MOL0     C51362   6.296   1.206   0.711  0.4523  0.6138  1.0047
  381MOL0     C51363   6.402   1.105   0.645  0.2250 -0.6931 -0.1628
  381MOL0     C51364   6.340   1.061   0.523  0.4843  0.2859  0.4409
  381MOL0     C51365   6.282   1.023   0.418  1.0824  0.6202  0.0907
  381MOL0     C51366   5.746   1.252   0.961 -0.4845  0.2371  0.1870
  381MOL0     C51367   5.664   1.315   1.056 -1.6412  0.3806 -0.5113
  381MOL0     H51368   5.342   1.422   1.303 -1.2835  1.2632 -0.1448
  381MOL0     H51369   5.174   1.542   1.449  1.3407  1.9081  2.7059
  381MOL0     H51370   5.037   1.708   1.572 -0.4789  1.1497 -0.3718
  381MOL0     H51371   5.169   1.636   1.666 -1.2324 -0.1538 -2.0122
  381MOL0     H51372   5.040   1.894   1.752  4.3411  1.9287  0.0065
  381MOL0     H51373   4.980   1.741   1.789 -0.8977  1.6521  1.2426
  381MOL0     H51374   5.283   1.783   1.837 -1.2068 -0.0688 -3.2203
  381MOL0     H51375   5.161   1.859   1.949 -1.1703  0.4751 -0.3089
  381MOL0     H51376   5.055   1.653   1.993 -0.8788  0.0038 -2.4639
  381MOL0     H51377   5.175   1.567   1.896  1.9987  1.4820 -1.7903
  381MOL0     H51378   5.356   1.617   2.051 -0.2083 -2.3667 -0.4185
  381MOL0     H51379   5.226   1.720   2.145 -2.9676 -0.0828 -1.8743
  381MOL0     H51380   5.221   1.417   2.095  1.6971  0.0583  0.9745
  381MOL0     H51381   5.308   1.491   2.218 -0.2650 -2.5916  0.4273
  381MOL0     H51382   5.072   1.610   2.291 -2.1776  1.0439 -0.8354
  381MOL0     H51383   5.007   1.517   2.158 -0.6669 -2.7917  0.5334
  381MOL0     H51384   5.123   1.383   2.404 -0.5830  0.0744  0.0153
  381MOL0     H51385   5.080   1.307   2.239  0.8900 -1.2195  0.2162
  381MOL0     H51386   4.901   1.553   2.481 -0.7640 -0.6870  1.3430
  381MOL0     H51387   4.600   1.438   2.618 -0.6234  2.3117  1.1539
  381MOL0     H51388   4.664   1.593   2.556  0.2224 -0.3360  1.5759
  381MOL0     H51389   4.418   1.571   2.523  0.5008 -2.1552  1.7822
  381MOL0     H51390   4.454   1.431   2.421  0.3616 -0.1850  2.3384
  381MOL0     H51391   4.610   1.616   2.287 -1.5305  0.7306 -4.4990
  381MOL0     H51392   4.492   1.725   2.360  2.0376 -0.3114  1.2608
  381MOL0     H51393   4.323   1.643   2.232 -0.1517  0.4335 -1.3055
  381MOL0     H51394   4.408   1.482   2.194  3.2273  0.2625 -1.3174
  381MOL0     H51395   4.519   1.684   1.849 -4.6792 -0.7982  2.1922
  381MOL0     H51396   4.650   1.700   1.649  1.8857  0.7650  0.4268
  381MOL0     H51397   4.790   1.615   1.631 -0.1260  4.1734  2.1008
  381MOL0     H51398   4.655   1.535   1.577  0.1667  1.0978  0.8171
  381MOL0     H51399   5.030   1.220   1.593 -0.2620 -0.9687 -4.7688
  381MOL0     H51400   5.119   1.030   1.452  1.6474  2.3313  2.1476
  381MOL0     H51401   5.142   0.810   1.293 -1.0859 -0.0225 -0.8059
  381MOL0     H51402   5.205   0.805   1.464  0.0356 -2.0006 -0.2489
  381MOL0     H51403   5.269   0.613   1.377 -0.2255  0.3533  0.2514
  381MOL0     H51404   5.168   0.594   1.516  2.7989 -0.9142  1.2285
  381MOL0     H51405   5.045   0.563   1.221  0.0449  0.5524 -0.4941
  381MOL0     H51406   4.970   0.546   1.374 -0.0375 -0.7884 -0.5118
  381MOL0     H51407   5.064   0.339   1.237 -2.9035  1.3705  0.7867
  381MOL0     H51408   5.228   0.378   1.322  0.1243  2.2007 -0.0980
  381MOL0     H51409   4.967   0.332   1.463  0.8424  0.6498 -1.5941
  381MOL0     H51410   5.129   0.359   1.531 -1.8253  1.5542  0.1154
  381MOL0     H51411   5.032   0.131   1.343 -2.2585 -1.3478  2.2694
  381MOL0     H51412   5.202   0.161   1.390 -0.5051 -1.2780  0.6001
  381MOL0     H51413   5.159   0.127   1.622  1.0841 -1.0225 -1.3289
  381MOL0     H51414   5.123  -0.015   1.521  2.8696  1.1513 -2.2651
  381MOL0     H51415   4.956  -0.005   1.689 -1.1808 -1.0404 -0.3635
  381MOL0     H51416   4.880   0.026   1.530  0.4102  0.9726 -1.0552
  381MOL0     H51417   4.790   0.788   1.622 -1.1530 -0.0524 -0.2916
  381MOL0     H51418   4.738   0.972   1.759 -1.6492 -0.5538 -0.4504
  381MOL0     H51419   4.779   1.302   2.015  1.1008  0.0962 -1.9542
  381MOL0     H51420   4.619   1.417   2.153  0.5340 -1.8257  0.0790
  381MOL0     H51421   5.424   1.892   1.438 -0.7766 -0.2183 -1.9855
  381MOL0     H51422   5.567   1.777   1.261  0.4443 -1.2102  0.6504
  381MOL0     H51423   5.897   1.390   1.300 -0.3987  0.1611  1.0437
  381MOL0     H51424   6.050   1.277   1.118  0.2074  1.4600 -0.6393
  381MOL0     H51425   6.058   1.315   0.758  0.7761 -0.7318 -2.9707
  381MOL0     H51426   6.146   1.281   0.916  0.3107 -1.8814  0.5295
  381MOL0     H51427   6.113   1.089   0.682  0.2581  0.4676 -0.6333
  381MOL0     H51428   6.190   1.055   0.841 -3.3793 -1.3353 -0.2065
  381MOL0     H51429   6.352   1.255   0.791  1.6834  1.4285 -0.3004
  381MOL0     H51430   6.270   1.291   0.647  1.3061  0.0080 -0.1908
  381MOL0     H51431   6.411   1.020   0.714  0.1091 -0.5904 -0.0207
  381MOL0     H51432   6.496   1.153   0.619 -0.2563  0.0784 -0.4921
  381MOL0     H51433   6.242   0.966   0.336 -2.6683  0.9143  1.5168
  381MOL0     H51434   5.700   1.217   0.869  1.0632 -0.9083 -0.1698
  381MOL0     H51435   5.558   1.316   1.032 -2.1141  0.3381  1.4076
  382MOL0     O51436   7.369   8.798   7.364 -0.5224 -0.7293 -0.3722
  382MOL0     C51437   7.423   8.789   7.254  1.4760 -0.0014 -0.2301
  382MOL0     O51438   7.362   8.801   7.132  0.1614  0.7468 -0.2964
  382MOL0     C51439   7.234   8.846   7.125 -0.4785  0.2146 -0.1892
  382MOL0     C51440   7.125   8.777   7.173 -0.3294  0.4654  0.0459
  382MOL0     C51441   6.996   8.796   7.132  0.9272 -0.3581  0.5971
  382MOL0     C51442   6.964   8.912   7.051 -0.4450 -0.2276 -0.8241
  382MOL0     O51443   6.841   8.948   7.017  0.9046 -0.2945  0.0392
  382MOL0     C51444   6.726   8.854   7.021 -0.2905 -0.1272  0.4072
  382MOL0     C51445   6.597   8.913   6.974 -0.5580  0.1574 -0.1918
  382MOL0     C51446   6.473   8.816   6.997 -0.4326 -1.0380  0.6113
  382MOL0     C51447   6.348   8.856   6.914 -0.2813 -0.4480  0.2086
  382MOL0     C51448   6.362   8.833   6.765  0.7335 -0.4809 -0.2438
  382MOL0     C51449   6.236   8.858   6.681 -0.1115  0.3189 -0.5903
  382MOL0     C51450   6.144   8.976   6.729  0.5594 -0.1127 -0.8317
  382MOL0     C51451   6.050   9.021   6.629 -0.3021 -0.7059  0.3780
  382MOL0     N51452   5.962   8.914   6.602  0.6413  0.7957 -0.8474
  382MOL0     C51453   5.834   8.895   6.662  1.1770 -0.3840 -0.5333
  382MOL0     C51454   5.777   8.804   6.586  0.1939 -0.0843  0.1393
  382MOL0     C51455   5.650   8.726   6.621 -0.4608 -0.4260 -0.0186
  382MOL0     C51456   5.535   8.813   6.673 -0.1417  0.0548 -0.7830
  382MOL0     C51457   5.403   8.739   6.649  0.5219  1.0043  0.1532
  382MOL0     C51458   5.278   8.829   6.650  0.1495  0.2122 -1.0063
  382MOL0     O51459   5.250   8.894   6.520  0.5244 -0.3911 -0.4093
  382MOL0     C51460   5.149   8.985   6.511  0.2792  0.4793  0.0948
  382MOL0     C51461   5.155   9.070   6.397  0.0036 -0.0188 -0.0532
  382MOL0     C51462   5.055   9.162   6.368  0.7171 -0.3021  0.2846
  382MOL0     C51463   5.090   9.264   6.255  0.6176 -0.3229 -0.0615
  382MOL0     C51464   4.941   9.175   6.457  0.4775 -0.0249 -0.1154
  382MOL0     C51465   4.827   9.265   6.434  0.0974  0.3771  0.0318
  382MOL0     O51466   4.728   9.278   6.533 -0.0274  0.0456  0.2876
  382MOL0     C51467   4.617   9.346   6.486 -0.3692 -0.1340 -0.3301
  382MOL0     C51468   4.612   9.487   6.494  0.2960  0.4363 -0.2026
  382MOL0     C51469   4.505   9.557   6.440  0.1820  0.0771  0.8212
  382MOL0     C51470   4.392   9.485   6.387 -0.2834  0.3733 -1.3716
  382MOL0     O51471   4.296   9.559   6.325 -0.2622  0.3800  0.7264
  382MOL0     C51472   4.169   9.494   6.308 -0.0183 -1.5054 -0.7940
  382MOL0     C51473   4.063   9.589   6.258  0.1142  0.7108  0.0005
  382MOL0     C51474   3.949   9.513   6.185  1.0510  0.0112 -1.0145
  382MOL0     C51475   3.829   9.593   6.141  0.7003  0.4307  0.5888
  382MOL0     C51476   3.751   9.642   6.262  0.8001  0.4849  0.7943
  382MOL0     C51477   3.658   9.517   6.305  0.0301 -0.4407  0.2065
  382MOL0     C51478   3.548   9.551   6.404 -0.6064 -0.3158 -0.4497
  382MOL0     C51479   3.427   9.640   6.353 -0.2992  0.3026 -0.4530
  382MOL0    Cl51480   3.373   9.742   6.492 -0.2445  0.2423  0.0810
  382MOL0     C51481   4.396   9.342   6.394 -0.1717  0.9534  0.5202
  382MOL0     C51482   4.507   9.274   6.445  0.5614 -0.2133  0.3166
  382MOL0     O51483   4.819   9.322   6.320 -0.8804 -0.4375 -0.4552
  382MOL0     C51484   4.944   9.100   6.580  0.1945 -0.4384 -0.1979
  382MOL0     C51485   5.041   9.004   6.604 -0.3390 -0.0309  0.1343
  382MOL0     N51486   5.868   8.764   6.484  0.2638 -0.6768 -0.5706
  382MOL0     N51487   5.978   8.830   6.496 -0.1760 -0.4531 -0.2388
  382MOL0     C51488   7.079   8.999   7.017  0.7091  0.3099 -0.2407
  382MOL0     C51489   7.212   8.959   7.043 -0.5966  0.0513 -0.1398
  382MOL0     C51490   7.567   8.785   7.243 -0.1594 -0.2969 -0.7462
  382MOL0     C51491   7.619   8.727   7.125  0.4849 -0.0332 -0.0342
  382MOL0     C51492   7.759   8.709   7.105  0.4955  0.4885 -0.0579
  382MOL0     C51493   7.847   8.753   7.203 -0.4286  0.3328  0.4944
  382MOL0     O51494   7.984   8.733   7.196  0.7852  0.1401  0.4572
  382MOL0     C51495   8.036   8.636   7.107 -0.6367  0.4615 -0.0851
  382MOL0     C51496   8.185   8.603   7.138 -0.0033 -0.3156  0.3511
  382MOL0     C51497   8.225   8.550   7.278 -0.3941 -0.3420 -0.6359
  382MOL0     C51498   8.330   8.444   7.265 -0.2598  0.1016 -0.7155
  382MOL0     C51499   8.450   8.468   7.193 -0.1819  0.5602  0.2128
  382MOL0     C51500   8.560   8.479   7.139 -0.1489 -1.0365  0.0052
  382MOL0     C51501   7.793   8.808   7.325 -0.6034  1.6877 -0.2354
  382MOL0     C51502   7.656   8.817   7.345 -0.6538 -0.4614  0.6523
  382MOL0     H51503   7.138   8.684   7.228 -1.8317  1.2192  1.7669
  382MOL0     H51504   6.919   8.724   7.157  0.4996 -0.3596 -0.6550
  382MOL0     H51505   6.748   8.768   6.957 -1.2375 -0.0965  0.0235
  382MOL0     H51506   6.717   8.810   7.121 -3.0584  0.2147  0.3692
  382MOL0     H51507   6.593   9.015   7.013 -1.1277  0.0391  0.0746
  382MOL0     H51508   6.615   8.914   6.866  0.3770 -2.3524 -0.1215
  382MOL0     H51509   6.507   8.715   6.975  1.3400 -0.8087  2.1060
  382MOL0     H51510   6.456   8.824   7.105  0.6299  1.6304  0.6611
  382MOL0     H51511   6.263   8.789   6.933  1.0468 -2.4304 -0.5785
  382MOL0     H51512   6.322   8.960   6.935 -0.6474 -0.7947  1.5617
  382MOL0     H51513   6.437   8.909   6.740  0.2325  0.5190  1.1524
  382MOL0     H51514   6.409   8.738   6.738  0.3210 -0.1218 -2.3858
  382MOL0     H51515   6.255   8.887   6.577 -1.9816  2.5072 -0.4126
  382MOL0     H51516   6.184   8.762   6.686  0.7540 -0.0944  0.7570
  382MOL0     H51517   6.089   8.938   6.815  0.2392 -3.0346 -2.2142
  382MOL0     H51518   6.206   9.064   6.752 -1.9258  1.2772  1.0881
  382MOL0     H51519   6.097   9.058   6.538 -0.0631  1.5748  1.3664
  382MOL0     H51520   5.988   9.101   6.669 -1.3691 -1.4895  0.3414
  382MOL0     H51521   5.776   8.936   6.743 -0.0751  1.4869 -2.2687
  382MOL0     H51522   5.622   8.670   6.531  1.0533 -1.0823 -0.1161
  382MOL0     H51523   5.683   8.661   6.702 -0.3635  2.1334  2.1211
  382MOL0     H51524   5.535   8.918   6.644 -1.1179 -0.1517 -1.5784
  382MOL0     H51525   5.551   8.817   6.781  1.9554 -0.8326 -1.0244
  382MOL0     H51526   5.397   8.661   6.725  0.2436 -2.3273 -2.9995
  382MOL0     H51527   5.410   8.689   6.551 -0.7906 -1.5703  1.2762
  382MOL0     H51528   5.291   8.903   6.730  1.3469  0.2447 -1.2144
  382MOL0     H51529   5.185   8.781   6.683 -2.3818  5.4691  0.6611
  382MOL0     H51530   5.245   9.060   6.339  0.6841  2.6959  0.4287
  382MOL0     H51531   5.057   9.367   6.275 -1.9922 -0.9282 -0.8897
  382MOL0     H51532   5.197   9.276   6.238  0.3682  0.8931 -0.9216
  382MOL0     H51533   5.038   9.236   6.163  0.7804  0.9052 -0.5547
  382MOL0     H51534   4.701   9.532   6.537  1.8624 -0.8929 -1.9329
  382MOL0     H51535   4.507   9.664   6.423 -1.8626 -0.1191 -1.0897
  382MOL0     H51536   4.183   9.418   6.230  0.5009 -1.1676 -1.0366
  382MOL0     H51537   4.145   9.448   6.405 -1.7979 -0.1128 -0.5062
  382MOL0     H51538   4.019   9.638   6.346  1.8748 -0.9384  1.9205
  382MOL0     H51539   4.101   9.669   6.194 -1.3650 -0.1489 -2.0738
  382MOL0     H51540   3.898   9.442   6.251 -0.9138  0.5818 -1.8294
  382MOL0     H51541   4.003   9.460   6.106  4.8399  0.5812  0.9673
  382MOL0     H51542   3.857   9.676   6.076 -0.1110 -0.2925 -0.7230
  382MOL0     H51543   3.758   9.537   6.079 -0.1811  2.1539 -0.0529
  382MOL0     H51544   3.682   9.722   6.231 -0.4014 -0.6383  0.4956
  382MOL0     H51545   3.805   9.671   6.353  1.6427  1.0594  0.1270
  382MOL0     H51546   3.602   9.476   6.221 -1.5677  0.0843  0.9867
  382MOL0     H51547   3.723   9.440   6.347  2.1406  0.5273 -1.0822
  382MOL0     H51548   3.601   9.584   6.494  0.1144 -0.0243 -0.9710
  382MOL0     H51549   3.507   9.455   6.438 -2.4200 -0.0008 -1.6041
  382MOL0     H51550   3.353   9.566   6.324  1.3545 -1.9031  0.6341
  382MOL0     H51551   3.453   9.709   6.272 -2.9906  0.4732 -1.2372
  382MOL0     H51552   4.307   9.282   6.379 -0.0293  0.4483  1.5483
  382MOL0     H51553   4.538   9.173   6.419  0.6394 -1.0660  3.3301
  382MOL0     H51554   4.868   9.104   6.658 -1.3631  0.0227 -1.6864
  382MOL0     H51555   5.043   8.942   6.694  2.5520  0.2304  0.3491
  382MOL0     H51556   7.047   9.092   6.969 -3.7276 -0.6181  0.5126
  382MOL0     H51557   7.304   9.010   7.017  0.2796 -0.1617  2.3432
  382MOL0     H51558   7.561   8.676   7.049  2.1938 -3.9304  1.0294
  382MOL0     H51559   7.783   8.692   7.000 -2.8323 -0.8815 -0.7333
  382MOL0     H51560   7.986   8.540   7.117  0.2410  0.0462  0.4987
  382MOL0     H51561   8.031   8.677   7.006 -1.6209  2.9238  0.8850
  382MOL0     H51562   8.227   8.704   7.143  0.4942 -0.4663 -0.6149
  382MOL0     H51563   8.246   8.561   7.058  2.4776  0.1416  1.9137
  382MOL0     H51564   8.133   8.505   7.314 -1.3757  0.4215 -2.0760
  382MOL0     H51565   8.265   8.634   7.336 -2.1491  0.1297 -0.0418
  382MOL0     H51566   8.285   8.353   7.224  1.8327  0.6878 -4.7857
  382MOL0     H51567   8.364   8.424   7.367 -0.3661  4.6693  0.4412
  382MOL0     H51568   8.649   8.506   7.086  0.1734 -3.2493 -0.7032
  382MOL0     H51569   7.865   8.834   7.401  0.6166 -0.6690 -0.5004
  382MOL0     H51570   7.612   8.851   7.438 -0.8985  0.3599  0.2451
  383MOL0     O51571   4.140  10.427   7.972 -0.6810 -0.0158  0.8900
  383MOL0     C51572   4.149  10.313   7.919 -0.6869  0.7302  0.1664
  383MOL0     O51573   4.223  10.200   7.970 -0.6981  0.4473 -0.0440
  383MOL0     C51574   4.316  10.227   8.074  0.2969 -0.2752  0.6224
  383MOL0     C51575   4.285  10.282   8.194  0.1574 -0.4276  0.0071
  383MOL0     C51576   4.371  10.315   8.300 -0.2137  0.7122 -0.5417
  383MOL0     C51577   4.501  10.291   8.285 -0.5647 -0.7203 -1.0046
  383MOL0     O51578   4.597  10.316   8.386  0.8235 -0.2403  0.0882
  383MOL0     C51579   4.566  10.422   8.480 -0.5516 -0.2167 -0.5704
  383MOL0     C51580   4.513  10.354   8.613  0.2208  0.6611  0.9073
  383MOL0     C51581   4.585  10.228   8.675  0.2903 -0.0808 -0.4253
  383MOL0     C51582   4.519  10.167   8.802  0.3523 -0.1128 -0.3891
  383MOL0     C51583   4.523  10.245   8.928 -0.4724 -0.5360 -0.5984
  383MOL0     C51584   4.429  10.199   9.038 -0.5462  0.0704 -0.1637
  383MOL0     C51585   4.289  10.254   9.026  0.1651  0.4578  0.0484
  383MOL0     C51586   4.199  10.200   8.912  0.0817 -0.1797  0.0818
  383MOL0     N51587   4.054  10.222   8.925  0.3579  0.5194 -0.1319
  383MOL0     C51588   3.963  10.122   8.917 -0.8032 -0.5130  0.7301
  383MOL0     C51589   3.843  10.180   8.930 -0.4701  0.6379 -0.2066
  383MOL0     C51590   3.706  10.113   8.947  0.4887 -0.3119  0.5198
  383MOL0     C51591   3.623  10.122   8.822 -0.2850 -0.9221 -0.0746
  383MOL0     C51592   3.615  10.257   8.745  0.2738 -0.3454 -0.6720
  383MOL0     C51593   3.498  10.268   8.665 -0.2861  0.5287  0.0391
  383MOL0     O51594   3.465  10.160   8.578  0.1981  0.0790  0.2485
  383MOL0     C51595   3.348  10.159   8.508 -0.7388  1.0069  0.0473
  383MOL0     C51596   3.343  10.043   8.430 -0.3187 -0.1985 -0.1198
  383MOL0     C51597   3.226  10.013   8.361 -0.1644  0.2288  1.2923
  383MOL0     C51598   3.211   9.880   8.273  0.0707  0.3925  0.4161
  383MOL0     C51599   3.117  10.106   8.371  0.2313  0.1049 -0.1501
  383MOL0     C51600   3.001  10.105   8.278 -0.6716  0.5958 -0.0420
  383MOL0     O51601   2.889  10.154   8.335  0.7903 -0.7824  0.7680
  383MOL0     C51602   2.789  10.205   8.262 -0.1826 -0.0328 -0.4758
  383MOL0     C51603   2.726  10.321   8.317 -0.4606 -0.5820 -0.1061
  383MOL0     C51604   2.611  10.377   8.262  0.0662  0.2146  0.5094
  383MOL0     C51605   2.552  10.322   8.148 -0.2747 -0.2969  0.5252
  383MOL0     O51606   2.447  10.390   8.087  0.1781 -0.4318 -0.2890
  383MOL0     C51607   2.349  10.313   8.015  0.1178 -1.1429 -0.0383
  383MOL0     C51608   2.246  10.408   7.961 -0.1568 -0.1589  0.1709
  383MOL0     C51609   2.108  10.343   7.934 -0.6184 -0.9467 -0.5403
  383MOL0     C51610   2.007  10.430   7.863  0.2679  1.2512  0.0443
  383MOL0     C51611   1.859  10.382   7.865 -1.0558  2.1564  0.8179
  383MOL0     C51612   1.773  10.425   7.752 -0.8273  1.2108 -0.2427
  383MOL0     C51613   1.759  10.575   7.752  0.3490 -0.7115  0.0730
  383MOL0     C51614   1.630  10.630   7.683 -0.1730 -0.4409 -0.2324
  383MOL0    Cl51615   1.491  10.589   7.784  0.5729  0.2511  0.5097
  383MOL0     C51616   2.603  10.196   8.101  1.0790 -0.1985 -0.1442
  383MOL0     C51617   2.724  10.141   8.160  0.2423  0.2122  0.4532
  383MOL0     O51618   3.017  10.068   8.167  0.0986 -0.5293 -0.1643
  383MOL0     C51619   3.115  10.218   8.454 -0.1345  0.4673 -0.1335
  383MOL0     C51620   3.235  10.247   8.523 -0.7199 -0.1321 -0.8531
  383MOL0     N51621   3.862  10.318   8.928 -0.5144  0.0266 -0.8043
  383MOL0     N51622   3.990  10.340   8.922  0.2847 -0.5071  0.0868
  383MOL0     C51623   4.544  10.231   8.159  0.2922 -0.4373 -0.4612
  383MOL0     C51624   4.452  10.205   8.053 -0.3656  0.4808  0.3525
  383MOL0     C51625   4.073  10.295   7.795 -0.2052 -1.3257 -0.8902
  383MOL0     C51626   4.093  10.181   7.725 -0.4999  0.7520  1.2004
  383MOL0     C51627   4.018  10.145   7.610 -0.0373  0.6085  0.5309
  383MOL0     C51628   3.904  10.219   7.574 -0.0523 -0.1414  0.0702
  383MOL0     O51629   3.818  10.192   7.464  0.2603  0.5802  0.1124
  383MOL0     C51630   3.826  10.062   7.391 -0.8522  0.5117 -0.0133
  383MOL0     C51631   3.682  10.018   7.359 -0.4763  0.4163  0.2522
  383MOL0     C51632   3.676   9.880   7.295 -0.4038 -0.2700 -0.0571
  383MOL0     C51633   3.536   9.825   7.291  0.2853 -0.0247  0.0279
  383MOL0     C51634   3.519   9.767   7.421  0.3903  0.2818 -0.2068
  383MOL0     C51635   3.492   9.700   7.514  0.4573  0.8515 -0.4176
  383MOL0     C51636   3.897  10.349   7.632  0.9122 -0.3619  0.5398
  383MOL0     C51637   3.980  10.386   7.744  0.9031  0.0221  0.2792
  383MOL0     H51638   4.182  10.297   8.225  0.6657  0.1965  1.4739
  383MOL0     H51639   4.340  10.367   8.390 -0.9600 -0.1944 -0.2529
  383MOL0     H51640   4.657  10.465   8.522 -3.0769  3.1554  2.1158
  383MOL0     H51641   4.504  10.509   8.455  2.1117  1.2416 -2.6744
  383MOL0     H51642   4.487  10.420   8.697 -1.2349 -0.9915  1.8212
  383MOL0     H51643   4.415  10.313   8.588  0.2504 -1.2637  3.5067
  383MOL0     H51644   4.596  10.146   8.604 -2.4771 -0.6188 -0.3565
  383MOL0     H51645   4.682  10.269   8.706 -0.3257  1.7889 -0.8169
  383MOL0     H51646   4.414  10.142   8.781  0.4487 -0.6146 -0.2937
  383MOL0     H51647   4.572  10.073   8.820  3.3660  1.4132 -0.6254
  383MOL0     H51648   4.626  10.239   8.964 -0.3350 -1.6027 -1.1538
  383MOL0     H51649   4.507  10.350   8.899  0.0015 -0.7392 -1.6439
  383MOL0     H51650   4.453  10.094   9.055  1.7381  0.6006  0.1496
  383MOL0     H51651   4.468  10.250   9.126 -0.8487  2.4566 -1.3142
  383MOL0     H51652   4.236  10.219   9.115 -0.9582  3.1975  0.5464
  383MOL0     H51653   4.301  10.362   9.026 -0.1568  0.5009 -0.5040
  383MOL0     H51654   4.207  10.091   8.909 -3.7265 -0.6156  1.2889
  383MOL0     H51655   4.236  10.242   8.817  0.9691 -1.5941 -0.2340
  383MOL0     H51656   3.970  10.014   8.919 -2.0650 -0.6533  4.2237
  383MOL0     H51657   3.713  10.006   8.965  2.8160 -0.7199 -2.1170
  383MOL0     H51658   3.655  10.157   9.033 -2.2323 -3.3029  0.6116
  383MOL0     H51659   3.520  10.092   8.843 -0.8641  1.4486  0.7788
  383MOL0     H51660   3.649  10.043   8.751 -2.5254 -2.6049  0.8530
  383MOL0     H51661   3.700  10.267   8.677 -0.4201  0.0797 -1.4955
  383MOL0     H51662   3.628  10.349   8.803  0.8448 -1.3698  0.8862
  383MOL0     H51663   3.520  10.354   8.601  2.2751  0.2152  0.4158
  383MOL0     H51664   3.418  10.309   8.727  0.7594  1.7955  0.5765
  383MOL0     H51665   3.425   9.973   8.420  0.5546  1.0388 -2.4725
  383MOL0     H51666   3.116   9.830   8.295 -0.5174  0.9609 -0.7373
  383MOL0     H51667   3.204   9.897   8.165 -2.7310 -1.5767  0.1607
  383MOL0     H51668   3.288   9.809   8.305  3.1973  2.6511 -1.5377
  383MOL0     H51669   2.776  10.372   8.399  2.4126 -1.3474 -1.2509
  383MOL0     H51670   2.561  10.463   8.305  0.2344  0.8937 -0.6242
  383MOL0     H51671   2.381  10.260   7.925 -1.0666 -1.4223 -0.3037
  383MOL0     H51672   2.303  10.238   8.079 -1.0108 -0.0225  0.5010
  383MOL0     H51673   2.233  10.488   8.035  0.4878 -0.2687  0.4168
  383MOL0     H51674   2.277  10.450   7.865 -2.0504  1.7159  0.3035
  383MOL0     H51675   2.082  10.313   8.036  2.2138 -4.9418 -0.7518
  383MOL0     H51676   2.116  10.255   7.871 -0.3833 -2.4628  1.4842
  383MOL0     H51677   1.987  10.529   7.905 -4.0897  0.6840 -0.1922
  383MOL0     H51678   2.041  10.442   7.760 -1.0436 -1.0360 -0.7195
  383MOL0     H51679   1.809  10.412   7.958  0.5545  0.5713  2.2499
  383MOL0     H51680   1.868  10.273   7.867  2.1233  2.3226  0.4055
  383MOL0     H51681   1.796  10.384   7.653 -0.9249  0.8215 -0.1078
  383MOL0     H51682   1.671  10.387   7.762 -0.1084 -2.1194 -3.2391
  383MOL0     H51683   1.846  10.622   7.707  0.4261 -0.6491  0.2839
  383MOL0     H51684   1.756  10.617   7.853  3.4053  1.1727 -0.5041
  383MOL0     H51685   1.619  10.591   7.582  1.4196  0.5828 -0.8380
  383MOL0     H51686   1.622  10.739   7.678 -1.9491 -0.3858  1.9941
  383MOL0     H51687   2.567  10.156   8.006 -1.7895  0.9059  0.3878
  383MOL0     H51688   2.757  10.047   8.118  0.0211  0.9097 -1.3795
  383MOL0     H51689   3.038  10.292   8.474  1.0548  1.5249  0.7256
  383MOL0     H51690   3.244  10.337   8.583  1.8273  0.0546 -1.4136
  383MOL0     H51691   4.647  10.202   8.143  0.7672  2.1007 -2.8136
  383MOL0     H51692   4.489  10.182   7.954 -1.1158  0.4067  0.0831
  383MOL0     H51693   4.176  10.114   7.744  0.4341  0.9065 -1.7335
  383MOL0     H51694   4.038  10.058   7.548  0.9481  2.1861 -1.4992
  383MOL0     H51695   3.892  10.058   7.305 -0.4186 -0.1602  0.3412
  383MOL0     H51696   3.860   9.985   7.460 -0.5267  0.6707  0.0036
  383MOL0     H51697   3.638  10.089   7.289 -1.1493 -0.6881 -0.4841
  383MOL0     H51698   3.625  10.022   7.453 -2.3871  0.6342 -0.8685
  383MOL0     H51699   3.751   9.825   7.352 -1.9293  0.7808  3.2086
  383MOL0     H51700   3.697   9.892   7.188 -2.7809  1.0973 -0.4472
  383MOL0     H51701   3.522   9.750   7.213 -1.5779  1.3910 -1.0972
  383MOL0     H51702   3.459   9.897   7.260  0.3878  0.4945  0.9524
  383MOL0     H51703   3.481   9.650   7.609 -0.3004  1.0033 -0.4170
  383MOL0     H51704   3.826  10.420   7.592 -0.4835 -1.0740  1.6803
  383MOL0     H51705   3.952  10.479   7.794  2.3820 -0.3110  1.8212
  384MOL0     O51706   9.307   0.899   2.400  0.2112 -0.4965  0.6280
  384MOL0     C51707   9.366   0.815   2.459 -0.4849  0.9129  0.5609
  384MOL0     O51708   9.314   0.699   2.525  0.3727 -0.2257 -0.6451
  384MOL0     C51709   9.188   0.676   2.555 -0.6594  0.0079  0.5077
  384MOL0     C51710   9.082   0.751   2.507 -0.0673  0.5216 -0.5907
  384MOL0     C51711   8.950   0.711   2.539  1.3677 -0.4324  0.2313
  384MOL0     C51712   8.927   0.599   2.612 -0.7299 -0.6119  0.4748
  384MOL0     O51713   8.796   0.562   2.617 -0.3035 -0.4771 -0.0212
  384MOL0     C51714   8.731   0.574   2.740 -0.2782  1.3960 -0.3221
  384MOL0     C51715   8.588   0.513   2.729 -0.2899  0.6836  0.4056
  384MOL0     C51716   8.584   0.362   2.701  0.2156 -0.0252 -0.8814
  384MOL0     C51717   8.614   0.275   2.828  0.3213 -0.5396  0.4291
  384MOL0     C51718   8.502   0.273   2.928  0.1101  0.7711 -0.1797
  384MOL0     C51719   8.544   0.190   3.051 -0.1927 -0.4972  0.3705
  384MOL0     C51720   8.444   0.186   3.169 -0.3302 -1.7112  0.0966
  384MOL0     C51721   8.309   0.133   3.113  0.5194 -0.5365 -0.1870
  384MOL0     N51722   8.198   0.152   3.204 -0.3796 -0.1865  0.6559
  384MOL0     C51723   8.188   0.109   3.331  0.1406  0.4943  0.4056
  384MOL0     C51724   8.069   0.149   3.378 -0.5381  0.5131  0.3365
  384MOL0     C51725   8.022   0.135   3.527  0.1352  0.0354  0.4142
  384MOL0     C51726   7.876   0.110   3.542  0.1972 -0.6189 -0.5968
  384MOL0     C51727   7.833  -0.038   3.507 -0.3661 -0.3261  0.5974
  384MOL0     C51728   7.686  -0.062   3.503 -0.1158 -0.0362 -0.7404
  384MOL0     O51729   7.630  -0.028   3.629  0.5706  0.8137 -0.6299
  384MOL0     C51730   7.494  -0.039   3.639  0.9179 -0.7893  0.0297
  384MOL0     C51731   7.445   0.060   3.721  0.5564 -0.6860 -0.0724
  384MOL0     C51732   7.312   0.076   3.748  0.5252 -0.2664  0.1565
  384MOL0     C51733   7.275   0.196   3.834 -0.6065 -0.4847  0.1888
  384MOL0     C51734   7.221  -0.013   3.680  0.3892 -0.4891 -0.6651
  384MOL0     C51735   7.075   0.011   3.692  0.3386 -0.0626 -0.1395
  384MOL0     O51736   7.011  -0.076   3.611 -0.6139 -0.1179  0.2747
  384MOL0     C51737   6.884  -0.060   3.573 -1.1292 -0.0073  0.8124
  384MOL0     C51738   6.848  -0.045   3.437  0.5901  0.1292 -0.2201
  384MOL0     C51739   6.706  -0.064   3.414  0.6162  0.1127 -0.4616
  384MOL0     C51740   6.616  -0.077   3.521 -0.0205 -0.3199  0.5253
  384MOL0     O51741   6.478  -0.096   3.504 -0.8418  0.0411 -0.2970
  384MOL0     C51742   6.412  -0.064   3.384  0.3305  0.5348  0.0136
  384MOL0     C51743   6.264  -0.019   3.389  0.0223 -0.0377  0.2862
  384MOL0     C51744   6.170  -0.125   3.440  0.2758 -0.0893  0.0951
  384MOL0     C51745   6.030  -0.091   3.389  0.9385  0.3838  0.1063
  384MOL0     C51746   5.928  -0.191   3.445 -1.0120 -0.1703 -0.2729
  384MOL0     C51747   5.920  -0.341   3.406  0.1083 -0.5174  0.1565
  384MOL0     C51748   5.829  -0.445   3.495 -0.3293  0.3344  0.0795
  384MOL0     C51749   5.859  -0.437   3.639  0.1429  0.9341 -0.1491
  384MOL0    Cl51750   6.030  -0.479   3.670 -0.0178 -0.0355 -0.3273
  384MOL0     C51751   6.659  -0.085   3.648 -0.4470  0.1662  0.1453
  384MOL0     C51752   6.800  -0.080   3.670  0.7293 -0.1130 -0.7462
  384MOL0     O51753   7.027   0.090   3.771  0.2266  0.4272  0.6578
  384MOL0     C51754   7.272  -0.110   3.582  0.0187 -0.1840 -0.3695
  384MOL0     C51755   7.409  -0.128   3.572  0.9602  0.7944 -0.1713
  384MOL0     N51756   8.004   0.212   3.274 -1.2620  0.1171  0.0115
  384MOL0     N51757   8.078   0.207   3.165 -0.7124  0.0008 -1.1551
  384MOL0     C51758   9.031   0.527   2.669  0.5167  0.5009 -0.2352
  384MOL0     C51759   9.159   0.566   2.638  0.6776 -0.2966 -0.5134
  384MOL0     C51760   9.518   0.823   2.465 -0.1219 -0.1974  0.3203
  384MOL0     C51761   9.595   0.722   2.526  0.9027  0.7520  0.4716
  384MOL0     C51762   9.729   0.708   2.522 -0.5957 -0.1002  0.3455
  384MOL0     C51763   9.793   0.815   2.457  0.1837  0.0576  0.4302
  384MOL0     O51764   9.932   0.807   2.447  0.3568 -0.3171 -0.1136
  384MOL0     C51765  10.022   0.894   2.360  0.0682  0.7606 -0.0035
  384MOL0     C51766  10.141   0.807   2.348  0.6438 -0.4266 -0.2090
  384MOL0     C51767  10.262   0.884   2.303  0.4525 -1.0779 -0.4159
  384MOL0     C51768  10.397   0.812   2.311  1.1014 -0.4470  0.6488
  384MOL0     C51769  10.395   0.724   2.200 -0.8043 -0.0122 -0.7698
  384MOL0     C51770  10.399   0.662   2.102 -0.3625  0.4708  0.1801
  384MOL0     C51771   9.723   0.914   2.391 -0.0865  0.4354 -0.5774
  384MOL0     C51772   9.585   0.921   2.394 -0.2196  0.1835  0.5110
  384MOL0     H51773   9.086   0.847   2.456  0.4878  1.1726  0.6378
  384MOL0     H51774   8.861   0.759   2.500  1.5460 -0.7469 -0.5856
  384MOL0     H51775   8.789   0.521   2.816  0.7772  1.8609 -0.7845
  384MOL0     H51776   8.715   0.677   2.774 -0.7425  0.9578  0.8212
  384MOL0     H51777   8.543   0.522   2.829  2.7928  0.3248  1.9628
  384MOL0     H51778   8.522   0.562   2.657 -1.1576  1.5495  1.7433
  384MOL0     H51779   8.480   0.341   2.674  0.1614 -4.2636  1.7651
  384MOL0     H51780   8.650   0.332   2.620  1.8460 -1.8425  1.0154
  384MOL0     H51781   8.632   0.175   2.789  1.0366  0.1979 -1.2596
  384MOL0     H51782   8.705   0.317   2.872  0.8022 -1.1896  0.0712
  384MOL0     H51783   8.472   0.368   2.972 -3.2126  0.4718 -1.5316
  384MOL0     H51784   8.412   0.234   2.879 -0.8459  1.0197  1.3134
  384MOL0     H51785   8.567   0.086   3.025 -1.5939 -1.0346  1.1997
  384MOL0     H51786   8.635   0.234   3.094 -1.7606  1.5500  1.7472
  384MOL0     H51787   8.493   0.130   3.250  0.0961  0.4092  1.3871
  384MOL0     H51788   8.438   0.287   3.210  5.5140 -1.7246  1.9757
  384MOL0     H51789   8.321   0.026   3.093 -1.0704 -0.5310 -1.4039
  384MOL0     H51790   8.273   0.181   3.021 -1.1807  0.4816  0.9741
  384MOL0     H51791   8.271   0.070   3.388  3.9639 -0.1770 -4.8117
  384MOL0     H51792   8.055   0.037   3.562 -0.4271 -1.1827 -2.2718
  384MOL0     H51793   8.074   0.214   3.582  1.5612 -1.3934  1.2307
  384MOL0     H51794   7.809   0.183   3.497 -0.6555 -1.6039 -0.9806
  384MOL0     H51795   7.845   0.121   3.646 -2.2280  0.8302 -1.3942
  384MOL0     H51796   7.894  -0.103   3.570  1.5128 -1.2878 -1.9844
  384MOL0     H51797   7.871  -0.046   3.404  1.4830  2.3706  0.9468
  384MOL0     H51798   7.668  -0.167   3.477 -0.3784  0.0702 -0.9964
  384MOL0     H51799   7.643   0.001   3.424 -0.2594  0.9615  0.1161
  384MOL0     H51800   7.513   0.123   3.777  1.3242 -1.1278 -0.4979
  384MOL0     H51801   7.204   0.154   3.906 -1.6248 -4.6928 -2.8645
  384MOL0     H51802   7.347   0.241   3.903 -1.3646  0.0189  0.6673
  384MOL0     H51803   7.218   0.274   3.784  0.3837  1.2019  1.5684
  384MOL0     H51804   6.908  -0.037   3.347  0.6223 -0.2547 -0.2325
  384MOL0     H51805   6.672  -0.070   3.312  1.0694  2.3942 -0.8135
  384MOL0     H51806   6.466   0.026   3.353 -1.6331  2.3232  1.4984
  384MOL0     H51807   6.418  -0.144   3.309  2.7557 -0.6944  1.3837
  384MOL0     H51808   6.249   0.071   3.448 -1.2743  0.3182 -0.5416
  384MOL0     H51809   6.228   0.017   3.293 -2.1416 -2.0691  0.2400
  384MOL0     H51810   6.176  -0.125   3.549 -1.0255 -1.6379  0.2102
  384MOL0     H51811   6.209  -0.221   3.408  2.4060  0.8496 -0.2868
  384MOL0     H51812   6.017   0.014   3.417  1.2569  0.1781  1.0680
  384MOL0     H51813   6.012  -0.099   3.282 -0.9175  1.6323  0.2817
  384MOL0     H51814   5.832  -0.149   3.415 -0.1369  0.0587 -3.0659
  384MOL0     H51815   5.932  -0.188   3.555 -2.0325  1.7719 -0.2451
  384MOL0     H51816   5.884  -0.347   3.303 -1.4214 -1.5137  0.7105
  384MOL0     H51817   6.020  -0.383   3.393  0.7517  0.8018  0.6767
  384MOL0     H51818   5.855  -0.548   3.468  0.7161  0.9305 -1.2993
  384MOL0     H51819   5.722  -0.427   3.481 -0.4530 -1.3502 -1.6583
  384MOL0     H51820   5.792  -0.495   3.703 -0.9319 -0.6286 -2.5653
  384MOL0     H51821   5.845  -0.334   3.673  1.9682  0.4538  2.4006
  384MOL0     H51822   6.579  -0.104   3.719 -0.7779 -3.1205 -0.9242
  384MOL0     H51823   6.834  -0.100   3.771 -1.4957 -2.3298 -0.3196
  384MOL0     H51824   7.203  -0.156   3.513  1.7940  0.2219 -2.5425
  384MOL0     H51825   7.440  -0.199   3.496 -1.6915  0.4792 -1.0410
  384MOL0     H51826   9.014   0.431   2.717  3.3815 -1.1690 -2.2381
  384MOL0     H51827   9.243   0.517   2.687  0.4754  2.9465  3.7165
  384MOL0     H51828   9.541   0.638   2.569  0.7257  0.9098  0.5594
  384MOL0     H51829   9.793   0.636   2.570 -1.8390 -1.2582  0.3339
  384MOL0     H51830   9.974   0.905   2.262 -0.8986 -2.5735 -0.0279
  384MOL0     H51831  10.042   0.993   2.402  1.3588  0.8717 -0.8280
  384MOL0     H51832  10.113   0.729   2.276 -2.5666  0.7214 -0.3814
  384MOL0     H51833  10.159   0.759   2.445  2.9093  1.8886  0.6240
  384MOL0     H51834  10.267   0.970   2.371  0.8488  0.1700 -1.9734
  384MOL0     H51835  10.249   0.933   2.206  2.7611  2.2067  0.7560
  384MOL0     H51836  10.401   0.762   2.408 -2.9153  0.0750  1.2794
  384MOL0     H51837  10.491   0.867   2.299  1.5925 -1.2687  0.6910
  384MOL0     H51838  10.396   0.620   2.004 -1.4600 -1.3458  0.9363
  384MOL0     H51839   9.793   0.979   2.341  4.8260 -3.6583  0.0758
  384MOL0     H51840   9.533   0.997   2.336  0.3324  0.4873  0.3985
  385MOL0     O51841   2.266   7.378   9.573  0.3511  0.1360 -0.1693
  385MOL0     C51842   2.279   7.433   9.684  0.4566  0.2812 -0.0355
  385MOL0     O51843   2.396   7.472   9.742  0.0190  0.6736 -0.1334
  385MOL0     C51844   2.519   7.439   9.687  0.3007 -0.3053 -0.1172
  385MOL0     C51845   2.620   7.523   9.730  0.3458 -0.7425 -0.3142
  385MOL0     C51846   2.755   7.501   9.699 -0.2219  0.3639  0.4914
  385MOL0     C51847   2.795   7.392   9.617 -0.3687 -0.2497  0.2880
  385MOL0     O51848   2.931   7.362   9.586 -0.6548  0.0267 -0.1433
  385MOL0     C51849   3.040   7.415   9.668 -0.0861 -0.9020  0.6772
  385MOL0     C51850   3.172   7.372   9.597 -0.0283  0.6204 -0.9847
  385MOL0     C51851   3.294   7.354   9.691 -0.0778 -0.4848 -0.8260
  385MOL0     C51852   3.409   7.340   9.591  0.8258  0.8510  0.6550
  385MOL0     C51853   3.537   7.286   9.659  0.3783  0.5400  0.4833
  385MOL0     C51854   3.660   7.298   9.565  0.6686  0.0767 -0.1175
  385MOL0     C51855   3.791   7.276   9.642  0.4247 -0.3385  0.8932
  385MOL0     C51856   3.908   7.217   9.552  0.5511 -0.5060 -0.4037
  385MOL0     N51857   3.883   7.074   9.503  0.1399 -0.3436 -0.7679
  385MOL0     C51858   3.941   7.008   9.407  0.2084 -0.8546  1.0476
  385MOL0     C51859   3.897   6.881   9.423  0.1009  0.0153  0.4125
  385MOL0     C51860   3.952   6.766   9.340 -0.3940  0.5071  0.7582
  385MOL0     C51861   3.898   6.751   9.203  0.1125  0.2734  0.6245
  385MOL0     C51862   3.746   6.701   9.211  0.2287 -0.1214  0.6010
  385MOL0     C51863   3.699   6.670   9.073 -0.3197 -0.9074  0.5001
  385MOL0     O51864   3.723   6.782   8.987 -0.4328  0.3288  0.0463
  385MOL0     C51865   3.631   6.793   8.885  0.3900 -0.4501 -0.4983
  385MOL0     C51866   3.552   6.902   8.871  0.1604 -0.4721  0.0373
  385MOL0     C51867   3.451   6.915   8.789  0.0671 -0.1644  0.3702
  385MOL0     C51868   3.366   7.044   8.801  0.4844 -0.3336  0.6751
  385MOL0     C51869   3.418   6.806   8.703  1.0875  0.2430  0.8898
  385MOL0     C51870   3.292   6.800   8.611  0.3023  0.3962 -0.0274
  385MOL0     O51871   3.275   6.683   8.539  0.4555 -0.3896 -0.5724
  385MOL0     C51872   3.156   6.664   8.467 -0.2812 -0.1279 -0.1753
  385MOL0     C51873   3.100   6.533   8.488  0.1266 -0.9258  0.7411
  385MOL0     C51874   2.973   6.511   8.442 -0.4266  0.0803  0.2595
  385MOL0     C51875   2.901   6.599   8.357 -0.3127 -0.1390  0.8231
  385MOL0     O51876   2.780   6.575   8.293 -0.6013  0.6414  0.0748
  385MOL0     C51877   2.712   6.453   8.340 -1.0061 -0.7142  0.0384
  385MOL0     C51878   2.638   6.484   8.471  0.0841 -0.1458 -0.4370
  385MOL0     C51879   2.512   6.400   8.468  0.3123 -0.4772  0.2109
  385MOL0     C51880   2.420   6.426   8.594 -0.2767  0.4513  0.5495
  385MOL0     C51881   2.309   6.321   8.585 -0.6034 -0.7667  0.4590
  385MOL0     C51882   2.192   6.353   8.678 -0.2514  0.0984 -0.3129
  385MOL0     C51883   2.095   6.227   8.690  0.4718  0.0778  1.2996
  385MOL0     C51884   2.034   6.194   8.828  0.3507  0.6762 -0.7935
  385MOL0    Cl51885   1.878   6.095   8.813 -0.3474 -0.7592 -0.0261
  385MOL0     C51886   2.967   6.721   8.337  1.3290 -0.2190  0.5351
  385MOL0     C51887   3.084   6.753   8.396 -0.9728 -0.9965  1.0322
  385MOL0     O51888   3.211   6.883   8.630 -0.5681 -0.4240  0.0898
  385MOL0     C51889   3.504   6.694   8.702  0.2515 -1.2189  0.0427
  385MOL0     C51890   3.611   6.690   8.794 -0.1575  0.8834 -0.8515
  385MOL0     N51891   3.808   6.874   9.525 -0.2543 -0.2011 -0.5921
  385MOL0     N51892   3.800   6.996   9.576 -0.8745  0.1164 -0.1104
  385MOL0     C51893   2.690   7.306   9.576  0.2856  0.0720  0.2947
  385MOL0     C51894   2.556   7.329   9.605  0.1425  0.0150  0.1549
  385MOL0     C51895   2.153   7.463   9.760 -0.0272 -0.4480  0.5215
  385MOL0     C51896   2.154   7.495   9.898 -0.4126 -0.6623  0.0370
  385MOL0     C51897   2.033   7.529   9.963  0.0378  0.6882 -0.2901
  385MOL0     C51898   1.906   7.505   9.902  0.2599 -0.3114 -0.0978
  385MOL0     O51899   1.788   7.519   9.967 -0.1569 -1.0513 -0.2662
  385MOL0     C51900   1.773   7.490  10.105  0.1302  0.7059 -0.4387
  385MOL0     C51901   1.624   7.507  10.125  0.6073  0.1812 -0.0063
  385MOL0     C51902   1.552   7.374  10.072  0.1881  0.0595  1.1454
  385MOL0     C51903   1.392   7.392  10.068  1.6749 -0.0731 -0.4413
  385MOL0     C51904   1.349   7.502   9.972 -0.2730  0.7920 -0.4778
  385MOL0     C51905   1.303   7.591   9.913  0.4723 -0.5194 -0.4665
  385MOL0     C51906   1.910   7.467   9.768 -0.1839 -0.6388 -0.2618
  385MOL0     C51907   2.033   7.460   9.696  0.4195 -0.1113  0.9479
  385MOL0     H51908   2.598   7.610   9.792  0.8471 -1.1058  0.3853
  385MOL0     H51909   2.825   7.579   9.729  2.1119 -0.2361 -2.7707
  385MOL0     H51910   3.046   7.521   9.693  2.9146 -0.8851  0.2400
  385MOL0     H51911   3.036   7.357   9.761 -0.3144  0.2076  1.3820
  385MOL0     H51912   3.158   7.286   9.531  1.2127 -0.3206 -0.0764
  385MOL0     H51913   3.186   7.458   9.531  4.3217 -0.2608 -1.5439
  385MOL0     H51914   3.292   7.445   9.751  0.0825 -1.7124  1.1030
  385MOL0     H51915   3.284   7.263   9.751 -2.7915 -0.6373 -1.3536
  385MOL0     H51916   3.375   7.265   9.519 -2.0075 -0.9539  3.5895
  385MOL0     H51917   3.427   7.431   9.534 -0.1636 -1.0543 -3.0113
  385MOL0     H51918   3.561   7.350   9.745  3.0561  1.6638 -0.9481
  385MOL0     H51919   3.516   7.184   9.692 -1.4487  0.9960  0.8129
  385MOL0     H51920   3.655   7.214   9.495  0.9645 -0.6100  0.6671
  385MOL0     H51921   3.653   7.398   9.520  1.7844  1.9387  3.5091
  385MOL0     H51922   3.822   7.365   9.698 -2.8096  0.4345  1.6747
  385MOL0     H51923   3.761   7.208   9.722 -1.6313 -1.2337 -0.5895
  385MOL0     H51924   3.994   7.204   9.617  1.2929  0.6420 -1.1143
  385MOL0     H51925   3.938   7.294   9.480 -0.1882 -0.0517 -0.2360
  385MOL0     H51926   4.017   7.048   9.339 -2.6425  2.7512 -0.3611
  385MOL0     H51927   4.059   6.790   9.342 -0.3668  0.6060 -0.8492
  385MOL0     H51928   3.924   6.675   9.393 -2.7373  1.4473  1.2396
  385MOL0     H51929   3.957   6.680   9.144 -0.2777  0.2365  0.2691
  385MOL0     H51930   3.915   6.848   9.155  1.5089 -0.3113 -0.1435
  385MOL0     H51931   3.670   6.765   9.256 -0.2753 -0.4245  0.1819
  385MOL0     H51932   3.749   6.612   9.274  1.3315  0.7579  1.8471
  385MOL0     H51933   3.591   6.652   9.084 -0.3219 -0.3322  1.5524
  385MOL0     H51934   3.736   6.578   9.029 -0.2309 -0.1338 -1.1344
  385MOL0     H51935   3.557   6.978   8.949 -3.0171 -2.0285  2.0251
  385MOL0     H51936   3.330   7.073   8.702 -0.4153 -2.6817  0.2480
  385MOL0     H51937   3.284   7.031   8.872 -0.6761  0.0411 -0.5464
  385MOL0     H51938   3.424   7.133   8.826 -3.2889  2.4924  0.3706
  385MOL0     H51939   3.154   6.471   8.559 -0.5865 -1.1120  1.1373
  385MOL0     H51940   2.918   6.424   8.475 -4.4845  0.8127 -3.6567
  385MOL0     H51941   2.643   6.432   8.257  0.2164 -0.8861 -0.9603
  385MOL0     H51942   2.765   6.358   8.342 -4.2025 -2.6916 -1.2021
  385MOL0     H51943   2.704   6.469   8.557  0.1998  4.1640  0.4250
  385MOL0     H51944   2.623   6.592   8.461  0.4005 -0.1937 -1.5633
  385MOL0     H51945   2.523   6.292   8.453 -0.2281 -1.0825  3.4217
  385MOL0     H51946   2.458   6.443   8.383  2.3022  1.3658 -0.1985
  385MOL0     H51947   2.475   6.406   8.686 -0.2933 -1.4570  0.1716
  385MOL0     H51948   2.374   6.525   8.604  0.3844  0.8099  0.1303
  385MOL0     H51949   2.355   6.225   8.612  0.9447  0.1550  1.2367
  385MOL0     H51950   2.269   6.333   8.483 -0.6387  2.6020  0.7477
  385MOL0     H51951   2.237   6.376   8.775  0.4933  0.4756 -0.7388
  385MOL0     H51952   2.131   6.435   8.640  0.7057  0.6650 -0.6721
  385MOL0     H51953   2.140   6.136   8.650 -1.8654 -1.5219  2.0584
  385MOL0     H51954   2.010   6.237   8.621  0.4433 -0.1201  1.3056
  385MOL0     H51955   2.030   6.287   8.885 -3.0328  1.0054 -1.3320
  385MOL0     H51956   2.093   6.124   8.887  0.3170  2.7210  1.8379
  385MOL0     H51957   2.905   6.798   8.293 -2.6473 -3.7298 -0.6900
  385MOL0     H51958   3.121   6.851   8.367 -1.5094 -1.2362 -0.5109
  385MOL0     H51959   3.489   6.605   8.642  0.1595 -0.9725 -0.3094
  385MOL0     H51960   3.681   6.608   8.784 -3.6981 -2.4339 -0.5570
  385MOL0     H51961   2.717   7.231   9.502 -2.9034  0.2548 -1.1933
  385MOL0     H51962   2.488   7.256   9.562  0.3825 -1.9539  2.9044
  385MOL0     H51963   2.251   7.505   9.945 -1.0781 -0.0719  1.3344
  385MOL0     H51964   2.044   7.559  10.067 -4.1719 -1.1331  0.8928
  385MOL0     H51965   1.818   7.394  10.133 -1.7087  0.4990  2.2196
  385MOL0     H51966   1.826   7.563  10.166 -0.1517  1.0500 -0.6033
  385MOL0     H51967   1.586   7.594  10.071  1.9032  1.1691  0.6419
  385MOL0     H51968   1.605   7.524  10.232 -0.0545 -0.0698 -0.0742
  385MOL0     H51969   1.582   7.286  10.129  1.7330 -3.3438 -4.2405
  385MOL0     H51970   1.595   7.345   9.976  0.7380 -0.1217  1.4427
  385MOL0     H51971   1.351   7.420  10.166 -0.0490  1.3965 -1.5083
  385MOL0     H51972   1.338   7.307  10.024 -0.3237  1.8070 -1.8287
  385MOL0     H51973   1.269   7.680   9.864  1.3442  1.5196  2.3565
  385MOL0     H51974   1.817   7.464   9.713 -1.2836  0.9706  1.3918
  385MOL0     H51975   2.018   7.455   9.588  0.9138  0.3760  0.8474
  386MOL0     O51976   2.999   4.180   1.848 -0.4213  0.3890  0.5816
  386MOL0     C51977   3.054   4.116   1.761 -0.6226  0.6049  0.0357
  386MOL0     O51978   3.008   4.095   1.639  0.4149  0.4994  0.7742
  386MOL0     C51979   2.904   4.170   1.592 -0.2342  0.4816  0.8661
  386MOL0     C51980   2.864   4.298   1.622  0.1834 -0.1888 -0.8705
  386MOL0     C51981   2.750   4.363   1.563 -0.2455 -0.1574  0.5734
  386MOL0     C51982   2.682   4.296   1.458 -0.5490 -0.0303 -0.7273
  386MOL0     O51983   2.561   4.334   1.401  1.1694  0.6904 -0.3293
  386MOL0     C51984   2.503   4.465   1.422  0.8028  0.1534 -0.4436
  386MOL0     C51985   2.355   4.489   1.392 -1.2962  0.8847 -0.2809
  386MOL0     C51986   2.277   4.373   1.458 -0.1226 -0.3672  0.5118
  386MOL0     C51987   2.143   4.346   1.389 -0.0532 -0.1978 -0.4853
  386MOL0     C51988   2.148   4.261   1.263 -0.8339 -0.2163  0.0086
  386MOL0     C51989   2.026   4.164   1.254 -0.3501 -0.3631 -0.4113
  386MOL0     C51990   2.045   4.035   1.335 -0.5329  0.2885  0.5973
  386MOL0     C51991   1.920   3.946   1.352  0.1517  0.8333  0.3419
  386MOL0     N51992   1.861   3.923   1.227 -0.2599  0.1209  0.3227
  386MOL0     C51993   1.740   3.979   1.184 -1.0125  0.0645 -0.3422
  386MOL0     C51994   1.708   3.912   1.077 -0.4435 -0.1109  0.0829
  386MOL0     C51995   1.590   3.906   0.990 -0.1912 -0.0947 -0.7208
  386MOL0     C51996   1.450   3.892   1.061 -0.5166  0.0978 -1.1414
  386MOL0     C51997   1.333   3.932   0.968  0.2848 -0.3496 -0.5152
  386MOL0     C51998   1.185   3.926   1.028 -1.2723 -0.1350  0.4448
  386MOL0     O51999   1.094   3.949   0.932  0.3025  0.4204  0.4955
  386MOL0     C52000   0.968   3.900   0.953  0.4162  0.2004  0.2477
  386MOL0     C52001   0.905   3.837   0.844  0.0507  0.0554 -0.6509
  386MOL0     C52002   0.770   3.797   0.843  0.3273  0.2968 -0.6259
  386MOL0     C52003   0.710   3.720   0.717 -0.3947 -0.3088 -0.7121
  386MOL0     C52004   0.693   3.823   0.963  1.0470 -0.0710  0.2890
  386MOL0     C52005   0.551   3.780   0.986  0.5692  0.1786 -0.0518
  386MOL0     O52006   0.496   3.803   1.113  0.3236  0.2341  0.1352
  386MOL0     C52007   0.365   3.762   1.124 -0.4500 -0.2379  0.3992
  386MOL0     C52008   0.252   3.844   1.113  0.6406  0.0707  0.1477
  386MOL0     C52009   0.119   3.797   1.145 -0.2234 -0.7406  0.5577
  386MOL0     C52010   0.109   3.664   1.191  0.2435 -0.2270  0.8874
  386MOL0     O52011  -0.019   3.636   1.238  0.4611 -0.4417 -0.0657
  386MOL0     C52012  -0.077   3.519   1.178  0.3693 -0.6197 -1.3747
  386MOL0     C52013  -0.097   3.408   1.279 -0.1610  0.3464 -0.6921
  386MOL0     C52014  -0.176   3.452   1.409  0.0085 -0.1197  0.9336
  386MOL0     C52015  -0.264   3.338   1.460 -0.1966 -0.2134  0.0038
  386MOL0     C52016  -0.322   3.389   1.588 -0.8350  0.2036 -0.1776
  386MOL0     C52017  -0.350   3.270   1.682 -0.2089  0.3712 -0.1247
  386MOL0     C52018  -0.229   3.232   1.780  0.2529 -0.8691 -0.0068
  386MOL0     C52019  -0.264   3.122   1.873 -0.1390  0.1244  0.2445
  386MOL0    Cl52020  -0.127   3.079   1.980 -0.1095 -0.3912  0.1287
  386MOL0     C52021   0.222   3.579   1.205 -0.1041 -0.4714  0.1045
  386MOL0     C52022   0.351   3.632   1.177  0.3157  0.3176 -1.3634
  386MOL0     O52023   0.494   3.728   0.896  0.4593  0.2767  0.0973
  386MOL0     C52024   0.763   3.880   1.072  0.1724 -0.8119 -0.2805
  386MOL0     C52025   0.901   3.909   1.067  0.2965  0.4894  0.1802
  386MOL0     N52026   1.814   3.832   1.046  0.8169 -0.2550 -0.0846
  386MOL0     N52027   1.899   3.829   1.139 -0.3307 -0.8225  0.3327
  386MOL0     C52028   2.714   4.159   1.441 -0.3919  0.2898 -0.4043
  386MOL0     C52029   2.821   4.103   1.496 -0.2650  1.1188  0.6213
  386MOL0     C52030   3.194   4.093   1.793 -0.2703 -0.2027 -0.1029
  386MOL0     C52031   3.306   4.093   1.696  1.2994  0.0251 -0.3327
  386MOL0     C52032   3.432   4.073   1.739 -0.3954 -0.6197 -0.0219
  386MOL0     C52033   3.466   4.044   1.864 -0.7391 -0.3864 -0.3437
  386MOL0     O52034   3.592   4.050   1.900 -0.0042 -0.1839  0.1602
  386MOL0     C52035   3.636   4.038   2.038 -0.2300  0.8742 -0.0042
  386MOL0     C52036   3.776   4.082   2.068 -0.5042 -0.7247 -0.3625
  386MOL0     C52037   3.820   4.080   2.214  0.4933  0.9952  0.3544
  386MOL0     C52038   3.754   4.184   2.306 -0.0252  0.0179  0.7031
  386MOL0     C52039   3.789   4.322   2.258  0.0508 -0.5106 -0.6252
  386MOL0     C52040   3.804   4.434   2.213 -0.1487 -0.0025  0.5721
  386MOL0     C52041   3.361   4.027   1.953 -0.3193 -1.1209 -0.6188
  386MOL0     C52042   3.228   4.039   1.913  1.6329  0.1369 -0.2889
  386MOL0     H52043   2.915   4.349   1.702 -0.1955  1.8254 -1.8452
  386MOL0     H52044   2.712   4.457   1.603  0.1035  0.3769 -0.3344
  386MOL0     H52045   2.523   4.493   1.526  1.4073 -2.5929  0.2645
  386MOL0     H52046   2.557   4.541   1.366  0.3428  1.5047  0.8905
  386MOL0     H52047   2.330   4.591   1.422  0.7534  2.3054 -2.9331
  386MOL0     H52048   2.336   4.482   1.284  3.2503 -1.2798 -1.1896
  386MOL0     H52049   2.341   4.284   1.464 -0.7337 -0.7495  2.0708
  386MOL0     H52050   2.257   4.410   1.559 -0.7884  0.0279  0.2447
  386MOL0     H52051   2.085   4.289   1.463  0.7552 -1.9710 -1.1554
  386MOL0     H52052   2.094   4.442   1.371 -0.6985 -0.4386 -0.0600
  386MOL0     H52053   2.134   4.334   1.182 -1.4955  2.1924  2.1561
  386MOL0     H52054   2.238   4.202   1.248 -0.5128  0.2559  0.0543
  386MOL0     H52055   1.933   4.213   1.285 -0.1028 -0.0340 -0.1895
  386MOL0     H52056   2.023   4.128   1.151  1.1629 -0.3713 -0.4783
  386MOL0     H52057   2.124   3.974   1.289 -1.5852 -2.8273  2.6381
  386MOL0     H52058   2.079   4.074   1.432  0.5922  2.4650 -0.6030
  386MOL0     H52059   1.849   3.980   1.428  1.3846 -2.6629  3.3588
  386MOL0     H52060   1.949   3.852   1.401 -2.7249  0.1924  0.9806
  386MOL0     H52061   1.676   4.052   1.232 -4.2747 -2.7037 -0.1186
  386MOL0     H52062   1.590   3.987   0.916 -3.2004  0.6955 -0.0067
  386MOL0     H52063   1.596   3.817   0.927  2.5256 -1.4428  1.2525
  386MOL0     H52064   1.449   3.953   1.152 -1.3451  2.5555 -2.6776
  386MOL0     H52065   1.436   3.790   1.098 -0.7922  0.7701  0.7242
  386MOL0     H52066   1.340   3.876   0.874 -0.8691  0.7076 -1.2788
  386MOL0     H52067   1.341   4.040   0.949 -0.6223  0.0283  1.0532
  386MOL0     H52068   1.183   3.997   1.111 -0.9744  0.4763 -0.0531
  386MOL0     H52069   1.182   3.827   1.075  0.9188 -0.0162  0.9353
  386MOL0     H52070   0.966   3.825   0.756  3.0849  0.8693  1.1923
  386MOL0     H52071   0.780   3.708   0.634 -1.3504 -0.3375 -1.5210
  386MOL0     H52072   0.675   3.625   0.759 -2.8820  1.5573  1.8188
  386MOL0     H52073   0.628   3.780   0.678  1.4792  3.1607  0.2673
  386MOL0     H52074   0.263   3.946   1.078 -1.6848  0.1510 -0.4997
  386MOL0     H52075   0.028   3.856   1.143 -1.9099 -3.1173  1.6582
  386MOL0     H52076  -0.175   3.544   1.133  0.9037 -0.3948 -2.4624
  386MOL0     H52077  -0.019   3.477   1.096  0.7092  0.3234 -1.6321
  386MOL0     H52078  -0.137   3.322   1.225  2.4682 -1.4963  0.1036
  386MOL0     H52079  -0.001   3.370   1.316  0.7212  0.9995 -2.2165
  386MOL0     H52080  -0.240   3.539   1.388 -1.5185 -1.2372  0.8452
  386MOL0     H52081  -0.100   3.481   1.482  1.4445  0.2332 -0.6254
  386MOL0     H52082  -0.344   3.309   1.391 -0.6958 -1.7392  1.1599
  386MOL0     H52083  -0.204   3.248   1.473 -1.0751 -0.6775  0.9947
  386MOL0     H52084  -0.416   3.443   1.573 -1.1963 -0.7602 -1.5963
  386MOL0     H52085  -0.256   3.460   1.638  3.3123 -2.7001 -0.9967
  386MOL0     H52086  -0.438   3.293   1.744 -0.2188 -1.9557  0.7991
  386MOL0     H52087  -0.380   3.185   1.620 -1.9224 -0.1563  1.3615
  386MOL0     H52088  -0.184   3.314   1.837 -2.6580 -0.0575  1.2881
  386MOL0     H52089  -0.162   3.197   1.701  2.5836  1.2138  0.9066
  386MOL0     H52090  -0.296   3.033   1.819 -1.7570  0.9286 -0.1913
  386MOL0     H52091  -0.351   3.137   1.939 -0.0028  0.4356  0.3554
  386MOL0     H52092   0.209   3.481   1.250 -0.1390 -0.2165  0.6518
  386MOL0     H52093   0.437   3.579   1.217  0.9694  3.1740  1.4843
  386MOL0     H52094   0.719   3.893   1.171 -2.7018 -1.5800 -1.3676
  386MOL0     H52095   0.947   3.948   1.157  2.7749 -1.3419 -0.1977
  386MOL0     H52096   2.635   4.097   1.400 -0.1654 -0.6975  0.6281
  386MOL0     H52097   2.841   3.998   1.477 -3.1439  0.5384  0.3732
  386MOL0     H52098   3.280   4.120   1.594  0.9484  1.1343  0.0342
  386MOL0     H52099   3.519   4.087   1.675 -0.2934  3.8273  0.7377
  386MOL0     H52100   3.563   4.097   2.094 -1.3255  0.4563 -0.9495
  386MOL0     H52101   3.633   3.934   2.069 -0.7526  1.5433  2.3266
  386MOL0     H52102   3.787   4.185   2.032 -0.1644 -0.1492  1.2871
  386MOL0     H52103   3.847   4.034   2.000 -0.9784  0.3905 -1.6934
  386MOL0     H52104   3.928   4.092   2.223  0.9522 -0.8578 -1.6959
  386MOL0     H52105   3.799   3.984   2.263 -0.3047  1.6054  1.2272
  386MOL0     H52106   3.787   4.175   2.410  0.2266 -1.3615  0.5245
  386MOL0     H52107   3.646   4.173   2.298 -0.1032  1.3197 -0.3963
  386MOL0     H52108   3.819   4.530   2.167 -1.9566  1.2146  2.2960
  386MOL0     H52109   3.397   3.988   2.048  4.0982  0.3486 -1.4601
  386MOL0     H52110   3.153   4.005   1.983  2.9318 -0.1502  1.0061
  387MOL0     O52111   7.366   3.008   5.784 -0.2912 -0.2713  0.4897
  387MOL0     C52112   7.387   2.890   5.758  0.5095 -0.1709 -0.1044
  387MOL0     O52113   7.315   2.778   5.801  0.6004  0.4112 -0.2921
  387MOL0     C52114   7.213   2.794   5.890 -0.1138  1.2792 -0.0176
  387MOL0     C52115   7.233   2.855   6.012 -0.1309 -0.1673 -0.5592
  387MOL0     C52116   7.122   2.869   6.095  0.3041 -0.2757  0.0853
  387MOL0     C52117   7.003   2.802   6.067 -0.3076 -0.5842  0.1696
  387MOL0     O52118   6.886   2.796   6.146 -0.1021 -0.4910  0.0749
  387MOL0     C52119   6.847   2.913   6.223 -0.0612 -0.1023 -0.2954
  387MOL0     C52120   6.838   2.893   6.374  0.1556  0.8184  0.4845
  387MOL0     C52121   6.966   2.823   6.422 -0.5036  0.9070 -0.4920
  387MOL0     C52122   6.993   2.832   6.571  0.4685 -0.3792  0.5292
  387MOL0     C52123   7.086   2.720   6.625 -0.7887 -0.9123  0.3765
  387MOL0     C52124   7.080   2.703   6.781  0.0821 -0.3419 -0.4355
  387MOL0     C52125   7.122   2.830   6.861  0.7778 -0.1459  0.4305
  387MOL0     C52126   7.274   2.840   6.883 -0.3755  0.2562 -0.3903
  387MOL0     N52127   7.311   2.937   6.983 -0.5939 -0.1870  0.4887
  387MOL0     C52128   7.321   2.907   7.123 -0.0186  0.3648  0.4535
  387MOL0     C52129   7.377   3.014   7.181  0.0983 -0.0839 -0.6484
  387MOL0     C52130   7.418   3.010   7.326 -0.1129 -0.2414  0.2710
  387MOL0     C52131   7.565   3.033   7.364  0.3723  0.3225  0.9644
  387MOL0     C52132   7.618   3.163   7.318 -0.4381 -0.9943 -0.1667
  387MOL0     C52133   7.756   3.207   7.380 -1.6235  0.6925  0.6936
  387MOL0     O52134   7.829   3.275   7.275 -1.0730  0.3666  0.4034
  387MOL0     C52135   7.964   3.306   7.291 -0.1566  0.8684 -0.1462
  387MOL0     C52136   8.041   3.320   7.183 -0.3582  0.9572 -0.2290
  387MOL0     C52137   8.180   3.347   7.191 -0.6206  0.0848 -0.0966
  387MOL0     C52138   8.270   3.359   7.069 -0.0417  0.0358 -0.0548
  387MOL0     C52139   8.239   3.357   7.323  0.1205  0.3563  0.8095
  387MOL0     C52140   8.378   3.387   7.357 -0.8890 -0.1351  0.1186
  387MOL0     O52141   8.473   3.312   7.278 -0.0717 -0.0993  0.3354
  387MOL0     C52142   8.612   3.328   7.305 -0.2625 -0.0780 -0.4310
  387MOL0     C52143   8.704   3.387   7.207  0.0267  0.1632  0.2653
  387MOL0     C52144   8.839   3.398   7.235 -0.3073  0.1936 -1.0656
  387MOL0     C52145   8.891   3.373   7.372 -0.5072 -0.0840  0.2063
  387MOL0     O52146   9.024   3.366   7.401  0.1653  0.2835  0.3207
  387MOL0     C52147   9.122   3.352   7.290  0.5909 -0.7913 -0.0415
  387MOL0     C52148   9.257   3.340   7.360 -0.0572 -0.6823 -0.3180
  387MOL0     C52149   9.356   3.280   7.258 -0.2121 -0.7476  0.3952
  387MOL0     C52150   9.496   3.331   7.265 -0.1842  0.0885 -0.8353
  387MOL0     C52151   9.577   3.293   7.142  1.0365  0.2293 -0.3524
  387MOL0     C52152   9.719   3.363   7.146 -0.2064 -0.3456 -0.3519
  387MOL0     C52153   9.786   3.329   7.015  0.4741 -0.0346  0.4903
  387MOL0     C52154   9.929   3.403   7.012 -0.6512  0.0896  0.8991
  387MOL0    Cl52155  10.008   3.355   6.857  0.4781 -0.3643  0.4358
  387MOL0     C52156   8.805   3.318   7.463  0.3875 -0.1729 -0.3274
  387MOL0     C52157   8.669   3.302   7.432  0.2454 -0.6104 -0.4168
  387MOL0     O52158   8.407   3.463   7.451 -0.1361  0.4447 -0.7263
  387MOL0     C52159   8.160   3.339   7.435  0.5476  0.0477  0.4797
  387MOL0     C52160   8.022   3.310   7.417 -0.6701  0.1268  0.0422
  387MOL0     N52161   7.397   3.110   7.080 -1.0809 -0.4849 -0.0151
  387MOL0     N52162   7.356   3.068   6.962 -0.3042  0.2775 -0.6800
  387MOL0     C52163   6.986   2.731   5.939  0.0685 -0.0365 -0.1333
  387MOL0     C52164   7.095   2.724   5.849 -0.2917  0.1479 -0.6168
  387MOL0     C52165   7.526   2.876   5.694  0.1647 -1.3523 -0.0034
  387MOL0     C52166   7.552   2.772   5.611 -0.7778 -0.7779 -0.1665
  387MOL0     C52167   7.675   2.778   5.535  1.0597  0.4847 -0.0834
  387MOL0     C52168   7.773   2.871   5.554 -0.2994 -0.2567  0.4944
  387MOL0     O52169   7.895   2.880   5.489  0.2328  0.6264  0.2635
  387MOL0     C52170   7.922   2.778   5.387  0.4068 -0.8255  0.2943
  387MOL0     C52171   8.049   2.812   5.321  0.8016 -0.1295 -0.1787
  387MOL0     C52172   8.169   2.789   5.410  0.9069 -0.0288 -1.0572
  387MOL0     C52173   8.295   2.842   5.352 -0.1691 -0.1663  0.3035
  387MOL0     C52174   8.406   2.776   5.428 -0.6250  0.9249 -0.3072
  387MOL0     C52175   8.513   2.736   5.483  0.0410 -0.2801  0.3987
  387MOL0     C52176   7.746   2.971   5.650  0.1366  0.0492 -0.5340
  387MOL0     C52177   7.620   2.971   5.719 -0.9920 -0.3832 -0.2676
  387MOL0     H52178   7.334   2.886   6.036 -0.9877  1.5616  1.0674
  387MOL0     H52179   7.143   2.920   6.189 -1.5268 -0.0551  0.4054
  387MOL0     H52180   6.914   2.996   6.196 -1.6812  2.2580  2.4021
  387MOL0     H52181   6.745   2.928   6.187  0.6144 -0.0651 -2.3317
  387MOL0     H52182   6.816   2.989   6.421  0.4608  1.0882  0.0914
  387MOL0     H52183   6.748   2.836   6.400 -1.9627  3.7755  0.0721
  387MOL0     H52184   6.966   2.715   6.403  5.4759  0.3953  0.5337
  387MOL0     H52185   7.050   2.867   6.368  0.8015 -1.0920 -0.1919
  387MOL0     H52186   7.023   2.931   6.605 -3.0102  0.9986  0.0019
  387MOL0     H52187   6.897   2.820   6.622 -0.2548  1.2780 -0.3593
  387MOL0     H52188   7.056   2.625   6.581  0.2981 -0.3468 -1.7266
  387MOL0     H52189   7.189   2.743   6.594 -1.0549 -0.4612 -0.1903
  387MOL0     H52190   6.986   2.668   6.824 -0.6527  2.8724  0.9104
  387MOL0     H52191   7.137   2.614   6.808 -1.5402 -1.3967 -0.3656
  387MOL0     H52192   7.079   2.921   6.819 -1.1445 -0.9039  0.6581
  387MOL0     H52193   7.074   2.827   6.959  1.0327 -3.6629  0.5807
  387MOL0     H52194   7.311   2.869   6.784  1.1022 -0.5855 -0.1143
  387MOL0     H52195   7.317   2.742   6.907  0.0798  0.8922  1.5774
  387MOL0     H52196   7.287   2.810   7.156  0.4769  0.2014  0.4827
  387MOL0     H52197   7.373   3.099   7.372 -1.3665 -1.0829  0.7244
  387MOL0     H52198   7.384   2.920   7.377  1.5963 -1.7114 -1.0574
  387MOL0     H52199   7.628   2.955   7.320  0.3812  0.8621 -0.0152
  387MOL0     H52200   7.565   3.022   7.473  1.8122  1.0534  1.0644
  387MOL0     H52201   7.547   3.235   7.359 -0.6895 -1.8630  0.9852
  387MOL0     H52202   7.624   3.159   7.208 -1.4413  1.2702 -0.3677
  387MOL0     H52203   7.815   3.125   7.422 -1.6255  0.7552  0.8180
  387MOL0     H52204   7.737   3.284   7.455  0.4573  0.1793  1.7989
  387MOL0     H52205   7.983   3.305   7.092 -1.6311 -1.1977  0.8656
  387MOL0     H52206   8.203   3.392   6.989 -2.8058 -1.1906  1.6466
  387MOL0     H52207   8.356   3.427   7.061 -1.8471  2.2046 -3.8239
  387MOL0     H52208   8.325   3.267   7.044  1.1261  1.4234 -3.2350
  387MOL0     H52209   8.663   3.427   7.115 -0.2862  0.4675  0.5379
  387MOL0     H52210   8.904   3.438   7.157  0.2156 -0.1126 -0.7916
  387MOL0     H52211   9.103   3.254   7.245  2.4596 -0.5440 -1.5392
  387MOL0     H52212   9.121   3.429   7.213 -1.5257 -0.3441  0.3799
  387MOL0     H52213   9.280   3.441   7.396 -1.5691 -0.4527  0.0685
  387MOL0     H52214   9.251   3.270   7.443 -1.1612 -0.9145 -0.5719
  387MOL0     H52215   9.323   3.290   7.154 -1.6004 -2.3526  0.6511
  387MOL0     H52216   9.357   3.173   7.277  0.6476 -0.7759  0.2178
  387MOL0     H52217   9.488   3.440   7.265  0.0404  0.1135  0.0350
  387MOL0     H52218   9.553   3.298   7.352  0.4993  0.6805 -1.0452
  387MOL0     H52219   9.514   3.332   7.060 -2.1807  0.6332  2.1085
  387MOL0     H52220   9.589   3.184   7.147  2.7264  0.4609  2.0554
  387MOL0     H52221   9.706   3.471   7.158 -0.8622 -0.6004  1.5829
  387MOL0     H52222   9.776   3.326   7.232 -1.1630 -2.1207 -0.4165
  387MOL0     H52223   9.726   3.361   6.930 -2.1472 -2.1589  1.3854
  387MOL0     H52224   9.798   3.222   6.992  2.6330  0.5791 -1.6449
  387MOL0     H52225   9.988   3.366   7.097 -1.4862  0.5284  1.6920
  387MOL0     H52226   9.913   3.510   7.028  0.9958  0.4004  0.6014
  387MOL0     H52227   8.846   3.292   7.560 -1.9013 -1.6712  0.3175
  387MOL0     H52228   8.606   3.268   7.514  0.9056 -0.4328  0.1778
  387MOL0     H52229   8.186   3.350   7.540 -0.5473 -2.6659  1.1246
  387MOL0     H52230   7.973   3.291   7.512  1.3944 -3.3489  0.6051
  387MOL0     H52231   6.894   2.680   5.911 -0.9171  1.0668  0.9730
  387MOL0     H52232   7.088   2.668   5.756  1.4171 -0.6381 -0.3213
  387MOL0     H52233   7.481   2.697   5.579  0.4769 -0.7843 -3.2959
  387MOL0     H52234   7.685   2.694   5.466 -3.0561 -0.7027  0.5040
  387MOL0     H52235   7.912   2.679   5.432 -1.5021 -0.7906 -0.0015
  387MOL0     H52236   7.857   2.777   5.300  1.6841 -0.0909 -0.7102
  387MOL0     H52237   8.045   2.916   5.285  0.4076 -0.0775  0.0097
  387MOL0     H52238   8.050   2.761   5.224 -2.7094  1.5772 -1.2835
  387MOL0     H52239   8.177   2.681   5.425 -3.8668 -0.4802 -0.3605
  387MOL0     H52240   8.149   2.834   5.507  2.1058  0.2671 -0.9292
  387MOL0     H52241   8.294   2.949   5.373 -3.0130 -0.6000  3.2740
  387MOL0     H52242   8.295   2.822   5.245 -0.6127  2.4024 -0.2230
  387MOL0     H52243   8.599   2.698   5.535 -1.0063 -3.4076  0.0554
  387MOL0     H52244   7.822   3.047   5.663  1.3878 -1.5532  2.3582
  387MOL0     H52245   7.606   3.057   5.784 -2.0737 -0.7573  0.0022
  388MOL0     O52246   4.065   4.831   8.301 -0.5067  0.0186 -0.2012
  388MOL0     C52247   3.994   4.733   8.296 -0.3766  0.0155  0.6387
  388MOL0     O52248   4.033   4.607   8.342 -0.0597 -0.5660 -0.5241
  388MOL0     C52249   4.157   4.610   8.389 -0.7434 -0.8178  0.7755
  388MOL0     C52250   4.196   4.602   8.518 -0.3333 -0.3700 -0.6098
  388MOL0     C52251   4.336   4.599   8.553 -0.1328 -0.0917 -0.2349
  388MOL0     C52252   4.439   4.607   8.463 -0.2567 -0.3016 -0.3180
  388MOL0     O52253   4.566   4.608   8.511  0.0397  0.0382  0.5024
  388MOL0     C52254   4.677   4.561   8.433  0.3849  0.9751  0.8338
  388MOL0     C52255   4.810   4.564   8.506 -0.0601  0.2285  0.0719
  388MOL0     C52256   4.861   4.689   8.582 -0.8610 -0.4464 -0.3247
  388MOL0     C52257   4.877   4.803   8.480  0.6469 -0.4306  0.4666
  388MOL0     C52258   4.906   4.940   8.545 -0.5913 -0.3737  0.0417
  388MOL0     C52259   4.894   5.055   8.437 -0.0058  0.2811  0.1822
  388MOL0     C52260   4.861   5.195   8.506  1.0544 -0.2651 -0.0681
  388MOL0     C52261   4.991   5.250   8.577  0.3006 -0.0911  0.4932
  388MOL0     N52262   4.983   5.369   8.661  0.0871  0.3965  1.3326
  388MOL0     C52263   4.878   5.403   8.743 -0.3460  0.2282 -0.4133
  388MOL0     C52264   4.933   5.500   8.820  0.0071  0.1981 -0.1883
  388MOL0     C52265   4.865   5.582   8.924 -0.1805  0.4298 -0.5557
  388MOL0     C52266   4.890   5.537   9.067  0.4620  0.3153 -0.2935
  388MOL0     C52267   4.779   5.600   9.163 -0.1738 -0.7413  0.2599
  388MOL0     C52268   4.776   5.507   9.287  0.2823 -0.0833  0.1561
  388MOL0     O52269   4.913   5.504   9.344 -0.2163 -0.1923 -0.4698
  388MOL0     C52270   4.947   5.397   9.420 -0.1460  0.5133  0.8956
  388MOL0     C52271   4.866   5.337   9.513 -0.0142 -0.0880  0.0812
  388MOL0     C52272   4.911   5.243   9.605 -0.7087 -0.9149  0.5972
  388MOL0     C52273   4.812   5.196   9.700  0.1751 -0.7314  0.0692
  388MOL0     C52274   5.050   5.207   9.601 -0.1131  0.0795  0.5799
  388MOL0     C52275   5.104   5.117   9.701  0.0101 -0.2696 -0.5425
  388MOL0     O52276   5.170   5.004   9.649  0.6363 -0.4003 -0.7649
  388MOL0     C52277   5.220   4.925   9.751  0.2780  0.9455 -0.2011
  388MOL0     C52278   5.123   4.863   9.831 -0.3919 -0.2666  0.0548
  388MOL0     C52279   5.158   4.773   9.930 -0.7236  0.8617 -0.7098
  388MOL0     C52280   5.292   4.755   9.955 -0.3093  0.0008 -0.6899
  388MOL0     O52281   5.350   4.670  10.043  0.0063 -0.2117 -0.3763
  388MOL0     C52282   5.327   4.700  10.181 -0.1501 -0.6411 -0.4081
  388MOL0     C52283   5.390   4.583  10.267 -0.0436  0.8734  0.4072
  388MOL0     C52284   5.340   4.585  10.412  0.4104  0.4302 -0.1126
  388MOL0     C52285   5.406   4.480  10.490 -0.1898  0.8902  0.0706
  388MOL0     C52286   5.378   4.493  10.640  0.7741  0.1143  0.0792
  388MOL0     C52287   5.425   4.386  10.725  0.2026 -0.2050  0.0902
  388MOL0     C52288   5.403   4.412  10.873  0.0331  0.8026 -0.0241
  388MOL0     C52289   5.527   4.386  10.953 -0.8017 -0.6242  0.2381
  388MOL0    Cl52290   5.652   4.497  10.922  0.2773  0.0335  0.6663
  388MOL0     C52291   5.387   4.811   9.871 -0.9227 -0.9430 -0.2093
  388MOL0     C52292   5.354   4.892   9.759  0.0256  0.1337 -0.2690
  388MOL0     O52293   5.095   5.157   9.820  0.0855  0.3108  0.2355
  388MOL0     C52294   5.133   5.266   9.506  0.4983  0.9597 -1.0173
  388MOL0     C52295   5.082   5.367   9.424 -0.0897 -0.1665 -0.6268
  388MOL0     N52296   5.067   5.527   8.775 -0.1129 -0.0499 -0.4890
  388MOL0     N52297   5.099   5.446   8.679  0.0956 -0.7029  0.1938
  388MOL0     C52298   4.397   4.603   8.329 -0.3282 -0.5552 -0.5228
  388MOL0     C52299   4.264   4.609   8.287 -0.1600  0.0210 -0.0262
  388MOL0     C52300   3.846   4.748   8.272 -0.4968  0.7243 -0.0579
  388MOL0     C52301   3.760   4.641   8.303 -0.2091 -0.8179 -0.5947
  388MOL0     C52302   3.624   4.645   8.273 -0.6580  0.2801 -0.1258
  388MOL0     C52303   3.577   4.770   8.221  0.7240 -0.3009  0.1525
  388MOL0     O52304   3.442   4.780   8.185  0.5915 -0.0192  0.7874
  388MOL0     C52305   3.357   4.703   8.270 -0.0429 -0.8575  0.4900
  388MOL0     C52306   3.210   4.737   8.276  0.1841 -0.5481  0.1478
  388MOL0     C52307   3.153   4.874   8.263  0.3170 -0.3104 -0.2157
  388MOL0     C52308   3.248   4.989   8.310 -0.9307  0.0009  0.6161
  388MOL0     C52309   3.285   4.987   8.455  0.0432 -0.7980 -0.6236
  388MOL0     C52310   3.310   4.973   8.573  0.3311  0.3061  0.1888
  388MOL0     C52311   3.663   4.879   8.193 -0.5697  0.6494  0.0029
  388MOL0     C52312   3.798   4.864   8.216  0.6025 -1.1634 -1.2587
  388MOL0     H52313   4.127   4.603   8.602 -1.6096  3.5548 -1.5018
  388MOL0     H52314   4.365   4.598   8.658 -1.6520  1.2245  0.2326
  388MOL0     H52315   4.663   4.458   8.399 -1.4700 -0.4590  5.1955
  388MOL0     H52316   4.685   4.627   8.346 -0.5011  0.4873  0.3683
  388MOL0     H52317   4.804   4.492   8.588 -1.2910 -0.4129 -0.5583
  388MOL0     H52318   4.888   4.525   8.440 -1.2605  0.1390 -1.3465
  388MOL0     H52319   4.792   4.730   8.657  1.5033 -1.8134  2.8481
  388MOL0     H52320   4.952   4.669   8.639 -1.5638 -2.5261  0.1701
  388MOL0     H52321   4.952   4.773   8.406 -1.2294 -1.7216 -1.0170
  388MOL0     H52322   4.781   4.819   8.430 -0.1741  0.2244  2.1789
  388MOL0     H52323   4.835   4.965   8.625 -0.5732  2.8261 -0.7921
  388MOL0     H52324   5.005   4.933   8.590 -0.4574  0.1625 -0.1654
  388MOL0     H52325   4.989   5.062   8.383  0.6939 -2.8156  0.8306
  388MOL0     H52326   4.820   5.024   8.363  1.4945  0.0965 -1.3161
  388MOL0     H52327   4.844   5.270   8.429  2.3568 -2.2826 -2.4567
  388MOL0     H52328   4.780   5.176   8.577  1.3421 -1.4133 -0.0193
  388MOL0     H52329   5.062   5.276   8.497 -1.3516  0.1353 -0.9738
  388MOL0     H52330   5.026   5.167   8.638  1.3775  0.1607  0.2458
  388MOL0     H52331   4.783   5.353   8.761 -0.4406  0.5011 -0.1570
  388MOL0     H52332   4.881   5.690   8.912 -1.9940  0.7773 -0.0076
  388MOL0     H52333   4.760   5.563   8.903 -0.4106 -0.6827  1.3805
  388MOL0     H52334   4.988   5.574   9.097 -0.5786  4.5927 -1.5239
  388MOL0     H52335   4.881   5.428   9.078  2.9424 -0.3843 -3.7389
  388MOL0     H52336   4.681   5.599   9.114  0.4213  0.2321 -0.9929
  388MOL0     H52337   4.803   5.701   9.196 -2.0336 -0.7607  1.8286
  388MOL0     H52338   4.752   5.403   9.266  2.2841 -0.2035 -1.8532
  388MOL0     H52339   4.703   5.540   9.361 -0.5588 -0.7551 -0.3540
  388MOL0     H52340   4.764   5.372   9.524  0.4842  1.7170 -0.6666
  388MOL0     H52341   4.816   5.090   9.727  0.0155 -0.1389  2.7426
  388MOL0     H52342   4.831   5.239   9.799  1.8844 -0.3604 -0.3917
  388MOL0     H52343   4.711   5.223   9.668  0.2312 -1.1916 -0.5123
  388MOL0     H52344   5.016   4.879   9.820 -0.2209  2.6538  1.7232
  388MOL0     H52345   5.095   4.714   9.995  3.5417 -1.8895  1.3515
  388MOL0     H52346   5.372   4.795  10.213  1.6576 -1.5062 -0.2104
  388MOL0     H52347   5.220   4.700  10.202 -0.0859 -3.1780  0.2378
  388MOL0     H52348   5.356   4.489  10.222 -0.5589  1.3438 -0.2037
  388MOL0     H52349   5.498   4.596  10.259  0.0046  0.6478  0.6768
  388MOL0     H52350   5.232   4.572  10.420  0.7550 -1.6243  2.2571
  388MOL0     H52351   5.354   4.685  10.454 -1.3657  0.6406  0.0355
  388MOL0     H52352   5.363   4.387  10.453  1.2796  1.6047 -3.8805
  388MOL0     H52353   5.511   4.464  10.466  0.7981 -0.6896  4.4818
  388MOL0     H52354   5.272   4.511  10.659  0.8689 -0.1532  0.9354
  388MOL0     H52355   5.431   4.585  10.666  1.1624  0.4055 -1.6322
  388MOL0     H52356   5.369   4.295  10.704  1.7847 -1.8692  2.5139
  388MOL0     H52357   5.530   4.368  10.699  0.1333  0.9294 -1.0837
  388MOL0     H52358   5.330   4.342  10.914 -2.6216  2.3843 -1.7485
  388MOL0     H52359   5.359   4.511  10.887 -0.8706  0.2370  1.3277
  388MOL0     H52360   5.565   4.287  10.925 -0.8604 -0.3947 -0.6818
  388MOL0     H52361   5.507   4.387  11.060 -1.0619  0.3641  0.1826
  388MOL0     H52362   5.493   4.800   9.894 -0.1532  2.2951 -1.6259
  388MOL0     H52363   5.431   4.928   9.691  1.3670 -2.4735 -0.2298
  388MOL0     H52364   5.239   5.245   9.497  0.7435  0.5177  1.9037
  388MOL0     H52365   5.150   5.411   9.351  0.2560  0.9624  0.3476
  388MOL0     H52366   4.477   4.601   8.255  1.2349  2.3282  0.9050
  388MOL0     H52367   4.253   4.604   8.179  0.3924  0.2570 -0.0997
  388MOL0     H52368   3.794   4.550   8.353  0.9211 -0.3305 -0.4519
  388MOL0     H52369   3.555   4.564   8.295  0.1305 -0.3182  0.1760
  388MOL0     H52370   3.374   4.599   8.242  2.7812 -0.3742  0.1304
  388MOL0     H52371   3.386   4.697   8.375 -2.7256 -0.3917  1.3335
  388MOL0     H52372   3.177   4.702   8.373  0.6101 -3.3478 -0.6192
  388MOL0     H52373   3.160   4.672   8.203  2.8883 -3.6643  0.8106
  388MOL0     H52374   3.049   4.872   8.298  0.4901 -2.3945  0.3189
  388MOL0     H52375   3.139   4.877   8.154 -2.8426  0.4916  0.1119
  388MOL0     H52376   3.194   5.084   8.300 -1.8601 -0.6712 -1.0660
  388MOL0     H52377   3.342   4.989   8.255 -0.2605  1.3670  1.6843
  388MOL0     H52378   3.346   4.972   8.674  0.6512  1.9953  0.1284
  388MOL0     H52379   3.627   4.970   8.146  2.1709  0.2591 -3.3376
  388MOL0     H52380   3.864   4.950   8.207 -2.0718  1.6344  2.7098
  389MOL0     O52381   6.741   3.105   0.816  0.5356 -0.0616  0.1681
  389MOL0     C52382   6.804   3.004   0.845 -0.2578 -0.5860  0.3805
  389MOL0     O52383   6.930   2.999   0.908  0.1736 -0.0969  0.1797
  389MOL0     C52384   6.986   3.122   0.918  0.3276 -0.1933 -0.8063
  389MOL0     C52385   7.019   3.202   0.808  0.2011 -0.0785  0.4255
  389MOL0     C52386   7.099   3.315   0.819 -0.3154 -0.3380  0.0660
  389MOL0     C52387   7.132   3.377   0.944  0.1995  0.3480  0.0925
  389MOL0     O52388   7.216   3.484   0.957 -0.1460 -0.6019  1.1662
  389MOL0     C52389   7.340   3.485   0.888  0.2797 -0.1008 -0.2079
  389MOL0     C52390   7.451   3.556   0.969  0.8978  0.3180  1.0654
  389MOL0     C52391   7.498   3.479   1.096 -0.1037 -0.6261 -0.0663
  389MOL0     C52392   7.523   3.581   1.210 -0.0397 -0.3647  0.2036
  389MOL0     C52393   7.529   3.499   1.342  0.0250  0.1923  1.1601
  389MOL0     C52394   7.580   3.576   1.462 -0.4122  0.2170 -0.1032
  389MOL0     C52395   7.580   3.497   1.587 -1.1462 -0.2374  0.2339
  389MOL0     C52396   7.656   3.573   1.704 -0.5612  0.3642 -0.4838
  389MOL0     N52397   7.561   3.665   1.754 -0.7841  0.9479 -0.1693
  389MOL0     C52398   7.586   3.796   1.771 -0.6911  0.1187  0.6109
  389MOL0     C52399   7.475   3.848   1.829 -0.5789 -0.3059 -0.1461
  389MOL0     C52400   7.462   3.999   1.871  0.0333  0.2860  0.2023
  389MOL0     C52401   7.414   4.086   1.761  0.4605 -0.1194  0.7155
  389MOL0     C52402   7.293   4.025   1.691  0.0033  0.5395 -0.3377
  389MOL0     C52403   7.217   4.138   1.612 -0.5595 -1.0152 -0.0762
  389MOL0     O52404   7.110   4.081   1.545  0.1555  0.3147  0.1471
  389MOL0     C52405   7.032   4.163   1.462 -0.9833  0.5071  0.4731
  389MOL0     C52406   7.086   4.251   1.359  0.1544  0.0844  0.2131
  389MOL0     C52407   7.009   4.329   1.266 -0.2400  0.2181 -0.2920
  389MOL0     C52408   7.085   4.415   1.162 -0.5618 -0.6404 -0.2200
  389MOL0     C52409   6.866   4.317   1.280  0.2089 -0.1292 -0.5748
  389MOL0     C52410   6.767   4.370   1.179 -0.6761  0.3193 -0.4434
  389MOL0     O52411   6.628   4.330   1.191  0.0169  0.2604 -0.1913
  389MOL0     C52412   6.541   4.335   1.085 -0.8594 -0.0102  0.3967
  389MOL0     C52413   6.492   4.463   1.054  0.6016  0.3314 -0.5509
  389MOL0     C52414   6.393   4.472   0.950 -0.4878 -0.2387  0.1564
  389MOL0     C52415   6.344   4.348   0.903 -0.0343  0.4375 -0.0299
  389MOL0     O52416   6.264   4.349   0.790 -0.0175  0.5027 -0.0585
  389MOL0     C52417   6.328   4.322   0.667 -0.2030  0.0442  0.8724
  389MOL0     C52418   6.465   4.391   0.645 -0.0091 -0.7862  0.7744
  389MOL0     C52419   6.504   4.385   0.498  0.5369 -0.1109  0.0270
  389MOL0     C52420   6.642   4.429   0.463 -0.4804  0.8524 -0.5980
  389MOL0     C52421   6.665   4.586   0.459  0.4676 -0.6665 -0.9026
  389MOL0     C52422   6.621   4.643   0.320  0.2887 -0.6492 -0.1419
  389MOL0     C52423   6.664   4.789   0.287  0.0603  0.4740 -0.0618
  389MOL0     C52424   6.621   4.895   0.388  0.5836  0.0331  0.6119
  389MOL0    Cl52425   6.446   4.904   0.379  0.2306 -0.3808  0.0582
  389MOL0     C52426   6.380   4.222   0.951 -0.2396  0.8663  0.1358
  389MOL0     C52427   6.491   4.212   1.039  0.9524 -0.2779  0.8666
  389MOL0     O52428   6.810   4.438   1.088 -0.2291  0.0359 -0.4918
  389MOL0     C52429   6.813   4.241   1.388  0.2226  0.0635 -0.2652
  389MOL0     C52430   6.893   4.158   1.472 -0.1183 -0.2716  0.4765
  389MOL0     N52431   7.383   3.744   1.848 -0.2121  0.8870 -0.1373
  389MOL0     N52432   7.446   3.633   1.806 -0.0840 -0.7516 -0.6852
  389MOL0     C52433   7.093   3.303   1.048 -0.2768 -0.1737  0.4063
  389MOL0     C52434   7.026   3.174   1.039 -0.5421 -0.1690  0.0419
  389MOL0     C52435   6.728   2.875   0.830 -1.0138 -0.0380 -0.0345
  389MOL0     C52436   6.777   2.758   0.897 -0.1482 -0.4045 -0.3787
  389MOL0     C52437   6.704   2.641   0.862  0.5410 -0.6747 -0.2464
  389MOL0     C52438   6.576   2.644   0.795 -0.1269  0.0966  0.3292
  389MOL0     O52439   6.504   2.537   0.760 -1.0197 -0.7072  0.0841
  389MOL0     C52440   6.532   2.412   0.828  0.5019 -0.1935 -0.1439
  389MOL0     C52441   6.432   2.320   0.766  0.3914  0.0824 -0.6818
  389MOL0     C52442   6.433   2.180   0.837  0.6760 -0.6992 -1.4403
  389MOL0     C52443   6.379   2.177   0.980  0.2567  0.1167 -0.5321
  389MOL0     C52444   6.379   2.039   1.034  0.7300 -0.1169  1.0149
  389MOL0     C52445   6.398   1.937   1.094  0.1220 -0.7454  0.5048
  389MOL0     C52446   6.541   2.762   0.741 -0.0254 -0.4715  0.2135
  389MOL0     C52447   6.609   2.875   0.761  0.2810  0.2958  0.0294
  389MOL0     H52448   7.011   3.167   0.706  1.1517  0.2953  0.2097
  389MOL0     H52449   7.130   3.371   0.732  2.1728  1.4600  1.9829
  389MOL0     H52450   7.375   3.383   0.868  1.9122  0.5294 -0.7764
  389MOL0     H52451   7.331   3.525   0.787  2.4467 -2.4286 -1.4456
  389MOL0     H52452   7.536   3.577   0.903  1.4994 -1.2182  1.2983
  389MOL0     H52453   7.403   3.650   0.996 -2.8175 -0.9081 -0.5826
  389MOL0     H52454   7.428   3.400   1.126 -0.5155  0.2022  1.2803
  389MOL0     H52455   7.589   3.424   1.068  0.2914  1.0830 -2.3478
  389MOL0     H52456   7.621   3.626   1.199  1.2819 -1.9655  3.7547
  389MOL0     H52457   7.448   3.660   1.215  1.3185  0.8916  1.9487
  389MOL0     H52458   7.428   3.464   1.366  0.6708 -1.3552  1.7260
  389MOL0     H52459   7.591   3.409   1.345 -0.8589 -0.4263  1.0501
  389MOL0     H52460   7.680   3.612   1.437 -1.1037  1.3735 -1.3411
  389MOL0     H52461   7.514   3.663   1.472 -0.4906 -0.0896  3.0845
  389MOL0     H52462   7.477   3.469   1.611 -1.3770  0.8260  0.5200
  389MOL0     H52463   7.636   3.405   1.566  1.5783  1.0754  1.2186
  389MOL0     H52464   7.754   3.603   1.667 -0.1934 -0.5753 -0.3094
  389MOL0     H52465   7.679   3.509   1.790  1.0268 -1.6248 -2.2552
  389MOL0     H52466   7.668   3.861   1.740 -0.3449 -0.2489  0.7554
  389MOL0     H52467   7.407   4.017   1.965  0.5959  0.2347  0.5444
  389MOL0     H52468   7.563   4.028   1.900  0.0049  1.9456 -1.1828
  389MOL0     H52469   7.501   4.097   1.696  0.4281 -3.5412 -0.1200
  389MOL0     H52470   7.382   4.181   1.805 -1.8582  0.6151 -2.2346
  389MOL0     H52471   7.231   3.978   1.767 -1.3707  2.1202 -0.4264
  389MOL0     H52472   7.332   3.945   1.627  2.7785  3.4075 -2.5872
  389MOL0     H52473   7.282   4.194   1.545  0.2760  0.7239  2.0403
  389MOL0     H52474   7.191   4.221   1.679  1.0570  0.0063 -0.6380
  389MOL0     H52475   7.195   4.256   1.355  0.2078 -0.6017  0.6021
  389MOL0     H52476   7.081   4.377   1.060 -1.1992  0.2842 -0.5517
  389MOL0     H52477   7.043   4.516   1.158 -0.3986 -0.5633 -0.0070
  389MOL0     H52478   7.189   4.413   1.193 -0.3614  0.1090 -0.8123
  389MOL0     H52479   6.525   4.547   1.114  1.2806  0.6960 -1.4028
  389MOL0     H52480   6.368   4.567   0.903  1.2936  0.0874 -0.1951
  389MOL0     H52481   6.332   4.215   0.645  0.6569  0.5099 -1.5707
  389MOL0     H52482   6.259   4.356   0.588  0.5854 -1.3522 -0.4709
  389MOL0     H52483   6.465   4.498   0.665  0.6417 -0.5297 -0.5467
  389MOL0     H52484   6.542   4.347   0.709 -0.2407 -0.4252  1.3117
  389MOL0     H52485   6.428   4.451   0.454  0.3979  0.5723  1.2620
  389MOL0     H52486   6.499   4.284   0.457  1.3340 -1.0980  2.2066
  389MOL0     H52487   6.713   4.368   0.519  0.1769  2.7792  0.7818
  389MOL0     H52488   6.663   4.398   0.360 -0.1498 -0.6098 -0.1071
  389MOL0     H52489   6.771   4.605   0.479 -0.3187  0.8537  2.6693
  389MOL0     H52490   6.608   4.623   0.545  3.1727  0.5333  0.4768
  389MOL0     H52491   6.660   4.575   0.244  1.0813 -0.7733  0.3616
  389MOL0     H52492   6.512   4.642   0.316  0.2527  0.1541  0.3732
  389MOL0     H52493   6.612   4.811   0.193 -0.2407 -2.0396 -0.5545
  389MOL0     H52494   6.773   4.794   0.285  0.0939  1.6169  1.9484
  389MOL0     H52495   6.665   4.986   0.347 -1.6453  0.7488 -0.2880
  389MOL0     H52496   6.661   4.872   0.488  0.3942  3.4359  1.5745
  389MOL0     H52497   6.322   4.135   0.921 -0.3768 -0.5065  3.7938
  389MOL0     H52498   6.529   4.119   1.080  2.6574  1.2589  3.0750
  389MOL0     H52499   6.705   4.224   1.386  0.7330 -3.8934 -1.9210
  389MOL0     H52500   6.852   4.091   1.547 -1.7856  0.1743  0.0058
  389MOL0     H52501   7.111   3.356   1.141  0.0882  2.9350 -1.2855
  389MOL0     H52502   7.025   3.112   1.128  1.9286  0.1356  0.3504
  389MOL0     H52503   6.865   2.763   0.960  0.4049 -0.9205 -1.1092
  389MOL0     H52504   6.744   2.546   0.897  0.6367 -0.6079 -0.1717
  389MOL0     H52505   6.635   2.379   0.814 -0.0489 -2.1926  0.2892
  389MOL0     H52506   6.522   2.435   0.934  0.1603  1.8319 -0.5752
  389MOL0     H52507   6.447   2.302   0.659  1.5050  0.4466 -0.6028
  389MOL0     H52508   6.328   2.354   0.772  0.8207  1.1770  1.4250
  389MOL0     H52509   6.537   2.150   0.848  0.8218  0.1600 -0.3370
  389MOL0     H52510   6.375   2.103   0.784 -0.7990  0.3546 -1.4308
  389MOL0     H52511   6.276   2.213   0.976  0.0785 -0.4344 -4.2460
  389MOL0     H52512   6.443   2.231   1.050  2.2102 -0.2194 -1.9894
  389MOL0     H52513   6.423   1.845   1.143  0.6312  0.0561  1.8336
  389MOL0     H52514   6.450   2.761   0.682  0.9208 -3.0116 -1.4040
  389MOL0     H52515   6.563   2.965   0.722  1.1811  0.4078 -0.8124
  390MOL0     O52516   3.923   3.874   3.247 -0.4002 -0.9177  0.1808
  390MOL0     C52517   3.976   3.935   3.159 -0.2195  0.2453  1.0551
  390MOL0     O52518   3.931   3.923   3.027  0.0068 -0.0446 -0.7918
  390MOL0     C52519   3.794   3.934   3.002 -0.3693  0.2971  0.4836
  390MOL0     C52520   3.713   4.015   3.082 -0.2404 -0.1924 -0.1173
  390MOL0     C52521   3.572   4.007   3.066 -0.5792  0.1187  0.6166
  390MOL0     C52522   3.517   3.934   2.964  0.2141  0.4266 -0.4152
  390MOL0     O52523   3.382   3.913   2.943  0.6948 -0.1401 -0.3045
  390MOL0     C52524   3.284   4.001   3.002 -0.4541 -0.7888 -0.5961
  390MOL0     C52525   3.261   4.128   2.916  0.7480 -0.2556 -1.0544
  390MOL0     C52526   3.227   4.091   2.771  1.2903  0.0554  0.2930
  390MOL0     C52527   3.142   4.196   2.693 -0.4718 -0.5368  0.1206
  390MOL0     C52528   3.121   4.137   2.550  0.4820  0.0065  0.3222
  390MOL0     C52529   3.045   4.222   2.447  0.4614  0.9332 -0.0970
  390MOL0     C52530   3.035   4.154   2.312 -1.0596  0.0954  1.1855
  390MOL0     C52531   2.895   4.201   2.252 -0.5129 -0.3185  0.1363
  390MOL0     N52532   2.781   4.144   2.319  0.1991  0.5314  0.1579
  390MOL0     C52533   2.661   4.127   2.253  0.2126 -0.1049 -0.2179
  390MOL0     C52534   2.583   4.047   2.340 -1.0312 -0.3851  0.4005
  390MOL0     C52535   2.449   3.998   2.295 -0.0515 -0.0037 -0.1321
  390MOL0     C52536   2.343   4.018   2.403 -0.4218 -0.3871  0.1219
  390MOL0     C52537   2.207   3.992   2.334  0.2223  0.0532  0.1843
  390MOL0     C52538   2.102   3.973   2.444 -1.0722 -0.4488 -0.6215
  390MOL0     O52539   2.068   4.099   2.505  0.1954 -0.0872 -0.1554
  390MOL0     C52540   1.952   4.098   2.583 -0.6729 -0.0527 -0.2832
  390MOL0     C52541   1.854   4.205   2.569  0.0631 -0.3287 -0.8340
  390MOL0     C52542   1.740   4.206   2.650  0.7604  0.4327  0.5779
  390MOL0     C52543   1.645   4.327   2.625  0.2423 -0.7094  0.9629
  390MOL0     C52544   1.720   4.095   2.735  0.2029 -0.3776  0.2478
  390MOL0     C52545   1.594   4.089   2.816  0.1859  0.6526  0.6279
  390MOL0     O52546   1.480   4.144   2.768  0.5222  0.0172 -0.2503
  390MOL0     C52547   1.365   4.143   2.846  0.6414 -0.1828 -0.6021
  390MOL0     C52548   1.251   4.089   2.794  1.8661  0.2092 -0.1130
  390MOL0     C52549   1.131   4.075   2.866  0.3013  0.1202 -0.9646
  390MOL0     C52550   1.116   4.118   3.001  0.0272  0.4939  0.4986
  390MOL0     O52551   0.991   4.091   3.057 -0.1672 -0.1774 -0.4176
  390MOL0     C52552   0.960   4.181   3.162  1.2579 -0.1912 -0.8514
  390MOL0     C52553   0.810   4.150   3.202 -0.3295 -0.6681 -0.1473
  390MOL0     C52554   0.726   4.273   3.247  0.3814  0.8004  0.8066
  390MOL0     C52555   0.669   4.349   3.117  0.1372 -0.9809 -0.6537
  390MOL0     C52556   0.627   4.491   3.173  0.1121  0.3763  0.1421
  390MOL0     C52557   0.523   4.563   3.081  0.3726 -0.6032  0.6550
  390MOL0     C52558   0.430   4.672   3.141  0.1468 -0.2440 -0.4607
  390MOL0     C52559   0.329   4.725   3.039 -0.0873 -0.4643 -0.9259
  390MOL0    Cl52560   0.235   4.594   2.984  0.6337 -0.1706 -0.0211
  390MOL0     C52561   1.231   4.176   3.054 -0.3081 -0.7549 -0.3286
  390MOL0     C52562   1.354   4.176   2.984 -0.1396 -1.1010  1.0892
  390MOL0     O52563   1.611   4.029   2.925  0.1710  0.5080 -0.2867
  390MOL0     C52564   1.805   3.983   2.744 -0.1201  0.3505 -0.5979
  390MOL0     C52565   1.920   3.991   2.669 -0.3358 -0.6578  0.2206
  390MOL0     N52566   2.655   4.023   2.459 -0.2937 -0.1701  0.3540
  390MOL0     N52567   2.767   4.078   2.440 -0.3631 -0.2924 -0.0493
  390MOL0     C52568   3.598   3.861   2.870  0.2705 -0.4113  0.1049
  390MOL0     C52569   3.738   3.856   2.897 -0.0370 -0.2934  0.0196
  390MOL0     C52570   4.108   3.987   3.179  1.0953  0.1376 -0.8133
  390MOL0     C52571   4.162   3.984   3.311 -1.1677  0.9995  0.0604
  390MOL0     C52572   4.298   4.005   3.324 -0.1956 -0.8802 -0.1451
  390MOL0     C52573   4.389   4.034   3.215  0.5363  0.7128 -0.0418
  390MOL0     O52574   4.521   4.049   3.237 -0.7045  0.0677  0.2119
  390MOL0     C52575   4.604   4.112   3.138 -0.3620  0.5948  0.4032
  390MOL0     C52576   4.736   4.155   3.192  0.9100  0.3520 -0.3649
  390MOL0     C52577   4.730   4.226   3.337 -0.2841 -0.3768 -0.6972
  390MOL0     C52578   4.864   4.294   3.365 -0.3829  0.3881 -0.8215
  390MOL0     C52579   4.980   4.208   3.336  0.2618 -0.2161 -0.2224
  390MOL0     C52580   5.069   4.133   3.295 -0.2806  0.2618  1.2259
  390MOL0     C52581   4.334   4.036   3.084  1.3909  0.0193 -0.4526
  390MOL0     C52582   4.195   4.022   3.067 -0.6250  0.1349  0.8485
  390MOL0     H52583   3.748   4.073   3.167 -1.2162 -0.6082  0.5930
  390MOL0     H52584   3.513   4.067   3.135 -2.3560  0.2721 -0.9464
  390MOL0     H52585   3.191   3.944   3.002 -0.1631 -1.2869  0.2360
  390MOL0     H52586   3.311   4.030   3.104 -0.2952 -0.6752 -0.6690
  390MOL0     H52587   3.180   4.183   2.965 -0.7819 -0.7885 -2.8471
  390MOL0     H52588   3.343   4.200   2.915 -0.7367  1.6589  1.6651
  390MOL0     H52589   3.318   4.065   2.716  3.0386  0.1384  2.9707
  390MOL0     H52590   3.158   4.006   2.762 -1.2517  2.1068 -0.8447
  390MOL0     H52591   3.054   4.223   2.752  0.8418  2.6887  0.8194
  390MOL0     H52592   3.202   4.287   2.689  0.3506 -1.0920 -0.5756
  390MOL0     H52593   3.219   4.120   2.503  0.6083  4.3662 -1.4735
  390MOL0     H52594   3.063   4.045   2.565  0.4420 -0.0096  0.0708
  390MOL0     H52595   2.946   4.233   2.491 -0.1612 -1.2503 -0.8486
  390MOL0     H52596   3.095   4.319   2.446  0.4114  0.9603 -0.7264
  390MOL0     H52597   3.124   4.185   2.257  0.7101 -4.5265  0.9852
  390MOL0     H52598   3.034   4.045   2.326 -1.9729  0.1837  1.9520
  390MOL0     H52599   2.898   4.164   2.149  0.4174 -0.8001  0.3278
  390MOL0     H52600   2.889   4.310   2.247 -1.3584 -0.3984 -2.9361
  390MOL0     H52601   2.642   4.159   2.151 -2.0235 -1.4520 -0.2924
  390MOL0     H52602   2.411   4.055   2.210 -2.2772 -2.3523 -0.8394
  390MOL0     H52603   2.464   3.892   2.271  1.8551 -0.0894  1.2127
  390MOL0     H52604   2.346   4.112   2.459 -4.3415 -0.4660  0.7183
  390MOL0     H52605   2.367   3.945   2.481  0.5513 -1.2715 -0.9631
  390MOL0     H52606   2.193   3.899   2.278 -4.0126  0.8670 -0.4698
  390MOL0     H52607   2.175   4.076   2.271  1.5684  0.9348  0.6352
  390MOL0     H52608   2.140   3.898   2.516 -0.3503  0.1905 -0.3199
  390MOL0     H52609   2.007   3.942   2.401 -2.1060  3.0129 -1.1200
  390MOL0     H52610   1.868   4.284   2.496 -0.6096  1.4259  0.8399
  390MOL0     H52611   1.605   4.319   2.523  1.6065  2.1517  0.0974
  390MOL0     H52612   1.582   4.361   2.707  1.4873  3.1632  0.4905
  390MOL0     H52613   1.704   4.419   2.616 -0.0604 -0.5543  0.4964
  390MOL0     H52614   1.263   4.051   2.693  0.1658 -0.9626  0.0743
  390MOL0     H52615   1.048   4.018   2.825 -1.4850 -0.3340  2.8163
  390MOL0     H52616   1.024   4.182   3.251  1.2669 -1.1677 -0.8337
  390MOL0     H52617   0.963   4.283   3.124 -0.3295 -0.1009 -0.7970
  390MOL0     H52618   0.764   4.107   3.112  1.6757 -1.4022 -0.8714
  390MOL0     H52619   0.806   4.074   3.280  0.1845  2.1289  2.7997
  390MOL0     H52620   0.789   4.350   3.293  1.0287  0.7413  0.0411
  390MOL0     H52621   0.641   4.243   3.309 -0.1376 -0.0246 -0.2611
  390MOL0     H52622   0.743   4.370   3.039  0.0749  0.4575 -0.3532
  390MOL0     H52623   0.580   4.292   3.087  0.5374 -2.3207  0.5373
  390MOL0     H52624   0.712   4.560   3.176 -0.9181  1.7307 -0.6844
  390MOL0     H52625   0.573   4.485   3.268 -1.0798  0.8232 -0.4928
  390MOL0     H52626   0.581   4.604   2.999 -0.0192  0.0460  0.6989
  390MOL0     H52627   0.468   4.481   3.035 -1.3769  0.1448  1.3295
  390MOL0     H52628   0.484   4.753   3.190 -2.0782  0.8458  0.3146
  390MOL0     H52629   0.371   4.623   3.219 -2.1965  0.0767 -1.9230
  390MOL0     H52630   0.378   4.780   2.958 -1.2441  1.0899 -0.6105
  390MOL0     H52631   0.258   4.790   3.090 -0.7946 -1.5232 -0.5263
  390MOL0     H52632   1.227   4.210   3.157 -2.4645 -1.2920 -0.1762
  390MOL0     H52633   1.448   4.192   3.036  1.5462 -0.9672 -1.7569
  390MOL0     H52634   1.791   3.894   2.806  3.2480  0.6239  0.8064
  390MOL0     H52635   1.991   3.910   2.683  0.4405  0.1819  1.3006
  390MOL0     H52636   3.544   3.818   2.787 -2.9500  1.1367  1.2451
  390MOL0     H52637   3.801   3.786   2.843  1.0843  1.1304 -0.6035
  390MOL0     H52638   4.112   3.948   3.400 -0.6640 -2.7178 -1.0173
  390MOL0     H52639   4.353   4.005   3.417 -1.3528 -0.6343  0.5607
  390MOL0     H52640   4.626   4.046   3.053  0.4166 -0.4965  1.4203
  390MOL0     H52641   4.543   4.192   3.095  0.1132 -0.2225 -1.9196
  390MOL0     H52642   4.779   4.219   3.115 -1.8415 -0.3493 -2.6323
  390MOL0     H52643   4.798   4.064   3.194 -0.2086 -0.4722  2.6455
  390MOL0     H52644   4.704   4.149   3.409  0.2395 -0.8289 -0.9863
  390MOL0     H52645   4.664   4.311   3.357  0.5645 -0.1919  1.6709
  390MOL0     H52646   4.866   4.342   3.463 -0.9423  2.0208 -1.5555
  390MOL0     H52647   4.874   4.382   3.300  2.3905  1.3728  0.7707
  390MOL0     H52648   5.152   4.076   3.257  0.1067  1.2581  0.5454
  390MOL0     H52649   4.399   4.041   2.998  2.7578  0.1099  0.5462
  390MOL0     H52650   4.159   4.037   2.966  5.6870  3.4791 -1.4892
  391MOL0     O52651   9.791   8.477   2.351  0.1035  0.2088  0.9819
  391MOL0     C52652   9.716   8.419   2.272 -0.7744 -0.2288 -0.5335
  391MOL0     O52653   9.753   8.366   2.150  0.5476 -0.1588 -0.2402
  391MOL0     C52654   9.886   8.362   2.117 -0.2968 -0.4673  0.3559
  391MOL0     C52655   9.992   8.302   2.187  1.2721  0.1176  0.6237
  391MOL0     C52656  10.116   8.283   2.121 -0.0240 -0.1794  0.6818
  391MOL0     C52657  10.130   8.343   1.993 -0.1993 -0.0735 -0.2213
  391MOL0     O52658  10.242   8.320   1.929  0.4109  0.1321 -0.8188
  391MOL0     C52659  10.314   8.203   1.958  0.6954  0.5569  0.1213
  391MOL0     C52660  10.241   8.065   1.915 -0.8613 -0.3513  0.4485
  391MOL0     C52661  10.168   8.068   1.776  0.7045  0.1025 -0.7903
  391MOL0     C52662  10.267   8.099   1.665 -0.4594  0.3936  0.6527
  391MOL0     C52663  10.186   8.108   1.535  0.2496 -0.1862 -0.7281
  391MOL0     C52664  10.106   8.235   1.529 -1.0955  0.5482  0.4935
  391MOL0     C52665  10.050   8.266   1.395 -0.1886  0.8137 -0.5418
  391MOL0     C52666   9.972   8.400   1.389 -0.5756 -0.1243  0.5326
  391MOL0     N52667   9.832   8.409   1.433 -0.1846 -0.1804 -0.0852
  391MOL0     C52668   9.786   8.334   1.546  0.7379  0.3679 -0.1457
  391MOL0     C52669   9.648   8.354   1.543  0.1831  0.3948 -0.4107
  391MOL0     C52670   9.555   8.321   1.654  0.5116 -0.5538 -0.2423
  391MOL0     C52671   9.477   8.183   1.665 -0.1590  0.5350  0.6294
  391MOL0     C52672   9.355   8.157   1.567 -0.3564 -0.2397  0.0689
  391MOL0     C52673   9.295   8.020   1.589  0.2451 -0.1394 -0.5157
  391MOL0     O52674   9.191   7.988   1.493 -0.0487 -0.2569  0.4940
  391MOL0     C52675   9.069   8.047   1.501  0.3616  0.5022  0.7701
  391MOL0     C52676   8.983   8.029   1.393 -0.5768 -0.1966 -0.8050
  391MOL0     C52677   8.856   8.098   1.400 -0.5219 -0.0658  0.5707
  391MOL0     C52678   8.769   8.082   1.274  0.1351 -0.6853  0.2793
  391MOL0     C52679   8.802   8.159   1.520  0.2803 -0.8501  0.7211
  391MOL0     C52680   8.671   8.214   1.534 -0.2493  0.5224  0.4105
  391MOL0     O52681   8.607   8.189   1.652 -0.2186 -1.1285 -0.1749
  391MOL0     C52682   8.481   8.237   1.671 -0.3970 -0.5635  0.0524
  391MOL0     C52683   8.377   8.154   1.712 -0.4547  0.5486  0.6417
  391MOL0     C52684   8.244   8.192   1.725  0.1370 -0.1450  0.8487
  391MOL0     C52685   8.209   8.324   1.694 -0.7639 -0.9382 -0.3646
  391MOL0     O52686   8.079   8.363   1.694  0.4839  0.1679 -0.3880
  391MOL0     C52687   8.046   8.501   1.734  0.1016  0.0725 -0.2786
  391MOL0     C52688   7.900   8.495   1.784 -0.4135  0.5154  0.3049
  391MOL0     C52689   7.870   8.379   1.884 -0.1139 -0.2020  0.4470
  391MOL0     C52690   7.765   8.419   1.991  0.0581 -0.3419 -0.5440
  391MOL0     C52691   7.784   8.325   2.108  0.6659 -0.5907  0.5405
  391MOL0     C52692   7.917   8.359   2.184 -0.2675  0.0045  0.4973
  391MOL0     C52693   7.921   8.303   2.324  0.0046  1.1468 -0.5151
  391MOL0     C52694   8.055   8.336   2.390 -0.1237  0.1758  0.4085
  391MOL0    Cl52695   8.036   8.247   2.548  0.1409 -0.3692  0.1682
  391MOL0     C52696   8.308   8.414   1.655 -0.8259  0.1602  0.9714
  391MOL0     C52697   8.443   8.363   1.640 -0.3289 -0.0816 -0.7600
  391MOL0     O52698   8.623   8.279   1.440  0.1093 -0.1415 -0.3327
  391MOL0     C52699   8.890   8.175   1.626  0.2072  0.3921  0.3755
  391MOL0     C52700   9.030   8.125   1.611  0.5525  1.2123  0.4624
  391MOL0     N52701   9.617   8.423   1.429  0.6264  0.0697 -1.0101
  391MOL0     N52702   9.722   8.461   1.372 -0.2207  0.2408  0.4054
  391MOL0     C52703  10.023   8.399   1.924 -0.3318 -0.2974 -0.3975
  391MOL0     C52704   9.902   8.410   1.989 -0.0775 -0.0582 -1.6707
  391MOL0     C52705   9.578   8.418   2.320  0.5998  0.2626  0.2965
  391MOL0     C52706   9.477   8.363   2.240  0.4452 -0.2257  0.5869
  391MOL0     C52707   9.344   8.358   2.290  0.2261 -0.1193 -0.2637
  391MOL0     C52708   9.306   8.391   2.423  0.3270  0.2978  0.7239
  391MOL0     O52709   9.176   8.359   2.469  0.2717  0.2589  0.7996
  391MOL0     C52710   9.158   8.364   2.610  0.5420  0.1973  1.0052
  391MOL0     C52711   9.022   8.328   2.648  0.1685 -0.6307 -0.7145
  391MOL0     C52712   8.901   8.392   2.561 -0.6405  0.2350 -1.5331
  391MOL0     C52713   8.779   8.324   2.622 -0.3345 -0.1261 -0.7560
  391MOL0     C52714   8.661   8.372   2.547 -0.2377 -0.4172  0.4067
  391MOL0     C52715   8.560   8.407   2.492  0.0733  0.3053  0.0706
  391MOL0     C52716   9.410   8.450   2.508  0.2066  0.0868  0.2418
  391MOL0     C52717   9.542   8.459   2.454  0.7388 -0.2991 -0.2026
  391MOL0     H52718   9.981   8.273   2.291 -2.5046  0.0856  0.3316
  391MOL0     H52719  10.193   8.229   2.176 -0.3076 -2.3210 -0.8858
  391MOL0     H52720  10.408   8.212   1.905  0.7435 -2.9160 -0.6379
  391MOL0     H52721  10.341   8.187   2.063 -0.3303 -2.9259 -0.0082
  391MOL0     H52722  10.315   7.985   1.905 -1.7110 -1.7007  3.6636
  391MOL0     H52723  10.172   8.027   1.990 -2.7120 -0.6402 -1.3028
  391MOL0     H52724  10.110   7.978   1.756 -0.1625  0.9470 -2.2915
  391MOL0     H52725  10.097   8.152   1.781  2.0479  1.4017 -2.2453
  391MOL0     H52726  10.322   8.190   1.690  1.3422 -0.4793 -0.0197
  391MOL0     H52727  10.334   8.013   1.660 -1.2472 -0.1727 -3.3376
  391MOL0     H52728  10.251   8.115   1.447  2.9672 -1.4537  1.0189
  391MOL0     H52729  10.125   8.019   1.518  1.3262 -0.6558 -2.4045
  391MOL0     H52730  10.027   8.227   1.603 -0.5148 -2.0978  0.9126
  391MOL0     H52731  10.173   8.318   1.554  0.9136 -1.0063  0.5064
  391MOL0     H52732  10.127   8.261   1.318 -0.4723 -2.4496 -0.7320
  391MOL0     H52733   9.974   8.190   1.373  0.7912 -1.3694  2.9110
  391MOL0     H52734   9.980   8.427   1.283 -0.8732 -0.6015  0.3877
  391MOL0     H52735  10.023   8.483   1.439  0.4171  0.6390 -1.6234
  391MOL0     H52736   9.843   8.291   1.628  1.2761 -1.6776 -1.5343
  391MOL0     H52737   9.604   8.321   1.751 -0.0254  1.1517  0.0468
  391MOL0     H52738   9.486   8.405   1.657  2.3662  1.0348 -0.3162
  391MOL0     H52739   9.427   8.165   1.761 -2.6230  0.6807 -0.5484
  391MOL0     H52740   9.544   8.099   1.648 -1.9004 -0.5878 -1.1955
  391MOL0     H52741   9.384   8.151   1.462 -1.0197 -1.0213 -0.0792
  391MOL0     H52742   9.269   8.223   1.573 -0.4593 -0.2557 -1.1239
  391MOL0     H52743   9.250   8.011   1.689  1.3725  1.2225  0.1466
  391MOL0     H52744   9.378   7.948   1.589 -0.9891 -1.7849  2.8228
  391MOL0     H52745   9.011   7.988   1.297  3.9473  1.9117 -0.6786
  391MOL0     H52746   8.830   8.066   1.185  0.3785  0.5939  0.1972
  391MOL0     H52747   8.694   8.004   1.290  2.4107 -2.7726  1.5503
  391MOL0     H52748   8.720   8.175   1.248  1.8641  0.3632  0.6069
  391MOL0     H52749   8.418   8.054   1.719  1.7441  0.9380 -3.5580
  391MOL0     H52750   8.166   8.120   1.743 -0.9104  0.2310 -1.6714
  391MOL0     H52751   8.110   8.525   1.819 -0.3468 -3.5011  1.2486
  391MOL0     H52752   8.056   8.575   1.654  2.4990 -1.1301 -1.1817
  391MOL0     H52753   7.865   8.589   1.829  0.5907  0.8564  0.3848
  391MOL0     H52754   7.849   8.491   1.687  2.8013  0.0946 -1.4921
  391MOL0     H52755   7.961   8.339   1.930 -1.5165 -1.7336  2.0551
  391MOL0     H52756   7.849   8.291   1.823 -0.2574  0.0331  0.1582
  391MOL0     H52757   7.776   8.522   2.027  0.7265 -1.0190  1.3407
  391MOL0     H52758   7.666   8.426   1.945  1.0655  2.0587 -2.5669
  391MOL0     H52759   7.779   8.224   2.068 -1.9361  0.3465 -1.8820
  391MOL0     H52760   7.696   8.345   2.170 -0.5166 -0.2165 -1.1841
  391MOL0     H52761   8.009   8.324   2.136  1.2569  0.9990  2.5699
  391MOL0     H52762   7.923   8.468   2.185 -0.7150  0.0645  3.2671
  391MOL0     H52763   7.901   8.195   2.322 -0.3814  1.2167 -0.6828
  391MOL0     H52764   7.848   8.353   2.388  0.4195  1.4571 -0.2849
  391MOL0     H52765   8.076   8.443   2.402  2.3780 -0.1092 -0.7690
  391MOL0     H52766   8.138   8.296   2.331  0.8695  2.6733 -0.0014
  391MOL0     H52767   8.277   8.511   1.619 -1.3045  0.0870  1.1805
  391MOL0     H52768   8.518   8.434   1.607 -0.1499  0.3991  0.6018
  391MOL0     H52769   8.865   8.218   1.723 -1.9346 -1.0895  0.5517
  391MOL0     H52770   9.086   8.138   1.702 -2.3011  3.3642  2.0621
  391MOL0     H52771  10.032   8.439   1.823  0.1186  0.7505  0.0404
  391MOL0     H52772   9.817   8.458   1.942 -0.5638  1.0689  0.2687
  391MOL0     H52773   9.500   8.331   2.138  1.0828 -1.2136  1.0201
  391MOL0     H52774   9.258   8.305   2.249 -1.1875  1.4696  0.5463
  391MOL0     H52775   9.234   8.315   2.671 -0.7703 -1.9770  1.0152
  391MOL0     H52776   9.162   8.468   2.642 -0.5413  0.9000 -0.9641
  391MOL0     H52777   9.004   8.355   2.753  0.8240  0.9759 -0.9973
  391MOL0     H52778   9.010   8.219   2.638 -1.8847 -0.9421  3.2655
  391MOL0     H52779   8.899   8.371   2.454 -0.7130 -0.5220 -1.3876
  391MOL0     H52780   8.890   8.498   2.587  0.4857 -0.1433  0.8729
  391MOL0     H52781   8.762   8.352   2.726 -4.1854 -1.9652 -0.7139
  391MOL0     H52782   8.797   8.216   2.613 -1.7153 -0.4512  0.0753
  391MOL0     H52783   8.472   8.432   2.437 -1.6671  0.5838  2.8015
  391MOL0     H52784   9.388   8.476   2.611  0.1858 -1.5321  0.6683
  391MOL0     H52785   9.616   8.504   2.519 -0.0456  0.8481 -0.0635
  392MOL0     O52786   0.853   5.242  10.061 -0.5395  0.6299  0.1967
  392MOL0     C52787   0.898   5.239   9.946  0.2431 -1.1817  0.4659
  392MOL0     O52788   0.903   5.337   9.846  0.3864 -0.2171  0.3816
  392MOL0     C52789   0.841   5.457   9.874  0.3330 -0.0856 -0.1727
  392MOL0     C52790   0.902   5.569   9.839 -0.3802 -0.0666 -0.9011
  392MOL0     C52791   0.834   5.689   9.827  0.0964  0.2617  0.0521
  392MOL0     C52792   0.703   5.703   9.873 -0.4418  0.3640  0.2257
  392MOL0     O52793   0.646   5.826   9.886  0.0825  0.3306  0.0368
  392MOL0     C52794   0.596   5.874  10.009  0.2461 -0.7150  0.4313
  392MOL0     C52795   0.477   5.961   9.984  0.1787 -0.8057 -0.3141
  392MOL0     C52796   0.407   6.012  10.112 -0.5187 -0.8334  0.8357
  392MOL0     C52797   0.455   6.144  10.166 -0.6651  0.1535  0.4538
  392MOL0     C52798   0.405   6.169  10.310 -0.1999 -0.6551 -0.1950
  392MOL0     C52799   0.461   6.296  10.367 -0.3693  0.0649  0.7483
  392MOL0     C52800   0.444   6.296  10.520 -0.7745  0.7651  0.3759
  392MOL0     C52801   0.338   6.394  10.570  0.6832  0.5737  0.0726
  392MOL0     N52802   0.230   6.421  10.476  0.2861 -0.0429  0.3850
  392MOL0     C52803   0.101   6.385  10.490  0.4553  0.8612 -0.3361
  392MOL0     C52804   0.019   6.459  10.418 -0.2516  0.7442 -0.4249
  392MOL0     C52805  -0.135   6.457  10.416 -0.3097  0.4274 -1.5291
  392MOL0     C52806  -0.192   6.485  10.553  0.9676 -1.1605 -0.0856
  392MOL0     C52807  -0.355   6.498  10.557 -1.2868 -0.4358  0.9623
  392MOL0     C52808  -0.411   6.526  10.694  0.3947 -0.0919  0.0015
  392MOL0     O52809  -0.392   6.657  10.745 -0.4149  0.7113  0.1897
  392MOL0     C52810  -0.508   6.731  10.767  0.0321  1.0282  1.0319
  392MOL0     C52811  -0.589   6.690  10.869 -0.3243 -0.2774  0.8081
  392MOL0     C52812  -0.713   6.753  10.898 -0.0431 -0.6362 -0.4866
  392MOL0     C52813  -0.800   6.693  11.000  1.1782  0.1652 -0.3292
  392MOL0     C52814  -0.756   6.851  10.803 -0.2080 -0.5506 -0.0778
  392MOL0     C52815  -0.895   6.904  10.801  0.6503  0.4569  0.3011
  392MOL0     O52816  -0.994   6.819  10.817  0.2681  0.1464 -0.3832
  392MOL0     C52817  -1.117   6.872  10.820  0.0861  0.4444  0.0264
  392MOL0     C52818  -1.179   6.911  10.696 -0.8556 -0.8227  0.3948
  392MOL0     C52819  -1.294   6.976  10.689  1.0703 -0.3205  0.2180
  392MOL0     C52820  -1.367   7.004  10.813 -0.1386 -0.8618  0.7110
  392MOL0     O52821  -1.494   7.041  10.829  0.2811 -0.7158  0.0215
  392MOL0     C52822  -1.580   7.021  10.717  0.0124  0.1159 -0.0348
  392MOL0     C52823  -1.724   7.063  10.753 -0.5071 -0.0820 -0.2906
  392MOL0     C52824  -1.764   6.985  10.878 -0.0365  0.0887 -0.3669
  392MOL0     C52825  -1.916   6.975  10.895 -0.3807  0.4664 -0.5974
  392MOL0     C52826  -1.951   6.933  11.048 -0.1738  0.1529 -0.0639
  392MOL0     C52827  -1.930   6.782  11.070  0.4415  0.6528 -0.4420
  392MOL0     C52828  -1.934   6.755  11.222  0.7430  0.4000  0.7641
  392MOL0     C52829  -1.940   6.615  11.245 -0.3772  0.0680  0.1590
  392MOL0    Cl52830  -2.092   6.548  11.180  0.5440  0.2233  0.1510
  392MOL0     C52831  -1.303   6.970  10.937 -0.4354  0.8233 -0.0148
  392MOL0     C52832  -1.181   6.904  10.941  0.3629 -0.1315 -0.0524
  392MOL0     O52833  -0.900   7.030  10.789 -0.2863  0.0533 -0.1055
  392MOL0     C52834  -0.661   6.903  10.700 -0.2939  0.0295  0.5168
  392MOL0     C52835  -0.546   6.839  10.685 -0.4040  1.6373  0.3010
  392MOL0     N52836   0.112   6.540  10.351 -0.3242  0.3358 -0.2153
  392MOL0     N52837   0.235   6.523  10.390  0.5010  0.4379  0.5237
  392MOL0     C52838   0.650   5.588   9.926  0.3352  0.2093 -0.3960
  392MOL0     C52839   0.705   5.467   9.915  0.8089  0.9719 -0.6636
  392MOL0     C52840   0.939   5.108   9.894 -0.2945  0.5205 -0.1897
  392MOL0     C52841   1.009   5.087   9.767  0.3658 -0.1412  0.2900
  392MOL0     C52842   1.041   4.962   9.721 -1.2244  0.3774  0.2495
  392MOL0     C52843   1.026   4.845   9.805 -0.5118  0.5361  0.4539
  392MOL0     O52844   1.076   4.721   9.779  0.0046  0.1459 -0.5630
  392MOL0     C52845   1.123   4.697   9.647 -0.1777  0.3243 -0.3476
  392MOL0     C52846   1.196   4.565   9.661  0.3256 -0.2129  0.2443
  392MOL0     C52847   1.325   4.567   9.746 -0.2758  0.7365  0.6623
  392MOL0     C52848   1.386   4.429   9.746 -0.3140 -0.1361  0.4763
  392MOL0     C52849   1.527   4.440   9.786 -0.4008 -0.0612  0.6081
  392MOL0     C52850   1.633   4.463   9.849  0.1145  0.3397  1.5324
  392MOL0     C52851   0.961   4.869   9.928  0.3074  0.0677 -0.4302
  392MOL0     C52852   0.918   4.995   9.971 -0.7363  0.3831 -0.0323
  392MOL0     H52853   1.004   5.555   9.806 -0.6898 -3.6112 -0.7681
  392MOL0     H52854   0.886   5.779   9.797 -0.5652  0.9165  0.8335
  392MOL0     H52855   0.563   5.793  10.074  1.4740  0.0940  2.1549
  392MOL0     H52856   0.671   5.930  10.066 -0.3474  1.0128 -0.4123
  392MOL0     H52857   0.500   6.054   9.931 -1.6381 -0.1804 -0.0684
  392MOL0     H52858   0.403   5.905   9.926 -0.0142 -0.5744 -0.2948
  392MOL0     H52859   0.301   6.034  10.105  0.0495  2.4939  1.0840
  392MOL0     H52860   0.431   5.933  10.185  2.4007 -3.5117 -2.5874
  392MOL0     H52861   0.564   6.140  10.165 -0.6553  0.3317 -0.6585
  392MOL0     H52862   0.425   6.225  10.099  1.4496 -0.2153 -1.0331
  392MOL0     H52863   0.297   6.185  10.321 -0.5007 -1.4069 -1.7456
  392MOL0     H52864   0.425   6.085  10.378 -1.0245 -2.1793 -1.7530
  392MOL0     H52865   0.569   6.292  10.349 -0.7697 -1.5453 -1.7630
  392MOL0     H52866   0.428   6.394  10.329 -0.2160  0.8655  2.5499
  392MOL0     H52867   0.433   6.192  10.553  0.4617  0.0238 -1.3520
  392MOL0     H52868   0.540   6.313  10.570 -0.1438  1.7348 -1.0897
  392MOL0     H52869   0.390   6.489  10.587 -1.0678  1.8919 -1.4883
  392MOL0     H52870   0.302   6.368  10.669 -3.7255  1.8209 -0.9664
  392MOL0     H52871   0.062   6.313  10.562  0.7223  0.5297 -0.5173
  392MOL0     H52872  -0.160   6.537  10.346 -0.8886 -0.5790 -2.5179
  392MOL0     H52873  -0.174   6.363  10.374  0.4839 -0.3453 -0.5936
  392MOL0     H52874  -0.154   6.582  10.587  0.9079 -1.4025  0.7106
  392MOL0     H52875  -0.157   6.416  10.630  0.6935 -2.7847 -1.3717
  392MOL0     H52876  -0.396   6.404  10.517  2.2611 -1.4232 -0.7763
  392MOL0     H52877  -0.385   6.576  10.487 -0.2594 -2.1783 -1.5871
  392MOL0     H52878  -0.357   6.455  10.757 -1.8277  1.0169  3.4586
  392MOL0     H52879  -0.517   6.500  10.704  0.0784  1.4505  0.9509
  392MOL0     H52880  -0.565   6.600  10.925 -2.1733 -1.3507 -0.0282
  392MOL0     H52881  -0.847   6.776  11.055 -0.0424 -0.7353  0.0095
  392MOL0     H52882  -0.892   6.649  10.962 -1.6217  4.7380  0.3989
  392MOL0     H52883  -0.739   6.625  11.061  0.5159 -0.3309 -0.2182
  392MOL0     H52884  -1.139   6.891  10.597 -0.7109  0.8148  0.0818
  392MOL0     H52885  -1.340   7.005  10.595 -3.0567 -0.9672  1.8182
  392MOL0     H52886  -1.547   7.086  10.636  1.6074  0.2708  0.6937
  392MOL0     H52887  -1.576   6.918  10.680 -0.9959  0.1416 -0.2343
  392MOL0     H52888  -1.726   7.172  10.763  0.3664  0.0081 -1.0554
  392MOL0     H52889  -1.791   7.032  10.672  0.3571  0.9459 -1.4201
  392MOL0     H52890  -1.744   7.039  10.971 -1.5117  0.1398 -0.0464
  392MOL0     H52891  -1.721   6.884  10.884  0.2756  0.2557  0.3836
  392MOL0     H52892  -1.968   7.064  10.859  1.0361  1.9747  0.9239
  392MOL0     H52893  -1.953   6.894  10.831  1.4314 -0.3955 -0.6181
  392MOL0     H52894  -2.059   6.948  11.060 -0.5917 -2.9080  0.8408
  392MOL0     H52895  -1.891   6.986  11.123  0.2075 -1.7380  1.0204
  392MOL0     H52896  -2.013   6.730  11.021 -2.0693  2.0189  2.0226
  392MOL0     H52897  -1.837   6.745  11.026  1.2018  0.0725  1.5688
  392MOL0     H52898  -2.017   6.801  11.276  1.1181  0.4020  1.3598
  392MOL0     H52899  -1.841   6.791  11.268  1.8434 -1.2532 -0.0566
  392MOL0     H52900  -1.922   6.603  11.352  4.6062  0.5247 -0.3939
  392MOL0     H52901  -1.851   6.561  11.211 -1.3123 -1.0213 -0.6427
  392MOL0     H52902  -1.344   6.981  11.037 -1.2816 -2.2234  0.1040
  392MOL0     H52903  -1.139   6.867  11.034  0.1350 -1.8637 -0.5971
  392MOL0     H52904  -0.682   6.992  10.641 -1.0539 -1.2440 -1.2010
  392MOL0     H52905  -0.483   6.874  10.604  0.9455 -1.1075  0.0302
  392MOL0     H52906   0.554   5.583   9.976  1.8432 -1.0072  2.6852
  392MOL0     H52907   0.644   5.379   9.936  2.9782  0.2075  3.5135
  392MOL0     H52908   1.025   5.164   9.692  1.8758  0.7518  1.4653
  392MOL0     H52909   1.090   4.953   9.624  0.9316  0.2949  1.2896
  392MOL0     H52910   1.039   4.689   9.577 -2.0786  1.7257  1.6403
  392MOL0     H52911   1.182   4.785   9.619 -0.5362  1.0616  1.1369
  392MOL0     H52912   1.216   4.524   9.562 -0.1375 -0.7584  0.3709
  392MOL0     H52913   1.118   4.498   9.699 -1.1805  1.2039 -0.2272
  392MOL0     H52914   1.303   4.595   9.850  1.1597  0.3134  1.1075
  392MOL0     H52915   1.394   4.642   9.706  4.5456 -3.5465 -0.1327
  392MOL0     H52916   1.391   4.389   9.645 -1.0223  1.8587 -0.4122
  392MOL0     H52917   1.334   4.355   9.806  0.4135 -1.0089  0.0499
  392MOL0     H52918   1.723   4.488   9.902  0.5456  2.0710  0.1146
  392MOL0     H52919   0.925   4.778   9.975 -1.7521  0.6756 -0.7355
  392MOL0     H52920   0.873   5.001  10.070  1.8349 -1.9175  1.4398
  393MOL0     O52921   4.330   9.799   0.565 -0.5786 -0.4282  0.3991
  393MOL0     C52922   4.252   9.707   0.552  0.5217 -0.1409 -0.3461
  393MOL0     O52923   4.123   9.706   0.571  0.0552 -0.1599  0.1716
  393MOL0     C52924   4.064   9.818   0.635  0.2482 -0.0971  0.2934
  393MOL0     C52925   3.988   9.905   0.569  0.1157 -0.0116 -0.8699
  393MOL0     C52926   3.906   9.996   0.636  0.3471 -0.2485 -0.0781
  393MOL0     C52927   3.917  10.006   0.775  1.5026  0.8468  0.5196
  393MOL0     O52928   3.821  10.094   0.823 -0.0535  0.2460 -0.4744
  393MOL0     C52929   3.815  10.132   0.970  0.7900  0.7780  0.2841
  393MOL0     C52930   3.681  10.183   1.012 -0.0245  0.0043 -0.9161
  393MOL0     C52931   3.627  10.302   0.938  0.1050  0.1046  0.2091
  393MOL0     C52932   3.485  10.354   0.990  0.2795  0.1916 -0.5403
  393MOL0     C52933   3.429  10.466   0.906  0.2445  0.7621 -0.6908
  393MOL0     C52934   3.356  10.413   0.783  0.1874  0.1009  0.5105
  393MOL0     C52935   3.253  10.502   0.709 -0.9311 -0.0323  0.1419
  393MOL0     C52936   3.304  10.645   0.675  1.5276  1.2028 -0.3644
  393MOL0     N52937   3.224  10.723   0.581 -0.7345  0.1633  0.5869
  393MOL0     C52938   3.250  10.851   0.546 -0.7176 -0.7952  0.0016
  393MOL0     C52939   3.152  10.897   0.467  0.8858 -0.3428  0.5691
  393MOL0     C52940   3.153  11.041   0.407  0.1720  0.6491 -0.5993
  393MOL0     C52941   3.014  11.099   0.371 -0.1043 -0.2777  0.1524
  393MOL0     C52942   2.952  11.038   0.238 -0.1723 -0.4086 -0.2105
  393MOL0     C52943   2.809  11.073   0.223  0.1227 -0.1332 -0.0279
  393MOL0     O52944   2.750  10.996   0.113 -0.4321 -1.5080 -0.7357
  393MOL0     C52945   2.615  11.018   0.093  0.2611  0.6331  0.4494
  393MOL0     C52946   2.521  11.055   0.189 -0.5643 -0.6026 -0.2424
  393MOL0     C52947   2.383  11.068   0.166 -0.6252  0.2538 -0.0793
  393MOL0     C52948   2.303  11.140   0.267 -0.1807  0.5775 -0.6715
  393MOL0     C52949   2.332  11.039   0.033  0.3543  0.2455 -0.2639
  393MOL0     C52950   2.188  11.047  -0.007 -0.5890 -0.6062  0.4426
  393MOL0     O52951   2.154  11.062  -0.140 -0.1554 -0.7262  0.8806
  393MOL0     C52952   2.021  11.037  -0.170  0.6913  0.0897  0.7076
  393MOL0     C52953   1.935  11.143  -0.215 -0.1706 -0.1304 -0.9103
  393MOL0     C52954   1.809  11.113  -0.271  0.0225  0.5286  0.2986
  393MOL0     C52955   1.764  10.984  -0.269 -0.0509  0.2972  0.7624
  393MOL0     O52956   1.640  10.954  -0.315  1.1246  0.0240  0.4811
  393MOL0     C52957   1.587  10.999  -0.441 -1.3743 -0.2363 -0.6456
  393MOL0     C52958   1.460  10.933  -0.503  0.5676 -0.3334  0.7165
  393MOL0     C52959   1.470  10.787  -0.533  0.2069 -0.0846  0.9302
  393MOL0     C52960   1.341  10.728  -0.581 -0.1581 -0.0314  0.4107
  393MOL0     C52961   1.360  10.579  -0.616 -0.0843 -0.5912 -0.3968
  393MOL0     C52962   1.232  10.504  -0.644 -0.4342  0.7122  0.8002
  393MOL0     C52963   1.258  10.376  -0.717  0.2266 -0.0537  0.8764
  393MOL0     C52964   1.126  10.293  -0.746  0.9756 -0.1839  0.3113
  393MOL0    Cl52965   0.979  10.383  -0.804  0.0349  0.3837  0.0393
  393MOL0     C52966   1.841  10.880  -0.216 -0.1930 -0.4980 -0.1952
  393MOL0     C52967   1.978  10.906  -0.173 -0.7509  0.5073  0.2289
  393MOL0     O52968   2.106  11.056   0.079  0.0328  0.3758  0.5408
  393MOL0     C52969   2.423  10.997  -0.061 -0.1148  0.0071  0.6338
  393MOL0     C52970   2.559  10.979  -0.038 -0.1272 -0.4958  0.0324
  393MOL0     N52971   3.067  10.791   0.446  0.3590  0.2147 -0.1603
  393MOL0     N52972   3.110  10.689   0.515  0.1730 -0.0116 -0.2444
  393MOL0     C52973   4.002   9.924   0.849  0.4236 -0.1888  0.0310
  393MOL0     C52974   4.077   9.834   0.779 -1.3045 -0.7390 -0.7383
  393MOL0     C52975   4.310   9.586   0.495 -0.3059 -0.2874 -0.5322
  393MOL0     C52976   4.218   9.484   0.459  0.3740 -0.2004 -0.5853
  393MOL0     C52977   4.274   9.366   0.402 -1.0675 -0.3742 -0.0570
  393MOL0     C52978   4.410   9.337   0.389  0.8638 -0.7245  0.0244
  393MOL0     O52979   4.455   9.228   0.325 -0.5264  0.2116 -0.1175
  393MOL0     C52980   4.421   9.101   0.393 -0.5924  0.0010  0.7034
  393MOL0     C52981   4.549   9.064   0.459  0.7642 -0.4231 -0.1455
  393MOL0     C52982   4.645   9.001   0.351 -0.1469  0.4031 -0.2374
  393MOL0     C52983   4.786   9.000   0.401 -0.2458 -0.3366  0.7032
  393MOL0     C52984   4.858   8.939   0.299 -0.0372 -0.1175  1.4733
  393MOL0     C52985   4.916   8.889   0.203 -0.3486  0.0533  0.0561
  393MOL0     C52986   4.496   9.436   0.442  0.5044 -0.5280 -0.5201
  393MOL0     C52987   4.446   9.561   0.488  0.6757 -0.4678  0.9709
  393MOL0     H52988   3.981   9.903   0.461  1.3440 -0.5110 -0.9611
  393MOL0     H52989   3.840  10.055   0.573 -0.0177  0.5323  1.0028
  393MOL0     H52990   3.842  10.047   1.033  1.3875 -0.0874 -1.0872
  393MOL0     H52991   3.885  10.216   0.969  1.5741  0.4109 -5.0371
  393MOL0     H52992   3.605  10.105   1.006 -0.3171 -0.0522  2.0570
  393MOL0     H52993   3.683  10.212   1.118 -4.8770 -0.2349 -0.5407
  393MOL0     H52994   3.697  10.387   0.938  1.5362 -0.9820 -1.9745
  393MOL0     H52995   3.622  10.274   0.832  0.8789  0.7624 -0.0166
  393MOL0     H52996   3.417  10.269   0.993 -1.1005  1.2991  1.1141
  393MOL0     H52997   3.507  10.391   1.091  1.7269  1.7660 -1.3782
  393MOL0     H52998   3.353  10.519   0.965  1.5807  1.6658  0.2512
  393MOL0     H52999   3.508  10.538   0.884 -0.0389  2.1654  2.3389
  393MOL0     H53000   3.426  10.379   0.707  0.7719 -0.5243  1.3095
  393MOL0     H53001   3.293  10.332   0.821 -1.2329  1.4026  1.0469
  393MOL0     H53002   3.238  10.445   0.617  0.2849 -0.1149 -0.0223
  393MOL0     H53003   3.160  10.506   0.767  0.9595  1.7676  3.3623
  393MOL0     H53004   3.410  10.635   0.650  1.6912 -0.5815  0.9111
  393MOL0     H53005   3.295  10.700   0.769 -1.9473 -2.8091  1.9737
  393MOL0     H53006   3.335  10.905   0.587 -0.1387 -0.9749 -0.9407
  393MOL0     H53007   3.211  11.098   0.480  0.6977 -1.3761  0.6279
  393MOL0     H53008   3.217  11.035   0.318  0.9015  3.2964 -0.3465
  393MOL0     H53009   3.029  11.205   0.347 -1.5029 -0.2652 -0.7450
  393MOL0     H53010   2.944  11.094   0.454  0.6256 -2.3284  0.7086
  393MOL0     H53011   2.951  10.930   0.258  2.0652 -0.2874  0.8803
  393MOL0     H53012   3.001  11.067   0.144  2.9895 -2.1779  0.7334
  393MOL0     H53013   2.802  11.179   0.197  1.0171 -0.1547 -0.3973
  393MOL0     H53014   2.756  11.061   0.318  2.7773  0.5524  1.6389
  393MOL0     H53015   2.554  11.067   0.291 -0.9830 -3.0939  0.2473
  393MOL0     H53016   2.232  11.066   0.304  1.2249 -1.4454 -1.8170
  393MOL0     H53017   2.368  11.177   0.348  0.8158 -0.8868 -0.7723
  393MOL0     H53018   2.253  11.222   0.215  2.1915  0.4056 -3.5051
  393MOL0     H53019   1.974  11.244  -0.208  0.9850 -0.6293  0.5524
  393MOL0     H53020   1.730  11.180  -0.304 -0.5005 -0.8570 -1.3853
  393MOL0     H53021   1.547  11.099  -0.420 -2.4541 -1.1110  1.8095
  393MOL0     H53022   1.671  11.000  -0.511 -1.2553 -2.9801 -0.6565
  393MOL0     H53023   1.385  10.942  -0.424 -0.1254  3.2120 -0.1495
  393MOL0     H53024   1.437  10.994  -0.591  0.7753  2.8465  2.6897
  393MOL0     H53025   1.517  10.721  -0.460  3.1441 -0.9182 -1.5348
  393MOL0     H53026   1.530  10.774  -0.623 -0.3535 -3.1024  0.8882
  393MOL0     H53027   1.278  10.732  -0.492 -2.6184  2.5749 -1.2680
  393MOL0     H53028   1.280  10.779  -0.657 -2.0767 -2.4054  0.2204
  393MOL0     H53029   1.422  10.533  -0.538  1.5112  1.1672 -0.5388
  393MOL0     H53030   1.407  10.577  -0.715 -1.3057 -0.2221 -0.9937
  393MOL0     H53031   1.178  10.481  -0.552 -2.7294  0.8205 -0.4410
  393MOL0     H53032   1.176  10.572  -0.709  0.0122  0.6989  0.4006
  393MOL0     H53033   1.336  10.317  -0.668 -0.3310 -1.1484  0.4938
  393MOL0     H53034   1.298  10.419  -0.809  1.4789  1.5533  2.1196
  393MOL0     H53035   1.098  10.226  -0.664  0.9023 -1.3415 -0.6258
  393MOL0     H53036   1.153  10.228  -0.830  0.4058 -0.5307  0.3879
  393MOL0     H53037   1.797  10.781  -0.211  2.8664 -2.0085 -0.6235
  393MOL0     H53038   2.040  10.827  -0.131  0.9995  2.4433  1.4331
  393MOL0     H53039   2.391  10.985  -0.164  0.5402  1.5296  0.2204
  393MOL0     H53040   2.629  10.958  -0.119  0.4403  0.3209  0.2950
  393MOL0     H53041   4.019   9.937   0.955 -4.9316 -1.1343  1.2645
  393MOL0     H53042   4.140   9.764   0.832  0.0824  0.9723 -0.0407
  393MOL0     H53043   4.110   9.478   0.472  0.2397 -0.1820 -1.6332
  393MOL0     H53044   4.192   9.303   0.369 -0.9947 -1.5800  1.8810
  393MOL0     H53045   4.336   9.107   0.462 -1.6237  2.8146 -0.6474
  393MOL0     H53046   4.399   9.031   0.312 -0.8374  0.9397 -0.0604
  393MOL0     H53047   4.534   8.994   0.542  1.6653  0.9986  1.2740
  393MOL0     H53048   4.608   9.144   0.505  1.5259 -0.5653 -0.8340
  393MOL0     H53049   4.632   9.065   0.263 -3.3539  2.6388  1.6473
  393MOL0     H53050   4.616   8.901   0.318 -1.8526  0.3990  1.0888
  393MOL0     H53051   4.802   8.928   0.483 -0.3023 -0.9775  0.1602
  393MOL0     H53052   4.831   9.098   0.416  0.8856 -0.8108  0.5735
  393MOL0     H53053   4.983   8.857   0.125  1.4415 -1.4421  2.0755
  393MOL0     H53054   4.604   9.423   0.438  0.4231 -2.2102  1.2224
  393MOL0     H53055   4.519   9.634   0.521  0.1709  0.1802  0.6577
  394MOL0     O53056   7.336   0.087   2.309  0.4055 -0.2844  0.2945
  394MOL0     C53057   7.374   0.201   2.297 -0.8669  0.1278  0.6232
  394MOL0     O53058   7.307   0.316   2.296 -0.4290 -0.8419 -0.0389
  394MOL0     C53059   7.173   0.314   2.295  0.6958  0.4014 -0.0181
  394MOL0     C53060   7.095   0.381   2.196  0.1369 -0.3856  0.0705
  394MOL0     C53061   6.951   0.389   2.199 -0.9978  0.1302  0.7404
  394MOL0     C53062   6.886   0.328   2.307  1.0277 -0.1143  0.4884
  394MOL0     O53063   6.745   0.344   2.301  0.8507 -0.2021  0.4883
  394MOL0     C53064   6.687   0.317   2.431  0.3207 -0.2330 -0.0562
  394MOL0     C53065   6.551   0.389   2.444  0.4073  1.2643  0.4203
  394MOL0     C53066   6.432   0.289   2.470 -0.9447  0.5331  0.1379
  394MOL0     C53067   6.324   0.377   2.525  0.0966  0.8374  0.7751
  394MOL0     C53068   6.191   0.288   2.523 -0.1016 -1.1007 -0.4492
  394MOL0     C53069   6.073   0.376   2.580  0.1450 -0.9853  1.6892
  394MOL0     C53070   5.957   0.293   2.634 -0.2635 -0.9145 -0.9733
  394MOL0     C53071   5.836   0.388   2.660 -0.2098  0.4621  1.0032
  394MOL0     N53072   5.715   0.322   2.719 -0.4198 -0.6021  0.4026
  394MOL0     C53073   5.647   0.215   2.659  0.4731  0.1148  0.7888
  394MOL0     C53074   5.566   0.161   2.761  0.4793 -0.3766  0.1129
  394MOL0     C53075   5.487   0.032   2.741  0.7533  0.4189  0.9186
  394MOL0     C53076   5.333   0.055   2.752  0.2720  0.0695 -0.1967
  394MOL0     C53077   5.270   0.069   2.888  0.6183  0.5718  0.8996
  394MOL0     C53078   5.119   0.075   2.880  0.0141 -1.2223  0.9350
  394MOL0     O53079   5.077   0.195   2.815 -0.7814 -0.4810 -0.0997
  394MOL0     C53080   4.944   0.216   2.803 -0.6120  0.0800  0.1315
  394MOL0     C53081   4.924   0.320   2.712  0.2163 -0.3514 -0.2942
  394MOL0     C53082   4.801   0.356   2.667 -0.1187  0.0326  0.6003
  394MOL0     C53083   4.784   0.461   2.560  0.4867  0.1342  1.0947
  394MOL0     C53084   4.689   0.301   2.730  0.5470 -0.8321 -0.2977
  394MOL0     C53085   4.557   0.340   2.693  0.2497  0.7283  0.6072
  394MOL0     O53086   4.517   0.463   2.738 -0.0752 -0.4916 -0.6185
  394MOL0     C53087   4.399   0.513   2.700 -1.0754  0.0962 -0.2326
  394MOL0     C53088   4.389   0.591   2.584  0.0975 -1.3382 -0.0723
  394MOL0     C53089   4.280   0.677   2.562  0.3353  0.2191 -0.0311
  394MOL0     C53090   4.186   0.699   2.660 -0.0458 -0.1141  0.4666
  394MOL0     O53091   4.087   0.788   2.632 -0.3803  0.2074  0.5372
  394MOL0     C53092   3.966   0.756   2.689 -0.2079 -0.5268 -0.5519
  394MOL0     C53093   3.849   0.820   2.615  0.8085  0.0147 -0.3745
  394MOL0     C53094   3.836   0.773   2.467  0.2483 -0.7838 -0.0124
  394MOL0     C53095   3.703   0.815   2.399  0.3827  0.0039 -0.6511
  394MOL0     C53096   3.700   0.805   2.243 -0.0970  0.0157 -0.5593
  394MOL0     C53097   3.577   0.872   2.193 -0.0242  0.1348  0.0483
  394MOL0     C53098   3.546   0.840   2.042 -0.0679  0.3977 -0.4923
  394MOL0     C53099   3.427   0.907   1.981 -1.3855  0.6044  0.6204
  394MOL0    Cl53100   3.448   1.085   1.985 -0.5127  0.0020 -0.5933
  394MOL0     C53101   4.193   0.618   2.779  0.3144  0.6792  0.0414
  394MOL0     C53102   4.301   0.525   2.800  0.0324 -0.2013  0.4309
  394MOL0     O53103   4.485   0.244   2.661 -0.3603 -0.2429 -0.0304
  394MOL0     C53104   4.707   0.188   2.821  0.8833 -0.1188  0.0110
  394MOL0     C53105   4.837   0.144   2.847 -0.3370  0.1383 -0.2526
  394MOL0     N53106   5.583   0.234   2.872 -0.4001 -0.2294  0.3743
  394MOL0     N53107   5.678   0.331   2.850  1.0677 -0.9778 -0.0984
  394MOL0     C53108   6.966   0.267   2.409 -0.0634 -1.3732  0.5706
  394MOL0     C53109   7.103   0.264   2.402  0.2350  0.6053  0.1550
  394MOL0     C53110   7.520   0.219   2.332  0.1603  0.0653 -0.5100
  394MOL0     C53111   7.574   0.350   2.325 -0.4562  0.0968 -0.0393
  394MOL0     C53112   7.702   0.375   2.366  1.4554  1.1742  0.2900
  394MOL0     C53113   7.781   0.281   2.430 -0.0722  0.3184 -0.6973
  394MOL0     O53114   7.900   0.281   2.494 -0.1631  0.1605 -0.7048
  394MOL0     C53115   7.990   0.384   2.469 -1.0194  0.1778 -0.6188
  394MOL0     C53116   7.973   0.507   2.560  0.2144 -0.5737  0.6696
  394MOL0     C53117   8.062   0.631   2.524  0.5640 -0.0492  0.4139
  394MOL0     C53118   8.209   0.615   2.527  0.4137 -0.4428 -0.6117
  394MOL0     C53119   8.255   0.545   2.408 -0.0409  0.0084 -0.0567
  394MOL0     C53120   8.272   0.504   2.297 -0.5513  0.5945  0.2497
  394MOL0     C53121   7.726   0.150   2.433  0.0699 -0.9726 -0.6474
  394MOL0     C53122   7.598   0.118   2.387  0.3948 -0.2982  0.7838
  394MOL0     H53123   7.130   0.434   2.107 -0.9481  0.2733  0.0116
  394MOL0     H53124   6.895   0.425   2.114  1.6570 -0.3443 -1.3461
  394MOL0     H53125   6.679   0.208   2.428  0.3215 -0.2127 -1.8143
  394MOL0     H53126   6.752   0.341   2.515  5.1426 -0.8165 -3.2421
  394MOL0     H53127   6.545   0.469   2.519 -2.5545 -0.1438  1.8318
  394MOL0     H53128   6.535   0.434   2.345  1.2824 -0.5298 -0.5751
  394MOL0     H53129   6.402   0.244   2.375  0.1386 -0.2652  0.1612
  394MOL0     H53130   6.463   0.213   2.542 -0.2795 -0.2199 -0.9171
  394MOL0     H53131   6.351   0.410   2.626  0.6761  0.8755  0.6120
  394MOL0     H53132   6.321   0.469   2.466 -0.9228  0.5350  0.3516
  394MOL0     H53133   6.170   0.260   2.419 -1.4804 -0.3565 -0.3954
  394MOL0     H53134   6.201   0.205   2.594 -1.0702  0.5302  1.7220
  394MOL0     H53135   6.109   0.446   2.655  2.0330 -1.0936  0.9331
  394MOL0     H53136   6.040   0.440   2.497 -3.4786 -2.1879  2.0325
  394MOL0     H53137   5.945   0.218   2.554  3.9997 -2.5421 -0.3707
  394MOL0     H53138   5.984   0.238   2.725 -1.9242 -0.8092 -0.3852
  394MOL0     H53139   5.793   0.424   2.566  1.4358 -0.1321 -0.0262
  394MOL0     H53140   5.856   0.475   2.723 -1.7853  0.0109  2.2139
  394MOL0     H53141   5.658   0.179   2.557  1.3280  1.6842  0.3045
  394MOL0     H53142   5.504  -0.002   2.639 -0.8431 -1.4891  1.2172
  394MOL0     H53143   5.535  -0.047   2.799  1.2487  0.5788  0.7267
  394MOL0     H53144   5.284  -0.030   2.703  0.9840 -1.4010  1.5181
  394MOL0     H53145   5.310   0.145   2.694  0.7681 -0.1724 -0.7846
  394MOL0     H53146   5.313   0.147   2.951  3.2749 -0.5993  0.6516
  394MOL0     H53147   5.292  -0.026   2.937 -0.5259  0.7509  1.8135
  394MOL0     H53148   5.078   0.078   2.981  0.1892  0.3099  0.9933
  394MOL0     H53149   5.066  -0.000   2.822 -0.7768 -0.2990  0.4330
  394MOL0     H53150   5.014   0.371   2.677  0.1656  0.8878  1.2448
  394MOL0     H53151   4.880   0.513   2.547  0.8636 -0.0162  2.9271
  394MOL0     H53152   4.752   0.418   2.466  0.0282  0.6108  1.0326
  394MOL0     H53153   4.705   0.534   2.578  1.5267  1.1837  1.5984
  394MOL0     H53154   4.477   0.608   2.523  1.1272  1.9153  2.0304
  394MOL0     H53155   4.272   0.739   2.474 -0.9401  0.8067  0.4712
  394MOL0     H53156   3.949   0.648   2.685 -1.1463 -0.3731 -1.1793
  394MOL0     H53157   3.965   0.803   2.787 -2.4718  1.4856 -1.4453
  394MOL0     H53158   3.753   0.793   2.660  0.8737  0.9938  0.4025
  394MOL0     H53159   3.862   0.928   2.631 -1.5020  0.0466  2.1125
  394MOL0     H53160   3.861   0.667   2.465  2.3245 -0.3570  0.5946
  394MOL0     H53161   3.917   0.823   2.413 -1.4179  0.9474 -1.0296
  394MOL0     H53162   3.630   0.751   2.449 -0.0796  0.3444 -0.8782
  394MOL0     H53163   3.680   0.918   2.429  1.0152 -0.1491  0.3921
  394MOL0     H53164   3.688   0.701   2.213 -2.6889 -0.0503  0.4507
  394MOL0     H53165   3.788   0.853   2.201  0.7995  2.1630  3.2938
  394MOL0     H53166   3.488   0.845   2.252  1.0102  0.2134  1.7186
  394MOL0     H53167   3.586   0.980   2.207  1.7885  0.1817 -1.1930
  394MOL0     H53168   3.543   0.731   2.030  2.0898  0.3922 -1.4899
  394MOL0     H53169   3.636   0.879   1.994  2.5366 -1.8411  2.1684
  394MOL0     H53170   3.336   0.870   2.029 -1.5465 -1.0176 -0.8714
  394MOL0     H53171   3.420   0.866   1.880 -1.2991 -1.5864  1.4687
  394MOL0     H53172   4.128   0.635   2.864  1.0423 -0.2978  0.8247
  394MOL0     H53173   4.307   0.472   2.894 -3.4917 -1.7700 -0.0877
  394MOL0     H53174   4.621   0.147   2.872 -0.2722  0.8475 -1.0853
  394MOL0     H53175   4.845   0.061   2.917 -0.9953 -0.4650 -0.8708
  394MOL0     H53176   6.915   0.204   2.481  0.0541 -3.2301 -0.8978
  394MOL0     H53177   7.160   0.217   2.481 -0.1774 -1.1513 -0.5448
  394MOL0     H53178   7.509   0.426   2.282  0.4798  2.7387  2.8178
  394MOL0     H53179   7.730   0.480   2.365  0.2899  1.4924  0.2410
  394MOL0     H53180   8.094   0.350   2.470 -0.6105  1.0175 -3.5269
  394MOL0     H53181   7.974   0.419   2.367 -1.1066  0.6270 -0.4495
  394MOL0     H53182   7.977   0.482   2.667  0.2303 -0.4668  0.6948
  394MOL0     H53183   7.868   0.521   2.534  0.5279 -1.8602 -1.5821
  394MOL0     H53184   8.027   0.711   2.590  0.3450 -0.4979  0.8543
  394MOL0     H53185   8.037   0.671   2.426 -0.5570  0.5581  0.9235
  394MOL0     H53186   8.231   0.555   2.616 -2.3064  0.9486  1.1314
  394MOL0     H53187   8.251   0.716   2.530  0.9721 -0.6980  1.1227
  394MOL0     H53188   8.278   0.490   2.190  2.8292 -1.1719  0.5352
  394MOL0     H53189   7.779   0.077   2.495 -0.5667 -2.4976 -1.8279
  394MOL0     H53190   7.548   0.023   2.402 -0.4226 -0.3266 -1.7143
  395MOL0     O53191   2.752   9.512   2.587  0.1309  0.0935  0.2697
  395MOL0     C53192   2.651   9.522   2.660 -1.1266  0.2299 -0.3055
  395MOL0     O53193   2.643   9.492   2.801  0.1101 -0.9526  0.9315
  395MOL0     C53194   2.765   9.439   2.848 -0.4761 -0.9195  0.2361
  395MOL0     C53195   2.826   9.489   2.965  0.4229 -0.7771 -1.5684
  395MOL0     C53196   2.941   9.433   3.020 -0.5229  0.2316  0.2596
  395MOL0     C53197   3.000   9.317   2.963 -0.4745  0.2717 -0.2417
  395MOL0     O53198   3.123   9.250   2.999 -0.6947 -0.4858 -0.0431
  395MOL0     C53199   3.191   9.307   3.116  0.3644  0.2946  0.6590
  395MOL0     C53200   3.306   9.211   3.151 -0.6799 -0.1347 -0.5262
  395MOL0     C53201   3.408   9.282   3.255  0.2667  0.0965 -0.5017
  395MOL0     C53202   3.496   9.386   3.182  0.8465 -1.0403 -0.8657
  395MOL0     C53203   3.546   9.498   3.273  0.0038 -1.0172 -0.4414
  395MOL0     C53204   3.612   9.449   3.403 -0.3654 -0.3059  0.7431
  395MOL0     C53205   3.594   9.543   3.524  0.1314  0.3965  0.2907
  395MOL0     C53206   3.628   9.480   3.656  0.8338  0.0422 -0.5668
  395MOL0     N53207   3.524   9.386   3.713 -0.4871 -0.4699  0.6496
  395MOL0     C53208   3.389   9.386   3.701  0.1268  0.1534 -0.4022
  395MOL0     C53209   3.352   9.262   3.737 -0.2119  0.5775 -0.1475
  395MOL0     C53210   3.211   9.203   3.723  0.8293  0.0085 -0.0185
  395MOL0     C53211   3.170   9.202   3.580  0.3094 -0.0397  0.1799
  395MOL0     C53212   3.077   9.088   3.546 -0.0469 -0.7040  0.5835
  395MOL0     C53213   3.005   9.102   3.406 -0.1371  0.9290 -0.7893
  395MOL0     O53214   2.933   9.228   3.408 -0.0932 -0.0882 -0.7603
  395MOL0     C53215   2.821   9.245   3.329  0.3639  0.4603 -0.5618
  395MOL0     C53216   2.721   9.336   3.361 -0.4367 -1.0009  1.2053
  395MOL0     C53217   2.607   9.342   3.275 -0.6615 -0.1635 -1.0044
  395MOL0     C53218   2.485   9.417   3.328  0.0483 -0.0148 -0.2612
  395MOL0     C53219   2.605   9.276   3.151 -0.3275  0.5156 -0.2925
  395MOL0     C53220   2.509   9.299   3.044 -0.0375  0.2782 -0.6829
  395MOL0     O53221   2.503   9.205   2.952 -0.3945  1.0221  0.3009
  395MOL0     C53222   2.393   9.213   2.872 -0.0712 -0.4465 -0.6047
  395MOL0     C53223   2.404   9.279   2.755 -0.2572 -0.9029 -0.5171
  395MOL0     C53224   2.292   9.289   2.669 -0.2444  0.1529 -0.4841
  395MOL0     C53225   2.173   9.236   2.712  0.0415 -0.5638 -0.7019
  395MOL0     O53226   2.065   9.225   2.629  0.2344 -0.2705 -0.9423
  395MOL0     C53227   2.064   9.268   2.494 -0.0928  0.2737 -0.1563
  395MOL0     C53228   1.927   9.279   2.445 -0.1596 -0.1600 -0.8539
  395MOL0     C53229   1.873   9.143   2.405 -0.4121  0.5884  0.5499
  395MOL0     C53230   1.736   9.159   2.339 -0.9595 -0.2788  0.1388
  395MOL0     C53231   1.677   9.029   2.298 -0.1542 -0.0681  0.2704
  395MOL0     C53232   1.730   8.995   2.162 -0.5802 -0.0090 -0.1374
  395MOL0     C53233   1.628   8.943   2.067  0.4134  0.1314 -1.2518
  395MOL0     C53234   1.687   8.937   1.925  0.2393  0.0181 -0.7459
  395MOL0    Cl53235   1.714   9.104   1.852  0.2970 -0.5582 -0.2884
  395MOL0     C53236   2.158   9.173   2.840  0.8367 -0.1807 -0.8360
  395MOL0     C53237   2.266   9.166   2.917  0.1098  0.1343  0.1282
  395MOL0     O53238   2.434   9.401   3.046  0.0536 -0.3772  0.5362
  395MOL0     C53239   2.713   9.187   3.118  0.0090 -0.4076 -0.0999
  395MOL0     C53240   2.816   9.175   3.210  0.2547  0.4467  0.0179
  395MOL0     N53241   3.462   9.194   3.783  0.4622 -1.5843 -0.4659
  395MOL0     N53242   3.564   9.269   3.760 -0.3318  0.0218  0.1480
  395MOL0     C53243   2.934   9.269   2.849  0.4617 -0.5452 -0.1310
  395MOL0     C53244   2.826   9.332   2.786  0.1531  0.3540  0.0858
  395MOL0     C53245   2.526   9.558   2.591 -0.3249  0.1189 -0.5274
  395MOL0     C53246   2.408   9.581   2.666  0.2370  0.3964 -0.0880
  395MOL0     C53247   2.282   9.619   2.620  0.1851  0.8975  0.3265
  395MOL0     C53248   2.278   9.644   2.481 -0.6235 -0.2009 -0.6521
  395MOL0     O53249   2.166   9.669   2.407 -0.2577  0.3906 -0.8927
  395MOL0     C53250   2.108   9.800   2.435  0.2098 -0.0788 -0.2137
  395MOL0     C53251   1.962   9.819   2.388  0.0307 -0.0995  0.5524
  395MOL0     C53252   1.858   9.720   2.456  0.2488  0.2311 -0.5229
  395MOL0     C53253   1.744   9.663   2.366  0.3420  0.2720 -0.2284
  395MOL0     C53254   1.630   9.662   2.457  0.0949 -0.4162  0.2435
  395MOL0     C53255   1.544   9.661   2.538 -0.1869  0.5307 -0.8418
  395MOL0     C53256   2.388   9.623   2.400 -1.3048 -0.1114  0.4183
  395MOL0     C53257   2.515   9.581   2.453  0.3837  0.6846  0.0028
  395MOL0     H53258   2.781   9.575   3.014 -0.4135 -1.9393 -0.2387
  395MOL0     H53259   2.978   9.488   3.106  0.3359  0.8481 -0.4921
  395MOL0     H53260   3.228   9.403   3.079 -0.5970  1.1423  1.8128
  395MOL0     H53261   3.118   9.323   3.196 -0.3527 -1.5944  0.4377
  395MOL0     H53262   3.252   9.130   3.200 -1.8624  0.1113 -1.4009
  395MOL0     H53263   3.345   9.151   3.068  0.6216  0.5912 -0.4742
  395MOL0     H53264   3.355   9.325   3.341 -1.1132 -1.9137 -0.2722
  395MOL0     H53265   3.481   9.214   3.299  0.7194 -0.1510 -1.5994
  395MOL0     H53266   3.580   9.337   3.133  4.5800  2.7951  1.0276
  395MOL0     H53267   3.434   9.434   3.106 -0.7768  0.9654  1.5570
  395MOL0     H53268   3.605   9.571   3.218  0.6531 -0.2098  1.2496
  395MOL0     H53269   3.455   9.554   3.298  0.6325 -0.2403  0.1326
  395MOL0     H53270   3.564   9.356   3.433  1.0775 -0.7590  1.7684
  395MOL0     H53271   3.717   9.420   3.395 -0.9356 -2.8326  1.6369
  395MOL0     H53272   3.647   9.639   3.515 -0.6079  0.8151  0.3009
  395MOL0     H53273   3.491   9.578   3.538  0.5907  1.7481  0.4146
  395MOL0     H53274   3.643   9.569   3.718 -0.5908  0.1709 -0.3712
  395MOL0     H53275   3.724   9.430   3.641  0.9724  0.5626 -1.4600
  395MOL0     H53276   3.328   9.467   3.662 -0.2102  0.3369  0.4954
  395MOL0     H53277   3.219   9.101   3.763  1.1677 -0.4466 -1.2134
  395MOL0     H53278   3.140   9.256   3.788  0.4630  2.3297 -2.1865
  395MOL0     H53279   3.259   9.219   3.518 -0.1521  1.1236 -0.1936
  395MOL0     H53280   3.103   9.288   3.565 -2.1770 -1.8893  0.2192
  395MOL0     H53281   3.005   9.064   3.624 -1.5089 -2.3421 -1.1516
  395MOL0     H53282   3.145   9.002   3.546 -0.1263 -0.7744 -0.1066
  395MOL0     H53283   2.940   9.016   3.387 -1.5469  1.8572 -0.3030
  395MOL0     H53284   3.086   9.102   3.332  0.0383  4.0692 -0.7312
  395MOL0     H53285   2.719   9.398   3.450  0.2156 -1.7241  1.7307
  395MOL0     H53286   2.480   9.525   3.308  0.6643 -0.0855 -0.8543
  395MOL0     H53287   2.397   9.364   3.289  0.0134  0.3398 -0.6706
  395MOL0     H53288   2.470   9.404   3.435 -1.5486  1.8629 -0.2006
  395MOL0     H53289   2.497   9.317   2.713 -0.8317  0.6680 -0.4210
  395MOL0     H53290   2.319   9.331   2.573  2.8297 -0.7729 -0.1280
  395MOL0     H53291   2.113   9.365   2.487 -0.7948  0.5367 -1.9004
  395MOL0     H53292   2.131   9.204   2.435  1.1210  1.5807 -0.2314
  395MOL0     H53293   1.861   9.319   2.523  1.7302  2.0986 -0.2960
  395MOL0     H53294   1.908   9.354   2.368 -0.0465 -0.6936 -1.4119
  395MOL0     H53295   1.847   9.087   2.496  0.5719 -0.7414  0.0399
  395MOL0     H53296   1.943   9.089   2.341 -1.9521  2.0007 -2.4931
  395MOL0     H53297   1.665   9.206   2.408 -2.8135  0.4486 -2.1188
  395MOL0     H53298   1.756   9.235   2.262 -2.9902  2.0107  1.7334
  395MOL0     H53299   1.573   9.059   2.284  0.5172  1.3960 -2.1913
  395MOL0     H53300   1.687   8.953   2.377  0.9556 -0.6360 -0.3877
  395MOL0     H53301   1.789   9.073   2.113  1.7660 -0.7428  1.3579
  395MOL0     H53302   1.807   8.919   2.177 -2.2316 -2.1639 -1.8121
  395MOL0     H53303   1.535   9.000   2.073  0.0550 -0.4617 -1.0542
  395MOL0     H53304   1.596   8.841   2.088 -0.0329 -0.3087 -3.7643
  395MOL0     H53305   1.617   8.891   1.856  0.4702 -0.0746 -0.9193
  395MOL0     H53306   1.782   8.884   1.916 -0.3282 -0.7073 -3.0420
  395MOL0     H53307   2.056   9.140   2.857  1.1876 -0.3528  1.2336
  395MOL0     H53308   2.259   9.108   3.008 -2.0222  0.3356  0.1374
  395MOL0     H53309   2.715   9.118   3.033 -2.4022 -1.5126  0.6498
  395MOL0     H53310   2.897   9.108   3.181 -1.1202 -1.2358 -0.1455
  395MOL0     H53311   2.970   9.175   2.810  0.9382 -0.7291  0.7103
  395MOL0     H53312   2.774   9.286   2.702 -0.3295  0.3988  0.3532
  395MOL0     H53313   2.420   9.566   2.773 -0.7808  2.2056  0.3250
  395MOL0     H53314   2.192   9.630   2.680 -0.3687  0.1365 -0.3478
  395MOL0     H53315   2.115   9.826   2.541  1.5850  5.9573 -1.4194
  395MOL0     H53316   2.181   9.867   2.389 -0.6678  0.3299 -1.0612
  395MOL0     H53317   1.959   9.810   2.279 -0.0907  1.1130  0.4449
  395MOL0     H53318   1.922   9.918   2.415 -0.4073  0.0061 -0.4573
  395MOL0     H53319   1.815   9.777   2.539 -1.0657  2.0314 -2.3239
  395MOL0     H53320   1.898   9.633   2.508 -0.3916  1.9089  3.0973
  395MOL0     H53321   1.756   9.563   2.322  0.3101  0.6621 -1.1537
  395MOL0     H53322   1.724   9.738   2.289  1.2338 -1.4983 -2.3196
  395MOL0     H53323   1.477   9.679   2.620  1.4782 -0.8861  0.9292
  395MOL0     H53324   2.369   9.652   2.297 -0.1187  1.2838  0.5567
  395MOL0     H53325   2.602   9.566   2.389 -1.6622 -0.9444 -2.6214
  396MOL0     O53326   5.352   3.319  10.061  0.2993  0.3655  0.0782
  396MOL0     C53327   5.380   3.371   9.953 -0.9647 -0.4573  0.2337
  396MOL0     O53328   5.294   3.434   9.870  0.4102  0.1628  0.3669
  396MOL0     C53329   5.158   3.427   9.885  0.0068  1.2409 -0.2494
  396MOL0     C53330   5.090   3.309   9.927  1.0027  0.2122 -0.4316
  396MOL0     C53331   4.954   3.307   9.927  0.2589  0.9118  0.8078
  396MOL0     C53332   4.876   3.408   9.886  0.4821 -0.0451  0.1584
  396MOL0     O53333   4.735   3.394   9.897  0.7878 -0.2030  0.2312
  396MOL0     C53334   4.653   3.515   9.889 -0.3256 -0.5287 -0.4445
  396MOL0     C53335   4.509   3.478   9.931 -0.2621 -0.4738  0.0239
  396MOL0     C53336   4.399   3.581   9.896 -0.0085 -0.3646  0.3485
  396MOL0     C53337   4.262   3.523   9.904  0.2098  0.3381 -0.0848
  396MOL0     C53338   4.153   3.626   9.895  1.1279  0.6318  0.1089
  396MOL0     C53339   4.016   3.582   9.948 -0.4342 -0.3016  0.0455
  396MOL0     C53340   3.953   3.469   9.884  0.4091 -0.8896  0.3177
  396MOL0     C53341   3.794   3.478   9.848 -0.4627 -0.4484 -0.2962
  396MOL0     N53342   3.729   3.347   9.834 -0.4734 -0.3216 -0.1100
  396MOL0     C53343   3.786   3.241   9.763  0.3724  1.3052 -0.7331
  396MOL0     C53344   3.681   3.154   9.750  1.1562  0.3382 -0.1763
  396MOL0     C53345   3.686   3.019   9.683  0.0046 -0.4880  0.3449
  396MOL0     C53346   3.713   2.902   9.784 -1.0669  1.4765 -0.1118
  396MOL0     C53347   3.689   2.760   9.725  0.7179  0.2903  0.0646
  396MOL0     C53348   3.549   2.730   9.706 -0.3443  0.4377  0.5035
  396MOL0     O53349   3.522   2.594   9.693  0.4165  0.3835 -0.1973
  396MOL0     C53350   3.420   2.538   9.769 -0.5425 -0.4655 -0.3002
  396MOL0     C53351   3.422   2.404   9.797  0.6081  0.4913  0.5859
  396MOL0     C53352   3.317   2.332   9.863 -0.6903 -1.2781  0.7408
  396MOL0     C53353   3.321   2.185   9.872 -0.2548  1.1903  0.0723
  396MOL0     C53354   3.205   2.407   9.903 -0.7965  0.0022  0.0466
  396MOL0     C53355   3.102   2.353   9.999 -0.4638 -0.0272  0.1184
  396MOL0     O53356   2.996   2.433  10.004  0.5582 -0.6844 -0.2936
  396MOL0     C53357   2.886   2.396  10.080 -1.1331 -0.7461 -0.2283
  396MOL0     C53358   2.814   2.279  10.051  0.0587 -0.4356  0.3860
  396MOL0     C53359   2.704   2.239  10.133 -0.1666  0.0460  0.1541
  396MOL0     C53360   2.670   2.321  10.242  0.2158  0.5307  0.3312
  396MOL0     O53361   2.577   2.262  10.322  0.2623  0.1888  0.7295
  396MOL0     C53362   2.442   2.304  10.299 -1.3976 -0.4245  0.1444
  396MOL0     C53363   2.409   2.419  10.385  0.4031  0.2922  0.5899
  396MOL0     C53364   2.327   2.380  10.510 -0.4886 -0.5991 -1.0108
  396MOL0     C53365   2.397   2.285  10.606  0.0491  0.2043  0.1367
  396MOL0     C53366   2.319   2.236  10.733 -0.4497  0.3575  0.6013
  396MOL0     C53367   2.210   2.139  10.703  0.3297 -0.4904 -0.1700
  396MOL0     C53368   2.136   2.104  10.834  0.6489 -0.6194  0.2384
  396MOL0     C53369   2.164   1.960  10.874 -0.9144 -0.1609  0.0469
  396MOL0    Cl53370   2.011   1.914  10.956  0.7913  0.0329  0.1841
  396MOL0     C53371   2.739   2.432  10.275 -0.1777 -0.4910 -0.1604
  396MOL0     C53372   2.841   2.476  10.187 -0.0361  0.5912  0.4893
  396MOL0     O53373   3.108   2.244  10.059  0.2502  0.5301 -0.3488
  396MOL0     C53374   3.213   2.548   9.884  0.1129  0.4438  0.2267
  396MOL0     C53375   3.314   2.611   9.814 -0.0728  0.2336 -0.0513
  396MOL0     N53376   3.565   3.214   9.790  1.3878 -0.8907 -0.3252
  396MOL0     N53377   3.588   3.337   9.833 -0.6890 -0.4905  0.3875
  396MOL0     C53378   4.938   3.519   9.831 -0.0191 -0.1990 -0.2935
  396MOL0     C53379   5.076   3.525   9.829  1.0362 -0.0547 -1.0093
  396MOL0     C53380   5.518   3.354   9.904 -1.1689 -0.5699 -0.1869
  396MOL0     C53381   5.562   3.411   9.783  0.3908  0.5388  1.2940
  396MOL0     C53382   5.695   3.396   9.737 -0.0069 -0.3278  0.0122
  396MOL0     C53383   5.783   3.318   9.807 -0.4469 -0.0688 -0.2477
  396MOL0     O53384   5.901   3.274   9.752  0.6258  0.3555  0.0408
  396MOL0     C53385   5.983   3.375   9.685 -1.5574  0.2967  0.8818
  396MOL0     C53386   6.124   3.337   9.707  0.3445 -0.3826 -0.2712
  396MOL0     C53387   6.240   3.370   9.604  0.4312  0.4473 -0.8853
  396MOL0     C53388   6.258   3.521   9.574 -0.3421 -0.2478 -0.8709
  396MOL0     C53389   6.336   3.538   9.448 -0.2553  0.0786 -0.3302
  396MOL0     C53390   6.367   3.532   9.325  0.4813  0.0351 -0.5214
  396MOL0     C53391   5.750   3.266   9.930 -0.9796 -0.3782  0.0299
  396MOL0     C53392   5.617   3.278   9.976 -0.3063 -0.1063  0.1205
  396MOL0     H53393   5.141   3.218   9.957  0.3416  0.4871  1.6785
  396MOL0     H53394   4.900   3.222   9.967  1.7718 -0.2350  0.5186
  396MOL0     H53395   4.695   3.596   9.951 -0.2951  0.0953 -1.2662
  396MOL0     H53396   4.663   3.554   9.788  0.3783  0.5119  0.0093
  396MOL0     H53397   4.467   3.384   9.893 -2.4286 -0.7448  2.8454
  396MOL0     H53398   4.497   3.470  10.039  0.6312 -1.8610  0.0466
  396MOL0     H53399   4.405   3.653   9.978 -2.2732 -0.0826  0.3116
  396MOL0     H53400   4.432   3.632   9.805 -1.9838 -2.3116 -1.5694
  396MOL0     H53401   4.251   3.447   9.826 -1.2155 -0.1063  0.5095
  396MOL0     H53402   4.254   3.477  10.002 -1.9202  0.2924 -0.2185
  396MOL0     H53403   4.183   3.713   9.954  0.6216  1.5592 -0.9752
  396MOL0     H53404   4.139   3.665   9.794 -2.4945  0.2109  0.3232
  396MOL0     H53405   4.021   3.560  10.055  0.3707  0.5790  0.2016
  396MOL0     H53406   3.951   3.670   9.940 -1.7080 -1.2730 -0.8077
  396MOL0     H53407   4.002   3.460   9.786  1.9890  1.4369  0.8021
  396MOL0     H53408   3.976   3.387   9.952 -1.7088 -0.4167  1.6706
  396MOL0     H53409   3.792   3.529   9.751 -1.0244 -0.9902 -0.5754
  396MOL0     H53410   3.738   3.542   9.917  0.3279  0.7403 -0.7135
  396MOL0     H53411   3.892   3.237   9.742  0.3591  2.0281 -0.9602
  396MOL0     H53412   3.591   2.998   9.633  0.6126 -3.7682  0.3106
  396MOL0     H53413   3.770   3.024   9.613  0.6450 -1.8262  0.9816
  396MOL0     H53414   3.644   2.912   9.869 -2.1085  2.6781 -1.0596
  396MOL0     H53415   3.810   2.910   9.835 -0.5578 -1.3450 -0.4743
  396MOL0     H53416   3.724   2.685   9.796  0.0131 -3.5294 -3.2773
  396MOL0     H53417   3.743   2.751   9.631  1.3695  3.8132 -0.0409
  396MOL0     H53418   3.504   2.769   9.614 -1.5873  3.4286  2.2077
  396MOL0     H53419   3.490   2.782   9.782 -3.8632 -3.2534  0.5859
  396MOL0     H53420   3.510   2.350   9.765  2.4011  2.8847  1.2301
  396MOL0     H53421   3.221   2.147   9.850  0.1768  0.7582 -1.2713
  396MOL0     H53422   3.395   2.146   9.800  1.0036  1.7082  1.0526
  396MOL0     H53423   3.361   2.139   9.963  2.1153  0.6116 -1.1703
  396MOL0     H53424   2.829   2.238   9.952 -1.8933  1.3083 -0.7109
  396MOL0     H53425   2.663   2.141  10.110 -1.6721 -0.2478  3.5045
  396MOL0     H53426   2.436   2.340  10.196 -0.3434  1.1462  0.5777
  396MOL0     H53427   2.377   2.218  10.313 -1.2743 -0.7845 -1.3334
  396MOL0     H53428   2.500   2.475  10.411  0.3552  0.2055  0.9484
  396MOL0     H53429   2.344   2.484  10.325  1.9134 -0.7162 -2.3497
  396MOL0     H53430   2.231   2.329  10.490 -1.3246  0.3180  0.4840
  396MOL0     H53431   2.304   2.477  10.556 -2.7656 -2.0585  1.2502
  396MOL0     H53432   2.423   2.193  10.552 -0.1864 -0.6944  1.4955
  396MOL0     H53433   2.488   2.329  10.648  2.3263 -1.3600 -2.7676
  396MOL0     H53434   2.283   2.323  10.788  2.2423  1.1667  1.2734
  396MOL0     H53435   2.395   2.190  10.797 -0.4346 -1.0767 -0.3755
  396MOL0     H53436   2.139   2.169  10.624  0.7216 -1.0637 -0.7489
  396MOL0     H53437   2.260   2.057  10.651  1.1933  1.3245 -2.3697
  396MOL0     H53438   2.031   2.117  10.808  1.3780  3.0582 -1.5301
  396MOL0     H53439   2.161   2.170  10.917 -0.1123 -0.0738  0.0463
  396MOL0     H53440   2.251   1.952  10.941 -0.4366 -3.3103 -0.7723
  396MOL0     H53441   2.190   1.901  10.786  4.0762  3.0187 -0.9903
  396MOL0     H53442   2.727   2.485  10.370 -0.2385 -1.9106  0.6472
  396MOL0     H53443   2.898   2.563  10.221  1.7533 -0.6572  0.8284
  396MOL0     H53444   3.139   2.618   9.920  2.1828  2.9422 -0.1149
  396MOL0     H53445   3.300   2.718   9.802 -0.5610  0.1585 -0.1359
  396MOL0     H53446   4.895   3.605   9.780  1.9215 -0.1124 -1.9001
  396MOL0     H53447   5.130   3.608   9.784  2.0691  0.4968  1.1161
  396MOL0     H53448   5.494   3.467   9.719  0.7378 -1.0902 -0.5912
  396MOL0     H53449   5.709   3.439   9.639 -3.6085  0.6003 -0.2051
  396MOL0     H53450   5.956   3.381   9.579  0.2750  1.5821  0.4291
  396MOL0     H53451   5.962   3.477   9.720 -2.5244  0.3304  0.2331
  396MOL0     H53452   6.131   3.228   9.716 -0.3743 -0.4544 -0.4939
  396MOL0     H53453   6.137   3.373   9.810 -1.2142 -1.7054  0.4511
  396MOL0     H53454   6.230   3.319   9.508 -0.6883 -1.3004  0.1036
  396MOL0     H53455   6.331   3.340   9.657  0.6713  0.5262 -1.2520
  396MOL0     H53456   6.302   3.571   9.660 -1.2448 -1.8401  0.5801
  396MOL0     H53457   6.157   3.559   9.555 -0.6193 -0.2350  0.5051
  396MOL0     H53458   6.385   3.506   9.223 -2.9781 -0.7155 -1.0724
  396MOL0     H53459   5.821   3.200   9.980  0.0703 -0.0285 -0.9526
  396MOL0     H53460   5.593   3.224  10.067 -1.4619  0.6820  0.2989
  397MOL0     O53461  10.746   8.536   8.682  0.0554  0.3263 -0.3137
  397MOL0     C53462  10.833   8.450   8.683  0.3543  0.0749 -0.8806
  397MOL0     O53463  10.804   8.316   8.706 -0.1303 -0.2117  0.2031
  397MOL0     C53464  10.682   8.253   8.744  0.5749 -0.7173  0.9256
  397MOL0     C53465  10.553   8.315   8.759 -0.3512 -0.3053  0.7924
  397MOL0     C53466  10.449   8.253   8.824 -0.6173  0.2090 -0.2948
  397MOL0     C53467  10.469   8.118   8.852 -0.5260  0.3001 -0.4619
  397MOL0     O53468  10.352   8.045   8.886 -0.1135  0.3418 -0.3597
  397MOL0     C53469  10.352   8.027   9.026 -0.3186 -0.8701 -0.1642
  397MOL0     C53470  10.232   8.102   9.094  0.3665  0.1170 -0.1784
  397MOL0     C53471  10.106   8.061   9.014  0.5830  0.1313 -0.2768
  397MOL0     C53472   9.975   8.127   9.061 -0.2647  1.0506  0.2922
  397MOL0     C53473   9.979   8.275   9.059  0.4026  0.1780  0.3455
  397MOL0     C53474   9.845   8.343   9.077  0.1884 -0.0854 -0.1172
  397MOL0     C53475   9.842   8.496   9.064  0.8062  0.7215 -0.2505
  397MOL0     C53476   9.717   8.571   9.144 -0.4127  0.0755 -0.1167
  397MOL0     N53477   9.597   8.560   9.066 -0.0817  0.5564 -0.0338
  397MOL0     C53478   9.544   8.435   9.041 -0.0650 -0.7485 -0.2961
  397MOL0     C53479   9.441   8.468   8.963  0.4125  0.1950 -0.3345
  397MOL0     C53480   9.339   8.373   8.906 -1.2828 -0.0962 -0.2058
  397MOL0     C53481   9.214   8.343   9.000  0.1291 -0.1577  0.2006
  397MOL0     C53482   9.147   8.472   9.050  0.1515 -0.0258  0.5548
  397MOL0     C53483   9.036   8.439   9.147 -0.3174  0.0374  0.1985
  397MOL0     O53484   8.947   8.348   9.068  0.4256 -0.1793 -0.6485
  397MOL0     C53485   8.819   8.310   9.110 -0.7570  1.4238 -0.1380
  397MOL0     C53486   8.733   8.242   9.027 -0.2557  0.5294  0.4528
  397MOL0     C53487   8.603   8.193   9.061  0.2764  0.5182  0.3302
  397MOL0     C53488   8.529   8.121   8.952  0.6220 -0.1155 -0.2934
  397MOL0     C53489   8.564   8.202   9.195 -1.4012  0.2389 -0.5875
  397MOL0     C53490   8.436   8.140   9.243 -0.5877 -0.7184  0.1017
  397MOL0     O53491   8.404   8.015   9.199 -0.2382 -0.0476 -0.2906
  397MOL0     C53492   8.287   7.945   9.209 -0.7661 -0.1356  0.0552
  397MOL0     C53493   8.219   7.945   9.333 -0.2576 -0.0209  0.3851
  397MOL0     C53494   8.112   7.853   9.367  1.0538 -0.4030 -0.1155
  397MOL0     C53495   8.060   7.775   9.267 -1.8138  0.7049  0.5670
  397MOL0     O53496   7.969   7.679   9.289  0.8119  0.8528  0.2286
  397MOL0     C53497   7.870   7.699   9.393 -0.7907  0.1312  0.4972
  397MOL0     C53498   7.754   7.791   9.355 -0.2114  0.0282  0.4896
  397MOL0     C53499   7.794   7.927   9.311 -0.4279  0.1861  1.2386
  397MOL0     C53500   7.674   8.023   9.332 -0.0963 -0.8342 -0.0862
  397MOL0     C53501   7.558   8.000   9.227  0.6822  0.3206  0.5126
  397MOL0     C53502   7.446   8.106   9.246 -0.2868 -0.6853 -0.0215
  397MOL0     C53503   7.342   8.122   9.128 -0.1752  0.6119 -0.3435
  397MOL0     C53504   7.198   8.132   9.163 -0.6110  1.4085 -0.2865
  397MOL0    Cl53505   7.107   8.117   9.012  0.0873 -0.8254 -0.0680
  397MOL0     C53506   8.120   7.791   9.129  0.9123  0.2092 -0.9811
  397MOL0     C53507   8.234   7.864   9.114 -0.7582  0.5860 -0.0680
  397MOL0     O53508   8.357   8.220   9.293  0.1179 -0.3476  0.6108
  397MOL0     C53509   8.648   8.270   9.290 -0.1547 -0.0166  0.9315
  397MOL0     C53510   8.773   8.327   9.247 -0.1581  0.4576  0.8787
  397MOL0     N53511   9.443   8.610   8.938  0.0477 -0.5236  0.5020
  397MOL0     N53512   9.536   8.668   9.002  0.0128  0.0540 -0.0641
  397MOL0     C53513  10.581   8.048   8.827  0.9642  1.1318  0.6787
  397MOL0     C53514  10.688   8.114   8.770 -0.2403 -0.2893 -0.0475
  397MOL0     C53515  10.967   8.496   8.665  1.0363  0.8449  0.8782
  397MOL0     C53516  11.009   8.630   8.670 -0.7087  0.3571 -0.4462
  397MOL0     C53517  11.142   8.666   8.642  0.2129 -0.4216  1.1028
  397MOL0     C53518  11.233   8.573   8.585 -0.1261 -0.5326 -0.1020
  397MOL0     O53519  11.352   8.595   8.520 -0.2851 -0.2255  1.3141
  397MOL0     C53520  11.409   8.728   8.525 -0.5817  0.0277 -1.2121
  397MOL0     C53521  11.547   8.722   8.458 -0.2851  0.4099  0.4077
  397MOL0     C53522  11.629   8.852   8.473 -0.3811  0.3886 -0.1550
  397MOL0     C53523  11.762   8.855   8.398 -0.7845  0.3498  0.2205
  397MOL0     C53524  11.731   8.866   8.254  0.3421  0.0371 -0.4985
  397MOL0     C53525  11.718   8.851   8.132 -0.2930 -0.0661 -0.5340
  397MOL0     C53526  11.194   8.437   8.584 -0.2115 -0.3501 -0.8057
  397MOL0     C53527  11.064   8.406   8.621  0.3179  0.8512 -0.2241
  397MOL0     H53528  10.552   8.411   8.709 -0.6472 -0.6540  0.1124
  397MOL0     H53529  10.346   8.286   8.831 -1.4936 -1.7732 -2.5597
  397MOL0     H53530  10.336   7.922   9.051 -0.5402 -1.3508 -2.1760
  397MOL0     H53531  10.442   8.064   9.075  0.3763 -0.4855 -1.6626
  397MOL0     H53532  10.225   8.077   9.200 -0.1653 -1.6656 -0.5968
  397MOL0     H53533  10.256   8.208   9.083  0.9426  0.1241  1.0706
  397MOL0     H53534  10.116   8.095   8.911  0.9634  3.1748  0.6690
  397MOL0     H53535  10.092   7.952   9.013 -1.8184  0.3541  0.7316
  397MOL0     H53536   9.883   8.085   9.019  1.2137 -3.7478  1.2927
  397MOL0     H53537   9.961   8.090   9.163  0.7260 -0.7678 -0.1913
  397MOL0     H53538  10.050   8.306   9.136  1.9949  1.5177 -1.5715
  397MOL0     H53539  10.003   8.309   8.958  0.9376 -2.4195 -0.4800
  397MOL0     H53540   9.778   8.293   9.006  2.3554 -1.2484 -1.4597
  397MOL0     H53541   9.819   8.319   9.181  2.2500 -0.4331  0.3803
  397MOL0     H53542   9.931   8.535   9.114 -1.0424  2.1599  2.1700
  397MOL0     H53543   9.848   8.520   8.957 -2.8406  0.7339 -0.5927
  397MOL0     H53544   9.735   8.679   9.153 -2.9676  0.7870 -2.1058
  397MOL0     H53545   9.711   8.535   9.247  0.0771  0.8190  0.1808
  397MOL0     H53546   9.567   8.340   9.088  1.5328  0.3789  1.3671
  397MOL0     H53547   9.301   8.431   8.822  1.7837 -0.7551 -2.2147
  397MOL0     H53548   9.380   8.278   8.870  0.7535  0.4510  0.5445
  397MOL0     H53549   9.225   8.277   9.087  1.6703 -0.5436 -0.2651
  397MOL0     H53550   9.142   8.291   8.937 -1.1605 -0.0054  1.4920
  397MOL0     H53551   9.102   8.533   8.972 -1.9543 -2.5855 -0.3521
  397MOL0     H53552   9.221   8.534   9.102  1.0970 -0.2680 -0.4487
  397MOL0     H53553   8.979   8.525   9.182  2.1529  1.0169  2.1265
  397MOL0     H53554   9.077   8.392   9.237  0.6089 -0.0891 -0.2763
  397MOL0     H53555   8.779   8.229   8.930  0.5197  0.2176  0.8511
  397MOL0     H53556   8.563   8.146   8.851  0.4541  1.0372 -0.0748
  397MOL0     H53557   8.513   8.012   8.956 -0.2148 -0.0323 -0.9328
  397MOL0     H53558   8.425   8.154   8.957  0.3734 -0.9510  0.2349
  397MOL0     H53559   8.258   8.014   9.407  0.7737  0.0919 -0.2544
  397MOL0     H53560   8.077   7.865   9.469 -1.4891  1.5985 -1.1096
  397MOL0     H53561   7.829   7.601   9.418 -0.7544 -0.1628 -0.5594
  397MOL0     H53562   7.930   7.738   9.476  2.1089  1.2960 -1.9612
  397MOL0     H53563   7.694   7.737   9.280 -0.9478  0.4131  0.7890
  397MOL0     H53564   7.692   7.802   9.444  2.3177  1.6235  2.1980
  397MOL0     H53565   7.823   7.922   9.206 -1.9920  0.2735  0.7721
  397MOL0     H53566   7.884   7.952   9.368 -0.8233 -1.0020  2.4518
  397MOL0     H53567   7.629   8.010   9.430 -3.7234  1.3454 -1.2457
  397MOL0     H53568   7.711   8.125   9.318 -1.9923 -0.1740 -0.7073
  397MOL0     H53569   7.519   7.898   9.224  3.4057 -0.8043 -2.3115
  397MOL0     H53570   7.602   8.009   9.127 -1.3067 -0.3619 -0.4723
  397MOL0     H53571   7.396   8.083   9.340  1.3395  0.7962  1.2724
  397MOL0     H53572   7.485   8.205   9.268 -1.0016 -0.2383 -0.7045
  397MOL0     H53573   7.364   8.041   9.058  2.0042  0.0590  0.9128
  397MOL0     H53574   7.363   8.216   9.076 -1.0724 -0.2887 -2.4314
  397MOL0     H53575   7.167   8.220   9.220 -0.2551  1.4167 -0.1027
  397MOL0     H53576   7.176   8.044   9.224 -3.4889  1.3621 -1.2289
  397MOL0     H53577   8.075   7.732   9.050 -0.6265 -0.9235  0.6661
  397MOL0     H53578   8.279   7.889   9.018 -2.2465  1.3188 -0.6026
  397MOL0     H53579   8.620   8.285   9.394  2.2796  1.1539  1.4735
  397MOL0     H53580   8.840   8.362   9.325  0.6410 -0.1031  0.4654
  397MOL0     H53581  10.588   7.943   8.854 -0.1395  1.3574  1.9225
  397MOL0     H53582  10.780   8.058   8.754  0.2984  0.8388 -1.0393
  397MOL0     H53583  10.938   8.703   8.706 -2.9133  0.0476 -3.7866
  397MOL0     H53584  11.171   8.766   8.673  1.9504 -1.0952  1.7586
  397MOL0     H53585  11.337   8.799   8.484 -0.5784  0.9946  0.3656
  397MOL0     H53586  11.435   8.747   8.629  1.9166 -1.9209 -1.3822
  397MOL0     H53587  11.521   8.713   8.352  0.4415 -2.5353  0.3775
  397MOL0     H53588  11.611   8.644   8.501  0.5555  0.7293 -0.2316
  397MOL0     H53589  11.655   8.857   8.579 -1.8533  0.7021  0.2243
  397MOL0     H53590  11.575   8.944   8.449 -0.4633  0.2943 -0.3352
  397MOL0     H53591  11.819   8.765   8.421  0.3564  0.6355 -1.3360
  397MOL0     H53592  11.820   8.944   8.426  0.0711  0.1482 -0.8513
  397MOL0     H53593  11.706   8.858   8.026 -0.3624  2.6852 -0.4209
  397MOL0     H53594  11.262   8.363   8.543 -1.4382 -2.5901  0.9376
  397MOL0     H53595  11.047   8.299   8.625  0.0114  0.7602 -2.5804
  398MOL0     O53596   2.256   9.686   5.662  0.1097 -1.0707  0.5096
  398MOL0     C53597   2.247   9.621   5.557 -0.5924 -0.4724  0.0265
  398MOL0     O53598   2.340   9.546   5.502 -0.7356  0.4860 -0.7374
  398MOL0     C53599   2.473   9.536   5.557  0.7539  0.7962  0.6168
  398MOL0     C53600   2.489   9.506   5.690 -0.4094  0.2875  0.1786
  398MOL0     C53601   2.611   9.504   5.752 -0.2660  0.0065  0.1729
  398MOL0     C53602   2.732   9.536   5.680  0.4584  0.2940  0.3864
  398MOL0     O53603   2.858   9.523   5.736  0.3789  0.4140 -0.7217
  398MOL0     C53604   2.898   9.650   5.786  0.3335 -0.1526 -0.2741
  398MOL0     C53605   3.035   9.645   5.840 -0.7869 -0.2311  0.2565
  398MOL0     C53606   3.142   9.577   5.745  0.0285 -0.0818  0.3375
  398MOL0     C53607   3.272   9.653   5.746  0.7141  0.4753 -0.6767
  398MOL0     C53608   3.373   9.608   5.645 -0.3002 -0.5064  0.4998
  398MOL0     C53609   3.483   9.716   5.629  0.1110  0.8410  0.7328
  398MOL0     C53610   3.617   9.652   5.575  0.7789 -0.0656 -0.3006
  398MOL0     C53611   3.614   9.585   5.429  0.2857 -0.3924  0.3066
  398MOL0     N53612   3.618   9.672   5.319  0.1581  0.1885 -0.6250
  398MOL0     C53613   3.728   9.706   5.239  0.1663  0.3325 -0.1112
  398MOL0     C53614   3.685   9.793   5.144 -0.7767 -0.6365  0.0217
  398MOL0     C53615   3.773   9.848   5.030 -0.8582  0.4220  0.4670
  398MOL0     C53616   3.851   9.738   4.947 -0.1933  0.4388  0.9917
  398MOL0     C53617   3.768   9.665   4.838 -0.6305  0.5161 -0.1630
  398MOL0     C53618   3.647   9.587   4.889  0.3324 -0.3644  0.2650
  398MOL0     O53619   3.672   9.478   4.980  1.0630  0.5818 -0.7399
  398MOL0     C53620   3.568   9.445   5.070 -0.1312  0.5429 -0.0705
  398MOL0     C53621   3.450   9.510   5.095 -0.5336 -0.3968 -0.2666
  398MOL0     C53622   3.361   9.466   5.192  0.6236  0.6928 -0.2092
  398MOL0     C53623   3.235   9.544   5.208  0.4347 -0.3155  0.0769
  398MOL0     C53624   3.378   9.337   5.252 -0.3071 -0.1588 -0.1238
  398MOL0     C53625   3.275   9.275   5.329 -0.2816 -0.6652 -0.1843
  398MOL0     O53626   3.248   9.330   5.453  0.8939 -0.6034 -0.1854
  398MOL0     C53627   3.179   9.273   5.553  0.3472  0.0652  0.3479
  398MOL0     C53628   3.049   9.226   5.525 -0.3681 -0.1871  0.8760
  398MOL0     C53629   2.960   9.176   5.628 -0.1078 -0.1070  0.1938
  398MOL0     C53630   3.006   9.167   5.761  0.6492  0.6079  0.5336
  398MOL0     O53631   2.923   9.117   5.862 -0.7694  0.3945 -0.1433
  398MOL0     C53632   2.809   9.205   5.871  0.2414  0.4329 -0.1337
  398MOL0     C53633   2.737   9.198   6.003  0.1356 -0.4202 -0.8314
  398MOL0     C53634   2.714   9.059   6.048  0.4084 -0.0230 -0.4300
  398MOL0     C53635   2.626   9.059   6.169 -0.2139  0.5303 -0.1613
  398MOL0     C53636   2.588   8.911   6.202  0.2576  0.2710  0.0959
  398MOL0     C53637   2.475   8.854   6.121  0.6078 -0.1286 -0.2935
  398MOL0     C53638   2.441   8.711   6.171  0.6038  0.1063 -0.4902
  398MOL0     C53639   2.305   8.650   6.126  0.5239  0.3363  0.3126
  398MOL0    Cl53640   2.276   8.677   5.952  0.5401 -0.4313  0.4199
  398MOL0     C53641   3.139   9.214   5.793  0.6659 -0.5423  0.4623
  398MOL0     C53642   3.219   9.262   5.686  0.0396 -0.0189 -0.1779
  398MOL0     O53643   3.226   9.167   5.292  0.3035 -1.0923  0.5911
  398MOL0     C53644   3.481   9.262   5.212 -0.7622 -0.0619 -0.1856
  398MOL0     C53645   3.583   9.316   5.135 -0.8121 -0.1896 -0.3478
  398MOL0     N53646   3.554   9.830   5.184  0.3966  0.0036  0.2167
  398MOL0     N53647   3.518   9.757   5.286 -0.0632  0.2754 -0.0080
  398MOL0     C53648   2.720   9.583   5.547  0.7451  0.2995 -0.9935
  398MOL0     C53649   2.591   9.577   5.483 -0.0292 -0.3754 -0.5736
  398MOL0     C53650   2.123   9.640   5.486  0.1789 -0.6231  0.1549
  398MOL0     C53651   2.002   9.648   5.559  0.3807  0.2698 -0.0008
  398MOL0     C53652   1.882   9.676   5.492 -0.1142 -0.5545 -0.3610
  398MOL0     C53653   1.884   9.701   5.354 -0.2142  1.0409 -0.5364
  398MOL0     O53654   1.768   9.746   5.302 -0.3875  0.3045  0.8055
  398MOL0     C53655   1.763   9.802   5.165 -0.2567  0.8432 -0.5804
  398MOL0     C53656   1.795   9.953   5.177  0.1889 -0.6787 -0.4473
  398MOL0     C53657   1.747  10.028   5.053 -0.6535 -0.7657  0.0136
  398MOL0     C53658   1.826  10.169   5.042  0.6826 -0.2489  0.4663
  398MOL0     C53659   1.827  10.253   5.162 -0.4172 -0.4681  0.1273
  398MOL0     C53660   1.818  10.310   5.268  0.1626 -0.0681 -0.6589
  398MOL0     C53661   2.003   9.682   5.285 -0.0954 -0.4360  0.3463
  398MOL0     C53662   2.126   9.664   5.351 -0.4742  0.8466 -0.1563
  398MOL0     H53663   2.411   9.469   5.756  0.4406  2.0387  2.3085
  398MOL0     H53664   2.611   9.491   5.860 -0.1845  2.7118  0.5760
  398MOL0     H53665   2.891   9.726   5.708 -2.3802 -0.4740 -0.4438
  398MOL0     H53666   2.836   9.685   5.869  0.5059  1.2364 -0.7098
  398MOL0     H53667   3.061   9.749   5.861 -1.0874  0.3445 -1.9731
  398MOL0     H53668   3.025   9.591   5.935 -3.1584  0.8072  0.6676
  398MOL0     H53669   3.146   9.472   5.773 -3.3847 -0.9955 -1.9993
  398MOL0     H53670   3.089   9.587   5.650 -1.5993 -0.8251  1.1192
  398MOL0     H53671   3.254   9.758   5.724  1.2283  0.6954 -0.0687
  398MOL0     H53672   3.325   9.648   5.841 -0.4399  0.7356  0.0050
  398MOL0     H53673   3.410   9.511   5.680 -0.4747 -0.4663  0.8041
  398MOL0     H53674   3.329   9.586   5.547 -1.7844 -2.1425  1.4724
  398MOL0     H53675   3.454   9.790   5.553 -1.7438 -2.8497 -2.5419
  398MOL0     H53676   3.509   9.760   5.726  0.5016  1.1716  0.4768
  398MOL0     H53677   3.686   9.735   5.588  0.4114 -0.0508  1.9215
  398MOL0     H53678   3.650   9.571   5.641  1.0891  0.0389 -0.3276
  398MOL0     H53679   3.520   9.529   5.434  0.3587 -0.3852  2.6105
  398MOL0     H53680   3.696   9.513   5.421  0.7891  0.2978 -1.0750
  398MOL0     H53681   3.827   9.662   5.248 -0.0809 -0.0445  0.9601
  398MOL0     H53682   3.710   9.918   4.972 -1.8501  0.6375  1.7658
  398MOL0     H53683   3.858   9.908   5.064  2.2884 -1.6236 -2.9922
  398MOL0     H53684   3.898   9.658   5.006  1.4523 -0.6266 -1.6101
  398MOL0     H53685   3.936   9.783   4.895 -1.6854  3.2450  0.8317
  398MOL0     H53686   3.834   9.594   4.788 -0.3615  0.3586  0.4211
  398MOL0     H53687   3.727   9.734   4.763 -3.7010 -0.5287  0.4297
  398MOL0     H53688   3.595   9.550   4.800 -1.4995  1.4128  0.5287
  398MOL0     H53689   3.584   9.662   4.937 -2.1368 -1.7732 -0.5617
  398MOL0     H53690   3.421   9.597   5.037  0.8002 -0.7970 -1.6002
  398MOL0     H53691   3.171   9.500   5.130 -1.4192  2.3506 -0.0653
  398MOL0     H53692   3.186   9.533   5.305  0.8290  0.2253  0.3440
  398MOL0     H53693   3.248   9.652   5.192 -4.7999  0.7440  1.0154
  398MOL0     H53694   3.011   9.238   5.424 -2.5218  2.1583  1.8509
  398MOL0     H53695   2.857   9.146   5.614  0.1692 -1.9814  1.6668
  398MOL0     H53696   2.838   9.308   5.848  1.9163  0.9932  3.7370
  398MOL0     H53697   2.736   9.174   5.796 -0.0753  3.3164 -1.1346
  398MOL0     H53698   2.808   9.242   6.074  0.4401 -1.0245 -0.7494
  398MOL0     H53699   2.646   9.255   6.017 -0.9584 -2.1522 -0.5610
  398MOL0     H53700   2.810   9.016   6.078  0.2018  0.8862  1.6761
  398MOL0     H53701   2.681   8.993   5.966  1.1095 -0.6822 -0.1915
  398MOL0     H53702   2.675   9.093   6.261  1.9273  0.6706 -1.2683
  398MOL0     H53703   2.532   9.111   6.153 -0.2318  0.2962 -0.8312
  398MOL0     H53704   2.558   8.901   6.307 -1.3814  2.2560 -0.1084
  398MOL0     H53705   2.679   8.851   6.193  0.9052  1.0876  0.9191
  398MOL0     H53706   2.388   8.918   6.128 -0.8220 -2.1553  2.0940
  398MOL0     H53707   2.500   8.850   6.014 -1.1981 -0.6888 -0.7269
  398MOL0     H53708   2.430   8.718   6.279  2.0623 -0.3086 -0.2919
  398MOL0     H53709   2.523   8.644   6.143  0.5426  0.6288 -2.0224
  398MOL0     H53710   2.222   8.695   6.180  0.0016 -0.7949  0.4825
  398MOL0     H53711   2.299   8.545   6.154  2.0319 -0.0389 -0.6306
  398MOL0     H53712   3.177   9.219   5.895  0.7783 -1.1066  0.4506
  398MOL0     H53713   3.323   9.283   5.710  0.7377 -1.0747 -2.1043
  398MOL0     H53714   3.482   9.158   5.241  1.9007 -0.7458 -2.3044
  398MOL0     H53715   3.666   9.256   5.099 -0.2153 -0.4093  1.3149
  398MOL0     H53716   2.813   9.617   5.501  1.3784  0.8677  0.6485
  398MOL0     H53717   2.587   9.617   5.382 -0.2828 -0.2723 -0.5234
  398MOL0     H53718   2.012   9.628   5.665  1.9539  1.4660  0.0996
  398MOL0     H53719   1.799   9.694   5.559  1.9563  3.7650  1.3701
  398MOL0     H53720   1.839   9.763   5.097  0.9318  1.8034  0.1382
  398MOL0     H53721   1.665   9.789   5.119 -1.3033 -0.9756  1.9200
  398MOL0     H53722   1.903   9.967   5.189  0.3028  0.7729 -2.6362
  398MOL0     H53723   1.741   9.997   5.262  0.5463  0.7550 -0.9274
  398MOL0     H53724   1.642  10.053   5.068 -0.5509 -0.4890  0.2985
  398MOL0     H53725   1.744   9.973   4.959 -0.5334 -0.0004 -0.4478
  398MOL0     H53726   1.790  10.220   4.952 -1.6416  1.1133  2.0640
  398MOL0     H53727   1.934  10.154   5.029  0.6364 -0.3316  0.1554
  398MOL0     H53728   1.801  10.354   5.364 -3.2942  1.2869 -1.7502
  398MOL0     H53729   2.012   9.683   5.177 -1.3060 -0.8322  0.2207
  398MOL0     H53730   2.219   9.658   5.295 -1.4116  0.3238 -1.7308
  399MOL0     O53731   8.473   3.553   0.420  0.2717 -0.5883  0.5996
  399MOL0     C53732   8.567   3.629   0.447  0.2023  0.0938  0.2636
  399MOL0     O53733   8.576   3.714   0.560  0.1696  0.3184  0.3309
  399MOL0     C53734   8.469   3.723   0.639 -0.1142 -0.2695  0.5721
  399MOL0     C53735   8.330   3.729   0.611 -0.0668 -0.4637  0.4334
  399MOL0     C53736   8.240   3.741   0.717  1.0456 -0.0069  0.0019
  399MOL0     C53737   8.282   3.742   0.855 -0.8033 -0.1857  0.4987
  399MOL0     O53738   8.193   3.754   0.949  0.6817 -0.9879  0.4811
  399MOL0     C53739   8.193   3.635   1.023 -0.2236 -0.1232 -0.0272
  399MOL0     C53740   8.058   3.629   1.106 -0.2474 -0.3760 -0.2201
  399MOL0     C53741   7.939   3.606   1.018 -0.6674 -0.8032 -0.8436
  399MOL0     C53742   7.937   3.484   0.919 -0.4882 -0.3774  0.1714
  399MOL0     C53743   7.807   3.487   0.849  0.2601  0.2357  0.5989
  399MOL0     C53744   7.809   3.399   0.717 -0.1743 -0.3402  0.4015
  399MOL0     C53745   7.738   3.469   0.609  0.0153  0.3622 -0.5210
  399MOL0     C53746   7.585   3.445   0.616 -0.0631 -0.0637 -0.0426
  399MOL0     N53747   7.554   3.308   0.585  0.4400  0.5308  0.1995
  399MOL0     C53748   7.579   3.246   0.464  0.4571  0.3036 -0.4826
  399MOL0     C53749   7.514   3.120   0.472 -0.2681  0.2367 -0.0541
  399MOL0     C53750   7.512   3.022   0.362 -0.3268  0.3454 -0.6466
  399MOL0     C53751   7.446   3.085   0.240  0.1393 -0.3776  1.3367
  399MOL0     C53752   7.421   2.974   0.136  0.5846  1.2501  0.0734
  399MOL0     C53753   7.548   2.930   0.056  0.0071 -0.1995 -0.0634
  399MOL0     O53754   7.655   2.891   0.142 -0.6855 -0.0973  0.3829
  399MOL0     C53755   7.785   2.905   0.086  0.0915  0.0282  1.3039
  399MOL0     C53756   7.813   2.897  -0.052  0.3613 -0.5876  0.8150
  399MOL0     C53757   7.934   2.907  -0.117 -0.2273  0.8569 -0.5568
  399MOL0     C53758   7.937   2.889  -0.267 -0.2642  0.7313  0.4016
  399MOL0     C53759   8.050   2.917  -0.037 -0.1732 -1.0775 -0.1443
  399MOL0     C53760   8.182   2.924  -0.097  1.1039 -1.1213 -0.0739
  399MOL0     O53761   8.206   2.888  -0.229 -0.1311 -0.9927 -0.0016
  399MOL0     C53762   8.331   2.864  -0.272 -0.4518 -0.0899  0.1006
  399MOL0     C53763   8.444   2.944  -0.241  0.3906  0.2241 -0.2430
  399MOL0     C53764   8.561   2.925  -0.316 -0.7811  0.4840  0.3510
  399MOL0     C53765   8.571   2.845  -0.438 -0.1260  0.4312  0.1513
  399MOL0     O53766   8.691   2.829  -0.494 -0.1232  0.0324  0.7198
  399MOL0     C53767   8.691   2.809  -0.646 -0.4395 -0.2429  0.1712
  399MOL0     C53768   8.831   2.860  -0.695  0.7002 -0.3530 -0.4956
  399MOL0     C53769   8.900   2.761  -0.787  0.1783  1.1109 -0.5759
  399MOL0     C53770   9.003   2.816  -0.895 -0.6042  1.2848 -0.4212
  399MOL0     C53771   9.010   2.697  -1.004  0.1764 -1.1337  0.2622
  399MOL0     C53772   9.127   2.731  -1.103 -0.6272  0.5421 -0.3102
  399MOL0     C53773   9.268   2.740  -1.044  1.2586 -0.7836  0.1577
  399MOL0     C53774   9.321   2.610  -0.977 -0.1918 -0.5214 -0.7934
  399MOL0    Cl53775   9.301   2.469  -1.087 -0.1531  0.4766  0.3119
  399MOL0     C53776   8.460   2.765  -0.462  0.2075  0.0969 -0.4280
  399MOL0     C53777   8.348   2.771  -0.378  0.0257 -0.4040 -0.7472
  399MOL0     O53778   8.268   2.954  -0.017 -0.3149  0.7755  0.4999
  399MOL0     C53779   8.028   2.943   0.103  0.2431 -0.1416  0.7126
  399MOL0     C53780   7.898   2.920   0.162 -0.8710  0.5913  0.1503
  399MOL0     N53781   7.454   3.112   0.592 -0.1904 -0.1869 -0.1292
  399MOL0     N53782   7.473   3.226   0.654 -0.2971  1.0287 -0.0818
  399MOL0     C53783   8.419   3.746   0.873 -0.3415 -0.1953 -0.3992
  399MOL0     C53784   8.507   3.731   0.769  0.0529  0.4143 -0.8821
  399MOL0     C53785   8.675   3.625   0.351 -0.1122  1.0844  0.6437
  399MOL0     C53786   8.760   3.733   0.336  0.0089 -0.6264 -0.1820
  399MOL0     C53787   8.875   3.725   0.260 -0.0954 -0.8096 -0.8201
  399MOL0     C53788   8.909   3.622   0.181 -0.8978  0.0925 -0.1488
  399MOL0     O53789   9.020   3.630   0.109 -0.2119  0.2826 -0.2484
  399MOL0     C53790   9.067   3.517   0.046 -1.7001 -0.2283  0.3016
  399MOL0     C53791   9.197   3.558  -0.022  1.1933 -0.0170  0.0313
  399MOL0     C53792   9.264   3.428  -0.074  0.3211 -0.2040  0.3480
  399MOL0     C53793   9.384   3.468  -0.158  0.1690 -0.6825  0.4396
  399MOL0     C53794   9.480   3.562  -0.089 -0.1116  0.0022 -0.7963
  399MOL0     C53795   9.551   3.659  -0.046  0.1375 -0.3171 -0.1362
  399MOL0     C53796   8.819   3.512   0.195  0.5262  0.0530  0.7919
  399MOL0     C53797   8.704   3.510   0.271  0.2220 -0.9835 -0.2737
  399MOL0     H53798   8.294   3.736   0.509  2.2552  2.4278 -0.3572
  399MOL0     H53799   8.133   3.742   0.695  0.8872  1.0201  0.7305
  399MOL0     H53800   8.210   3.544   0.965  1.4377 -0.0940  0.3548
  399MOL0     H53801   8.281   3.635   1.088  0.8914 -2.7780 -1.3774
  399MOL0     H53802   8.060   3.554   1.186 -0.9169  0.3352  0.4694
  399MOL0     H53803   8.058   3.725   1.157  1.5715 -0.0549 -0.7363
  399MOL0     H53804   7.857   3.597   1.090  0.1756 -0.1893  0.2093
  399MOL0     H53805   7.930   3.697   0.959  1.4658  1.8870  2.5882
  399MOL0     H53806   8.018   3.487   0.845 -1.3934 -0.7428 -0.8713
  399MOL0     H53807   7.946   3.394   0.980  1.1266 -1.5794 -1.7005
  399MOL0     H53808   7.729   3.459   0.921  1.8737 -0.1745  2.2652
  399MOL0     H53809   7.777   3.590   0.828 -2.7880 -0.4986  0.7547
  399MOL0     H53810   7.910   3.376   0.682 -1.5529  0.3218 -4.8387
  399MOL0     H53811   7.763   3.303   0.743  1.0260 -0.6781  1.4001
  399MOL0     H53812   7.754   3.577   0.621  4.5954 -0.2859  1.3577
  399MOL0     H53813   7.779   3.433   0.514 -1.0680 -0.8856 -0.5389
  399MOL0     H53814   7.546   3.524   0.551  5.4155  2.3468 -0.9800
  399MOL0     H53815   7.540   3.475   0.711  1.4901 -0.3685  0.8159
  399MOL0     H53816   7.640   3.275   0.379 -0.7938 -2.4624 -2.4918
  399MOL0     H53817   7.617   3.002   0.338 -0.2994 -3.0143  1.6008
  399MOL0     H53818   7.471   2.930   0.405  2.0033  1.3312  4.4273
  399MOL0     H53819   7.524   3.154   0.207  1.5439 -2.6587 -0.3463
  399MOL0     H53820   7.357   3.146   0.259 -0.5460 -0.2473 -1.8136
  399MOL0     H53821   7.351   3.010   0.060  0.7171 -1.4523 -1.4604
  399MOL0     H53822   7.370   2.886   0.176 -0.6954  2.5298  1.3996
  399MOL0     H53823   7.574   3.005  -0.020  2.5927 -1.3960 -0.4696
  399MOL0     H53824   7.515   2.845  -0.005 -0.2243  1.1675 -1.9680
  399MOL0     H53825   7.724   2.892  -0.114  0.9069  3.7187 -0.6531
  399MOL0     H53826   7.982   2.973  -0.322  0.8230 -1.1472 -1.7137
  399MOL0     H53827   7.979   2.794  -0.298 -0.3688  0.7109  0.3215
  399MOL0     H53828   7.830   2.884  -0.290 -0.4590 -0.7193  1.4801
  399MOL0     H53829   8.447   3.013  -0.157 -0.8003 -0.1766  0.1517
  399MOL0     H53830   8.648   2.983  -0.287 -0.6595  0.6156 -0.2558
  399MOL0     H53831   8.683   2.702  -0.665  0.2229  0.3315 -4.3537
  399MOL0     H53832   8.609   2.865  -0.691 -0.6163  1.2864  2.2110
  399MOL0     H53833   8.806   2.947  -0.756  2.0698 -0.4125 -1.1844
  399MOL0     H53834   8.896   2.882  -0.610 -0.8345 -1.2868  0.9908
  399MOL0     H53835   8.823   2.700  -0.835  0.2111 -0.1763  0.9197
  399MOL0     H53836   8.949   2.694  -0.716  0.4313  0.7455 -1.0903
  399MOL0     H53837   8.970   2.908  -0.945 -1.0095  0.0922 -2.4773
  399MOL0     H53838   9.103   2.829  -0.853 -1.7490  0.9054  2.6545
  399MOL0     H53839   8.918   2.700  -1.063  0.3289 -1.8052 -0.0156
  399MOL0     H53840   9.028   2.601  -0.955  0.9087 -1.0988  0.0690
  399MOL0     H53841   9.133   2.653  -1.180  0.1174  1.5195 -1.2691
  399MOL0     H53842   9.103   2.821  -1.161 -0.3781  0.8156  0.0106
  399MOL0     H53843   9.261   2.826  -0.977  0.4059 -0.5537 -0.2029
  399MOL0     H53844   9.341   2.758  -1.124  0.3167  0.3815 -0.4877
  399MOL0     H53845   9.264   2.600  -0.884  1.7639  0.2389  0.5621
  399MOL0     H53846   9.426   2.626  -0.950  0.1045 -2.5677 -0.5902
  399MOL0     H53847   8.459   2.696  -0.545 -1.4994 -0.2915 -0.1194
  399MOL0     H53848   8.256   2.721  -0.404  0.7994 -2.1841 -0.1886
  399MOL0     H53849   8.108   2.980   0.167  0.7146  4.0369 -1.9367
  399MOL0     H53850   7.876   2.938   0.267 -0.7101 -0.0922  0.3069
  399MOL0     H53851   8.474   3.765   0.965 -0.0750 -0.2806 -0.5393
  399MOL0     H53852   8.612   3.730   0.795  0.0584  3.1217 -0.5418
  399MOL0     H53853   8.739   3.822   0.395 -1.7288 -1.2424  0.1862
  399MOL0     H53854   8.937   3.814   0.259  0.0092 -0.7824  1.4552
  399MOL0     H53855   9.092   3.441   0.121  3.8986  0.7090 -0.2052
  399MOL0     H53856   8.988   3.473  -0.015 -0.5754 -2.2083  0.1859
  399MOL0     H53857   9.258   3.608   0.054 -0.2366  0.8385  0.6535
  399MOL0     H53858   9.185   3.637  -0.097  1.1912 -2.1765 -2.3540
  399MOL0     H53859   9.194   3.387  -0.147 -0.0874  0.4308  0.3726
  399MOL0     H53860   9.301   3.371   0.012  3.0242  0.0782 -0.5560
  399MOL0     H53861   9.358   3.525  -0.248  2.7311 -2.1064 -1.3334
  399MOL0     H53862   9.444   3.381  -0.187 -0.0750 -1.6207  2.5672
  399MOL0     H53863   9.614   3.735  -0.005  0.2877  0.8192 -2.3337
  399MOL0     H53864   8.836   3.419   0.142 -4.6355  0.0866 -1.5489
  399MOL0     H53865   8.630   3.430   0.269 -0.1859 -0.7135  1.6202
  400MOL0     O53866   8.601   3.523   3.333  0.2095  0.8533  0.7385
  400MOL0     C53867   8.652   3.426   3.386 -0.1262 -0.4476  0.5938
  400MOL0     O53868   8.596   3.307   3.426 -0.0948  0.2559  0.3383
  400MOL0     C53869   8.468   3.268   3.385  0.8028  0.3151  0.4096
  400MOL0     C53870   8.421   3.303   3.260  0.2228 -1.2488  0.1291
  400MOL0     C53871   8.287   3.266   3.215 -0.3245 -0.1535  0.2278
  400MOL0     C53872   8.196   3.222   3.307 -0.6379  0.1801 -0.2020
  400MOL0     O53873   8.074   3.175   3.258 -0.7077  0.3427  0.0596
  400MOL0     C53874   7.959   3.228   3.317  0.9229 -1.0169 -0.9323
  400MOL0     C53875   7.891   3.341   3.239 -0.8245  0.1504  0.0591
  400MOL0     C53876   7.751   3.391   3.281 -1.3900 -0.7663  0.1257
  400MOL0     C53877   7.678   3.447   3.167 -0.8826 -0.5746 -0.3195
  400MOL0     C53878   7.530   3.493   3.190  0.4634 -0.1694 -0.9630
  400MOL0     C53879   7.456   3.519   3.063 -0.4989 -0.5853  0.1724
  400MOL0     C53880   7.427   3.401   2.976  0.3036 -0.0646 -0.3815
  400MOL0     C53881   7.410   3.439   2.827  0.1735  0.7600  0.6335
  400MOL0     N53882   7.297   3.532   2.804  0.4209  0.1367  0.2108
  400MOL0     C53883   7.301   3.649   2.739  0.0183  0.2507 -0.2392
  400MOL0     C53884   7.168   3.673   2.716 -0.7935  0.5754  0.8046
  400MOL0     C53885   7.127   3.775   2.609  0.7599 -0.5022 -1.0571
  400MOL0     C53886   7.005   3.853   2.644  0.5324 -0.6854  0.4028
  400MOL0     C53887   7.019   3.931   2.775 -0.6462 -0.9653 -0.4694
  400MOL0     C53888   6.891   4.015   2.810 -0.1654 -0.4376 -0.0110
  400MOL0     O53889   6.911   4.110   2.919 -0.7036  0.5852 -0.2373
  400MOL0     C53890   6.807   4.182   2.966  0.3050  0.1249 -0.1776
  400MOL0     C53891   6.827   4.242   3.092 -0.4705 -0.5724  0.5185
  400MOL0     C53892   6.732   4.325   3.145  1.4486 -0.1165 -0.8814
  400MOL0     C53893   6.767   4.382   3.284 -0.0761  0.1943 -0.5860
  400MOL0     C53894   6.610   4.348   3.086 -0.5718  0.0071 -0.2294
  400MOL0     C53895   6.508   4.444   3.132 -0.4475 -0.0112  0.3197
  400MOL0     O53896   6.507   4.480   3.263  0.0788  0.1475 -0.1559
  400MOL0     C53897   6.435   4.596   3.281 -0.2243 -0.2309 -0.7292
  400MOL0     C53898   6.485   4.722   3.251  0.6034  0.3116  0.2321
  400MOL0     C53899   6.431   4.837   3.320 -0.0408 -0.0291  0.9197
  400MOL0     C53900   6.302   4.830   3.379  0.7414 -0.0418 -0.5582
  400MOL0     O53901   6.241   4.953   3.410 -0.4818 -0.1236  0.0432
  400MOL0     C53902   6.105   4.962   3.451 -0.3575  0.2914 -0.2030
  400MOL0     C53903   6.066   5.111   3.460 -0.2187  0.2975  0.1516
  400MOL0     C53904   5.927   5.132   3.507 -0.1189 -0.3301 -0.1156
  400MOL0     C53905   5.903   5.274   3.574 -0.2735 -0.4231 -0.2087
  400MOL0     C53906   5.779   5.344   3.524  0.5942 -0.6844  0.3785
  400MOL0     C53907   5.640   5.273   3.567 -0.1065 -0.4557  0.6344
  400MOL0     C53908   5.526   5.343   3.490 -0.6109  0.4786  1.1261
  400MOL0     C53909   5.399   5.267   3.476 -0.4640  0.5002  0.5048
  400MOL0    Cl53910   5.263   5.370   3.423  0.3606 -0.2087  0.3666
  400MOL0     C53911   6.246   4.699   3.404 -0.6675  0.4177  0.6031
  400MOL0     C53912   6.319   4.584   3.361 -0.1214 -0.5636  0.4000
  400MOL0     O53913   6.418   4.480   3.053 -0.0003 -0.8543  0.5367
  400MOL0     C53914   6.593   4.290   2.956 -0.0962  0.4778 -1.0564
  400MOL0     C53915   6.687   4.207   2.898 -0.1260  0.2366  0.6473
  400MOL0     N53916   7.090   3.569   2.749  1.5561  0.1015 -0.7375
  400MOL0     N53917   7.167   3.491   2.815  0.0339 -0.0922  0.3303
  400MOL0     C53918   8.249   3.181   3.431 -0.4023 -0.2547 -0.0588
  400MOL0     C53919   8.383   3.197   3.470  0.5403 -0.4047  0.1212
  400MOL0     C53920   8.800   3.439   3.410 -0.4259 -0.5211  0.1861
  400MOL0     C53921   8.869   3.361   3.505 -0.1226  0.3533 -0.4888
  400MOL0     C53922   9.007   3.368   3.507  0.2547  0.6710  0.0386
  400MOL0     C53923   9.085   3.449   3.427  0.0593 -0.0630  0.1629
  400MOL0     O53924   9.223   3.430   3.423 -0.3867 -0.5936  0.1983
  400MOL0     C53925   9.313   3.501   3.332  0.6087  0.5719  0.6969
  400MOL0     C53926   9.451   3.449   3.337 -1.6625 -0.2322  0.5412
  400MOL0     C53927   9.462   3.295   3.314 -0.2092  0.7106 -0.8982
  400MOL0     C53928   9.583   3.258   3.240 -0.6108 -0.1749  0.3891
  400MOL0     C53929   9.575   3.116   3.200 -0.6575  0.4069 -0.1392
  400MOL0     C53930   9.564   2.998   3.175  0.2088 -0.2839  0.0517
  400MOL0     C53931   9.020   3.535   3.339  0.4648  0.4509  0.2183
  400MOL0     C53932   8.881   3.527   3.332  0.2549 -1.0520  0.7072
  400MOL0     H53933   8.473   3.362   3.185 -0.5941 -0.0639  0.4685
  400MOL0     H53934   8.249   3.295   3.118 -1.2094  1.6595  1.0785
  400MOL0     H53935   7.881   3.151   3.323 -0.4460  0.4000  0.6526
  400MOL0     H53936   7.975   3.267   3.418  1.4853  0.7124 -1.6555
  400MOL0     H53937   7.962   3.424   3.239 -0.4581 -0.0723  2.5393
  400MOL0     H53938   7.887   3.295   3.140  0.3103 -1.2438  0.6147
  400MOL0     H53939   7.700   3.304   3.324  0.3377 -0.6999  2.5140
  400MOL0     H53940   7.763   3.476   3.349  1.7431  1.3847 -2.7720
  400MOL0     H53941   7.731   3.533   3.127 -1.5177 -0.6870 -1.4528
  400MOL0     H53942   7.676   3.373   3.086 -1.0115  2.4575 -3.3404
  400MOL0     H53943   7.472   3.419   3.247 -2.1570  1.1099 -1.8234
  400MOL0     H53944   7.524   3.590   3.241 -4.0155 -0.0912 -1.3019
  400MOL0     H53945   7.360   3.560   3.096 -1.4371 -2.4287 -0.1241
  400MOL0     H53946   7.501   3.596   2.999 -1.1038 -1.7520 -1.7518
  400MOL0     H53947   7.500   3.321   2.988  0.0107 -0.0155  2.3023
  400MOL0     H53948   7.326   3.368   3.003 -0.4506  2.0199 -0.4198
  400MOL0     H53949   7.386   3.344   2.780  1.5597  1.3013 -1.2858
  400MOL0     H53950   7.492   3.490   2.777  0.3532  2.6067  2.6042
  400MOL0     H53951   7.388   3.691   2.688  1.0425 -2.8701 -1.3323
  400MOL0     H53952   7.204   3.852   2.595  1.0865 -0.3627  1.1604
  400MOL0     H53953   7.103   3.734   2.510 -0.6846 -0.1321 -0.8836
  400MOL0     H53954   6.924   3.778   2.648  2.3857 -2.7318  1.7741
  400MOL0     H53955   6.992   3.929   2.567  0.4617 -2.6776 -1.6544
  400MOL0     H53956   7.106   3.998   2.771 -1.0319 -0.3076  1.2218
  400MOL0     H53957   7.035   3.854   2.851  0.7374 -0.1928  0.0641
  400MOL0     H53958   6.814   3.942   2.837 -0.0936 -0.4821  0.0748
  400MOL0     H53959   6.869   4.070   2.718  2.0902 -0.9057 -0.8909
  400MOL0     H53960   6.923   4.214   3.135 -0.2049  0.3424  0.5361
  400MOL0     H53961   6.748   4.488   3.300  0.8421  0.0422  2.1003
  400MOL0     H53962   6.719   4.321   3.362  1.8803 -2.0084 -1.0154
  400MOL0     H53963   6.876   4.375   3.295 -0.0355 -1.2365 -1.6966
  400MOL0     H53964   6.565   4.735   3.178 -2.0798  3.0035 -2.5364
  400MOL0     H53965   6.468   4.937   3.299  2.0485 -0.4568  2.2313
  400MOL0     H53966   6.040   4.908   3.382 -2.1486  0.9121  0.9176
  400MOL0     H53967   6.097   4.914   3.549  3.2184 -2.9071 -1.2409
  400MOL0     H53968   6.134   5.148   3.537  1.1615 -2.1751  0.2146
  400MOL0     H53969   6.100   5.159   3.367 -0.9260 -2.5222 -1.6914
  400MOL0     H53970   5.899   5.059   3.583  0.5321 -1.1948 -0.7012
  400MOL0     H53971   5.861   5.124   3.421 -0.4107  1.3601 -0.0979
  400MOL0     H53972   5.900   5.245   3.680 -3.0065 -3.6763 -0.9961
  400MOL0     H53973   5.989   5.340   3.559 -0.6805  0.7145  2.0522
  400MOL0     H53974   5.780   5.342   3.414 -2.1591 -2.3861  0.3116
  400MOL0     H53975   5.777   5.448   3.559  1.6468  0.4635 -2.6167
  400MOL0     H53976   5.641   5.168   3.537  4.3403 -0.8530  1.5015
  400MOL0     H53977   5.629   5.292   3.674  1.5699  1.6192  0.5043
  400MOL0     H53978   5.559   5.365   3.388  0.6876  3.3947  2.0412
  400MOL0     H53979   5.518   5.441   3.539  0.9923  0.8520  0.7046
  400MOL0     H53980   5.383   5.215   3.570  1.3910 -2.5260 -0.7201
  400MOL0     H53981   5.412   5.183   3.407  0.0083  1.0152 -0.0508
  400MOL0     H53982   6.146   4.694   3.445 -0.0977 -1.3262  1.9268
  400MOL0     H53983   6.279   4.486   3.384 -1.3482  0.4037  2.6346
  400MOL0     H53984   6.505   4.311   2.896 -0.7768  3.0790  0.6711
  400MOL0     H53985   6.671   4.158   2.802  0.4351 -0.7846  1.0682
  400MOL0     H53986   8.182   3.144   3.507 -1.7021  1.5633 -0.2632
  400MOL0     H53987   8.418   3.171   3.569  1.0094 -0.1089  0.0389
  400MOL0     H53988   8.826   3.295   3.579 -2.1749  1.4332 -0.6401
  400MOL0     H53989   9.071   3.306   3.569  0.1851  0.2457 -0.3135
  400MOL0     H53990   9.275   3.468   3.235  3.5328  1.6368 -0.9072
  400MOL0     H53991   9.307   3.610   3.342  0.6824  0.6004  0.4227
  400MOL0     H53992   9.488   3.479   3.435  0.6764 -2.9932  0.6317
  400MOL0     H53993   9.511   3.492   3.256 -0.3789 -1.0497  1.0376
  400MOL0     H53994   9.380   3.259   3.252  0.8944 -2.1637 -0.8318
  400MOL0     H53995   9.461   3.247   3.412 -0.2041  0.7947 -0.8570
  400MOL0     H53996   9.675   3.282   3.294 -0.7406 -0.2533  0.6470
  400MOL0     H53997   9.577   3.318   3.149  0.4160 -1.3646 -0.4994
  400MOL0     H53998   9.542   2.896   3.153  1.1914 -0.6987  0.9077
  400MOL0     H53999   9.075   3.603   3.275 -2.4872  1.2590 -1.6411
  400MOL0     H54000   8.831   3.588   3.258  0.4973 -3.3121 -1.4486
  401MOL0     O54001   8.200   4.662   9.993 -0.4885 -0.2050 -0.6039
  401MOL0     C54002   8.219   4.778  10.014  0.1640 -0.3090 -0.0910
  401MOL0     O54003   8.118   4.862  10.054 -1.1059 -0.5027 -0.6606
  401MOL0     C54004   7.983   4.829  10.036  0.4249  0.2107  0.3204
  401MOL0     C54005   7.904   4.861  10.144  0.7641 -0.6658 -0.4054
  401MOL0     C54006   7.765   4.827  10.135  0.8952  0.5722  0.1821
  401MOL0     C54007   7.696   4.775  10.027 -0.2285  1.4314  0.3225
  401MOL0     O54008   7.567   4.749  10.041  0.5159  0.0998  0.3699
  401MOL0     C54009   7.491   4.700   9.927 -0.2233 -0.5246  0.1563
  401MOL0     C54010   7.352   4.668   9.978 -0.7134 -0.3012  0.3455
  401MOL0     C54011   7.253   4.632   9.878 -0.0122  0.0516  0.1696
  401MOL0     C54012   7.126   4.608   9.964 -0.3972 -0.6777  0.6214
  401MOL0     C54013   7.018   4.559   9.876 -0.3726 -0.3643  0.0757
  401MOL0     C54014   6.901   4.488   9.955 -0.2349 -0.6258  1.2681
  401MOL0     C54015   6.795   4.408   9.864 -0.2824 -0.0948 -0.6496
  401MOL0     C54016   6.676   4.363   9.959 -0.4578 -0.0454  1.2506
  401MOL0     N54017   6.569   4.271   9.904 -0.0655  0.4444  0.1168
  401MOL0     C54018   6.455   4.249   9.971  0.5072  0.6510 -0.5171
  401MOL0     C54019   6.393   4.146   9.906 -0.0333  0.3078  0.1823
  401MOL0     C54020   6.255   4.088   9.943  0.3822  0.2640 -0.0890
  401MOL0     C54021   6.153   4.105   9.837 -0.3938 -0.1806  0.7989
  401MOL0     C54022   6.123   4.253   9.801 -0.1647  0.2995  0.0892
  401MOL0     C54023   6.022   4.314   9.899  0.1056  0.4213  0.0467
  401MOL0     O54024   6.018   4.457   9.871 -0.7112 -0.3510 -0.0095
  401MOL0     C54025   6.125   4.544   9.909  1.0055 -0.4155 -0.2900
  401MOL0     C54026   6.147   4.665   9.851 -0.3718  0.0335 -0.0893
  401MOL0     C54027   6.261   4.746   9.882 -0.2541 -0.1890 -0.4833
  401MOL0     C54028   6.270   4.862   9.800 -0.5672 -0.6775  0.0053
  401MOL0     C54029   6.340   4.700   9.994 -0.4208 -1.1606  1.3880
  401MOL0     C54030   6.463   4.768  10.021  0.3749  0.2886 -0.1401
  401MOL0     O54031   6.551   4.769   9.918 -0.3793  0.0347  0.6343
  401MOL0     C54032   6.675   4.827   9.906  0.6937  0.5750 -0.4193
  401MOL0     C54033   6.727   4.867   9.781  0.1882 -0.7501  0.6052
  401MOL0     C54034   6.848   4.945   9.774 -0.3626  0.4975  0.1610
  401MOL0     C54035   6.924   4.982   9.892  0.4052  0.6499  0.4762
  401MOL0     O54036   7.059   5.023   9.893  0.0804  0.1135  0.6995
  401MOL0     C54037   7.109   5.079   9.769 -0.5214  0.0161 -0.4532
  401MOL0     C54038   7.232   5.171   9.807  0.2269 -0.0476 -0.1751
  401MOL0     C54039   7.342   5.106   9.879 -0.1745  0.7096 -1.3663
  401MOL0     C54040   7.466   5.197   9.878  0.2987  1.1122  0.0399
  401MOL0     C54041   7.559   5.123   9.969  0.1540  0.1986  0.7228
  401MOL0     C54042   7.693   5.207   9.985 -0.1857  0.1780 -1.1628
  401MOL0     C54043   7.774   5.266   9.867  1.3155  0.7739  0.0131
  401MOL0     C54044   7.851   5.166   9.794 -0.2829  0.1511  0.3133
  401MOL0    Cl54045   7.972   5.239   9.678 -0.0854  0.4680  0.3987
  401MOL0     C54046   6.882   4.931  10.012  0.8435  0.2963 -0.3688
  401MOL0     C54047   6.757   4.857  10.020  0.2893  0.5042  0.2012
  401MOL0     O54048   6.480   4.808  10.132  0.4256  0.2161  0.1564
  401MOL0     C54049   6.309   4.584  10.058 -0.5761  0.0547  0.4997
  401MOL0     C54050   6.204   4.509  10.018 -0.0962 -0.3231  0.1839
  401MOL0     N54051   6.478   4.107   9.796  0.1675  0.0568 -0.5271
  401MOL0     N54052   6.579   4.188   9.794 -0.1397 -0.4886  0.2661
  401MOL0     C54053   7.778   4.746   9.909 -0.0584 -0.1880 -0.1979
  401MOL0     C54054   7.924   4.772   9.918  0.1042  0.3418 -1.2949
  401MOL0     C54055   8.355   4.823   9.996 -0.6611  0.4612  0.0991
  401MOL0     C54056   8.402   4.945  10.051  0.0802 -0.2646 -1.3129
  401MOL0     C54057   8.534   4.985  10.027 -0.2104 -0.2618  0.5983
  401MOL0     C54058   8.615   4.908   9.946 -0.6577 -1.0607 -0.1147
  401MOL0     O54059   8.743   4.959   9.933 -0.1688 -0.0072 -0.0154
  401MOL0     C54060   8.852   4.903   9.867  0.0109 -0.0585  0.1363
  401MOL0     C54061   8.986   4.953   9.932  0.0682 -0.5014 -0.2783
  401MOL0     C54062   8.998   4.925  10.085  0.5835 -0.1298  0.0317
  401MOL0     C54063   8.947   5.040  10.167  0.3312  0.1893 -0.2855
  401MOL0     C54064   9.049   5.147  10.170  0.4510  0.4308 -0.1283
  401MOL0     C54065   9.145   5.222  10.171 -0.0759  0.2506 -0.1033
  401MOL0     C54066   8.573   4.786   9.885  0.1952 -0.9575 -0.6718
  401MOL0     C54067   8.450   4.740   9.912  0.0949  0.1846 -0.1192
  401MOL0     H54068   7.944   4.906  10.235 -0.5269 -0.9856  0.3354
  401MOL0     H54069   7.689   4.846  10.210 -0.6165 -0.8838 -0.8784
  401MOL0     H54070   7.491   4.772   9.845 -0.5736 -2.6123 -1.7669
  401MOL0     H54071   7.536   4.604   9.897 -0.1955 -1.6551  3.4248
  401MOL0     H54072   7.373   4.591  10.053 -1.1404  1.5747  2.4754
  401MOL0     H54073   7.315   4.759  10.025 -3.1213 -0.9388 -0.1798
  401MOL0     H54074   7.241   4.721   9.816  1.5295 -1.4315 -2.4190
  401MOL0     H54075   7.281   4.551   9.810  0.8031  2.6984 -2.8987
  401MOL0     H54076   7.132   4.539  10.049  1.0149 -0.7384  0.4875
  401MOL0     H54077   7.094   4.707  10.001 -1.3991  0.0182 -1.9164
  401MOL0     H54078   6.987   4.635   9.805  0.7624  1.3485  1.3358
  401MOL0     H54079   7.064   4.478   9.818 -1.0493 -0.0833 -0.8809
  401MOL0     H54080   6.933   4.402  10.015 -1.7948 -3.6878 -1.8976
  401MOL0     H54081   6.853   4.567  10.013 -1.4471 -0.6858  0.3954
  401MOL0     H54082   6.757   4.471   9.783  1.7225 -0.0332 -1.6303
  401MOL0     H54083   6.829   4.311   9.825 -3.6328  0.1390 -4.8550
  401MOL0     H54084   6.636   4.457   9.998  0.4582 -0.2256  2.7034
  401MOL0     H54085   6.714   4.315  10.050  1.6891  1.1620  1.0608
  401MOL0     H54086   6.431   4.300  10.064 -0.5790  1.3493 -1.1645
  401MOL0     H54087   6.253   3.980   9.960 -0.5553  0.1423 -0.8684
  401MOL0     H54088   6.220   4.132  10.036  0.0253  1.7071 -0.8736
  401MOL0     H54089   6.060   4.052   9.861  0.2419 -1.7902 -0.1606
  401MOL0     H54090   6.194   4.062   9.745  2.1567  3.2063  0.1805
  401MOL0     H54091   6.076   4.269   9.704 -0.6295  1.1952  0.4488
  401MOL0     H54092   6.212   4.317   9.792 -0.2234  0.5463  1.1009
  401MOL0     H54093   6.037   4.293  10.005  0.9078 -0.2628 -0.1863
  401MOL0     H54094   5.929   4.266   9.868 -0.6752  1.1031  1.2686
  401MOL0     H54095   6.082   4.701   9.773 -5.1450  1.6552  4.1145
  401MOL0     H54096   6.334   4.937   9.848 -1.6290 -1.6540  3.1984
  401MOL0     H54097   6.318   4.826   9.709  0.3469  3.5176 -1.3814
  401MOL0     H54098   6.172   4.902   9.771 -0.6423 -0.2463  0.8103
  401MOL0     H54099   6.660   4.840   9.700  0.8215 -0.4616 -0.0225
  401MOL0     H54100   6.888   4.971   9.676  1.8641 -1.9232  0.3013
  401MOL0     H54101   7.133   5.006   9.691  0.2652  0.5436 -0.7259
  401MOL0     H54102   7.047   5.153   9.716 -0.7384  0.9709  1.0789
  401MOL0     H54103   7.278   5.203   9.714 -0.6167 -0.1270 -0.6249
  401MOL0     H54104   7.196   5.252   9.871  3.5933 -1.3986  3.9908
  401MOL0     H54105   7.363   5.007   9.839 -1.5348 -0.9279  1.6335
  401MOL0     H54106   7.315   5.073   9.980  0.6246  0.8649 -1.0973
  401MOL0     H54107   7.501   5.217   9.777  0.7649  0.3179  0.0354
  401MOL0     H54108   7.439   5.294   9.921  0.1717  1.1491 -0.1214
  401MOL0     H54109   7.587   5.023   9.935 -3.0622  0.2189 -2.5781
  401MOL0     H54110   7.515   5.107  10.068  0.9560  1.3307  1.2860
  401MOL0     H54111   7.659   5.299  10.033 -0.6338 -0.7174  0.3039
  401MOL0     H54112   7.763   5.160  10.056 -2.2118 -0.5279  0.4790
  401MOL0     H54113   7.843   5.344   9.901  0.4588  2.1743 -1.3263
  401MOL0     H54114   7.709   5.314   9.793  2.3744  0.5909 -1.0567
  401MOL0     H54115   7.786   5.100   9.736 -0.1970  2.1069 -2.1825
  401MOL0     H54116   7.901   5.096   9.862  2.3211  1.1334 -0.4781
  401MOL0     H54117   6.942   4.940  10.102  1.8972 -3.9973 -0.4031
  401MOL0     H54118   6.719   4.813  10.111 -3.8727 -1.6662 -2.2446
  401MOL0     H54119   6.372   4.538  10.134 -0.7404  0.3905  0.8405
  401MOL0     H54120   6.192   4.417  10.074  0.1074 -0.3231  0.2288
  401MOL0     H54121   7.749   4.695   9.818  2.1184 -0.1107 -0.9851
  401MOL0     H54122   7.987   4.743   9.835 -0.3486 -1.9965 -0.9078
  401MOL0     H54123   8.339   5.012  10.109  0.0157 -1.1183 -0.3665
  401MOL0     H54124   8.573   5.082  10.058  0.9014 -1.2553  2.4626
  401MOL0     H54125   8.847   4.794   9.866 -1.6099 -0.0010 -0.0834
  401MOL0     H54126   8.848   4.928   9.761 -3.8582  2.6258  0.7074
  401MOL0     H54127   9.001   5.061   9.921  1.1178 -0.3570  1.9470
  401MOL0     H54128   9.065   4.906   9.873 -0.2971  0.5131 -1.6408
  401MOL0     H54129   9.104   4.910  10.103  0.0183 -0.2940  3.9644
  401MOL0     H54130   8.951   4.829  10.111  1.8501 -0.3804  1.5215
  401MOL0     H54131   8.917   5.009  10.268  1.9352  3.2001  1.2694
  401MOL0     H54132   8.857   5.079  10.119 -0.8991 -1.5892  0.4698
  401MOL0     H54133   9.242   5.267  10.172  0.0565 -0.0177  1.0724
  401MOL0     H54134   8.629   4.714   9.826  1.8234 -0.9222  0.7361
  401MOL0     H54135   8.425   4.650   9.858  0.6116 -2.5592  3.7982
  402MOL0     O54136   8.799   6.884  10.376 -0.2711  0.1380 -0.1364
  402MOL0     C54137   8.782   6.998  10.411  0.1448  0.6057 -1.3752
  402MOL0     O54138   8.669   7.043  10.478 -0.4405 -0.1335  0.0255
  402MOL0     C54139   8.597   6.951  10.535 -0.4360  0.5686  0.0237
  402MOL0     C54140   8.641   6.873  10.644 -0.0873 -1.0208  0.0964
  402MOL0     C54141   8.558   6.787  10.711 -0.0772 -0.2629  1.1465
  402MOL0     C54142   8.426   6.764  10.668  0.4755  0.2159 -0.1338
  402MOL0     O54143   8.349   6.671  10.736 -0.0886 -1.0046 -0.3773
  402MOL0     C54144   8.396   6.563  10.819 -0.4932 -0.0862  0.0148
  402MOL0     C54145   8.494   6.473  10.726 -0.7161  0.4703 -0.9365
  402MOL0     C54146   8.549   6.346  10.812  0.0838 -0.5962 -0.8660
  402MOL0     C54147   8.663   6.279  10.739 -1.1782 -0.1269 -0.7989
  402MOL0     C54148   8.661   6.121  10.766 -1.0363 -0.8120 -1.0590
  402MOL0     C54149   8.767   6.038  10.690  0.2308 -0.1152 -0.8735
  402MOL0     C54150   8.796   5.907  10.763 -0.3496  0.4734 -0.0991
  402MOL0     C54151   8.881   5.806  10.678 -0.4718 -1.4421  0.1585
  402MOL0     N54152   9.022   5.846  10.662 -0.1862  0.4683  0.2666
  402MOL0     C54153   9.133   5.782  10.719 -0.4269 -0.6403 -1.3523
  402MOL0     C54154   9.238   5.843  10.660  0.1836  0.6594 -0.0902
  402MOL0     C54155   9.390   5.815  10.683  0.4950 -0.0849 -0.5410
  402MOL0     C54156   9.437   5.902  10.796  0.1260  0.3964 -0.2597
  402MOL0     C54157   9.589   5.918  10.806 -0.2120 -0.6196  0.5785
  402MOL0     C54158   9.659   5.980  10.679  0.4530  0.0586 -0.6116
  402MOL0     O54159   9.599   6.101  10.641 -0.1546 -0.3681  0.3611
  402MOL0     C54160   9.601   6.114  10.507  0.7894  0.0105  0.8458
  402MOL0     C54161   9.723   6.126  10.440  0.4449  0.0682  0.0557
  402MOL0     C54162   9.729   6.136  10.304 -0.5400  0.9372 -0.4106
  402MOL0     C54163   9.870   6.163  10.245 -0.4040  0.5776  0.3905
  402MOL0     C54164   9.604   6.124  10.230 -0.4850  0.0605 -1.1134
  402MOL0     C54165   9.602   6.094  10.087  0.7887  0.0200  0.2417
  402MOL0     O54166   9.482   6.107  10.018  0.0573  0.7197  0.2496
  402MOL0     C54167   9.480   6.062   9.881  0.6440  0.9659 -1.1650
  402MOL0     C54168   9.481   5.923   9.872 -0.2180 -0.0827  1.2560
  402MOL0     C54169   9.473   5.856   9.744 -0.5306 -0.1842  0.0744
  402MOL0     C54170   9.453   5.932   9.624 -0.5107 -0.0022 -1.1722
  402MOL0     O54171   9.419   5.884   9.508  0.3614 -0.3313 -0.2602
  402MOL0     C54172   9.449   5.752   9.469 -0.2458 -0.4388 -0.0468
  402MOL0     C54173   9.607   5.747   9.444 -0.1101 -1.1621  1.4203
  402MOL0     C54174   9.631   5.804   9.299  0.6858 -0.2488  0.4092
  402MOL0     C54175   9.643   5.959   9.301  0.6986  0.5423 -0.3431
  402MOL0     C54176   9.719   6.020   9.185  0.5660 -0.0680 -0.3196
  402MOL0     C54177   9.738   6.177   9.209 -0.4410 -0.5407  0.4290
  402MOL0     C54178   9.774   6.231   9.069  0.9149  0.5855 -0.3144
  402MOL0     C54179   9.848   6.359   9.079  1.0169  0.3647  0.0008
  402MOL0    Cl54180   9.852   6.433   8.906 -0.3953 -0.7247  0.0589
  402MOL0     C54181   9.445   6.070   9.632  0.7548  0.1443 -0.8616
  402MOL0     C54182   9.469   6.141   9.758 -0.8176  0.1537  0.5813
  402MOL0     O54183   9.701   6.051  10.028 -0.4590 -0.1280  0.1100
  402MOL0     C54184   9.480   6.114  10.301  0.0186 -0.7015  0.7622
  402MOL0     C54185   9.481   6.108  10.435  0.0107 -0.6373 -0.7016
  402MOL0     N54186   9.183   5.928  10.568 -0.1012  0.1164 -0.1256
  402MOL0     N54187   9.059   5.937  10.573  0.5234  0.2081  0.3894
  402MOL0     C54188   8.371   6.853  10.578  0.2116  0.0078 -0.1833
  402MOL0     C54189   8.459   6.947  10.507  0.0497 -0.8535 -0.9517
  402MOL0     C54190   8.888   7.092  10.359  0.5006 -0.5342 -0.0090
  402MOL0     C54191   8.987   7.051  10.268  0.3294  0.3824 -0.3195
  402MOL0     C54192   9.082   7.144  10.219  0.2402  0.2732  0.0992
  402MOL0     C54193   9.076   7.278  10.243  0.5891  0.2578  0.4877
  402MOL0     O54194   9.150   7.375  10.174  0.4867 -0.2175 -0.3828
  402MOL0     C54195   9.283   7.380  10.217 -0.1890  0.2470 -0.2296
  402MOL0     C54196   9.384   7.340  10.112  0.3990 -0.5338  0.1583
  402MOL0     C54197   9.393   7.450  10.006  0.5427 -0.2478  0.7088
  402MOL0     C54198   9.475   7.415   9.882 -1.0395  0.2603 -0.4180
  402MOL0     C54199   9.614   7.373   9.925 -0.0953  0.4841  0.2102
  402MOL0     C54200   9.716   7.326   9.961  0.9104 -0.0564  0.1485
  402MOL0     C54201   8.964   7.325  10.320 -0.7286 -0.4294  1.3829
  402MOL0     C54202   8.876   7.236  10.386  0.1354 -0.3432 -0.2093
  402MOL0     H54203   8.743   6.865  10.679 -0.1325 -2.0738  0.0257
  402MOL0     H54204   8.602   6.735  10.796  0.2101  1.4527  2.0975
  402MOL0     H54205   8.439   6.618  10.903  1.0612 -0.7050 -0.3449
  402MOL0     H54206   8.312   6.503  10.854 -0.9085 -0.7936 -2.0576
  402MOL0     H54207   8.449   6.442  10.632  1.6307  0.9914 -2.3000
  402MOL0     H54208   8.587   6.521  10.693 -2.2566  1.8502 -3.5925
  402MOL0     H54209   8.594   6.383  10.905 -2.4224  0.8068 -0.0881
  402MOL0     H54210   8.465   6.277  10.829  0.3393 -0.2247  2.5953
  402MOL0     H54211   8.659   6.291  10.630  0.0387 -2.8211 -1.2072
  402MOL0     H54212   8.760   6.310  10.779 -0.4384 -2.6085 -0.5318
  402MOL0     H54213   8.694   6.102  10.868  3.2713  2.6745 -1.5238
  402MOL0     H54214   8.560   6.080  10.751 -1.1401 -2.5714  3.0814
  402MOL0     H54215   8.724   6.021  10.591 -0.2504 -0.2763 -0.6421
  402MOL0     H54216   8.856   6.101  10.691 -1.4211  2.3761 -0.7018
  402MOL0     H54217   8.854   5.933  10.851 -1.5862  2.8756  0.0777
  402MOL0     H54218   8.710   5.853  10.802  1.4205 -0.5953  2.5866
  402MOL0     H54219   8.829   5.783  10.585  1.2263  1.2320 -1.5930
  402MOL0     H54220   8.893   5.718  10.742  0.3807 -0.5462  1.2891
  402MOL0     H54221   9.136   5.709  10.799 -1.4085 -1.5895 -2.1444
  402MOL0     H54222   9.407   5.709  10.705 -1.6737 -0.4654 -0.4224
  402MOL0     H54223   9.444   5.848  10.594  0.2796  1.7492 -0.0142
  402MOL0     H54224   9.403   5.856  10.890  2.3053 -0.8212 -0.0101
  402MOL0     H54225   9.390   6.000  10.783 -0.4169  0.4178  1.5229
  402MOL0     H54226   9.638   5.823  10.827  2.4729  0.7097  0.7314
  402MOL0     H54227   9.608   5.983  10.891  1.8590 -3.9633  2.9080
  402MOL0     H54228   9.651   5.911  10.594  2.0947 -0.6015 -0.2475
  402MOL0     H54229   9.764   6.000  10.701  0.2487  4.1638 -2.3604
  402MOL0     H54230   9.821   6.128  10.487  1.0671  1.0073 -1.2194
  402MOL0     H54231   9.869   6.205  10.143  0.5052  3.9408  1.6347
  402MOL0     H54232   9.927   6.231  10.308  0.3172 -0.7320  1.1976
  402MOL0     H54233   9.920   6.067  10.230 -2.2197 -0.6011  1.4323
  402MOL0     H54234   9.495   5.861   9.961  0.7386  1.9817  2.6269
  402MOL0     H54235   9.485   5.748   9.750 -1.4770 -0.2225  2.0057
  402MOL0     H54236   9.422   5.669   9.534  0.6507 -1.0671 -0.4562
  402MOL0     H54237   9.392   5.730   9.378 -0.1967  4.4507 -1.5758
  402MOL0     H54238   9.673   5.796   9.516  0.6271 -0.6899  0.4469
  402MOL0     H54239   9.636   5.641   9.443  0.6423 -0.9624  1.7574
  402MOL0     H54240   9.549   5.779   9.231 -1.3704 -0.4095  2.8063
  402MOL0     H54241   9.725   5.764   9.259  0.1079 -3.1757  1.7527
  402MOL0     H54242   9.545   6.008   9.311  1.5387  2.0192  1.3773
  402MOL0     H54243   9.695   5.980   9.396  2.2955 -2.5976 -0.4108
  402MOL0     H54244   9.658   6.012   9.094  0.2805 -1.0668 -0.0507
  402MOL0     H54245   9.815   5.971   9.168  0.0586 -0.7499 -1.3370
  402MOL0     H54246   9.650   6.217   9.259 -1.3235 -4.3917  2.3437
  402MOL0     H54247   9.825   6.193   9.274  0.7231 -1.1479 -0.9141
  402MOL0     H54248   9.682   6.248   9.014  1.3646 -2.0445 -2.0634
  402MOL0     H54249   9.830   6.149   9.023 -1.6331 -1.8525  0.6305
  402MOL0     H54250   9.949   6.348   9.118  0.6569 -2.2933  0.3727
  402MOL0     H54251   9.793   6.427   9.145 -1.0880 -0.9932 -0.2631
  402MOL0     H54252   9.412   6.116   9.539 -0.6406 -1.9138 -1.4844
  402MOL0     H54253   9.463   6.249   9.769  2.2306  0.6318 -1.1860
  402MOL0     H54254   9.387   6.102  10.247  1.0709 -0.4634 -1.2303
  402MOL0     H54255   9.387   6.107  10.490 -0.0983 -3.3790 -0.7740
  402MOL0     H54256   8.263   6.856  10.569  0.0306  0.0195  1.5090
  402MOL0     H54257   8.407   7.023  10.449  2.1652  1.3682 -0.1187
  402MOL0     H54258   8.980   6.952  10.226  1.3011 -0.3982  1.2737
  402MOL0     H54259   9.170   7.114  10.164  1.5389  0.9197  1.7391
  402MOL0     H54260   9.292   7.485  10.248 -3.9332  0.2156  1.6543
  402MOL0     H54261   9.302   7.333  10.314 -1.6874  1.4053  0.6741
  402MOL0     H54262   9.349   7.244  10.072 -4.3517  1.7902 -2.0856
  402MOL0     H54263   9.479   7.337  10.165  1.6098  4.0703 -1.2751
  402MOL0     H54264   9.445   7.535  10.054 -0.3896  1.1237 -0.6111
  402MOL0     H54265   9.291   7.480   9.983  0.7551 -0.1964 -0.2079
  402MOL0     H54266   9.487   7.498   9.812  2.0648  1.0677  0.8859
  402MOL0     H54267   9.435   7.325   9.836  0.5378 -0.4106 -0.5333
  402MOL0     H54268   9.806   7.286  10.004  0.4714 -0.2194  0.9374
  402MOL0     H54269   8.945   7.431  10.337 -0.1008  0.1415 -1.0857
  402MOL0     H54270   8.811   7.275  10.464  2.6514  1.1455  1.2679
  403MOL0     O54271   7.760   3.817   7.811  0.2967  0.1818  0.2733
  403MOL0     C54272   7.865   3.795   7.746 -0.1412 -0.5640 -0.5766
  403MOL0     O54273   7.865   3.775   7.620 -0.1129  0.1036 -0.6281
  403MOL0     C54274   7.745   3.735   7.563 -0.6440 -0.5936 -0.4505
  403MOL0     C54275   7.691   3.608   7.588  0.3257 -0.0728 -0.9304
  403MOL0     C54276   7.565   3.568   7.538  1.1392  0.2687  0.2551
  403MOL0     C54277   7.493   3.654   7.450  0.6176 -0.1054 -0.2902
  403MOL0     O54278   7.364   3.623   7.430  0.4669 -0.3805  0.1707
  403MOL0     C54279   7.281   3.715   7.358  0.3426 -1.1303  0.1590
  403MOL0     C54280   7.133   3.698   7.393  0.5672  0.4181  0.1740
  403MOL0     C54281   7.089   3.548   7.376  0.2410  0.0380 -0.2022
  403MOL0     C54282   6.932   3.525   7.376  0.2463  0.3457  0.2688
  403MOL0     C54283   6.849   3.588   7.266 -0.7179  1.1789 -0.4119
  403MOL0     C54284   6.696   3.546   7.273  0.4892  0.0389 -0.0593
  403MOL0     C54285   6.614   3.621   7.169 -0.0085  0.9810 -0.8112
  403MOL0     C54286   6.459   3.606   7.181  0.1730 -0.1311  0.5146
  403MOL0     N54287   6.431   3.463   7.181 -0.2695 -0.9105  0.3197
  403MOL0     C54288   6.359   3.395   7.277 -0.6126  0.0913  0.7460
  403MOL0     C54289   6.319   3.275   7.217  0.0135  0.2981 -0.2014
  403MOL0     C54290   6.220   3.172   7.271  0.0647  0.3257  0.6529
  403MOL0     C54291   6.233   3.026   7.214 -0.9417  0.7303 -0.8860
  403MOL0     C54292   6.380   2.968   7.225 -0.9660  0.6078 -0.1278
  403MOL0     C54293   6.426   2.911   7.358 -0.2714  0.2972  1.1579
  403MOL0     O54294   6.565   2.934   7.366 -0.6680 -0.5747  0.5541
  403MOL0     C54295   6.639   2.899   7.475  0.3351  0.3352 -0.4320
  403MOL0     C54296   6.778   2.878   7.456  1.0016 -0.7238 -0.3026
  403MOL0     C54297   6.867   2.868   7.566  0.6920  0.6092  0.4381
  403MOL0     C54298   7.017   2.878   7.514 -0.8469 -0.6232  0.7840
  403MOL0     C54299   6.814   2.863   7.695  0.0303 -0.4376 -0.6980
  403MOL0     C54300   6.897   2.858   7.819 -0.8430 -0.1890  0.8681
  403MOL0     O54301   6.837   2.879   7.935 -0.1236  0.0228 -0.0774
  403MOL0     C54302   6.904   2.858   8.053  0.1620  0.9064  0.3944
  403MOL0     C54303   6.910   2.962   8.146 -0.8232 -0.5644  0.5591
  403MOL0     C54304   6.977   2.944   8.270 -0.8084 -0.4803 -0.5641
  403MOL0     C54305   7.027   2.820   8.301  0.4117 -1.1256 -0.0648
  403MOL0     O54306   7.092   2.801   8.429 -0.5034 -0.5005 -0.0257
  403MOL0     C54307   7.089   2.671   8.480  0.5815 -0.2129  0.6589
  403MOL0     C54308   7.144   2.668   8.625  0.1481 -0.9742  0.3430
  403MOL0     C54309   7.100   2.782   8.718 -0.0453  0.6376  0.1071
  403MOL0     C54310   6.949   2.750   8.741  0.1398 -0.8071  0.4039
  403MOL0     C54311   6.886   2.861   8.811  0.5848 -0.8578  0.1829
  403MOL0     C54312   6.825   2.967   8.720  0.3314 -0.3357  0.2797
  403MOL0     C54313   6.745   3.079   8.790  0.0602 -0.2399 -0.7558
  403MOL0     C54314   6.686   3.178   8.709  0.2502  0.2047  0.4001
  403MOL0    Cl54315   6.782   3.326   8.665  0.3931 -0.5675 -0.0113
  403MOL0     C54316   7.011   2.714   8.212 -0.1975  0.4424  0.9567
  403MOL0     C54317   6.959   2.734   8.086  0.2712 -0.0405 -0.0453
  403MOL0     O54318   7.020   2.846   7.808  0.8689 -0.5190 -0.1335
  403MOL0     C54319   6.671   2.863   7.708 -0.4289  0.0475 -0.6299
  403MOL0     C54320   6.584   2.883   7.602 -0.1201 -0.0695  0.7724
  403MOL0     N54321   6.371   3.276   7.082 -0.6622 -0.3905 -0.3809
  403MOL0     N54322   6.429   3.389   7.066 -1.0494 -0.4406 -0.8227
  403MOL0     C54323   7.556   3.776   7.420  0.0173 -1.0347  0.4905
  403MOL0     C54324   7.676   3.821   7.480  0.4416 -0.0871 -0.2326
  403MOL0     C54325   7.996   3.770   7.824 -0.0944  0.4815  1.1518
  403MOL0     C54326   7.992   3.768   7.960 -0.5315  0.1756  0.1440
  403MOL0     C54327   8.113   3.730   8.027 -0.2535 -0.0586  0.2993
  403MOL0     C54328   8.232   3.700   7.966 -0.3478  0.1113  0.7488
  403MOL0     O54329   8.331   3.650   8.039 -0.1321 -0.1225 -0.1359
  403MOL0     C54330   8.467   3.631   7.992 -0.0838  0.0775  1.4326
  403MOL0     C54331   8.481   3.513   7.903  1.3091  0.1467  1.0919
  403MOL0     C54332   8.616   3.448   7.908 -0.3949 -0.5459 -0.5814
  403MOL0     C54333   8.738   3.533   7.861 -0.1386  0.7625 -0.1212
  403MOL0     C54334   8.848   3.454   7.802 -0.1922 -0.8023  0.1122
  403MOL0     C54335   8.945   3.391   7.780 -0.0039 -0.1052 -0.8881
  403MOL0     C54336   8.227   3.711   7.821 -1.1321  0.2915  0.0724
  403MOL0     C54337   8.112   3.741   7.758 -0.8653 -0.7170  0.4062
  403MOL0     H54338   7.740   3.548   7.663 -1.0307  2.0631  1.8819
  403MOL0     H54339   7.520   3.471   7.557  0.9810  0.3410  0.2510
  403MOL0     H54340   7.298   3.821   7.378 -0.5824 -0.9605  0.0874
  403MOL0     H54341   7.311   3.694   7.255  0.7699  1.5499 -0.3363
  403MOL0     H54342   7.106   3.731   7.494 -2.8578  0.8875 -0.7515
  403MOL0     H54343   7.077   3.759   7.322 -2.3213 -3.5879 -1.3762
  403MOL0     H54344   7.121   3.522   7.274 -2.5747 -2.1882 -0.6623
  403MOL0     H54345   7.134   3.480   7.448 -0.5801 -2.1630 -1.6526
  403MOL0     H54346   6.921   3.416   7.374  1.3389  0.1711 -3.1581
  403MOL0     H54347   6.907   3.560   7.476 -0.7650 -0.2806  0.2432
  403MOL0     H54348   6.860   3.697   7.269  2.1876  0.9527  1.2062
  403MOL0     H54349   6.889   3.552   7.171 -0.9331 -0.3609  0.0435
  403MOL0     H54350   6.691   3.439   7.255 -1.9031  0.0859  0.0530
  403MOL0     H54351   6.655   3.579   7.369 -0.9183  1.0248 -0.9552
  403MOL0     H54352   6.645   3.725   7.180  2.3524  0.2999 -0.3501
  403MOL0     H54353   6.651   3.593   7.069 -0.0124  0.6233 -0.7134
  403MOL0     H54354   6.405   3.667   7.109  1.4591 -1.9027 -2.1148
  403MOL0     H54355   6.436   3.653   7.277 -0.5505  2.1745 -0.7151
  403MOL0     H54356   6.343   3.423   7.380 -3.9127 -2.1019  0.9657
  403MOL0     H54357   6.239   3.173   7.379  0.8172  0.6218  0.5214
  403MOL0     H54358   6.114   3.191   7.248 -0.0134 -2.3507 -1.7798
  403MOL0     H54359   6.198   3.035   7.111  0.4082  1.5943 -1.3148
  403MOL0     H54360   6.171   2.950   7.262  3.9254 -1.7401  2.3822
  403MOL0     H54361   6.459   3.041   7.207  1.0884 -0.9123  2.1003
  403MOL0     H54362   6.400   2.889   7.151 -1.7046  2.6688 -2.6784
  403MOL0     H54363   6.401   2.804   7.364  0.3696 -0.2895 -3.4276
  403MOL0     H54364   6.369   2.963   7.436  1.1070 -0.6551  2.8975
  403MOL0     H54365   6.821   2.885   7.356  0.8678 -0.1036 -0.3223
  403MOL0     H54366   7.058   2.967   7.562  2.5996 -3.3803  3.5455
  403MOL0     H54367   7.070   2.793   7.559 -1.8229 -1.4040  0.4932
  403MOL0     H54368   7.042   2.881   7.407  0.3004 -1.1120  1.0190
  403MOL0     H54369   6.870   3.060   8.120 -0.0224 -0.2560  0.4472
  403MOL0     H54370   6.997   3.020   8.345 -3.2570  0.2833 -0.6168
  403MOL0     H54371   6.989   2.625   8.479  0.9785 -1.1051 -1.1585
  403MOL0     H54372   7.160   2.607   8.428  0.2855 -1.3509  1.6217
  403MOL0     H54373   7.113   2.567   8.656  1.1418 -2.1598 -2.2343
  403MOL0     H54374   7.253   2.656   8.623  0.3150  0.4613 -0.8321
  403MOL0     H54375   7.114   2.877   8.665 -0.6796  1.5004  1.4200
  403MOL0     H54376   7.151   2.782   8.814  4.4044  1.7044 -1.9825
  403MOL0     H54377   6.884   2.721   8.657 -0.4146 -0.2139  0.6226
  403MOL0     H54378   6.959   2.664   8.807  3.0127 -0.7126  0.1926
  403MOL0     H54379   6.953   2.911   8.883  1.1497 -0.9331 -0.2832
  403MOL0     H54380   6.800   2.827   8.868 -1.6945  3.4056 -0.3383
  403MOL0     H54381   6.901   3.014   8.657 -0.4151  2.1123  1.0678
  403MOL0     H54382   6.765   2.914   8.646  2.0680  0.3336 -1.6955
  403MOL0     H54383   6.811   3.117   8.869 -2.7145 -0.6557  1.9319
  403MOL0     H54384   6.664   3.026   8.841  0.5763 -0.8184 -0.5275
  403MOL0     H54385   6.603   3.212   8.773 -0.1396 -1.8436  1.0674
  403MOL0     H54386   6.638   3.138   8.619 -0.3970  3.2787 -0.7566
  403MOL0     H54387   7.045   2.612   8.222  1.4911  0.5992 -2.1401
  403MOL0     H54388   6.963   2.655   8.011  3.8453 -0.4748  0.4156
  403MOL0     H54389   6.621   2.872   7.804 -0.4765  1.5521 -0.7664
  403MOL0     H54390   6.478   2.899   7.617  0.0918 -0.1456  2.6052
  403MOL0     H54391   7.497   3.848   7.364  0.7872  1.6475  2.9105
  403MOL0     H54392   7.723   3.916   7.460  3.0889 -0.6087  2.7282
  403MOL0     H54393   7.909   3.784   8.028  0.5318 -0.1836  1.5872
  403MOL0     H54394   8.104   3.715   8.134  0.3085 -1.1894  0.2025
  403MOL0     H54395   8.509   3.712   7.932  1.0132 -1.9476 -0.7170
  403MOL0     H54396   8.532   3.618   8.079  1.5957  1.2444  0.4174
  403MOL0     H54397   8.462   3.535   7.797 -0.3037 -1.1162  1.0735
  403MOL0     H54398   8.408   3.435   7.927 -0.9765  2.1783  1.1497
  403MOL0     H54399   8.620   3.348   7.863 -0.6978 -0.3971 -0.9503
  403MOL0     H54400   8.644   3.420   8.010 -0.1500  2.5850  0.3157
  403MOL0     H54401   8.771   3.590   7.949 -0.6573  1.4249 -0.3422
  403MOL0     H54402   8.717   3.603   7.779  3.1071  2.5830  0.4369
  403MOL0     H54403   9.038   3.337   7.778  1.1803  1.8687 -0.9118
  403MOL0     H54404   8.316   3.704   7.759 -0.1210 -0.8272  1.5829
  403MOL0     H54405   8.100   3.760   7.652 -3.4253 -0.2998  0.6873
  404MOL0     O54406   6.049   8.041   1.223  0.3617  0.4205 -0.1150
  404MOL0     C54407   5.954   7.979   1.272  0.1465  0.2661 -0.0330
  404MOL0     O54408   5.957   7.913   1.389  0.2330  0.2725  0.2914
  404MOL0     C54409   6.074   7.901   1.453 -0.7259 -0.2089 -0.4795
  404MOL0     C54410   6.130   8.005   1.529  0.2539  0.4100 -0.0761
  404MOL0     C54411   6.259   7.987   1.581  0.1048  0.8575  0.2597
  404MOL0     C54412   6.338   7.866   1.556 -0.1053  0.1854  0.2548
  404MOL0     O54413   6.461   7.863   1.619  0.9198 -0.0059  0.8075
  404MOL0     C54414   6.567   7.798   1.554  0.0261  0.6893 -0.0277
  404MOL0     C54415   6.697   7.871   1.577 -0.3439 -0.5006  0.0817
  404MOL0     C54416   6.700   8.017   1.540 -0.1226  0.2752 -0.8087
  404MOL0     C54417   6.710   8.030   1.388  0.3354  0.4112  0.0557
  404MOL0     C54418   6.723   8.180   1.350  1.4580  0.2890 -0.4847
  404MOL0     C54419   6.662   8.200   1.207 -0.5678  0.3419 -0.1533
  404MOL0     C54420   6.511   8.179   1.217  0.5212  0.2322  0.0717
  404MOL0     C54421   6.427   8.178   1.092 -0.3206 -0.4188 -0.7387
  404MOL0     N54422   6.329   8.284   1.111 -0.9070 -0.4756 -0.3859
  404MOL0     C54423   6.198   8.282   1.059 -0.5250  1.2601 -0.3773
  404MOL0     C54424   6.161   8.411   1.024 -0.3713 -0.2680  0.0257
  404MOL0     C54425   6.029   8.454   0.963 -1.2405  1.2659 -0.2271
  404MOL0     C54426   5.942   8.491   1.079  0.3281  0.4930 -0.3840
  404MOL0     C54427   5.801   8.510   1.026  0.4313  0.2397 -0.1498
  404MOL0     C54428   5.715   8.609   1.114 -0.5842 -0.3738 -0.5200
  404MOL0     O54429   5.613   8.636   1.029 -0.6492 -0.4175 -0.5701
  404MOL0     C54430   5.503   8.711   1.080 -0.0022 -0.5061  0.4324
  404MOL0     C54431   5.481   8.746   1.214 -0.0239 -0.8328  0.4762
  404MOL0     C54432   5.368   8.826   1.251  0.5773 -0.2904  1.0072
  404MOL0     C54433   5.367   8.887   1.382 -0.0289 -0.3699 -0.1146
  404MOL0     C54434   5.273   8.859   1.154  0.4845 -0.7083 -0.7843
  404MOL0     C54435   5.156   8.948   1.179  0.4115 -0.9010 -0.8241
  404MOL0     O54436   5.102   8.956   1.302  0.3868  0.2387  0.4664
  404MOL0     C54437   4.984   9.041   1.331 -0.8680  1.0062 -0.1619
  404MOL0     C54438   4.995   9.143   1.427  0.2873  0.5500  0.7388
  404MOL0     C54439   4.885   9.225   1.446 -0.2800 -0.0610 -0.1369
  404MOL0     C54440   4.775   9.218   1.374  1.0160 -0.1403  0.1993
  404MOL0     O54441   4.667   9.304   1.386 -0.0894  0.7823 -0.9033
  404MOL0     C54442   4.669   9.430   1.460 -0.2598 -0.1376 -0.5004
  404MOL0     C54443   4.530   9.494   1.466 -0.0685 -1.0872 -0.5435
  404MOL0     C54444   4.422   9.410   1.540 -0.6945 -0.2667 -0.7800
  404MOL0     C54445   4.439   9.412   1.697  0.4165  0.3030  0.2179
  404MOL0     C54446   4.306   9.363   1.764  0.0374 -0.6414  0.4354
  404MOL0     C54447   4.329   9.337   1.911 -0.4183  1.4333  0.1702
  404MOL0     C54448   4.200   9.303   1.981  0.3603  0.6228 -1.3357
  404MOL0     C54449   4.216   9.266   2.127 -0.1864  0.9315  0.7356
  404MOL0    Cl54450   4.070   9.208   2.211  0.0340  0.3512 -0.0725
  404MOL0     C54451   4.760   9.124   1.276 -0.4150  0.6361 -0.5411
  404MOL0     C54452   4.862   9.028   1.257  0.2130 -0.6675  0.1495
  404MOL0     O54453   5.108   9.005   1.083 -0.7645  0.3051 -0.6709
  404MOL0     C54454   5.295   8.829   1.024  0.1761  0.0501  1.0071
  404MOL0     C54455   5.411   8.755   0.983 -0.6553 -0.2470 -0.3887
  404MOL0     N54456   6.267   8.492   1.070 -0.8086 -0.1547  0.2612
  404MOL0     N54457   6.351   8.421   1.131 -0.3488  0.4740  0.7093
  404MOL0     C54458   6.276   7.761   1.477 -1.1781 -0.2899  0.6121
  404MOL0     C54459   6.146   7.777   1.432  0.7474 -0.6060  0.0017
  404MOL0     C54460   5.827   7.988   1.190  0.0213 -0.3161 -0.3631
  404MOL0     C54461   5.716   7.917   1.225 -0.0447 -0.6058 -0.2373
  404MOL0     C54462   5.599   7.920   1.141 -0.3586 -0.0706  0.1782
  404MOL0     C54463   5.600   7.998   1.025  1.8655  0.6981 -0.3874
  404MOL0     O54464   5.486   8.007   0.945  0.5414  0.6766 -0.0663
  404MOL0     C54465   5.357   8.015   1.005 -0.5854 -0.2603 -0.3676
  404MOL0     C54466   5.256   8.019   0.890 -0.5860  0.2219  0.2042
  404MOL0     C54467   5.261   7.890   0.802 -0.4391 -0.2059 -0.1213
  404MOL0     C54468   5.182   7.906   0.667  0.1981  0.4433 -0.6651
  404MOL0     C54469   5.204   8.033   0.593 -0.0808 -0.0231 -0.9246
  404MOL0     C54470   5.233   8.136   0.536  0.4547 -0.0722 -0.0368
  404MOL0     C54471   5.712   8.071   0.985  0.0433  0.6598 -0.6135
  404MOL0     C54472   5.822   8.065   1.071 -0.0861 -1.4760 -0.6998
  404MOL0     H54473   6.070   8.094   1.548 -3.8193 -1.6453 -2.1168
  404MOL0     H54474   6.312   8.074   1.618  1.8324  1.3497 -2.9782
  404MOL0     H54475   6.574   7.695   1.589  0.9096  0.8047  0.1587
  404MOL0     H54476   6.546   7.800   1.447 -1.6072 -2.6119  0.1032
  404MOL0     H54477   6.722   7.867   1.683  1.7399  0.4350 -0.3244
  404MOL0     H54478   6.775   7.817   1.523  0.3194  0.4177  0.0867
  404MOL0     H54479   6.607   8.057   1.582  0.7491 -0.9818  2.7404
  404MOL0     H54480   6.788   8.042   1.599  0.7275 -1.1384 -1.4267
  404MOL0     H54481   6.801   7.975   1.361 -0.3296 -0.5371 -0.3001
  404MOL0     H54482   6.633   7.971   1.337  1.1831 -1.4391  0.8262
  404MOL0     H54483   6.667   8.244   1.420  1.1081 -2.4143  1.9119
  404MOL0     H54484   6.825   8.215   1.369  0.3119  2.9725  1.3076
  404MOL0     H54485   6.682   8.302   1.173 -0.1286  1.2980  2.7157
  404MOL0     H54486   6.699   8.126   1.136 -0.0115  2.3004 -2.0363
  404MOL0     H54487   6.489   8.085   1.269 -1.4635  0.0970 -0.9419
  404MOL0     H54488   6.487   8.258   1.288  0.6984 -1.3727  2.0221
  404MOL0     H54489   6.377   8.083   1.071  0.2501 -0.5014 -1.7990
  404MOL0     H54490   6.486   8.204   1.003  1.5255 -4.7847 -1.0248
  404MOL0     H54491   6.137   8.194   1.041 -2.3797  2.6907 -1.4926
  404MOL0     H54492   6.046   8.538   0.896  2.2204 -0.8834 -2.3488
  404MOL0     H54493   5.996   8.372   0.899  0.1064  0.0463  0.5648
  404MOL0     H54494   5.971   8.584   1.129  0.1114  0.5553 -0.3716
  404MOL0     H54495   5.940   8.416   1.158 -3.1100  1.1095  0.2811
  404MOL0     H54496   5.758   8.411   1.010  0.7357  0.1281 -0.2768
  404MOL0     H54497   5.806   8.544   0.922 -0.3710 -0.5744 -0.4680
  404MOL0     H54498   5.767   8.702   1.138 -0.8332  0.7541 -3.7980
  404MOL0     H54499   5.685   8.568   1.210  0.4209  2.1205  0.9534
  404MOL0     H54500   5.550   8.718   1.293 -0.0002  2.7968  1.9307
  404MOL0     H54501   5.332   8.990   1.394  0.9577  0.2375 -2.0282
  404MOL0     H54502   5.310   8.824   1.451  2.0125 -2.0966  0.0838
  404MOL0     H54503   5.471   8.879   1.416  0.1927 -0.5864 -0.8237
  404MOL0     H54504   5.081   9.164   1.489 -0.8441 -1.6001  3.2144
  404MOL0     H54505   4.891   9.294   1.529 -1.5688 -2.1337  1.7747
  404MOL0     H54506   4.702   9.413   1.563  0.7636 -0.3589 -0.8561
  404MOL0     H54507   4.742   9.504   1.426  0.5445  0.3039  1.9551
  404MOL0     H54508   4.544   9.593   1.512  3.9670 -2.0029  0.5774
  404MOL0     H54509   4.491   9.510   1.365 -0.3514 -1.2561 -0.4616
  404MOL0     H54510   4.419   9.307   1.502 -0.0845 -0.0986 -1.3072
  404MOL0     H54511   4.323   9.453   1.525 -1.2416 -1.0923  0.3742
  404MOL0     H54512   4.520   9.344   1.723  4.0682  4.0458 -0.2387
  404MOL0     H54513   4.470   9.510   1.735  0.1567  1.0571 -1.4252
  404MOL0     H54514   4.270   9.271   1.717  0.6916 -0.5925 -0.1756
  404MOL0     H54515   4.244   9.453   1.755  1.5917  0.2909 -1.7305
  404MOL0     H54516   4.401   9.255   1.916 -0.6612  1.0397 -1.9085
  404MOL0     H54517   4.369   9.430   1.953  3.6111 -0.1655  0.2783
  404MOL0     H54518   4.173   9.215   1.921 -2.4169  1.0727 -0.8520
  404MOL0     H54519   4.124   9.378   1.960 -0.8179 -0.0465  0.3321
  404MOL0     H54520   4.253   9.349   2.187  1.4799  0.8725 -0.1426
  404MOL0     H54521   4.292   9.189   2.143 -0.9527  0.8247  4.9298
  404MOL0     H54522   4.670   9.113   1.216  0.5561 -0.8728 -1.7912
  404MOL0     H54523   4.853   8.954   1.178 -0.7434  1.4902 -1.8690
  404MOL0     H54524   5.219   8.853   0.949  0.8712  2.7082  1.0386
  404MOL0     H54525   5.425   8.732   0.878 -2.8039  0.3172 -0.8618
  404MOL0     H54526   6.328   7.666   1.478  1.4237  1.0610  1.5041
  404MOL0     H54527   6.099   7.701   1.371  0.6809 -1.5696  1.1983
  404MOL0     H54528   5.706   7.837   1.299 -0.1138 -1.8415 -1.5285
  404MOL0     H54529   5.517   7.860   1.177  0.3090 -2.0201 -1.3755
  404MOL0     H54530   5.341   7.934   1.076 -0.2015  0.4819  0.5891
  404MOL0     H54531   5.334   8.100   1.070 -4.3433 -0.7328 -0.8556
  404MOL0     H54532   5.278   8.111   0.835  0.9968 -0.2872 -0.0778
  404MOL0     H54533   5.154   8.039   0.923 -0.4523  2.0421 -0.3421
  404MOL0     H54534   5.211   7.815   0.864 -1.0517 -0.4212 -0.8566
  404MOL0     H54535   5.366   7.864   0.787 -1.1792 -3.6363 -0.2408
  404MOL0     H54536   5.077   7.900   0.696  0.4608  2.3555  0.8004
  404MOL0     H54537   5.203   7.817   0.606 -0.7250 -0.2876  0.0458
  404MOL0     H54538   5.263   8.232   0.500  0.0285  0.5369  1.1538
  404MOL0     H54539   5.736   8.117   0.890  2.2769  0.7076 -0.0756
  404MOL0     H54540   5.897   8.135   1.035 -0.8329 -0.2881 -0.0425
  405MOL0     O54541   0.221   2.348   1.830 -0.5837  0.0423  0.7881
  405MOL0     C54542   0.241   2.282   1.928  0.4173  0.2884 -0.4615
  405MOL0     O54543   0.158   2.191   1.993  0.8577  0.1134  0.4342
  405MOL0     C54544   0.032   2.183   1.940  0.1330  0.0799 -0.5028
  405MOL0     C54545   0.005   2.070   1.860  0.5976  0.2162 -0.3195
  405MOL0     C54546  -0.121   2.070   1.790  0.5725 -0.7474  0.4347
  405MOL0     C54547  -0.221   2.168   1.820 -0.6992  0.0044  0.5182
  405MOL0     O54548  -0.353   2.147   1.772 -0.0300 -0.0730 -0.2771
  405MOL0     C54549  -0.463   2.144   1.874 -0.2215  0.6557 -0.2583
  405MOL0     C54550  -0.565   2.028   1.844 -0.5928 -0.7782 -0.0359
  405MOL0     C54551  -0.648   2.004   1.978  0.2570 -0.3383 -0.3647
  405MOL0     C54552  -0.766   1.914   1.957 -0.8898 -0.5336  0.7047
  405MOL0     C54553  -0.877   1.942   2.058  0.6696 -0.4613  0.1910
  405MOL0     C54554  -0.979   1.837   2.085 -0.2268  0.1652 -0.1576
  405MOL0     C54555  -1.049   1.853   2.219  0.4670 -0.0655  1.0178
  405MOL0     C54556  -1.155   1.754   2.241 -0.0148 -0.3891  0.6583
  405MOL0     N54557  -1.225   1.752   2.368  0.7497 -0.8456  0.1640
  405MOL0     C54558  -1.297   1.862   2.429 -0.7664 -0.0107 -0.4966
  405MOL0     C54559  -1.376   1.799   2.524  0.5446 -0.1161  0.4549
  405MOL0     C54560  -1.496   1.862   2.591 -0.6158 -0.2956 -0.3656
  405MOL0     C54561  -1.493   1.824   2.737 -0.6233 -0.5447 -0.3814
  405MOL0     C54562  -1.572   1.922   2.824  0.4040 -0.3164 -0.3070
  405MOL0     C54563  -1.724   1.881   2.841  0.5409  0.4849 -0.7101
  405MOL0     O54564  -1.790   1.979   2.931 -0.3092 -0.6990  0.5271
  405MOL0     C54565  -1.921   1.968   2.955  0.0920 -0.7965  0.3710
  405MOL0     C54566  -1.977   2.056   3.050 -0.1697  0.3683  0.4331
  405MOL0     C54567  -2.115   2.058   3.074 -0.0764 -0.2975 -0.4417
  405MOL0     C54568  -2.157   2.165   3.174  0.8961  0.2179 -0.4116
  405MOL0     C54569  -2.204   1.981   3.002  0.0142  0.6510  0.2823
  405MOL0     C54570  -2.358   1.984   3.007 -0.4036  0.5458 -0.0046
  405MOL0     O54571  -2.432   1.956   2.904  0.7394  0.7107  0.6686
  405MOL0     C54572  -2.569   1.935   2.903  0.8947 -0.4262  0.0418
  405MOL0     C54573  -2.658   1.943   3.008 -0.5743 -0.4918  0.8921
  405MOL0     C54574  -2.800   1.944   2.978 -1.5363 -0.1765 -0.1682
  405MOL0     C54575  -2.851   1.942   2.845 -0.7374  0.3532 -0.4511
  405MOL0     O54576  -2.985   1.951   2.812  0.9555 -0.2753 -0.0529
  405MOL0     C54577  -3.081   1.920   2.914  0.1512  0.3042  0.2350
  405MOL0     C54578  -3.222   1.919   2.850 -0.2551 -0.7655 -0.4179
  405MOL0     C54579  -3.332   1.895   2.950  0.3872 -0.2520 -0.3015
  405MOL0     C54580  -3.473   1.955   2.925  0.0409  1.2129  0.4300
  405MOL0     C54581  -3.572   1.924   3.045  0.2524  0.0171 -0.0355
  405MOL0     C54582  -3.705   2.011   3.030 -0.0483 -0.2747  0.8693
  405MOL0     C54583  -3.782   2.026   3.157  0.0408 -0.8821  0.5351
  405MOL0     C54584  -3.832   2.173   3.169 -0.2790 -0.2817  0.8468
  405MOL0    Cl54585  -3.966   2.182   3.039 -0.1473 -0.1926 -0.4698
  405MOL0     C54586  -2.755   1.933   2.744  0.7799 -0.4509  0.6938
  405MOL0     C54587  -2.624   1.930   2.765 -0.6998  0.3183 -0.4135
  405MOL0     O54588  -2.402   2.013   3.117  0.3969 -0.3905  0.0459
  405MOL0     C54589  -2.140   1.890   2.910  0.0477  0.3937 -0.0358
  405MOL0     C54590  -2.006   1.887   2.886 -0.1451 -0.0380 -0.6025
  405MOL0     N54591  -1.349   1.663   2.523  0.3305  0.3077 -0.2170
  405MOL0     N54592  -1.264   1.633   2.437 -0.2651 -0.2169 -0.3727
  405MOL0     C54593  -0.188   2.272   1.904 -0.5014 -0.7123 -0.2837
  405MOL0     C54594  -0.062   2.281   1.965  0.0915  0.4176 -0.0098
  405MOL0     C54595   0.363   2.308   2.013 -0.6412 -0.5491  0.3218
  405MOL0     C54596   0.483   2.357   1.953 -0.5890 -0.0466  0.1977
  405MOL0     C54597   0.600   2.378   2.020 -0.9252  0.1554  0.1875
  405MOL0     C54598   0.599   2.343   2.160 -0.0244 -0.0091  0.2190
  405MOL0     O54599   0.703   2.367   2.240  0.4471 -0.2302 -0.4689
  405MOL0     C54600   0.837   2.355   2.186  0.2203 -0.2152  0.0850
  405MOL0     C54601   0.919   2.308   2.302 -0.4020 -0.4841  1.0254
  405MOL0     C54602   0.958   2.403   2.414  1.0496  1.3645  0.6115
  405MOL0     C54603   1.109   2.445   2.395  0.5400  0.1095  0.4297
  405MOL0     C54604   1.166   2.484   2.521 -0.1728 -0.1864  0.4765
  405MOL0     C54605   1.211   2.485   2.633  0.5292  0.8220  0.3283
  405MOL0     C54606   0.486   2.293   2.224 -0.5024  0.6943 -0.5012
  405MOL0     C54607   0.371   2.269   2.155  0.3916 -0.7577 -0.4592
  405MOL0     H54608   0.082   1.996   1.840  0.3738 -0.8682  2.4661
  405MOL0     H54609  -0.140   1.988   1.722  1.4843 -0.7878  0.2125
  405MOL0     H54610  -0.428   2.130   1.976  0.0471  1.4131 -0.2403
  405MOL0     H54611  -0.515   2.240   1.872  0.0737  0.8190 -0.1996
  405MOL0     H54612  -0.633   2.051   1.762  0.2034  0.8133 -0.2728
  405MOL0     H54613  -0.501   1.948   1.807  1.2434 -0.2673  1.8833
  405MOL0     H54614  -0.574   1.973   2.052  0.8403 -0.2968 -0.9190
  405MOL0     H54615  -0.693   2.098   2.011  2.0561  1.3516 -2.3962
  405MOL0     H54616  -0.810   1.937   1.859 -3.1277 -2.7287  1.0893
  405MOL0     H54617  -0.719   1.815   1.957  3.4443  1.2739 -0.7180
  405MOL0     H54618  -0.831   1.958   2.156  2.0036 -1.8647 -0.1702
  405MOL0     H54619  -0.925   2.034   2.025  0.6724 -1.2082 -2.0035
  405MOL0     H54620  -1.039   1.832   1.993  3.7213 -1.0559 -2.9133
  405MOL0     H54621  -0.934   1.738   2.099  1.1824  0.7023 -0.7661
  405MOL0     H54622  -0.984   1.849   2.308 -1.2937  0.1838  2.3673
  405MOL0     H54623  -1.088   1.955   2.221  0.3790 -0.0331 -0.7585
  405MOL0     H54624  -1.111   1.657   2.219  0.6787  0.4928 -2.1759
  405MOL0     H54625  -1.229   1.772   2.163 -0.5467  0.2643  1.2942
  405MOL0     H54626  -1.299   1.967   2.403 -2.3140  0.4942  1.4543
  405MOL0     H54627  -1.486   1.971   2.587  0.4080 -0.3838 -0.7298
  405MOL0     H54628  -1.591   1.824   2.553 -0.6636  0.9524 -1.5747
  405MOL0     H54629  -1.388   1.824   2.767 -0.9757 -0.8378  0.9294
  405MOL0     H54630  -1.531   1.723   2.755  1.5661 -1.4626 -0.5602
  405MOL0     H54631  -1.568   2.026   2.791 -2.9611  0.0854  0.1069
  405MOL0     H54632  -1.521   1.908   2.920 -1.0604  0.5129  0.6344
  405MOL0     H54633  -1.729   1.779   2.880  2.2290  1.1353  1.3934
  405MOL0     H54634  -1.768   1.889   2.741 -0.6136 -1.2269 -0.3822
  405MOL0     H54635  -1.908   2.123   3.100 -2.4344  5.0942 -2.1324
  405MOL0     H54636  -2.070   2.221   3.210 -1.5139  2.5419  2.2879
  405MOL0     H54637  -2.228   2.237   3.132  0.5352  1.2456  1.8283
  405MOL0     H54638  -2.206   2.130   3.265  1.1487  0.1871 -0.2870
  405MOL0     H54639  -2.622   1.946   3.111  0.5463  0.0687  0.5083
  405MOL0     H54640  -2.864   1.964   3.063  1.8179  1.4271  2.2324
  405MOL0     H54641  -3.067   1.819   2.955  1.6746  0.5033  0.2817
  405MOL0     H54642  -3.069   1.995   2.992 -1.3408  2.3477 -1.3997
  405MOL0     H54643  -3.254   2.015   2.809  1.4294  0.8268  1.7992
  405MOL0     H54644  -3.223   1.846   2.768  3.2872  1.3507 -2.5827
  405MOL0     H54645  -3.292   1.939   3.042  0.1210  0.5265 -0.5501
  405MOL0     H54646  -3.348   1.789   2.968  2.0808 -0.1553  2.2753
  405MOL0     H54647  -3.464   2.062   2.901  2.3231  1.7701  3.2184
  405MOL0     H54648  -3.510   1.905   2.835  0.1766 -0.2194  1.1484
  405MOL0     H54649  -3.518   1.959   3.134 -2.4013  0.9497  1.3052
  405MOL0     H54650  -3.609   1.822   3.053 -0.6573  0.3661  0.3589
  405MOL0     H54651  -3.664   2.100   2.983  2.0138 -2.1956 -1.2373
  405MOL0     H54652  -3.774   1.971   2.956 -0.2771  0.1035  0.8764
  405MOL0     H54653  -3.716   1.993   3.238  0.8484  1.1153  0.7464
  405MOL0     H54654  -3.873   1.966   3.165 -0.0963 -0.9273 -1.0189
  405MOL0     H54655  -3.754   2.247   3.149 -1.9700  1.0898 -1.0837
  405MOL0     H54656  -3.885   2.181   3.264 -3.0219 -0.7634 -0.5315
  405MOL0     H54657  -2.802   1.933   2.646 -0.4363  1.0090  1.2389
  405MOL0     H54658  -2.560   1.936   2.678 -2.0921  0.0643 -1.4912
  405MOL0     H54659  -2.215   1.837   2.852  0.9157 -0.3297 -0.5387
  405MOL0     H54660  -1.976   1.812   2.814 -2.8920 -1.2475 -0.6314
  405MOL0     H54661  -0.266   2.347   1.916  0.0692 -0.2604  0.7772
  405MOL0     H54662  -0.047   2.364   2.033 -2.5689  1.0554 -0.0870
  405MOL0     H54663   0.480   2.371   1.846 -1.3454  4.0739  0.5668
  405MOL0     H54664   0.677   2.430   1.963 -2.0848  0.3608 -1.2875
  405MOL0     H54665   0.848   2.284   2.104  3.6732  0.6036 -0.3082
  405MOL0     H54666   0.876   2.452   2.155  2.4101 -1.0451  0.0700
  405MOL0     H54667   1.016   2.272   2.267  0.6501  0.8165  2.4582
  405MOL0     H54668   0.864   2.225   2.346  0.9482 -1.6372  0.6439
  405MOL0     H54669   0.946   2.348   2.508 -2.7628 -2.4376 -1.7954
  405MOL0     H54670   0.885   2.485   2.420 -0.3669  0.3038 -1.2401
  405MOL0     H54671   1.115   2.527   2.322 -0.8371 -0.1761 -0.0488
  405MOL0     H54672   1.176   2.369   2.356 -1.3666 -0.7376 -1.4293
  405MOL0     H54673   1.262   2.474   2.727 -1.6234  0.3182  1.4929
  405MOL0     H54674   0.474   2.255   2.325  2.4122 -1.4507 -0.8259
  405MOL0     H54675   0.284   2.231   2.207  0.9218  1.3209  2.1566
  406MOL0     O54676   7.821   1.010   6.155 -0.8447 -0.1726 -0.3501
  406MOL0     C54677   7.927   0.948   6.141  0.2274 -0.2909 -0.0832
  406MOL0     O54678   7.935   0.818   6.120 -0.0153  0.0180 -0.0539
  406MOL0     C54679   7.810   0.757   6.110 -0.5683  0.1721  0.1972
  406MOL0     C54680   7.738   0.763   5.987  1.6402 -0.3622 -0.6525
  406MOL0     C54681   7.619   0.689   5.985  0.0130  0.1854  0.0049
  406MOL0     C54682   7.574   0.612   6.092  1.5650  0.0382  0.6313
  406MOL0     O54683   7.451   0.549   6.071  0.6714 -0.0706  0.1349
  406MOL0     C54684   7.364   0.535   6.191  0.4810  0.2038  0.2532
  406MOL0     C54685   7.213   0.552   6.147 -0.0836  0.1836  0.4019
  406MOL0     C54686   7.125   0.484   6.255  0.9037 -0.2555  1.0083
  406MOL0     C54687   6.974   0.497   6.219 -0.6117 -0.1487  0.0170
  406MOL0     C54688   6.893   0.431   6.332 -0.5334 -0.2294  1.6514
  406MOL0     C54689   6.748   0.458   6.317  0.0274 -0.3805 -0.0852
  406MOL0     C54690   6.668   0.380   6.426  0.0838 -0.4964  0.2615
  406MOL0     C54691   6.522   0.420   6.448 -0.7076 -0.0328  0.0533
  406MOL0     N54692   6.471   0.343   6.557 -0.9375 -0.2877  0.7283
  406MOL0     C54693   6.410   0.407   6.657  0.7315  0.2838  0.0794
  406MOL0     C54694   6.370   0.296   6.733 -0.3349 -0.0470 -0.2159
  406MOL0     C54695   6.288   0.279   6.861  0.5591 -0.8845 -0.3445
  406MOL0     C54696   6.149   0.354   6.837  0.8135 -0.2356 -0.2021
  406MOL0     C54697   6.072   0.300   6.717  0.6349 -0.3486 -0.4756
  406MOL0     C54698   5.938   0.370   6.701 -0.7413 -0.5589 -0.6831
  406MOL0     O54699   5.859   0.333   6.812  0.6564  0.1383 -0.6294
  406MOL0     C54700   5.752   0.412   6.837 -0.3326 -0.4914 -0.1635
  406MOL0     C54701   5.668   0.358   6.932  0.8850 -0.1283 -0.1003
  406MOL0     C54702   5.545   0.423   6.963 -0.1025 -0.2712  0.3947
  406MOL0     C54703   5.459   0.341   7.054 -0.0140  0.3213  0.0244
  406MOL0     C54704   5.505   0.544   6.905  0.5254  0.4841  0.3927
  406MOL0     C54705   5.383   0.614   6.944  0.4486 -0.0594  1.6460
  406MOL0     O54706   5.303   0.575   7.052  0.4858 -0.0467  0.9878
  406MOL0     C54707   5.172   0.632   7.064 -0.0569  0.4295  0.2272
  406MOL0     C54708   5.142   0.763   7.072  0.0245  0.2080  0.2726
  406MOL0     C54709   5.014   0.811   7.066  0.8850 -0.6087  0.2721
  406MOL0     C54710   4.906   0.727   7.054  0.2194  0.1785 -0.2160
  406MOL0     O54711   4.777   0.773   7.041 -0.1264 -0.1671  0.1682
  406MOL0     C54712   4.671   0.686   7.079 -0.2129 -0.2212  0.5143
  406MOL0     C54713   4.551   0.776   7.065 -0.3195  0.3429 -0.2338
  406MOL0     C54714   4.422   0.709   7.124  0.4345 -0.2114 -0.0768
  406MOL0     C54715   4.295   0.795   7.123  0.4134 -0.0407  0.6511
  406MOL0     C54716   4.181   0.720   7.199 -0.4627 -0.1652  0.5551
  406MOL0     C54717   4.050   0.783   7.163 -0.8947 -0.2294  0.7488
  406MOL0     C54718   3.930   0.727   7.246 -0.7793  0.2383 -0.0331
  406MOL0     C54719   3.796   0.782   7.201  0.6712 -0.3536 -0.1582
  406MOL0    Cl54720   3.656   0.749   7.305  0.0345  0.6050 -0.0891
  406MOL0     C54721   4.931   0.592   7.054  0.6092  0.9365  0.1885
  406MOL0     C54722   5.064   0.547   7.058 -0.1419  0.0611  0.0535
  406MOL0     O54723   5.349   0.696   6.859  0.5344  0.0111 -0.1440
  406MOL0     C54724   5.593   0.590   6.801 -0.1381  0.5269  0.9210
  406MOL0     C54725   5.712   0.525   6.760  1.0558  0.2185 -0.6903
  406MOL0     N54726   6.421   0.181   6.685 -0.0185 -0.5843  0.1592
  406MOL0     N54727   6.475   0.208   6.570  0.2228 -0.7376  0.0395
  406MOL0     C54728   7.649   0.600   6.206 -0.6248 -0.6239  0.1896
  406MOL0     C54729   7.773   0.673   6.213  0.1727  0.8053  0.0114
  406MOL0     C54730   8.056   1.015   6.161 -0.5920 -0.5711  0.1830
  406MOL0     C54731   8.173   0.963   6.104  0.9228 -0.3454 -1.1356
  406MOL0     C54732   8.300   1.028   6.142  0.3747 -0.0018 -0.5477
  406MOL0     C54733   8.297   1.146   6.203  0.1178  0.6295 -1.0279
  406MOL0     O54734   8.423   1.209   6.219  0.3206  0.0526  0.3079
  406MOL0     C54735   8.429   1.332   6.293 -0.0816  0.8891  0.0812
  406MOL0     C54736   8.566   1.321   6.347  0.2084 -0.0328  0.2192
  406MOL0     C54737   8.658   1.372   6.236 -0.6729 -0.5911  0.7441
  406MOL0     C54738   8.793   1.431   6.283  1.5179  0.5454  0.0019
  406MOL0     C54739   8.859   1.329   6.367 -0.2075 -0.4823  0.0169
  406MOL0     C54740   8.902   1.238   6.430  0.0839  1.0996  0.0465
  406MOL0     C54741   8.171   1.208   6.235  0.0696 -0.3727 -0.0651
  406MOL0     C54742   8.054   1.142   6.218  0.2665  0.3735 -0.2750
  406MOL0     H54743   7.787   0.815   5.905  0.9583  1.1469 -0.1441
  406MOL0     H54744   7.562   0.700   5.894  1.4809  1.9769 -0.7632
  406MOL0     H54745   7.377   0.441   6.246  1.5789  2.1426  3.6263
  406MOL0     H54746   7.395   0.616   6.258 -0.0220  1.2328 -0.7248
  406MOL0     H54747   7.184   0.657   6.136 -0.6148 -0.0523 -0.5721
  406MOL0     H54748   7.200   0.502   6.050 -0.8296 -1.2009  1.1750
  406MOL0     H54749   7.159   0.381   6.270 -0.4608 -1.0058 -0.7234
  406MOL0     H54750   7.140   0.528   6.354  1.0947 -1.1550  1.3905
  406MOL0     H54751   6.946   0.603   6.213 -0.0062  0.0149  0.0161
  406MOL0     H54752   6.953   0.450   6.122 -0.1484 -0.4827  0.0753
  406MOL0     H54753   6.917   0.324   6.344  1.2673 -0.2676 -1.2906
  406MOL0     H54754   6.929   0.470   6.428 -0.9431  1.6836  1.0718
  406MOL0     H54755   6.719   0.564   6.316 -2.9345 -1.0882 -0.4322
  406MOL0     H54756   6.713   0.435   6.215 -0.3343  0.4591 -0.1618
  406MOL0     H54757   6.663   0.276   6.394  1.3459 -1.4704  2.9285
  406MOL0     H54758   6.717   0.399   6.522  1.3752 -1.7984 -0.1110
  406MOL0     H54759   6.450   0.408   6.366  1.0516 -1.6711 -1.3277
  406MOL0     H54760   6.513   0.529   6.456 -3.0454 -0.1576  0.0116
  406MOL0     H54761   6.374   0.509   6.668  2.8809  1.5359 -3.2523
  406MOL0     H54762   6.263   0.174   6.877 -0.7822 -0.2333  2.5026
  406MOL0     H54763   6.357   0.310   6.941  1.5159 -1.4889 -0.9088
  406MOL0     H54764   6.156   0.463   6.830 -3.3666  0.5488  3.3286
  406MOL0     H54765   6.097   0.326   6.929 -1.0607 -0.3794 -1.2580
  406MOL0     H54766   6.061   0.191   6.722  0.7660 -0.3168  0.7378
  406MOL0     H54767   6.130   0.319   6.626 -0.2260 -5.5247 -2.4697
  406MOL0     H54768   5.889   0.348   6.606 -2.9600 -1.8563  0.6653
  406MOL0     H54769   5.950   0.479   6.704  1.2428 -0.7547 -0.0647
  406MOL0     H54770   5.697   0.265   6.980 -1.0586  0.4363  2.3295
  406MOL0     H54771   5.355   0.345   7.020  0.2852  0.1355 -0.9147
  406MOL0     H54772   5.491   0.238   7.074 -3.5792 -0.7217  1.1442
  406MOL0     H54773   5.455   0.382   7.156  2.2477  2.1062 -0.5425
  406MOL0     H54774   5.227   0.830   7.065  1.0291 -1.1901 -1.8829
  406MOL0     H54775   5.007   0.919   7.081  1.4355 -0.5550  0.1665
  406MOL0     H54776   4.665   0.604   7.007  0.0184  0.9630 -0.8894
  406MOL0     H54777   4.687   0.650   7.181  1.7376  3.1252  1.5707
  406MOL0     H54778   4.558   0.877   7.108 -2.4222  0.5086 -0.2016
  406MOL0     H54779   4.532   0.804   6.961 -2.1979 -0.0783 -0.0325
  406MOL0     H54780   4.441   0.677   7.227 -0.4834  1.0677  0.5146
  406MOL0     H54781   4.390   0.617   7.074  0.1257  0.0750 -0.4163
  406MOL0     H54782   4.301   0.888   7.180  1.0917  1.1562 -1.2835
  406MOL0     H54783   4.268   0.811   7.018  1.0554 -2.9356 -0.0611
  406MOL0     H54784   4.193   0.703   7.306  0.4037 -0.8445  0.3599
  406MOL0     H54785   4.166   0.617   7.163  0.9197 -1.1309  2.5227
  406MOL0     H54786   4.049   0.891   7.180  2.5278  0.0182  0.0736
  406MOL0     H54787   4.024   0.768   7.058  0.1371 -2.0622  0.7051
  406MOL0     H54788   3.931   0.751   7.352  1.5095  1.0903 -0.1957
  406MOL0     H54789   3.934   0.620   7.223 -2.5684  0.3653 -1.1669
  406MOL0     H54790   3.771   0.761   7.097  1.2359  2.6427 -0.9793
  406MOL0     H54791   3.803   0.891   7.203 -2.2506 -0.0541 -0.9792
  406MOL0     H54792   4.847   0.525   7.038  0.1560  1.4545  0.3771
  406MOL0     H54793   5.093   0.443   7.047  0.9315 -0.1812  3.8434
  406MOL0     H54794   5.562   0.681   6.751 -1.7690 -1.1206 -1.2650
  406MOL0     H54795   5.763   0.562   6.672  1.4509  1.5375  0.0556
  406MOL0     H54796   7.625   0.530   6.286 -1.8877  0.8897  1.2032
  406MOL0     H54797   7.830   0.656   6.305 -2.3780 -0.9781  1.4031
  406MOL0     H54798   8.178   0.872   6.044  0.3519 -0.8188 -0.4857
  406MOL0     H54799   8.390   0.977   6.106 -0.0711 -0.8475 -0.4926
  406MOL0     H54800   8.411   1.413   6.222  0.7028 -0.5468 -1.8112
  406MOL0     H54801   8.350   1.351   6.367 -1.0146  1.5169 -1.0448
  406MOL0     H54802   8.601   1.219   6.363 -0.0870 -0.3635 -1.0555
  406MOL0     H54803   8.571   1.378   6.440  0.5419  0.3970 -0.0589
  406MOL0     H54804   8.601   1.443   6.175  0.6300  1.2736  1.5766
  406MOL0     H54805   8.683   1.294   6.163  2.5261  0.2970  0.7174
  406MOL0     H54806   8.767   1.528   6.327 -1.2826  1.1824 -2.7093
  406MOL0     H54807   8.850   1.452   6.192 -1.1327  2.2495 -1.4037
  406MOL0     H54808   8.953   1.153   6.470 -1.6847 -0.0212  0.0274
  406MOL0     H54809   8.169   1.308   6.277  0.4011 -0.3102 -0.1986
  406MOL0     H54810   7.969   1.195   6.259  0.5929  0.6385  0.0662
  407MOL0     O54811  11.143   6.243   7.937  0.1814 -1.0158  0.1315
  407MOL0     C54812  11.172   6.129   7.910  0.3173  0.8337  1.4246
  407MOL0     O54813  11.270   6.051   7.961  0.1496  0.0405 -0.6818
  407MOL0     C54814  11.374   6.086   8.047 -0.3073  0.2629  0.1108
  407MOL0     C54815  11.431   5.982   8.123 -0.1407  0.3881 -0.1115
  407MOL0     C54816  11.545   6.007   8.196 -0.1449 -0.4106 -0.1403
  407MOL0     C54817  11.596   6.138   8.223  0.6117  0.7862  0.7856
  407MOL0     O54818  11.702   6.150   8.305 -0.2568 -1.1919 -0.1136
  407MOL0     C54819  11.753   6.280   8.351  0.0007 -0.0793 -0.1457
  407MOL0     C54820  11.651   6.333   8.451 -0.6325  0.7167  0.3610
  407MOL0     C54821  11.636   6.257   8.583  0.4822  0.5477 -0.5749
  407MOL0     C54822  11.568   6.342   8.685 -0.1189  0.1508 -0.2447
  407MOL0     C54823  11.586   6.287   8.832 -1.0568 -0.4039 -0.2227
  407MOL0     C54824  11.559   6.408   8.929  0.5339  0.4055  0.2536
  407MOL0     C54825  11.415   6.432   8.969  0.2935  0.3136 -0.3903
  407MOL0     C54826  11.354   6.342   9.078 -0.2907  0.1744  0.4838
  407MOL0     N54827  11.427   6.371   9.210  0.5602 -0.1799 -0.8089
  407MOL0     C54828  11.536   6.308   9.259 -0.6295 -0.6861 -0.7548
  407MOL0     C54829  11.577   6.381   9.367 -0.0541 -0.4712  0.2558
  407MOL0     C54830  11.704   6.356   9.447  0.0786 -0.0273 -0.1199
  407MOL0     C54831  11.693   6.228   9.531  0.3744 -0.4862  0.2076
  407MOL0     C54832  11.743   6.241   9.682  0.0037  0.0021  0.2885
  407MOL0     C54833  11.888   6.259   9.699 -0.8708 -0.1815  0.3945
  407MOL0     O54834  11.962   6.141   9.660  0.2224 -0.3610 -0.2264
  407MOL0     C54835  12.081   6.152   9.591  0.1381  0.4890 -0.0151
  407MOL0     C54836  12.137   6.260   9.526 -0.0753  0.0241  0.8076
  407MOL0     C54837  12.255   6.253   9.449  0.0724 -0.7464 -0.2123
  407MOL0     C54838  12.308   6.382   9.400 -0.1410 -0.5350  1.1749
  407MOL0     C54839  12.329   6.137   9.446  0.4266  1.0584 -0.3191
  407MOL0     C54840  12.449   6.112   9.368  0.0699 -0.0796  0.4939
  407MOL0     O54841  12.546   6.036   9.414 -0.1666  0.0804 -0.2047
  407MOL0     C54842  12.675   6.048   9.365 -1.5874  0.4770 -0.0581
  407MOL0     C54843  12.770   5.940   9.382 -0.9604  0.7073 -0.1697
  407MOL0     C54844  12.908   5.955   9.338  0.3591 -0.0412 -0.4312
  407MOL0     C54845  12.954   6.072   9.278  0.2306  0.3151  0.0640
  407MOL0     O54846  13.087   6.103   9.246 -0.7617  0.3720  0.4728
  407MOL0     C54847  13.189   6.008   9.293  0.5226  0.2213 -0.2987
  407MOL0     C54848  13.327   6.063   9.256  0.0441  0.1244  0.7556
  407MOL0     C54849  13.430   5.960   9.289 -0.1763 -0.6983 -0.0988
  407MOL0     C54850  13.475   5.978   9.435  0.2308  0.4789 -0.5034
  407MOL0     C54851  13.578   6.081   9.464 -1.2247  0.8183  0.2165
  407MOL0     C54852  13.726   6.049   9.413  0.1312 -0.2488  0.3758
  407MOL0     C54853  13.806   5.967   9.511  0.6819  0.3198 -0.2146
  407MOL0     C54854  13.944   5.927   9.461 -0.6918 -0.5222 -0.2478
  407MOL0    Cl54855  14.047   6.068   9.426  0.2363  0.1118 -0.1536
  407MOL0     C54856  12.863   6.175   9.262  0.4991 -1.0117  0.4403
  407MOL0     C54857  12.729   6.167   9.301  0.1888  0.4345  0.3482
  407MOL0     O54858  12.428   6.131   9.247  0.3141 -0.7114  0.6732
  407MOL0     C54859  12.269   6.019   9.508 -0.0428 -0.5812  0.0437
  407MOL0     C54860  12.142   6.030   9.580 -0.4677  0.1970  1.0725
  407MOL0     N54861  11.503   6.498   9.362  0.7519  0.5059  0.1124
  407MOL0     N54862  11.420   6.494   9.262 -0.3298 -0.8752  0.0542
  407MOL0     C54863  11.530   6.243   8.158  0.5248 -0.8846 -0.4691
  407MOL0     C54864  11.430   6.214   8.061  0.5052  1.4606 -0.1013
  407MOL0     C54865  11.083   6.059   7.809  0.6072 -0.0474 -0.4933
  407MOL0     C54866  10.966   6.125   7.753  0.1623 -0.2459 -0.0416
  407MOL0     C54867  10.891   6.050   7.665  0.9198 -1.1280 -0.3782
  407MOL0     C54868  10.920   5.926   7.638 -0.3457 -0.2903 -0.7839
  407MOL0     O54869  10.838   5.874   7.539  0.0513 -0.1544 -0.3185
  407MOL0     C54870  10.827   5.740   7.551  0.9345 -0.0896  0.6579
  407MOL0     C54871  10.708   5.696   7.464 -0.7470  0.2440  0.0254
  407MOL0     C54872  10.647   5.567   7.520 -0.2080  0.8206 -0.6278
  407MOL0     C54873  10.522   5.526   7.438  0.1946  0.0517  0.5737
  407MOL0     C54874  10.548   5.451   7.313  0.2219 -0.7037  1.1559
  407MOL0     C54875  10.550   5.388   7.204  0.7516 -0.5052 -0.4107
  407MOL0     C54876  11.020   5.857   7.703 -0.7855 -0.2431  0.0927
  407MOL0     C54877  11.104   5.920   7.793 -0.2578 -0.0625  0.0909
  407MOL0     H54878  11.389   5.883   8.113 -0.4597 -0.1503  4.5006
  407MOL0     H54879  11.594   5.931   8.256  0.1958 -0.6603 -0.7321
  407MOL0     H54880  11.847   6.256   8.402 -0.4967 -1.4534  0.1698
  407MOL0     H54881  11.783   6.350   8.273  1.1641 -0.3931 -0.0029
  407MOL0     H54882  11.679   6.438   8.467  1.8361 -0.0043  1.1411
  407MOL0     H54883  11.549   6.329   8.412  0.8185 -1.1101 -3.7521
  407MOL0     H54884  11.562   6.180   8.557 -0.6685  2.5060 -3.5938
  407MOL0     H54885  11.737   6.222   8.605  0.4805  1.1808  0.5154
  407MOL0     H54886  11.618   6.439   8.686 -0.2501  0.2210  0.4806
  407MOL0     H54887  11.461   6.356   8.668 -0.4281 -2.5008 -0.8796
  407MOL0     H54888  11.518   6.204   8.853  0.3369 -1.9823 -1.6301
  407MOL0     H54889  11.690   6.256   8.849 -0.3500  2.7647  2.3830
  407MOL0     H54890  11.629   6.386   9.011  0.8994  0.0623 -0.1488
  407MOL0     H54891  11.604   6.501   8.893  0.2996  0.9613  1.3416
  407MOL0     H54892  11.411   6.531   9.015  3.2146 -0.1649  1.1347
  407MOL0     H54893  11.352   6.425   8.879  0.5102 -2.0537 -0.4038
  407MOL0     H54894  11.360   6.237   9.049 -3.0902 -0.0486  0.3919
  407MOL0     H54895  11.251   6.376   9.093  0.1306  1.7166  0.0052
  407MOL0     H54896  11.570   6.210   9.226  0.7936 -0.5802  0.2919
  407MOL0     H54897  11.787   6.351   9.376 -0.3263 -0.3367 -0.5802
  407MOL0     H54898  11.715   6.441   9.515 -1.8241  0.5433 -0.4622
  407MOL0     H54899  11.734   6.143   9.477 -3.9677 -1.8700 -1.3581
  407MOL0     H54900  11.586   6.202   9.536  0.5337 -1.5518 -1.1718
  407MOL0     H54901  11.716   6.148   9.732 -1.9771  1.0595  1.3062
  407MOL0     H54902  11.693   6.324   9.733  0.8987  0.1684  0.9120
  407MOL0     H54903  11.925   6.289   9.798 -0.6600  0.8937  0.0006
  407MOL0     H54904  11.914   6.342   9.633  0.9234 -0.1719  1.0781
  407MOL0     H54905  12.085   6.355   9.524 -0.4444 -0.1584 -1.2226
  407MOL0     H54906  12.400   6.368   9.342 -1.1676  1.0245 -0.9097
  407MOL0     H54907  12.233   6.435   9.343 -1.4773 -1.0291  2.4050
  407MOL0     H54908  12.335   6.457   9.475 -0.8127  3.2713 -2.0587
  407MOL0     H54909  12.742   5.846   9.428  4.5175 -1.7298 -1.0856
  407MOL0     H54910  12.973   5.870   9.355  1.9057  1.0563 -0.6849
  407MOL0     H54911  13.179   6.012   9.402 -0.5198  0.8594 -0.4013
  407MOL0     H54912  13.183   5.907   9.251 -0.0426 -0.2452  0.8388
  407MOL0     H54913  13.327   6.070   9.147 -3.1097  1.8905  0.7297
  407MOL0     H54914  13.351   6.163   9.294  3.2144  0.4566 -1.6989
  407MOL0     H54915  13.520   5.996   9.238  0.0887  1.8506  1.9783
  407MOL0     H54916  13.397   5.861   9.258  0.5170 -0.0974 -3.0677
  407MOL0     H54917  13.388   5.995   9.500  0.9707 -2.1483  1.3750
  407MOL0     H54918  13.520   5.888   9.479  1.9136  1.0008 -1.0841
  407MOL0     H54919  13.588   6.088   9.572  1.0889 -2.2096  0.3291
  407MOL0     H54920  13.561   6.183   9.429  1.3620  0.7419 -1.6126
  407MOL0     H54921  13.726   5.995   9.318  0.2143 -0.7145  0.6404
  407MOL0     H54922  13.785   6.141   9.420  0.3650 -0.5137  2.9889
  407MOL0     H54923  13.757   5.875   9.544  2.4330 -1.4022 -2.0883
  407MOL0     H54924  13.826   6.031   9.598  3.2125  0.7706 -1.0439
  407MOL0     H54925  13.938   5.862   9.373 -1.1091  0.6143 -1.0813
  407MOL0     H54926  14.002   5.871   9.536 -0.0447 -2.6888 -2.2450
  407MOL0     H54927  12.907   6.268   9.227  1.2375 -1.1278  1.0319
  407MOL0     H54928  12.660   6.248   9.283  0.6546  0.5668 -0.9258
  407MOL0     H54929  12.312   5.919   9.507 -1.1741 -1.0738  0.0866
  407MOL0     H54930  12.083   5.946   9.614  2.9595 -2.4504  1.0816
  407MOL0     H54931  11.547   6.349   8.175 -1.9919 -0.4223 -0.4061
  407MOL0     H54932  11.378   6.289   8.002 -0.6436 -0.7712 -2.1534
  407MOL0     H54933  10.946   6.229   7.777  0.5262 -0.2997  0.5338
  407MOL0     H54934  10.809   6.102   7.617  2.8479  1.2998 -1.2499
  407MOL0     H54935  10.920   5.693   7.516  0.4043  0.4915 -1.7235
  407MOL0     H54936  10.804   5.708   7.653  0.5810 -1.1620  0.2556
  407MOL0     H54937  10.749   5.680   7.364  0.3763 -2.1115  0.7888
  407MOL0     H54938  10.633   5.776   7.460 -0.5258  0.5483  1.4092
  407MOL0     H54939  10.627   5.577   7.627 -1.1278  2.1500 -0.8958
  407MOL0     H54940  10.711   5.478   7.512 -0.9491  0.1258  0.8339
  407MOL0     H54941  10.461   5.616   7.428  0.9390  0.6182  1.0053
  407MOL0     H54942  10.468   5.453   7.499 -0.6866 -0.3881 -0.7040
  407MOL0     H54943  10.572   5.339   7.111  0.5492 -0.9143 -0.2458
  407MOL0     H54944  11.038   5.753   7.676 -0.8930  0.0792 -1.2995
  407MOL0     H54945  11.179   5.868   7.851  1.6877  3.4250  1.0185
  408MOL0     O54946   2.875   3.388   5.967  0.4563 -0.1297 -0.3836
  408MOL0     C54947   2.981   3.412   5.916 -0.7481  0.0942 -0.2869
  408MOL0     O54948   3.000   3.424   5.776 -0.1648 -0.7292 -0.8482
  408MOL0     C54949   2.889   3.437   5.700 -0.2022 -0.7191 -0.2783
  408MOL0     C54950   2.771   3.354   5.693 -1.1037  0.6465 -0.3727
  408MOL0     C54951   2.658   3.394   5.628 -0.7103  0.0981 -1.4493
  408MOL0     C54952   2.655   3.507   5.551 -0.0775  0.5460 -0.7401
  408MOL0     O54953   2.540   3.558   5.487 -0.0098  0.0798 -0.5663
  408MOL0     C54954   2.488   3.462   5.395  0.6288 -0.2413  0.5288
  408MOL0     C54955   2.361   3.515   5.348  0.5062 -0.3169  0.2683
  408MOL0     C54956   2.293   3.433   5.237 -0.1868 -0.4065 -0.7284
  408MOL0     C54957   2.178   3.496   5.154 -0.4038 -0.3241 -1.0349
  408MOL0     C54958   2.129   3.420   5.029  0.0960  0.1591  0.0374
  408MOL0     C54959   2.052   3.502   4.921 -1.2163  1.4288  0.0916
  408MOL0     C54960   1.920   3.564   4.983 -0.0721  0.2839 -0.2496
  408MOL0     C54961   1.881   3.684   4.898 -0.6552 -0.5674 -0.1166
  408MOL0     N54962   1.731   3.712   4.887 -0.0487 -0.1868 -0.6928
  408MOL0     C54963   1.660   3.782   4.983 -0.2402 -0.6455  0.9951
  408MOL0     C54964   1.533   3.770   4.949 -0.0350  0.3295  0.1704
  408MOL0     C54965   1.414   3.840   5.010  0.3460 -0.6622  1.2286
  408MOL0     C54966   1.357   3.745   5.110 -0.9092  0.4538 -0.5955
  408MOL0     C54967   1.228   3.789   5.176  0.5269 -0.3698 -0.2995
  408MOL0     C54968   1.111   3.748   5.080 -0.3611 -0.5961  0.1097
  408MOL0     O54969   0.989   3.793   5.149 -0.2585 -0.1088 -0.4543
  408MOL0     C54970   0.969   3.925   5.141 -0.0251 -1.0326  0.0848
  408MOL0     C54971   0.929   3.976   5.022 -0.0148  0.4346  0.0081
  408MOL0     C54972   0.897   4.115   5.014  0.5967 -0.0193 -0.9721
  408MOL0     C54973   0.845   4.147   4.883 -0.1590 -0.2948 -0.8391
  408MOL0     C54974   0.903   4.197   5.130  0.4492  0.3348  0.1980
  408MOL0     C54975   0.881   4.345   5.116  1.4112 -0.0415  0.8941
  408MOL0     O54976   0.928   4.414   5.221  0.1495  0.2421 -0.4150
  408MOL0     C54977   0.913   4.549   5.229  0.6326  0.2683  0.9010
  408MOL0     C54978   1.025   4.629   5.221 -0.9508 -0.1162  0.5726
  408MOL0     C54979   1.006   4.763   5.235  0.0346  0.6107 -0.6282
  408MOL0     C54980   0.877   4.831   5.248  0.4327  0.2634 -0.0901
  408MOL0     O54981   0.859   4.971   5.267 -0.2305  0.4843  0.4887
  408MOL0     C54982   0.732   5.007   5.329  0.3791  0.2325  0.2835
  408MOL0     C54983   0.739   5.153   5.379 -0.3549 -0.0912 -0.2769
  408MOL0     C54984   0.852   5.173   5.487 -0.0327  0.4945  0.0045
  408MOL0     C54985   0.900   5.319   5.498  0.3755 -0.0549 -0.2142
  408MOL0     C54986   1.020   5.342   5.599  0.7144 -0.3138  0.1322
  408MOL0     C54987   1.135   5.243   5.596 -0.2923 -0.3587 -0.1609
  408MOL0     C54988   1.207   5.268   5.462 -0.3338 -0.4108 -1.0629
  408MOL0     C54989   1.334   5.186   5.449 -0.9273 -0.2160  0.4035
  408MOL0    Cl54990   1.308   5.011   5.439 -0.2604 -0.1085 -0.0523
  408MOL0     C54991   0.765   4.737   5.243 -0.8396 -0.9115 -0.3935
  408MOL0     C54992   0.785   4.601   5.240 -0.5273 -0.1700  0.9996
  408MOL0     O54993   0.821   4.399   5.026  0.3295  0.3427  1.3636
  408MOL0     C54994   0.950   4.145   5.255 -0.8646 -0.0693  0.5376
  408MOL0     C54995   0.979   4.008   5.256 -0.9391 -0.8632  0.1229
  408MOL0     N54996   1.524   3.695   4.829 -0.8526  0.4136  0.0044
  408MOL0     N54997   1.644   3.666   4.799 -0.1369 -0.0261  0.5287
  408MOL0     C54998   2.770   3.590   5.546 -0.5169  0.7137 -0.4993
  408MOL0     C54999   2.885   3.554   5.613  0.0643 -0.7444  0.0900
  408MOL0     C55000   3.098   3.433   6.008  0.6066 -0.7082 -0.4088
  408MOL0     C55001   3.221   3.465   5.957  0.6205 -0.0429  0.9784
  408MOL0     C55002   3.338   3.489   6.038  0.2133  0.4076 -0.1904
  408MOL0     C55003   3.318   3.506   6.176  0.2097 -0.0030 -0.5848
  408MOL0     O55004   3.420   3.567   6.254  0.1469  0.4091  0.3976
  408MOL0     C55005   3.412   3.540   6.396 -0.7434  0.1164 -0.1445
  408MOL0     C55006   3.561   3.555   6.437 -0.3904 -0.0190  0.0530
  408MOL0     C55007   3.602   3.702   6.455  0.5125  0.8422 -0.4758
  408MOL0     C55008   3.752   3.714   6.504  0.2577 -0.0093 -0.0866
  408MOL0     C55009   3.830   3.626   6.431  0.2113 -0.3316  0.0734
  408MOL0     C55010   3.900   3.556   6.358 -0.3107 -0.5428 -0.1227
  408MOL0     C55011   3.188   3.487   6.224 -0.2132  0.7346  0.2278
  408MOL0     C55012   3.080   3.447   6.145 -0.4784  0.6127  0.6399
  408MOL0     H55013   2.768   3.262   5.749  1.6640 -0.2961 -1.5629
  408MOL0     H55014   2.569   3.333   5.641  0.5674 -1.9815 -2.0532
  408MOL0     H55015   2.553   3.450   5.308 -0.3669 -1.1280 -0.1079
  408MOL0     H55016   2.483   3.363   5.442  1.0593 -0.4586  0.1247
  408MOL0     H55017   2.293   3.519   5.434  0.4016 -0.4612  0.1900
  408MOL0     H55018   2.380   3.613   5.304 -1.1121  0.3510  0.9520
  408MOL0     H55019   2.360   3.392   5.162  2.6932  1.2236  0.7753
  408MOL0     H55020   2.246   3.352   5.293  0.3227  0.0056  0.3314
  408MOL0     H55021   2.085   3.518   5.207  0.4080  3.2705 -0.8831
  408MOL0     H55022   2.217   3.592   5.120 -3.3172  1.0467 -0.8160
  408MOL0     H55023   2.218   3.383   4.977  0.4140  0.1014  0.6155
  408MOL0     H55024   2.076   3.327   5.054 -0.6723  0.2343 -1.2317
  408MOL0     H55025   2.125   3.577   4.890  0.1093  0.4634  0.8114
  408MOL0     H55026   2.039   3.458   4.821  2.7689  0.3662 -0.1095
  408MOL0     H55027   1.839   3.491   4.975  0.1806  0.2246 -4.5450
  408MOL0     H55028   1.932   3.591   5.088  3.1349  1.8826 -0.8723
  408MOL0     H55029   1.921   3.674   4.796  2.6389  0.6022  0.9119
  408MOL0     H55030   1.936   3.767   4.944 -1.0663 -1.0622  1.3169
  408MOL0     H55031   1.700   3.836   5.068  0.3366 -0.8915  0.8910
  408MOL0     H55032   1.434   3.934   5.062  0.1152  1.4048 -2.1266
  408MOL0     H55033   1.347   3.868   4.928  0.8691 -1.8805  0.3550
  408MOL0     H55034   1.428   3.724   5.190 -3.7400 -2.1558  1.4369
  408MOL0     H55035   1.350   3.646   5.066  1.2125  0.4323 -0.9901
  408MOL0     H55036   1.231   3.896   5.198  1.6805 -0.2691 -0.8933
  408MOL0     H55037   1.208   3.750   5.277 -2.5653  3.6483  0.9295
  408MOL0     H55038   1.100   3.639   5.071  1.7199 -0.8432 -0.1178
  408MOL0     H55039   1.123   3.790   4.979 -1.3679  0.6094  0.4702
  408MOL0     H55040   0.931   3.914   4.933 -2.3300 -0.5321  0.5346
  408MOL0     H55041   0.745   4.190   4.896  0.9677  1.7709  2.0252
  408MOL0     H55042   0.903   4.230   4.841 -1.4091 -0.1196 -2.3180
  408MOL0     H55043   0.837   4.060   4.818 -0.9535 -2.9195  2.4931
  408MOL0     H55044   1.118   4.573   5.214 -0.2040  1.2348 -0.9000
  408MOL0     H55045   1.089   4.830   5.249 -0.7256  1.3323  0.5794
  408MOL0     H55046   0.640   4.997   5.270 -0.1751 -2.7329  1.4400
  408MOL0     H55047   0.710   4.935   5.408  0.8218 -1.6579 -1.2393
  408MOL0     H55048   0.752   5.217   5.291 -0.1494 -1.0966 -0.9972
  408MOL0     H55049   0.648   5.195   5.422 -0.2108  2.7643 -2.4194
  408MOL0     H55050   0.927   5.095   5.468 -0.9723 -0.9615  1.8734
  408MOL0     H55051   0.807   5.149   5.584 -1.5701  1.1999 -0.4890
  408MOL0     H55052   0.930   5.360   5.401  2.6577  1.9118  1.1955
  408MOL0     H55053   0.818   5.386   5.526  2.0002  1.6244  0.7338
  408MOL0     H55054   0.969   5.325   5.693  1.0829 -0.8467  0.2427
  408MOL0     H55055   1.061   5.442   5.579  0.2682  0.4510  2.6850
  408MOL0     H55056   1.202   5.268   5.678 -0.6999  2.3248 -0.5563
  408MOL0     H55057   1.104   5.140   5.619 -4.0037  0.1113 -2.2433
  408MOL0     H55058   1.228   5.375   5.470 -1.0975 -0.3202 -0.2295
  408MOL0     H55059   1.149   5.247   5.372 -0.2110  2.0707 -1.7925
  408MOL0     H55060   1.402   5.213   5.530  0.5060  2.1416 -1.4430
  408MOL0     H55061   1.381   5.221   5.356 -2.3947  1.0109  0.0763
  408MOL0     H55062   0.663   4.771   5.259 -0.2928  0.2880  0.6470
  408MOL0     H55063   0.700   4.534   5.245 -1.0067  0.3600  0.2549
  408MOL0     H55064   0.966   4.207   5.343  0.8923 -1.4557  1.2612
  408MOL0     H55065   1.031   3.972   5.345 -1.4382  2.1688  1.7720
  408MOL0     H55066   2.764   3.680   5.486  0.5071  1.1413  0.0048
  408MOL0     H55067   2.973   3.617   5.620 -0.9451  0.6947  0.2724
  408MOL0     H55068   3.225   3.478   5.849 -1.4069  0.8390  0.9618
  408MOL0     H55069   3.433   3.511   5.989 -1.1038  1.6774 -2.3599
  408MOL0     H55070   3.350   3.610   6.454 -0.8933 -0.1019 -0.0405
  408MOL0     H55071   3.373   3.438   6.402  1.9246 -0.9196  0.7695
  408MOL0     H55072   3.618   3.508   6.356  0.1294 -0.8578  0.8957
  408MOL0     H55073   3.591   3.516   6.534  4.0177 -0.5338 -1.2677
  408MOL0     H55074   3.545   3.756   6.531  1.0666 -1.1771  1.4430
  408MOL0     H55075   3.592   3.759   6.362 -2.0256 -0.2165 -0.9149
  408MOL0     H55076   3.771   3.681   6.607  0.3104  2.3822  0.7236
  408MOL0     H55077   3.789   3.816   6.491 -1.2905  0.8931  1.9383
  408MOL0     H55078   3.948   3.489   6.289 -0.3527 -0.2403 -0.4480
  408MOL0     H55079   3.155   3.512   6.324  1.2144  1.9659  0.4464
  408MOL0     H55080   2.987   3.429   6.198  0.6623  1.6211  3.1563
  409MOL0     O55081   6.595   7.054   2.020 -0.1130  0.7347  0.2256
  409MOL0     C55082   6.590   6.986   2.121 -0.0539  0.0242  0.3430
  409MOL0     O55083   6.510   7.014   2.238 -0.0586  0.0865  0.2090
  409MOL0     C55084   6.435   7.131   2.235  0.3871  0.7823 -0.7129
  409MOL0     C55085   6.476   7.257   2.273 -0.0951  0.4445 -0.0235
  409MOL0     C55086   6.390   7.361   2.286 -0.5794  0.7121 -0.3077
  409MOL0     C55087   6.252   7.343   2.272 -0.8223  0.9328 -0.0853
  409MOL0     O55088   6.175   7.448   2.279  0.5851 -0.0818 -0.5709
  409MOL0     C55089   6.025   7.433   2.266 -0.4066 -0.2366  0.6600
  409MOL0     C55090   5.992   7.418   2.114 -0.7878 -0.0271  0.3278
  409MOL0     C55091   5.855   7.464   2.071 -0.0369 -0.1810  0.6964
  409MOL0     C55092   5.794   7.379   1.958  0.1873  0.1625 -0.3949
  409MOL0     C55093   5.670   7.444   1.887  0.8946  1.1237  0.1610
  409MOL0     C55094   5.558   7.478   1.985 -0.4181 -0.0037  0.5504
  409MOL0     C55095   5.420   7.518   1.920  0.1437  0.9716 -0.0341
  409MOL0     C55096   5.308   7.549   2.025  0.1521  0.4254 -0.4400
  409MOL0     N55097   5.169   7.543   1.971  0.4942  0.0677  0.8686
  409MOL0     C55098   5.114   7.439   1.897 -0.2442  0.3485 -0.2386
  409MOL0     C55099   4.993   7.474   1.847 -1.0194 -0.0279 -0.5039
  409MOL0     C55100   4.906   7.395   1.752  0.1798  0.4960 -0.3723
  409MOL0     C55101   4.952   7.422   1.607  0.1912  0.7468  0.5533
  409MOL0     C55102   4.976   7.568   1.565 -0.1153  1.5276 -0.2138
  409MOL0     C55103   4.857   7.651   1.519  0.1884 -0.2497  1.0530
  409MOL0     O55104   4.733   7.620   1.583  0.0384 -0.5874  0.0923
  409MOL0     C55105   4.618   7.688   1.541 -0.5998  0.0582  0.1357
  409MOL0     C55106   4.498   7.641   1.596 -0.2195 -0.3379 -0.5005
  409MOL0     C55107   4.372   7.696   1.557  0.2274 -1.0976  0.4958
  409MOL0     C55108   4.251   7.651   1.633 -0.2781  0.5806 -0.4064
  409MOL0     C55109   4.371   7.801   1.456  0.2637 -0.1260  0.2823
  409MOL0     C55110   4.246   7.864   1.401 -0.1772 -0.0561 -0.4291
  409MOL0     O55111   4.251   7.885   1.269 -0.6218  0.1924  0.6736
  409MOL0     C55112   4.162   7.974   1.208 -0.0889  0.3384  0.5635
  409MOL0     C55113   4.026   7.948   1.191  0.1378  0.4923 -0.2862
  409MOL0     C55114   3.938   8.046   1.147 -0.5835 -0.6177  0.5320
  409MOL0     C55115   3.989   8.163   1.104  0.0927  0.0025 -0.0687
  409MOL0     O55116   3.902   8.263   1.073 -0.2502  0.8522 -0.2380
  409MOL0     C55117   3.877   8.272   0.930 -0.1906  0.6522 -0.8865
  409MOL0     C55118   3.753   8.359   0.908  0.2719 -0.5302 -0.4774
  409MOL0     C55119   3.630   8.295   0.955  1.1202  0.2597  0.2688
  409MOL0     C55120   3.507   8.350   0.892  0.2624 -0.0365  0.9151
  409MOL0     C55121   3.448   8.472   0.953  0.3245  0.7016 -1.0257
  409MOL0     C55122   3.310   8.505   0.909  0.1024  0.6074  0.6616
  409MOL0     C55123   3.294   8.530   0.756 -0.2412 -0.4114  0.2462
  409MOL0     C55124   3.165   8.613   0.727  1.0649 -0.5641  0.0479
  409MOL0    Cl55125   3.132   8.671   0.556 -0.5742 -0.1882  0.2204
  409MOL0     C55126   4.126   8.181   1.102  0.1110 -0.1013  0.1258
  409MOL0     C55127   4.217   8.086   1.147  0.8055 -0.1557 -0.2267
  409MOL0     O55128   4.147   7.885   1.472 -0.0776 -0.7527 -0.4120
  409MOL0     C55129   4.491   7.850   1.411  0.5521  0.4235  0.5065
  409MOL0     C55130   4.610   7.794   1.458 -0.2758 -0.2837  0.7051
  409MOL0     N55131   4.974   7.599   1.901 -0.5408 -0.7252  0.7300
  409MOL0     N55132   5.079   7.641   1.960  0.0639 -0.3746  0.1928
  409MOL0     C55133   6.202   7.209   2.251 -0.4466  0.2122 -0.2648
  409MOL0     C55134   6.296   7.108   2.225 -0.1014 -0.4955  0.2816
  409MOL0     C55135   6.677   6.865   2.118 -0.5171 -0.1772  0.5576
  409MOL0     C55136   6.731   6.816   1.988  0.1630 -0.3768  0.3930
  409MOL0     C55137   6.803   6.695   1.983 -0.2070 -0.0797  0.1356
  409MOL0     C55138   6.824   6.622   2.108 -0.6151 -0.3210 -0.7014
  409MOL0     O55139   6.894   6.513   2.107 -0.3704 -0.2833  0.1823
  409MOL0     C55140   7.026   6.535   2.164  0.3639 -0.0457 -0.2979
  409MOL0     C55141   7.037   6.449   2.293 -1.0287  0.2394  0.0789
  409MOL0     C55142   7.028   6.300   2.251 -0.6592  0.5540 -0.0964
  409MOL0     C55143   7.023   6.205   2.373  0.3819  0.2081 -0.1563
  409MOL0     C55144   7.161   6.215   2.433  0.2132  0.2862 -0.3756
  409MOL0     C55145   7.264   6.220   2.488 -0.9620  0.2244  0.7065
  409MOL0     C55146   6.771   6.672   2.229  0.4090 -0.0795 -0.6259
  409MOL0     C55147   6.692   6.793   2.232 -0.8063  0.3011  0.2960
  409MOL0     H55148   6.582   7.273   2.289 -0.3401  3.2026 -0.5884
  409MOL0     H55149   6.424   7.463   2.304 -1.4009  0.8626  0.4841
  409MOL0     H55150   5.974   7.352   2.320 -0.4471 -0.7575 -0.1318
  409MOL0     H55151   5.980   7.527   2.298 -1.1814 -0.2231 -0.4028
  409MOL0     H55152   6.059   7.475   2.049 -1.9131  0.2077 -0.6717
  409MOL0     H55153   5.995   7.310   2.098 -0.6406  0.0102  0.0953
  409MOL0     H55154   5.778   7.462   2.149 -0.1385  1.4516  0.6682
  409MOL0     H55155   5.859   7.568   2.038 -1.4001 -0.1933  0.4014
  409MOL0     H55156   5.871   7.365   1.881  1.3229 -2.8224  1.1387
  409MOL0     H55157   5.767   7.276   1.981  2.0809 -0.8932 -2.4934
  409MOL0     H55158   5.702   7.541   1.849 -3.6903  3.1086  0.6982
  409MOL0     H55159   5.633   7.382   1.805 -0.1683  1.3431  0.4514
  409MOL0     H55160   5.539   7.386   2.041  1.2431 -0.1658  0.8898
  409MOL0     H55161   5.596   7.559   2.048 -2.8282 -0.5079  2.8393
  409MOL0     H55162   5.437   7.610   1.863  2.3072  1.5759  1.4467
  409MOL0     H55163   5.384   7.445   1.848  0.6854  0.7185 -0.0540
  409MOL0     H55164   5.332   7.649   2.063 -0.0602  0.6452 -0.8742
  409MOL0     H55165   5.327   7.473   2.101 -0.9568 -1.8441 -2.2912
  409MOL0     H55166   5.176   7.355   1.868  0.5295  0.0991  2.0050
  409MOL0     H55167   4.908   7.286   1.765  0.4424  0.5493  0.0252
  409MOL0     H55168   4.804   7.423   1.780 -0.3861 -0.2572 -1.5506
  409MOL0     H55169   4.883   7.376   1.536  0.5689 -2.3345  2.0230
  409MOL0     H55170   5.047   7.368   1.600 -0.4959 -0.3015 -1.2357
  409MOL0     H55171   5.043   7.565   1.478 -1.2980  0.3319 -1.1255
  409MOL0     H55172   5.023   7.625   1.646 -0.1221  2.0581 -0.5747
  409MOL0     H55173   4.849   7.635   1.411 -0.0840  2.7591  0.5209
  409MOL0     H55174   4.882   7.754   1.546  1.1440 -0.9719  3.1667
  409MOL0     H55175   4.494   7.562   1.669  2.5521 -0.6899 -0.6046
  409MOL0     H55176   4.149   7.661   1.595 -0.4124  1.0854  0.0751
  409MOL0     H55177   4.268   7.546   1.662 -0.1282  0.1619 -1.9311
  409MOL0     H55178   4.253   7.710   1.725 -1.1007 -1.7831  1.2420
  409MOL0     H55179   3.981   7.853   1.219  1.0900  0.1688  0.1865
  409MOL0     H55180   3.831   8.031   1.158 -1.0045  2.7734  3.1970
  409MOL0     H55181   3.969   8.318   0.893  1.4483 -0.4741  1.5172
  409MOL0     H55182   3.863   8.184   0.867  1.2432  0.5943 -1.1567
  409MOL0     H55183   3.758   8.452   0.966  2.2516 -0.8891 -0.0021
  409MOL0     H55184   3.750   8.385   0.802 -2.1959  2.0864  0.1039
  409MOL0     H55185   3.612   8.314   1.062  3.2157 -3.2173  1.4157
  409MOL0     H55186   3.642   8.188   0.935 -0.2625  0.6145 -3.1217
  409MOL0     H55187   3.524   8.382   0.788 -2.5266 -1.5106 -0.0858
  409MOL0     H55188   3.430   8.273   0.887  0.0339  0.2604 -2.3047
  409MOL0     H55189   3.515   8.558   0.941  2.4936 -1.2569 -4.4879
  409MOL0     H55190   3.439   8.460   1.061  1.4375 -2.2353 -1.1851
  409MOL0     H55191   3.253   8.416   0.934  1.2434  0.3336  2.4199
  409MOL0     H55192   3.270   8.587   0.969 -1.3911 -1.7048  3.0207
  409MOL0     H55193   3.271   8.436   0.706  0.5720 -0.0626 -0.8125
  409MOL0     H55194   3.382   8.572   0.707  0.6698 -3.0199 -0.5316
  409MOL0     H55195   3.159   8.695   0.799  1.9433 -0.1009 -0.3937
  409MOL0     H55196   3.085   8.541   0.745  2.3423 -2.7163 -2.3225
  409MOL0     H55197   4.162   8.274   1.059  0.0569 -1.6900 -3.7873
  409MOL0     H55198   4.323   8.109   1.141  0.8671 -0.8138 -2.7551
  409MOL0     H55199   4.498   7.935   1.345  1.0000  2.3631  2.9022
  409MOL0     H55200   4.704   7.838   1.427 -0.2045 -2.3722 -2.4496
  409MOL0     H55201   6.098   7.181   2.258 -0.7242  0.9704 -1.2282
  409MOL0     H55202   6.253   7.009   2.212 -1.4686  0.0532  0.3934
  409MOL0     H55203   6.722   6.866   1.892  0.4804 -0.8559  0.1075
  409MOL0     H55204   6.833   6.668   1.883  0.2271 -2.3211  0.8205
  409MOL0     H55205   7.103   6.500   2.095 -0.5914 -2.5182 -0.1753
  409MOL0     H55206   7.044   6.640   2.192 -1.9604  0.0334  1.1934
  409MOL0     H55207   6.962   6.485   2.364  1.6895  1.1297  2.7111
  409MOL0     H55208   7.134   6.465   2.340 -0.8922  0.1428 -0.1698
  409MOL0     H55209   7.111   6.286   2.182 -0.1276  2.3641  0.1174
  409MOL0     H55210   6.936   6.278   2.196 -0.3698 -1.8198  0.2458
  409MOL0     H55211   7.014   6.106   2.328  1.2095  0.6104 -1.2848
  409MOL0     H55212   6.946   6.217   2.449  0.4453 -1.1201  0.1297
  409MOL0     H55213   7.362   6.234   2.528 -1.1028  1.3145  0.6947
  409MOL0     H55214   6.787   6.618   2.321 -1.8846 -4.0214 -2.2595
  409MOL0     H55215   6.635   6.813   2.322  1.2842  1.4670  1.4540
  410MOL0     O55216   6.474   9.476   3.731  0.5617  0.7048  0.6845
  410MOL0     C55217   6.483   9.383   3.812 -0.2494  0.0360 -0.2181
  410MOL0     O55218   6.395   9.287   3.839 -0.6723  0.1878  0.3234
  410MOL0     C55219   6.275   9.284   3.774 -1.0618 -0.4539 -0.4352
  410MOL0     C55220   6.205   9.381   3.710 -1.3371  0.3296  0.9392
  410MOL0     C55221   6.072   9.366   3.673 -0.4431  0.4418  0.8912
  410MOL0     C55222   6.016   9.240   3.678 -0.9893 -0.5773  0.0309
  410MOL0     O55223   5.888   9.229   3.634  0.4216 -0.1474  0.3962
  410MOL0     C55224   5.805   9.134   3.698 -0.3774 -0.4583  0.4617
  410MOL0     C55225   5.708   9.210   3.779 -0.3443 -0.2089 -0.8013
  410MOL0     C55226   5.628   9.122   3.878  0.9392 -0.5178 -0.3206
  410MOL0     C55227   5.540   9.207   3.980 -0.7083  0.6063  0.0862
  410MOL0     C55228   5.436   9.130   4.068  0.2209  0.3393  0.9682
  410MOL0     C55229   5.360   9.229   4.159  0.4252  0.4565  0.6859
  410MOL0     C55230   5.278   9.149   4.270 -0.6626 -0.4028 -0.5232
  410MOL0     C55231   5.203   9.032   4.222  0.6868 -0.1416  0.3163
  410MOL0     N55232   5.100   8.990   4.317  0.4260  0.2064  0.4799
  410MOL0     C55233   4.962   9.006   4.298  0.1969  0.8775 -0.4660
  410MOL0     C55234   4.911   8.993   4.420  0.4787 -0.3874 -0.6478
  410MOL0     C55235   4.778   9.025   4.470 -0.3999  0.6013 -0.2916
  410MOL0     C55236   4.709   8.907   4.528 -0.2817  0.0132 -0.7151
  410MOL0     C55237   4.557   8.931   4.548 -0.0121  1.5616 -0.1740
  410MOL0     C55238   4.487   8.802   4.613 -0.3400 -0.0603  0.7064
  410MOL0     O55239   4.358   8.793   4.559 -0.0694  0.2149  1.2216
  410MOL0     C55240   4.256   8.848   4.631  0.2731 -0.2609  0.4149
  410MOL0     C55241   4.186   8.959   4.584 -0.2618 -0.8840  0.2572
  410MOL0     C55242   4.071   9.009   4.638 -0.0944  0.8497 -0.4180
  410MOL0     C55243   3.998   9.129   4.577  0.1999  0.4774 -0.4395
  410MOL0     C55244   4.012   8.929   4.749 -0.6272 -0.0107  0.1188
  410MOL0     C55245   3.876   8.955   4.810  1.3811  0.4995  0.4886
  410MOL0     O55246   3.849   8.886   4.924  0.0563 -0.6359  0.0038
  410MOL0     C55247   3.717   8.857   4.956 -0.5259  0.7730  0.5574
  410MOL0     C55248   3.662   8.737   4.910 -0.3626 -0.4332 -0.0282
  410MOL0     C55249   3.533   8.696   4.947 -0.6906  0.6073  0.1637
  410MOL0     C55250   3.455   8.779   5.030 -0.3931 -0.3990  0.2664
  410MOL0     O55251   3.322   8.752   5.038 -0.5485 -0.2023  0.1649
  410MOL0     C55252   3.294   8.645   5.131 -0.0976  0.2505  0.3373
  410MOL0     C55253   3.232   8.695   5.258  0.2767 -0.0228  0.1819
  410MOL0     C55254   3.310   8.792   5.346 -0.3322 -0.9598  0.2940
  410MOL0     C55255   3.239   8.819   5.483 -1.2373  0.4073 -0.3808
  410MOL0     C55256   3.333   8.834   5.608 -0.3069 -0.0043  0.3142
  410MOL0     C55257   3.241   8.851   5.729 -0.1855  0.3314 -0.1425
  410MOL0     C55258   3.319   8.909   5.858  0.6520  0.3149  0.1045
  410MOL0     C55259   3.233   8.916   5.983  0.5517  0.0404 -0.7181
  410MOL0    Cl55260   3.205   8.738   6.025  0.1619  0.0639 -0.2242
  410MOL0     C55261   3.509   8.900   5.065 -0.8055 -0.1623 -1.0006
  410MOL0     C55262   3.641   8.932   5.041  0.1294 -0.7121  0.2602
  410MOL0     O55263   3.794   9.002   4.736  0.1282 -0.5041 -0.3252
  410MOL0     C55264   4.082   8.823   4.795 -0.1900  0.3762  0.2536
  410MOL0     C55265   4.202   8.777   4.736 -0.1931 -0.5161  0.0062
  410MOL0     N55266   5.017   8.960   4.506 -0.2310  0.2373  0.5463
  410MOL0     N55267   5.132   8.970   4.447  0.0771  0.5071  0.1217
  410MOL0     C55268   6.095   9.134   3.728  0.4861 -0.0676  1.1306
  410MOL0     C55269   6.219   9.162   3.784 -0.7584  0.1152  0.1083
  410MOL0     C55270   6.609   9.357   3.885  0.8635 -0.5597 -0.4705
  410MOL0     C55271   6.636   9.243   3.970 -0.4606 -0.6562  0.6527
  410MOL0     C55272   6.756   9.235   4.043  0.8144 -1.4319 -0.3136
  410MOL0     C55273   6.850   9.333   4.033 -1.1270 -0.7648  0.1264
  410MOL0     O55274   6.975   9.344   4.100  0.6404 -0.6350 -0.0192
  410MOL0     C55275   7.017   9.246   4.194  0.1903  0.9923 -0.5622
  410MOL0     C55276   7.171   9.240   4.196  0.7176 -0.9697  0.2942
  410MOL0     C55277   7.226   9.159   4.318  0.4563 -0.2497 -0.7679
  410MOL0     C55278   7.185   9.016   4.331  0.7534 -0.9819 -0.0924
  410MOL0     C55279   7.045   9.008   4.405  0.2666 -0.1113  0.5612
  410MOL0     C55280   6.936   8.994   4.457  0.4446 -0.2467 -0.1562
  410MOL0     C55281   6.825   9.457   3.962 -0.2487  0.3051  0.1982
  410MOL0     C55282   6.706   9.467   3.896 -0.1718  0.1405 -0.6147
  410MOL0     H55283   6.257   9.476   3.703  2.0436 -1.4674 -1.8354
  410MOL0     H55284   6.005   9.434   3.622 -0.0396 -0.4432 -0.9043
  410MOL0     H55285   5.747   9.067   3.633  2.1524 -3.9468  1.4992
  410MOL0     H55286   5.863   9.066   3.761 -0.3841 -0.4437  0.4831
  410MOL0     H55287   5.770   9.274   3.842 -0.0265 -1.9579  0.7490
  410MOL0     H55288   5.641   9.271   3.718 -0.3646 -0.1417 -0.7129
  410MOL0     H55289   5.575   9.054   3.811 -0.8281  0.4009  0.1008
  410MOL0     H55290   5.698   9.073   3.947 -0.5618 -1.7587  0.3868
  410MOL0     H55291   5.604   9.266   4.047  0.6715  0.6323 -1.1967
  410MOL0     H55292   5.481   9.281   3.925 -1.4988  0.9766  1.3784
  410MOL0     H55293   5.356   9.077   4.016 -1.0584  3.2963 -0.2937
  410MOL0     H55294   5.501   9.065   4.127 -1.2680 -0.3489  1.9160
  410MOL0     H55295   5.433   9.297   4.204  0.4334  0.1898  1.0828
  410MOL0     H55296   5.290   9.296   4.108  1.8835  2.4581  1.1994
  410MOL0     H55297   5.338   9.115   4.355 -0.9501  1.4759  0.4808
  410MOL0     H55298   5.203   9.218   4.309 -0.6555 -0.2038 -0.8612
  410MOL0     H55299   5.265   8.942   4.220 -0.5343 -1.0069  0.3359
  410MOL0     H55300   5.162   9.063   4.125 -2.3573 -2.5842  0.6773
  410MOL0     H55301   4.909   9.051   4.214 -4.3538 -1.5146  0.7763
  410MOL0     H55302   4.794   9.108   4.540  1.3902 -1.4181  1.8868
  410MOL0     H55303   4.720   9.060   4.385 -1.8690 -1.7244 -0.3197
  410MOL0     H55304   4.755   8.885   4.625 -1.5321 -1.0641 -0.3392
  410MOL0     H55305   4.725   8.823   4.461  0.0298 -1.1509  0.7572
  410MOL0     H55306   4.524   8.935   4.444  3.9133 -1.2449 -1.7570
  410MOL0     H55307   4.529   9.023   4.601  0.6286  0.9956  1.2071
  410MOL0     H55308   4.490   8.787   4.722 -5.3623 -0.7007  0.9819
  410MOL0     H55309   4.541   8.717   4.569  3.6040  1.5493  1.9390
  410MOL0     H55310   4.228   9.009   4.497  4.4660 -0.9662  2.1769
  410MOL0     H55311   3.996   9.209   4.651  2.1573 -0.6657  0.9261
  410MOL0     H55312   4.045   9.173   4.488 -1.2332  1.5791 -0.6844
  410MOL0     H55313   3.900   9.095   4.542  1.1038 -0.1072 -2.5979
  410MOL0     H55314   3.727   8.683   4.841  0.4501 -0.2849  0.6033
  410MOL0     H55315   3.492   8.609   4.897  0.4877  1.1652 -1.9040
  410MOL0     H55316   3.221   8.581   5.081 -0.4528  0.8059  0.1350
  410MOL0     H55317   3.385   8.588   5.152  2.5543  2.7467 -3.0875
  410MOL0     H55318   3.138   8.744   5.230  0.6665 -0.5207 -2.2382
  410MOL0     H55319   3.212   8.619   5.334 -2.9158  2.0259  1.5796
  410MOL0     H55320   3.319   8.882   5.284 -1.1395  0.7121  2.4644
  410MOL0     H55321   3.408   8.748   5.366 -0.0889 -1.0718 -1.0372
  410MOL0     H55322   3.185   8.914   5.480  0.1163  1.1770 -1.8285
  410MOL0     H55323   3.183   8.728   5.506 -0.9000  0.7806  2.1461
  410MOL0     H55324   3.389   8.927   5.593  0.7228 -0.5132  0.9617
  410MOL0     H55325   3.403   8.751   5.617  0.7919  0.8878  0.1515
  410MOL0     H55326   3.159   8.920   5.706 -0.4385  0.0473 -0.1110
  410MOL0     H55327   3.195   8.755   5.755  1.1670  0.1550  1.7736
  410MOL0     H55328   3.344   9.014   5.837  3.5493  0.0944  1.9322
  410MOL0     H55329   3.409   8.850   5.876 -1.1178 -1.8199  2.6992
  410MOL0     H55330   3.139   8.959   5.947  0.2789 -2.1564 -2.9235
  410MOL0     H55331   3.289   8.968   6.061  0.9733  0.4440 -1.2813
  410MOL0     H55332   3.449   8.974   5.118  1.6373  2.1636 -1.3095
  410MOL0     H55333   3.689   9.020   5.083  0.3859 -0.2595 -0.9275
  410MOL0     H55334   4.038   8.758   4.869 -3.1577  0.9331 -0.8498
  410MOL0     H55335   4.249   8.686   4.773 -3.6196 -1.9086  1.3847
  410MOL0     H55336   6.065   9.030   3.736  3.1868 -0.8736  1.7870
  410MOL0     H55337   6.279   9.081   3.825  0.7444 -0.3499 -2.7624
  410MOL0     H55338   6.567   9.164   3.997 -0.2606 -0.6736  1.1134
  410MOL0     H55339   6.778   9.148   4.105  1.0293 -2.7953 -2.2255
  410MOL0     H55340   6.976   9.265   4.293 -0.1023 -2.6154  0.1298
  410MOL0     H55341   6.970   9.149   4.176 -1.5147  1.6487  0.2092
  410MOL0     H55342   7.212   9.340   4.216 -1.9114  0.4852 -1.0395
  410MOL0     H55343   7.194   9.197   4.098 -0.1755  1.5652 -1.1115
  410MOL0     H55344   7.191   9.214   4.406 -2.2260 -1.5962 -0.9117
  410MOL0     H55345   7.332   9.170   4.295  0.4420  1.2631 -0.2340
  410MOL0     H55346   7.262   8.955   4.379  3.5922  2.3132 -0.0790
  410MOL0     H55347   7.157   8.982   4.231  1.7188 -0.8987 -0.4020
  410MOL0     H55348   6.838   9.003   4.498  0.5396 -2.4298  0.6662
  410MOL0     H55349   6.888   9.545   3.974  1.6599 -1.0255  0.3576
  410MOL0     H55350   6.682   9.560   3.846  2.0087  0.5466 -0.9842
  411MOL0     O55351   8.539   5.128   8.809 -0.1803 -0.0814 -0.0073
  411MOL0     C55352   8.578   5.139   8.697 -0.2651 -0.4222  0.9068
  411MOL0     O55353   8.510   5.178   8.580 -0.0462 -0.0200 -0.6610
  411MOL0     C55354   8.370   5.179   8.592 -0.2509  0.8386  0.1604
  411MOL0     C55355   8.304   5.300   8.566 -1.2678  0.5641  0.8321
  411MOL0     C55356   8.164   5.315   8.577 -0.6062 -0.3510  0.8941
  411MOL0     C55357   8.096   5.200   8.597 -0.4975  0.9205 -0.0138
  411MOL0     O55358   7.967   5.219   8.591 -0.2878 -0.5271  0.0076
  411MOL0     C55359   7.885   5.093   8.583  0.7814 -0.1269 -0.0380
  411MOL0     C55360   7.748   5.151   8.556 -0.1155  0.6643 -0.0557
  411MOL0     C55361   7.655   5.026   8.524  0.5978 -0.0259 -0.4056
  411MOL0     C55362   7.643   4.995   8.376  0.1160  0.2345  0.5565
  411MOL0     C55363   7.550   4.877   8.345 -0.1351 -0.5911 -0.3274
  411MOL0     C55364   7.566   4.867   8.193 -0.4871 -0.6893 -0.3955
  411MOL0     C55365   7.439   4.787   8.145 -0.0994  0.4730  0.3527
  411MOL0     C55366   7.315   4.883   8.121 -1.2226  0.1498  0.7973
  411MOL0     N55367   7.182   4.814   8.119  0.2269  0.4732 -0.2082
  411MOL0     C55368   7.160   4.696   8.063  0.7589  0.1776 -0.1422
  411MOL0     C55369   7.039   4.654   8.106 -0.3650  1.1801  0.0400
  411MOL0     C55370   6.949   4.534   8.076 -0.4759  0.1390 -0.2465
  411MOL0     C55371   6.898   4.525   7.931 -1.1543  0.5144 -0.6202
  411MOL0     C55372   6.997   4.442   7.844  0.3462 -0.4974 -0.5223
  411MOL0     C55373   6.938   4.419   7.714  0.5155 -0.3015  0.7708
  411MOL0     O55374   6.937   4.549   7.640 -0.0180 -0.4798 -0.8814
  411MOL0     C55375   6.824   4.589   7.566 -0.1027 -0.5580 -0.5145
  411MOL0     C55376   6.827   4.726   7.539  0.6170 -0.6372 -0.0376
  411MOL0     C55377   6.714   4.792   7.484 -0.3711 -0.1359  0.1777
  411MOL0     C55378   6.713   4.936   7.483 -0.2047 -0.3521  0.2589
  411MOL0     C55379   6.616   4.709   7.431  0.9041  0.3737 -0.9171
  411MOL0     C55380   6.502   4.752   7.344  0.6668 -0.1899  0.2998
  411MOL0     O55381   6.398   4.662   7.315 -0.5211  0.4477 -0.2199
  411MOL0     C55382   6.296   4.703   7.225  0.0245 -0.6655 -0.6506
  411MOL0     C55383   6.165   4.673   7.257 -0.2966 -0.3119 -0.0097
  411MOL0     C55384   6.065   4.696   7.161  0.1107 -0.7337  0.1572
  411MOL0     C55385   6.085   4.771   7.043  0.3747 -0.7717  0.3407
  411MOL0     O55386   5.982   4.802   6.959 -0.3203  0.2903  0.5943
  411MOL0     C55387   5.996   4.929   6.879 -0.2329  1.4924 -1.2179
  411MOL0     C55388   5.860   4.997   6.887 -0.0134  0.0555  0.6203
  411MOL0     C55389   5.744   4.911   6.831 -0.1888 -1.0932 -0.9247
  411MOL0     C55390   5.742   4.929   6.679  1.1303 -0.9566  0.0696
  411MOL0     C55391   5.658   4.821   6.605  0.4459 -0.4208  0.7009
  411MOL0     C55392   5.638   4.849   6.455  0.9618  0.7370 -0.4197
  411MOL0     C55393   5.534   4.952   6.411 -0.0757 -0.0111 -0.1710
  411MOL0     C55394   5.496   4.943   6.263  0.2244  0.0023  0.1606
  411MOL0    Cl55395   5.637   4.985   6.142  0.6093  0.5123  0.2783
  411MOL0     C55396   6.220   4.807   7.017 -0.1968  0.8933  0.0468
  411MOL0     C55397   6.329   4.766   7.103  1.1101 -0.6685 -0.5371
  411MOL0     O55398   6.506   4.868   7.303  0.1725  0.1156  0.3480
  411MOL0     C55399   6.617   4.572   7.469  0.3741 -0.4580 -0.1298
  411MOL0     C55400   6.713   4.512   7.535 -0.8981 -0.0582 -0.6962
  411MOL0     N55401   6.987   4.754   8.191  0.5329  0.3329  0.8053
  411MOL0     N55402   7.074   4.845   8.191 -0.3897 -1.4624  0.2607
  411MOL0     C55403   8.161   5.071   8.618  0.0322  0.2540  0.1201
  411MOL0     C55404   8.298   5.063   8.624  0.0400 -0.4318 -1.4045
  411MOL0     C55405   8.719   5.115   8.668 -0.5269 -0.9852  0.7647
  411MOL0     C55406   8.779   5.140   8.542 -0.1162 -0.4123 -0.0661
  411MOL0     C55407   8.913   5.112   8.506 -0.1249  0.6317 -0.4806
  411MOL0     C55408   8.991   5.065   8.612 -0.2772  0.0721  0.2507
  411MOL0     O55409   9.119   5.030   8.586 -0.1232 -0.0241  0.0571
  411MOL0     C55410   9.193   4.930   8.658  0.2686 -0.1900 -0.0067
  411MOL0     C55411   9.137   4.790   8.656 -0.0256  0.0107  0.8753
  411MOL0     C55412   9.121   4.741   8.508  0.3624 -0.1358  0.1269
  411MOL0     C55413   9.081   4.598   8.492  0.0375 -0.4037  0.1625
  411MOL0     C55414   9.172   4.499   8.560 -0.0430 -0.1945  0.0984
  411MOL0     C55415   9.254   4.418   8.597  0.6483 -0.1733 -0.4503
  411MOL0     C55416   8.934   5.037   8.737  0.4674  0.5659 -0.0394
  411MOL0     C55417   8.802   5.060   8.764  0.1495 -0.2148 -0.0984
  411MOL0     H55418   8.362   5.389   8.542  2.2618 -1.6582  0.3979
  411MOL0     H55419   8.106   5.406   8.569 -1.6915 -1.1813 -1.2218
  411MOL0     H55420   7.920   5.036   8.497  2.3073  1.3186 -0.4350
  411MOL0     H55421   7.893   5.031   8.673 -1.5900  1.2694  1.2514
  411MOL0     H55422   7.716   5.204   8.646 -4.7212 -0.2367 -0.8945
  411MOL0     H55423   7.747   5.213   8.466 -0.5743 -2.0452 -2.0662
  411MOL0     H55424   7.678   4.936   8.581  1.1962  0.3424 -0.0579
  411MOL0     H55425   7.552   5.037   8.558 -1.9053 -3.4372 -5.5586
  411MOL0     H55426   7.601   5.085   8.330  0.7891  0.6781  0.7959
  411MOL0     H55427   7.743   4.992   8.330 -0.8923  2.0652 -2.0417
  411MOL0     H55428   7.579   4.779   8.385 -1.0894 -1.1005 -0.8561
  411MOL0     H55429   7.446   4.889   8.376 -1.1291 -0.4845 -3.3692
  411MOL0     H55430   7.566   4.965   8.145  2.2985 -0.8036 -0.7816
  411MOL0     H55431   7.663   4.827   8.165 -1.0475 -1.8634 -0.7349
  411MOL0     H55432   7.470   4.756   8.045  0.2201  0.0591  0.5764
  411MOL0     H55433   7.415   4.695   8.199  0.0349 -1.6567 -2.9876
  411MOL0     H55434   7.331   4.931   8.024 -0.3471  2.6578  2.0790
  411MOL0     H55435   7.319   4.960   8.199 -1.0779  2.3007 -1.2521
  411MOL0     H55436   7.225   4.644   7.993 -0.4779 -0.0430 -1.1446
  411MOL0     H55437   6.999   4.439   8.099 -1.8248 -0.4644  0.2906
  411MOL0     H55438   6.851   4.532   8.125  0.0569  2.7773  1.1031
  411MOL0     H55439   6.889   4.626   7.891 -0.2403  1.1889  0.7890
  411MOL0     H55440   6.797   4.486   7.942 -1.6426  2.3779  2.4327
  411MOL0     H55441   7.005   4.344   7.891  0.2295 -2.1231 -3.6895
  411MOL0     H55442   7.097   4.483   7.830  0.5566 -0.1303  1.6691
  411MOL0     H55443   6.836   4.381   7.726  0.7782 -1.5424 -0.6439
  411MOL0     H55444   6.996   4.343   7.661  2.7052  1.2602  0.7906
  411MOL0     H55445   6.917   4.782   7.562  0.3533 -0.6992  1.2186
  411MOL0     H55446   6.738   4.969   7.382 -1.8001 -1.2911 -0.4876
  411MOL0     H55447   6.615   4.978   7.510 -0.1629  1.3001 -1.8913
  411MOL0     H55448   6.785   4.975   7.555 -2.4095  0.3733  2.2049
  411MOL0     H55449   6.140   4.629   7.353 -1.3585 -0.4555 -0.3399
  411MOL0     H55450   5.969   4.653   7.186  0.1280 -1.7378 -1.3902
  411MOL0     H55451   6.070   4.998   6.920  2.4965 -2.5476  1.5835
  411MOL0     H55452   6.020   4.898   6.777  2.0176 -3.4851  0.4739
  411MOL0     H55453   5.836   5.017   6.992  0.0564 -1.3806  0.9244
  411MOL0     H55454   5.865   5.082   6.818 -2.5656 -1.0928 -1.1544
  411MOL0     H55455   5.648   4.939   6.875  0.2751  1.3170 -1.3132
  411MOL0     H55456   5.764   4.806   6.856  0.5744 -0.8465 -0.4564
  411MOL0     H55457   5.699   5.023   6.644 -0.8858 -0.8410  2.5530
  411MOL0     H55458   5.841   4.911   6.635 -0.7304 -3.0600 -3.7366
  411MOL0     H55459   5.554   4.812   6.638 -0.0578 -0.4716 -0.8119
  411MOL0     H55460   5.706   4.723   6.618 -2.8158 -2.1878  0.5737
  411MOL0     H55461   5.735   4.871   6.410 -0.1197  0.1221 -3.2663
  411MOL0     H55462   5.607   4.754   6.410  0.1997  0.4337  0.6955
  411MOL0     H55463   5.564   5.050   6.450 -2.2176  0.1575  1.2190
  411MOL0     H55464   5.445   4.920   6.467  0.1914 -0.0082  0.2616
  411MOL0     H55465   5.411   5.010   6.248 -0.5976 -1.6523 -4.3159
  411MOL0     H55466   5.462   4.843   6.232 -2.1495  0.7617  0.1720
  411MOL0     H55467   6.241   4.829   6.913  1.0781 -1.1749 -0.2059
  411MOL0     H55468   6.433   4.789   7.079  1.5127 -1.5659  0.3018
  411MOL0     H55469   6.530   4.508   7.453 -0.2620  0.6460 -1.2786
  411MOL0     H55470   6.711   4.406   7.561  1.0796  0.4792  1.9970
  411MOL0     H55471   8.096   4.984   8.631 -0.8106  0.4890 -2.0126
  411MOL0     H55472   8.352   4.972   8.647  0.8297 -0.2759 -2.5493
  411MOL0     H55473   8.720   5.183   8.462 -0.4931 -0.8017  0.0040
  411MOL0     H55474   8.960   5.124   8.409  0.8539 -0.7016 -0.2060
  411MOL0     H55475   9.286   4.918   8.600  0.4626  0.5845  0.1252
  411MOL0     H55476   9.214   4.965   8.759 -0.7145  2.1664 -0.5296
  411MOL0     H55477   9.041   4.795   8.709 -1.5688 -1.1604 -1.6655
  411MOL0     H55478   9.206   4.723   8.707  0.7627 -2.3456 -2.9624
  411MOL0     H55479   9.211   4.762   8.449  0.9834 -2.5605  0.0844
  411MOL0     H55480   9.037   4.791   8.459  0.1193 -1.8964 -1.3672
  411MOL0     H55481   9.065   4.576   8.386  0.9389 -0.3633  0.0099
  411MOL0     H55482   8.987   4.584   8.545  0.6743 -2.2413  0.9158
  411MOL0     H55483   9.327   4.347   8.630  0.0269 -0.6692 -0.1310
  411MOL0     H55484   8.992   4.991   8.817  0.2867  0.3753 -0.0170
  411MOL0     H55485   8.770   5.037   8.865  1.6331  1.3826  0.8012
  412MOL0     O55486   7.864   1.198   8.093  0.3084  0.2453 -0.2548
  412MOL0     C55487   7.950   1.245   8.019 -1.1765  0.4979  0.1187
  412MOL0     O55488   7.921   1.325   7.902 -0.2187  0.4822 -0.7241
  412MOL0     C55489   7.785   1.329   7.882  0.1599 -1.2285 -0.1097
  412MOL0     C55490   7.715   1.212   7.839 -0.8372 -0.0077  0.1596
  412MOL0     C55491   7.582   1.210   7.821 -0.0638 -0.4065  0.0616
  412MOL0     C55492   7.499   1.321   7.854 -0.3752 -0.4508  0.5927
  412MOL0     O55493   7.372   1.284   7.831  0.6873 -0.3240  0.1554
  412MOL0     C55494   7.283   1.399   7.846  0.2078 -0.8264 -0.3240
  412MOL0     C55495   7.151   1.348   7.786  0.9119  0.3886 -0.5148
  412MOL0     C55496   7.049   1.298   7.892  0.3309  0.7461  0.3483
  412MOL0     C55497   7.116   1.199   7.994  0.2876  0.4306 -0.8681
  412MOL0     C55498   7.015   1.161   8.110 -0.9368  0.8917 -0.3679
  412MOL0     C55499   7.075   1.064   8.218 -0.3473  0.1585  0.5152
  412MOL0     C55500   7.091   0.910   8.187  0.0064 -0.5493  0.6714
  412MOL0     C55501   7.140   0.848   8.318 -0.5048  1.0520 -0.3334
  412MOL0     N55502   7.034   0.806   8.408  0.0778  0.0916 -0.5213
  412MOL0     C55503   6.903   0.855   8.420 -0.1643 -0.4576 -0.1477
  412MOL0     C55504   6.831   0.774   8.498  0.0329 -0.4514 -0.0960
  412MOL0     C55505   6.690   0.810   8.548  0.1881 -0.1999 -0.5742
  412MOL0     C55506   6.692   0.908   8.671 -0.1008  0.4552 -0.1375
  412MOL0     C55507   6.785   0.864   8.792  0.0594 -0.0151  0.5612
  412MOL0     C55508   6.756   0.714   8.821 -0.8799 -0.0967 -0.2529
  412MOL0     O55509   6.772   0.670   8.955  0.0184  0.3846  0.1666
  412MOL0     C55510   6.861   0.572   8.959 -0.2357  1.2391  0.6571
  412MOL0     C55511   6.834   0.436   8.942  0.1647  0.1169 -0.3189
  412MOL0     C55512   6.932   0.334   8.962 -0.1649 -0.2706 -0.1565
  412MOL0     C55513   6.882   0.190   8.943 -0.1156 -0.6834  0.4361
  412MOL0     C55514   7.057   0.369   9.002 -0.9980  0.3109 -0.1466
  412MOL0     C55515   7.171   0.275   9.036 -0.4994 -0.9788 -0.1358
  412MOL0     O55516   7.296   0.329   9.064 -0.3426 -0.5813 -0.5114
  412MOL0     C55517   7.387   0.278   9.159  0.0381  1.3384  0.5615
  412MOL0     C55518   7.357   0.199   9.267  0.2192 -0.7168 -0.4381
  412MOL0     C55519   7.448   0.164   9.361 -0.5430  0.3869  0.0814
  412MOL0     C55520   7.584   0.178   9.334  0.6919  0.2109 -0.2605
  412MOL0     O55521   7.672   0.134   9.434 -0.4879  0.3185 -0.1601
  412MOL0     C55522   7.812   0.136   9.415 -0.4194  0.7362  1.0519
  412MOL0     C55523   7.894   0.054   9.517  0.3237 -0.4311  0.5345
  412MOL0     C55524   7.853   0.087   9.661 -0.2417 -0.4116  0.6396
  412MOL0     C55525   7.937   0.021   9.761 -0.4671  1.1001  0.5893
  412MOL0     C55526   7.945   0.086   9.894  0.7311  0.3139  0.7773
  412MOL0     C55527   7.807   0.120   9.960  0.3399 -0.1159 -0.0487
  412MOL0     C55528   7.818   0.164  10.104 -0.3201  0.5566  0.2255
  412MOL0     C55529   7.683   0.170  10.177  0.0360 -0.6428  0.3034
  412MOL0    Cl55530   7.724   0.202  10.353  0.0786 -0.0275 -0.0822
  412MOL0     C55531   7.621   0.249   9.218 -0.2347 -0.4723 -0.3878
  412MOL0     C55532   7.529   0.306   9.135 -0.4472  0.4070 -0.2233
  412MOL0     O55533   7.139   0.157   9.065 -1.4970 -0.0945  0.0033
  412MOL0     C55534   7.084   0.505   9.008  0.3464  0.0365  0.5417
  412MOL0     C55535   6.989   0.608   8.995  0.5329 -0.2626  0.1676
  412MOL0     N55536   6.928   0.678   8.540  0.3544 -0.7317 -0.0738
  412MOL0     N55537   7.045   0.699   8.488  0.1787  0.4281 -0.4758
  412MOL0     C55538   7.563   1.440   7.894  0.6719  0.1048  0.0686
  412MOL0     C55539   7.706   1.445   7.904  0.5198  0.0221  0.0682
  412MOL0     C55540   8.093   1.214   8.055  0.9723 -0.3819 -0.2428
  412MOL0     C55541   8.196   1.265   7.972 -0.0361  0.1920  0.7427
  412MOL0     C55542   8.336   1.238   8.007  0.0664 -0.4697  0.0062
  412MOL0     C55543   8.372   1.172   8.126  0.3671 -0.0565  0.5320
  412MOL0     O55544   8.503   1.132   8.136 -0.0542  0.0461 -0.1108
  412MOL0     C55545   8.518   0.994   8.121 -0.0931  0.4703 -0.1107
  412MOL0     C55546   8.659   0.946   8.090 -0.0199 -0.4488  1.0150
  412MOL0     C55547   8.666   0.795   8.060  0.4797 -0.8919 -0.1791
  412MOL0     C55548   8.805   0.735   8.084 -0.5905 -0.6753 -0.0932
  412MOL0     C55549   8.914   0.823   8.040 -0.1589 -0.5492  0.0837
  412MOL0     C55550   9.008   0.895   8.012 -0.4952 -0.8120 -0.5358
  412MOL0     C55551   8.269   1.126   8.204 -0.2292 -0.1156 -0.0508
  412MOL0     C55552   8.132   1.146   8.176  0.9673 -0.4570  0.0980
  412MOL0     H55553   7.780   1.125   7.825  0.6712  0.6747  2.3345
  412MOL0     H55554   7.531   1.122   7.782  0.1258 -1.1414  1.3760
  412MOL0     H55555   7.277   1.427   7.952  0.6501 -1.4360 -0.1320
  412MOL0     H55556   7.311   1.488   7.788  1.1804 -0.7170  0.2850
  412MOL0     H55557   7.095   1.423   7.729  0.3332  1.6234  1.5711
  412MOL0     H55558   7.157   1.271   7.708 -2.7423  2.0981 -2.8007
  412MOL0     H55559   7.002   1.384   7.941  0.3195 -0.1732  2.0008
  412MOL0     H55560   6.973   1.240   7.839  0.4853  1.2486 -0.4466
  412MOL0     H55561   7.159   1.116   7.936 -0.1393 -0.9941  0.7872
  412MOL0     H55562   7.199   1.249   8.044 -1.4885  0.1780  2.5733
  412MOL0     H55563   6.977   1.252   8.158 -1.2817  0.5368  0.0413
  412MOL0     H55564   6.932   1.110   8.061  0.7212 -1.7339 -0.6540
  412MOL0     H55565   7.174   1.103   8.243 -0.4672 -0.3713  1.9321
  412MOL0     H55566   7.006   1.076   8.303 -1.5666  1.9527 -0.6693
  412MOL0     H55567   6.996   0.863   8.160  0.0600  0.8302 -2.3481
  412MOL0     H55568   7.157   0.899   8.100 -3.4018 -1.8250 -2.0086
  412MOL0     H55569   7.204   0.919   8.372 -0.9539  0.7534  0.6126
  412MOL0     H55570   7.210   0.767   8.297 -0.5135  0.9998 -0.1637
  412MOL0     H55571   6.869   0.937   8.357 -2.8896 -0.6929  0.9214
  412MOL0     H55572   6.612   0.854   8.485 -2.3462 -1.8996  1.1646
  412MOL0     H55573   6.649   0.714   8.582  1.3108 -1.7040 -3.1904
  412MOL0     H55574   6.590   0.901   8.709 -0.6817 -0.6188 -1.8163
  412MOL0     H55575   6.704   1.014   8.648 -0.0260  0.5671  0.4007
  412MOL0     H55576   6.757   0.925   8.878  1.9378  0.7784  0.6650
  412MOL0     H55577   6.889   0.885   8.764 -0.9679  3.1911 -1.3921
  412MOL0     H55578   6.778   0.641   8.743 -0.2647 -0.7371  0.5011
  412MOL0     H55579   6.649   0.696   8.820 -0.6431 -1.5977 -0.0510
  412MOL0     H55580   6.734   0.409   8.911  0.2247 -0.7480  0.2073
  412MOL0     H55581   6.959   0.130   8.894 -0.6507 -1.6674  0.7776
  412MOL0     H55582   6.872   0.135   9.037  3.4012 -2.8633 -0.2858
  412MOL0     H55583   6.789   0.191   8.886  0.3602 -2.2077 -0.3939
  412MOL0     H55584   7.251   0.184   9.288  0.4638  0.0219  1.5335
  412MOL0     H55585   7.422   0.122   9.457 -4.3472  2.0295 -0.0469
  412MOL0     H55586   7.844   0.107   9.314 -3.1498  1.3259 -0.0840
  412MOL0     H55587   7.842   0.241   9.422 -0.3680  1.0308 -1.9629
  412MOL0     H55588   7.878  -0.053   9.504  3.9620 -1.3650  2.3232
  412MOL0     H55589   7.999   0.073   9.492  0.6460  0.5550  2.4099
  412MOL0     H55590   7.749   0.052   9.664 -0.0811 -0.8148  2.4569
  412MOL0     H55591   7.856   0.195   9.676  0.0959 -0.5478  1.5911
  412MOL0     H55592   7.886  -0.073   9.784 -2.4127  2.4382  2.1207
  412MOL0     H55593   8.034   0.011   9.712  0.3556  1.6639  2.0278
  412MOL0     H55594   7.998   0.181   9.877  1.5600 -0.1063  0.9908
  412MOL0     H55595   7.988   0.018   9.968  0.8689 -0.1598  0.2653
  412MOL0     H55596   7.760   0.209   9.916  0.2639 -1.1825 -2.2834
  412MOL0     H55597   7.747   0.030   9.946  5.2642 -3.4284 -2.8490
  412MOL0     H55598   7.872   0.259  10.106  0.8091  0.0172 -2.0662
  412MOL0     H55599   7.883   0.096  10.161 -2.4199 -1.0700  0.8026
  412MOL0     H55600   7.634   0.072  10.182 -0.7070 -0.2757  0.2898
  412MOL0     H55601   7.628   0.253  10.133 -0.6384 -0.1081  2.1102
  412MOL0     H55602   7.727   0.257   9.196  0.0322 -1.1033  0.5591
  412MOL0     H55603   7.565   0.361   9.049  2.3081 -2.9317 -1.4303
  412MOL0     H55604   7.186   0.532   9.034  0.1847 -1.7747  3.5428
  412MOL0     H55605   7.014   0.713   9.005 -2.5076  0.4977  0.8560
  412MOL0     H55606   7.508   1.532   7.912 -0.4478  0.0237 -2.6247
  412MOL0     H55607   7.752   1.537   7.939 -1.8086 -0.0542  3.9913
  412MOL0     H55608   8.171   1.322   7.883  1.2271  0.6192  0.6328
  412MOL0     H55609   8.405   1.277   7.933  1.0339 -0.4994  0.8735
  412MOL0     H55610   8.476   0.936   8.204  0.8100  0.1714  0.1531
  412MOL0     H55611   8.451   0.955   8.044 -2.1529 -2.0992  2.7536
  412MOL0     H55612   8.722   0.971   8.176  1.9154  0.4517 -0.5885
  412MOL0     H55613   8.700   1.007   8.009  2.1178  1.7330  3.5256
  412MOL0     H55614   8.621   0.780   7.961 -2.6737  2.9938  0.3878
  412MOL0     H55615   8.593   0.739   8.119 -1.1823  0.4429 -0.8805
  412MOL0     H55616   8.806   0.642   8.026 -0.9071  0.3313 -1.7945
  412MOL0     H55617   8.828   0.714   8.188  0.3666 -0.3639 -0.2346
  412MOL0     H55618   9.100   0.945   7.992 -0.6615 -1.4730 -3.3579
  412MOL0     H55619   8.302   1.074   8.294 -2.0601 -1.6157 -0.1738
  412MOL0     H55620   8.060   1.102   8.244  1.0188 -0.0610  0.4135
  413MOL0     O55621   6.321  10.654   0.336 -0.2256  0.9042  0.8133
  413MOL0     C55622   6.315  10.591   0.229 -0.4100  0.1650 -0.7110
  413MOL0     O55623   6.352  10.460   0.213  0.5263 -0.3859 -0.2444
  413MOL0     C55624   6.415  10.401   0.321  0.5098  0.1266  0.6866
  413MOL0     C55625   6.340  10.329   0.412 -0.3722  0.5334 -0.6462
  413MOL0     C55626   6.400  10.241   0.505  0.0727  0.0748  0.1440
  413MOL0     C55627   6.539  10.251   0.519 -0.4139 -0.4200 -0.7513
  413MOL0     O55628   6.613  10.170   0.607  0.2717 -0.8273 -0.1097
  413MOL0     C55629   6.556  10.133   0.731 -0.3431 -0.3465  0.3152
  413MOL0     C55630   6.651  10.043   0.822  0.1734 -0.5695  0.5754
  413MOL0     C55631   6.786  10.110   0.832  0.3636 -0.7823 -0.4933
  413MOL0     C55632   6.862  10.062   0.948 -0.8375  0.3889 -0.3252
  413MOL0     C55633   7.017  10.066   0.934 -0.6780 -0.1196 -0.6501
  413MOL0     C55634   7.069   9.928   0.892  0.0675  1.0108  0.3133
  413MOL0     C55635   7.225   9.928   0.893 -1.1521  0.8197 -0.1590
  413MOL0     C55636   7.282   9.926   1.033 -0.1680 -0.5800 -1.1585
  413MOL0     N55637   7.423   9.898   1.023 -0.2449 -1.0216  0.3472
  413MOL0     C55638   7.487   9.785   0.992 -0.1477 -0.2959  0.1479
  413MOL0     C55639   7.622   9.812   1.003 -1.0468 -0.5827 -1.0469
  413MOL0     C55640   7.740   9.734   0.953  0.0949 -0.3187  0.7547
  413MOL0     C55641   7.717   9.583   0.972  0.1871 -0.0706 -0.1243
  413MOL0     C55642   7.734   9.553   1.121  0.0281 -0.2002  0.4062
  413MOL0     C55643   7.609   9.576   1.205  0.4416  0.5739  0.3681
  413MOL0     O55644   7.501   9.494   1.145 -0.9133  0.0795 -0.1731
  413MOL0     C55645   7.369   9.505   1.190  0.3929  0.2511 -0.8822
  413MOL0     C55646   7.271   9.468   1.101 -1.5752 -0.4701  0.5809
  413MOL0     C55647   7.136   9.479   1.135 -0.0387  0.4281  0.7695
  413MOL0     C55648   7.037   9.428   1.028  0.2204  0.0540 -0.2137
  413MOL0     C55649   7.099   9.539   1.254  0.2486 -0.5097  1.0135
  413MOL0     C55650   6.960   9.555   1.300  0.3123  0.7432  0.2478
  413MOL0     O55651   6.864   9.518   1.219  0.5855 -0.2070 -0.1459
  413MOL0     C55652   6.746   9.602   1.212 -0.0847  0.3027 -0.5049
  413MOL0     C55653   6.760   9.739   1.195 -0.0428 -0.1198 -0.5219
  413MOL0     C55654   6.644   9.825   1.201 -0.5714  0.6206 -0.2164
  413MOL0     C55655   6.522   9.769   1.257  0.1754 -0.3060 -0.2303
  413MOL0     O55656   6.407   9.841   1.283 -0.0806  0.5099 -0.8033
  413MOL0     C55657   6.414   9.988   1.283  0.7214 -0.2703  0.5566
  413MOL0     C55658   6.273  10.041   1.271  0.8512 -0.5043 -0.4827
  413MOL0     C55659   6.179  10.018   1.388  0.5437  0.6420  0.4249
  413MOL0     C55660   6.205  10.099   1.516 -0.1107 -0.5030 -0.1940
  413MOL0     C55661   6.138  10.038   1.639  0.3098 -0.0634 -0.8332
  413MOL0     C55662   6.001   9.973   1.622 -0.3499  0.8768 -0.7088
  413MOL0     C55663   5.933   9.972   1.746  0.2699 -0.2527 -0.1778
  413MOL0     C55664   5.785   9.919   1.728  0.3795 -0.7814 -0.2824
  413MOL0    Cl55665   5.672  10.060   1.731  0.0605  0.1024  0.2213
  413MOL0     C55666   6.516   9.632   1.273 -0.2875 -0.0442 -0.2824
  413MOL0     C55667   6.626   9.549   1.249  0.8692 -0.0841 -0.4044
  413MOL0     O55668   6.946   9.617   1.402 -0.1999  0.0486  0.4273
  413MOL0     C55669   7.199   9.591   1.341  0.6844  0.4008  0.0090
  413MOL0     C55670   7.332   9.575   1.306  0.1112  0.3292 -0.1677
  413MOL0     N55671   7.637   9.939   1.046  0.3836  0.0484  0.3327
  413MOL0     N55672   7.520   9.990   1.049 -0.0785  0.3002  0.2803
  413MOL0     C55673   6.615  10.334   0.441 -0.0355  0.1753 -0.3323
  413MOL0     C55674   6.553  10.402   0.334 -0.3458 -0.2970  0.2982
  413MOL0     C55675   6.246  10.646   0.112  0.5507 -0.5284 -0.3752
  413MOL0     C55676   6.266  10.780   0.073  0.0147 -0.0657  0.7669
  413MOL0     C55677   6.209  10.829  -0.049  0.0691  0.1038  0.9757
  413MOL0     C55678   6.132  10.749  -0.129  0.3211  0.0220 -0.3589
  413MOL0     O55679   6.079  10.790  -0.249 -0.1471 -0.3388  0.2176
  413MOL0     C55680   5.933  10.786  -0.263 -0.4215 -0.3486 -0.9221
  413MOL0     C55681   5.871  10.890  -0.349 -0.4470 -0.3474 -0.8075
  413MOL0     C55682   5.715  10.889  -0.352 -0.4643 -0.0590 -0.7650
  413MOL0     C55683   5.649  10.995  -0.444 -0.1476  0.0252 -0.2420
  413MOL0     C55684   5.506  10.983  -0.455 -0.5207  0.2885  0.1028
  413MOL0     C55685   5.387  10.978  -0.488  0.0614  0.3526 -0.8606
  413MOL0     C55686   6.108  10.618  -0.082 -0.2823  0.4331 -0.4387
  413MOL0     C55687   6.166  10.563   0.032  0.5262  0.9080  0.8757
  413MOL0     H55688   6.231  10.327   0.412 -0.4349 -0.5344  1.8728
  413MOL0     H55689   6.347  10.183   0.580  1.1023 -1.3238 -0.1812
  413MOL0     H55690   6.541  10.230   0.780 -2.1054 -0.0673 -0.7169
  413MOL0     H55691   6.457  10.089   0.721 -0.1801 -1.1780  1.9128
  413MOL0     H55692   6.610  10.037   0.923  0.3222  3.0909  1.0102
  413MOL0     H55693   6.665   9.947   0.773 -0.8839 -1.4659  1.9592
  413MOL0     H55694   6.848  10.066   0.753  0.1611 -0.0109 -1.0905
  413MOL0     H55695   6.787  10.219   0.823 -1.1558 -0.1286  4.1845
  413MOL0     H55696   6.852  10.127   1.035  0.2079 -0.5986  0.5779
  413MOL0     H55697   6.839   9.963   0.989 -1.9237  1.3253  1.4558
  413MOL0     H55698   7.035  10.145   0.862  1.3587  2.6360  2.5885
  413MOL0     H55699   7.055  10.097   1.032 -1.8346  1.3417 -0.6300
  413MOL0     H55700   7.026   9.855   0.962 -3.3064  0.7166 -1.8647
  413MOL0     H55701   7.031   9.902   0.793  1.0497 -0.9631  0.4093
  413MOL0     H55702   7.259   9.839   0.839  0.5930  0.8540  0.7847
  413MOL0     H55703   7.268  10.014   0.841  1.3371 -0.0499  0.3240
  413MOL0     H55704   7.231   9.869   1.111 -0.5488 -0.7808 -1.5516
  413MOL0     H55705   7.277  10.028   1.072  2.3547  0.1103 -2.4119
  413MOL0     H55706   7.438   9.691   0.968 -1.9379  0.3428  1.0940
  413MOL0     H55707   7.747   9.764   0.848 -0.7033  1.1296  1.0987
  413MOL0     H55708   7.833   9.754   1.005 -0.6476  0.3179  1.8638
  413MOL0     H55709   7.801   9.528   0.929  0.8990 -0.1979  1.3624
  413MOL0     H55710   7.621   9.550   0.933  0.4979  1.6005 -2.5127
  413MOL0     H55711   7.812   9.620   1.158 -0.9833  0.0377  2.1655
  413MOL0     H55712   7.774   9.452   1.136  0.9928 -0.0711 -1.0367
  413MOL0     H55713   7.585   9.682   1.220 -0.0386  0.1883  2.8807
  413MOL0     H55714   7.629   9.534   1.304  1.1719 -2.6225 -1.0240
  413MOL0     H55715   7.294   9.413   1.011 -2.9121  0.1809 -0.1889
  413MOL0     H55716   7.093   9.382   0.945 -0.0388  0.8219 -0.8274
  413MOL0     H55717   6.968   9.354   1.069 -0.6166  1.6144  1.2777
  413MOL0     H55718   6.980   9.509   0.983  0.8112 -0.4882 -2.0442
  413MOL0     H55719   6.856   9.787   1.177 -1.3977  2.7674 -0.7320
  413MOL0     H55720   6.670   9.929   1.181  1.1446  1.0097  3.2287
  413MOL0     H55721   6.472  10.033   1.364  1.6026  0.7230 -0.5974
  413MOL0     H55722   6.461  10.011   1.187  2.9767  2.4142  2.1479
  413MOL0     H55723   6.283  10.149   1.269  3.2293 -0.6838 -0.2620
  413MOL0     H55724   6.229  10.014   1.174 -0.8428 -1.3750  0.4787
  413MOL0     H55725   6.188   9.912   1.415 -0.9472  0.9943  2.5769
  413MOL0     H55726   6.075  10.034   1.358  0.2034  0.6957  1.5924
  413MOL0     H55727   6.313  10.105   1.532 -0.1229  2.4079 -0.6698
  413MOL0     H55728   6.169  10.202   1.506  0.6692 -0.2689 -0.6764
  413MOL0     H55729   6.132  10.117   1.714  0.4486  0.2414 -1.1412
  413MOL0     H55730   6.207   9.963   1.677  2.1300 -1.1003 -5.5060
  413MOL0     H55731   5.949  10.022   1.539  1.2772  0.0106 -2.2926
  413MOL0     H55732   6.020   9.868   1.596  0.8311  1.1609 -1.0362
  413MOL0     H55733   5.926  10.069   1.796 -2.0620  0.4206 -1.6717
  413MOL0     H55734   5.976   9.908   1.824 -0.9059 -0.6805  0.1432
  413MOL0     H55735   5.741   9.857   1.807 -1.5120  0.7080 -0.0984
  413MOL0     H55736   5.777   9.854   1.641 -0.1504 -2.1552  0.7663
  413MOL0     H55737   6.416   9.600   1.299 -0.1132 -1.4017 -1.2355
  413MOL0     H55738   6.604   9.444   1.268 -0.0492  0.2242  0.3233
  413MOL0     H55739   7.178   9.639   1.436  0.2916  3.2769 -1.4199
  413MOL0     H55740   7.404   9.619   1.373  1.2977 -3.7999  1.6042
  413MOL0     H55741   6.724  10.338   0.443 -0.0537  1.9874 -0.7396
  413MOL0     H55742   6.613  10.463   0.267  1.3091 -1.4655  0.6526
  413MOL0     H55743   6.332  10.834   0.140 -1.8353 -1.1258  3.6167
  413MOL0     H55744   6.231  10.930  -0.081  0.5731  0.1609  1.4782
  413MOL0     H55745   5.894  10.690  -0.299 -0.6182 -0.3280 -0.7653
  413MOL0     H55746   5.900  10.785  -0.159  0.1724 -0.8754 -0.7320
  413MOL0     H55747   5.910  10.868  -0.448  0.4479 -0.0499 -0.5344
  413MOL0     H55748   5.892  10.989  -0.307 -1.9165 -0.3477 -0.0169
  413MOL0     H55749   5.681  10.910  -0.250  0.8134  3.2212 -0.8658
  413MOL0     H55750   5.673  10.790  -0.367 -0.1055 -0.4291  0.5363
  413MOL0     H55751   5.697  10.981  -0.541  1.3049 -0.5224  0.5274
  413MOL0     H55752   5.676  11.095  -0.408  2.7268 -0.6990 -0.1392
  413MOL0     H55753   5.288  10.989  -0.527  0.2328 -0.8656 -1.7243
  413MOL0     H55754   6.048  10.551  -0.142  0.4936 -0.3629 -0.3449
  413MOL0     H55755   6.142  10.465   0.072 -2.1217  1.4141  0.7263
  414MOL0     O55756   0.416   0.175   3.929  0.0821  1.0962  0.9634
  414MOL0     C55757   0.537   0.191   3.910 -0.7792 -0.4964  0.4360
  414MOL0     O55758   0.603   0.150   3.796 -0.1344  0.6987  0.4304
  414MOL0     C55759   0.533   0.084   3.698 -0.5248  0.2146 -0.4527
  414MOL0     C55760   0.591  -0.033   3.639 -0.7091 -0.0259  0.1764
  414MOL0     C55761   0.520  -0.118   3.554 -0.8420 -0.4840 -0.0794
  414MOL0     C55762   0.392  -0.073   3.504 -0.4713  0.1163 -0.5513
  414MOL0     O55763   0.330  -0.170   3.424  0.3424 -0.4065 -0.2861
  414MOL0     C55764   0.184  -0.171   3.420 -0.1928 -0.5057 -0.0747
  414MOL0     C55765   0.121  -0.096   3.307  0.5396  0.8802  0.6201
  414MOL0     C55766  -0.034  -0.113   3.304  0.9349  0.6949 -0.0124
  414MOL0     C55767  -0.105  -0.062   3.177  0.6474  0.0546 -0.2071
  414MOL0     C55768  -0.252  -0.101   3.179 -0.5447 -0.6493  0.1439
  414MOL0     C55769  -0.323  -0.051   3.051  1.0970  0.7507 -0.2989
  414MOL0     C55770  -0.482  -0.057   3.072 -0.1936  0.6741  0.7974
  414MOL0     C55771  -0.544   0.070   3.130 -0.2538  0.5090 -0.0858
  414MOL0     N55772  -0.530   0.066   3.282  0.6889 -0.8273 -0.1369
  414MOL0     C55773  -0.472   0.164   3.355  0.4455  0.0701  0.2513
  414MOL0     C55774  -0.458   0.107   3.479  0.7834 -0.7841 -0.0617
  414MOL0     C55775  -0.373   0.166   3.587 -0.2687 -0.1951  0.7410
  414MOL0     C55776  -0.378   0.081   3.721 -0.5735 -0.7379  0.0384
  414MOL0     C55777  -0.324  -0.058   3.708 -0.0930 -0.5492 -0.1866
  414MOL0     C55778  -0.347  -0.139   3.837 -0.4476 -0.8194 -0.3075
  414MOL0     O55779  -0.468  -0.205   3.809 -0.8931  0.0378  0.2856
  414MOL0     C55780  -0.526  -0.272   3.913 -0.1201  0.7757  0.5824
  414MOL0     C55781  -0.482  -0.280   4.045  0.8049  0.7080  0.1330
  414MOL0     C55782  -0.573  -0.317   4.152 -0.2750  0.0571  0.3648
  414MOL0     C55783  -0.529  -0.291   4.298 -0.0527 -0.7068  0.1505
  414MOL0     C55784  -0.705  -0.358   4.117 -0.4956  0.3074 -0.1005
  414MOL0     C55785  -0.810  -0.387   4.206  0.8630  0.0727 -0.0862
  414MOL0     O55786  -0.931  -0.362   4.164  0.0143 -0.7141 -0.0238
  414MOL0     C55787  -1.037  -0.420   4.226  1.0187  1.1615 -0.6804
  414MOL0     C55788  -1.154  -0.355   4.278  0.2982  0.2555 -0.2275
  414MOL0     C55789  -1.268  -0.421   4.304  0.9398 -0.0196  0.6897
  414MOL0     C55790  -1.276  -0.563   4.311 -0.2108 -0.4643  0.5820
  414MOL0     O55791  -1.381  -0.638   4.353  0.2065  0.9140  0.2120
  414MOL0     C55792  -1.517  -0.594   4.357 -0.2868 -0.1545  0.1978
  414MOL0     C55793  -1.570  -0.643   4.483 -0.1692  0.1622 -0.0398
  414MOL0     C55794  -1.706  -0.589   4.514 -0.1222  0.1944  0.0138
  414MOL0     C55795  -1.756  -0.652   4.639 -0.5632  0.1792  1.0369
  414MOL0     C55796  -1.889  -0.590   4.687 -0.1456  0.3286  0.2480
  414MOL0     C55797  -2.011  -0.628   4.602  1.6782  1.0144 -0.0438
  414MOL0     C55798  -2.145  -0.580   4.658 -0.4805  1.0692  0.6985
  414MOL0     C55799  -2.263  -0.612   4.575  0.5289 -0.0684  0.1069
  414MOL0    Cl55800  -2.265  -0.780   4.498  0.0450  0.0068  0.3357
  414MOL0     C55801  -1.155  -0.633   4.273  0.4215 -0.3462 -0.6511
  414MOL0     C55802  -1.050  -0.556   4.227  0.7822 -0.1203 -0.1665
  414MOL0     O55803  -0.787  -0.418   4.320  0.1939 -0.4749  0.0458
  414MOL0     C55804  -0.735  -0.374   3.978  0.2382  0.3083 -1.1446
  414MOL0     C55805  -0.647  -0.324   3.883  0.4197  0.2973 -0.4991
  414MOL0     N55806  -0.516  -0.017   3.478 -0.0076  0.3776 -0.3551
  414MOL0     N55807  -0.556  -0.041   3.362  0.4029 -0.5173  0.4317
  414MOL0     C55808   0.343   0.058   3.541 -0.0833  0.5924 -0.4394
  414MOL0     C55809   0.412   0.129   3.646 -0.0185 -0.2587  0.0654
  414MOL0     C55810   0.613   0.252   4.017  0.5236 -0.6399 -0.6701
  414MOL0     C55811   0.548   0.302   4.140  0.1796  0.4214 -0.6260
  414MOL0     C55812   0.624   0.354   4.253  0.0435  0.4899  0.5008
  414MOL0     C55813   0.761   0.371   4.235  0.1489  0.0800 -0.9237
  414MOL0     O55814   0.829   0.438   4.337  0.1549  1.3803  0.0478
  414MOL0     C55815   0.875   0.562   4.288  0.0732 -0.4354 -0.0810
  414MOL0     C55816   0.920   0.646   4.408 -1.7245  0.0369 -0.3275
  414MOL0     C55817   1.033   0.590   4.499 -0.4786 -0.9265  0.6289
  414MOL0     C55818   1.183   0.605   4.440 -0.2132 -0.0489  0.5228
  414MOL0     C55819   1.216   0.734   4.377 -1.0008 -1.3051 -0.2814
  414MOL0     C55820   1.252   0.842   4.342 -0.5835 -0.5131  0.4084
  414MOL0     C55821   0.820   0.327   4.118  0.1153 -0.0911  1.1931
  414MOL0     C55822   0.746   0.274   4.014 -0.6240  0.1780  0.1922
  414MOL0     H55823   0.685  -0.077   3.671  0.6871  0.9669 -2.3009
  414MOL0     H55824   0.564  -0.212   3.523  3.5552  1.3554 -0.1721
  414MOL0     H55825   0.149  -0.274   3.412 -1.2358 -0.0220 -2.2133
  414MOL0     H55826   0.140  -0.125   3.510 -0.0437  0.7277 -0.6108
  414MOL0     H55827   0.140   0.009   3.328 -0.8119  1.1392  0.6898
  414MOL0     H55828   0.155  -0.129   3.208 -1.6807 -0.9151  0.3634
  414MOL0     H55829  -0.051  -0.219   3.323 -1.9578  1.6883  4.5844
  414MOL0     H55830  -0.066  -0.072   3.400 -0.9596  0.0106 -0.3167
  414MOL0     H55831  -0.090   0.046   3.182  0.4740  0.2155 -2.2289
  414MOL0     H55832  -0.061  -0.106   3.087 -0.0647  0.0286 -0.5485
  414MOL0     H55833  -0.255  -0.211   3.184  0.6646 -0.8057 -1.7235
  414MOL0     H55834  -0.297  -0.062   3.271  1.3407  0.7721  0.5204
  414MOL0     H55835  -0.296   0.053   3.031  0.9107  0.7652 -0.4654
  414MOL0     H55836  -0.293  -0.108   2.963  0.5670  2.1266 -1.4083
  414MOL0     H55837  -0.537  -0.061   2.978 -2.6818 -0.6124  2.2158
  414MOL0     H55838  -0.516  -0.148   3.123 -1.8899  0.0751 -1.2653
  414MOL0     H55839  -0.648   0.084   3.101 -0.0867 -1.2257 -1.7244
  414MOL0     H55840  -0.488   0.154   3.089  1.5056 -0.2338  0.6579
  414MOL0     H55841  -0.464   0.267   3.321  0.2516  0.3403  1.0091
  414MOL0     H55842  -0.273   0.184   3.547 -1.6019  0.4479 -2.6095
  414MOL0     H55843  -0.408   0.268   3.603 -0.5528 -0.2733  0.6271
  414MOL0     H55844  -0.485   0.073   3.746 -1.8431  0.9135 -4.0085
  414MOL0     H55845  -0.323   0.141   3.793 -0.4683  0.0912 -0.7060
  414MOL0     H55846  -0.215  -0.050   3.704 -0.1720  0.2830 -1.2208
  414MOL0     H55847  -0.358  -0.110   3.618 -0.1162 -1.1961  0.1887
  414MOL0     H55848  -0.368  -0.076   3.924  0.9120 -1.1637  0.2957
  414MOL0     H55849  -0.259  -0.201   3.856  1.3779  1.9975  1.1908
  414MOL0     H55850  -0.389  -0.228   4.067  3.4802 -4.5071  2.8030
  414MOL0     H55851  -0.616  -0.257   4.355 -0.7897  1.9899 -2.3509
  414MOL0     H55852  -0.487  -0.380   4.344 -0.2650 -1.4934 -1.1221
  414MOL0     H55853  -0.461  -0.206   4.293 -3.0556  1.9096 -0.0619
  414MOL0     H55854  -1.147  -0.246   4.277  2.8175  0.1437 -1.3312
  414MOL0     H55855  -1.356  -0.365   4.335  0.4625  1.3303 -2.6847
  414MOL0     H55856  -1.531  -0.486   4.359 -1.8472 -0.2078  5.0467
  414MOL0     H55857  -1.567  -0.649   4.277  0.4649 -1.2028  0.4326
  414MOL0     H55858  -1.563  -0.752   4.475  2.6790  0.3642 -1.7884
  414MOL0     H55859  -1.509  -0.617   4.570 -0.1868  1.6481 -0.4528
  414MOL0     H55860  -1.768  -0.616   4.428 -0.1808 -0.9609  0.4042
  414MOL0     H55861  -1.708  -0.481   4.529 -1.1202  0.3548 -1.0648
  414MOL0     H55862  -1.766  -0.761   4.632 -0.6100  0.2897 -1.2530
  414MOL0     H55863  -1.688  -0.629   4.721  1.2408  0.5607 -0.5152
  414MOL0     H55864  -1.883  -0.482   4.699 -2.0728  0.3473  1.3269
  414MOL0     H55865  -1.917  -0.628   4.786 -1.0596  0.8830  0.2091
  414MOL0     H55866  -1.987  -0.589   4.502  2.6666 -1.4315 -0.8295
  414MOL0     H55867  -2.008  -0.737   4.612 -0.6185  1.0526  1.9685
  414MOL0     H55868  -2.150  -0.472   4.675  0.7140  1.3987 -0.8319
  414MOL0     H55869  -2.158  -0.630   4.755  0.7711  0.2686  0.4749
  414MOL0     H55870  -2.289  -0.532   4.504 -1.8247  1.0307  2.0555
  414MOL0     H55871  -2.350  -0.612   4.641  0.7753 -3.2062  0.5616
  414MOL0     H55872  -1.174  -0.738   4.287 -1.8836 -0.2913 -2.6587
  414MOL0     H55873  -0.959  -0.603   4.191  1.5993  3.9816 -4.3639
  414MOL0     H55874  -0.831  -0.409   3.940 -0.1095 -1.6191  1.2579
  414MOL0     H55875  -0.681  -0.315   3.780  2.2758 -1.7076 -1.3645
  414MOL0     H55876   0.243   0.086   3.509 -0.3183  0.2308 -0.0353
  414MOL0     H55877   0.352   0.205   3.694 -3.4546 -3.7737  1.9380
  414MOL0     H55878   0.442   0.290   4.160  0.6302 -2.9656  0.4713
  414MOL0     H55879   0.579   0.389   4.346  2.1436  0.6300  1.5126
  414MOL0     H55880   0.961   0.548   4.222 -0.4211  2.6087 -1.5396
  414MOL0     H55881   0.797   0.609   4.228  0.0161  2.1115  1.8243
  414MOL0     H55882   0.835   0.647   4.477  1.0068 -3.1638  3.5494
  414MOL0     H55883   0.952   0.745   4.377 -2.5493 -0.3056 -2.4041
  414MOL0     H55884   1.017   0.484   4.518  0.3128 -0.8808  1.6582
  414MOL0     H55885   1.016   0.646   4.591 -0.3901 -1.1423  0.7777
  414MOL0     H55886   1.196   0.525   4.367  3.9192 -0.6292  1.6231
  414MOL0     H55887   1.258   0.586   4.518  1.2743 -0.7134 -0.9974
  414MOL0     H55888   1.270   0.938   4.300 -1.8537 -0.9462 -1.2264
  414MOL0     H55889   0.929   0.329   4.111  0.2022 -2.6762  0.8430
  414MOL0     H55890   0.796   0.245   3.922 -0.9304 -0.5903  0.2603
  415MOL0     O55891   4.271   8.117   6.902  0.1386  0.2741 -0.3722
  415MOL0     C55892   4.349   8.196   6.860 -0.3728  0.7754  0.2850
  415MOL0     O55893   4.429   8.172   6.753 -0.2842 -0.6987  0.5094
  415MOL0     C55894   4.463   8.043   6.713  0.0337  0.0100  0.0617
  415MOL0     C55895   4.451   7.924   6.777  0.1676 -0.3828 -0.5488
  415MOL0     C55896   4.479   7.794   6.724  0.8277  0.1228 -0.3214
  415MOL0     C55897   4.533   7.783   6.601  0.5334  0.1067  0.9378
  415MOL0     O55898   4.562   7.669   6.542 -0.5601  0.0173  0.6093
  415MOL0     C55899   4.560   7.542   6.613 -1.0868 -0.3661  0.6570
  415MOL0     C55900   4.563   7.434   6.503  0.4920 -0.1116  1.1950
  415MOL0     C55901   4.634   7.299   6.553  0.1508 -1.0988  0.2778
  415MOL0     C55902   4.567   7.235   6.678  0.4772 -0.0627 -0.2922
  415MOL0     C55903   4.647   7.134   6.766  0.3985 -0.0184  0.1527
  415MOL0     C55904   4.749   7.051   6.690  0.0326  0.4726  0.6575
  415MOL0     C55905   4.822   6.944   6.773  0.8015  0.3149  0.0027
  415MOL0     C55906   4.882   6.833   6.682 -0.8949 -0.9627  0.2414
  415MOL0     N55907   4.985   6.877   6.585  0.4573 -0.1742  0.3631
  415MOL0     C55908   5.119   6.890   6.602  0.6504 -0.0074 -0.6825
  415MOL0     C55909   5.169   6.907   6.481 -0.3771 -0.2229  0.2539
  415MOL0     C55910   5.320   6.900   6.446  0.6420 -0.7198  0.3087
  415MOL0     C55911   5.363   6.756   6.388  0.1830 -0.7100 -0.2075
  415MOL0     C55912   5.516   6.766   6.370  0.2701  1.2170  0.3532
  415MOL0     C55913   5.578   6.641   6.316  1.0754  0.2618  0.9326
  415MOL0     O55914   5.723   6.648   6.314 -0.0918 -0.8329  0.8184
  415MOL0     C55915   5.795   6.538   6.267  0.1443 -0.5579  0.0886
  415MOL0     C55916   5.755   6.409   6.296  0.1460  0.2686  0.7501
  415MOL0     C55917   5.847   6.304   6.263 -0.0812  0.1670 -0.2525
  415MOL0     C55918   5.804   6.167   6.304 -0.1535 -0.3604 -0.0570
  415MOL0     C55919   5.967   6.341   6.204  0.3230  0.2315 -0.5630
  415MOL0     C55920   6.077   6.237   6.194 -0.4246 -0.3117  0.1956
  415MOL0     O55921   6.148   6.243   6.074 -0.4490  0.0202 -0.2270
  415MOL0     C55922   6.229   6.132   6.048  0.9306 -0.1351 -0.0984
  415MOL0     C55923   6.174   6.009   6.004 -0.1944 -0.2526  0.2334
  415MOL0     C55924   6.259   5.906   5.965 -0.4625  0.1638  0.9271
  415MOL0     C55925   6.397   5.926   5.957  0.4115 -0.3948 -0.0990
  415MOL0     O55926   6.465   5.818   5.905 -0.3523 -0.5993 -0.3695
  415MOL0     C55927   6.606   5.821   5.866 -0.2990 -0.3899  0.1501
  415MOL0     C55928   6.633   5.892   5.727 -0.4894  0.5248 -0.0488
  415MOL0     C55929   6.603   5.795   5.604 -0.4754  0.4670 -0.4767
  415MOL0     C55930   6.449   5.759   5.598  0.2034  0.2664 -0.5403
  415MOL0     C55931   6.409   5.684   5.470  0.7450  0.2402 -0.1476
  415MOL0     C55932   6.459   5.544   5.448 -0.0412 -0.1286  0.9993
  415MOL0     C55933   6.477   5.517   5.303  0.1194  0.3929  0.8111
  415MOL0     C55934   6.613   5.572   5.246 -0.9102 -0.5585  0.4003
  415MOL0    Cl55935   6.735   5.442   5.247 -0.3360 -0.0330 -0.2516
  415MOL0     C55936   6.458   6.040   6.013  0.3065  1.0083  0.1961
  415MOL0     C55937   6.368   6.142   6.049 -1.5497  0.5762  0.7176
  415MOL0     O55938   6.110   6.162   6.286  0.0182  0.1273 -0.1896
  415MOL0     C55939   5.998   6.473   6.175 -0.4429 -0.4836 -0.1255
  415MOL0     C55940   5.908   6.568   6.201  0.0124 -0.7787  0.3438
  415MOL0     N55941   5.068   6.904   6.395  0.6339  0.8832  0.3425
  415MOL0     N55942   4.958   6.894   6.455  0.7283 -0.2473  0.6316
  415MOL0     C55943   4.552   7.907   6.530 -0.3431 -0.3014 -0.5365
  415MOL0     C55944   4.518   8.032   6.583 -0.8086  0.2566  0.9800
  415MOL0     C55945   4.313   8.333   6.898  0.4884 -0.1399  0.4819
  415MOL0     C55946   4.230   8.353   7.014 -0.6532 -0.2369  0.4817
  415MOL0     C55947   4.186   8.481   7.050  1.1963 -0.4524 -0.7935
  415MOL0     C55948   4.226   8.601   6.980  0.2299 -0.2271  0.5970
  415MOL0     O55949   4.191   8.729   6.996 -0.9179 -0.2539 -0.5472
  415MOL0     C55950   4.162   8.768   7.124  0.1639 -0.6230 -0.0237
  415MOL0     C55951   4.258   8.878   7.147 -0.6278 -0.1706  0.2115
  415MOL0     C55952   4.206   8.961   7.261 -0.5200  0.4010 -0.0358
  415MOL0     C55953   4.291   9.081   7.300  0.6972 -0.2058 -0.7248
  415MOL0     C55954   4.418   9.047   7.372 -0.0693 -0.3996  0.7960
  415MOL0     C55955   4.519   9.029   7.440  0.4789 -0.4038 -0.2342
  415MOL0     C55956   4.307   8.573   6.872  0.2725 -0.0718 -0.7959
  415MOL0     C55957   4.350   8.447   6.830 -0.6375 -1.2544  0.7986
  415MOL0     H55958   4.412   7.925   6.878 -0.3893 -1.4780 -0.7420
  415MOL0     H55959   4.458   7.706   6.784  1.0176  1.1060  1.2415
  415MOL0     H55960   4.649   7.529   6.675 -0.3754 -2.0196 -0.6279
  415MOL0     H55961   4.469   7.524   6.672 -1.4029 -0.6425  0.0983
  415MOL0     H55962   4.456   7.416   6.486  0.5639  0.5428 -0.0300
  415MOL0     H55963   4.605   7.470   6.409 -2.3785 -0.9053 -0.5427
  415MOL0     H55964   4.651   7.232   6.469  0.8609  0.2087 -0.6514
  415MOL0     H55965   4.739   7.318   6.576  0.0372  0.1582 -0.1810
  415MOL0     H55966   4.537   7.320   6.739 -0.2304  1.7017 -2.9148
  415MOL0     H55967   4.469   7.197   6.645  0.2982  3.2842 -4.5237
  415MOL0     H55968   4.696   7.190   6.846 -3.1560  0.8558  1.9330
  415MOL0     H55969   4.578   7.071   6.823 -0.4901 -0.7628 -1.6556
  415MOL0     H55970   4.704   7.016   6.597 -0.3040 -2.4465  1.8355
  415MOL0     H55971   4.831   7.108   6.646  2.2151 -3.0240 -0.1970
  415MOL0     H55972   4.899   6.987   6.839 -1.5385 -0.2125  3.3449
  415MOL0     H55973   4.751   6.900   6.844 -0.3220  0.9458 -0.7053
  415MOL0     H55974   4.806   6.782   6.621  0.9998 -5.0975  1.0128
  415MOL0     H55975   4.924   6.761   6.752 -1.9356 -0.6917  1.1779
  415MOL0     H55976   5.178   6.869   6.691  2.7195  0.4808 -1.8861
  415MOL0     H55977   5.353   6.974   6.372 -0.9426  0.0407  0.3260
  415MOL0     H55978   5.379   6.916   6.537  0.2505 -0.7870  0.5769
  415MOL0     H55979   5.313   6.720   6.297  1.8478 -1.1070 -1.0178
  415MOL0     H55980   5.333   6.682   6.463 -0.2726 -1.1348 -0.7956
  415MOL0     H55981   5.563   6.775   6.468  1.8103  1.4073 -0.3775
  415MOL0     H55982   5.547   6.845   6.301 -1.5164 -0.9319 -3.1885
  415MOL0     H55983   5.538   6.624   6.216  2.1757 -0.9358  0.6647
  415MOL0     H55984   5.556   6.555   6.380  2.1578 -0.2865  0.5974
  415MOL0     H55985   5.665   6.385   6.351  0.8653 -1.7182  1.1185
  415MOL0     H55986   5.706   6.134   6.269 -0.0670 -1.8837  1.0534
  415MOL0     H55987   5.865   6.087   6.260 -0.7384 -1.2828  0.7846
  415MOL0     H55988   5.814   6.161   6.413 -0.6824  5.0271  0.5738
  415MOL0     H55989   6.066   5.995   6.004 -0.3341  0.2129 -2.8218
  415MOL0     H55990   6.218   5.808   5.941  0.4448 -0.9614  3.6391
  415MOL0     H55991   6.659   5.874   5.946  1.0814  2.1742 -2.2470
  415MOL0     H55992   6.635   5.716   5.861  1.4038  0.0818 -3.0999
  415MOL0     H55993   6.563   5.975   5.718  0.2932  1.0678 -1.4835
  415MOL0     H55994   6.733   5.931   5.703 -0.6942 -0.1480 -2.2248
  415MOL0     H55995   6.670   5.709   5.612 -0.9897  0.2082  1.8606
  415MOL0     H55996   6.624   5.840   5.506  2.7834  0.4595  0.1030
  415MOL0     H55997   6.418   5.702   5.686  1.8777  1.1594  0.7004
  415MOL0     H55998   6.395   5.853   5.612 -3.0576 -1.6719  0.9760
  415MOL0     H55999   6.447   5.746   5.388  0.9665 -1.3556 -1.3095
  415MOL0     H56000   6.300   5.683   5.460  0.5148  0.2064  2.0121
  415MOL0     H56001   6.551   5.512   5.498  2.2980  1.2739 -2.0847
  415MOL0     H56002   6.372   5.484   5.477 -2.0324  2.8110  1.5594
  415MOL0     H56003   6.403   5.569   5.240  2.4765 -2.4913 -5.1382
  415MOL0     H56004   6.463   5.412   5.275  1.5218  0.4706 -0.3375
  415MOL0     H56005   6.654   5.653   5.308  1.6943  0.0077 -1.8676
  415MOL0     H56006   6.601   5.607   5.143  0.5892 -0.4090  0.2577
  415MOL0     H56007   6.564   6.057   6.031  0.8104 -1.0013 -0.6764
  415MOL0     H56008   6.411   6.238   6.077  1.2413 -0.2581 -0.4020
  415MOL0     H56009   6.095   6.491   6.130  0.0987 -2.9188 -0.0624
  415MOL0     H56010   5.922   6.670   6.166  0.2814 -1.1491 -0.6727
  415MOL0     H56011   4.603   7.906   6.434 -1.6883  3.6500 -1.4667
  415MOL0     H56012   4.543   8.126   6.534 -1.4414 -0.0397  0.0670
  415MOL0     H56013   4.216   8.274   7.087  1.1778  0.5888  1.7914
  415MOL0     H56014   4.122   8.497   7.136  0.3862 -0.9624 -1.2877
  415MOL0     H56015   4.061   8.809   7.135  1.0733  1.6962  0.3387
  415MOL0     H56016   4.174   8.689   7.199 -1.0760 -1.9075 -1.1281
  415MOL0     H56017   4.276   8.932   7.054  0.5131  0.5840  0.8380
  415MOL0     H56018   4.355   8.840   7.180 -0.9033  0.5679  2.0038
  415MOL0     H56019   4.188   8.897   7.347  0.3705  0.8647  0.5160
  415MOL0     H56020   4.108   9.006   7.241 -0.4211  1.5210  1.7392
  415MOL0     H56021   4.228   9.151   7.357  1.1595  0.0446 -0.5187
  415MOL0     H56022   4.321   9.144   7.216 -0.0206  0.8270 -0.2413
  415MOL0     H56023   4.609   9.003   7.492  0.8438  0.6217 -0.3296
  415MOL0     H56024   4.348   8.661   6.822  0.6553  0.1746 -0.0685
  415MOL0     H56025   4.414   8.434   6.743 -1.8712 -3.3654  0.1412
  416MOL0     O56026   8.150  10.346   8.507  0.4307 -0.5737  0.2364
  416MOL0     C56027   8.178  10.375   8.389  0.6624  0.1741  0.0154
  416MOL0     O56028   8.114  10.315   8.276 -0.6849  0.6349 -0.6326
  416MOL0     C56029   7.997  10.238   8.278  0.3723  0.4471  0.6233
  416MOL0     C56030   7.928  10.192   8.393 -0.4560 -0.5098 -0.3290
  416MOL0     C56031   7.825  10.102   8.381 -0.1737 -0.1435  1.1953
  416MOL0     C56032   7.790  10.047   8.255 -0.6550  0.1842  0.0887
  416MOL0     O56033   7.682   9.962   8.261 -0.1509 -0.1723 -0.0244
  416MOL0     C56034   7.708   9.831   8.316  0.1321 -0.2437  0.5718
  416MOL0     C56035   7.580   9.750   8.317 -1.0942 -0.1007 -0.2370
  416MOL0     C56036   7.468   9.827   8.394 -0.0729 -0.1879 -0.6221
  416MOL0     C56037   7.347   9.744   8.426 -0.7945 -0.3534  0.4694
  416MOL0     C56038   7.252   9.815   8.505 -0.0205  0.1052 -0.3747
  416MOL0     C56039   7.132   9.732   8.546  0.1796 -0.4276 -0.6519
  416MOL0     C56040   7.043   9.834   8.626 -0.2294 -0.2582  0.5510
  416MOL0     C56041   6.912   9.771   8.667  0.0856 -0.3680 -0.1895
  416MOL0     N56042   6.789   9.790   8.577  0.0560 -0.1396  0.1208
  416MOL0     C56043   6.740   9.920   8.541  0.3791  0.2094 -0.1476
  416MOL0     C56044   6.632   9.890   8.469  0.0196 -0.3493 -0.3250
  416MOL0     C56045   6.555  10.001   8.401  0.2119  0.5609 -0.4972
  416MOL0     C56046   6.427  10.033   8.472 -0.3430 -0.1258  0.2034
  416MOL0     C56047   6.375  10.151   8.388 -0.1881  0.5023 -0.6655
  416MOL0     C56048   6.249  10.210   8.437 -0.8822 -0.0731  0.2378
  416MOL0     O56049   6.217  10.311   8.345  0.3388  0.2091 -0.1834
  416MOL0     C56050   6.107  10.388   8.354 -0.3138  0.2674  1.0001
  416MOL0     C56051   6.080  10.483   8.254 -0.0106 -1.6873  0.1484
  416MOL0     C56052   5.979  10.584   8.264 -0.0849  0.7547  0.2543
  416MOL0     C56053   5.967  10.677   8.140  0.1952  0.0049  0.6184
  416MOL0     C56054   5.895  10.584   8.378  0.2925  0.6896 -0.0317
  416MOL0     C56055   5.781  10.674   8.397  0.4454  0.8831  0.1471
  416MOL0     O56056   5.689  10.640   8.489 -0.0947 -1.0259  0.2630
  416MOL0     C56057   5.559  10.654   8.449 -0.1329 -0.0484 -0.5790
  416MOL0     C56058   5.475  10.757   8.516  0.1375 -1.0281  0.2909
  416MOL0     C56059   5.349  10.788   8.460  0.7548 -0.8597 -0.2737
  416MOL0     C56060   5.292  10.713   8.356  0.3495 -0.0806  0.4819
  416MOL0     O56061   5.163  10.761   8.311 -0.3695 -0.0769 -0.0557
  416MOL0     C56062   5.164  10.885   8.240 -0.2617  0.2554 -0.5628
  416MOL0     C56063   5.027  10.926   8.175  0.1694 -0.1772 -0.1254
  416MOL0     C56064   4.925  10.808   8.177  0.2602 -1.0837  0.0914
  416MOL0     C56065   4.797  10.864   8.111  1.1816  0.2123  0.4462
  416MOL0     C56066   4.679  10.760   8.122  0.7566 -0.5623  0.2752
  416MOL0     C56067   4.686  10.656   8.013  0.4755 -0.1384 -0.0864
  416MOL0     C56068   4.556  10.571   8.027 -0.3866 -0.0567  0.1935
  416MOL0     C56069   4.498  10.490   7.904 -1.0742 -0.2637  0.6931
  416MOL0    Cl56070   4.461  10.599   7.764 -0.0894  0.4322 -0.2263
  416MOL0     C56071   5.369  10.607   8.301 -0.5074  0.3984 -0.2542
  416MOL0     C56072   5.502  10.582   8.347 -0.7041  0.4400 -0.4585
  416MOL0     O56073   5.767  10.764   8.316 -0.5055  0.1070 -0.4244
  416MOL0     C56074   5.913  10.484   8.473  0.2365  0.1439  1.7551
  416MOL0     C56075   6.023  10.393   8.462  0.1283 -0.5477  0.5665
  416MOL0     N56076   6.603   9.755   8.462 -0.4748 -0.0477  0.0848
  416MOL0     N56077   6.700   9.701   8.534  0.2833  0.2838 -0.2142
  416MOL0     C56078   7.864  10.080   8.140  0.2364  0.3352 -0.2835
  416MOL0     C56079   7.960  10.176   8.157  0.2432  0.7283  0.1520
  416MOL0     C56080   8.286  10.477   8.369  0.8239 -0.1381  0.4537
  416MOL0     C56081   8.329  10.553   8.479  0.2611 -0.0554 -0.1543
  416MOL0     C56082   8.454  10.616   8.476 -0.5771 -0.1377  0.6986
  416MOL0     C56083   8.530  10.629   8.360  0.4791  0.0986  0.2141
  416MOL0     O56084   8.641  10.710   8.362  0.5646 -0.2356  0.0915
  416MOL0     C56085   8.751  10.683   8.273 -0.2113 -0.6881  0.5091
  416MOL0     C56086   8.726  10.751   8.133  0.0678  0.2817 -0.7594
  416MOL0     C56087   8.718  10.904   8.139 -0.0947 -0.1585 -0.7437
  416MOL0     C56088   8.657  10.958   8.007 -0.1801 -0.1262  0.0410
  416MOL0     C56089   8.736  10.919   7.891  0.5685 -0.5642 -0.7571
  416MOL0     C56090   8.804  10.877   7.796 -0.2109 -0.1006  0.6688
  416MOL0     C56091   8.494  10.543   8.250  0.8176 -0.0083 -0.1659
  416MOL0     C56092   8.372  10.465   8.250  0.8985  1.0399  0.6594
  416MOL0     H56093   7.946  10.219   8.497 -0.2565  1.0319 -0.7514
  416MOL0     H56094   7.769  10.075   8.470 -1.4997 -1.8373 -0.0765
  416MOL0     H56095   7.791   9.786   8.261  4.0621  2.9324  3.3376
  416MOL0     H56096   7.751   9.846   8.416 -1.2296  0.5624  1.0577
  416MOL0     H56097   7.554   9.723   8.215  2.6317 -0.6959 -1.1661
  416MOL0     H56098   7.603   9.651   8.356 -1.6302 -0.6350 -1.2522
  416MOL0     H56099   7.512   9.858   8.489 -2.2691 -0.7606  0.6496
  416MOL0     H56100   7.433   9.914   8.337 -2.2338 -0.9640 -0.5676
  416MOL0     H56101   7.300   9.727   8.329 -1.5679  1.7015  0.4368
  416MOL0     H56102   7.380   9.658   8.486  5.0114  1.2487  0.1860
  416MOL0     H56103   7.304   9.860   8.591 -1.0545  2.4464 -0.8964
  416MOL0     H56104   7.223   9.901   8.445  3.7584  1.4395 -0.5692
  416MOL0     H56105   7.062   9.691   8.474 -2.1206  0.4551  0.9616
  416MOL0     H56106   7.154   9.654   8.619  1.1256  2.5717  2.6142
  416MOL0     H56107   7.100   9.839   8.720 -2.3750 -2.5878  2.1159
  416MOL0     H56108   7.032   9.937   8.591  1.5981  0.0185  0.6819
  416MOL0     H56109   6.893   9.833   8.755  1.1743  0.0690 -0.2477
  416MOL0     H56110   6.927   9.671   8.710  1.9346 -0.6257 -1.3337
  416MOL0     H56111   6.789  10.016   8.556 -1.0301  0.7247  1.3889
  416MOL0     H56112   6.614  10.093   8.394 -1.0791  1.6382  1.6787
  416MOL0     H56113   6.533   9.957   8.303  2.8127 -0.3546 -0.7307
  416MOL0     H56114   6.454  10.056   8.576  0.1064 -2.8303  0.7665
  416MOL0     H56115   6.363   9.944   8.480  2.6564 -2.2699  3.1757
  416MOL0     H56116   6.350  10.120   8.286  1.7713 -1.2723 -0.6902
  416MOL0     H56117   6.448  10.232   8.389 -1.1712  1.4961 -2.8769
  416MOL0     H56118   6.266  10.251   8.537  0.3088 -0.6673  0.3018
  416MOL0     H56119   6.167  10.138   8.429 -0.1034 -0.7274 -3.6530
  416MOL0     H56120   6.138  10.474   8.162  1.3476 -0.1102  0.7984
  416MOL0     H56121   6.040  10.645   8.065  1.5490  0.2893  1.7651
  416MOL0     H56122   5.862  10.670   8.112  0.1164  1.5303  0.4206
  416MOL0     H56123   5.993  10.781   8.163  0.8150 -0.0433  0.1741
  416MOL0     H56124   5.506  10.824   8.596 -1.3997  0.3916 -0.2432
  416MOL0     H56125   5.291  10.872   8.499  1.0620 -1.6961  2.1930
  416MOL0     H56126   5.199  10.961   8.311  2.1737 -1.4432  0.1384
  416MOL0     H56127   5.232  10.876   8.155  0.5673 -1.3153  0.2312
  416MOL0     H56128   5.001  10.999   8.252  1.2472 -0.5137  0.5783
  416MOL0     H56129   5.048  10.967   8.076  1.1298  2.5315  1.0934
  416MOL0     H56130   4.905  10.783   8.282 -3.1168  0.6954  0.0212
  416MOL0     H56131   4.961  10.718   8.126 -1.9268 -0.8610 -2.0440
  416MOL0     H56132   4.772  10.960   8.157  2.3963  0.0331  1.5527
  416MOL0     H56133   4.811  10.894   8.006  2.2838  3.5682  1.4211
  416MOL0     H56134   4.590  10.821   8.102  1.2485  0.8339  2.1099
  416MOL0     H56135   4.679  10.723   8.225  2.0278 -0.2996  0.3851
  416MOL0     H56136   4.679  10.704   7.915 -0.9191  0.0555  0.0829
  416MOL0     H56137   4.784  10.608   8.020  1.4402  1.7847  0.2280
  416MOL0     H56138   4.473  10.626   8.073  0.9415 -0.0368  2.7257
  416MOL0     H56139   4.577  10.482   8.087 -0.9366 -1.5420 -1.6912
  416MOL0     H56140   4.401  10.444   7.927 -1.6613  0.3001 -0.5500
  416MOL0     H56141   4.566  10.410   7.874  0.7952  1.4084  0.2970
  416MOL0     H56142   5.332  10.539   8.226 -2.2703 -0.1287  1.0407
  416MOL0     H56143   5.557  10.494   8.312  0.2705  0.0100  1.9805
  416MOL0     H56144   5.839  10.488   8.552 -0.2885  4.2094  1.2319
  416MOL0     H56145   6.043  10.335   8.552 -1.7241 -1.2419  0.5924
  416MOL0     H56146   7.835  10.025   8.052  2.0728 -1.7057  0.3172
  416MOL0     H56147   8.018  10.206   8.070  1.1628  1.0520  0.8558
  416MOL0     H56148   8.284  10.541   8.577  0.1314 -1.0041 -0.3197
  416MOL0     H56149   8.499  10.664   8.563  0.0929 -3.4251  2.3024
  416MOL0     H56150   8.844  10.711   8.323 -0.9325  1.6047  0.6750
  416MOL0     H56151   8.755  10.573   8.272  1.1876 -0.6656 -1.5141
  416MOL0     H56152   8.633  10.718   8.086  0.7526 -2.8198 -0.1400
  416MOL0     H56153   8.820  10.735   8.080 -0.5668 -0.9216 -1.5702
  416MOL0     H56154   8.820  10.937   8.156 -0.1292 -0.3374 -0.1673
  416MOL0     H56155   8.660  10.944   8.224 -0.9376  1.3114 -1.9586
  416MOL0     H56156   8.650  11.067   8.011 -0.0910 -0.0104 -1.8305
  416MOL0     H56157   8.551  10.932   7.995  0.2474 -1.5516 -1.0421
  416MOL0     H56158   8.875  10.847   7.720 -0.1760  1.5881 -0.0102
  416MOL0     H56159   8.547  10.544   8.155  0.6683  1.4021 -0.2587
  416MOL0     H56160   8.348  10.394   8.172 -2.9784  0.9882  1.6608
  417MOL0     O56161   2.209   8.562   4.089  0.0899 -0.1452 -0.3140
  417MOL0     C56162   2.261   8.453   4.117  1.0016 -0.2555  0.8012
  417MOL0     O56163   2.198   8.348   4.160 -0.2551 -0.3492  0.2311
  417MOL0     C56164   2.069   8.331   4.191 -0.3011  0.1217  0.0809
  417MOL0     C56165   1.997   8.228   4.138  0.2952 -0.1436  0.2445
  417MOL0     C56166   1.862   8.213   4.171 -0.1446 -0.3898  0.4480
  417MOL0     C56167   1.801   8.315   4.241  0.3625 -0.1730 -0.8348
  417MOL0     O56168   1.669   8.300   4.283  0.5338 -0.6156 -0.4215
  417MOL0     C56169   1.645   8.194   4.376  0.5849  0.2126  0.0338
  417MOL0     C56170   1.541   8.097   4.312 -0.2462 -0.1443 -0.4291
  417MOL0     C56171   1.423   8.191   4.257  0.2612  0.2980 -0.1397
  417MOL0     C56172   1.302   8.104   4.214  0.4383  0.8422  0.2973
  417MOL0     C56173   1.197   8.090   4.334 -0.3073 -0.1903  0.1507
  417MOL0     C56174   1.051   8.094   4.299  0.7078 -0.3709 -0.0362
  417MOL0     C56175   1.008   8.239   4.276 -0.1411  0.1594 -0.1756
  417MOL0     C56176   0.852   8.261   4.259  0.4063 -0.3723 -0.6455
  417MOL0     N56177   0.766   8.221   4.377  0.0348 -0.6725 -0.2999
  417MOL0     C56178   0.680   8.116   4.368  0.0234 -0.4391  0.1392
  417MOL0     C56179   0.637   8.101   4.486 -0.4469  0.5090 -0.2927
  417MOL0     C56180   0.540   7.994   4.548 -0.4614 -0.0404 -0.5750
  417MOL0     C56181   0.405   8.063   4.566 -0.4281  0.2676 -0.1394
  417MOL0     C56182   0.290   7.972   4.504 -0.0263 -1.0501  0.9900
  417MOL0     C56183   0.148   8.019   4.531  0.2897 -0.3962 -0.4859
  417MOL0     O56184   0.110   7.958   4.656  0.3035 -0.2332  0.1292
  417MOL0     C56185  -0.019   7.985   4.683 -0.2689  0.4075 -0.4930
  417MOL0     C56186  -0.109   7.885   4.672  0.4130  0.9819 -0.2737
  417MOL0     C56187  -0.246   7.891   4.700 -0.1121 -0.5855 -0.0577
  417MOL0     C56188  -0.330   7.763   4.703 -0.2406  0.0124 -0.6519
  417MOL0     C56189  -0.292   8.020   4.744 -1.3288  0.1617 -0.1188
  417MOL0     C56190  -0.441   8.042   4.776 -0.1960  1.0405 -0.9477
  417MOL0     O56191  -0.523   7.937   4.812 -0.6768  0.7937 -0.9101
  417MOL0     C56192  -0.656   7.954   4.806  0.1649 -1.1932 -0.9591
  417MOL0     C56193  -0.735   7.984   4.697  0.0757 -0.2389 -0.5558
  417MOL0     C56194  -0.872   7.983   4.699  0.0645 -0.6292 -0.3405
  417MOL0     C56195  -0.936   7.961   4.815  0.5023 -0.5569 -0.2143
  417MOL0     O56196  -1.072   7.991   4.814  0.6788  0.3421 -0.3547
  417MOL0     C56197  -1.146   7.966   4.939  0.2585 -0.2802 -0.4437
  417MOL0     C56198  -1.299   8.017   4.918 -0.1003  0.3972  0.3140
  417MOL0     C56199  -1.372   7.939   4.812 -0.5381 -0.3973 -0.0589
  417MOL0     C56200  -1.507   8.007   4.780  0.0673  0.6989  0.8061
  417MOL0     C56201  -1.557   7.916   4.669 -0.1282 -0.3154 -0.3891
  417MOL0     C56202  -1.698   7.956   4.615 -0.7666 -0.2536  0.0067
  417MOL0     C56203  -1.797   8.032   4.717 -0.2012 -0.9339  0.4764
  417MOL0     C56204  -1.932   8.082   4.663  0.2827 -0.1993 -0.0020
  417MOL0    Cl56205  -2.019   7.953   4.590 -0.3523  0.0242 -0.2613
  417MOL0     C56206  -0.858   7.913   4.929  0.4330  0.0671  0.1590
  417MOL0     C56207  -0.720   7.922   4.923 -0.3185 -0.0277 -0.4860
  417MOL0     O56208  -0.481   8.153   4.750 -0.1025  0.0357  0.4336
  417MOL0     C56209  -0.197   8.127   4.754  0.7822 -0.1932 -0.3102
  417MOL0     C56210  -0.066   8.108   4.730 -0.7531  0.9536 -0.0351
  417MOL0     N56211   0.701   8.190   4.576  0.0016  0.4176  0.1508
  417MOL0     N56212   0.787   8.263   4.508  0.6191 -0.6962  0.4387
  417MOL0     C56213   1.877   8.426   4.290  0.7071  0.7780 -0.3506
  417MOL0     C56214   2.009   8.426   4.272 -0.1891 -0.2707 -0.4659
  417MOL0     C56215   2.404   8.442   4.087 -0.2412 -0.1020 -0.5240
  417MOL0     C56216   2.470   8.529   4.006 -1.1239 -0.7302 -0.8920
  417MOL0     C56217   2.610   8.518   3.975  0.6802 -0.8362 -0.9012
  417MOL0     C56218   2.681   8.405   4.026 -0.2031  0.6539 -0.5553
  417MOL0     O56219   2.812   8.400   3.988  0.9122  0.3472  0.4541
  417MOL0     C56220   2.905   8.324   4.072 -0.2273  0.3485 -0.2257
  417MOL0     C56221   2.971   8.421   4.173  1.4538  0.3451 -0.1984
  417MOL0     C56222   3.051   8.528   4.110  0.7315  1.0086  1.0206
  417MOL0     C56223   3.131   8.609   4.208  0.1090 -0.0880 -0.0807
  417MOL0     C56224   3.255   8.531   4.253  0.6370  0.3976  0.5941
  417MOL0     C56225   3.344   8.457   4.292 -1.4084  0.2138 -0.1988
  417MOL0     C56226   2.615   8.318   4.118  0.8405 -0.0454  0.7660
  417MOL0     C56227   2.485   8.337   4.148  0.1489  0.7606 -0.2249
  417MOL0     H56228   2.060   8.156   4.087 -2.0859 -2.6206  0.5090
  417MOL0     H56229   1.816   8.116   4.155 -1.5026 -0.2002  2.8149
  417MOL0     H56230   1.739   8.148   4.407  0.3905  0.0395  0.3726
  417MOL0     H56231   1.603   8.244   4.465  2.8303  1.6031  0.3898
  417MOL0     H56232   1.587   8.041   4.230  1.3628  1.4572 -0.6822
  417MOL0     H56233   1.502   8.030   4.389 -2.4453 -0.3551 -1.6252
  417MOL0     H56234   1.387   8.257   4.336 -2.7565 -1.4230  0.0674
  417MOL0     H56235   1.456   8.254   4.174 -0.7041  0.6372 -0.2726
  417MOL0     H56236   1.265   8.153   4.124 -2.0586  2.6416  2.1929
  417MOL0     H56237   1.333   8.003   4.185  0.3633  0.4336  1.5913
  417MOL0     H56238   1.223   8.009   4.404  1.0229 -1.8610 -2.1510
  417MOL0     H56239   1.217   8.176   4.398 -1.5931 -0.3532  0.8055
  417MOL0     H56240   1.014   8.034   4.215  1.0184  1.5208 -1.5951
  417MOL0     H56241   0.994   8.060   4.385  0.0568 -0.9283 -0.6744
  417MOL0     H56242   1.043   8.304   4.357  0.0941 -1.2709  0.8988
  417MOL0     H56243   1.062   8.274   4.187 -1.8182 -1.4334 -1.9091
  417MOL0     H56244   0.806   8.205   4.177 -3.6464 -0.7421  1.6036
  417MOL0     H56245   0.841   8.369   4.246 -0.7356 -0.5519 -1.3272
  417MOL0     H56246   0.665   8.051   4.282 -2.7921  0.1867  0.0421
  417MOL0     H56247   0.541   7.906   4.484 -1.1904 -2.1530  2.1569
  417MOL0     H56248   0.583   7.959   4.643 -0.7634 -2.9743 -1.4341
  417MOL0     H56249   0.397   8.169   4.541 -0.9862  0.3062  0.1742
  417MOL0     H56250   0.391   8.058   4.675 -1.0768  1.3185 -0.1681
  417MOL0     H56251   0.304   7.868   4.535  0.0294 -1.3107  0.1066
  417MOL0     H56252   0.305   7.974   4.396  2.6056 -0.7314  1.2900
  417MOL0     H56253   0.086   7.981   4.449  0.8983 -2.7178  0.0560
  417MOL0     H56254   0.148   8.129   4.533 -1.8981 -0.2822 -2.3788
  417MOL0     H56255  -0.060   7.789   4.663  1.8095  1.5795  0.6516
  417MOL0     H56256  -0.427   7.761   4.653 -2.9794 -2.8404  4.0209
  417MOL0     H56257  -0.271   7.679   4.666 -0.3686 -0.2346 -0.2989
  417MOL0     H56258  -0.362   7.737   4.805 -0.4361 -1.0626 -0.9738
  417MOL0     H56259  -0.691   8.006   4.600  1.5851  2.0503  0.5582
  417MOL0     H56260  -0.939   7.996   4.615  0.1390 -1.0875 -0.4730
  417MOL0     H56261  -1.133   7.860   4.962  2.1141 -0.4839 -2.1624
  417MOL0     H56262  -1.112   8.023   5.026 -0.4680 -0.7426  0.1595
  417MOL0     H56263  -1.356   8.001   5.010 -0.4745  1.6405  0.3146
  417MOL0     H56264  -1.305   8.124   4.894 -2.2537 -0.2849 -2.8118
  417MOL0     H56265  -1.373   7.842   4.863  2.2423  0.4383  1.8117
  417MOL0     H56266  -1.309   7.940   4.722 -0.5451  2.2459 -0.0980
  417MOL0     H56267  -1.571   8.005   4.869  2.4733  4.6097  2.8412
  417MOL0     H56268  -1.486   8.110   4.751  1.9092 -0.2664 -1.6391
  417MOL0     H56269  -1.567   7.817   4.714  1.0124  0.4592  1.7140
  417MOL0     H56270  -1.484   7.912   4.587  0.1237  0.6831 -0.2377
  417MOL0     H56271  -1.672   8.016   4.528 -1.5730  1.2845  0.7813
  417MOL0     H56272  -1.745   7.863   4.580  0.4529 -0.4615 -1.1586
  417MOL0     H56273  -1.740   8.118   4.751  0.6747 -0.0389 -2.8794
  417MOL0     H56274  -1.820   7.967   4.802 -0.4937 -2.1299 -0.4954
  417MOL0     H56275  -1.936   8.173   4.601 -4.5920 -0.1139  0.0708
  417MOL0     H56276  -1.986   8.109   4.754 -2.6205  1.6050 -2.0666
  417MOL0     H56277  -0.920   7.885   5.013 -1.3886 -2.7321 -1.9409
  417MOL0     H56278  -0.662   7.890   5.009 -3.4301 -0.2634  1.6946
  417MOL0     H56279  -0.230   8.223   4.793 -2.6418 -1.7202  0.9268
  417MOL0     H56280   0.011   8.182   4.751  0.4349 -0.5366  1.1233
  417MOL0     H56281   1.813   8.505   4.326 -1.7352 -0.1103 -2.4387
  417MOL0     H56282   2.073   8.505   4.310  0.6021  0.0260 -2.2909
  417MOL0     H56283   2.413   8.613   3.968 -0.8768 -0.8107 -1.4599
  417MOL0     H56284   2.648   8.589   3.904  1.0843 -1.2237 -1.0791
  417MOL0     H56285   2.859   8.239   4.122  2.6023 -0.9599  0.3763
  417MOL0     H56286   2.991   8.284   4.016 -0.7567 -1.8397  0.4065
  417MOL0     H56287   3.041   8.366   4.236 -1.3042 -1.2141  1.7110
  417MOL0     H56288   2.891   8.460   4.237  0.5763  1.7952 -2.0842
  417MOL0     H56289   2.985   8.587   4.044 -1.7716 -1.0270  1.5325
  417MOL0     H56290   3.118   8.473   4.043  0.4231  1.0007  0.7153
  417MOL0     H56291   3.066   8.639   4.291 -0.6411 -0.9622 -0.3412
  417MOL0     H56292   3.177   8.699   4.166 -0.5414  0.2010 -0.1893
  417MOL0     H56293   3.424   8.394   4.325  0.3307  3.0923  1.5330
  417MOL0     H56294   2.649   8.227   4.166 -0.2475 -1.0008 -0.2087
  417MOL0     H56295   2.440   8.248   4.191 -0.1950  1.4897  0.9780
  418MOL0     O56296   2.406   2.779  10.074 -0.0529 -0.0107 -0.0083
  418MOL0     C56297   2.481   2.792  10.174  0.6936  0.0981  0.4350
  418MOL0     O56298   2.433   2.802  10.302 -0.2716 -0.7692 -0.3104
  418MOL0     C56299   2.303   2.804  10.341  0.7871  0.7406  0.2885
  418MOL0     C56300   2.286   2.778  10.477  0.0380  0.2120  0.4838
  418MOL0     C56301   2.150   2.777  10.530 -0.0479  0.3560 -0.3847
  418MOL0     C56302   2.041   2.824  10.452  0.0575 -0.1959 -0.5603
  418MOL0     O56303   1.927   2.837  10.525  0.1342 -0.5659  0.8950
  418MOL0     C56304   1.814   2.901  10.469 -0.7242 -0.5559 -0.1306
  418MOL0     C56305   1.691   2.868  10.541  0.4095  0.4142 -0.7495
  418MOL0     C56306   1.679   2.719  10.568  0.3788 -0.4662 -0.6330
  418MOL0     C56307   1.555   2.684  10.654 -0.3810  0.2214 -0.3666
  418MOL0     C56308   1.560   2.524  10.666  0.0942  0.2499 -0.0803
  418MOL0     C56309   1.438   2.474  10.738  0.4133  0.1941  1.0507
  418MOL0     C56310   1.439   2.321  10.752 -0.7217 -0.4053 -0.4464
  418MOL0     C56311   1.339   2.275  10.864 -0.0125  0.1752 -0.1370
  418MOL0     N56312   1.329   2.125  10.853  1.0392  0.4851 -0.3750
  418MOL0     C56313   1.288   2.053  10.743  0.0309 -0.0987 -0.6191
  418MOL0     C56314   1.321   1.923  10.756  0.4406  0.9555 -0.2777
  418MOL0     C56315   1.305   1.816  10.654 -0.3263 -0.2699 -0.1420
  418MOL0     C56316   1.163   1.755  10.654  0.1695 -0.7225 -0.1903
  418MOL0     C56317   1.128   1.675  10.781 -0.1296  0.3566 -0.5844
  418MOL0     C56318   0.980   1.632  10.768 -1.5855  0.7327  0.1528
  418MOL0     O56319   0.930   1.568  10.885 -0.4508 -0.5017  0.5282
  418MOL0     C56320   0.802   1.527  10.882  0.6066 -0.8839  0.9133
  418MOL0     C56321   0.750   1.471  11.000  0.5854 -0.9126 -0.6800
  418MOL0     C56322   0.617   1.442  11.026 -0.2838  0.2166 -0.3621
  418MOL0     C56323   0.595   1.398  11.169  0.3680  0.5203 -0.2388
  418MOL0     C56324   0.518   1.460  10.924  0.3431  0.1467  1.0089
  418MOL0     C56325   0.377   1.426  10.937  0.4032 -0.1321 -0.1162
  418MOL0     O56326   0.305   1.405  10.820 -0.3638  0.5845  0.6198
  418MOL0     C56327   0.174   1.366  10.839  0.1660 -0.5343 -1.1316
  418MOL0     C56328   0.080   1.437  10.762 -0.4860  0.0561  1.3481
  418MOL0     C56329  -0.052   1.411  10.779  0.0967  1.1393  0.4020
  418MOL0     C56330  -0.093   1.310  10.871  0.1642 -0.0828  0.4108
  418MOL0     O56331  -0.229   1.296  10.867  0.0769 -0.0505 -0.1648
  418MOL0     C56332  -0.280   1.269  10.994 -0.8510 -0.6469 -1.1392
  418MOL0     C56333  -0.433   1.307  11.000  0.7486  0.4751 -0.8714
  418MOL0     C56334  -0.509   1.239  10.894 -0.0934 -0.4810  1.0898
  418MOL0     C56335  -0.659   1.210  10.930 -0.1648  1.3268  0.0856
  418MOL0     C56336  -0.746   1.255  10.813  1.2558 -1.5688  0.6117
  418MOL0     C56337  -0.880   1.177  10.823 -0.3841  0.0777  0.2459
  418MOL0     C56338  -0.967   1.215  10.704  0.2024 -0.6866  0.3871
  418MOL0     C56339  -1.104   1.146  10.699  0.8362 -0.8446 -0.1086
  418MOL0    Cl56340  -1.211   1.174  10.849 -0.3767  0.5623  0.1769
  418MOL0     C56341  -0.007   1.243  10.948  0.7328  0.5684 -0.1832
  418MOL0     C56342   0.124   1.271  10.931 -0.3856  0.0778  0.2859
  418MOL0     O56343   0.323   1.442  11.047  0.3709 -0.5904 -0.2866
  418MOL0     C56344   0.564   1.508  10.799 -0.2662  0.5061  0.0565
  418MOL0     C56345   0.701   1.540  10.778 -0.0441 -0.7176  0.4292
  418MOL0     N56346   1.372   1.916  10.881 -0.9424  0.0595 -0.0435
  418MOL0     N56347   1.383   2.031  10.940 -0.1947 -0.6958 -0.9790
  418MOL0     C56348   2.063   2.856  10.319 -0.2642 -0.6911  0.4258
  418MOL0     C56349   2.191   2.841  10.263  0.0690  0.0718  0.4112
  418MOL0     C56350   2.618   2.798  10.150 -0.2941 -0.0936  0.9513
  418MOL0     C56351   2.675   2.828  10.020 -0.1147  0.4115  0.1621
  418MOL0     C56352   2.807   2.864   9.987  0.1071 -0.7092  0.3634
  418MOL0     C56353   2.893   2.877  10.098  0.0219  0.6893  0.1017
  418MOL0     O56354   3.029   2.905  10.106 -0.4452  1.0715 -0.3072
  418MOL0     C56355   3.089   2.905   9.977  0.0078 -0.2414  0.4976
  418MOL0     C56356   3.242   2.920   9.997  0.2586  0.3831 -0.7349
  418MOL0     C56357   3.288   3.050  10.058  0.5653  0.0234 -0.7680
  418MOL0     C56358   3.277   3.177   9.970  0.1928  0.2771  1.0382
  418MOL0     C56359   3.357   3.277  10.037 -0.5086 -0.5349 -0.4032
  418MOL0     C56360   3.426   3.359  10.086 -0.7541  0.7328  0.1512
  418MOL0     C56361   2.837   2.859  10.231  0.3291  0.3361  1.0031
  418MOL0     C56362   2.711   2.815  10.255 -0.8598 -0.9502 -0.8168
  418MOL0     H56363   2.371   2.749  10.538  0.1658  1.4888  0.9539
  418MOL0     H56364   2.130   2.759  10.635 -2.1638  3.2799 -0.1747
  418MOL0     H56365   1.827   3.010  10.472 -2.6620 -0.2937  0.4472
  418MOL0     H56366   1.799   2.864  10.368 -0.1325 -1.6890  0.1799
  418MOL0     H56367   1.672   2.922  10.635 -1.8470  1.2030 -1.5724
  418MOL0     H56368   1.602   2.903  10.487 -2.0359 -0.1852  2.5371
  418MOL0     H56369   1.668   2.666  10.473 -1.2919  0.3670 -0.9530
  418MOL0     H56370   1.765   2.688  10.627  0.1681 -0.8546 -0.5344
  418MOL0     H56371   1.555   2.729  10.754 -0.8213 -0.9666  0.1844
  418MOL0     H56372   1.458   2.705  10.609 -0.4429 -0.0412 -0.3594
  418MOL0     H56373   1.559   2.483  10.565  0.7113 -3.7609  1.3662
  418MOL0     H56374   1.652   2.491  10.716 -0.3996 -0.8612  0.1312
  418MOL0     H56375   1.428   2.518  10.838  0.1250 -0.9317  1.5321
  418MOL0     H56376   1.350   2.509  10.684  0.7851 -1.1522 -0.5129
  418MOL0     H56377   1.414   2.279  10.654 -2.2745  1.2733 -0.8346
  418MOL0     H56378   1.541   2.305  10.786 -0.3690  0.9556 -0.7856
  418MOL0     H56379   1.245   2.330  10.852 -0.1742  1.3225  4.6798
  418MOL0     H56380   1.373   2.322  10.956 -0.1556 -0.0567  0.0370
  418MOL0     H56381   1.247   2.100  10.654  0.9909  1.5075 -0.2589
  418MOL0     H56382   1.318   1.848  10.550 -1.0514  1.3010  0.2280
  418MOL0     H56383   1.385   1.743  10.667  1.8279  2.0077  0.1057
  418MOL0     H56384   1.147   1.687  10.570 -2.4248  1.8569 -2.0280
  418MOL0     H56385   1.103   1.847  10.648  1.2718 -0.0379 -1.2232
  418MOL0     H56386   1.132   1.721  10.880 -0.3875 -3.6712  1.5029
  418MOL0     H56387   1.188   1.584  10.780 -0.4925  0.1221 -1.6774
  418MOL0     H56388   0.963   1.592  10.667 -2.1124 -1.8372  1.1869
  418MOL0     H56389   0.928   1.728  10.772 -2.3800  0.3689 -1.0148
  418MOL0     H56390   0.811   1.467  11.090 -1.0084 -1.3478  0.4261
  418MOL0     H56391   0.680   1.330  11.184 -1.3980 -1.2765  2.3458
  418MOL0     H56392   0.599   1.486  11.234 -2.0733  0.6855 -0.2263
  418MOL0     H56393   0.505   1.339  11.185  2.4611 -2.8641  0.1304
  418MOL0     H56394   0.116   1.499  10.680 -0.4741 -0.2045  1.1543
  418MOL0     H56395  -0.115   1.464  10.708 -4.7008 -1.9935  1.7893
  418MOL0     H56396  -0.260   1.167  11.029 -0.4728 -0.7396 -1.6154
  418MOL0     H56397  -0.235   1.332  11.071 -1.8889 -1.6860  0.4036
  418MOL0     H56398  -0.474   1.266  11.093 -2.2944  0.0621 -2.2615
  418MOL0     H56399  -0.441   1.416  10.989 -0.4863  0.2284 -2.8216
  418MOL0     H56400  -0.456   1.149  10.862  2.1055  0.5086  1.8071
  418MOL0     H56401  -0.490   1.307  10.811  2.9721 -2.5853 -0.0934
  418MOL0     H56402  -0.660   1.101  10.936  0.6967  1.3526  1.1563
  418MOL0     H56403  -0.695   1.252  11.025  1.8050 -0.9608  1.9725
  418MOL0     H56404  -0.701   1.241  10.714  0.6140  0.0021  0.0685
  418MOL0     H56405  -0.758   1.363  10.818  0.7619 -1.6139  0.4178
  418MOL0     H56406  -0.859   1.071  10.807 -1.0540 -0.2510  1.3700
  418MOL0     H56407  -0.928   1.181  10.922 -0.0191 -0.9167  0.4686
  418MOL0     H56408  -0.910   1.176  10.619 -2.7811  0.1893 -2.2102
  418MOL0     H56409  -0.982   1.322  10.690 -0.0299 -0.5308  1.7196
  418MOL0     H56410  -1.090   1.038  10.689  0.9814 -1.0543  1.9594
  418MOL0     H56411  -1.162   1.174  10.611 -1.6193 -0.6425  1.4866
  418MOL0     H56412  -0.026   1.164  11.020  2.5338 -0.5709 -0.8781
  418MOL0     H56413   0.184   1.215  11.003 -1.7499 -1.7242  0.1023
  418MOL0     H56414   0.493   1.529  10.720  1.6391 -0.5834 -2.0678
  418MOL0     H56415   0.734   1.591  10.688  1.5816 -1.0388  0.8117
  418MOL0     H56416   1.986   2.900  10.256 -0.2931 -0.4788  0.6081
  418MOL0     H56417   2.196   2.868  10.158  0.2766  0.1706  0.4464
  418MOL0     H56418   2.618   2.836   9.928  0.6564 -0.9056 -0.4575
  418MOL0     H56419   2.846   2.868   9.886  2.1704 -3.5123  0.9211
  418MOL0     H56420   3.061   2.817   9.917 -0.0401  0.4472 -0.5252
  418MOL0     H56421   3.049   2.998   9.934  2.6790  1.4033  1.3451
  418MOL0     H56422   3.299   2.897   9.906  1.7622 -0.7929  0.4545
  418MOL0     H56423   3.273   2.840  10.064  0.2185 -0.6520 -1.9161
  418MOL0     H56424   3.390   3.033  10.095 -0.6155  1.1357  3.4568
  418MOL0     H56425   3.234   3.056  10.152  3.1202 -4.4076  1.3065
  418MOL0     H56426   3.169   3.188   9.978 -0.3876 -3.8710  1.5630
  418MOL0     H56427   3.313   3.161   9.867  1.1478 -0.3477  1.4484
  418MOL0     H56428   3.482   3.438  10.132 -1.0843  0.5739  0.8461
  418MOL0     H56429   2.897   2.883  10.318  1.9671  3.3338 -0.7846
  418MOL0     H56430   2.678   2.794  10.356  1.4472 -1.0631 -0.0163
  419MOL0     O56431   9.909   3.136   5.186 -1.0222  0.7758  0.2733
  419MOL0     C56432  10.006   3.200   5.149  0.0071  0.3967  0.3566
  419MOL0     O56433  10.005   3.327   5.106 -0.5202  0.4489 -0.6411
  419MOL0     C56434   9.880   3.389   5.081  0.9096 -0.1380 -0.0577
  419MOL0     C56435   9.871   3.521   5.121  0.3787  0.3219 -0.1217
  419MOL0     C56436   9.740   3.581   5.118 -0.2295  0.6988  0.0711
  419MOL0     C56437   9.625   3.513   5.076  0.0996  0.0677  0.1486
  419MOL0     O56438   9.490   3.545   5.074 -0.4992  0.4785  0.3743
  419MOL0     C56439   9.455   3.669   5.131 -0.8127  0.9833 -0.2206
  419MOL0     C56440   9.313   3.700   5.095  0.7302 -0.3580  0.3957
  419MOL0     C56441   9.277   3.838   5.155 -0.0069 -0.1926 -0.0068
  419MOL0     C56442   9.137   3.890   5.113  0.7848  0.5393 -0.7620
  419MOL0     C56443   9.108   4.013   5.196 -0.6109 -0.5422  0.1061
  419MOL0     C56444   8.960   4.058   5.154  0.1298  0.4035 -0.5092
  419MOL0     C56445   8.919   4.090   5.012 -0.1756 -0.0780 -0.3142
  419MOL0     C56446   8.825   4.214   5.009  0.0917 -0.1321  0.5151
  419MOL0     N56447   8.904   4.332   5.053  0.4251  0.0340  0.2097
  419MOL0     C56448   9.026   4.375   5.001 -0.2719  0.5326 -0.5208
  419MOL0     C56449   9.044   4.494   5.069  0.3253 -0.5381 -0.6803
  419MOL0     C56450   9.161   4.594   5.047  0.5749 -0.1822 -0.4170
  419MOL0     C56451   9.293   4.537   5.106 -0.0885 -0.2957 -1.4426
  419MOL0     C56452   9.429   4.607   5.075  0.4019  0.5842 -0.2706
  419MOL0     C56453   9.444   4.746   5.145  0.3443  0.6271 -0.2420
  419MOL0     O56454   9.445   4.730   5.290 -0.1796  0.2362  0.2063
  419MOL0     C56455   9.561   4.690   5.351  0.8554  0.1469 -0.2828
  419MOL0     C56456   9.683   4.706   5.298 -0.4624 -0.3134 -0.6049
  419MOL0     C56457   9.796   4.650   5.353 -0.2653 -0.1718 -0.2771
  419MOL0     C56458   9.928   4.679   5.295 -1.1016 -0.7353 -0.0628
  419MOL0     C56459   9.785   4.569   5.466 -0.3071  0.1161  0.0433
  419MOL0     C56460   9.888   4.491   5.518 -1.3019  0.1253 -0.1487
  419MOL0     O56461   9.966   4.412   5.428 -0.4964 -1.0216  0.1005
  419MOL0     C56462  10.080   4.353   5.471  0.2460  0.1949 -0.5897
  419MOL0     C56463  10.143   4.263   5.376  0.2931 -0.6484  0.9726
  419MOL0     C56464  10.252   4.184   5.412 -0.1845  0.8755 -0.6391
  419MOL0     C56465  10.329   4.202   5.534 -0.9069  0.0614  0.1949
  419MOL0     O56466  10.440   4.126   5.553 -0.3965 -0.1873  0.2182
  419MOL0     C56467  10.494   4.124   5.683 -0.9366 -0.2056  0.7611
  419MOL0     C56468  10.610   4.221   5.677 -0.0455  0.2098  0.8809
  419MOL0     C56469  10.673   4.240   5.817 -0.5683 -0.0630  0.8638
  419MOL0     C56470  10.812   4.318   5.797 -0.7365 -0.3961 -0.0813
  419MOL0     C56471  10.885   4.365   5.918  0.0615 -1.1765 -1.4413
  419MOL0     C56472  11.036   4.389   5.895  0.2557 -0.4265  0.3982
  419MOL0     C56473  11.118   4.413   6.025  0.1115  0.3474 -0.1971
  419MOL0     C56474  11.262   4.427   6.013 -0.8815 -0.5824 -0.3478
  419MOL0    Cl56475  11.351   4.296   5.917 -0.1939  0.3188  0.0210
  419MOL0     C56476  10.263   4.290   5.626  0.3526 -0.2448 -0.4045
  419MOL0     C56477  10.137   4.347   5.599 -1.3992 -0.9011 -0.1787
  419MOL0     O56478   9.906   4.507   5.637 -0.4973 -0.4121  0.6858
  419MOL0     C56479   9.659   4.560   5.531 -0.5977  0.4715 -0.0854
  419MOL0     C56480   9.541   4.626   5.477  0.2278 -0.3969  0.4156
  419MOL0     N56481   8.951   4.509   5.169  0.3761  0.2800  0.8981
  419MOL0     N56482   8.873   4.406   5.161  0.0150  0.1669 -0.0692
  419MOL0     C56483   9.637   3.382   5.037  0.0122  0.1238 -0.1940
  419MOL0     C56484   9.763   3.324   5.039  1.2830 -0.0161  0.1802
  419MOL0     C56485  10.134   3.152   5.168  0.5291  0.5663 -0.3657
  419MOL0     C56486  10.149   3.028   5.232  0.0735  0.3116 -0.2637
  419MOL0     C56487  10.275   2.973   5.257  0.1333  0.3600  0.6838
  419MOL0     C56488  10.392   3.043   5.212 -0.1447 -0.7447 -0.5724
  419MOL0     O56489  10.517   2.992   5.229  0.7656  0.2959 -0.3503
  419MOL0     C56490  10.541   2.872   5.305 -0.3550 -0.8047 -0.1451
  419MOL0     C56491  10.695   2.859   5.323 -0.0690 -0.6493 -0.0225
  419MOL0     C56492  10.761   2.822   5.196  0.4855 -0.5361 -0.3913
  419MOL0     C56493  10.897   2.758   5.229 -0.4849  0.1368  0.4012
  419MOL0     C56494  10.998   2.843   5.278 -0.2156 -0.2031 -0.3601
  419MOL0     C56495  11.099   2.910   5.291  0.9123  0.3793  0.0653
  419MOL0     C56496  10.375   3.159   5.143 -0.3714 -0.0612 -0.1971
  419MOL0     C56497  10.248   3.215   5.116  0.3644 -0.1255 -0.3131
  419MOL0     H56498   9.955   3.568   5.170 -0.5431  0.6727  1.1679
  419MOL0     H56499   9.735   3.683   5.154 -1.8065  1.1062 -1.1977
  419MOL0     H56500   9.459   3.655   5.240  0.7883 -0.3475 -0.4118
  419MOL0     H56501   9.520   3.748   5.093 -0.0596  0.2056 -0.5982
  419MOL0     H56502   9.286   3.699   4.989  2.2476  1.8135 -0.0834
  419MOL0     H56503   9.250   3.628   5.148 -1.2874  0.3072 -0.9564
  419MOL0     H56504   9.266   3.831   5.263 -1.1681 -1.7515 -0.1976
  419MOL0     H56505   9.357   3.911   5.135 -1.5091  1.0461 -1.8804
  419MOL0     H56506   9.140   3.921   5.008  0.8727  2.1440 -0.3142
  419MOL0     H56507   9.055   3.822   5.140  1.3096  1.5060  4.0457
  419MOL0     H56508   9.119   3.992   5.303 -2.5093 -0.1108  0.4103
  419MOL0     H56509   9.183   4.087   5.166 -0.2126 -1.2498 -0.6826
  419MOL0     H56510   8.896   3.980   5.196  1.2589 -0.3727 -0.1722
  419MOL0     H56511   8.932   4.144   5.216 -0.6331  0.1856 -0.5433
  419MOL0     H56512   9.017   4.112   4.969  1.7206 -2.3483  2.4708
  419MOL0     H56513   8.879   4.003   4.960 -0.7948 -0.0475  0.1037
  419MOL0     H56514   8.742   4.203   5.080 -0.4702  0.5194 -0.0240
  419MOL0     H56515   8.784   4.232   4.909  1.4037  2.1103  0.3062
  419MOL0     H56516   9.095   4.325   4.935 -0.3009 -1.2285  0.7165
  419MOL0     H56517   9.178   4.614   4.941 -0.0850  2.9047 -0.0061
  419MOL0     H56518   9.129   4.684   5.099 -0.4057  0.4673 -2.0886
  419MOL0     H56519   9.317   4.436   5.072  2.6508  0.0096 -0.6845
  419MOL0     H56520   9.272   4.535   5.214  1.6072 -2.3869 -1.0761
  419MOL0     H56521   9.435   4.617   4.966  2.2642 -3.7013 -0.7970
  419MOL0     H56522   9.511   4.541   5.107 -0.9328 -2.1329 -2.0901
  419MOL0     H56523   9.370   4.822   5.117  1.2103  1.7819  0.4781
  419MOL0     H56524   9.531   4.792   5.097  0.1913  2.3354  1.0221
  419MOL0     H56525   9.701   4.772   5.214  2.5950  1.1397  1.0543
  419MOL0     H56526   9.971   4.603   5.229  0.5692  0.1651 -0.0672
  419MOL0     H56527   9.935   4.779   5.253  0.8999  0.3740  2.6429
  419MOL0     H56528  10.006   4.671   5.371 -0.0143  2.6831 -0.6952
  419MOL0     H56529  10.094   4.237   5.283 -1.9528  0.5742  1.7506
  419MOL0     H56530  10.277   4.102   5.345  2.2587 -0.0738  1.2515
  419MOL0     H56531  10.422   4.155   5.759 -2.0689  0.0821 -0.4105
  419MOL0     H56532  10.530   4.022   5.698  1.9058  0.1880 -2.2954
  419MOL0     H56533  10.684   4.177   5.611  1.7853 -0.3513  3.1939
  419MOL0     H56534  10.582   4.322   5.644 -0.1227 -0.0858  0.0145
  419MOL0     H56535  10.701   4.142   5.857  1.3219 -2.0059 -4.3344
  419MOL0     H56536  10.610   4.302   5.881  0.5785  2.2002 -0.0833
  419MOL0     H56537  10.871   4.260   5.726 -0.7105 -2.6559  1.6490
  419MOL0     H56538  10.787   4.415   5.753 -1.2830  0.8209  2.6918
  419MOL0     H56539  10.863   4.292   5.997 -1.5546 -0.3960 -1.1215
  419MOL0     H56540  10.836   4.457   5.951 -0.1004 -0.6645 -3.0307
  419MOL0     H56541  11.068   4.304   5.833  0.1598 -0.5029  0.4527
  419MOL0     H56542  11.053   4.479   5.835  1.5583 -0.0005  1.3755
  419MOL0     H56543  11.088   4.337   6.098 -1.8632  3.6674  2.7488
  419MOL0     H56544  11.089   4.506   6.074  0.7731 -0.4618  1.8541
  419MOL0     H56545  11.303   4.427   6.115 -1.5635 -0.1763 -0.0664
  419MOL0     H56546  11.289   4.529   5.982 -0.1611  0.6443  3.6855
  419MOL0     H56547  10.311   4.304   5.722  0.9442 -1.8557 -0.4389
  419MOL0     H56548  10.107   4.409   5.683  0.4166  0.7208 -0.6530
  419MOL0     H56549   9.655   4.493   5.616 -1.8146 -0.7779 -1.0595
  419MOL0     H56550   9.441   4.617   5.518  0.7473  2.1208  2.5491
  419MOL0     H56551   9.555   3.319   5.005 -0.2773  0.5041 -0.2050
  419MOL0     H56552   9.770   3.219   5.011  1.6073 -0.0334  0.3306
  419MOL0     H56553  10.062   2.967   5.254 -0.1093  0.7906  0.3490
  419MOL0     H56554  10.279   2.889   5.326  1.1423  0.0382  0.2502
  419MOL0     H56555  10.488   2.880   5.401  2.4662  1.1885  1.3877
  419MOL0     H56556  10.509   2.782   5.252 -0.2392 -1.5259  0.9846
  419MOL0     H56557  10.724   2.782   5.395 -1.4701 -1.5372 -0.3832
  419MOL0     H56558  10.720   2.961   5.353 -0.0925 -0.8909  0.8342
  419MOL0     H56559  10.783   2.913   5.138  1.8415 -0.0832  0.7655
  419MOL0     H56560  10.700   2.756   5.134 -0.8469  2.9903 -3.1972
  419MOL0     H56561  10.943   2.720   5.138  0.5979  0.4165  0.8150
  419MOL0     H56562  10.892   2.672   5.296  1.2631 -1.6831 -1.6775
  419MOL0     H56563  11.195   2.957   5.297  0.4106  1.2552  1.6866
  419MOL0     H56564  10.464   3.218   5.124  0.6373 -1.6043 -0.4615
  419MOL0     H56565  10.251   3.310   5.063  1.0680  0.5878  0.9568
  420MOL0     O56566   7.549   8.406   4.861  0.2789 -0.2783  0.8789
  420MOL0     C56567   7.520   8.374   4.745  0.1238  0.2695 -0.6038
  420MOL0     O56568   7.400   8.325   4.699 -0.6381 -0.5921 -0.5052
  420MOL0     C56569   7.296   8.286   4.788 -1.0900  0.1061  0.2724
  420MOL0     C56570   7.172   8.301   4.741  0.1528 -0.2200  0.0443
  420MOL0     C56571   7.061   8.275   4.815 -0.4345  0.1682  0.4009
  420MOL0     C56572   7.072   8.221   4.939  0.3364 -0.0627 -0.1785
  420MOL0     O56573   6.947   8.195   4.993 -0.2359 -0.1168  1.1743
  420MOL0     C56574   6.947   8.171   5.136 -0.4933  0.6440 -0.6795
  420MOL0     C56575   6.798   8.150   5.172 -0.4475  0.3331  0.0080
  420MOL0     C56576   6.781   8.021   5.263 -0.4349  1.1374 -0.2606
  420MOL0     C56577   6.817   7.890   5.198 -0.3562  0.3541  0.5599
  420MOL0     C56578   6.807   7.752   5.281  0.0835 -0.4835  0.7925
  420MOL0     C56579   6.803   7.632   5.183 -0.2968 -0.1097 -0.1125
  420MOL0     C56580   6.942   7.606   5.119 -0.1215  0.1508 -0.1827
  420MOL0     C56581   6.971   7.461   5.072  0.2117 -0.2134  0.3132
  420MOL0     N56582   6.866   7.423   4.967  0.4879 -0.6983  0.0824
  420MOL0     C56583   6.768   7.314   4.976  0.0440 -0.7947  0.9278
  420MOL0     C56584   6.706   7.328   4.854  0.0974  0.2266 -0.2805
  420MOL0     C56585   6.603   7.242   4.790  0.3304  0.3788 -0.5667
  420MOL0     C56586   6.464   7.290   4.818  0.2246 -0.5851  0.1107
  420MOL0     C56587   6.433   7.431   4.763 -0.4969 -0.4287 -0.7098
  420MOL0     C56588   6.291   7.487   4.792  0.7240 -0.5007 -0.4944
  420MOL0     O56589   6.248   7.478   4.934  0.0144 -0.0257 -0.2587
  420MOL0     C56590   6.124   7.486   4.970  0.1758 -0.1766 -0.5390
  420MOL0     C56591   6.091   7.469   5.111 -1.1644  0.2973 -0.1129
  420MOL0     C56592   5.958   7.474   5.163  0.2536  0.4129 -0.3064
  420MOL0     C56593   5.939   7.479   5.316  0.3504 -0.6009 -0.7911
  420MOL0     C56594   5.855   7.480   5.063 -0.2827  0.5177 -0.2036
  420MOL0     C56595   5.703   7.469   5.090  0.4507  0.2571 -0.5611
  420MOL0     O56596   5.631   7.438   4.978  0.5558 -0.9779 -0.7856
  420MOL0     C56597   5.495   7.407   4.991 -0.6903  0.6736  0.1756
  420MOL0     C56598   5.382   7.493   4.995 -0.4403 -0.7732  0.2890
  420MOL0     C56599   5.258   7.447   5.043  0.0620 -0.0271  0.4444
  420MOL0     C56600   5.233   7.313   5.081  0.3452 -0.9028 -0.5170
  420MOL0     O56601   5.107   7.291   5.146 -0.9729 -0.6370  0.1561
  420MOL0     C56602   5.087   7.165   5.211 -0.5419 -0.1640 -0.0873
  420MOL0     C56603   5.056   7.056   5.103  0.2822  0.4310  0.3222
  420MOL0     C56604   4.904   7.072   5.064 -0.8267 -0.0941 -0.2583
  420MOL0     C56605   4.843   6.956   4.993  0.1993 -1.2591  0.5509
  420MOL0     C56606   4.704   6.998   4.930 -0.3493  0.1658  0.3779
  420MOL0     C56607   4.604   7.030   5.043  0.2076  0.5051 -0.8009
  420MOL0     C56608   4.475   7.073   4.973  0.1509  0.6436 -0.9459
  420MOL0     C56609   4.361   7.127   5.060 -0.0592 -0.3545 -0.1463
  420MOL0    Cl56610   4.277   6.984   5.107 -0.2511  0.8925 -0.0168
  420MOL0     C56611   5.351   7.235   5.078 -0.0976  0.5098 -0.2979
  420MOL0     C56612   5.471   7.274   5.032 -0.4203 -0.1846 -0.1960
  420MOL0     O56613   5.650   7.503   5.200  0.0164  0.3824  0.1610
  420MOL0     C56614   5.887   7.503   4.926  0.1200  0.4126  0.0684
  420MOL0     C56615   6.020   7.503   4.877  0.0613  0.2036  0.4625
  420MOL0     N56616   6.764   7.437   4.785  0.3472  0.2787  0.3820
  420MOL0     N56617   6.853   7.496   4.855 -0.6029  0.2007 -0.0279
  420MOL0     C56618   7.203   8.192   4.986  0.5411  1.0522  0.5193
  420MOL0     C56619   7.311   8.225   4.913 -0.6243 -0.5968 -0.6069
  420MOL0     C56620   7.619   8.384   4.637  0.2279 -0.5567  0.2317
  420MOL0     C56621   7.743   8.447   4.664 -0.0339 -0.1195 -0.7649
  420MOL0     C56622   7.855   8.446   4.572 -0.2345 -0.2616  0.6823
  420MOL0     C56623   7.839   8.396   4.445  0.2881  0.0953 -0.3303
  420MOL0     O56624   7.949   8.414   4.356  0.3339 -0.2270 -0.7440
  420MOL0     C56625   7.948   8.360   4.226 -0.3819 -1.0964 -0.3799
  420MOL0     C56626   7.951   8.209   4.221  0.5770  0.8362  0.2345
  420MOL0     C56627   8.073   8.170   4.303 -0.5999  0.7355 -0.4616
  420MOL0     C56628   8.108   8.031   4.262 -0.2929  0.8296 -0.5942
  420MOL0     C56629   8.207   7.972   4.353 -0.4322 -1.0534  0.8888
  420MOL0     C56630   8.276   7.916   4.436 -0.1427  0.7174 -0.0101
  420MOL0     C56631   7.712   8.344   4.410  0.4731 -0.8349  0.3214
  420MOL0     C56632   7.603   8.338   4.503  0.3086 -0.6453  0.4477
  420MOL0     H56633   7.147   8.335   4.641 -0.1321  1.2891  0.6180
  420MOL0     H56634   6.959   8.285   4.777 -0.5898  0.3693  0.8556
  420MOL0     H56635   7.016   8.093   5.170 -0.1097  1.0462 -0.5216
  420MOL0     H56636   6.979   8.266   5.179 -0.7380 -0.1149  1.2592
  420MOL0     H56637   6.755   8.237   5.222 -1.9658 -0.7516  0.7100
  420MOL0     H56638   6.745   8.136   5.078  0.3617 -0.7242 -0.3070
  420MOL0     H56639   6.839   8.041   5.354  1.9963  2.4452 -2.0072
  420MOL0     H56640   6.677   8.010   5.293 -0.3105 -1.0735 -0.4926
  420MOL0     H56641   6.771   7.872   5.101  0.5494 -2.9991  0.6248
  420MOL0     H56642   6.923   7.893   5.172 -0.6882  0.5771 -0.8188
  420MOL0     H56643   6.889   7.757   5.353 -1.6022  3.1019  2.7456
  420MOL0     H56644   6.714   7.762   5.337 -1.3619 -0.3539 -1.5089
  420MOL0     H56645   6.787   7.540   5.239 -0.6549 -0.9758 -1.5835
  420MOL0     H56646   6.720   7.631   5.112 -0.9133 -1.8061  0.5876
  420MOL0     H56647   6.953   7.672   5.033  1.4645  1.4982  0.9915
  420MOL0     H56648   7.016   7.633   5.195 -1.7369 -1.6090  2.1668
  420MOL0     H56649   6.963   7.395   5.159 -2.8134  0.8947  0.9743
  420MOL0     H56650   7.069   7.452   5.024  0.7513  2.5098  0.7382
  420MOL0     H56651   6.754   7.244   5.058 -1.1635 -0.0579  1.3669
  420MOL0     H56652   6.630   7.236   4.685  0.1946  0.1925 -0.5915
  420MOL0     H56653   6.618   7.144   4.836  2.0623  2.3620  3.6766
  420MOL0     H56654   6.453   7.297   4.927 -0.7567  0.0674 -0.0218
  420MOL0     H56655   6.381   7.229   4.780 -1.2711  0.4600  1.5401
  420MOL0     H56656   6.437   7.427   4.653  4.1820 -2.6852 -0.7163
  420MOL0     H56657   6.506   7.496   4.812 -2.0674 -0.5209  1.8785
  420MOL0     H56658   6.218   7.438   4.727  0.1646 -0.9410  0.4420
  420MOL0     H56659   6.289   7.594   4.768  3.5968 -0.3754 -0.4587
  420MOL0     H56660   6.169   7.454   5.185  0.5824 -4.5310 -2.4905
  420MOL0     H56661   6.038   7.500   5.358 -0.8291  1.8672  1.0435
  420MOL0     H56662   5.872   7.563   5.342  0.5125 -0.5638 -0.4855
  420MOL0     H56663   5.899   7.391   5.368  2.4919  0.5774  3.3407
  420MOL0     H56664   5.377   7.596   4.962  0.6566 -0.5928  0.6553
  420MOL0     H56665   5.178   7.520   5.042 -0.4580 -0.5690 -0.9991
  420MOL0     H56666   5.179   7.154   5.270 -1.1228 -1.0815  0.6822
  420MOL0     H56667   5.004   7.170   5.282 -1.1992 -0.5973 -0.8123
  420MOL0     H56668   5.118   7.054   5.012 -1.8050 -1.1079 -1.1750
  420MOL0     H56669   5.061   6.955   5.144 -2.9657  0.2182  0.4215
  420MOL0     H56670   4.899   7.163   5.004 -2.0901  2.9424  3.9175
  420MOL0     H56671   4.855   7.097   5.159  3.1013 -1.4006  2.3615
  420MOL0     H56672   4.918   6.923   4.921  1.7640 -2.2427  2.5485
  420MOL0     H56673   4.826   6.877   5.067  1.6798 -1.7737  0.3750
  420MOL0     H56674   4.675   6.909   4.873  2.9419 -2.2384  2.1063
  420MOL0     H56675   4.717   7.078   4.856  0.0960 -4.5882 -5.4460
  420MOL0     H56676   4.591   6.943   5.109 -1.5255 -0.6820 -2.5997
  420MOL0     H56677   4.642   7.116   5.099  0.2856  0.9275 -1.4969
  420MOL0     H56678   4.429   6.994   4.914 -2.1515 -0.7411  2.4100
  420MOL0     H56679   4.507   7.159   4.913  3.0497  3.3427  3.8612
  420MOL0     H56680   4.297   7.196   5.004 -0.3929 -0.6862 -0.1776
  420MOL0     H56681   4.401   7.187   5.143  1.6826 -1.3115 -0.2525
  420MOL0     H56682   5.349   7.143   5.134 -2.3086  0.2462 -0.7072
  420MOL0     H56683   5.560   7.213   5.040 -0.1246  0.2177 -0.3915
  420MOL0     H56684   5.811   7.512   4.848  2.0668 -0.3918 -2.0114
  420MOL0     H56685   6.022   7.521   4.770 -1.2526 -1.7237  0.0683
  420MOL0     H56686   7.216   8.149   5.085 -0.6145  0.3104  0.3632
  420MOL0     H56687   7.408   8.195   4.952  0.0479 -1.2433 -2.6436
  420MOL0     H56688   7.759   8.493   4.761  1.6536  0.6538 -1.3705
  420MOL0     H56689   7.952   8.490   4.596 -0.0968 -1.0170  1.5916
  420MOL0     H56690   7.860   8.407   4.181 -0.7020 -0.1790  1.1467
  420MOL0     H56691   8.041   8.392   4.176 -0.7010  1.2841  0.4104
  420MOL0     H56692   7.961   8.188   4.114 -1.2145 -2.8352  0.6376
  420MOL0     H56693   7.860   8.161   4.258  0.1702  0.0181 -1.6723
  420MOL0     H56694   8.059   8.182   4.411  1.7495  6.0092 -0.4537
  420MOL0     H56695   8.153   8.242   4.285 -1.6906  1.8099 -1.1671
  420MOL0     H56696   8.149   8.023   4.161 -1.8066 -1.5095 -1.1035
  420MOL0     H56697   8.018   7.969   4.264 -0.5827  1.2613  0.8165
  420MOL0     H56698   8.323   7.871   4.521  0.6003 -0.9937 -1.2687
  420MOL0     H56699   7.699   8.306   4.309  2.0828 -2.7719  0.7886
  420MOL0     H56700   7.516   8.281   4.472  2.1509 -2.2963 -2.1638
  421MOL0     O56701   6.407   7.047   6.021  0.8760 -0.5708 -0.0995
  421MOL0     C56702   6.479   7.039   5.925 -0.0886  0.1025  0.2587
  421MOL0     O56703   6.461   7.102   5.803 -0.9222 -0.0586 -0.6015
  421MOL0     C56704   6.347   7.169   5.773  1.1911 -0.4189  0.5628
  421MOL0     C56705   6.270   7.156   5.653  0.1626  0.3386 -0.1662
  421MOL0     C56706   6.156   7.229   5.623  0.1904  0.1800 -0.3121
  421MOL0     C56707   6.104   7.322   5.716  0.5820 -0.1692  1.2738
  421MOL0     O56708   6.006   7.406   5.670 -0.1049 -0.2963  0.0784
  421MOL0     C56709   5.938   7.479   5.766 -0.6327  0.2679 -0.2835
  421MOL0     C56710   5.810   7.527   5.695 -0.3595 -0.2036 -0.4213
  421MOL0     C56711   5.738   7.645   5.762  0.9983  1.0046 -0.2083
  421MOL0     C56712   5.604   7.667   5.704 -0.4819  0.5785  0.1168
  421MOL0     C56713   5.549   7.810   5.744  0.0520  0.7338  0.5903
  421MOL0     C56714   5.396   7.807   5.735 -0.2418  0.5828 -0.5752
  421MOL0     C56715   5.310   7.929   5.763  0.2540  0.3129  1.1773
  421MOL0     C56716   5.162   7.879   5.765  0.0658 -0.3812  0.3625
  421MOL0     N56717   5.061   7.980   5.776 -0.3572 -0.3409  0.3933
  421MOL0     C56718   5.022   8.041   5.895 -0.2316 -1.0587  0.2029
  421MOL0     C56719   4.903   8.102   5.863 -0.1746  0.2092 -0.0559
  421MOL0     C56720   4.827   8.157   5.984 -0.5309 -0.2040 -0.3361
  421MOL0     C56721   4.670   8.138   5.977  0.1012 -0.6250 -0.5396
  421MOL0     C56722   4.616   8.190   6.115  0.0123  1.1551  0.2416
  421MOL0     C56723   4.468   8.154   6.126 -0.0345  0.2608 -0.4303
  421MOL0     O56724   4.425   8.139   6.254 -0.0276 -0.2676 -0.9679
  421MOL0     C56725   4.353   8.245   6.311  0.0148  0.3641  0.2222
  421MOL0     C56726   4.264   8.212   6.420 -0.4038  0.0831  1.1579
  421MOL0     C56727   4.175   8.306   6.476  0.9940 -0.7683  0.9727
  421MOL0     C56728   4.099   8.271   6.603 -0.6092  0.7549  0.4813
  421MOL0     C56729   4.152   8.433   6.415  0.1982 -0.6856  0.3790
  421MOL0     C56730   4.049   8.530   6.450 -0.0775  0.0988 -0.1207
  421MOL0     O56731   4.027   8.543   6.582  0.4214  0.5494  0.5503
  421MOL0     C56732   3.932   8.638   6.630 -0.2573 -0.3649 -0.9424
  421MOL0     C56733   3.933   8.666   6.764 -0.2444  0.2982 -0.3459
  421MOL0     C56734   3.856   8.762   6.830  0.2480  0.1834  0.4161
  421MOL0     C56735   3.743   8.806   6.760  0.5284 -0.5353  0.0784
  421MOL0     O56736   3.661   8.900   6.815  0.2721 -0.2167  0.1885
  421MOL0     C56737   3.664   8.944   6.953 -0.5032  0.1771 -0.0630
  421MOL0     C56738   3.796   9.033   6.974  0.7045 -0.8818 -0.2364
  421MOL0     C56739   3.782   9.138   7.094 -0.5539  0.0454  0.6177
  421MOL0     C56740   3.895   9.239   7.098 -0.4076  0.6304  0.1615
  421MOL0     C56741   3.866   9.340   7.209  0.0752 -0.1058 -0.9521
  421MOL0     C56742   3.967   9.451   7.205  0.0435  0.6808 -0.1907
  421MOL0     C56743   3.950   9.554   7.318 -0.4730  0.5870 -0.0168
  421MOL0     C56744   4.039   9.679   7.286 -0.4600 -0.5045  0.4175
  421MOL0    Cl56745   3.963   9.792   7.172  0.5059 -0.4318 -0.3075
  421MOL0     C56746   3.724   8.770   6.622 -0.2562 -0.1346 -0.2740
  421MOL0     C56747   3.819   8.680   6.561  0.6551 -0.6265  0.1013
  421MOL0     O56748   3.997   8.587   6.353  0.2972  0.3535  0.4813
  421MOL0     C56749   4.239   8.462   6.313  0.1351 -0.4822 -0.1636
  421MOL0     C56750   4.347   8.375   6.262 -0.7572  0.1525 -0.3980
  421MOL0     N56751   4.870   8.092   5.727 -0.5469 -0.2672  1.0211
  421MOL0     N56752   4.967   8.023   5.680  0.6633  0.6728  0.3281
  421MOL0     C56753   6.176   7.348   5.829 -0.0221 -0.4221  0.9721
  421MOL0     C56754   6.292   7.268   5.860  0.1541 -0.3047  0.5818
  421MOL0     C56755   6.603   6.947   5.939  0.4145 -0.4957 -0.2401
  421MOL0     C56756   6.692   6.937   5.828  0.2104  0.6433  0.6781
  421MOL0     C56757   6.812   6.866   5.838 -0.2820 -0.8004 -0.1199
  421MOL0     C56758   6.836   6.786   5.957  0.3510 -0.7722 -0.6022
  421MOL0     O56759   6.954   6.711   5.951  1.1536  0.1425  0.1683
  421MOL0     C56760   7.033   6.689   6.063 -0.1007  0.3116 -0.0353
  421MOL0     C56761   7.003   6.540   6.111 -0.2007  0.5726 -0.4749
  421MOL0     C56762   7.109   6.490   6.210  0.0906  0.1568 -0.4305
  421MOL0     C56763   7.239   6.458   6.149  0.0811  0.1694  0.8561
  421MOL0     C56764   7.331   6.406   6.246  0.7573  0.0958  0.1963
  421MOL0     C56765   7.392   6.341   6.341 -0.5365 -0.7141  0.5940
  421MOL0     C56766   6.745   6.791   6.059 -0.6292 -0.2477 -1.0301
  421MOL0     C56767   6.638   6.873   6.050 -0.0532 -0.9973 -0.1341
  421MOL0     H56768   6.305   7.077   5.587  1.3922  0.0147  0.8317
  421MOL0     H56769   6.105   7.227   5.527  1.7458  3.1111 -1.3331
  421MOL0     H56770   5.914   7.425   5.858  1.4411  0.1230  0.2302
  421MOL0     H56771   5.995   7.562   5.807  0.9846 -1.1703  0.5146
  421MOL0     H56772   5.846   7.553   5.595  0.4860 -2.4825 -0.7699
  421MOL0     H56773   5.742   7.442   5.681 -2.3371  0.4010  3.9198
  421MOL0     H56774   5.700   7.614   5.860  1.5693 -1.7648 -0.8062
  421MOL0     H56775   5.797   7.738   5.760  0.3802  1.4801  1.6621
  421MOL0     H56776   5.616   7.666   5.595  0.9325  0.3786  0.2613
  421MOL0     H56777   5.527   7.591   5.722 -1.3520  0.4649 -3.2300
  421MOL0     H56778   5.580   7.818   5.849  1.0308 -2.5610  0.6618
  421MOL0     H56779   5.588   7.892   5.683 -0.5152  1.2971  0.9610
  421MOL0     H56780   5.378   7.773   5.633 -1.9188  0.0327 -0.1376
  421MOL0     H56781   5.360   7.729   5.803  0.6460  0.6446 -0.0130
  421MOL0     H56782   5.316   7.977   5.861 -1.8018 -3.2050  3.2645
  421MOL0     H56783   5.323   8.001   5.682 -0.2624 -0.8489  0.0207
  421MOL0     H56784   5.155   7.809   5.849  2.6513 -1.9947 -0.6679
  421MOL0     H56785   5.132   7.833   5.670  0.2141  3.3878 -1.7284
  421MOL0     H56786   5.085   8.027   5.983  1.0728  0.1030 -0.5121
  421MOL0     H56787   4.857   8.108   6.077 -1.1633  2.0232  1.1231
  421MOL0     H56788   4.836   8.264   6.005  0.2076 -0.2573 -0.3711
  421MOL0     H56789   4.644   8.037   5.947 -0.8745  0.0292 -2.0118
  421MOL0     H56790   4.622   8.199   5.900 -0.3065  0.5879  0.6405
  421MOL0     H56791   4.629   8.296   6.136 -0.1711  1.1042  0.6212
  421MOL0     H56792   4.662   8.124   6.190 -2.1609 -1.6608 -0.7125
  421MOL0     H56793   4.458   8.057   6.076 -0.2622  1.7588 -3.5433
  421MOL0     H56794   4.418   8.234   6.072  0.5606  2.0460  1.5535
  421MOL0     H56795   4.274   8.113   6.463  1.1338  1.0375  3.1652
  421MOL0     H56796   4.145   8.315   6.692  0.7953  2.4642 -0.9938
  421MOL0     H56797   3.995   8.305   6.598 -0.3008  2.2296  2.7958
  421MOL0     H56798   4.103   8.163   6.617 -1.8564  0.6609  0.2547
  421MOL0     H56799   4.025   8.632   6.811  0.2529  0.4401 -1.1913
  421MOL0     H56800   3.863   8.776   6.937 -0.6536  2.1133  0.2663
  421MOL0     H56801   3.571   8.997   6.973 -0.3733 -0.3177  2.1796
  421MOL0     H56802   3.673   8.864   7.027  2.5617 -0.9777 -1.5074
  421MOL0     H56803   3.879   8.968   7.004  0.3580 -0.3240  2.1127
  421MOL0     H56804   3.828   9.072   6.877 -0.7547 -2.0666 -1.2419
  421MOL0     H56805   3.792   9.079   7.186 -1.9286  0.3887  1.0197
  421MOL0     H56806   3.686   9.190   7.103 -0.2071  0.6656  0.8156
  421MOL0     H56807   3.995   9.196   7.109 -0.3260  0.1355 -2.0697
  421MOL0     H56808   3.885   9.297   7.006  1.6478  0.5223 -0.1840
  421MOL0     H56809   3.877   9.303   7.312 -0.1219  2.9701  0.2637
  421MOL0     H56810   3.764   9.375   7.196 -0.4770 -1.6904 -1.1176
  421MOL0     H56811   4.067   9.407   7.197  0.6118  2.0343 -0.9020
  421MOL0     H56812   3.951   9.508   7.113 -0.3618  0.4611 -0.2551
  421MOL0     H56813   3.985   9.521   7.416  3.5084 -2.0883 -2.0681
  421MOL0     H56814   3.848   9.592   7.331 -0.5071  0.0832  1.3704
  421MOL0     H56815   4.133   9.653   7.235 -0.9948  0.9443 -1.4185
  421MOL0     H56816   4.044   9.739   7.377 -0.4841  0.6939 -0.3554
  421MOL0     H56817   3.639   8.814   6.571 -1.4928 -1.2698  0.7064
  421MOL0     H56818   3.786   8.652   6.461 -1.6176  3.0441 -0.3734
  421MOL0     H56819   4.248   8.559   6.263 -1.2449  0.1749  0.7978
  421MOL0     H56820   4.422   8.408   6.191 -1.7315  0.6938 -1.2191
  421MOL0     H56821   6.151   7.433   5.893 -0.6654 -0.6130  0.9771
  421MOL0     H56822   6.349   7.300   5.947  0.2970  0.1034  0.3404
  421MOL0     H56823   6.650   6.982   5.738  1.7294 -2.9042 -2.0616
  421MOL0     H56824   6.883   6.843   5.759  0.6554  0.7876  0.2214
  421MOL0     H56825   7.140   6.699   6.042 -0.3632  1.8647 -0.7849
  421MOL0     H56826   7.013   6.752   6.150 -0.1420 -1.6446  1.4361
  421MOL0     H56827   6.998   6.473   6.025  0.7985  0.1780 -0.2338
  421MOL0     H56828   6.903   6.537   6.156 -0.8030  0.3122 -1.8042
  421MOL0     H56829   7.066   6.413   6.274 -2.2974  0.3815 -1.6440
  421MOL0     H56830   7.135   6.574   6.276  3.4569 -1.2204  0.1896
  421MOL0     H56831   7.286   6.543   6.098  3.4981 -2.6447 -1.1426
  421MOL0     H56832   7.218   6.376   6.080 -1.6057 -1.3491  3.0227
  421MOL0     H56833   7.436   6.281   6.418  1.6376  2.0694  1.6918
  421MOL0     H56834   6.759   6.711   6.131 -1.1013 -0.4050 -1.1142
  421MOL0     H56835   6.566   6.885   6.131 -0.1669  2.9674 -0.6443
  422MOL0     O56836   3.240  10.898   1.576  0.0220  0.1168  0.4204
  422MOL0     C56837   3.264  10.990   1.654  0.3153  0.0368 -0.3016
  422MOL0     O56838   3.203  11.111   1.658  0.2361 -0.1604  0.4052
  422MOL0     C56839   3.082  11.133   1.595  0.0050 -0.4636 -0.3651
  422MOL0     C56840   3.029  11.257   1.633  1.0945  0.2403  0.3897
  422MOL0     C56841   2.897  11.297   1.590 -0.4073  1.1422 -0.2145
  422MOL0     C56842   2.824  11.215   1.510 -0.2264 -0.3380  0.8859
  422MOL0     O56843   2.704  11.269   1.466  0.3312 -0.3259 -0.1477
  422MOL0     C56844   2.664  11.240   1.337 -0.3961 -0.1106  0.7812
  422MOL0     C56845   2.547  11.337   1.299  0.6324  0.2224  0.6141
  422MOL0     C56846   2.453  11.273   1.194 -0.0406  0.6444 -0.4247
  422MOL0     C56847   2.342  11.354   1.131 -0.0625  0.1154 -0.5625
  422MOL0     C56848   2.234  11.375   1.236  0.4437  0.7965 -0.0544
  422MOL0     C56849   2.116  11.439   1.167 -0.6010  0.2152 -0.4161
  422MOL0     C56850   2.005  11.340   1.126 -0.1539 -0.1209  0.4477
  422MOL0     C56851   1.881  11.425   1.058 -0.0948 -0.7460  0.5426
  422MOL0     N56852   1.772  11.339   1.019 -1.1330  0.1674 -1.2673
  422MOL0     C56853   1.746  11.275   0.899 -0.9125 -0.0294  0.4230
  422MOL0     C56854   1.644  11.192   0.923 -0.1324  0.3584 -0.8374
  422MOL0     C56855   1.575  11.100   0.827 -0.3352 -0.1832 -0.4600
  422MOL0     C56856   1.639  11.103   0.688  0.1259  0.0502  0.8855
  422MOL0     C56857   1.737  10.987   0.667 -0.0443 -0.0166 -0.7008
  422MOL0     C56858   1.851  11.019   0.569 -0.2585  0.1103 -0.3189
  422MOL0     O56859   1.946  11.119   0.601 -0.4986  0.3746 -0.0717
  422MOL0     C56860   2.056  11.070   0.677  0.6096 -0.8614  1.2091
  422MOL0     C56861   2.177  11.096   0.622  0.3665  0.0933 -0.2211
  422MOL0     C56862   2.300  11.088   0.694 -0.4918  1.2983  0.2005
  422MOL0     C56863   2.426  11.113   0.617  0.4754  0.7885 -0.1900
  422MOL0     C56864   2.287  11.044   0.835 -0.1643  0.3977 -0.3195
  422MOL0     C56865   2.396  11.005   0.926 -0.3114  0.0467 -0.2285
  422MOL0     O56866   2.367  10.912   1.021 -0.9078 -0.3602 -0.0758
  422MOL0     C56867   2.467  10.838   1.075  0.0070 -0.3625  0.1160
  422MOL0     C56868   2.458  10.830   1.211 -0.0510 -1.2805 -0.7646
  422MOL0     C56869   2.557  10.759   1.285  0.1584 -0.5117 -0.0080
  422MOL0     C56870   2.672  10.706   1.225  0.8494  1.0431  0.1270
  422MOL0     O56871   2.762  10.638   1.291  0.0402  0.2939  0.7623
  422MOL0     C56872   2.740  10.612   1.431 -0.8737 -0.1789  0.3576
  422MOL0     C56873   2.857  10.524   1.483  0.4655  0.1849  1.1889
  422MOL0     C56874   2.978  10.594   1.514  0.0909  0.7958 -0.0319
  422MOL0     C56875   3.074  10.494   1.582  0.2996  0.5899 -0.7216
  422MOL0     C56876   3.215  10.555   1.618 -0.3348 -0.4530  0.6042
  422MOL0     C56877   3.314  10.466   1.683  1.0502 -0.3844 -0.1212
  422MOL0     C56878   3.349  10.345   1.604 -0.6791  0.1831 -0.0316
  422MOL0     C56879   3.438  10.246   1.688 -0.4537 -1.0043  0.3796
  422MOL0    Cl56880   3.588  10.330   1.759  0.8160 -0.2701 -0.2381
  422MOL0     C56881   2.677  10.708   1.080  0.0917 -0.8197 -0.2553
  422MOL0     C56882   2.573  10.775   1.005  0.2960 -0.6141 -0.7340
  422MOL0     O56883   2.511  11.061   0.911 -0.0829 -0.0664  0.4826
  422MOL0     C56884   2.159  11.030   0.890 -0.0344 -0.8579  0.9647
  422MOL0     C56885   2.045  11.049   0.810  0.1089 -0.0952 -0.4406
  422MOL0     N56886   1.601  11.204   1.060 -1.2147 -0.2908  0.0666
  422MOL0     N56887   1.673  11.297   1.107  0.1169 -0.2280  0.0988
  422MOL0     C56888   2.880  11.100   1.463  0.6992 -0.0907  0.0749
  422MOL0     C56889   3.005  11.057   1.499 -0.4224 -0.3371  0.5022
  422MOL0     C56890   3.363  10.963   1.762  0.3712 -0.4277  0.6032
  422MOL0     C56891   3.367  11.059   1.867  0.7150  0.3872 -0.2005
  422MOL0     C56892   3.460  11.031   1.969  1.0585  0.0821  1.0796
  422MOL0     C56893   3.540  10.918   1.978 -0.5770 -0.6478 -0.5027
  422MOL0     O56894   3.610  10.898   2.089  0.2527  0.2646 -0.2674
  422MOL0     C56895   3.585  10.964   2.210  0.9219 -0.3635 -0.0010
  422MOL0     C56896   3.678  10.931   2.317 -0.0515 -0.1894  0.8978
  422MOL0     C56897   3.755  11.060   2.370 -0.3372 -0.8737 -0.8357
  422MOL0     C56898   3.872  11.015   2.468  0.0839  0.4034 -0.3122
  422MOL0     C56899   3.909  11.122   2.568  0.1203  0.2583 -0.3623
  422MOL0     C56900   3.946  11.215   2.639 -0.2774 -0.6321  0.3381
  422MOL0     C56901   3.544  10.834   1.871  0.8054  0.5836  0.4991
  422MOL0     C56902   3.453  10.846   1.767  0.3592 -1.1493  0.3775
  422MOL0     H56903   3.102  11.323   1.680  3.0573 -0.8548 -0.9391
  422MOL0     H56904   2.849  11.388   1.625 -4.0798 -1.0258  0.8281
  422MOL0     H56905   2.741  11.241   1.260 -2.0029  0.5354 -0.9030
  422MOL0     H56906   2.623  11.138   1.337  1.8811 -1.1503 -1.6930
  422MOL0     H56907   2.486  11.352   1.388  0.7980  2.0437  0.4610
  422MOL0     H56908   2.564  11.439   1.262 -3.4609  0.8298 -0.0949
  422MOL0     H56909   2.507  11.227   1.111 -0.7174  0.3213 -0.6899
  422MOL0     H56910   2.408  11.188   1.245 -0.7660  2.7319  2.7389
  422MOL0     H56911   2.383  11.452   1.104 -0.2198 -0.1956 -2.0163
  422MOL0     H56912   2.305  11.305   1.041 -1.4800 -1.5476  0.8474
  422MOL0     H56913   2.206  11.279   1.280  1.1678 -0.2642 -1.8182
  422MOL0     H56914   2.267  11.445   1.313 -2.2575  2.8795 -0.6521
  422MOL0     H56915   2.072  11.499   1.247  0.4441 -0.8329  0.9990
  422MOL0     H56916   2.147  11.489   1.075 -0.6444 -1.3266 -1.3049
  422MOL0     H56917   2.041  11.267   1.053 -1.0492  2.8038 -3.2268
  422MOL0     H56918   1.955  11.294   1.212 -4.8838 -1.6472 -2.6685
  422MOL0     H56919   1.906  11.477   0.965 -1.6216 -1.2909 -0.2056
  422MOL0     H56920   1.846  11.502   1.127 -3.5541 -1.4527 -0.2576
  422MOL0     H56921   1.807  11.275   0.809 -0.4437 -0.9600  0.7370
  422MOL0     H56922   1.577  11.001   0.874  0.1558 -0.9624 -2.0828
  422MOL0     H56923   1.471  11.132   0.815 -0.0166  1.3167  0.4541
  422MOL0     H56924   1.684  11.197   0.653  0.4618 -1.6892 -4.1889
  422MOL0     H56925   1.561  11.076   0.617  2.1003 -3.3875 -0.1808
  422MOL0     H56926   1.692  10.896   0.628 -1.0296  0.3418 -0.4215
  422MOL0     H56927   1.775  10.956   0.765 -4.1121 -0.5871  0.9002
  422MOL0     H56928   1.801  11.069   0.485 -0.1015  4.5310  1.9426
  422MOL0     H56929   1.904  10.933   0.525 -1.0365  0.4373 -2.0115
  422MOL0     H56930   2.186  11.125   0.518  0.8901  0.8906  0.0377
  422MOL0     H56931   2.429  11.052   0.527 -2.2446  0.1373  0.0980
  422MOL0     H56932   2.421  11.217   0.583 -0.6127  0.5109 -0.9202
  422MOL0     H56933   2.510  11.096   0.685 -0.6650  0.2806  1.1318
  422MOL0     H56934   2.383  10.884   1.267  0.9341  0.5460 -1.1321
  422MOL0     H56935   2.530  10.755   1.390 -4.2547 -0.7078 -0.9229
  422MOL0     H56936   2.746  10.703   1.491 -0.0818 -0.6059  0.9516
  422MOL0     H56937   2.651  10.554   1.455  0.5880 -3.4123 -1.3012
  422MOL0     H56938   2.814  10.488   1.577  1.2216 -1.6121  0.8900
  422MOL0     H56939   2.877  10.440   1.416 -0.0891  0.8527  0.1556
  422MOL0     H56940   2.956  10.675   1.585  0.1247 -2.8706  4.6408
  422MOL0     H56941   3.028  10.625   1.422  3.8339 -1.9734  0.8274
  422MOL0     H56942   3.012  10.464   1.667 -1.4925  1.3839 -1.6963
  422MOL0     H56943   3.092  10.407   1.518 -2.5084 -0.7235  0.1110
  422MOL0     H56944   3.192  10.636   1.687 -0.8520  0.1387 -0.2510
  422MOL0     H56945   3.260  10.598   1.528 -3.4800  1.9364 -0.0034
  422MOL0     H56946   3.403  10.518   1.719 -0.8764  0.9513  3.3053
  422MOL0     H56947   3.249  10.438   1.767  1.0712 -1.5751 -0.4809
  422MOL0     H56948   3.409  10.385   1.521 -0.9701  0.6038 -0.0451
  422MOL0     H56949   3.257  10.304   1.560 -0.1014 -1.1128 -0.0812
  422MOL0     H56950   3.461  10.163   1.621  1.1992  2.3690 -3.6511
  422MOL0     H56951   3.376  10.217   1.774 -2.7351  2.5130  0.1413
  422MOL0     H56952   2.754  10.652   1.030  0.1572  0.6709 -1.9424
  422MOL0     H56953   2.561  10.766   0.897 -1.2079 -0.2254 -0.6219
  422MOL0     H56954   2.146  10.989   0.990  1.5383 -3.8702  0.0733
  422MOL0     H56955   1.942  11.044   0.846 -0.1099 -0.4862 -1.1090
  422MOL0     H56956   2.819  11.046   1.391 -1.2686  3.9875 -1.6192
  422MOL0     H56957   3.047  10.970   1.450 -2.1147 -1.2197  0.5414
  422MOL0     H56958   3.291  11.135   1.880 -1.4043 -1.0829 -2.8760
  422MOL0     H56959   3.475  11.113   2.038  0.7344 -0.7497  2.1730
  422MOL0     H56960   3.583  11.072   2.196  2.2393 -0.6897 -3.7062
  422MOL0     H56961   3.494  10.925   2.257  2.5770 -0.7191  3.2161
  422MOL0     H56962   3.755  10.862   2.279 -0.5782 -0.3774  0.1506
  422MOL0     H56963   3.627  10.872   2.394  0.4434 -0.0274  1.3600
  422MOL0     H56964   3.680  11.118   2.426  3.1377  2.6712  0.6861
  422MOL0     H56965   3.792  11.116   2.284 -1.1507  1.1821  0.0766
  422MOL0     H56966   3.961  10.988   2.412  1.5937  1.5081  1.4436
  422MOL0     H56967   3.860  10.931   2.537  0.1478  0.6632  0.0192
  422MOL0     H56968   3.983  11.295   2.699 -1.7516 -0.8518  1.6106
  422MOL0     H56969   3.613  10.754   1.848  0.2864  0.4294 -0.5684
  422MOL0     H56970   3.448  10.770   1.689  1.9634 -1.0746  0.1788
  423MOL0     O56971   5.055  10.585   2.985 -0.3620 -0.3581  0.4112
  423MOL0     C56972   5.176  10.563   2.981  0.1318  0.1124  1.0080
  423MOL0     O56973   5.241  10.463   3.040  0.0823  0.2629 -0.0654
  423MOL0     C56974   5.166  10.380   3.120  0.6083 -0.2427 -0.4287
  423MOL0     C56975   5.067  10.287   3.085  0.1216 -0.6212  0.6297
  423MOL0     C56976   4.977  10.230   3.173  0.2178  0.3040 -0.1291
  423MOL0     C56977   4.987  10.263   3.306  0.4768  0.1721  0.2817
  423MOL0     O56978   4.907  10.202   3.409 -0.1547  0.3366 -0.5523
  423MOL0     C56979   4.990  10.098   3.472 -0.2180  0.2341 -0.2767
  423MOL0     C56980   4.903   9.993   3.547 -0.6410 -0.1082  0.9322
  423MOL0     C56981   4.829  10.077   3.643 -0.3918  0.0372 -0.9528
  423MOL0     C56982   4.753   9.984   3.749 -0.2320 -0.6417  0.4513
  423MOL0     C56983   4.683  10.057   3.861  0.4145  0.0014  0.4247
  423MOL0     C56984   4.619   9.959   3.958 -0.2030  0.3597  0.6440
  423MOL0     C56985   4.543  10.030   4.065 -0.2994  0.6432 -1.0353
  423MOL0     C56986   4.524   9.928   4.186 -0.5812  0.5740  0.1113
  423MOL0     N56987   4.384   9.872   4.193  0.0493 -0.9215 -0.1992
  423MOL0     C56988   4.281   9.931   4.261  0.1052 -0.3226  0.0203
  423MOL0     C56989   4.173   9.842   4.256  0.0277 -0.0591  0.3771
  423MOL0     C56990   4.046   9.883   4.309 -0.2018  0.4789  0.3376
  423MOL0     C56991   4.039   9.877   4.458 -0.1715 -0.2800 -0.1511
  423MOL0     C56992   3.928   9.963   4.509  0.7368 -0.3401  0.5840
  423MOL0     C56993   3.778   9.927   4.483 -0.5507 -0.4480 -0.1238
  423MOL0     O56994   3.690   9.999   4.571 -0.0809  0.0269 -0.0521
  423MOL0     C56995   3.590   9.928   4.622  0.2333  1.1187  0.8386
  423MOL0     C56996   3.509   9.848   4.540 -0.8983  0.1371 -0.0098
  423MOL0     C56997   3.392   9.789   4.576  0.3224  0.5498  0.5637
  423MOL0     C56998   3.304   9.740   4.465 -0.8167 -0.3740 -0.1554
  423MOL0     C56999   3.359   9.785   4.717 -0.6877 -0.1442  0.8576
  423MOL0     C57000   3.231   9.718   4.771 -0.8136 -0.9603  0.1136
  423MOL0     O57001   3.202   9.602   4.718  0.2842 -0.3561 -0.1102
  423MOL0     C57002   3.094   9.539   4.782 -0.0687 -1.0162 -0.2860
  423MOL0     C57003   2.963   9.567   4.740  0.3140 -0.1847 -0.3110
  423MOL0     C57004   2.852   9.510   4.807  0.2013  0.9601  0.1281
  423MOL0     C57005   2.870   9.429   4.914 -0.5311 -0.0272  0.0782
  423MOL0     O57006   2.765   9.397   4.993 -0.2908 -0.1541  0.0239
  423MOL0     C57007   2.784   9.329   5.121 -0.0371 -0.2545  0.5556
  423MOL0     C57008   2.650   9.345   5.193 -0.3740  1.1421  0.4206
  423MOL0     C57009   2.544   9.241   5.170 -0.2466  0.3560 -0.7803
  423MOL0     C57010   2.428   9.277   5.265 -0.1861  0.0506 -0.1399
  423MOL0     C57011   2.291   9.227   5.221 -0.1833  0.1142  1.1652
  423MOL0     C57012   2.183   9.290   5.306  0.1812 -0.1650 -0.1760
  423MOL0     C57013   2.167   9.214   5.436  0.1248 -0.0904 -0.0213
  423MOL0     C57014   2.058   9.267   5.532  0.4811 -0.1180 -0.9573
  423MOL0    Cl57015   1.898   9.237   5.461 -0.0365  0.1072 -0.0922
  423MOL0     C57016   3.004   9.390   4.947  0.5427  0.3527 -0.1986
  423MOL0     C57017   3.117   9.447   4.886  1.1634  0.0687 -0.3220
  423MOL0     O57018   3.175   9.768   4.866 -0.4421 -0.1856 -0.1122
  423MOL0     C57019   3.441   9.866   4.802  0.2714  1.2342  0.3410
  423MOL0     C57020   3.541   9.946   4.751 -0.5353 -0.2403  0.1497
  423MOL0     N57021   4.211   9.731   4.186  0.0810 -0.1092  0.4473
  423MOL0     N57022   4.336   9.754   4.155  0.1559  0.1694 -0.1031
  423MOL0     C57023   5.093  10.347   3.344 -0.3949  0.3791  0.3161
  423MOL0     C57024   5.170  10.409   3.248  0.0889  0.5145 -0.5655
  423MOL0     C57025   5.268  10.653   2.912 -0.6215 -0.2662  1.0430
  423MOL0     C57026   5.222  10.751   2.821 -1.1218 -1.2290 -0.1102
  423MOL0     C57027   5.318  10.830   2.755  0.3990 -0.9975 -0.1972
  423MOL0     C57028   5.459  10.819   2.770 -0.8899 -0.2070 -0.1650
  423MOL0     O57029   5.534  10.899   2.685  0.5560 -0.8998 -0.2826
  423MOL0     C57030   5.663  10.954   2.721  0.0331  0.1787  0.2382
  423MOL0     C57031   5.760  10.846   2.667 -0.3404  0.2462  0.0694
  423MOL0     C57032   5.748  10.828   2.513 -0.3356 -0.9580  0.3141
  423MOL0     C57033   5.857  10.739   2.467 -0.3092  0.4423 -0.1370
  423MOL0     C57034   5.842  10.713   2.322 -1.1730  0.9621  0.8846
  423MOL0     C57035   5.839  10.723   2.205  0.9986  0.4275 -0.1729
  423MOL0     C57036   5.504  10.719   2.864  0.4728  0.2293 -0.1697
  423MOL0     C57037   5.407  10.636   2.933  1.2329  0.7040  0.0202
  423MOL0     H57038   5.062  10.261   2.979 -0.6123  1.4994  0.1021
  423MOL0     H57039   4.899  10.161   3.145 -0.8609  1.3967  0.1040
  423MOL0     H57040   5.030  10.040   3.388 -0.3341 -1.4429  0.7872
  423MOL0     H57041   5.073  10.138   3.531 -0.2807 -0.1798  0.0897
  423MOL0     H57042   4.840   9.939   3.475 -0.5309  1.2259 -0.1946
  423MOL0     H57043   4.968   9.924   3.602  0.6311 -0.1416 -0.5404
  423MOL0     H57044   4.892  10.149   3.696  0.7538 -1.4787 -0.1766
  423MOL0     H57045   4.749  10.129   3.590 -3.6907 -2.8322  0.7928
  423MOL0     H57046   4.688   9.919   3.690  0.4315  0.8586 -2.0734
  423MOL0     H57047   4.821   9.923   3.810  1.6453  0.3150 -0.6015
  423MOL0     H57048   4.755  10.117   3.918 -1.4312  0.9364  1.8792
  423MOL0     H57049   4.613  10.131   3.820  0.8543 -0.3428 -1.0062
  423MOL0     H57050   4.544   9.899   3.906  0.0444 -1.3578  2.1697
  423MOL0     H57051   4.696   9.891   3.997  1.2853  1.7818  0.3387
  423MOL0     H57052   4.608  10.115   4.086  0.5669  0.0382 -1.2064
  423MOL0     H57053   4.450  10.079   4.034  0.9397  1.7149 -3.2963
  423MOL0     H57054   4.552   9.980   4.278 -0.2618 -0.6657  0.7361
  423MOL0     H57055   4.588   9.841   4.174 -0.9710  0.5167 -2.1387
  423MOL0     H57056   4.280  10.030   4.304  0.8701 -0.7547  1.0719
  423MOL0     H57057   4.026   9.988   4.284  0.9461  1.1421  2.0263
  423MOL0     H57058   3.979   9.814   4.257  2.6719 -1.2711 -1.3297
  423MOL0     H57059   4.139   9.908   4.492 -0.9325  3.0499 -0.6115
  423MOL0     H57060   4.022   9.774   4.491  2.4543 -0.5390  0.6201
  423MOL0     H57061   3.955  10.065   4.481  0.5059 -0.8408 -1.6939
  423MOL0     H57062   3.946   9.966   4.617  0.6734 -1.3496  0.6398
  423MOL0     H57063   3.763   9.818   4.480 -2.6928 -0.1852 -1.4971
  423MOL0     H57064   3.757   9.959   4.380 -0.9158 -0.4961 -0.0657
  423MOL0     H57065   3.541   9.832   4.438 -3.6944  0.1589 -0.9769
  423MOL0     H57066   3.204   9.765   4.501 -0.5263 -2.0198  2.0254
  423MOL0     H57067   3.322   9.790   4.369 -0.6394  2.8199  1.4310
  423MOL0     H57068   3.298   9.633   4.443 -3.7357  0.1472 -2.5493
  423MOL0     H57069   2.943   9.635   4.658  0.0538 -0.2031 -0.2629
  423MOL0     H57070   2.750   9.542   4.792 -1.3409 -2.3740  2.3013
  423MOL0     H57071   2.785   9.221   5.109 -1.3420 -0.3860  1.3645
  423MOL0     H57072   2.863   9.376   5.180  1.5617  0.0226 -1.6740
  423MOL0     H57073   2.682   9.335   5.298  0.5400  0.4518  0.0873
  423MOL0     H57074   2.617   9.448   5.180  2.4310  1.9693 -0.7993
  423MOL0     H57075   2.588   9.147   5.204  2.6939  1.2743 -1.7249
  423MOL0     H57076   2.520   9.230   5.064  1.6327  0.8116 -1.3077
  423MOL0     H57077   2.449   9.253   5.370 -1.6731  0.4483  0.2775
  423MOL0     H57078   2.417   9.386   5.268  1.6206  0.2617 -0.2039
  423MOL0     H57079   2.300   9.118   5.230  3.3837  0.2107  0.3958
  423MOL0     H57080   2.285   9.251   5.115 -1.2768 -2.9933  0.4263
  423MOL0     H57081   2.197   9.398   5.315 -1.9150  0.1116  0.2707
  423MOL0     H57082   2.086   9.279   5.258  1.6764 -0.6211 -3.3573
  423MOL0     H57083   2.264   9.211   5.488 -0.3415  1.6229  1.0443
  423MOL0     H57084   2.137   9.112   5.410  1.7996 -0.5381 -0.2953
  423MOL0     H57085   2.077   9.371   5.559 -1.4740  0.1150 -0.3401
  423MOL0     H57086   2.067   9.214   5.627 -2.1870  0.0249 -0.5529
  423MOL0     H57087   3.042   9.330   5.029 -0.6162  0.6964  0.6140
  423MOL0     H57088   3.217   9.422   4.921  0.2519  2.0777  4.5785
  423MOL0     H57089   3.400   9.883   4.901 -4.0528 -3.2183 -0.3015
  423MOL0     H57090   3.587  10.025   4.809 -0.3450  0.7010 -1.2327
  423MOL0     H57091   5.119  10.348   3.449  0.0353 -2.6589  0.3418
  423MOL0     H57092   5.227  10.498   3.272 -0.2593  0.3862  0.8381
  423MOL0     H57093   5.115  10.770   2.814 -0.8296  0.4485 -0.2325
  423MOL0     H57094   5.274  10.899   2.683  0.5760  0.0068  0.6421
  423MOL0     H57095   5.689  11.051   2.679 -3.8589  0.3560 -2.3217
  423MOL0     H57096   5.678  10.954   2.829  0.6248  0.4777  0.1604
  423MOL0     H57097   5.731  10.753   2.717  0.5815 -0.2065 -0.2182
  423MOL0     H57098   5.861  10.865   2.702  0.0989 -1.0133 -0.4579
  423MOL0     H57099   5.745  10.923   2.459  0.7178  0.3591  2.4543
  423MOL0     H57100   5.647  10.795   2.487 -1.1424  3.0882 -2.5816
  423MOL0     H57101   5.846  10.645   2.523 -0.0648  0.5733  0.1311
  423MOL0     H57102   5.953  10.789   2.480  1.3577 -1.5549 -3.5175
  423MOL0     H57103   5.843  10.753   2.102  0.3276  1.7659  0.1568
  423MOL0     H57104   5.602  10.699   2.907 -0.1849 -1.8363  0.4792
  423MOL0     H57105   5.447  10.565   3.005  2.2100 -0.8784 -1.9487
  424MOL0     O57106   6.483  10.914   7.945 -0.4098  0.1310  0.5833
  424MOL0     C57107   6.500  10.988   7.842  0.1438  0.1480 -0.3116
  424MOL0     O57108   6.411  11.090   7.799 -0.3725 -1.0673  0.0435
  424MOL0     C57109   6.292  11.121   7.864  0.1050  0.1937  0.9658
  424MOL0     C57110   6.271  11.251   7.905 -0.0960  0.5463  0.4369
  424MOL0     C57111   6.153  11.277   7.968  0.6015  0.5630 -0.0696
  424MOL0     C57112   6.047  11.173   7.989 -1.1753 -0.8090 -0.0193
  424MOL0     O57113   5.934  11.207   8.053  0.1097  0.2329  0.0098
  424MOL0     C57114   5.801  11.151   8.016 -0.3583  1.1666  1.2234
  424MOL0     C57115   5.699  11.267   8.026 -0.5934  0.6634 -0.2935
  424MOL0     C57116   5.738  11.384   7.928  0.7848 -0.3049 -0.9175
  424MOL0     C57117   5.677  11.511   7.989  0.6897 -0.4752 -0.1960
  424MOL0     C57118   5.710  11.648   7.918 -0.1369  0.3261 -0.1779
  424MOL0     C57119   5.644  11.675   7.786 -0.4940  0.1709 -0.8281
  424MOL0     C57120   5.664  11.815   7.749 -0.6919 -0.1186  0.2409
  424MOL0     C57121   5.798  11.845   7.678 -0.0887  0.6500 -0.3561
  424MOL0     N57122   5.809  11.984   7.634 -0.2293  1.3988  1.3763
  424MOL0     C57123   5.897  12.009   7.533 -0.1843  0.3301 -0.1883
  424MOL0     C57124   5.870  12.133   7.505  0.5710  0.5562  0.1306
  424MOL0     C57125   5.918  12.211   7.397 -0.2422 -0.4271 -0.2524
  424MOL0     C57126   6.073  12.228   7.409  0.4936 -0.1607 -0.1210
  424MOL0     C57127   6.139  12.326   7.520 -0.3027 -0.1040  0.4460
  424MOL0     C57128   6.044  12.412   7.605  0.4649 -0.8340  0.6326
  424MOL0     O57129   5.960  12.498   7.521 -0.4469 -0.0105 -0.3791
  424MOL0     C57130   5.851  12.565   7.567  0.1136 -0.9870  1.2566
  424MOL0     C57131   5.811  12.663   7.483  0.3990 -0.7605 -0.2521
  424MOL0     C57132   5.716  12.764   7.517 -0.2154 -0.6641 -0.5143
  424MOL0     C57133   5.683  12.877   7.421 -0.1683 -0.3762 -0.5500
  424MOL0     C57134   5.653  12.744   7.644  0.4829 -0.6905  0.0025
  424MOL0     C57135   5.543  12.825   7.705 -0.4119 -0.2108  0.5142
  424MOL0     O57136   5.514  12.814   7.842 -0.7541  0.1382 -0.3571
  424MOL0     C57137   5.400  12.875   7.893 -0.3157  0.2794 -0.3383
  424MOL0     C57138   5.279  12.811   7.910 -0.1799  0.6508 -0.6484
  424MOL0     C57139   5.164  12.874   7.948  0.3723  0.2577 -0.1072
  424MOL0     C57140   5.165  13.009   7.963 -0.4661  0.2241  0.2001
  424MOL0     O57141   5.047  13.060   8.004  0.6544  0.3824  0.4978
  424MOL0     C57142   5.017  13.197   7.960 -0.2589 -0.1234 -0.1915
  424MOL0     C57143   4.871  13.230   7.962  0.3395 -0.4466 -0.2709
  424MOL0     C57144   4.814  13.371   7.922  0.5557  0.3336  0.3892
  424MOL0     C57145   4.832  13.401   7.766 -1.1864 -0.7019 -0.5456
  424MOL0     C57146   4.766  13.531   7.740 -0.3461 -0.0095 -0.3381
  424MOL0     C57147   4.617  13.531   7.775  0.5238 -0.1403  1.1699
  424MOL0     C57148   4.529  13.620   7.689 -0.4421  1.3436  0.2112
  424MOL0     C57149   4.559  13.759   7.706  0.1605  0.4342 -0.3445
  424MOL0    Cl57150   4.703  13.813   7.607  0.0014 -0.0487 -0.2379
  424MOL0     C57151   5.289  13.075   7.949  0.7880 -0.2881  0.0748
  424MOL0     C57152   5.404  13.005   7.922 -0.1650  0.6662 -0.6879
  424MOL0     O57153   5.483  12.910   7.632 -0.0838  0.7258  0.8298
  424MOL0     C57154   5.691  12.633   7.730  0.5449 -0.6390  0.1785
  424MOL0     C57155   5.787  12.544   7.684  0.6565 -0.0498 -0.6351
  424MOL0     N57156   5.766  12.182   7.589 -0.2322  0.2318 -0.6185
  424MOL0     N57157   5.728  12.083   7.663 -0.6614 -0.0224 -0.3443
  424MOL0     C57158   6.069  11.046   7.945 -0.6466 -0.7498  0.3185
  424MOL0     C57159   6.191  11.026   7.872 -0.0359  0.2646 -0.0745
  424MOL0     C57160   6.621  10.960   7.761  0.2788  0.3862 -0.0351
  424MOL0     C57161   6.710  10.860   7.796  1.0533  0.0175 -0.5737
  424MOL0     C57162   6.823  10.834   7.714  0.4434  0.0913  0.7352
  424MOL0     C57163   6.835  10.898   7.594 -1.2339  0.4624  1.1505
  424MOL0     O57164   6.950  10.871   7.514 -0.3419  0.2747 -0.7836
  424MOL0     C57165   7.067  10.947   7.560 -0.1868 -0.4312 -0.7137
  424MOL0     C57166   7.199  10.895   7.491  1.7062 -0.4040  0.5561
  424MOL0     C57167   7.249  10.763   7.547 -0.7013 -0.2141 -0.4893
  424MOL0     C57168   7.317  10.669   7.444  0.7571 -0.3518  0.0055
  424MOL0     C57169   7.446  10.723   7.385 -0.1106  0.2343 -0.1048
  424MOL0     C57170   7.542  10.776   7.329 -0.0381 -0.2084 -0.0945
  424MOL0     C57171   6.751  11.004   7.566 -0.6505  0.8909  0.3099
  424MOL0     C57172   6.651  11.044   7.645 -0.0267 -0.5723 -0.3057
  424MOL0     H57173   6.346  11.329   7.894  0.5160 -0.0358  0.4440
  424MOL0     H57174   6.137  11.374   8.014  2.3637  0.1390  1.5515
  424MOL0     H57175   5.789  11.107   7.917 -2.1430 -0.9683  2.3050
  424MOL0     H57176   5.784  11.065   8.081  2.4576 -0.7225 -0.3454
  424MOL0     H57177   5.599  11.232   7.998 -0.6148  1.8440 -1.8730
  424MOL0     H57178   5.696  11.303   8.129 -1.1751 -2.6822  0.9667
  424MOL0     H57179   5.847  11.395   7.918  0.8697  0.4217  0.4844
  424MOL0     H57180   5.695  11.372   7.828  0.1540  1.9439 -0.9648
  424MOL0     H57181   5.571  11.495   8.009  1.0146  0.9680  3.4876
  424MOL0     H57182   5.717  11.522   8.091  0.8082 -1.1794 -0.1644
  424MOL0     H57183   5.692  11.731   7.986  1.7219  2.1151 -1.7491
  424MOL0     H57184   5.817  11.645   7.893  0.9315 -0.1747  3.8218
  424MOL0     H57185   5.689  11.616   7.705 -1.9011  0.8604 -2.1635
  424MOL0     H57186   5.536  11.661   7.799  0.0078 -1.0750  3.4629
  424MOL0     H57187   5.586  11.844   7.678 -1.0041 -1.9558 -0.2344
  424MOL0     H57188   5.643  11.883   7.832 -0.8058 -1.8885  1.7521
  424MOL0     H57189   5.803  11.779   7.590  0.2832 -1.0796  0.9078
  424MOL0     H57190   5.878  11.826   7.750  1.4889 -1.8609 -2.5561
  424MOL0     H57191   5.960  11.948   7.470 -1.3535  0.5156 -1.5935
  424MOL0     H57192   5.892  12.157   7.305 -2.4120 -0.8768  0.5600
  424MOL0     H57193   5.871  12.310   7.395 -1.5271 -0.7798  3.6162
  424MOL0     H57194   6.097  12.277   7.314  0.4708  0.7713  0.3445
  424MOL0     H57195   6.121  12.130   7.406  0.2556 -0.3627  1.5327
  424MOL0     H57196   6.214  12.391   7.472 -2.3647  2.4623  0.4852
  424MOL0     H57197   6.189  12.253   7.584  0.8691 -0.0051 -0.3083
  424MOL0     H57198   6.091  12.485   7.673  0.3290  0.4180 -0.5685
  424MOL0     H57199   5.988  12.338   7.662  0.2949 -0.8699  0.4159
  424MOL0     H57200   5.859  12.668   7.386  0.8683 -1.5422 -0.0672
  424MOL0     H57201   5.761  12.871   7.344  0.5020 -2.7149  0.2207
  424MOL0     H57202   5.588  12.872   7.368  0.5932  2.5070 -2.4512
  424MOL0     H57203   5.681  12.977   7.465 -0.0870 -0.1136 -1.1335
  424MOL0     H57204   5.284  12.705   7.885  1.1611  0.8115 -1.1471
  424MOL0     H57205   5.067  12.825   7.946 -1.1619  3.0926 -0.8268
  424MOL0     H57206   5.069  13.266   8.027  0.2204  2.7067 -3.2611
  424MOL0     H57207   5.056  13.215   7.860  0.5029  0.2465  0.1628
  424MOL0     H57208   4.815  13.162   7.899 -0.4014 -0.4613  0.3875
  424MOL0     H57209   4.847  13.221   8.069  2.0459 -1.9344  0.0405
  424MOL0     H57210   4.856  13.447   7.990  0.3555  0.5382  0.2851
  424MOL0     H57211   4.708  13.368   7.947  0.3569  0.1498 -0.4467
  424MOL0     H57212   4.939  13.405   7.746 -0.7098  1.1601  1.9694
  424MOL0     H57213   4.776  13.323   7.712 -0.6940 -2.2218  1.0401
  424MOL0     H57214   4.779  13.550   7.633  1.9616 -0.3115 -0.1796
  424MOL0     H57215   4.823  13.610   7.790 -0.0408 -1.1605  1.2273
  424MOL0     H57216   4.580  13.428   7.765 -1.3882  0.4396  1.8297
  424MOL0     H57217   4.590  13.554   7.879 -2.0428 -1.6859  0.9295
  424MOL0     H57218   4.425  13.598   7.714 -0.1497 -1.4282 -0.6567
  424MOL0     H57219   4.535  13.591   7.583 -0.4869  3.4796 -0.4113
  424MOL0     H57220   4.566  13.784   7.812  0.3997  2.9122 -0.8724
  424MOL0     H57221   4.466  13.809   7.675 -0.1955  1.3379  1.9875
  424MOL0     H57222   5.293  13.181   7.972 -1.5117 -0.2946  0.7499
  424MOL0     H57223   5.500  13.053   7.911 -0.8956  1.6040 -4.3137
  424MOL0     H57224   5.638  12.616   7.823  0.2933  3.6654  1.0460
  424MOL0     H57225   5.827  12.463   7.745  1.7505  1.3991  0.6590
  424MOL0     H57226   5.995  10.967   7.949 -1.4442  0.0204  1.1437
  424MOL0     H57227   6.196  10.937   7.810 -1.4220 -0.2731  0.5651
  424MOL0     H57228   6.669  10.790   7.868 -3.5015  2.4412 -0.4785
  424MOL0     H57229   6.882  10.745   7.732 -0.2374 -0.6335 -0.4898
  424MOL0     H57230   7.056  11.052   7.531  1.8967 -0.2654 -1.0576
  424MOL0     H57231   7.080  10.940   7.669 -0.0258 -2.3795 -0.8231
  424MOL0     H57232   7.281  10.967   7.499  2.6644 -1.2927 -0.7778
  424MOL0     H57233   7.178  10.865   7.388  3.7185 -0.6326  0.1724
  424MOL0     H57234   7.164  10.717   7.599 -0.7391  0.7460  0.3276
  424MOL0     H57235   7.328  10.772   7.622  0.7160  0.2108 -1.9652
  424MOL0     H57236   7.246  10.652   7.363  0.7928  0.5908 -0.2287
  424MOL0     H57237   7.337  10.571   7.488  0.2669  0.1962  1.5160
  424MOL0     H57238   7.618  10.844   7.295  0.4867 -0.1152  1.1887
  424MOL0     H57239   6.755  11.054   7.470 -2.5170  1.6433  0.5738
  424MOL0     H57240   6.585  11.120   7.604  1.0776  1.4918  1.5228
  425MOL0     O57241   8.955   9.207   5.539 -0.1521 -0.2005  0.5844
  425MOL0     C57242   8.987   9.282   5.631  0.4059 -0.4664  0.0427
  425MOL0     O57243   9.121   9.304   5.668  0.6852  0.5538  0.0427
  425MOL0     C57244   9.214   9.294   5.573  0.1903  0.0652 -0.1446
  425MOL0     C57245   9.214   9.389   5.472 -0.0131 -0.3242  0.1167
  425MOL0     C57246   9.327   9.388   5.393  1.6885 -0.3268 -0.1218
  425MOL0     C57247   9.432   9.291   5.404  0.7869  0.9080  0.1016
  425MOL0     O57248   9.539   9.298   5.315 -0.9487 -0.4790 -0.4611
  425MOL0     C57249   9.535   9.422   5.239 -0.3957  0.2753  0.1042
  425MOL0     C57250   9.657   9.440   5.147 -0.3757  0.5196 -0.0554
  425MOL0     C57251   9.788   9.400   5.234 -0.5774  0.4072  0.7845
  425MOL0     C57252   9.917   9.422   5.146  0.6691 -0.1201 -0.1191
  425MOL0     C57253  10.052   9.415   5.220  0.7072  0.2887  0.3987
  425MOL0     C57254  10.122   9.555   5.214  0.2290 -1.0316 -0.4422
  425MOL0     C57255  10.175   9.574   5.076 -0.2552 -0.5698 -0.4491
  425MOL0     C57256  10.170   9.726   5.046 -0.2125 -0.6770  1.0196
  425MOL0     N57257  10.243   9.804   5.141 -0.8165  0.8268  0.6615
  425MOL0     C57258  10.377   9.796   5.154  0.7732  0.4881 -0.0800
  425MOL0     C57259  10.403   9.865   5.268  0.2510 -0.5363 -0.8741
  425MOL0     C57260  10.538   9.867   5.347 -0.1083  0.2759 -0.3525
  425MOL0     C57261  10.581   9.728   5.384 -0.2442  1.0149  0.8841
  425MOL0     C57262  10.536   9.660   5.509 -0.1110 -0.3810  0.1522
  425MOL0     C57263  10.399   9.614   5.511 -0.4414 -0.5681  0.2940
  425MOL0     O57264  10.368   9.550   5.638  0.1486  0.5477  0.5303
  425MOL0     C57265  10.236   9.544   5.674 -0.7367 -0.3022  0.4355
  425MOL0     C57266  10.220   9.474   5.790  0.0569  0.4807 -0.9576
  425MOL0     C57267  10.103   9.459   5.863  0.7733 -1.1361 -0.4343
  425MOL0     C57268  10.117   9.372   5.983  0.0172  0.5833 -0.5096
  425MOL0     C57269   9.986   9.509   5.798 -0.2678 -0.8518  0.5215
  425MOL0     C57270   9.851   9.487   5.857  0.3054  0.1737 -0.6857
  425MOL0     O57271   9.740   9.531   5.792  0.0505 -0.2474 -0.8507
  425MOL0     C57272   9.611   9.502   5.852 -0.4704  0.5031 -0.2223
  425MOL0     C57273   9.528   9.394   5.808 -0.1868 -0.3566 -0.0134
  425MOL0     C57274   9.409   9.356   5.869 -0.3295 -0.4477 -0.0530
  425MOL0     C57275   9.380   9.421   5.988  0.4056 -0.2214 -0.2316
  425MOL0     O57276   9.257   9.406   6.047 -0.6129  0.0106 -0.6924
  425MOL0     C57277   9.277   9.333   6.171  0.2200 -0.3029 -0.3497
  425MOL0     C57278   9.149   9.333   6.254 -0.1538  0.7338  0.3447
  425MOL0     C57279   9.131   9.467   6.341  1.0357 -0.0141  0.2966
  425MOL0     C57280   9.003   9.484   6.420 -0.1862  0.4090  0.3479
  425MOL0     C57281   8.986   9.625   6.472 -0.2807  0.9776 -0.0047
  425MOL0     C57282   8.854   9.657   6.534 -0.3719  0.9127  0.9253
  425MOL0     C57283   8.871   9.797   6.604  0.7995  0.1524 -0.1069
  425MOL0     C57284   8.777   9.798   6.730 -0.0612  0.1119  0.5416
  425MOL0    Cl57285   8.789   9.963   6.806 -0.1077 -0.2857  0.0958
  425MOL0     C57286   9.473   9.506   6.049  0.3139  0.5755  0.4737
  425MOL0     C57287   9.579   9.555   5.976 -0.7717 -0.2615  0.4445
  425MOL0     O57288   9.845   9.434   5.965 -0.2887 -0.6771  0.0943
  425MOL0     C57289  10.002   9.592   5.675 -0.0346  0.6950 -1.1897
  425MOL0     C57290  10.124   9.602   5.611 -0.3051  0.5916 -0.3685
  425MOL0     N57291  10.281   9.919   5.314  0.3522 -0.1338 -0.0949
  425MOL0     N57292  10.192   9.879   5.233 -0.1475 -0.1408 -0.4624
  425MOL0     C57293   9.423   9.193   5.503  0.3596  0.2965 -0.5383
  425MOL0     C57294   9.316   9.194   5.588 -0.1406 -0.6750 -0.3701
  425MOL0     C57295   8.882   9.343   5.733  0.4130 -0.0981 -0.0550
  425MOL0     C57296   8.934   9.415   5.846 -0.5761  0.3541  0.0383
  425MOL0     C57297   8.863   9.462   5.950  1.4336 -1.2226  0.0216
  425MOL0     C57298   8.725   9.436   5.959  0.1262  0.7899 -0.7867
  425MOL0     O57299   8.672   9.461   6.081 -0.4599 -0.2818  0.1202
  425MOL0     C57300   8.538   9.419   6.106  0.2809 -0.4339 -0.0020
  425MOL0     C57301   8.490   9.495   6.238  0.5205  0.6012  0.4996
  425MOL0     C57302   8.574   9.432   6.361 -0.5882 -0.3666  0.0850
  425MOL0     C57303   8.501   9.459   6.488 -0.6424  0.4520 -0.3707
  425MOL0     C57304   8.455   9.597   6.511  0.4611 -0.0973  1.1476
  425MOL0     C57305   8.420   9.712   6.537  0.2606 -0.2160 -0.2954
  425MOL0     C57306   8.667   9.379   5.844 -0.6693  0.2939 -0.8441
  425MOL0     C57307   8.745   9.326   5.739 -0.0462 -0.3370  0.7126
  425MOL0     H57308   9.134   9.461   5.461  0.6306  0.3787 -0.0223
  425MOL0     H57309   9.311   9.463   5.317 -0.8488 -2.6086 -2.0545
  425MOL0     H57310   9.454   9.421   5.166  1.0630  2.8233 -1.7191
  425MOL0     H57311   9.526   9.507   5.307  0.2966  0.1190  0.4008
  425MOL0     H57312   9.662   9.366   5.066  1.9812  0.3121  0.1999
  425MOL0     H57313   9.654   9.540   5.103  1.7029 -1.0017 -4.1660
  425MOL0     H57314   9.800   9.460   5.325 -1.0901  0.9702  0.4863
  425MOL0     H57315   9.789   9.297   5.272  0.4319  0.6616  1.5039
  425MOL0     H57316   9.913   9.347   5.066  1.2842  0.3762 -0.6274
  425MOL0     H57317   9.893   9.521   5.107 -1.8260  0.0361  1.5304
  425MOL0     H57318  10.024   9.398   5.325 -0.5211 -0.9244 -0.1035
  425MOL0     H57319  10.116   9.333   5.185  0.3846  1.1701 -2.4918
  425MOL0     H57320  10.047   9.632   5.238  0.3256 -0.6769 -1.2350
  425MOL0     H57321  10.203   9.574   5.285  2.0193 -0.9680 -2.3925
  425MOL0     H57322  10.276   9.532   5.075 -0.9638 -2.3331 -0.9373
  425MOL0     H57323  10.108   9.521   5.008  1.3068 -3.7001  0.2606
  425MOL0     H57324  10.064   9.752   5.038 -0.1923 -0.5774  1.0672
  425MOL0     H57325  10.212   9.729   4.945 -1.1588  0.4124  0.6340
  425MOL0     H57326  10.450   9.745   5.093  2.3838  2.8398 -0.2496
  425MOL0     H57327  10.622   9.900   5.285  0.6669 -1.3811 -0.2150
  425MOL0     H57328  10.533   9.930   5.437 -1.8340 -0.8357  0.3768
  425MOL0     H57329  10.689   9.740   5.395 -0.0314  1.0035 -0.8835
  425MOL0     H57330  10.575   9.660   5.299  3.6271 -0.7421  1.7915
  425MOL0     H57331  10.564   9.716   5.599  2.1382  1.7436 -1.7340
  425MOL0     H57332  10.590   9.565   5.511  3.4240  1.4266 -1.3109
  425MOL0     H57333  10.361   9.550   5.431 -2.7297  0.8141  0.2097
  425MOL0     H57334  10.349   9.711   5.501 -1.3317 -0.8869  1.3605
  425MOL0     H57335  10.309   9.426   5.827 -2.3813 -2.5776  1.3982
  425MOL0     H57336  10.075   9.413   6.075  2.1155  1.0272  0.3012
  425MOL0     H57337  10.065   9.279   5.959  0.1098  0.8737 -1.8892
  425MOL0     H57338  10.221   9.359   6.014  0.1627  0.8190 -0.8942
  425MOL0     H57339   9.544   9.361   5.706  0.0876 -0.5683  0.0954
  425MOL0     H57340   9.332   9.290   5.831 -0.9776 -0.1660  0.7559
  425MOL0     H57341   9.296   9.229   6.144 -1.8943 -0.7004 -0.4962
  425MOL0     H57342   9.361   9.375   6.227  1.1793 -0.5537 -1.5664
  425MOL0     H57343   9.061   9.332   6.189 -1.9104 -1.2512  2.5844
  425MOL0     H57344   9.145   9.244   6.317  2.3795  1.4163  1.5738
  425MOL0     H57345   9.143   9.555   6.278 -2.2499 -1.7180 -3.1070
  425MOL0     H57346   9.202   9.462   6.424  0.3134 -0.3550  0.9145
  425MOL0     H57347   8.911   9.462   6.365  0.8269 -3.7179 -0.0203
  425MOL0     H57348   8.995   9.412   6.502 -0.7212  0.1397  0.0630
  425MOL0     H57349   8.997   9.693   6.387  1.2097  3.7399  2.2107
  425MOL0     H57350   9.066   9.634   6.547  1.9073 -1.9872 -1.7624
  425MOL0     H57351   8.773   9.661   6.461 -0.0047 -0.0424  0.4448
  425MOL0     H57352   8.830   9.573   6.600 -1.6289 -0.3743 -1.0475
  425MOL0     H57353   8.844   9.873   6.530  1.3249  1.2118  0.7612
  425MOL0     H57354   8.967   9.816   6.654  0.3939  0.6672  0.4946
  425MOL0     H57355   8.806   9.724   6.805  2.4413 -0.5494 -0.9494
  425MOL0     H57356   8.672   9.793   6.700  0.3549  2.6866 -1.7886
  425MOL0     H57357   9.459   9.555   6.145 -1.9268  1.1314 -0.0639
  425MOL0     H57358   9.633   9.636   6.024 -2.7480  1.1902  0.3510
  425MOL0     H57359   9.919   9.652   5.638 -1.4131 -0.0403  0.5948
  425MOL0     H57360  10.150   9.655   5.520 -0.8322 -1.4757 -1.7890
  425MOL0     H57361   9.504   9.121   5.506  0.1672 -0.0315 -2.0671
  425MOL0     H57362   9.293   9.124   5.668 -1.2838 -0.2209 -0.2763
  425MOL0     H57363   9.042   9.419   5.849 -0.5485 -0.5267  0.5241
  425MOL0     H57364   8.913   9.497   6.040  0.1136 -0.6140  0.5457
  425MOL0     H57365   8.464   9.445   6.030  0.9081  1.4980 -0.0055
  425MOL0     H57366   8.547   9.311   6.120  2.0177 -0.1467  1.5210
  425MOL0     H57367   8.385   9.467   6.250 -0.3616  2.7847 -1.4580
  425MOL0     H57368   8.504   9.603   6.229  3.3234  0.2284 -0.6093
  425MOL0     H57369   8.673   9.479   6.356  0.0038 -1.5313  0.5301
  425MOL0     H57370   8.581   9.325   6.344 -1.1161 -0.2452 -0.9978
  425MOL0     H57371   8.569   9.435   6.570 -0.4723 -2.2418 -1.2034
  425MOL0     H57372   8.415   9.394   6.506 -1.9131  2.0211 -0.5439
  425MOL0     H57373   8.387   9.813   6.550 -1.2638 -0.6384 -0.5925
  425MOL0     H57374   8.563   9.351   5.832 -0.6891  0.9311 -2.3503
  425MOL0     H57375   8.702   9.274   5.654  0.5348 -0.9144  0.7534
  426MOL0     O57376   0.208   3.365  11.061  0.1511  0.2560 -0.0718
  426MOL0     C57377   0.283   3.287  11.001  0.1293  0.6319  0.3991
  426MOL0     O57378   0.392   3.240  11.062 -0.3928 -0.2209 -0.2978
  426MOL0     C57379   0.429   3.288  11.189  1.6984  0.0479  0.3101
  426MOL0     C57380   0.441   3.186  11.284  0.7234 -0.4653 -0.8769
  426MOL0     C57381   0.485   3.218  11.417 -0.2781  0.2411  0.6858
  426MOL0     C57382   0.528   3.346  11.447 -1.0786  0.5764 -0.0952
  426MOL0     O57383   0.569   3.359  11.578 -0.1720 -0.5779 -0.4038
  426MOL0     C57384   0.630   3.478  11.627 -0.5014 -0.0798 -0.5239
  426MOL0     C57385   0.684   3.453  11.771  0.3931  0.5737  0.7436
  426MOL0     C57386   0.561   3.440  11.864 -0.4302  0.3428 -0.3158
  426MOL0     C57387   0.452   3.554  11.858 -0.5214 -0.2098 -0.7414
  426MOL0     C57388   0.338   3.534  11.964  0.2915  0.3706 -0.0405
  426MOL0     C57389   0.211   3.615  11.939  0.3098 -1.0340  0.2971
  426MOL0     C57390   0.094   3.568  12.024  0.1081  0.7712  0.0039
  426MOL0     C57391   0.080   3.626  12.160  1.5765 -0.4995 -1.1827
  426MOL0     N57392   0.003   3.747  12.130  0.0069  0.5818  0.2312
  426MOL0     C57393   0.058   3.865  12.167 -0.8658 -0.6107  0.5119
  426MOL0     C57394  -0.047   3.945  12.169  0.7220  0.5190 -0.3703
  426MOL0     C57395  -0.055   4.089  12.225  0.5285  0.2374  1.0970
  426MOL0     C57396  -0.103   4.110  12.369 -0.0417 -0.7702  1.0675
  426MOL0     C57397  -0.067   4.251  12.404  0.2170 -0.1189 -0.0174
  426MOL0     C57398   0.081   4.283  12.431 -0.0542 -0.4910 -0.7180
  426MOL0     O57399   0.135   4.189  12.524  0.0713  0.3080 -0.6103
  426MOL0     C57400   0.113   4.214  12.656 -0.4301 -0.1424 -0.4408
  426MOL0     C57401   0.066   4.110  12.739  0.1645 -0.2397  0.2024
  426MOL0     C57402   0.046   4.125  12.880  0.2051 -0.5186  0.2645
  426MOL0     C57403  -0.002   4.004  12.958  0.3780 -0.2108 -0.2344
  426MOL0     C57404   0.069   4.245  12.939  0.2732 -0.0840 -0.8625
  426MOL0     C57405   0.063   4.264  13.086 -0.1497 -0.9063 -0.1427
  426MOL0     O57406  -0.034   4.366  13.128  0.7905  0.3340  0.7999
  426MOL0     C57407  -0.016   4.432  13.243 -0.6374 -0.0362 -0.2548
  426MOL0     C57408  -0.111   4.429  13.349  0.0711 -0.3773 -0.2469
  426MOL0     C57409  -0.084   4.485  13.472 -0.4521 -0.4087  0.5234
  426MOL0     C57410   0.031   4.563  13.496  0.1616 -0.2416  0.3296
  426MOL0     O57411   0.049   4.622  13.616  0.5936 -0.4386  0.1052
  426MOL0     C57412   0.164   4.708  13.633  0.7260 -0.3801 -0.2284
  426MOL0     C57413   0.283   4.632  13.676 -0.6757  0.3547 -0.0643
  426MOL0     C57414   0.412   4.710  13.724  0.6130  0.1633  0.4795
  426MOL0     C57415   0.524   4.608  13.733 -0.9351  0.9405  0.0176
  426MOL0     C57416   0.651   4.665  13.787  0.3369 -0.0294 -0.5387
  426MOL0     C57417   0.652   4.662  13.940  0.2381 -0.4875  0.0994
  426MOL0     C57418   0.765   4.746  14.009  1.0571  0.8087  0.3014
  426MOL0     C57419   0.765   4.725  14.163 -0.2631  1.1239  0.1257
  426MOL0    Cl57420   0.931   4.743  14.227  0.1657  0.0953  0.0658
  426MOL0     C57421   0.126   4.573  13.392 -0.5978  0.1459  0.8726
  426MOL0     C57422   0.102   4.502  13.267 -0.2925  0.7546  0.1481
  426MOL0     O57423   0.132   4.200  13.168  0.3538 -0.5597  0.0892
  426MOL0     C57424   0.127   4.349  12.864  0.0817  0.5837  0.6986
  426MOL0     C57425   0.158   4.328  12.728  0.0256 -0.2886 -0.0269
  426MOL0     N57426  -0.164   3.875  12.140  0.2935  0.2433 -0.1748
  426MOL0     N57427  -0.134   3.749  12.119  0.3080  0.0242  0.1001
  426MOL0     C57428   0.512   3.451  11.351  0.5585 -0.0246  0.2335
  426MOL0     C57429   0.466   3.418  11.216 -0.4965 -0.0491 -0.3612
  426MOL0     C57430   0.258   3.259  10.853 -0.1562 -0.5707  1.0414
  426MOL0     C57431   0.366   3.228  10.762  0.4454  0.0474 -0.2286
  426MOL0     C57432   0.340   3.216  10.627  0.3123  0.8753  0.4678
  426MOL0     C57433   0.206   3.222  10.571  0.1269  0.1689  0.5210
  426MOL0     O57434   0.169   3.213  10.438  0.0212  0.5254 -0.0564
  426MOL0     C57435   0.265   3.186  10.340 -0.4200 -0.5494  0.2315
  426MOL0     C57436   0.196   3.116  10.227  0.2018 -0.2563 -0.2440
  426MOL0     C57437   0.285   3.048  10.128  1.0744  0.2576  0.3071
  426MOL0     C57438   0.211   2.958  10.034  0.8119 -0.4544 -1.0981
  426MOL0     C57439   0.162   3.039   9.924  0.2901 -0.6326 -0.2743
  426MOL0     C57440   0.120   3.117   9.842 -0.7510  0.0662  0.7902
  426MOL0     C57441   0.106   3.229  10.664  0.4535  0.0607  0.4058
  426MOL0     C57442   0.126   3.247  10.803  0.3012 -0.0699  0.2176
  426MOL0     H57443   0.413   3.084  11.262 -1.3176 -0.8425  2.6672
  426MOL0     H57444   0.493   3.142  11.494  2.8911  0.3098  0.5401
  426MOL0     H57445   0.710   3.505  11.558 -2.6348  1.4125 -2.5698
  426MOL0     H57446   0.555   3.558  11.621 -0.5886 -0.2043 -1.1160
  426MOL0     H57447   0.748   3.365  11.775 -1.3305 -0.6961  3.5891
  426MOL0     H57448   0.738   3.538  11.814  1.0260  0.3719  0.3690
  426MOL0     H57449   0.515   3.344  11.838  1.4909 -1.3472  2.1183
  426MOL0     H57450   0.606   3.429  11.963  0.7037  0.4292 -0.8030
  426MOL0     H57451   0.502   3.651  11.870  1.1726 -1.2875  1.7269
  426MOL0     H57452   0.400   3.544  11.762  0.4232 -0.8093 -1.2053
  426MOL0     H57453   0.312   3.429  11.977  0.8233  0.5509  3.3036
  426MOL0     H57454   0.384   3.561  12.059  0.7436  1.2663 -0.4967
  426MOL0     H57455   0.231   3.720  11.960 -0.9159 -0.6001 -0.5719
  426MOL0     H57456   0.186   3.612  11.832 -0.9156 -4.7092  0.5343
  426MOL0     H57457   0.001   3.573  11.967  0.6497  0.8573 -0.8762
  426MOL0     H57458   0.111   3.461  12.043  2.8399  1.4167  1.8222
  426MOL0     H57459   0.180   3.641  12.200  2.2715 -0.9066 -2.6934
  426MOL0     H57460   0.013   3.577  12.231 -1.3053 -1.2107 -4.1154
  426MOL0     H57461   0.155   3.885  12.211 -1.3237 -0.3680  1.4253
  426MOL0     H57462   0.042   4.135  12.204  0.4814  0.6021  1.6594
  426MOL0     H57463  -0.124   4.145  12.160  0.9332 -2.1262 -1.5798
  426MOL0     H57464  -0.057   4.040  12.439  2.4237  1.2998  1.6573
  426MOL0     H57465  -0.210   4.085  12.367 -0.1780 -0.1951  0.9279
  426MOL0     H57466  -0.113   4.279  12.499  0.0398  1.0832 -0.4409
  426MOL0     H57467  -0.111   4.312  12.324 -3.2654 -0.2572  1.6158
  426MOL0     H57468   0.094   4.389  12.453  1.1683 -0.7434 -0.1436
  426MOL0     H57469   0.139   4.272  12.339  1.0055  0.3223 -0.1629
  426MOL0     H57470   0.040   4.013  12.698 -1.2373  0.3744 -0.4249
  426MOL0     H57471  -0.096   3.982  12.905 -0.1502 -1.7028  1.2604
  426MOL0     H57472   0.066   3.918  12.958 -0.5132 -0.9513  1.1867
  426MOL0     H57473  -0.019   4.035  13.061  0.8303  1.8065 -0.7202
  426MOL0     H57474  -0.205   4.378  13.336 -0.3445  0.6161 -1.3756
  426MOL0     H57475  -0.166   4.478  13.543  0.2658  0.2278  1.4459
  426MOL0     H57476   0.170   4.774  13.546 -0.8203 -0.5293 -0.4919
  426MOL0     H57477   0.133   4.775  13.714 -2.1834 -1.4248 -0.3612
  426MOL0     H57478   0.251   4.562  13.754  0.8157 -1.1643 -0.7453
  426MOL0     H57479   0.309   4.563  13.595 -4.6278 -1.2885 -0.1590
  426MOL0     H57480   0.377   4.753  13.819 -0.9506  0.2717 -0.1321
  426MOL0     H57481   0.437   4.791  13.655  1.6231 -1.2596 -0.9070
  426MOL0     H57482   0.482   4.522  13.786  0.9984  1.2556  2.2052
  426MOL0     H57483   0.547   4.574  13.631  3.0263  4.4324 -0.5157
  426MOL0     H57484   0.683   4.760  13.745  3.0210  0.2057  1.7015
  426MOL0     H57485   0.729   4.590  13.768  0.1150 -0.3668 -0.1494
  426MOL0     H57486   0.555   4.689  13.981  0.9293 -0.5368  1.8561
  426MOL0     H57487   0.673   4.558  13.967  2.7691  0.5004  2.3469
  426MOL0     H57488   0.745   4.851  13.988 -1.4625  0.3959  0.2932
  426MOL0     H57489   0.865   4.717  13.978  0.7999 -2.6728  2.2188
  426MOL0     H57490   0.723   4.626  14.184  0.1730  0.3673 -2.2750
  426MOL0     H57491   0.702   4.800  14.213 -1.6464 -0.3524  0.6695
  426MOL0     H57492   0.223   4.623  13.393 -0.1668 -0.6784  1.1724
  426MOL0     H57493   0.184   4.512  13.197  1.9169 -1.7761  2.1879
  426MOL0     H57494   0.150   4.445  12.910  0.4713  0.6733  0.3154
  426MOL0     H57495   0.215   4.404  12.676 -0.8366  0.5358  0.1904
  426MOL0     H57496   0.533   3.551  11.387 -1.9529 -0.3526  3.0310
  426MOL0     H57497   0.445   3.492  11.141 -4.1398  0.2303  0.7503
  426MOL0     H57498   0.473   3.239  10.780  0.4046  0.9421 -0.5210
  426MOL0     H57499   0.423   3.200  10.558  1.1140  2.4036  1.0340
  426MOL0     H57500   0.309   3.278  10.301 -0.0685 -0.4320  0.8892
  426MOL0     H57501   0.331   3.113  10.389 -0.6201 -1.3507 -0.6506
  426MOL0     H57502   0.132   3.188  10.176 -1.2019 -2.3403 -1.5939
  426MOL0     H57503   0.129   3.040  10.269  1.9644 -0.1255  3.1531
  426MOL0     H57504   0.354   2.985  10.185 -0.8319 -2.3821 -0.1257
  426MOL0     H57505   0.342   3.127  10.077  0.5326  0.3464 -0.1630
  426MOL0     H57506   0.136   2.906  10.095  1.3022  1.3041  1.1653
  426MOL0     H57507   0.288   2.883  10.010  0.1296 -2.6277  2.6054
  426MOL0     H57508   0.069   3.183   9.775 -0.3470 -0.2199  0.1934
  426MOL0     H57509   0.006   3.222  10.624  0.8250  1.6912 -0.9301
  426MOL0     H57510   0.045   3.261  10.875 -0.3331  3.4138 -0.9448
  427MOL0     O57511   0.587   0.725   7.540 -0.2315 -0.3276  0.2518
  427MOL0     C57512   0.659   0.746   7.438  0.8593  0.4243  0.1499
  427MOL0     O57513   0.624   0.707   7.308  1.1285 -0.1531 -0.4168
  427MOL0     C57514   0.493   0.675   7.278  0.4543 -0.5911  0.0584
  427MOL0     C57515   0.384   0.746   7.340 -0.7835 -0.4051  1.1904
  427MOL0     C57516   0.250   0.722   7.298 -0.0119  0.2948  0.3915
  427MOL0     C57517   0.212   0.615   7.207 -1.1185  0.7975 -0.0580
  427MOL0     O57518   0.082   0.579   7.164  0.2209 -0.7354  0.0377
  427MOL0     C57519  -0.029   0.621   7.250  0.6674 -0.5236  0.7001
  427MOL0     C57520  -0.175   0.597   7.198 -0.9373 -0.4942  0.0298
  427MOL0     C57521  -0.199   0.648   7.054 -0.1568 -0.6774  0.2515
  427MOL0     C57522  -0.336   0.722   7.044 -0.1960 -0.7649  0.1071
  427MOL0     C57523  -0.450   0.620   7.029 -0.1413 -0.0427  0.3843
  427MOL0     C57524  -0.573   0.678   7.092  0.5200  0.3774  0.3999
  427MOL0     C57525  -0.686   0.581   7.117  0.3762 -0.5685 -0.8983
  427MOL0     C57526  -0.645   0.442   7.156  0.1361  0.1363  0.0051
  427MOL0     N57527  -0.763   0.364   7.209 -0.2878  0.3332  0.0638
  427MOL0     C57528  -0.890   0.371   7.162  0.0835  0.2794 -0.1480
  427MOL0     C57529  -0.963   0.273   7.234  0.3816 -0.9328  0.9938
  427MOL0     C57530  -1.110   0.246   7.200 -0.0161 -0.1478  0.4101
  427MOL0     C57531  -1.175   0.164   7.309 -1.1724  0.3414 -0.6751
  427MOL0     C57532  -1.317   0.141   7.258 -0.5344 -0.2389 -0.5251
  427MOL0     C57533  -1.407   0.053   7.342  0.6971 -0.1546 -0.3144
  427MOL0     O57534  -1.342  -0.071   7.367 -0.2384  0.5252 -0.0392
  427MOL0     C57535  -1.420  -0.175   7.426  0.1090  0.4660 -0.0178
  427MOL0     C57536  -1.558  -0.164   7.452  0.2565 -0.5719 -0.0555
  427MOL0     C57537  -1.632  -0.279   7.500 -0.3421 -0.5533 -0.8925
  427MOL0     C57538  -1.784  -0.270   7.503 -0.5199  0.3410  0.2676
  427MOL0     C57539  -1.564  -0.402   7.527 -0.5364 -0.0780 -0.2998
  427MOL0     C57540  -1.633  -0.530   7.551 -0.3336  0.3130  0.6338
  427MOL0     O57541  -1.579  -0.604   7.642 -0.2131  0.3447 -0.0026
  427MOL0     C57542  -1.634  -0.714   7.702  0.8065 -0.8012  0.2546
  427MOL0     C57543  -1.768  -0.726   7.742  0.3580 -0.7463 -0.5049
  427MOL0     C57544  -1.807  -0.827   7.827 -0.6076  0.0284 -0.8720
  427MOL0     C57545  -1.721  -0.935   7.860 -0.8293 -0.7478 -0.0470
  427MOL0     O57546  -1.780  -1.034   7.930 -0.5347  0.9079 -0.2910
  427MOL0     C57547  -1.693  -1.150   7.976  0.4609 -0.4900 -0.2370
  427MOL0     C57548  -1.763  -1.285   7.989 -0.6458  0.1293 -0.0214
  427MOL0     C57549  -1.886  -1.258   8.076  0.3348  0.3175 -0.2724
  427MOL0     C57550  -1.988  -1.368   8.068 -0.3410  0.5497 -0.9125
  427MOL0     C57551  -2.128  -1.333   8.132  0.1540 -0.1343  0.7589
  427MOL0     C57552  -2.105  -1.301   8.275 -0.0362 -0.5880 -0.9758
  427MOL0     C57553  -2.248  -1.281   8.345 -1.0907 -0.5498  0.4810
  427MOL0     C57554  -2.254  -1.346   8.487 -0.0331  0.1400  0.5372
  427MOL0    Cl57555  -2.145  -1.262   8.584  0.2469 -0.1424 -0.2344
  427MOL0     C57556  -1.584  -0.919   7.828 -0.8111  0.2209 -0.5813
  427MOL0     C57557  -1.544  -0.809   7.757  0.5410 -0.3533  0.0328
  427MOL0     O57558  -1.715  -0.566   7.467 -0.3724  0.4578 -0.1841
  427MOL0     C57559  -1.417  -0.403   7.521 -0.4945 -0.3862  0.2567
  427MOL0     C57560  -1.351  -0.293   7.466  0.3765  0.0357 -0.7090
  427MOL0     N57561  -0.886   0.222   7.327 -0.0095  0.2693 -0.1900
  427MOL0     N57562  -0.770   0.278   7.313  0.4982 -0.6203 -0.9321
  427MOL0     C57563   0.325   0.537   7.161 -0.0702  0.3095  1.0575
  427MOL0     C57564   0.461   0.567   7.193 -0.3567 -0.6854  0.3462
  427MOL0     C57565   0.793   0.791   7.454  0.0685 -0.3388 -0.0727
  427MOL0     C57566   0.887   0.784   7.349  0.1828 -0.3450 -0.7439
  427MOL0     C57567   1.021   0.830   7.357 -0.2544  0.0574 -0.1070
  427MOL0     C57568   1.063   0.889   7.478  0.2368  0.6405 -0.5938
  427MOL0     O57569   1.186   0.953   7.475 -0.3308 -0.2927 -0.0171
  427MOL0     C57570   1.231   1.007   7.601  1.1973  0.4518  0.2606
  427MOL0     C57571   1.280   0.897   7.696 -0.2150  0.5921 -0.0125
  427MOL0     C57572   1.309   0.952   7.834 -0.3354 -0.8983 -0.4743
  427MOL0     C57573   1.407   0.873   7.921 -0.4917 -0.9276  0.3245
  427MOL0     C57574   1.411   0.904   8.063  1.4575 -0.0308 -1.2412
  427MOL0     C57575   1.426   0.923   8.183  0.3500  0.1609  0.1688
  427MOL0     C57576   0.973   0.890   7.591 -0.3009 -0.0813  0.2035
  427MOL0     C57577   0.844   0.843   7.570  0.8103  0.1335  0.4641
  427MOL0     H57578   0.407   0.828   7.408 -0.4113 -0.8218  1.5732
  427MOL0     H57579   0.181   0.794   7.342  1.5009  2.1749 -0.2006
  427MOL0     H57580  -0.019   0.574   7.348 -0.5263 -1.2170  0.5123
  427MOL0     H57581  -0.025   0.731   7.250 -1.5666 -0.3790 -0.1647
  427MOL0     H57582  -0.196   0.490   7.206 -2.3996 -0.4320 -2.0407
  427MOL0     H57583  -0.243   0.653   7.262 -1.1753  3.1127 -3.0229
  427MOL0     H57584  -0.128   0.729   7.037 -2.0158  1.0808  0.4882
  427MOL0     H57585  -0.185   0.562   6.988  2.6606 -1.2192  1.4003
  427MOL0     H57586  -0.345   0.780   7.137  2.5629 -0.0952  0.0590
  427MOL0     H57587  -0.345   0.782   6.953  0.1672 -2.6282 -1.2121
  427MOL0     H57588  -0.473   0.599   6.924 -0.5570 -1.2919  0.7049
  427MOL0     H57589  -0.416   0.523   7.065  3.6378 -0.2410 -2.9082
  427MOL0     H57590  -0.540   0.714   7.189  5.1500 -0.5897 -0.5760
  427MOL0     H57591  -0.620   0.752   7.028 -0.8617  0.7316  1.7604
  427MOL0     H57592  -0.753   0.640   7.179  1.3851  0.8133 -1.0810
  427MOL0     H57593  -0.728   0.568   7.016  2.8152 -2.8208 -1.7534
  427MOL0     H57594  -0.573   0.451   7.238 -0.0326  0.6158  0.1011
  427MOL0     H57595  -0.606   0.392   7.067  2.2652 -2.4129  2.1916
  427MOL0     H57596  -0.934   0.437   7.088 -1.2196  3.1096  2.8534
  427MOL0     H57597  -1.163   0.342   7.199 -3.1043 -1.7214 -0.9082
  427MOL0     H57598  -1.114   0.200   7.101  0.9788  1.2840 -0.3358
  427MOL0     H57599  -1.182   0.215   7.405  0.8716  1.3779 -1.0198
  427MOL0     H57600  -1.129   0.065   7.319 -0.7700  0.7394  2.7361
  427MOL0     H57601  -1.319   0.094   7.160 -1.7666 -1.2735 -0.0290
  427MOL0     H57602  -1.369   0.237   7.245 -1.1089 -0.9088 -3.9873
  427MOL0     H57603  -1.502   0.048   7.288  1.2001  0.6097 -1.3194
  427MOL0     H57604  -1.427   0.107   7.434  3.3062  1.4964 -0.5941
  427MOL0     H57605  -1.620  -0.077   7.432  0.4825 -0.6395 -1.1040
  427MOL0     H57606  -1.820  -0.320   7.413 -0.1756 -0.8898  0.8018
  427MOL0     H57607  -1.822  -0.319   7.594  3.3300 -2.2487  0.7235
  427MOL0     H57608  -1.825  -0.169   7.494  1.6905  1.1133 -2.0152
  427MOL0     H57609  -1.839  -0.645   7.728  0.7969 -0.1478  0.6028
  427MOL0     H57610  -1.908  -0.824   7.869  0.3741 -1.9683  1.9342
  427MOL0     H57611  -1.616  -1.168   7.900 -0.2433 -1.7487 -0.6861
  427MOL0     H57612  -1.649  -1.125   8.073  3.5928 -3.0753 -0.8127
  427MOL0     H57613  -1.798  -1.324   7.892 -1.0249 -3.1562  1.2923
  427MOL0     H57614  -1.700  -1.363   8.031 -2.2601 -0.4558  1.4427
  427MOL0     H57615  -1.934  -1.164   8.048  1.0505  1.6073  2.5080
  427MOL0     H57616  -1.854  -1.247   8.180 -2.6229  2.0767  0.5707
  427MOL0     H57617  -2.012  -1.392   7.964 -0.2379 -1.2170 -0.5655
  427MOL0     H57618  -1.945  -1.458   8.115 -1.8923  1.4393  2.6118
  427MOL0     H57619  -2.198  -1.411   8.101  0.9909 -0.0364 -1.5955
  427MOL0     H57620  -2.161  -1.236   8.093  0.2148 -1.4216 -2.8855
  427MOL0     H57621  -2.056  -1.390   8.313 -3.8452 -2.8321 -0.8083
  427MOL0     H57622  -2.047  -1.209   8.288  0.0693 -0.8195  0.2693
  427MOL0     H57623  -2.325  -1.313   8.275  0.0099  1.7078 -1.9792
  427MOL0     H57624  -2.254  -1.171   8.342 -0.1081 -0.4731 -2.6824
  427MOL0     H57625  -2.226  -1.451   8.483  2.1127  0.5969  1.8294
  427MOL0     H57626  -2.350  -1.335   8.540  1.7302 -2.3511  4.7346
  427MOL0     H57627  -1.502  -0.987   7.853 -0.6668  1.0983  1.5926
  427MOL0     H57628  -1.444  -0.809   7.713  0.7310  3.7025  0.0139
  427MOL0     H57629  -1.356  -0.488   7.550  0.1933  0.4702  1.4142
  427MOL0     H57630  -1.243  -0.291   7.462  0.4219 -1.1706 -0.3954
  427MOL0     H57631   0.289   0.459   7.094  1.8723  1.8267 -1.9642
  427MOL0     H57632   0.536   0.503   7.147 -1.5118 -1.1401 -0.9660
  427MOL0     H57633   0.855   0.741   7.255  2.7572 -0.3237 -1.7249
  427MOL0     H57634   1.079   0.825   7.266  0.8734 -1.9469  0.6500
  427MOL0     H57635   1.320   1.069   7.586  1.1293  0.1468 -1.5611
  427MOL0     H57636   1.150   1.069   7.641  0.1962  0.6372 -1.9152
  427MOL0     H57637   1.367   0.845   7.654 -1.7435 -3.0071  0.8844
  427MOL0     H57638   1.195   0.831   7.718  0.0567  0.5616  1.0124
  427MOL0     H57639   1.211   0.970   7.878  1.9276  0.6004  4.9167
  427MOL0     H57640   1.360   1.049   7.827  1.4245 -1.6620  0.7613
  427MOL0     H57641   1.504   0.903   7.881 -0.3063  0.5028  1.7750
  427MOL0     H57642   1.379   0.770   7.896 -1.0896 -0.6458 -0.2017
  427MOL0     H57643   1.452   0.920   8.286  2.8064 -1.7249 -0.4174
  427MOL0     H57644   1.007   0.916   7.691 -1.0637 -0.1162  0.4740
  427MOL0     H57645   0.769   0.829   7.647 -0.7903  0.3535 -0.9828
  428MOL0     O57646   1.502  10.439   3.529 -0.0380  0.2507  0.3588
  428MOL0     C57647   1.494  10.315   3.544  0.0507 -0.9435  0.3819
  428MOL0     O57648   1.386  10.239   3.513  0.1833  0.8972 -0.2063
  428MOL0     C57649   1.259  10.292   3.520  1.0056 -1.6469  0.2727
  428MOL0     C57650   1.218  10.412   3.453  0.1207  1.4788  0.3431
  428MOL0     C57651   1.083  10.455   3.455  0.2156  0.1178  0.0499
  428MOL0     C57652   0.982  10.384   3.522  0.6848  0.8653 -1.3632
  428MOL0     O57653   0.863  10.425   3.517 -0.6483  0.1361 -0.2715
  428MOL0     C57654   0.772  10.397   3.613  0.3958 -0.5935  0.0061
  428MOL0     C57655   0.636  10.460   3.584 -0.7643  0.2459  0.0816
  428MOL0     C57656   0.587  10.431   3.438 -0.8471 -0.8612 -0.0081
  428MOL0     C57657   0.462  10.507   3.404 -0.4863 -0.0054 -0.2307
  428MOL0     C57658   0.339  10.442   3.468 -0.1819 -0.3078 -0.1274
  428MOL0     C57659   0.205  10.499   3.403  0.2342  0.6972  0.3975
  428MOL0     C57660   0.078  10.449   3.476 -0.3687  0.3524  0.7085
  428MOL0     C57661  -0.047  10.539   3.437 -0.5728  0.7350 -0.1849
  428MOL0     N57662  -0.109  10.503   3.304 -0.1478  0.3089 -1.1453
  428MOL0     C57663  -0.172  10.386   3.264 -0.1739  0.5034  0.2211
  428MOL0     C57664  -0.226  10.413   3.140  0.1372 -0.2652 -0.2745
  428MOL0     C57665  -0.306  10.326   3.047 -0.5438 -0.0497  0.2955
  428MOL0     C57666  -0.460  10.351   3.042 -0.8595 -0.2875 -0.2294
  428MOL0     C57667  -0.529  10.262   2.940  0.2047 -0.7690 -0.0081
  428MOL0     C57668  -0.674  10.254   2.966  0.4137 -0.8670  0.2711
  428MOL0     O57669  -0.748  10.174   2.863  0.1813  0.3449 -0.3821
  428MOL0     C57670  -0.753  10.232   2.739 -1.0572  0.4914  0.7687
  428MOL0     C57671  -0.799  10.366   2.726  0.0250  0.0294 -0.2982
  428MOL0     C57672  -0.818  10.420   2.597  0.0385 -0.7655 -0.1247
  428MOL0     C57673  -0.897  10.549   2.589  0.1010  0.5061  0.7337
  428MOL0     C57674  -0.777  10.352   2.483 -0.3705 -0.0310 -0.8402
  428MOL0     C57675  -0.773  10.416   2.347 -0.2828 -0.3457 -0.1033
  428MOL0     O57676  -0.654  10.391   2.269  0.2427  0.0271  1.1994
  428MOL0     C57677  -0.639  10.432   2.139  0.3763  0.9642 -0.3680
  428MOL0     C57678  -0.714  10.536   2.080  0.2599 -0.5947 -0.4007
  428MOL0     C57679  -0.674  10.569   1.952  0.7602 -0.0501 -0.0470
  428MOL0     C57680  -0.575  10.500   1.879 -0.8656 -0.7385  0.4457
  428MOL0     O57681  -0.553  10.517   1.745  0.1153  0.2924 -0.6843
  428MOL0     C57682  -0.426  10.563   1.714  0.4878  0.2522 -0.1960
  428MOL0     C57683  -0.365  10.674   1.790 -0.0798  0.0956  0.4762
  428MOL0     C57684  -0.454  10.805   1.773 -0.4974  0.2989  0.1152
  428MOL0     C57685  -0.362  10.908   1.841  0.1272 -0.5106 -0.2146
  428MOL0     C57686  -0.440  11.046   1.844 -0.1118  0.5489  0.6540
  428MOL0     C57687  -0.333  11.145   1.894  0.4884 -0.0955  0.2622
  428MOL0     C57688  -0.385  11.287   1.916  0.5542 -0.3020 -0.1465
  428MOL0     C57689  -0.450  11.331   1.787  0.4257 -0.8385  0.3735
  428MOL0    Cl57690  -0.499  11.511   1.808 -0.0151  0.1094  0.0190
  428MOL0     C57691  -0.514  10.387   1.939 -0.2069  0.0548 -0.4031
  428MOL0     C57692  -0.543  10.365   2.067  0.1611 -0.2182  0.0423
  428MOL0     O57693  -0.873  10.476   2.300 -0.0202 -0.6787 -0.5108
  428MOL0     C57694  -0.712  10.226   2.505 -0.3047  0.5359 -0.1015
  428MOL0     C57695  -0.706  10.166   2.628  0.2808 -0.2007  0.4705
  428MOL0     N57696  -0.190  10.543   3.105 -0.5248  0.3717 -0.1204
  428MOL0     N57697  -0.118  10.590   3.204 -0.3029  0.6321 -0.0832
  428MOL0     C57698   1.031  10.269   3.589 -0.3620 -0.2039 -0.4793
  428MOL0     C57699   1.165  10.228   3.593  0.8132  0.6887  0.8551
  428MOL0     C57700   1.620  10.254   3.574  0.1321 -0.5151  0.0714
  428MOL0     C57701   1.733  10.335   3.604 -0.1075  1.0797 -0.4027
  428MOL0     C57702   1.864  10.282   3.617 -0.4842  0.4219  0.0075
  428MOL0     C57703   1.883  10.148   3.588  1.2474  0.6485  0.1369
  428MOL0     O57704   2.011  10.102   3.614 -0.1285 -0.1838  0.3548
  428MOL0     C57705   2.071  10.015   3.504 -0.3074 -0.7847 -0.2710
  428MOL0     C57706   2.183  10.094   3.417  0.5573 -0.6120 -0.8030
  428MOL0     C57707   2.299  10.123   3.515 -0.4200  0.5714 -0.6164
  428MOL0     C57708   2.439  10.069   3.477 -0.4841  0.2308 -0.2253
  428MOL0     C57709   2.451   9.926   3.522  0.4994  1.0129  0.3035
  428MOL0     C57710   2.468   9.815   3.560  0.6516 -0.3220 -0.4243
  428MOL0     C57711   1.780  10.064   3.534  0.5451  0.2655 -0.3312
  428MOL0     C57712   1.643  10.119   3.545  0.7170  0.3380 -0.7078
  428MOL0     H57713   1.292  10.463   3.393 -1.4652  2.2296 -1.0753
  428MOL0     H57714   1.054  10.533   3.385 -1.1159 -3.2837 -3.5417
  428MOL0     H57715   0.753  10.291   3.630  0.4001 -0.1440  3.5015
  428MOL0     H57716   0.815  10.433   3.707  0.6137  0.9991 -0.6555
  428MOL0     H57717   0.557  10.423   3.650  0.8863 -0.3656  1.8056
  428MOL0     H57718   0.649  10.568   3.597 -1.7040  0.1979  1.6783
  428MOL0     H57719   0.665  10.460   3.367  1.2141 -0.7619  2.1348
  428MOL0     H57720   0.573  10.323   3.430 -0.2309 -0.9607  0.1653
  428MOL0     H57721   0.479  10.603   3.453  1.5794  0.2067 -1.2640
  428MOL0     H57722   0.456  10.510   3.295 -0.2279  1.1633 -0.2268
  428MOL0     H57723   0.354  10.334   3.462 -4.0892 -1.0878  1.1994
  428MOL0     H57724   0.343  10.471   3.574  0.9263 -2.6762  0.5294
  428MOL0     H57725   0.208  10.608   3.391 -0.0725  0.6325 -0.2797
  428MOL0     H57726   0.198  10.456   3.303 -1.5521 -1.1029  1.2246
  428MOL0     H57727   0.062  10.341   3.466 -0.5395  0.4725 -0.4474
  428MOL0     H57728   0.082  10.461   3.585 -2.1536 -1.8872  1.0782
  428MOL0     H57729  -0.012  10.642   3.430 -1.2875  0.9264 -1.2287
  428MOL0     H57730  -0.123  10.535   3.515  0.8174 -2.5867  1.1758
  428MOL0     H57731  -0.187  10.293   3.319 -4.8446  0.2727 -0.9395
  428MOL0     H57732  -0.268  10.328   2.944 -1.2959 -0.3107  0.0013
  428MOL0     H57733  -0.296  10.224   3.086 -3.1222 -0.8489 -0.8721
  428MOL0     H57734  -0.475  10.456   3.016  1.8744  0.2376 -0.0820
  428MOL0     H57735  -0.497  10.342   3.144  0.8579 -0.1638  0.4503
  428MOL0     H57736  -0.488  10.160   2.933 -1.0288 -1.2961  0.1163
  428MOL0     H57737  -0.511  10.307   2.842  1.9160 -3.3141 -0.9986
  428MOL0     H57738  -0.714  10.354   2.984  2.7065  0.2337 -0.4929
  428MOL0     H57739  -0.692  10.214   3.066 -1.3541 -1.6963 -0.3265
  428MOL0     H57740  -0.834  10.424   2.811  1.9422  2.0877 -0.8125
  428MOL0     H57741  -0.912  10.596   2.687  0.0142  0.4669  0.7403
  428MOL0     H57742  -0.834  10.611   2.526  0.0276 -2.3775 -2.4668
  428MOL0     H57743  -0.993  10.534   2.538 -0.4443 -1.7690  2.2623
  428MOL0     H57744  -0.784  10.599   2.135  0.6095  1.0086 -1.6909
  428MOL0     H57745  -0.720  10.648   1.893  3.2363  0.7810 -0.9829
  428MOL0     H57746  -0.354  10.481   1.716 -0.8360 -0.9467 -0.4093
  428MOL0     H57747  -0.422  10.588   1.607 -0.4433  2.7450  0.2830
  428MOL0     H57748  -0.342  10.651   1.895  0.1877 -5.1242 -0.4742
  428MOL0     H57749  -0.272  10.698   1.737 -0.5223  1.4220  0.2748
  428MOL0     H57750  -0.553  10.805   1.818 -0.4111  2.4608  0.4333
  428MOL0     H57751  -0.470  10.830   1.667 -0.0559 -3.6118 -1.0479
  428MOL0     H57752  -0.311  10.876   1.932  0.1879 -2.5686 -0.9362
  428MOL0     H57753  -0.283  10.917   1.766 -0.8153  0.4124 -1.1281
  428MOL0     H57754  -0.532  11.039   1.903 -1.1487 -2.1488 -1.1109
  428MOL0     H57755  -0.467  11.065   1.740  3.3316  0.6873 -0.3294
  428MOL0     H57756  -0.279  11.101   1.978  3.0564 -2.2801 -2.3423
  428MOL0     H57757  -0.257  11.156   1.817  0.5295 -3.1024 -0.2397
  428MOL0     H57758  -0.304  11.356   1.943 -0.6854  1.0224  0.3711
  428MOL0     H57759  -0.462  11.300   1.992 -1.0410 -0.5156 -1.6687
  428MOL0     H57760  -0.528  11.265   1.747  0.5169  0.1894 -1.6042
  428MOL0     H57761  -0.382  11.333   1.702 -2.3792 -3.4707 -2.1725
  428MOL0     H57762  -0.439  10.334   1.881 -0.6849  0.5648 -1.5025
  428MOL0     H57763  -0.489  10.293   2.127 -1.0000 -1.4232 -0.3036
  428MOL0     H57764  -0.665  10.165   2.428  0.6363  1.0028  0.0927
  428MOL0     H57765  -0.661  10.068   2.645  2.3765  1.0904  3.1517
  428MOL0     H57766   0.953  10.209   3.634 -0.3663 -1.0635 -1.5730
  428MOL0     H57767   1.198  10.141   3.648 -1.7269 -0.2845  0.9395
  428MOL0     H57768   1.715  10.442   3.602 -1.2143  0.9376  0.9263
  428MOL0     H57769   1.933  10.346   3.671 -2.1853  0.3900  2.4143
  428MOL0     H57770   2.113   9.924   3.549 -0.7611 -0.3692  1.0402
  428MOL0     H57771   1.997   9.970   3.436 -0.3274  0.5486 -1.1675
  428MOL0     H57772   2.152  10.194   3.385 -1.1779 -1.2977 -1.3692
  428MOL0     H57773   2.217  10.026   3.339 -0.1188 -1.0704 -0.7054
  428MOL0     H57774   2.270  10.096   3.617  0.6740 -0.8070 -0.6429
  428MOL0     H57775   2.304  10.232   3.513 -0.8228  0.6341  0.7333
  428MOL0     H57776   2.516  10.129   3.528 -2.4202  2.2060  0.5226
  428MOL0     H57777   2.466  10.091   3.374 -0.4236  0.2496 -0.2055
  428MOL0     H57778   2.486   9.713   3.587 -0.4151 -0.9441 -1.9360
  428MOL0     H57779   1.789   9.960   3.505 -0.5187 -0.1125  0.6309
  428MOL0     H57780   1.563  10.054   3.509 -0.3086  0.6323  0.9370
  429MOL0     O57781  10.073   4.751   4.740  0.0133 -0.0478  0.0389
  429MOL0     C57782  10.087   4.765   4.865  0.2288  0.1240 -0.4519
  429MOL0     O57783  10.031   4.865   4.949  0.5056 -0.1380  0.7035
  429MOL0     C57784   9.914   4.930   4.908  0.3662  1.2360  0.7592
  429MOL0     C57785   9.884   5.046   4.971  0.9249 -0.5472  0.7441
  429MOL0     C57786   9.768   5.131   4.951 -1.1857  0.2224 -0.6855
  429MOL0     C57787   9.663   5.072   4.874  0.8443 -0.0719  0.4786
  429MOL0     O57788   9.534   5.130   4.856  0.0826 -0.1261 -0.7949
  429MOL0     C57789   9.498   5.242   4.939 -0.3289  0.0901  0.0414
  429MOL0     C57790   9.348   5.248   4.965  0.3167 -0.1447 -0.0810
  429MOL0     C57791   9.275   5.116   5.006  1.1910 -0.0611  0.0080
  429MOL0     C57792   9.127   5.159   5.031 -0.2654  0.0199  0.6507
  429MOL0     C57793   9.048   5.028   5.062 -0.2869 -0.6824 -0.4529
  429MOL0     C57794   8.904   5.066   5.089 -0.2542  0.3359  0.1314
  429MOL0     C57795   8.799   4.950   5.076  1.0692 -0.2360 -0.2605
  429MOL0     C57796   8.836   4.835   5.168 -0.4531 -0.1402 -0.5459
  429MOL0     N57797   8.823   4.875   5.306  1.0106 -0.1652  0.1116
  429MOL0     C57798   8.706   4.867   5.369 -0.3994 -0.8461 -0.7860
  429MOL0     C57799   8.740   4.896   5.499  0.5367 -0.7998  0.1934
  429MOL0     C57800   8.645   4.926   5.606  0.3708 -0.6604  0.3326
  429MOL0     C57801   8.613   5.078   5.597 -0.0329  0.2602 -0.1286
  429MOL0     C57802   8.553   5.143   5.721  0.6871  0.3757 -0.4861
  429MOL0     C57803   8.419   5.091   5.762  0.4617 -0.0613 -0.4173
  429MOL0     O57804   8.331   5.134   5.671  0.4014  0.0988 -0.1880
  429MOL0     C57805   8.204   5.089   5.694 -0.2474 -0.7969 -0.1413
  429MOL0     C57806   8.106   5.163   5.620  0.0624  0.4416 -0.5942
  429MOL0     C57807   7.971   5.130   5.641  0.5310  0.0427  0.9003
  429MOL0     C57808   7.875   5.211   5.557 -0.6440  0.9668  0.2509
  429MOL0     C57809   7.928   5.035   5.739 -0.6007 -0.2967 -0.5885
  429MOL0     C57810   7.793   5.015   5.772 -0.4011 -0.2927 -0.4676
  429MOL0     O57811   7.727   4.923   5.687  0.0937  0.5300 -0.1904
  429MOL0     C57812   7.602   4.879   5.718  0.4927 -0.3868  0.0002
  429MOL0     C57813   7.492   4.960   5.734 -1.2895 -0.0235 -0.3208
  429MOL0     C57814   7.368   4.918   5.763 -0.3214  0.0370 -0.4585
  429MOL0     C57815   7.338   4.783   5.761  0.0288  0.7171  0.1281
  429MOL0     O57816   7.209   4.738   5.780 -0.5173  0.1284 -0.4697
  429MOL0     C57817   7.176   4.596   5.821  0.5861 -0.1476 -0.1777
  429MOL0     C57818   7.033   4.584   5.862 -0.0350 -0.0931 -0.2907
  429MOL0     C57819   6.944   4.610   5.735 -0.6679 -0.6649 -0.0933
  429MOL0     C57820   6.814   4.680   5.778 -0.7593  0.7082  0.2291
  429MOL0     C57821   6.736   4.598   5.881  1.2009 -0.2035 -0.1890
  429MOL0     C57822   6.593   4.660   5.909 -0.3922 -0.0097  1.3194
  429MOL0     C57823   6.497   4.640   5.789  0.7003 -0.0709 -0.0123
  429MOL0     C57824   6.466   4.498   5.762  0.2374 -0.7499 -1.6199
  429MOL0    Cl57825   6.328   4.465   5.653 -0.1220 -0.1692  0.4936
  429MOL0     C57826   7.450   4.697   5.744 -0.0134  0.1624 -0.4513
  429MOL0     C57827   7.585   4.743   5.723  0.2209 -0.6863  0.1009
  429MOL0     O57828   7.749   5.047   5.883 -0.0738 -0.3453  0.1820
  429MOL0     C57829   8.027   4.972   5.817 -0.1904  0.3372  0.0366
  429MOL0     C57830   8.163   4.995   5.792 -0.5347  0.1398 -0.2359
  429MOL0     N57831   8.878   4.930   5.508 -0.3402  0.0668  0.3453
  429MOL0     N57832   8.919   4.920   5.388  0.0984 -0.3362 -0.0007
  429MOL0     C57833   9.693   4.960   4.800  0.0513  0.5182  0.6989
  429MOL0     C57834   9.814   4.884   4.818  0.2380  0.3431 -0.2214
  429MOL0     C57835  10.179   4.673   4.931  0.4072  0.0952  0.5774
  429MOL0     C57836  10.247   4.581   4.851  0.4407  0.5100  0.3154
  429MOL0     C57837  10.337   4.490   4.900 -0.1591 -0.0663  0.5097
  429MOL0     C57838  10.348   4.471   5.030  0.5006  0.1128 -0.2126
  429MOL0     O57839  10.419   4.365   5.089 -0.1464 -0.2214 -0.2052
  429MOL0     C57840  10.496   4.274   5.014 -0.1796  0.1146  0.6508
  429MOL0     C57841  10.564   4.191   5.118  0.0267  0.1949 -0.4619
  429MOL0     C57842  10.701   4.244   5.166  0.2218  0.5588 -0.3744
  429MOL0     C57843  10.732   4.170   5.296  0.0009  0.1913 -0.2980
  429MOL0     C57844  10.870   4.190   5.341  0.3363  0.3311  0.4644
  429MOL0     C57845  10.980   4.186   5.388 -0.6310 -0.5712  0.0305
  429MOL0     C57846  10.279   4.561   5.116  0.7264  0.3469 -0.0200
  429MOL0     C57847  10.200   4.667   5.072  0.0418 -0.7578  0.0286
  429MOL0     H57848   9.944   5.081   5.055 -0.3883  0.1390  1.4337
  429MOL0     H57849   9.764   5.228   4.999  2.2327  0.9360 -1.5595
  429MOL0     H57850   9.563   5.251   5.027 -0.2441  2.4732 -0.1779
  429MOL0     H57851   9.525   5.333   4.884 -2.6233  0.8008 -0.0266
  429MOL0     H57852   9.333   5.315   5.050 -0.8176  0.5340 -0.7839
  429MOL0     H57853   9.297   5.288   4.877 -1.3474  0.3411  1.0618
  429MOL0     H57854   9.276   5.045   4.923  1.2115  0.6164 -0.5842
  429MOL0     H57855   9.327   5.058   5.083  3.3727 -0.5924 -1.7664
  429MOL0     H57856   9.113   5.231   5.112  0.7729 -0.1286  0.9785
  429MOL0     H57857   9.087   5.209   4.943 -2.7500 -2.5967  0.1370
  429MOL0     H57858   9.063   4.967   4.972 -0.5236  0.6001 -1.3907
  429MOL0     H57859   9.083   4.985   5.156 -0.6557  1.4478  0.7157
  429MOL0     H57860   8.893   5.102   5.192 -2.5185 -0.5646  0.2404
  429MOL0     H57861   8.884   5.147   5.018  4.0660  1.6795  0.1037
  429MOL0     H57862   8.697   4.984   5.096  0.8500 -2.3495  3.0126
  429MOL0     H57863   8.802   4.902   4.978 -0.4843 -2.7906  0.8368
  429MOL0     H57864   8.939   4.802   5.152 -0.1235  0.7155 -0.2285
  429MOL0     H57865   8.778   4.746   5.143 -2.9708  0.6392  1.9096
  429MOL0     H57866   8.613   4.837   5.323 -0.4914 -1.8009 -0.0125
  429MOL0     H57867   8.550   4.872   5.607  0.8822 -1.6094 -0.4023
  429MOL0     H57868   8.692   4.908   5.703  1.9116 -2.0663 -0.6228
  429MOL0     H57869   8.551   5.116   5.516  1.9446  3.1973 -0.4325
  429MOL0     H57870   8.711   5.126   5.584 -0.3315  1.3210  1.3272
  429MOL0     H57871   8.546   5.252   5.711  1.2254  0.8012  2.5819
  429MOL0     H57872   8.625   5.129   5.803  1.4096  1.4300 -0.9141
  429MOL0     H57873   8.389   5.139   5.856  2.8292 -3.0404  2.0631
  429MOL0     H57874   8.424   4.984   5.780  3.1849 -0.0661 -0.8595
  429MOL0     H57875   8.133   5.238   5.547  2.4719  1.6911  1.4210
  429MOL0     H57876   7.916   5.293   5.498 -0.6580 -0.7688 -2.3368
  429MOL0     H57877   7.826   5.144   5.486  1.4182 -2.1311  1.5229
  429MOL0     H57878   7.801   5.247   5.629 -1.7637  0.7099 -0.7475
  429MOL0     H57879   7.496   5.068   5.746  0.9054 -0.2161  1.0590
  429MOL0     H57880   7.296   4.992   5.795  0.6082 -0.3768  2.9928
  429MOL0     H57881   7.204   4.529   5.739 -0.3470 -0.5315 -0.1878
  429MOL0     H57882   7.239   4.563   5.904 -0.7613 -1.6610  0.2777
  429MOL0     H57883   7.021   4.484   5.903  1.1647 -0.3766 -0.6030
  429MOL0     H57884   7.009   4.654   5.943  0.3957 -0.6583  0.3357
  429MOL0     H57885   6.928   4.527   5.666 -5.2604  0.0281 -0.1198
  429MOL0     H57886   7.004   4.681   5.676 -1.9235 -0.5123 -1.2362
  429MOL0     H57887   6.835   4.775   5.828  3.4032  0.2636 -0.3686
  429MOL0     H57888   6.764   4.697   5.682  1.1616 -2.1818 -1.4078
  429MOL0     H57889   6.782   4.584   5.979 -1.2887  0.1169  1.0949
  429MOL0     H57890   6.735   4.493   5.852 -1.5228 -0.1187 -0.6900
  429MOL0     H57891   6.545   4.614   5.996 -0.7117 -0.5683  0.8466
  429MOL0     H57892   6.601   4.765   5.940 -1.5192 -0.0333  1.7319
  429MOL0     H57893   6.544   4.693   5.706 -0.5674  3.9214  1.5540
  429MOL0     H57894   6.407   4.696   5.815 -1.3607 -2.9993 -0.2961
  429MOL0     H57895   6.453   4.446   5.857 -0.1321  3.8436  1.1750
  429MOL0     H57896   6.547   4.453   5.704  2.6816  0.7129  0.4461
  429MOL0     H57897   7.440   4.589   5.742  2.2453 -0.0806 -0.8600
  429MOL0     H57898   7.666   4.671   5.713 -1.5875 -2.7465 -0.4704
  429MOL0     H57899   8.007   4.917   5.909 -0.2889 -0.2040 -0.3036
  429MOL0     H57900   8.231   4.949   5.863 -1.0857 -1.8648 -0.9488
  429MOL0     H57901   9.609   4.917   4.746  0.6977  0.5339 -0.3625
  429MOL0     H57902   9.830   4.786   4.773 -1.2389  0.3588 -0.8300
  429MOL0     H57903  10.224   4.577   4.745  2.5773 -0.5822 -0.1509
  429MOL0     H57904  10.386   4.421   4.833 -2.0654 -0.9318 -0.0798
  429MOL0     H57905  10.434   4.206   4.954 -0.2599 -1.9167  2.9069
  429MOL0     H57906  10.573   4.327   4.959  0.3182  1.5834  2.6811
  429MOL0     H57907  10.566   4.092   5.069 -0.6945  0.2374 -0.5862
  429MOL0     H57908  10.507   4.190   5.211  0.9429  3.6849  0.2533
  429MOL0     H57909  10.692   4.348   5.199  0.5316 -0.1091  1.9783
  429MOL0     H57910  10.783   4.233   5.095  2.5863 -0.9401  2.3945
  429MOL0     H57911  10.709   4.065   5.279  0.6890 -0.2175  1.1745
  429MOL0     H57912  10.664   4.208   5.374 -1.6796  2.5470 -2.7275
  429MOL0     H57913  11.078   4.167   5.427  0.1656 -2.8497 -2.7727
  429MOL0     H57914  10.290   4.541   5.222  0.2615  0.5504  0.0717
  429MOL0     H57915  10.145   4.735   5.136 -3.4121 -2.2571 -1.1003
  430MOL0     O57916   8.195   0.597   1.283 -0.3151  0.5544  0.2244
  430MOL0     C57917   8.084   0.646   1.304 -1.4618  0.6961 -0.3227
  430MOL0     O57918   8.040   0.768   1.272  0.4660  0.0573 -0.0886
  430MOL0     C57919   8.116   0.853   1.202  0.3061  0.1731  0.3423
  430MOL0     C57920   8.234   0.832   1.121  0.8685 -0.2312  1.1310
  430MOL0     C57921   8.288   0.923   1.040  0.5569 -0.8701  0.6902
  430MOL0     C57922   8.220   1.053   1.035 -0.8179 -0.1724  0.3421
  430MOL0     O57923   8.277   1.149   0.946 -0.3678 -0.0194 -0.8515
  430MOL0     C57924   8.217   1.278   0.939 -0.1387 -0.4714  0.4990
  430MOL0     C57925   8.291   1.381   0.845  0.6534 -0.6489 -0.4346
  430MOL0     C57926   8.269   1.339   0.697  0.9094  0.5784 -0.4575
  430MOL0     C57927   8.318   1.452   0.605 -0.8098  1.0603  0.1723
  430MOL0     C57928   8.382   1.412   0.468 -0.1797 -0.2978  0.2165
  430MOL0     C57929   8.511   1.321   0.485  0.7899  0.7195 -0.6324
  430MOL0     C57930   8.581   1.317   0.357  0.3817 -0.3059 -0.4714
  430MOL0     C57931   8.710   1.238   0.365 -1.0341  0.3197  0.1250
  430MOL0     N57932   8.823   1.307   0.427 -0.0709 -0.4826 -0.0683
  430MOL0     C57933   8.873   1.288   0.556  0.1893 -0.7884  1.6191
  430MOL0     C57934   8.965   1.388   0.571  0.9917 -0.0911 -0.2316
  430MOL0     C57935   9.060   1.400   0.688  0.6325 -0.0904  0.2480
  430MOL0     C57936   9.210   1.439   0.650  0.7672  0.0494 -1.0753
  430MOL0     C57937   9.305   1.415   0.765  0.1924 -0.5235  1.1492
  430MOL0     C57938   9.450   1.435   0.708 -0.8888 -0.3910  0.5278
  430MOL0     O57939   9.511   1.334   0.629 -0.3788  0.0092 -0.0541
  430MOL0     C57940   9.650   1.352   0.608  0.1858  0.2700  0.0201
  430MOL0     C57941   9.708   1.481   0.589 -0.2725  0.2787  0.2363
  430MOL0     C57942   9.843   1.507   0.540 -0.6443 -0.6732 -0.9953
  430MOL0     C57943   9.878   1.649   0.532 -0.1746  0.0103 -0.1872
  430MOL0     C57944   9.918   1.392   0.507 -0.0663 -0.0952 -1.7353
  430MOL0     C57945  10.062   1.397   0.459  0.1789  0.4593 -0.4553
  430MOL0     O57946  10.142   1.284   0.455  0.4098  0.5961  0.0878
  430MOL0     C57947  10.244   1.289   0.356  0.1090  0.3202 -0.0524
  430MOL0     C57948  10.237   1.225   0.231  0.9990  0.1217 -1.3832
  430MOL0     C57949  10.341   1.226   0.142 -0.1668 -0.2839  0.1536
  430MOL0     C57950  10.468   1.286   0.178  1.0192 -0.4240 -1.1527
  430MOL0     O57951  10.564   1.310   0.090  1.0665 -0.1974  0.2938
  430MOL0     C57952  10.582   1.206  -0.011 -0.0843 -0.0628  0.4907
  430MOL0     C57953  10.734   1.200  -0.032 -0.3480 -0.8402 -0.3660
  430MOL0     C57954  10.800   1.126   0.080 -0.1772  0.4870  0.0176
  430MOL0     C57955  10.946   1.093   0.054 -0.0496 -0.3575  0.5788
  430MOL0     C57956  11.028   1.056   0.184 -0.3732  0.2412  0.1066
  430MOL0     C57957  11.172   1.027   0.145 -0.1483  0.0995  0.1567
  430MOL0     C57958  11.264   0.968   0.252  0.1316 -0.3092 -0.0606
  430MOL0     C57959  11.270   1.065   0.371 -0.0978  0.7372 -0.4630
  430MOL0    Cl57960  11.360   0.988   0.495  0.4863  0.2564  0.3657
  430MOL0     C57961  10.479   1.348   0.310 -0.8013 -0.5676  0.3522
  430MOL0     C57962  10.369   1.355   0.391  0.1038 -0.2700  0.1714
  430MOL0     O57963  10.090   1.507   0.416  0.0643  0.3913  0.6359
  430MOL0     C57964   9.852   1.262   0.520 -0.4033 -0.5768 -0.1773
  430MOL0     C57965   9.720   1.247   0.564  0.2746 -0.3058  0.2329
  430MOL0     N57966   8.966   1.472   0.456  0.3075 -0.7062  0.0630
  430MOL0     N57967   8.885   1.419   0.369 -0.0627  0.1537 -0.0474
  430MOL0     C57968   8.105   1.069   1.105 -0.1530 -0.3383 -0.4084
  430MOL0     C57969   8.041   0.971   1.183 -0.2208  1.0904 -0.7464
  430MOL0     C57970   7.988   0.547   1.342 -0.1226  0.0658  0.6096
  430MOL0     C57971   8.008   0.406   1.328  0.1510  0.0380  0.0121
  430MOL0     C57972   7.901   0.314   1.359  0.3477  0.3178  0.0665
  430MOL0     C57973   7.777   0.366   1.404 -0.0021 -0.1087  0.3776
  430MOL0     O57974   7.672   0.290   1.454  0.0596 -0.1614 -0.3605
  430MOL0     C57975   7.704   0.193   1.555  0.8342  0.1432 -0.2849
  430MOL0     C57976   7.633   0.063   1.511  1.3039 -0.5556  0.5949
  430MOL0     C57977   7.664   0.023   1.364 -1.0467  1.0948 -0.6871
  430MOL0     C57978   7.588  -0.101   1.320 -0.3082  0.0563 -0.1716
  430MOL0     C57979   7.434  -0.080   1.319 -0.7338  0.9351 -0.5025
  430MOL0     C57980   7.310  -0.102   1.312  0.6169  0.1144  0.6363
  430MOL0     C57981   7.763   0.506   1.422  0.1612  0.0969 -1.0520
  430MOL0     C57982   7.865   0.592   1.399  0.5982 -0.7432  0.3134
  430MOL0     H57983   8.302   0.748   1.136  0.5810 -0.2762  2.2858
  430MOL0     H57984   8.385   0.914   0.993 -0.5372 -0.8714 -1.7560
  430MOL0     H57985   8.114   1.270   0.904  0.2049  1.0840 -0.9546
  430MOL0     H57986   8.222   1.321   1.040 -0.6802 -0.8426  0.6883
  430MOL0     H57987   8.240   1.476   0.860 -0.2071 -1.1080 -0.4098
  430MOL0     H57988   8.396   1.387   0.875  0.5652 -0.2331 -0.2004
  430MOL0     H57989   8.331   1.249   0.685  0.6616  0.5613 -1.7194
  430MOL0     H57990   8.165   1.313   0.673  1.2124  0.1000 -1.2973
  430MOL0     H57991   8.232   1.519   0.595 -0.9111  0.8083 -0.7156
  430MOL0     H57992   8.398   1.519   0.640  1.1451  1.2189 -3.9960
  430MOL0     H57993   8.305   1.352   0.420  1.6144 -2.0032 -0.7067
  430MOL0     H57994   8.411   1.502   0.414 -2.3178 -0.1722 -0.8031
  430MOL0     H57995   8.581   1.361   0.558  0.2321  0.7309 -0.0894
  430MOL0     H57996   8.480   1.221   0.517 -0.8220  1.6053  0.7805
  430MOL0     H57997   8.516   1.270   0.282 -1.4831  1.3080  0.0609
  430MOL0     H57998   8.598   1.419   0.323  1.1613 -0.7197 -1.3997
  430MOL0     H57999   8.744   1.218   0.263 -0.2559 -0.9579  0.5998
  430MOL0     H58000   8.679   1.149   0.422  0.4011 -2.4065 -3.0006
  430MOL0     H58001   8.847   1.208   0.625  2.8591 -1.6877  1.6696
  430MOL0     H58002   9.018   1.467   0.763  2.3527  0.9593  0.3242
  430MOL0     H58003   9.056   1.302   0.737 -0.9920 -0.0303  0.2839
  430MOL0     H58004   9.209   1.544   0.621  1.4042  0.5464  0.5868
  430MOL0     H58005   9.227   1.369   0.568 -2.9260 -0.3010 -1.7346
  430MOL0     H58006   9.288   1.315   0.806 -4.1519 -1.0068 -1.2300
  430MOL0     H58007   9.287   1.496   0.835 -0.2377  1.3872 -1.0424
  430MOL0     H58008   9.514   1.446   0.796  0.1978 -1.5522 -0.0645
  430MOL0     H58009   9.440   1.524   0.646  0.0634  0.1425  1.1163
  430MOL0     H58010   9.648   1.571   0.597  0.6092  1.1526 -2.0686
  430MOL0     H58011   9.975   1.665   0.581 -0.2852  1.3993 -0.3817
  430MOL0     H58012   9.886   1.682   0.428  0.0193  1.0260  0.1455
  430MOL0     H58013   9.800   1.711   0.576  0.5021  0.2966  0.6426
  430MOL0     H58014  10.143   1.178   0.204 -0.0074  0.6127  0.9733
  430MOL0     H58015  10.320   1.174   0.049 -2.9672  0.7198  0.1390
  430MOL0     H58016  10.554   1.107   0.025 -1.4177  0.1547  0.0987
  430MOL0     H58017  10.525   1.222  -0.103  0.1501  3.4922  0.8080
  430MOL0     H58018  10.746   1.134  -0.118  0.4974 -0.3605 -0.6167
  430MOL0     H58019  10.765   1.305  -0.036 -1.2797 -0.5695 -0.7844
  430MOL0     H58020  10.749   1.037   0.117  0.1869  0.4808  0.5252
  430MOL0     H58021  10.809   1.201   0.160  1.1195  0.4135 -0.0308
  430MOL0     H58022  10.956   1.008  -0.014 -1.0043  0.9256 -1.2633
  430MOL0     H58023  10.996   1.170  -0.006  2.3026 -1.8844  0.4505
  430MOL0     H58024  10.978   0.971   0.231  0.8565 -0.8875 -0.5562
  430MOL0     H58025  11.032   1.141   0.254 -1.0775  0.5491 -0.2195
  430MOL0     H58026  11.154   0.948   0.071 -0.8246  2.0059 -1.8338
  430MOL0     H58027  11.218   1.117   0.102 -1.1935 -0.2786 -1.8670
  430MOL0     H58028  11.364   0.955   0.210 -0.2692  1.6554 -1.8116
  430MOL0     H58029  11.227   0.871   0.286 -1.2583 -0.8124 -2.7050
  430MOL0     H58030  11.169   1.084   0.410  0.2923  1.5101  0.2060
  430MOL0     H58031  11.320   1.158   0.340 -0.4294  0.3300 -2.3608
  430MOL0     H58032  10.568   1.396   0.349  0.1789 -1.2240 -0.9745
  430MOL0     H58033  10.385   1.406   0.485 -0.0596  2.0507 -0.9952
  430MOL0     H58034   9.913   1.184   0.477  0.1580  0.4116 -1.2336
  430MOL0     H58035   9.672   1.150   0.564  0.4567 -0.4150 -1.0241
  430MOL0     H58036   8.061   1.168   1.099  0.7607  0.0268 -1.6353
  430MOL0     H58037   7.950   1.005   1.231 -2.5407 -1.6318 -2.8581
  430MOL0     H58038   8.102   0.369   1.289  0.7932  0.4302  1.1145
  430MOL0     H58039   7.917   0.208   1.346 -0.5343  0.1461  0.3309
  430MOL0     H58040   7.809   0.173   1.580  1.0685  0.2427 -1.1594
  430MOL0     H58041   7.662   0.214   1.654 -0.1078 -1.0612 -0.4120
  430MOL0     H58042   7.525   0.079   1.516  1.5177  0.9183  0.8936
  430MOL0     H58043   7.654  -0.020   1.579 -2.9852 -2.6689 -0.3020
  430MOL0     H58044   7.769  -0.007   1.353 -0.7387  2.1038 -0.5980
  430MOL0     H58045   7.656   0.099   1.286  0.2484 -0.1649 -2.1435
  430MOL0     H58046   7.624  -0.183   1.384 -0.7219  1.2775  1.6948
  430MOL0     H58047   7.622  -0.132   1.220  4.3607 -2.0960  1.7614
  430MOL0     H58048   7.206  -0.127   1.312  0.6714 -0.1537 -0.5239
  430MOL0     H58049   7.667   0.551   1.444 -0.0316 -1.5965  2.1492
  430MOL0     H58050   7.839   0.697   1.403  1.9890 -0.3637 -0.1688
  431MOL0     O58051   3.139  11.104   9.446  0.2516 -0.0349 -0.7581
  431MOL0     C58052   3.231  11.176   9.415 -0.4942  0.3085 -0.7994
  431MOL0     O58053   3.288  11.278   9.482 -0.5622  0.2859 -0.2027
  431MOL0     C58054   3.254  11.314   9.610  0.0251  0.4739  0.4105
  431MOL0     C58055   3.350  11.392   9.676  0.6201 -0.5770 -1.2022
  431MOL0     C58056   3.329  11.435   9.799 -0.2637 -0.2240  0.1305
  431MOL0     C58057   3.212  11.398   9.876  0.3128  0.9295  0.9901
  431MOL0     O58058   3.210  11.415  10.007 -0.1837 -1.3006 -0.1226
  431MOL0     C58059   3.124  11.528  10.033 -1.2761 -0.8702  0.2515
  431MOL0     C58060   3.189  11.667  10.001  0.1048  0.6357  1.1614
  431MOL0     C58061   3.086  11.782  10.035  0.6217  0.0489 -0.0321
  431MOL0     C58062   3.039  11.785  10.180  0.7283  0.1499  0.2166
  431MOL0     C58063   2.952  11.909  10.195 -0.1404  0.5613 -0.0112
  431MOL0     C58064   2.904  11.940  10.334  0.2246  0.1144  0.1147
  431MOL0     C58065   2.816  12.069  10.335 -0.2381  0.5993 -0.6951
  431MOL0     C58066   2.718  12.072  10.458 -0.1849 -0.3570 -0.2257
  431MOL0     N58067   2.599  11.985  10.444 -0.7761  0.6108 -0.2080
  431MOL0     C58068   2.520  11.975  10.326 -0.5799  0.3327  0.0751
  431MOL0     C58069   2.464  11.853  10.332  0.5939  0.2683 -0.4207
  431MOL0     C58070   2.392  11.779  10.221 -0.5505  0.4211  1.2626
  431MOL0     C58071   2.275  11.855  10.148  0.0110  0.6002  0.2770
  431MOL0     C58072   2.145  11.853  10.242  0.5485 -0.2014  0.6846
  431MOL0     C58073   2.041  11.937  10.181  2.0092 -0.6632  0.5240
  431MOL0     O58074   1.931  11.957  10.268  0.3025 -0.1060 -0.0757
  431MOL0     C58075   1.839  11.858  10.295 -0.4812 -0.2484 -0.3675
  431MOL0     C58076   1.844  11.729  10.245  0.7111 -0.5404 -0.1106
  431MOL0     C58077   1.746  11.628  10.275 -1.4115 -0.0217 -0.0122
  431MOL0     C58078   1.770  11.504  10.198  0.6310 -0.2934  0.1469
  431MOL0     C58079   1.647  11.660  10.375  0.4754  0.5937 -0.1247
  431MOL0     C58080   1.546  11.566  10.428  0.4831  1.0120 -0.5087
  431MOL0     O58081   1.495  11.474  10.346  0.8582  0.5647  0.2765
  431MOL0     C58082   1.364  11.428  10.352  1.1017  0.2534 -0.0371
  431MOL0     C58083   1.260  11.484  10.431 -0.6269  0.0297 -0.3186
  431MOL0     C58084   1.134  11.429  10.427  0.1487  0.9547 -0.2155
  431MOL0     C58085   1.102  11.321  10.336 -0.9880 -0.5578 -0.0767
  431MOL0     O58086   0.966  11.286  10.333  0.0995  0.3507 -0.7601
  431MOL0     C58087   0.916  11.204  10.233 -0.1937  0.8691  0.8120
  431MOL0     C58088   0.767  11.178  10.238  0.5461  0.5958 -0.7308
  431MOL0     C58089   0.731  11.113  10.372  0.3826  0.2907 -0.4973
  431MOL0     C58090   0.586  11.070  10.370  0.2216  0.1030 -0.4460
  431MOL0     C58091   0.544  10.989  10.492  0.0826  1.2445  1.0913
  431MOL0     C58092   0.405  10.927  10.497 -0.2424  0.0010  0.3751
  431MOL0     C58093   0.394  10.851  10.625 -0.0071  0.4502 -0.6949
  431MOL0     C58094   0.267  10.774  10.645 -0.9510 -1.1406 -0.1899
  431MOL0    Cl58095   0.283  10.672  10.798  0.0037  0.2324  0.0327
  431MOL0     C58096   1.204  11.271  10.247 -0.2508  0.6456 -0.1648
  431MOL0     C58097   1.337  11.315  10.262 -0.5266 -0.5339 -0.6185
  431MOL0     O58098   1.523  11.570  10.552  0.4304 -0.3514  0.1825
  431MOL0     C58099   1.645  11.790  10.426  0.5499 -0.8700 -0.4131
  431MOL0     C58100   1.742  11.888  10.391  1.0196  0.6530  0.5509
  431MOL0     N58101   2.486  11.797  10.452 -0.1313 -0.4645 -0.2001
  431MOL0     N58102   2.570  11.875  10.515 -1.2959  0.3095 -1.0731
  431MOL0     C58103   3.116  11.324   9.811  0.4762 -0.6954 -0.1443
  431MOL0     C58104   3.134  11.282   9.684 -0.6682  0.7271  0.0083
  431MOL0     C58105   3.293  11.149   9.286  0.8298  0.3660  0.2173
  431MOL0     C58106   3.405  11.220   9.244  0.8502  0.0530  0.1310
  431MOL0     C58107   3.459  11.195   9.129 -0.1228  1.0653 -0.0386
  431MOL0     C58108   3.398  11.115   9.028 -0.2511 -0.3247  0.8083
  431MOL0     O58109   3.457  11.119   8.906  0.2992  0.0121  0.1055
  431MOL0     C58110   3.362  11.159   8.805 -0.0703  0.6202  0.6134
  431MOL0     C58111   3.440  11.205   8.679 -0.3937  0.0163 -0.4220
  431MOL0     C58112   3.360  11.233   8.558 -0.2287 -0.3351 -0.5047
  431MOL0     C58113   3.471  11.275   8.454 -0.2435 -0.8273  0.1934
  431MOL0     C58114   3.417  11.305   8.319  0.0159 -0.0191  0.8566
  431MOL0     C58115   3.377  11.326   8.208 -0.2044  0.0185  0.2872
  431MOL0     C58116   3.283  11.047   9.066  0.2637 -0.2281 -0.0830
  431MOL0     C58117   3.234  11.058   9.192 -0.0018 -0.5864  0.3045
  431MOL0     H58118   3.446  11.425   9.638  0.6975  2.0841  0.9383
  431MOL0     H58119   3.415  11.494   9.830  0.3834 -0.8047 -0.5080
  431MOL0     H58120   3.030  11.522   9.977 -1.1813 -0.1430  0.0122
  431MOL0     H58121   3.092  11.528  10.138  1.4268  0.6776  1.1764
  431MOL0     H58122   3.277  11.684  10.064 -0.2417  1.0237  1.5439
  431MOL0     H58123   3.220  11.668   9.896  2.2764 -0.5345  1.7288
  431MOL0     H58124   3.133  11.880  10.025 -2.3576  1.5703 -0.3560
  431MOL0     H58125   2.999  11.783   9.969  1.9640  2.4376 -1.8843
  431MOL0     H58126   2.980  11.695  10.199 -0.5670  0.3964 -2.1669
  431MOL0     H58127   3.130  11.778  10.240  1.3059  2.1712 -0.3428
  431MOL0     H58128   2.992  12.002  10.153 -0.3163 -0.2237 -2.0339
  431MOL0     H58129   2.859  11.890  10.140 -0.5312  1.9863  0.1277
  431MOL0     H58130   2.846  11.857  10.377 -1.9135  2.3025  1.7339
  431MOL0     H58131   2.984  11.946  10.408  1.7876  2.0267 -1.6118
  431MOL0     H58132   2.888  12.151  10.334  0.4753  0.0766  1.6199
  431MOL0     H58133   2.747  12.071  10.251 -2.8103 -0.6935  1.2428
  431MOL0     H58134   2.685  12.176  10.455  0.8412 -0.0327 -0.7376
  431MOL0     H58135   2.773  12.048  10.549  0.5044 -1.5492 -0.9240
  431MOL0     H58136   2.509  12.045  10.244  0.9529 -1.4685 -1.7983
  431MOL0     H58137   2.466  11.742  10.148 -3.5002 -2.9684 -0.3571
  431MOL0     H58138   2.359  11.680  10.254  1.1055 -1.3965 -1.9473
  431MOL0     H58139   2.249  11.802  10.056  1.0660 -1.3389  1.0434
  431MOL0     H58140   2.294  11.959  10.121 -1.1600  0.9114  0.6040
  431MOL0     H58141   2.164  11.904  10.337 -1.0572 -1.5735  1.8003
  431MOL0     H58142   2.117  11.748  10.257 -1.1029 -0.2229 -1.8452
  431MOL0     H58143   2.008  11.902  10.083  0.0588  2.0505  0.0871
  431MOL0     H58144   2.089  12.035  10.165  1.2593 -0.5844 -1.6569
  431MOL0     H58145   1.921  11.713  10.170  1.9002  1.7177  0.5171
  431MOL0     H58146   1.678  11.452  10.170 -0.1633  0.9289  0.4264
  431MOL0     H58147   1.826  11.518  10.105 -0.5793 -1.0270 -0.7239
  431MOL0     H58148   1.832  11.441  10.263 -0.9150 -2.2117 -0.1524
  431MOL0     H58149   1.273  11.564  10.502 -0.0074 -0.1033 -0.2770
  431MOL0     H58150   1.052  11.476  10.481 -1.8847 -1.7606 -0.6916
  431MOL0     H58151   0.948  11.230  10.132  4.0508  0.3220  1.8495
  431MOL0     H58152   0.954  11.103  10.250 -3.4304 -0.3829  1.3874
  431MOL0     H58153   0.724  11.274  10.208  1.0707  1.0528 -0.0601
  431MOL0     H58154   0.750  11.107  10.156  0.5802  0.6316 -0.7693
  431MOL0     H58155   0.739  11.182  10.457 -3.1229 -0.1556  0.3556
  431MOL0     H58156   0.779  11.022  10.409 -3.7302 -0.8319  2.8264
  431MOL0     H58157   0.522  11.158  10.363  1.1448  0.9166  0.8361
  431MOL0     H58158   0.577  11.008  10.280  3.0570 -1.6992  0.3723
  431MOL0     H58159   0.546  11.055  10.579  1.2916  1.5829  0.8210
  431MOL0     H58160   0.613  10.905  10.510 -0.2248  0.4822 -1.0136
  431MOL0     H58161   0.334  11.010  10.486  1.6826  1.5231 -1.5934
  431MOL0     H58162   0.387  10.843  10.430 -2.8821  0.5662  0.2830
  431MOL0     H58163   0.413  10.913  10.714  0.3521  1.5863 -1.5439
  431MOL0     H58164   0.465  10.768  10.614 -0.0809  0.0515  1.2987
  431MOL0     H58165   0.244  10.708  10.561  0.3393 -2.2248  0.2652
  431MOL0     H58166   0.195  10.855  10.657 -0.4832 -0.7259 -0.1923
  431MOL0     H58167   1.193  11.190  10.175 -1.8255 -0.3117  1.1008
  431MOL0     H58168   1.422  11.279  10.205 -1.0914  0.7150 -2.3178
  431MOL0     H58169   1.565  11.820  10.493  1.0830  0.1946 -0.2291
  431MOL0     H58170   1.745  11.984  10.441 -1.4985  0.7650  0.6394
  431MOL0     H58171   3.020  11.289   9.848  0.1881 -1.4404 -1.5222
  431MOL0     H58172   3.059  11.219   9.639  1.3644 -2.2799  0.5438
  431MOL0     H58173   3.454  11.288   9.312  1.5322 -1.6110  1.3732
  431MOL0     H58174   3.545  11.254   9.102  0.7779 -0.2943 -0.2499
  431MOL0     H58175   3.298  11.075   8.774  0.8706  0.1646 -0.1475
  431MOL0     H58176   3.304  11.243   8.844  1.4353  1.6208  0.7674
  431MOL0     H58177   3.515  11.128   8.662  0.5505  0.8393 -0.0693
  431MOL0     H58178   3.496  11.295   8.705 -2.4106  0.2321  4.3712
  431MOL0     H58179   3.299  11.321   8.582  2.0550  0.9787  0.7572
  431MOL0     H58180   3.302  11.143   8.536  0.2786 -0.9491  0.6259
  431MOL0     H58181   3.538  11.188   8.444  2.0690  0.1955  4.2706
  431MOL0     H58182   3.533  11.362   8.479 -1.6090 -0.1993  1.5274
  431MOL0     H58183   3.343  11.363   8.113 -3.0283 -0.4700  1.0160
  431MOL0     H58184   3.230  10.996   8.987 -0.1232 -0.2012  0.1609
  431MOL0     H58185   3.145  11.002   9.219 -1.4417  1.4624  0.0744
  432MOL0     O58186   2.289   8.507   2.920 -0.4644  0.3378 -0.7039
  432MOL0     C58187   2.378   8.513   2.833  0.2188 -0.1063  0.5247
  432MOL0     O58188   2.357   8.534   2.699  0.3582 -0.3882  0.0165
  432MOL0     C58189   2.222   8.537   2.665 -0.9751 -0.5118  0.1535
  432MOL0     C58190   2.140   8.629   2.719  0.5890 -0.6640  0.3052
  432MOL0     C58191   2.007   8.626   2.685  0.7598 -0.2946 -0.0406
  432MOL0     C58192   1.955   8.556   2.574 -0.8819 -0.0445  0.0304
  432MOL0     O58193   1.822   8.557   2.551 -0.1280  0.1687  0.3308
  432MOL0     C58194   1.780   8.474   2.436  0.4349  0.1565  0.8184
  432MOL0     C58195   1.633   8.490   2.417  0.6713 -0.4446  0.8901
  432MOL0     C58196   1.595   8.632   2.376  0.4070  0.6316  0.7309
  432MOL0     C58197   1.458   8.643   2.320 -0.0464  0.1000  0.5842
  432MOL0     C58198   1.448   8.562   2.192  0.3067 -0.4910  0.7226
  432MOL0     C58199   1.315   8.591   2.116  0.0238 -0.3637  0.8594
  432MOL0     C58200   1.190   8.532   2.186  0.1622  0.0777 -0.5281
  432MOL0     C58201   1.069   8.561   2.101  0.4666 -0.8712  0.2848
  432MOL0     N58202   1.078   8.493   1.971  0.3040  0.0798 -0.0592
  432MOL0     C58203   1.081   8.356   1.957  0.3443  0.2287 -0.3143
  432MOL0     C58204   1.114   8.334   1.827  0.5296 -0.7984  0.3247
  432MOL0     C58205   1.136   8.201   1.763 -0.2166  0.2772  0.1159
  432MOL0     C58206   1.019   8.105   1.773 -0.0374 -0.2314 -0.3135
  432MOL0     C58207   1.053   7.955   1.725  1.1427  0.2314 -0.6036
  432MOL0     C58208   0.925   7.872   1.760  0.6560  0.5357  0.1910
  432MOL0     O58209   0.838   7.874   1.648  0.7362 -0.6534  0.2019
  432MOL0     C58210   0.719   7.816   1.679 -0.2269  0.1575  0.3573
  432MOL0     C58211   0.603   7.884   1.709 -0.1598 -1.0512 -0.4944
  432MOL0     C58212   0.495   7.826   1.760 -0.2103  0.1680  0.8035
  432MOL0     C58213   0.394   7.925   1.820  0.7030  0.2905  1.0417
  432MOL0     C58214   0.482   7.685   1.753  0.0970 -0.6432  0.0521
  432MOL0     C58215   0.351   7.607   1.763 -0.0759 -0.6553 -0.7096
  432MOL0     O58216   0.238   7.678   1.805 -0.6008  0.5691  0.4023
  432MOL0     C58217   0.121   7.618   1.815 -0.1006 -0.1497  0.4685
  432MOL0     C58218   0.098   7.508   1.895 -0.4410  0.1129 -1.2567
  432MOL0     C58219  -0.025   7.447   1.895  0.8994 -0.2626  0.9085
  432MOL0     C58220  -0.136   7.494   1.823  0.1746 -0.1791  0.7163
  432MOL0     O58221  -0.268   7.453   1.826  0.7614 -0.1556  0.0181
  432MOL0     C58222  -0.309   7.431   1.963 -0.1339 -0.0707 -0.4453
  432MOL0     C58223  -0.451   7.364   1.969 -0.4941  0.6531 -0.2489
  432MOL0     C58224  -0.557   7.427   1.882  0.1624  0.2655 -0.1411
  432MOL0     C58225  -0.686   7.372   1.925  0.2956 -0.3098 -0.1407
  432MOL0     C58226  -0.743   7.433   2.049 -0.2499  0.0441  0.1987
  432MOL0     C58227  -0.844   7.347   2.127 -0.6047 -0.9276  0.1677
  432MOL0     C58228  -0.968   7.306   2.049  0.4551  0.5287 -0.0424
  432MOL0     C58229  -1.084   7.252   2.139  0.4868 -0.0370 -0.4799
  432MOL0    Cl58230  -1.252   7.272   2.072 -0.3095 -0.4882 -0.3216
  432MOL0     C58231  -0.111   7.604   1.743  0.0687 -0.2020 -1.4296
  432MOL0     C58232   0.007   7.673   1.742 -1.2196  0.2078 -0.2913
  432MOL0     O58233   0.357   7.489   1.743 -0.3950  0.1674 -0.5838
  432MOL0     C58234   0.593   7.617   1.692  0.4755  0.0881 -1.2307
  432MOL0     C58235   0.706   7.680   1.668 -0.3153 -0.0466  0.2583
  432MOL0     N58236   1.132   8.461   1.764 -0.2756 -0.2657  0.1462
  432MOL0     N58237   1.112   8.556   1.847 -0.3007  0.1914 -0.8399
  432MOL0     C58238   2.045   8.475   2.504  0.8239  0.8596  0.1765
  432MOL0     C58239   2.175   8.462   2.557  0.2366  0.1512 -0.1263
  432MOL0     C58240   2.512   8.502   2.885  0.2701  0.7197 -0.1001
  432MOL0     C58241   2.623   8.466   2.803  0.2459 -0.1339 -0.0388
  432MOL0     C58242   2.746   8.428   2.860  0.2188  0.2619  0.7098
  432MOL0     C58243   2.771   8.463   2.996 -0.2654  0.4734  0.0255
  432MOL0     O58244   2.890   8.449   3.066 -0.2917 -0.1148 -0.1112
  432MOL0     C58245   3.001   8.415   2.987 -0.7750  0.4596  0.8708
  432MOL0     C58246   3.137   8.441   3.063  0.7832 -0.0840 -0.0909
  432MOL0     C58247   3.248   8.415   2.959 -0.4716  0.3177  0.3427
  432MOL0     C58248   3.370   8.355   3.030  0.4556  0.9935  0.8450
  432MOL0     C58249   3.478   8.358   2.937  0.3749  0.4829 -0.1881
  432MOL0     C58250   3.562   8.382   2.844  0.4296  0.3870 -0.0412
  432MOL0     C58251   2.663   8.504   3.077  0.5692  0.4232  0.2645
  432MOL0     C58252   2.537   8.523   3.017  0.2130  0.5725 -0.4798
  432MOL0     H58253   2.181   8.701   2.789  1.7567 -1.2704  0.2602
  432MOL0     H58254   1.935   8.693   2.731 -4.0531 -1.7496 -4.4292
  432MOL0     H58255   1.824   8.506   2.341 -1.5780 -2.8849 -1.3490
  432MOL0     H58256   1.798   8.366   2.447 -1.1807 -0.1532  0.6464
  432MOL0     H58257   1.601   8.414   2.345  1.2284 -0.5945  0.7971
  432MOL0     H58258   1.572   8.469   2.506 -0.8850 -4.3474 -0.8863
  432MOL0     H58259   1.605   8.693   2.466 -2.2792 -1.0795  2.3465
  432MOL0     H58260   1.664   8.668   2.299 -0.6018  0.1467 -0.4435
  432MOL0     H58261   1.394   8.593   2.393 -0.4600  0.3493  0.3970
  432MOL0     H58262   1.434   8.748   2.300  0.9122  0.4699  1.2800
  432MOL0     H58263   1.531   8.585   2.125  0.3874  1.6201  1.4772
  432MOL0     H58264   1.442   8.454   2.214 -1.8457 -0.2028  1.8624
  432MOL0     H58265   1.301   8.696   2.088 -0.5201 -0.8997 -1.0284
  432MOL0     H58266   1.331   8.544   2.019  1.8098  0.5544  0.6692
  432MOL0     H58267   1.197   8.424   2.201 -1.1675 -0.1691 -1.5427
  432MOL0     H58268   1.182   8.573   2.287 -1.1566  0.0012 -0.5799
  432MOL0     H58269   1.051   8.669   2.096  1.8427 -0.6966 -2.4119
  432MOL0     H58270   0.979   8.520   2.148 -2.4936  4.9664  0.6536
  432MOL0     H58271   1.067   8.276   2.029 -1.2573 -0.7369 -1.6077
  432MOL0     H58272   1.150   8.217   1.655  1.2535  1.0470  0.3938
  432MOL0     H58273   1.231   8.163   1.802 -0.3413 -1.4438 -1.1511
  432MOL0     H58274   0.938   8.150   1.714 -1.7440 -2.2786  0.3507
  432MOL0     H58275   0.995   8.112   1.879  1.8098 -1.5753  0.2518
  432MOL0     H58276   1.137   7.917   1.783 -0.0833 -1.8105 -0.0852
  432MOL0     H58277   1.079   7.946   1.620 -1.8247 -0.4025 -1.3830
  432MOL0     H58278   0.884   7.909   1.854  0.8630 -1.7913  1.2870
  432MOL0     H58279   0.946   7.765   1.772  0.2411  0.4872  0.4965
  432MOL0     H58280   0.618   7.991   1.713  0.7532 -1.1586 -0.7849
  432MOL0     H58281   0.302   7.907   1.764  3.5312 -0.6404 -3.8121
  432MOL0     H58282   0.391   7.910   1.929  2.7464  0.5908  1.1835
  432MOL0     H58283   0.426   8.028   1.798  1.5532 -0.5356 -1.9908
  432MOL0     H58284   0.174   7.461   1.955 -0.5891  2.7625  1.2374
  432MOL0     H58285  -0.024   7.358   1.958  3.1738 -0.9759 -0.0081
  432MOL0     H58286  -0.240   7.366   2.017  1.0824  2.2813  1.0478
  432MOL0     H58287  -0.301   7.525   2.019  2.5586  0.6962 -1.9339
  432MOL0     H58288  -0.449   7.255   1.952  1.1512  0.3775  1.3471
  432MOL0     H58289  -0.468   7.375   2.076  1.9972 -1.7490  0.5251
  432MOL0     H58290  -0.544   7.410   1.775 -2.4110  0.1815 -0.5060
  432MOL0     H58291  -0.567   7.535   1.895  1.8379  0.1612  3.0956
  432MOL0     H58292  -0.753   7.395   1.842 -0.7727  1.1036  1.0741
  432MOL0     H58293  -0.679   7.264   1.943 -1.1120 -0.3085  0.5269
  432MOL0     H58294  -0.773   7.534   2.022  0.5778  0.7195  1.6775
  432MOL0     H58295  -0.659   7.449   2.117  0.0667 -0.8784  0.0459
  432MOL0     H58296  -0.796   7.259   2.172  0.5920 -0.3432  0.0584
  432MOL0     H58297  -0.868   7.406   2.216 -0.4150 -1.3615  0.5122
  432MOL0     H58298  -0.937   7.233   1.973  0.8875 -0.2922  0.9018
  432MOL0     H58299  -1.018   7.389   1.998 -1.0304  0.4532  1.2306
  432MOL0     H58300  -1.080   7.293   2.240 -0.7850 -1.3267  0.1300
  432MOL0     H58301  -1.060   7.145   2.151  0.4475 -0.2267 -1.9468
  432MOL0     H58302  -0.200   7.641   1.695 -1.5598 -1.6851  0.2780
  432MOL0     H58303   0.018   7.760   1.677  1.9392 -0.9215 -1.4254
  432MOL0     H58304   0.593   7.514   1.659 -1.3581 -0.5653  0.6034
  432MOL0     H58305   0.798   7.626   1.647  1.1725  2.4847 -0.0410
  432MOL0     H58306   2.015   8.424   2.413  1.0485 -1.2157  1.2242
  432MOL0     H58307   2.249   8.410   2.497 -1.1765 -1.0701 -0.9042
  432MOL0     H58308   2.607   8.442   2.698  0.9812  0.4321 -0.2875
  432MOL0     H58309   2.825   8.377   2.806  0.5380  0.3904  1.0437
  432MOL0     H58310   3.007   8.308   2.961  3.5536  0.5070  0.8922
  432MOL0     H58311   3.007   8.471   2.893 -1.5958 -2.2508 -0.9489
  432MOL0     H58312   3.150   8.389   3.158 -2.3659  0.7133  0.8783
  432MOL0     H58313   3.151   8.542   3.103 -0.5815 -0.1931  0.7302
  432MOL0     H58314   3.269   8.519   2.932  0.3442  0.5280  1.6938
  432MOL0     H58315   3.230   8.361   2.866  2.7846  0.3419 -0.4258
  432MOL0     H58316   3.354   8.251   3.060 -1.0844  0.7598 -0.6215
  432MOL0     H58317   3.393   8.412   3.121 -0.1099  1.9381  0.4084
  432MOL0     H58318   3.626   8.400   2.760 -1.7156 -1.4682 -2.2403
  432MOL0     H58319   2.664   8.513   3.186  0.2462 -2.0093  0.5100
  432MOL0     H58320   2.455   8.545   3.085  1.0466  1.1031  0.3881
  433MOL0     O58321  10.418   0.836   1.855  1.0565 -1.0148 -1.1619
  433MOL0     C58322  10.511   0.796   1.789 -0.0623 -0.4417  0.2234
  433MOL0     O58323  10.511   0.680   1.712 -0.3390 -0.5283 -0.4101
  433MOL0     C58324  10.389   0.624   1.683  0.9602  0.7937  0.9366
  433MOL0     C58325  10.306   0.686   1.585 -1.2156  0.6664 -0.2632
  433MOL0     C58326  10.185   0.637   1.557  0.0350 -0.3357 -0.2964
  433MOL0     C58327  10.130   0.535   1.638  0.2398  0.3623  0.4762
  433MOL0     O58328   9.991   0.513   1.634 -0.4686  0.0351 -0.1537
  433MOL0     C58329   9.925   0.389   1.689  0.8056 -0.2603 -1.0498
  433MOL0     C58330   9.951   0.272   1.610  0.2552  0.2425  0.0501
  433MOL0     C58331  10.094   0.221   1.588 -0.0408 -0.1212  0.3270
  433MOL0     C58332  10.081   0.110   1.474 -0.2080  0.0305 -0.3294
  433MOL0     C58333  10.212   0.042   1.456 -0.2383  0.5692  0.1171
  433MOL0     C58334  10.197  -0.054   1.333 -0.4993  0.3042 -0.3290
  433MOL0     C58335  10.116  -0.187   1.363 -0.2460 -0.0872 -0.5025
  433MOL0     C58336  10.200  -0.289   1.447  0.8256  0.0896  0.5341
  433MOL0     N58337  10.125  -0.412   1.472 -0.0834  0.2807 -0.0489
  433MOL0     C58338  10.043  -0.472   1.380  0.8226 -0.6171 -0.2997
  433MOL0     C58339   9.981  -0.566   1.450 -0.9258 -0.3257  0.4209
  433MOL0     C58340   9.880  -0.663   1.408  0.1801 -0.9914  0.1579
  433MOL0     C58341   9.744  -0.613   1.426  0.0599  0.6819  0.2662
  433MOL0     C58342   9.685  -0.598   1.564 -0.5883 -0.5682  0.0924
  433MOL0     C58343   9.536  -0.594   1.570  0.6166 -0.0313 -1.3773
  433MOL0     O58344   9.482  -0.722   1.543 -0.4518  0.0466 -0.6772
  433MOL0     C58345   9.344  -0.729   1.550 -0.2877 -0.3191  0.2800
  433MOL0     C58346   9.262  -0.610   1.566 -0.2348  0.0352  0.0678
  433MOL0     C58347   9.128  -0.621   1.600 -0.1453  0.8426 -0.3864
  433MOL0     C58348   9.057  -0.486   1.599  0.7434  0.2490  0.2851
  433MOL0     C58349   9.065  -0.753   1.600  0.5440  0.1351 -0.1961
  433MOL0     C58350   8.917  -0.781   1.636 -0.4036  0.9579 -0.9692
  433MOL0     O58351   8.842  -0.672   1.658 -0.0769 -0.4704  0.1298
  433MOL0     C58352   8.716  -0.679   1.706 -0.0255 -0.6514 -0.2960
  433MOL0     C58353   8.677  -0.588   1.805  0.3005  0.6436  0.9273
  433MOL0     C58354   8.540  -0.587   1.849 -0.1933 -1.0705  0.2333
  433MOL0     C58355   8.441  -0.671   1.795 -0.7131  0.7152 -1.2326
  433MOL0     O58356   8.313  -0.671   1.857 -0.1099  0.5124  0.6441
  433MOL0     C58357   8.256  -0.789   1.914  0.0374 -0.1995  0.2435
  433MOL0     C58358   8.147  -0.739   2.007 -0.2046  0.7770  0.9319
  433MOL0     C58359   8.022  -0.824   2.031  0.2928 -0.0112 -0.0174
  433MOL0     C58360   7.880  -0.744   2.048 -0.5132  0.9956  0.1808
  433MOL0     C58361   7.757  -0.838   2.020 -0.2560  0.0785  0.4849
  433MOL0     C58362   7.754  -0.949   2.133  0.2229  0.5781  0.3736
  433MOL0     C58363   7.617  -1.001   2.158  0.7107 -0.1298  0.0424
  433MOL0     C58364   7.525  -0.911   2.240 -0.1564 -0.5147 -0.4686
  433MOL0    Cl58365   7.589  -0.912   2.409  0.0017 -0.2028 -0.1813
  433MOL0     C58366   8.483  -0.756   1.704  0.5099  0.0123  0.0240
  433MOL0     C58367   8.618  -0.765   1.657  0.7650 -0.2875  0.3619
  433MOL0     O58368   8.885  -0.898   1.670 -0.0471 -0.3669 -0.3309
  433MOL0     C58369   9.144  -0.863   1.579  0.3060  0.1494 -0.2901
  433MOL0     C58370   9.285  -0.855   1.567  0.0784 -0.6250 -0.5703
  433MOL0     N58371  10.040  -0.571   1.581  0.3052 -0.0953 -0.4987
  433MOL0     N58372  10.123  -0.473   1.595 -0.9537 -0.6729 -0.6204
  433MOL0     C58373  10.206   0.478   1.741  0.0826 -0.0430  0.5645
  433MOL0     C58374  10.336   0.516   1.753  1.2704  0.3485 -0.2680
  433MOL0     C58375  10.645   0.869   1.807 -0.8257 -0.1243  1.1214
  433MOL0     C58376  10.655   0.982   1.880  0.3757  0.3499 -0.1455
  433MOL0     C58377  10.759   1.067   1.871 -0.0143  0.0364  0.2484
  433MOL0     C58378  10.871   1.033   1.802 -0.4913 -0.2211  0.5863
  433MOL0     O58379  10.986   1.109   1.833  0.3074  0.1588  0.1837
  433MOL0     C58380  11.107   1.089   1.758  1.0900 -0.5436  0.8105
  433MOL0     C58381  11.213   1.204   1.763 -0.4885  0.3633  0.1095
  433MOL0     C58382  11.202   1.288   1.896 -0.0635  0.5441  0.3306
  433MOL0     C58383  11.335   1.361   1.920  0.0071  0.8617  0.0363
  433MOL0     C58384  11.429   1.260   1.973  0.1136  0.0068 -1.2831
  433MOL0     C58385  11.506   1.186   2.034 -0.8292  0.0477 -0.1215
  433MOL0     C58386  10.877   0.906   1.735 -0.2829  0.4473 -0.7447
  433MOL0     C58387  10.762   0.824   1.736  0.1656  0.0760 -0.0169
  433MOL0     H58388  10.340   0.778   1.540 -0.6612  1.8273  2.3525
  433MOL0     H58389  10.117   0.686   1.488  0.1264  1.0102  0.5327
  433MOL0     H58390   9.958   0.386   1.794  1.3653  0.3746 -1.2022
  433MOL0     H58391   9.816   0.393   1.699  0.7074 -3.7857  0.8255
  433MOL0     H58392   9.894   0.187   1.646  0.4601 -0.5221 -1.3781
  433MOL0     H58393   9.906   0.290   1.512  2.1742  0.1619 -0.8872
  433MOL0     H58394  10.156   0.302   1.547 -0.3619  0.0794  0.2382
  433MOL0     H58395  10.143   0.166   1.670  0.9805 -0.8336 -0.7256
  433MOL0     H58396  10.003   0.037   1.497  2.3116 -2.9822 -0.5734
  433MOL0     H58397  10.049   0.157   1.381  1.2679 -1.9471 -1.9486
  433MOL0     H58398  10.287   0.117   1.432  0.5676 -0.1565  0.3492
  433MOL0     H58399  10.246  -0.023   1.536  3.2138  0.7187 -1.0806
  433MOL0     H58400  10.150  -0.009   1.245 -3.4687  2.3000  2.0763
  433MOL0     H58401  10.299  -0.084   1.304 -1.8948 -1.8458 -3.6296
  433MOL0     H58402  10.024  -0.167   1.418  0.4233  2.0484 -0.0671
  433MOL0     H58403  10.097  -0.233   1.265 -0.0367 -1.9267  0.2894
  433MOL0     H58404  10.248  -0.242   1.533  1.1393  2.1234 -0.6880
  433MOL0     H58405  10.277  -0.330   1.381  1.4206 -1.0924  1.9116
  433MOL0     H58406  10.035  -0.444   1.275 -1.4122  0.4554  0.1067
  433MOL0     H58407   9.894  -0.699   1.306  0.0934 -1.3219  0.2580
  433MOL0     H58408   9.909  -0.747   1.472  0.6335 -1.0985 -0.1800
  433MOL0     H58409   9.688  -0.695   1.380  0.4968 -0.4373  1.6554
  433MOL0     H58410   9.718  -0.527   1.364  0.2163  1.4850  1.2747
  433MOL0     H58411   9.711  -0.502   1.609 -3.9928  0.9958 -0.8992
  433MOL0     H58412   9.716  -0.680   1.629  0.0662 -1.3282 -1.1448
  433MOL0     H58413   9.496  -0.527   1.493  0.1725 -0.9565 -1.9775
  433MOL0     H58414   9.504  -0.553   1.666  1.3977 -0.3903 -0.9591
  433MOL0     H58415   9.298  -0.508   1.561 -0.7614  0.1617 -1.7973
  433MOL0     H58416   9.101  -0.407   1.539 -1.0623  0.1834 -1.2079
  433MOL0     H58417   8.964  -0.501   1.545  0.3168 -1.5449  1.4087
  433MOL0     H58418   9.039  -0.453   1.702  0.0236 -1.3890  0.7305
  433MOL0     H58419   8.743  -0.505   1.830  0.7300  0.5863  0.0601
  433MOL0     H58420   8.511  -0.519   1.929  0.7297  0.6894 -0.8765
  433MOL0     H58421   8.205  -0.844   1.834 -1.8034  1.5748  0.1296
  433MOL0     H58422   8.324  -0.849   1.974 -0.0435  1.1505  1.7364
  433MOL0     H58423   8.189  -0.721   2.107  0.6990 -0.7780  0.8472
  433MOL0     H58424   8.109  -0.643   1.970  1.3952  2.2252  2.8318
  433MOL0     H58425   8.035  -0.871   2.129 -0.0632 -2.6971 -1.1739
  433MOL0     H58426   8.010  -0.903   1.957  1.4764  1.3514 -1.7529
  433MOL0     H58427   7.871  -0.703   2.149  3.5074  0.8819  0.7784
  433MOL0     H58428   7.867  -0.662   1.976 -0.7664  1.2191  0.4775
  433MOL0     H58429   7.753  -0.877   1.918 -0.0901 -1.7876  1.1599
  433MOL0     H58430   7.670  -0.775   2.043  0.5940  0.9747  1.3298
  433MOL0     H58431   7.817  -1.028   2.092 -0.6645  0.1666 -0.2277
  433MOL0     H58432   7.793  -0.917   2.231  0.0242 -0.4724  0.8059
  433MOL0     H58433   7.617  -1.102   2.200  0.0076 -0.5854 -1.0213
  433MOL0     H58434   7.575  -1.015   2.058 -0.2598 -0.6708  0.5162
  433MOL0     H58435   7.422  -0.949   2.243 -0.5215  0.3170 -1.6326
  433MOL0     H58436   7.525  -0.805   2.212 -0.7502 -0.3095  0.2712
  433MOL0     H58437   8.404  -0.823   1.672 -0.4704  1.3061 -0.3170
  433MOL0     H58438   8.642  -0.834   1.576 -1.3159 -0.6532 -0.0054
  433MOL0     H58439   9.088  -0.956   1.578 -0.4716  0.5287 -3.9998
  433MOL0     H58440   9.350  -0.942   1.570  1.2341  0.2186  1.8736
  433MOL0     H58441  10.173   0.390   1.796  0.8564 -0.5343  0.2680
  433MOL0     H58442  10.399   0.461   1.822  0.6410 -1.1598 -0.8484
  433MOL0     H58443  10.570   1.013   1.941  1.4781  1.1135  1.0709
  433MOL0     H58444  10.755   1.162   1.923  0.3437  0.9116 -1.2510
  433MOL0     H58445  11.153   0.998   1.800 -1.6309 -3.3222 -1.7080
  433MOL0     H58446  11.083   1.071   1.653  0.1864  0.9512  0.7424
  433MOL0     H58447  11.206   1.279   1.684  1.0614  0.2545 -0.1658
  433MOL0     H58448  11.310   1.153   1.761 -1.0385 -0.7004 -0.0363
  433MOL0     H58449  11.177   1.230   1.985  0.0895  1.9439  1.3181
  433MOL0     H58450  11.122   1.361   1.876  1.6238  1.7746 -2.7502
  433MOL0     H58451  11.329   1.436   1.999  0.2579 -1.1807  2.0923
  433MOL0     H58452  11.374   1.402   1.827  3.2880 -0.4199  0.7175
  433MOL0     H58453  11.572   1.116   2.079  1.0668  1.1485 -1.0484
  433MOL0     H58454  10.968   0.865   1.692 -1.4941 -0.6958 -2.3001
  433MOL0     H58455  10.758   0.728   1.685 -2.0807  0.0778  0.0304
  434MOL0     O58456   3.651   9.709   2.969  0.2483 -0.7998 -0.3234
  434MOL0     C58457   3.770   9.715   2.940 -0.7198  0.0768 -0.2638
  434MOL0     O58458   3.872   9.755   3.023  0.0515  0.5832 -0.0547
  434MOL0     C58459   3.859   9.788   3.151  0.7003 -0.3754  0.9924
  434MOL0     C58460   3.978   9.788   3.221 -0.8305  0.1348 -0.6218
  434MOL0     C58461   3.980   9.819   3.357  0.0247 -0.2603 -0.3780
  434MOL0     C58462   3.867   9.847   3.426  0.3078 -0.5069 -0.5569
  434MOL0     O58463   3.865   9.877   3.565 -0.9502 -0.1085 -0.2208
  434MOL0     C58464   3.793   9.986   3.619 -0.0612  0.3252 -0.4914
  434MOL0     C58465   3.884  10.094   3.679  0.9472  0.2031  1.2746
  434MOL0     C58466   3.973  10.038   3.791 -0.4879  0.2813  0.2594
  434MOL0     C58467   4.114  10.104   3.804  0.0665  0.5556  0.8993
  434MOL0     C58468   4.092  10.256   3.805  0.1660 -0.4142  0.8956
  434MOL0     C58469   4.208  10.347   3.800  0.1569 -0.7769 -0.7281
  434MOL0     C58470   4.319  10.300   3.896 -0.2058  0.7278 -0.4325
  434MOL0     C58471   4.268  10.319   4.041  0.0353  0.2563 -0.2965
  434MOL0     N58472   4.373  10.328   4.143  0.9096 -0.4824  0.4798
  434MOL0     C58473   4.476  10.415   4.150 -0.6530 -0.0670  0.5813
  434MOL0     C58474   4.563  10.372   4.241  0.2316  0.0698 -0.3805
  434MOL0     C58475   4.675  10.452   4.283 -0.3638  0.6639  0.3862
  434MOL0     C58476   4.803  10.363   4.269  0.2078 -0.1300 -0.0413
  434MOL0     C58477   4.842  10.343   4.127 -0.3967 -0.5864  1.1252
  434MOL0     C58478   4.949  10.240   4.104  0.0496  0.1305 -0.0287
  434MOL0     O58479   4.982  10.236   3.967 -0.0675 -0.1445  0.1289
  434MOL0     C58480   5.068  10.135   3.921  0.0106  0.0443 -0.2417
  434MOL0     C58481   5.053  10.010   3.982 -0.2498  0.8199 -0.4670
  434MOL0     C58482   5.131   9.895   3.937  1.1130  0.4072 -0.9964
  434MOL0     C58483   5.105   9.768   4.006  0.3317  0.8487 -0.1210
  434MOL0     C58484   5.226   9.912   3.834  0.2095 -0.2446  0.3040
  434MOL0     C58485   5.302   9.807   3.767 -0.8927 -0.1255  0.4091
  434MOL0     O58486   5.359   9.825   3.643 -0.7618 -0.3567  0.4948
  434MOL0     C58487   5.429   9.723   3.581 -0.4358 -0.9482  0.6865
  434MOL0     C58488   5.361   9.620   3.520 -0.0163  0.0226  0.6895
  434MOL0     C58489   5.432   9.543   3.428  0.1082  0.7789  0.0448
  434MOL0     C58490   5.567   9.554   3.399  0.6072  0.0257 -0.2686
  434MOL0     O58491   5.640   9.462   3.319  0.2360 -0.6358 -0.1359
  434MOL0     C58492   5.729   9.511   3.217 -0.3878  0.0939 -0.0693
  434MOL0     C58493   5.805   9.402   3.158  0.2452 -0.2006  0.6271
  434MOL0     C58494   5.903   9.344   3.265  1.3640 -0.6294 -0.2175
  434MOL0     C58495   6.021   9.278   3.195 -0.6593 -0.6387  0.6032
  434MOL0     C58496   6.157   9.268   3.281  0.1622 -0.4761  0.8077
  434MOL0     C58497   6.211   9.411   3.299 -0.5725 -0.0624 -1.2650
  434MOL0     C58498   6.358   9.400   3.358  0.1693 -0.9161 -0.1131
  434MOL0     C58499   6.428   9.536   3.369 -0.2635  0.3631 -0.2561
  434MOL0    Cl58500   6.605   9.501   3.394 -0.3141  0.1704 -0.3826
  434MOL0     C58501   5.632   9.649   3.477  0.3864  0.0649  0.3140
  434MOL0     C58502   5.562   9.738   3.562  0.5858  0.0347 -0.0642
  434MOL0     O58503   5.302   9.704   3.825  0.0288  0.1924 -0.0246
  434MOL0     C58504   5.234  10.048   3.776 -0.3692  0.5792  0.0908
  434MOL0     C58505   5.159  10.159   3.824 -0.6674  0.5341  0.3644
  434MOL0     N58506   4.501  10.260   4.299 -0.3589 -0.9497  1.0410
  434MOL0     N58507   4.382  10.245   4.250 -0.1707 -1.3569  0.7976
  434MOL0     C58508   3.745   9.864   3.350  0.2086  0.1091 -0.0082
  434MOL0     C58509   3.745   9.827   3.215  0.4358 -0.1101  1.2373
  434MOL0     C58510   3.807   9.674   2.799 -0.1393  0.4355 -0.8231
  434MOL0     C58511   3.938   9.645   2.763  0.1161  0.8905  0.7515
  434MOL0     C58512   3.963   9.614   2.627 -0.2359  0.2679  1.1073
  434MOL0     C58513   3.868   9.627   2.529 -0.9030 -0.5430 -0.2454
  434MOL0     O58514   3.892   9.609   2.390  0.1967 -0.0580 -0.4458
  434MOL0     C58515   4.028   9.614   2.345  0.8857  0.5138 -0.3127
  434MOL0     C58516   4.043   9.582   2.185 -0.0283 -0.6967  0.4953
  434MOL0     C58517   4.151   9.647   2.095 -0.8267 -0.2848 -0.2784
  434MOL0     C58518   4.195   9.784   2.110  0.1058 -0.0787 -1.0036
  434MOL0     C58519   4.302   9.820   2.022  0.6392  0.0796  0.3256
  434MOL0     C58520   4.387   9.845   1.942 -0.0169 -0.4523  0.2834
  434MOL0     C58521   3.739   9.652   2.571  0.1457  0.7123  0.3015
  434MOL0     C58522   3.710   9.673   2.703  1.4969  0.3187 -0.0634
  434MOL0     H58523   4.069   9.764   3.167 -0.7216 -1.8901  0.3759
  434MOL0     H58524   4.075   9.824   3.410  1.1526  0.4627 -2.3814
  434MOL0     H58525   3.733  10.039   3.545  0.6925  2.9182  0.6351
  434MOL0     H58526   3.724   9.958   3.699  3.5442 -3.1221  1.7868
  434MOL0     H58527   3.941  10.127   3.591  1.5330 -0.4027  1.4200
  434MOL0     H58528   3.830  10.184   3.712  2.4405  0.2700  3.8516
  434MOL0     H58529   3.930  10.032   3.891  2.6222 -1.4835  1.6494
  434MOL0     H58530   3.999   9.934   3.771  1.4585  0.4300  1.7011
  434MOL0     H58531   4.174  10.077   3.891  1.1838  1.3778  0.4074
  434MOL0     H58532   4.161  10.077   3.709 -1.6084  0.4095  0.0710
  434MOL0     H58533   4.034  10.289   3.719  1.5147 -1.9936 -0.7071
  434MOL0     H58534   4.031  10.280   3.893 -0.7045 -1.0842  0.4918
  434MOL0     H58535   4.251  10.363   3.701 -2.9031  1.0051 -1.8968
  434MOL0     H58536   4.183  10.449   3.831 -2.6249 -1.9037  1.1437
  434MOL0     H58537   4.339  10.195   3.872 -1.1838  1.2998 -4.4577
  434MOL0     H58538   4.405  10.365   3.872 -0.0881  0.4825 -0.6737
  434MOL0     H58539   4.210  10.231   4.066 -0.1224  0.9110  1.8552
  434MOL0     H58540   4.224  10.418   4.059  4.0868  2.0616  1.0565
  434MOL0     H58541   4.491  10.489   4.071  3.5172 -0.4754  0.7545
  434MOL0     H58542   4.686  10.539   4.217 -0.1679 -1.2712 -2.3133
  434MOL0     H58543   4.667  10.488   4.386  1.1501 -1.3924  1.3151
  434MOL0     H58544   4.785  10.267   4.317 -1.3984 -0.6488 -1.5573
  434MOL0     H58545   4.882  10.405   4.332 -0.0583 -0.4380  0.5025
  434MOL0     H58546   4.885  10.437   4.092 -2.6500 -0.1172 -0.5726
  434MOL0     H58547   4.755  10.326   4.063 -0.0331  3.8686 -0.9737
  434MOL0     H58548   4.897  10.148   4.129 -2.8199  0.2055 -4.5539
  434MOL0     H58549   5.028  10.262   4.177  0.1729 -4.0734  1.3310
  434MOL0     H58550   4.975   9.984   4.053 -0.4630 -2.3836 -1.7073
  434MOL0     H58551   5.036   9.708   3.946  3.2518  0.4833 -3.4497
  434MOL0     H58552   5.198   9.719   4.034 -0.9440 -0.4942  2.0188
  434MOL0     H58553   5.073   9.782   4.110  2.8174  2.8349  0.4726
  434MOL0     H58554   5.257   9.602   3.547 -1.1141  2.6019 -1.4264
  434MOL0     H58555   5.387   9.453   3.387 -1.0470  1.2260  0.3123
  434MOL0     H58556   5.672   9.568   3.142 -0.9778 -1.5403 -0.9016
  434MOL0     H58557   5.807   9.575   3.260  0.0835 -0.4663 -0.0796
  434MOL0     H58558   5.734   9.328   3.120 -1.6051  1.5969  0.4087
  434MOL0     H58559   5.856   9.457   3.078 -1.0509  0.9608  0.5657
  434MOL0     H58560   5.847   9.278   3.333  2.1074 -1.3468 -0.2741
  434MOL0     H58561   5.937   9.427   3.328  0.9336  0.0289 -0.8386
  434MOL0     H58562   5.988   9.178   3.166 -1.0558 -0.8943  1.8609
  434MOL0     H58563   6.046   9.328   3.102 -2.6809 -2.2637 -0.8982
  434MOL0     H58564   6.223   9.213   3.213 -0.6711  0.1120 -0.5132
  434MOL0     H58565   6.141   9.217   3.376 -1.9445 -1.5078 -0.0391
  434MOL0     H58566   6.212   9.475   3.211  0.1533  3.0095  0.7964
  434MOL0     H58567   6.151   9.478   3.361 -0.9929 -0.7471 -0.9147
  434MOL0     H58568   6.423   9.335   3.298  2.1366 -1.5984  2.5592
  434MOL0     H58569   6.346   9.362   3.460 -1.0551 -0.5890 -0.1153
  434MOL0     H58570   6.395   9.590   3.458 -0.7083  0.5582 -0.5362
  434MOL0     H58571   6.414   9.597   3.278 -0.1972  2.4029  1.0271
  434MOL0     H58572   5.738   9.673   3.483 -0.0943  3.8081 -2.4569
  434MOL0     H58573   5.619   9.815   3.613  1.2201 -0.8081  0.5326
  434MOL0     H58574   5.309  10.057   3.697 -0.1175  0.7230  0.3459
  434MOL0     H58575   5.189  10.250   3.773 -0.5157  0.4353  0.2778
  434MOL0     H58576   3.648   9.879   3.397  0.0827  1.7144 -0.7136
  434MOL0     H58577   3.648   9.828   3.166  0.4699  1.4967  1.1527
  434MOL0     H58578   4.015   9.638   2.839 -1.0678  0.4640  1.9647
  434MOL0     H58579   4.062   9.583   2.597 -0.7377 -0.5607  0.2572
  434MOL0     H58580   4.074   9.711   2.368  0.7349  0.7931 -1.1464
  434MOL0     H58581   4.084   9.532   2.391 -0.6448 -1.4063 -1.7302
  434MOL0     H58582   3.947   9.599   2.136 -0.6868 -2.2521  1.1943
  434MOL0     H58583   4.052   9.474   2.173 -0.6998 -0.7327  0.2453
  434MOL0     H58584   4.112   9.637   1.993 -0.4668  1.3729 -0.5998
  434MOL0     H58585   4.239   9.582   2.102 -0.4321  0.2822  0.0150
  434MOL0     H58586   4.217   9.793   2.217 -0.0653 -3.8494 -0.5420
  434MOL0     H58587   4.120   9.860   2.085  0.2154  0.8755  1.2993
  434MOL0     H58588   4.461   9.872   1.869 -3.9164  0.0702 -3.9430
  434MOL0     H58589   3.672   9.658   2.487  0.1709  1.4725  0.3336
  434MOL0     H58590   3.606   9.695   2.725  1.4955 -0.6435  0.9839
  435MOL0     O58591   3.395   8.374   3.689 -0.0692 -0.2299 -0.4453
  435MOL0     C58592   3.426   8.325   3.582 -0.0511 -1.0763  0.1619
  435MOL0     O58593   3.339   8.252   3.508  0.5928  0.3654  0.0225
  435MOL0     C58594   3.213   8.215   3.546  0.2250  0.3936 -0.6436
  435MOL0     C58595   3.176   8.179   3.681 -0.1915 -0.0360  0.5926
  435MOL0     C58596   3.047   8.153   3.715 -0.5089 -0.0713 -0.1170
  435MOL0     C58597   2.943   8.150   3.618  0.1726 -0.8602 -0.1432
  435MOL0     O58598   2.808   8.118   3.648  0.4233 -0.6166 -0.3417
  435MOL0     C58599   2.763   8.116   3.785 -0.7492  1.0952 -0.2537
  435MOL0     C58600   2.621   8.097   3.815 -0.2882  0.5249  0.1151
  435MOL0     C58601   2.531   8.205   3.753 -0.1518  0.3045 -0.4115
  435MOL0     C58602   2.379   8.195   3.780  1.1666 -0.1003 -0.3422
  435MOL0     C58603   2.314   8.329   3.730 -1.5897  0.6615 -0.0526
  435MOL0     C58604   2.169   8.346   3.755  0.7276  0.2499 -0.6067
  435MOL0     C58605   2.081   8.240   3.688  0.2436 -0.1470 -0.4334
  435MOL0     C58606   1.950   8.230   3.760 -0.0210 -0.0779 -0.4299
  435MOL0     N58607   1.896   8.092   3.739  0.3436  0.3217 -0.4775
  435MOL0     C58608   1.805   8.055   3.644  0.7672  0.4747 -0.2643
  435MOL0     C58609   1.780   7.926   3.679 -0.7279 -0.1871  0.0740
  435MOL0     C58610   1.712   7.822   3.603 -0.6226  0.3547 -0.3353
  435MOL0     C58611   1.593   7.760   3.684 -0.6198 -0.2268 -0.3850
  435MOL0     C58612   1.523   7.636   3.608  0.9258 -0.2391 -0.2145
  435MOL0     C58613   1.614   7.512   3.568 -0.0414 -0.0836  0.3642
  435MOL0     O58614   1.670   7.465   3.694  0.5839 -0.5313  0.7352
  435MOL0     C58615   1.798   7.463   3.684  0.5965 -0.1276  0.5003
  435MOL0     C58616   1.878   7.551   3.767 -0.4164 -0.4375 -0.2010
  435MOL0     C58617   2.017   7.540   3.756 -0.3734 -0.4134  0.4535
  435MOL0     C58618   2.114   7.631   3.839  1.2563 -1.6013  0.4406
  435MOL0     C58619   2.077   7.447   3.662  0.0930 -0.3844  0.3502
  435MOL0     C58620   2.225   7.444   3.639  0.2124 -0.1828 -0.0617
  435MOL0     O58621   2.301   7.431   3.750  0.5126  0.0715 -0.4970
  435MOL0     C58622   2.431   7.474   3.729  0.0247 -0.2371 -0.7839
  435MOL0     C58623   2.524   7.413   3.636  0.3764  0.3950 -0.4676
  435MOL0     C58624   2.650   7.456   3.613  0.1838  0.2749  0.1183
  435MOL0     C58625   2.700   7.559   3.697 -0.1428 -0.5404  0.5218
  435MOL0     O58626   2.823   7.613   3.678  0.0693 -0.2037 -0.0241
  435MOL0     C58627   2.857   7.644   3.534  0.5853 -0.2854 -1.0382
  435MOL0     C58628   2.963   7.752   3.518 -0.6592 -0.4472 -0.2877
  435MOL0     C58629   3.100   7.718   3.579 -0.6302  0.2479 -1.2412
  435MOL0     C58630   3.199   7.838   3.583  0.2708 -0.5299 -0.1590
  435MOL0     C58631   3.349   7.805   3.602 -0.0490  0.4160  0.4734
  435MOL0     C58632   3.433   7.934   3.582  0.4510  0.2455  0.0788
  435MOL0     C58633   3.582   7.904   3.605 -0.2845 -0.8279 -0.5517
  435MOL0     C58634   3.662   8.037   3.605 -1.0617  0.2387  0.5302
  435MOL0    Cl58635   3.836   8.012   3.574  0.4002 -0.0269 -0.1431
  435MOL0     C58636   2.621   7.616   3.790 -0.4856  0.9515 -0.5654
  435MOL0     C58637   2.489   7.576   3.807  0.0042 -0.4634  0.2355
  435MOL0     O58638   2.260   7.429   3.518  0.0009  0.0621 -0.2228
  435MOL0     C58639   1.994   7.359   3.580 -0.7837  0.6267 -0.4731
  435MOL0     C58640   1.861   7.366   3.603 -0.4624  0.1887  1.0661
  435MOL0     N58641   1.853   7.888   3.799  0.4772  0.1467 -0.2185
  435MOL0     N58642   1.925   7.993   3.825  0.0832  0.5827 -0.3554
  435MOL0     C58643   2.978   8.174   3.481  0.1891  0.6396 -0.7289
  435MOL0     C58644   3.112   8.200   3.447 -0.7573  0.1038  0.4970
  435MOL0     C58645   3.554   8.377   3.520  0.2734 -0.0596 -1.3310
  435MOL0     C58646   3.588   8.334   3.389  0.4051 -0.2102 -0.3347
  435MOL0     C58647   3.710   8.375   3.328  0.4676 -0.3737 -0.8812
  435MOL0     C58648   3.810   8.435   3.416  0.8393  0.4716 -0.4674
  435MOL0     O58649   3.942   8.456   3.386  0.3067  0.4532  0.3375
  435MOL0     C58650   4.002   8.418   3.259  0.9428 -0.2243 -0.1449
  435MOL0     C58651   4.148   8.409   3.271  0.4750  0.9203 -0.0327
  435MOL0     C58652   4.187   8.300   3.374  0.8683 -0.7766 -0.5172
  435MOL0     C58653   4.337   8.283   3.366  0.6005  0.4196 -0.0904
  435MOL0     C58654   4.389   8.212   3.484 -0.0299 -0.4776 -0.2853
  435MOL0     C58655   4.432   8.159   3.588  0.1179 -0.2660 -0.4057
  435MOL0     C58656   3.770   8.485   3.536  0.0336  0.2704 -0.0913
  435MOL0     C58657   3.642   8.459   3.589  0.5896  0.1483 -0.0774
  435MOL0     H58658   3.245   8.156   3.761 -0.8497  1.5564  1.6552
  435MOL0     H58659   3.025   8.129   3.819 -0.2337 -0.1108 -0.0690
  435MOL0     H58660   2.812   8.035   3.839  0.6906  2.7943  1.1071
  435MOL0     H58661   2.792   8.206   3.841  0.7961  0.5586 -0.1435
  435MOL0     H58662   2.595   8.002   3.768  2.6749  0.0547 -0.8307
  435MOL0     H58663   2.615   8.087   3.924  0.4573  4.1971  0.6440
  435MOL0     H58664   2.562   8.297   3.802 -0.6629  0.1218  0.2643
  435MOL0     H58665   2.541   8.214   3.644 -0.1331  0.5166 -0.3917
  435MOL0     H58666   2.342   8.103   3.734 -1.1292 -0.9352  2.8383
  435MOL0     H58667   2.354   8.189   3.886 -0.6615  0.6714 -0.6807
  435MOL0     H58668   2.363   8.415   3.776 -2.3857  0.7786  0.5920
  435MOL0     H58669   2.316   8.338   3.621 -0.9466  4.2391  0.1188
  435MOL0     H58670   2.168   8.346   3.865 -1.4612  0.3394 -0.5762
  435MOL0     H58671   2.130   8.441   3.716 -3.8391 -1.2049 -0.2497
  435MOL0     H58672   2.077   8.266   3.581  1.3966 -0.4645 -0.5695
  435MOL0     H58673   2.128   8.141   3.684 -0.0901 -0.2871 -2.8801
  435MOL0     H58674   1.897   8.319   3.726  0.0753  0.8244  1.6411
  435MOL0     H58675   1.969   8.235   3.868 -0.2130 -0.4094 -0.3796
  435MOL0     H58676   1.762   8.099   3.555 -0.6061 -3.2831 -1.6788
  435MOL0     H58677   1.684   7.859   3.504 -0.0707 -1.5725 -1.2716
  435MOL0     H58678   1.791   7.748   3.591  0.8588  1.9051 -0.4333
  435MOL0     H58679   1.510   7.829   3.700  0.8915  1.8362 -1.0017
  435MOL0     H58680   1.632   7.728   3.781 -1.3552  2.2512  0.8081
  435MOL0     H58681   1.487   7.680   3.514 -0.2771 -0.7790 -0.0213
  435MOL0     H58682   1.442   7.595   3.669  0.3274  0.5157 -0.4771
  435MOL0     H58683   1.692   7.540   3.497 -0.6594 -0.4612 -0.4813
  435MOL0     H58684   1.545   7.441   3.520 -0.0045  0.7903 -1.0438
  435MOL0     H58685   1.836   7.633   3.825  1.8627 -0.7004  1.9435
  435MOL0     H58686   2.209   7.643   3.786  0.7400 -1.5577 -0.5002
  435MOL0     H58687   2.071   7.726   3.870 -2.7179 -2.9765 -0.2178
  435MOL0     H58688   2.133   7.598   3.942 -2.3082  1.4244  2.2983
  435MOL0     H58689   2.482   7.326   3.586 -1.9626 -0.0421  2.0053
  435MOL0     H58690   2.716   7.411   3.539  0.1851 -0.9636  0.8495
  435MOL0     H58691   2.889   7.549   3.489  2.3353 -0.3521  0.2585
  435MOL0     H58692   2.761   7.665   3.485  0.0283  0.1843  0.2105
  435MOL0     H58693   2.967   7.762   3.410 -2.3405 -2.5376 -0.6215
  435MOL0     H58694   2.925   7.844   3.563 -2.4737 -1.7680  1.0346
  435MOL0     H58695   3.138   7.637   3.516  0.6503  0.1195 -0.3571
  435MOL0     H58696   3.096   7.683   3.682 -1.6233  0.0798 -1.3313
  435MOL0     H58697   3.176   7.892   3.491 -2.6270 -1.3202 -0.0204
  435MOL0     H58698   3.166   7.903   3.664  1.3435  0.8837 -0.8244
  435MOL0     H58699   3.384   7.729   3.532 -0.9441  1.8733 -1.6394
  435MOL0     H58700   3.372   7.773   3.704 -3.2226  0.4545  1.3176
  435MOL0     H58701   3.429   7.960   3.476  0.1805  0.2261  0.0858
  435MOL0     H58702   3.390   8.008   3.649 -2.6652  1.4770 -3.0027
  435MOL0     H58703   3.616   7.848   3.517  0.6455  2.1995 -2.2710
  435MOL0     H58704   3.607   7.844   3.693 -0.3750 -2.0424 -1.3354
  435MOL0     H58705   3.646   8.084   3.702 -0.8982  0.6416  0.3644
  435MOL0     H58706   3.627   8.097   3.520 -1.3101  0.5007  0.8175
  435MOL0     H58707   2.666   7.699   3.843 -0.7571  1.8445 -1.6863
  435MOL0     H58708   2.427   7.638   3.870  2.3581  0.7595  1.4638
  435MOL0     H58709   2.037   7.288   3.510 -3.3525 -0.5165 -1.0078
  435MOL0     H58710   1.813   7.286   3.548 -0.9368  0.3952  1.1745
  435MOL0     H58711   2.909   8.145   3.403  1.9452 -1.2200 -1.6577
  435MOL0     H58712   3.152   8.207   3.347  1.8919  1.1994  1.5304
  435MOL0     H58713   3.520   8.260   3.347  0.4952 -0.7824  0.4955
  435MOL0     H58714   3.742   8.336   3.232  1.1010 -1.5412 -0.2164
  435MOL0     H58715   3.954   8.325   3.230  2.6126 -0.4185 -2.5201
  435MOL0     H58716   3.984   8.491   3.180  3.4182  0.8587  0.1709
  435MOL0     H58717   4.202   8.501   3.296  1.0037  0.7720 -0.6069
  435MOL0     H58718   4.194   8.381   3.176 -0.4350 -0.9905  0.0532
  435MOL0     H58719   4.135   8.207   3.351  1.0288 -0.5419 -1.9309
  435MOL0     H58720   4.158   8.345   3.469  2.9464  1.5804 -0.8752
  435MOL0     H58721   4.381   8.383   3.357 -0.0016  0.5071 -3.1963
  435MOL0     H58722   4.367   8.224   3.278  1.3482 -0.5410  0.7893
  435MOL0     H58723   4.480   8.135   3.681  1.5945 -0.0435 -1.0866
  435MOL0     H58724   3.843   8.537   3.598 -0.1336  0.0651  0.2745
  435MOL0     H58725   3.608   8.497   3.685  0.4664 -2.7963  1.1692
  436MOL0     O58726   5.308  11.233   0.880 -0.1673 -0.2344 -0.6355
  436MOL0     C58727   5.386  11.298   0.802 -0.5141  0.5407  0.0959
  436MOL0     O58728   5.368  11.427   0.761  1.2818  0.1579  0.8015
  436MOL0     C58729   5.251  11.495   0.782 -0.5662 -0.1902  0.0166
  436MOL0     C58730   5.122  11.446   0.771  0.2124  0.1209  0.4591
  436MOL0     C58731   5.016  11.533   0.791  0.3932 -0.3109 -0.7453
  436MOL0     C58732   5.034  11.670   0.827 -0.3729 -0.1054 -0.1505
  436MOL0     O58733   4.940  11.761   0.870 -0.2110  0.3364  1.0220
  436MOL0     C58734   4.815  11.705   0.930 -0.0233  1.0097 -0.0700
  436MOL0     C58735   4.722  11.798   0.983 -0.0005  0.2986 -0.0038
  436MOL0     C58736   4.791  11.900   1.070 -0.0221 -0.2927 -0.1980
  436MOL0     C58737   4.726  12.034   1.068  1.1701 -0.7843 -1.1052
  436MOL0     C58738   4.812  12.125   1.163  0.5413 -0.4918  1.3142
  436MOL0     C58739   4.758  12.276   1.189  0.2486  0.7050  0.1336
  436MOL0     C58740   4.733  12.362   1.065 -0.7260 -0.5428  0.3848
  436MOL0     C58741   4.606  12.445   1.036 -0.4418  0.9319 -0.2140
  436MOL0     N58742   4.502  12.337   1.034 -0.2731 -0.3969  0.5064
  436MOL0     C58743   4.491  12.257   0.918 -0.0843 -0.1046 -0.6250
  436MOL0     C58744   4.402  12.163   0.953  0.3874  0.5672  0.3182
  436MOL0     C58745   4.358  12.048   0.864 -0.3732  0.7598  0.5909
  436MOL0     C58746   4.418  12.049   0.725 -0.5400 -0.2696 -0.0688
  436MOL0     C58747   4.390  11.928   0.650 -0.3599  0.0594  0.4759
  436MOL0     C58748   4.514  11.851   0.603 -0.7350 -0.1068  0.3662
  436MOL0     O58749   4.582  11.925   0.506  0.1680 -1.1335 -0.6105
  436MOL0     C58750   4.717  11.924   0.507 -0.0993 -0.4610 -0.1491
  436MOL0     C58751   4.779  12.020   0.430 -0.3188 -0.2218 -0.9090
  436MOL0     C58752   4.920  12.017   0.405  0.4344  0.2956  0.2622
  436MOL0     C58753   4.978  12.139   0.340  0.5103 -0.8077  0.3254
  436MOL0     C58754   4.997  11.904   0.450 -0.1952 -0.2732  0.6655
  436MOL0     C58755   5.151  11.888   0.432  0.5553 -0.3567  0.2541
  436MOL0     O58756   5.203  11.763   0.449 -0.0786 -0.2148  0.7472
  436MOL0     C58757   5.330  11.730   0.416 -0.8037 -0.3701  0.8105
  436MOL0     C58758   5.345  11.593   0.442  0.3927  1.0623  0.4992
  436MOL0     C58759   5.468  11.531   0.412  0.7327  0.3328 -0.3863
  436MOL0     C58760   5.572  11.602   0.357 -0.4234  0.9516  0.3421
  436MOL0     O58761   5.678  11.528   0.327  0.4576  0.1062  0.4008
  436MOL0     C58762   5.798  11.589   0.358  0.8299  0.1649 -0.5610
  436MOL0     C58763   5.910  11.495   0.338 -0.5558  1.2703  0.0340
  436MOL0     C58764   6.037  11.576   0.315  0.9729  0.1135  0.2618
  436MOL0     C58765   6.146  11.479   0.270 -0.3968 -0.2408 -0.3376
  436MOL0     C58766   6.281  11.526   0.308  0.6778 -0.4327  0.6582
  436MOL0     C58767   6.382  11.411   0.315  0.4826 -0.2947 -0.0670
  436MOL0     C58768   6.386  11.300   0.202 -0.9462 -0.4107  0.4644
  436MOL0     C58769   6.505  11.213   0.215 -0.8862  0.1661 -0.3589
  436MOL0    Cl58770   6.501  11.080   0.106 -0.1902 -0.5656 -0.0956
  436MOL0     C58771   5.547  11.733   0.306 -0.4475  0.0886  1.1456
  436MOL0     C58772   5.429  11.798   0.341 -0.2285  0.3472 -0.2441
  436MOL0     O58773   5.215  11.990   0.409  0.1880 -0.6582  0.3304
  436MOL0     C58774   4.922  11.802   0.514 -0.6113  0.1621  0.6351
  436MOL0     C58775   4.783  11.809   0.542 -0.1519 -1.1099 -0.2403
  436MOL0     N58776   4.365  12.193   1.086  0.5655 -0.1401 -1.0831
  436MOL0     N58777   4.423  12.293   1.138 -0.3468 -0.1279 -0.2041
  436MOL0     C58778   5.170  11.714   0.828  0.2234  0.0466 -0.5742
  436MOL0     C58779   5.278  11.622   0.815  0.5800  0.0928 -0.6657
  436MOL0     C58780   5.522  11.237   0.787  0.3625  0.5966  0.5007
  436MOL0     C58781   5.554  11.124   0.862 -0.5174  0.3284 -0.5336
  436MOL0     C58782   5.676  11.055   0.845 -0.0818 -0.5747 -0.8243
  436MOL0     C58783   5.777  11.103   0.752  0.5144 -0.0642 -0.6657
  436MOL0     O58784   5.902  11.046   0.729  0.2484 -0.0555 -0.3462
  436MOL0     C58785   5.912  10.902   0.699 -0.0596 -0.5350  0.8014
  436MOL0     C58786   6.054  10.857   0.716  0.2617  1.1860  0.4878
  436MOL0     C58787   6.147  10.892   0.597 -0.4727 -0.5427 -0.2184
  436MOL0     C58788   6.192  11.043   0.586 -0.6912  0.3704 -0.2817
  436MOL0     C58789   6.286  11.076   0.697 -0.1560 -0.0758 -0.3941
  436MOL0     C58790   6.367  11.099   0.791  0.2130 -0.4579 -0.6052
  436MOL0     C58791   5.739  11.217   0.679  0.4899  1.0235 -0.3911
  436MOL0     C58792   5.617  11.284   0.698 -0.1077 -0.1136 -0.1595
  436MOL0     H58793   5.102  11.342   0.746 -0.4978  0.6347 -1.2316
  436MOL0     H58794   4.917  11.490   0.792  0.8750 -1.4885 -1.4709
  436MOL0     H58795   4.756  11.645   0.861 -1.3877  0.2741  1.6606
  436MOL0     H58796   4.846  11.635   1.008  0.7914  3.3059  1.7950
  436MOL0     H58797   4.668  11.845   0.900 -2.0817  0.8375  1.5621
  436MOL0     H58798   4.647  11.755   1.049  0.7541  1.0346  1.3896
  436MOL0     H58799   4.804  11.854   1.168 -1.8482 -3.8086 -1.4486
  436MOL0     H58800   4.885  11.925   1.020  0.0324  0.0146  0.0560
  436MOL0     H58801   4.721  12.068   0.964  1.0805  1.3655 -0.4474
  436MOL0     H58802   4.624  12.022   1.105  1.5190  0.9215  0.5736
  436MOL0     H58803   4.812  12.078   1.262  0.3518 -1.9616  0.6310
  436MOL0     H58804   4.915  12.142   1.133 -0.0152  2.3924  0.7315
  436MOL0     H58805   4.662  12.273   1.240  0.1720  1.7233  0.0624
  436MOL0     H58806   4.838  12.319   1.252  0.1247 -1.7004  2.0810
  436MOL0     H58807   4.816  12.434   1.059 -2.9274  2.2659  1.6285
  436MOL0     H58808   4.751  12.290   0.984  0.8893  0.6546 -0.3983
  436MOL0     H58809   4.610  12.504   0.945  1.1638  0.7725 -0.2790
  436MOL0     H58810   4.587  12.515   1.118  0.5335  0.7504  0.1838
  436MOL0     H58811   4.534  12.274   0.820 -1.6148 -2.0091 -1.7012
  436MOL0     H58812   4.375  11.954   0.918 -2.1169 -0.3246 -0.6322
  436MOL0     H58813   4.253  12.057   0.835  0.0158  1.5954 -0.6397
  436MOL0     H58814   4.527  12.055   0.731 -0.5975 -0.7915  1.9203
  436MOL0     H58815   4.390  12.145   0.680  0.0454  1.3579  2.7833
  436MOL0     H58816   4.335  11.959   0.560  0.2286 -3.7522 -1.4273
  436MOL0     H58817   4.329  11.858   0.708 -2.9275  0.7795 -1.1603
  436MOL0     H58818   4.479  11.754   0.566 -1.2248  0.1091  0.2578
  436MOL0     H58819   4.588  11.826   0.680  2.0014 -1.8575 -2.5921
  436MOL0     H58820   4.717  12.097   0.387 -2.4810 -1.0347  0.5933
  436MOL0     H58821   5.024  12.101   0.249  0.1008 -0.7340  0.0891
  436MOL0     H58822   4.898  12.207   0.310  1.3674 -0.4004 -1.1149
  436MOL0     H58823   5.052  12.197   0.397  0.4276 -1.7485  1.4406
  436MOL0     H58824   5.267  11.539   0.495 -0.3444  3.0469  1.5263
  436MOL0     H58825   5.486  11.429   0.445 -0.8583  0.5545  1.3010
  436MOL0     H58826   5.818  11.676   0.294  0.8714  1.0813  0.6596
  436MOL0     H58827   5.800  11.624   0.461 -2.0064 -0.2125 -0.3087
  436MOL0     H58828   5.923  11.425   0.420  1.8340 -1.8084 -2.6994
  436MOL0     H58829   5.887  11.432   0.252  0.7722 -0.8034  1.1339
  436MOL0     H58830   6.061  11.641   0.399 -1.6322  0.0259  1.1739
  436MOL0     H58831   6.016  11.644   0.232 -3.1630 -1.3448 -0.0976
  436MOL0     H58832   6.123  11.383   0.316 -2.3659 -0.8109 -2.3386
  436MOL0     H58833   6.138  11.466   0.162  1.8085 -0.4096 -0.5301
  436MOL0     H58834   6.283  11.569   0.408 -2.1440  2.7495 -0.4595
  436MOL0     H58835   6.311  11.597   0.230 -0.0376 -1.5925 -0.7325
  436MOL0     H58836   6.482  11.457   0.316  1.1050 -1.5608 -0.8677
  436MOL0     H58837   6.356  11.345   0.399 -5.2355 -0.9410 -1.9454
  436MOL0     H58838   6.390  11.344   0.102  1.8785  0.7864  0.9765
  436MOL0     H58839   6.291  11.247   0.209 -1.2746  0.3353  2.1663
  436MOL0     H58840   6.518  11.164   0.312 -0.6877 -1.8711 -1.3520
  436MOL0     H58841   6.595  11.271   0.195 -0.6817 -0.0049  0.0420
  436MOL0     H58842   5.628  11.777   0.249  0.5911 -0.6075  2.0246
  436MOL0     H58843   5.412  11.901   0.309 -1.8045 -0.0639 -0.7808
  436MOL0     H58844   4.978  11.714   0.543 -1.6575 -0.8363 -0.2715
  436MOL0     H58845   4.731  11.719   0.575 -1.0918 -1.0127 -1.3901
  436MOL0     H58846   5.186  11.821   0.835 -1.5851  0.5791 -3.1533
  436MOL0     H58847   5.374  11.672   0.832 -1.0288  3.4422 -0.5753
  436MOL0     H58848   5.488  11.091   0.941  0.7290 -0.3590  0.2625
  436MOL0     H58849   5.694  10.967   0.905  0.8079 -2.5326 -3.7200
  436MOL0     H58850   5.847  10.843   0.765 -1.2976 -2.2881 -1.8074
  436MOL0     H58851   5.876  10.879   0.598  3.3281  0.0078 -0.6469
  436MOL0     H58852   6.055  10.750   0.737 -0.8277  0.8709 -0.9104
  436MOL0     H58853   6.099  10.902   0.806  0.6148  0.0637  0.8922
  436MOL0     H58854   6.094  10.877   0.503  1.1355  3.0408 -1.9039
  436MOL0     H58855   6.243  10.839   0.601  0.1284  0.5716  1.5814
  436MOL0     H58856   6.109  11.114   0.588 -0.8600  0.1860  2.2565
  436MOL0     H58857   6.250  11.053   0.493 -1.5632  2.1436 -0.6901
  436MOL0     H58858   6.421  11.102   0.883 -2.7796 -2.0470  1.3628
  436MOL0     H58859   5.812  11.256   0.609  2.9992  0.8105  1.9724
  436MOL0     H58860   5.611  11.378   0.644  0.2400 -0.0664 -0.1214
  437MOL0     O58861   0.452   4.887   7.827 -0.5114 -0.4217  0.3854
  437MOL0     C58862   0.513   4.862   7.926 -0.7130  0.3093 -0.7660
  437MOL0     O58863   0.465   4.782   8.028 -0.3034  0.2169 -0.5313
  437MOL0     C58864   0.340   4.719   8.029 -0.2430 -0.3561  0.1389
  437MOL0     C58865   0.355   4.584   8.074 -0.2535  0.5170 -0.0747
  437MOL0     C58866   0.263   4.486   8.053  0.0159 -0.1824  0.2203
  437MOL0     C58867   0.151   4.524   7.966  0.1703  0.0815 -0.8390
  437MOL0     O58868   0.040   4.443   7.944 -0.2095 -0.0263 -0.5896
  437MOL0     C58869   0.076   4.320   7.885  0.4993 -0.2192  0.2405
  437MOL0     C58870  -0.032   4.214   7.912  0.4568  0.6473 -0.1514
  437MOL0     C58871  -0.015   4.150   8.056 -0.6444  0.5196  0.6721
  437MOL0     C58872  -0.118   4.042   8.088  0.0013  0.6728  0.1536
  437MOL0     C58873  -0.056   3.934   8.171 -0.1961  0.4911  0.0088
  437MOL0     C58874  -0.174   3.840   8.207 -0.4245  0.0743  0.0276
  437MOL0     C58875  -0.130   3.743   8.312  0.7786  0.9293 -0.9687
  437MOL0     C58876  -0.242   3.654   8.337  0.1652 -0.2219  0.2021
  437MOL0     N58877  -0.267   3.567   8.223  0.2125 -0.3287  0.3827
  437MOL0     C58878  -0.361   3.584   8.130  0.4591 -0.4902  0.2799
  437MOL0     C58879  -0.353   3.473   8.052  0.2637  0.5594 -0.6231
  437MOL0     C58880  -0.452   3.451   7.938 -0.8754 -0.0876 -1.1394
  437MOL0     C58881  -0.547   3.328   7.958  0.4965  0.6531 -0.0508
  437MOL0     C58882  -0.649   3.358   8.066  0.4485 -0.9359 -0.1558
  437MOL0     C58883  -0.711   3.224   8.099  0.2567  0.3639 -0.8481
  437MOL0     O58884  -0.834   3.273   8.165 -0.0193 -0.1317 -0.3410
  437MOL0     C58885  -0.937   3.194   8.207  0.2124 -0.2662  0.1780
  437MOL0     C58886  -1.053   3.265   8.239 -0.6643  0.6203  0.2190
  437MOL0     C58887  -1.172   3.202   8.273 -0.1628 -0.9696 -0.5569
  437MOL0     C58888  -1.294   3.287   8.315 -0.2068  0.3925 -0.4821
  437MOL0     C58889  -1.171   3.060   8.290  0.8455 -0.7533 -0.5289
  437MOL0     C58890  -1.284   2.985   8.333 -0.2400 -0.2890 -0.6560
  437MOL0     O58891  -1.264   2.893   8.425 -0.1295 -0.0785 -0.9275
  437MOL0     C58892  -1.364   2.876   8.514  0.7072  0.3787 -0.2505
  437MOL0     C58893  -1.412   2.738   8.537  0.2878 -0.1279  1.0032
  437MOL0     C58894  -1.518   2.714   8.617 -0.0603 -0.1989 -0.3660
  437MOL0     C58895  -1.572   2.825   8.681  0.6557  0.0855 -0.4689
  437MOL0     O58896  -1.680   2.809   8.773 -0.1470  0.3840  0.0285
  437MOL0     C58897  -1.805   2.878   8.740 -0.9495  0.5805  0.0080
  437MOL0     C58898  -1.933   2.778   8.742  0.1218 -0.4068  0.3626
  437MOL0     C58899  -2.061   2.857   8.729 -0.1061 -0.2207 -0.5597
  437MOL0     C58900  -2.182   2.768   8.738 -0.1871 -0.0691 -0.0954
  437MOL0     C58901  -2.327   2.830   8.749 -0.8227  0.1418  0.3252
  437MOL0     C58902  -2.396   2.845   8.605 -0.6286  0.6231 -0.1242
  437MOL0     C58903  -2.467   2.723   8.558  0.3573 -0.6807  0.9261
  437MOL0     C58904  -2.581   2.679   8.647  0.7555  0.5641  0.0103
  437MOL0    Cl58905  -2.713   2.790   8.687 -0.1803  0.2725 -0.6174
  437MOL0     C58906  -1.533   2.958   8.665  0.0651 -0.0012 -0.1007
  437MOL0     C58907  -1.424   2.985   8.585  0.3050 -0.4399  0.1850
  437MOL0     O58908  -1.385   3.003   8.267  0.2960  0.5014  0.7217
  437MOL0     C58909  -1.048   2.986   8.252  0.3537  0.4025 -0.4021
  437MOL0     C58910  -0.933   3.054   8.211  0.1123  0.0547  0.0849
  437MOL0     N58911  -0.258   3.399   8.089  0.5777 -0.1159  0.1327
  437MOL0     N58912  -0.208   3.444   8.204 -0.6525 -1.1883 -0.0556
  437MOL0     C58913   0.142   4.660   7.919  0.3305  0.0987  0.0096
  437MOL0     C58914   0.232   4.753   7.958  0.1000  0.2107 -0.2547
  437MOL0     C58915   0.655   4.904   7.934 -0.1108 -0.8293 -0.0524
  437MOL0     C58916   0.718   4.985   7.834  0.3624 -0.0382  0.4951
  437MOL0     C58917   0.849   5.025   7.839 -0.9868 -0.1372 -0.6315
  437MOL0     C58918   0.934   4.972   7.940 -0.1673 -0.5086  0.4293
  437MOL0     O58919   1.072   4.991   7.939  0.4293  0.1204 -0.0610
  437MOL0     C58920   1.120   5.046   7.812  0.1054  0.2311  0.6828
  437MOL0     C58921   1.271   5.016   7.794  0.0458 -0.2208 -0.6949
  437MOL0     C58922   1.343   5.112   7.880 -0.6984  0.2298 -0.4740
  437MOL0     C58923   1.498   5.121   7.869  0.2075  0.0114 -0.2984
  437MOL0     C58924   1.553   5.243   7.802 -0.5427 -0.6977 -0.3329
  437MOL0     C58925   1.607   5.340   7.750 -0.0980  0.1030 -0.0235
  437MOL0     C58926   0.877   4.902   8.046  0.4900 -0.1801 -1.0087
  437MOL0     C58927   0.740   4.871   8.041 -0.9478 -0.1122  1.0314
  437MOL0     H58928   0.450   4.556   8.118  1.3583  1.5194 -2.7057
  437MOL0     H58929   0.279   4.386   8.093  1.3256  0.1660  0.6143
  437MOL0     H58930   0.067   4.340   7.778 -3.7749 -0.1385  0.4282
  437MOL0     H58931   0.175   4.279   7.902  0.7441 -1.8791 -3.9771
  437MOL0     H58932  -0.130   4.260   7.894  0.2081  0.0972 -0.2520
  437MOL0     H58933  -0.021   4.124   7.850 -1.2956 -0.2586  0.7441
  437MOL0     H58934   0.085   4.109   8.074 -0.1219  1.6176  0.3311
  437MOL0     H58935  -0.028   4.220   8.139 -0.3939  0.3546  0.8512
  437MOL0     H58936  -0.206   4.084   8.136  0.7391  0.5423  1.6621
  437MOL0     H58937  -0.152   4.000   7.993  1.5168  1.3063 -0.7119
  437MOL0     H58938   0.020   3.879   8.116  0.4704 -0.2852  1.6470
  437MOL0     H58939  -0.008   3.973   8.261 -0.8802  2.0004 -0.2343
  437MOL0     H58940  -0.254   3.902   8.248 -1.9673 -0.4293 -2.0168
  437MOL0     H58941  -0.214   3.787   8.119  0.8374 -0.6559 -0.1283
  437MOL0     H58942  -0.040   3.688   8.283  0.4240 -0.7489  0.8952
  437MOL0     H58943  -0.109   3.794   8.407 -0.2870 -1.4035  0.6200
  437MOL0     H58944  -0.325   3.723   8.355  0.1992 -0.2474  0.4683
  437MOL0     H58945  -0.232   3.582   8.419 -1.5026 -1.5862 -0.7247
  437MOL0     H58946  -0.436   3.663   8.136 -3.0934 -3.6811  2.3894
  437MOL0     H58947  -0.504   3.547   7.932  2.8956  2.0796 -1.6439
  437MOL0     H58948  -0.384   3.430   7.855  2.8969  0.8371  1.4889
  437MOL0     H58949  -0.485   3.241   7.982 -0.1408 -0.3971 -1.9859
  437MOL0     H58950  -0.604   3.296   7.870  0.2593 -1.6719  0.8802
  437MOL0     H58951  -0.722   3.424   8.018  0.7657  0.3821  1.1003
  437MOL0     H58952  -0.609   3.396   8.160  2.3897 -0.0135 -1.2881
  437MOL0     H58953  -0.652   3.153   8.157  0.6258  1.6340  0.3731
  437MOL0     H58954  -0.735   3.167   8.008 -0.0473  0.1129 -0.6142
  437MOL0     H58955  -1.055   3.374   8.237 -1.4896  0.6193  0.6964
  437MOL0     H58956  -1.256   3.387   8.335  1.7977  0.2809 -3.2452
  437MOL0     H58957  -1.377   3.288   8.243 -2.8698 -1.9796  2.2359
  437MOL0     H58958  -1.334   3.238   8.404  2.2485  1.1264  1.1049
  437MOL0     H58959  -1.373   2.658   8.474  0.3758 -1.0113  2.1512
  437MOL0     H58960  -1.554   2.614   8.638  3.4698 -1.5774 -0.2578
  437MOL0     H58961  -1.821   2.961   8.810  1.4999  2.9275 -1.9846
  437MOL0     H58962  -1.789   2.912   8.637  1.0999  0.4935  0.2420
  437MOL0     H58963  -1.922   2.713   8.655 -0.8190 -2.9250  2.0126
  437MOL0     H58964  -1.919   2.722   8.835 -1.4938  1.5166  1.8794
  437MOL0     H58965  -2.062   2.916   8.637 -2.6028  2.1778  0.8658
  437MOL0     H58966  -2.069   2.936   8.804  2.8081  1.1784 -1.5563
  437MOL0     H58967  -2.177   2.697   8.656 -2.0254 -1.7603  1.1635
  437MOL0     H58968  -2.169   2.700   8.823 -0.6163 -1.1760 -0.9072
  437MOL0     H58969  -2.313   2.930   8.793 -3.1159  1.5074 -1.8178
  437MOL0     H58970  -2.388   2.776   8.822  0.5200  1.2972  2.4149
  437MOL0     H58971  -2.469   2.927   8.610 -0.5881  0.8180 -1.9732
  437MOL0     H58972  -2.323   2.867   8.527  0.4229 -0.1725  0.6107
  437MOL0     H58973  -2.402   2.635   8.550 -2.5106 -2.8301 -0.9011
  437MOL0     H58974  -2.517   2.744   8.463 -2.2050 -1.6893  1.9656
  437MOL0     H58975  -2.529   2.659   8.741  1.3657  1.6111 -0.0913
  437MOL0     H58976  -2.633   2.589   8.612  2.5334 -0.9490  1.0979
  437MOL0     H58977  -1.585   3.039   8.716  0.0517 -1.2015  1.8816
  437MOL0     H58978  -1.390   3.087   8.570  1.9548 -1.2312 -2.1840
  437MOL0     H58979  -1.042   2.877   8.249 -1.6990  0.2580 -0.4815
  437MOL0     H58980  -0.844   2.994   8.196  0.5065  1.0730 -2.0992
  437MOL0     H58981   0.052   4.695   7.871 -0.0428 -0.4528  0.2923
  437MOL0     H58982   0.221   4.859   7.938 -0.3674  0.2929  0.4216
  437MOL0     H58983   0.658   5.025   7.753 -0.3960  1.4953  1.7638
  437MOL0     H58984   0.890   5.112   7.788  1.1274 -0.6049  0.1435
  437MOL0     H58985   1.072   5.005   7.722 -0.5099  3.2929 -0.5172
  437MOL0     H58986   1.097   5.153   7.803 -1.9509 -0.3291 -4.9423
  437MOL0     H58987   1.289   5.039   7.689 -0.4830 -1.3005 -1.0370
  437MOL0     H58988   1.304   4.915   7.820  0.2291 -0.1998 -0.8418
  437MOL0     H58989   1.317   5.088   7.983 -2.3981 -0.3301 -1.0050
  437MOL0     H58990   1.316   5.217   7.863 -1.8583  0.7573  3.5422
  437MOL0     H58991   1.532   5.039   7.805 -3.6970 -0.7651 -1.6657
  437MOL0     H58992   1.548   5.108   7.965  0.1206  1.2789 -0.0759
  437MOL0     H58993   1.645   5.428   7.701 -1.4889 -0.1696 -1.6841
  437MOL0     H58994   0.930   4.866   8.133 -1.7746 -1.4659 -0.0776
  437MOL0     H58995   0.701   4.821   8.129  2.9653  0.4321  3.2843
  438MOL0     O58996   0.804  10.617   9.378  0.0164  0.2679 -0.1114
  438MOL0     C58997   0.899  10.690   9.365 -0.1085  0.3140 -0.0823
  438MOL0     O58998   0.898  10.824   9.332 -0.3000  0.6420 -0.5482
  438MOL0     C58999   0.772  10.880   9.305  0.9060  0.5875  0.1414
  438MOL0     C59000   0.744  11.013   9.356 -0.0340  0.6165 -0.1187
  438MOL0     C59001   0.619  11.075   9.339 -0.3893  0.9881 -0.6434
  438MOL0     C59002   0.524  11.018   9.261  0.9486  0.7609  0.4086
  438MOL0     O59003   0.404  11.084   9.241 -0.0935 -0.6842  0.3367
  438MOL0     C59004   0.390  11.136   9.110 -0.6944 -0.3987  0.0460
  438MOL0     C59005   0.269  11.229   9.123  0.3406  0.3599  0.1929
  438MOL0     C59006   0.248  11.323   9.000  0.2732  0.5980 -0.9672
  438MOL0     C59007   0.103  11.381   9.006 -0.3002  0.3973 -0.5700
  438MOL0     C59008   0.080  11.527   8.953 -0.5754  0.4155  0.2135
  438MOL0     C59009   0.072  11.516   8.799 -0.0924 -0.4898  0.0051
  438MOL0     C59010   0.203  11.561   8.728  0.6315 -0.6280  0.2537
  438MOL0     C59011   0.197  11.708   8.723  0.4000 -0.1140  0.2026
  438MOL0     N59012   0.250  11.771   8.603 -0.3760 -0.9204 -0.5159
  438MOL0     C59013   0.191  11.755   8.478 -0.2150 -0.3447 -0.5911
  438MOL0     C59014   0.291  11.803   8.395 -0.6853  0.3380  0.8160
  438MOL0     C59015   0.263  11.785   8.248  0.0344  0.7857 -0.3808
  438MOL0     C59016   0.164  11.877   8.182  0.1466 -0.1716 -0.5691
  438MOL0     C59017   0.016  11.814   8.177  0.2037 -0.5493  0.2386
  438MOL0     C59018  -0.004  11.685   8.087 -0.6117  0.8426  0.3555
  438MOL0     O59019  -0.103  11.716   7.989  0.0420 -0.1974  0.1741
  438MOL0     C59020  -0.233  11.706   8.015 -0.1052 -0.4264  0.2246
  438MOL0     C59021  -0.296  11.630   8.113 -0.7337  0.2896  0.1980
  438MOL0     C59022  -0.433  11.626   8.124 -0.4492 -0.2281  0.1091
  438MOL0     C59023  -0.479  11.532   8.238  0.1215 -0.0630 -0.0305
  438MOL0     C59024  -0.519  11.699   8.032 -0.3360 -0.6910  0.8301
  438MOL0     C59025  -0.665  11.714   8.039  1.2143 -0.2269 -0.3305
  438MOL0     O59026  -0.740  11.739   7.927 -0.3680 -0.3616 -0.1716
  438MOL0     C59027  -0.867  11.776   7.947 -0.0893  0.3816 -0.4706
  438MOL0     C59028  -0.916  11.915   7.961 -1.0288 -0.0751 -0.3759
  438MOL0     C59029  -1.049  11.948   7.972 -0.4275  0.2519 -0.1576
  438MOL0     C59030  -1.145  11.849   7.986  0.2730 -0.3067 -0.0982
  438MOL0     O59031  -1.278  11.902   7.998 -0.7086  0.1385  0.6532
  438MOL0     C59032  -1.379  11.817   8.052 -0.0097  1.0233  0.9495
  438MOL0     C59033  -1.493  11.903   8.098  0.8231  0.1094 -0.5645
  438MOL0     C59034  -1.561  11.969   7.972  0.2575 -0.1736 -0.3082
  438MOL0     C59035  -1.693  12.054   8.002  0.0342 -0.0695  0.3821
  438MOL0     C59036  -1.735  12.120   7.870 -0.0829 -0.2581  0.9752
  438MOL0     C59037  -1.867  12.191   7.894 -0.6699 -0.3186  0.0215
  438MOL0     C59038  -1.896  12.288   7.773  0.0908  0.8175 -0.7064
  438MOL0     C59039  -2.006  12.391   7.809 -0.0589 -0.0297 -0.6951
  438MOL0    Cl59040  -2.013  12.504   7.670  0.1048  0.2069 -0.2260
  438MOL0     C59041  -1.106  11.719   7.970 -0.0534 -0.0844  0.1724
  438MOL0     C59042  -0.970  11.684   7.948  0.2704  0.3209  0.1125
  438MOL0     O59043  -0.707  11.711   8.156  0.1504  0.9486  1.3028
  438MOL0     C59044  -0.452  11.774   7.925 -0.5334 -0.5012 -0.7877
  438MOL0     C59045  -0.310  11.780   7.933 -0.7565  0.0149  1.6320
  438MOL0     N59046   0.400  11.850   8.464 -0.2491  0.9266 -0.4929
  438MOL0     N59047   0.373  11.825   8.591  0.1335  0.5233  0.3484
  438MOL0     C59048   0.547  10.895   9.204 -0.1919  1.2443  0.3234
  438MOL0     C59049   0.660  10.818   9.232 -0.3476 -0.1121  0.8860
  438MOL0     C59050   1.029  10.619   9.364 -0.3215  1.1197 -0.6088
  438MOL0     C59051   1.042  10.477   9.379 -0.3093  0.3591  0.0147
  438MOL0     C59052   1.169  10.414   9.386  0.3162  0.0197 -0.5001
  438MOL0     C59053   1.284  10.490   9.364 -0.6496 -0.6566 -0.0861
  438MOL0     O59054   1.416  10.441   9.374 -0.0394  0.0588  0.3888
  438MOL0     C59055   1.453  10.305   9.377  0.5554  0.3120  0.2444
  438MOL0     C59056   1.428  10.242   9.235  0.4974 -0.6715 -0.2393
  438MOL0     C59057   1.465  10.349   9.121 -0.6119  0.4677 -0.3131
  438MOL0     C59058   1.471  10.286   8.979  0.1034 -0.1491 -0.0927
  438MOL0     C59059   1.341  10.225   8.933 -0.5457 -1.1747 -0.2199
  438MOL0     C59060   1.256  10.143   8.907 -0.4641  0.1034  0.7407
  438MOL0     C59061   1.272  10.631   9.351 -0.0007 -0.1476  0.4748
  438MOL0     C59062   1.144  10.690   9.356 -0.3995 -0.1482  0.9157
  438MOL0     H59063   0.820  11.063   9.415  3.0910 -0.4509 -2.9565
  438MOL0     H59064   0.596  11.177   9.370  4.5156  3.1548 -2.9646
  438MOL0     H59065   0.470  11.201   9.075 -2.3157  1.4187 -0.4999
  438MOL0     H59066   0.381  11.052   9.041  1.2092  0.6158 -1.5248
  438MOL0     H59067   0.188  11.156   9.129  0.0035  0.8383  3.2311
  438MOL0     H59068   0.269  11.290   9.214 -2.7239 -0.4998  0.8842
  438MOL0     H59069   0.319  11.405   9.007  1.0775 -0.2005  1.9908
  438MOL0     H59070   0.246  11.271   8.904 -1.9762  0.9018 -1.1430
  438MOL0     H59071   0.045  11.304   8.955  0.4272 -1.0572  0.7026
  438MOL0     H59072   0.059  11.364   9.105 -0.0303 -3.0493 -0.9145
  438MOL0     H59073  -0.014  11.564   8.993 -1.5391 -0.7373 -0.9083
  438MOL0     H59074   0.148  11.605   8.989 -3.0033  3.8592 -2.0463
  438MOL0     H59075   0.054  11.412   8.771 -2.2265 -0.8497  2.3375
  438MOL0     H59076  -0.014  11.574   8.763  1.4201  1.5669 -0.4541
  438MOL0     H59077   0.301  11.525   8.759  1.5415 -1.3100 -3.0296
  438MOL0     H59078   0.200  11.528   8.624 -0.6494 -0.6166  0.2627
  438MOL0     H59079   0.237  11.751   8.816 -0.4995 -0.8458  0.9510
  438MOL0     H59080   0.093  11.740   8.721 -0.1091 -1.5588  1.4611
  438MOL0     H59081   0.100  11.703   8.450 -1.4189  2.6074 -2.7485
  438MOL0     H59082   0.362  11.782   8.202  0.1210  0.7389 -0.1921
  438MOL0     H59083   0.227  11.683   8.228 -1.3433  1.3189 -0.7518
  438MOL0     H59084   0.191  11.896   8.078  0.2601  0.1248 -0.4856
  438MOL0     H59085   0.145  11.968   8.240 -2.8801 -1.2985  0.3865
  438MOL0     H59086  -0.052  11.896   8.152  1.2597  1.1079  2.3951
  438MOL0     H59087  -0.009  11.782   8.279 -0.1988 -0.4386  0.1769
  438MOL0     H59088  -0.027  11.595   8.146 -0.1907  1.8673  2.1387
  438MOL0     H59089   0.094  11.668   8.042 -0.8638 -1.1074  0.4389
  438MOL0     H59090  -0.240  11.576   8.188 -2.1522 -1.8172 -0.1582
  438MOL0     H59091  -0.539  11.452   8.193  0.3546  0.2158 -0.8550
  438MOL0     H59092  -0.408  11.490   8.310 -2.7945 -3.4059  1.2081
  438MOL0     H59093  -0.541  11.585   8.312  1.6371  4.0337 -1.4059
  438MOL0     H59094  -0.846  11.995   7.937 -1.7211  1.3846  2.0720
  438MOL0     H59095  -1.094  12.047   7.968  1.4797  1.1939  0.3840
  438MOL0     H59096  -1.419  11.745   7.980 -0.3957  1.5698  0.6116
  438MOL0     H59097  -1.347  11.751   8.134 -0.8574 -1.1964 -0.4140
  438MOL0     H59098  -1.555  11.834   8.156  2.1843 -2.5670 -2.1263
  438MOL0     H59099  -1.473  11.981   8.173 -0.5324  0.1733 -0.2456
  438MOL0     H59100  -1.592  11.895   7.898  2.0597 -0.2066 -1.0723
  438MOL0     H59101  -1.488  12.040   7.932  2.5984 -2.7451 -0.9537
  438MOL0     H59102  -1.763  11.985   8.051 -0.2212 -0.0841 -0.0033
  438MOL0     H59103  -1.666  12.138   8.068 -1.4356  0.3188  0.5296
  438MOL0     H59104  -1.753  12.046   7.792  2.1514  3.4437 -3.5539
  438MOL0     H59105  -1.659  12.190   7.834 -2.7405  1.9664 -0.6537
  438MOL0     H59106  -1.940  12.110   7.905 -2.5831  1.1695 -0.9047
  438MOL0     H59107  -1.854  12.248   7.986  2.3579  1.4269 -1.3455
  438MOL0     H59108  -1.943  12.224   7.697 -1.5565 -0.6093  1.3568
  438MOL0     H59109  -1.798  12.323   7.741 -0.0598  0.1813 -1.9463
  438MOL0     H59110  -1.976  12.448   7.898  1.0610  1.2355 -1.8442
  438MOL0     H59111  -2.104  12.347   7.827  0.7490 -1.3023  0.8764
  438MOL0     H59112  -1.174  11.636   7.990 -1.4457  0.2616 -2.6650
  438MOL0     H59113  -0.945  11.579   7.951 -0.6906  0.0679 -0.3043
  438MOL0     H59114  -0.509  11.826   7.849  0.2237  1.5625 -0.0266
  438MOL0     H59115  -0.259  11.821   7.846 -2.2074 -2.6714 -0.6774
  438MOL0     H59116   0.470  10.857   9.137 -1.2779 -0.2234  2.2708
  438MOL0     H59117   0.679  10.722   9.186  1.2392  0.0407  1.1739
  438MOL0     H59118   0.950  10.421   9.393  1.3700 -2.1385  2.0204
  438MOL0     H59119   1.172  10.306   9.401 -1.5508 -0.3575 -2.4333
  438MOL0     H59120   1.557  10.293   9.408  0.1953 -2.0105  0.6966
  438MOL0     H59121   1.396  10.250   9.453 -1.5052  3.5996  1.3071
  438MOL0     H59122   1.322  10.217   9.234  0.4403 -0.4263 -0.1681
  438MOL0     H59123   1.498  10.158   9.221  1.6061 -0.2126  1.9854
  438MOL0     H59124   1.555  10.410   9.128 -0.7916  0.9339 -1.6633
  438MOL0     H59125   1.386  10.425   9.113  1.2743  2.8403  1.8418
  438MOL0     H59126   1.542  10.204   8.989 -1.0748 -1.1694  0.0962
  438MOL0     H59127   1.500  10.367   8.912 -0.6608  2.1682  2.1870
  438MOL0     H59128   1.175  10.075   8.890  0.3415 -0.3893 -1.4384
  438MOL0     H59129   1.359  10.690   9.326 -0.5769  0.1373 -0.9060
  438MOL0     H59130   1.145  10.797   9.339  3.6841 -0.0710  0.8260
  439MOL0     O59131   1.849   4.677   3.131 -0.0071  0.2537  0.6644
  439MOL0     C59132   1.844   4.578   3.059 -0.1434 -0.9030  0.2631
  439MOL0     O59133   1.734   4.506   3.033  0.6573  0.0631 -0.9152
  439MOL0     C59134   1.612   4.546   3.080  0.9954 -0.5547  0.2455
  439MOL0     C59135   1.498   4.521   2.997 -0.0534  0.4233  0.4115
  439MOL0     C59136   1.366   4.548   3.046  0.2667 -0.8220 -0.0114
  439MOL0     C59137   1.339   4.590   3.177  0.2720  0.2228  0.6002
  439MOL0     O59138   1.218   4.576   3.246  0.9886  0.1590  0.1609
  439MOL0     C59139   1.110   4.624   3.161  0.2491  0.0651 -0.0494
  439MOL0     C59140   0.979   4.658   3.243 -0.6217 -0.3678  0.5943
  439MOL0     C59141   1.008   4.774   3.340 -0.2944  0.8792  0.0697
  439MOL0     C59142   0.882   4.840   3.402 -1.0036  0.1389 -0.7337
  439MOL0     C59143   0.796   4.895   3.293 -0.7655 -0.0660 -0.4717
  439MOL0     C59144   0.671   4.976   3.338 -0.4350  0.0149 -0.1324
  439MOL0     C59145   0.712   5.115   3.393  0.2404  0.3691  0.8546
  439MOL0     C59146   0.593   5.189   3.448 -0.2441  0.2732  0.6539
  439MOL0     N59147   0.534   5.112   3.559  0.1018 -0.2716  0.4429
  439MOL0     C59148   0.581   5.090   3.688 -0.2747  0.0681 -0.0341
  439MOL0     C59149   0.493   5.007   3.749 -0.3453  0.3587 -0.6522
  439MOL0     C59150   0.490   4.955   3.890  0.7950  0.0333 -0.0636
  439MOL0     C59151   0.445   5.076   3.977 -0.8845 -1.0219  0.4981
  439MOL0     C59152   0.462   5.051   4.120  0.2742  1.0160 -0.1542
  439MOL0     C59153   0.325   5.004   4.183  0.3876  0.6730  0.3157
  439MOL0     O59154   0.351   4.939   4.306  0.3687 -0.2206  0.3240
  439MOL0     C59155   0.246   4.910   4.389  0.2042  0.9556  0.5842
  439MOL0     C59156   0.111   4.914   4.357  0.2273  0.6890 -0.3694
  439MOL0     C59157   0.013   4.883   4.456 -0.4880 -0.4980  0.6500
  439MOL0     C59158  -0.132   4.891   4.407 -1.1314 -0.0349 -0.0677
  439MOL0     C59159   0.052   4.845   4.590  0.0622  0.1765  0.7872
  439MOL0     C59160  -0.048   4.805   4.699  0.8953 -0.0297 -0.8706
  439MOL0     O59161  -0.168   4.752   4.666  0.1348 -0.3984 -0.7626
  439MOL0     C59162  -0.264   4.725   4.765 -0.9323 -0.2244  0.0007
  439MOL0     C59163  -0.380   4.804   4.754 -0.2240 -0.0851 -0.1588
  439MOL0     C59164  -0.489   4.784   4.843 -0.2926 -0.5111 -0.0305
  439MOL0     C59165  -0.482   4.686   4.943  0.3117 -0.4488 -0.1711
  439MOL0     O59166  -0.565   4.685   5.051  0.1702  0.2150 -0.2197
  439MOL0     C59167  -0.707   4.677   5.013  0.4340 -0.3014 -0.0730
  439MOL0     C59168  -0.786   4.765   5.116  0.0710 -0.2425  0.7406
  439MOL0     C59169  -0.770   4.909   5.070  0.4114 -0.0162 -0.1190
  439MOL0     C59170  -0.841   5.018   5.143 -0.2795  0.5423  0.9368
  439MOL0     C59171  -0.964   5.053   5.071 -0.0344  0.2604  0.3124
  439MOL0     C59172  -1.052   5.124   5.168 -1.0077 -0.1490 -0.7315
  439MOL0     C59173  -1.184   5.164   5.109 -0.2644  0.1138 -0.4079
  439MOL0     C59174  -1.263   5.240   5.223  0.9562 -0.3513  0.7448
  439MOL0    Cl59175  -1.415   5.330   5.159 -0.6119  0.0921  0.5440
  439MOL0     C59176  -0.358   4.627   4.964  0.7056 -0.2016 -0.0735
  439MOL0     C59177  -0.253   4.630   4.868 -0.7714 -0.7200 -0.7238
  439MOL0     O59178  -0.009   4.813   4.819  0.2556  0.0522 -0.2042
  439MOL0     C59179   0.187   4.832   4.618 -0.0894 -0.8979  0.2016
  439MOL0     C59180   0.286   4.870   4.519 -0.1671  0.2134 -0.9809
  439MOL0     N59181   0.401   4.972   3.654 -0.2836 -0.0072 -0.3185
  439MOL0     N59182   0.426   5.036   3.545 -0.5503 -0.6666  0.4329
  439MOL0     C59183   1.449   4.623   3.261  0.0587  0.2210  0.8699
  439MOL0     C59184   1.581   4.602   3.209  0.4055  0.7224  0.3094
  439MOL0     C59185   1.973   4.545   2.997 -0.0484  0.0838 -0.1632
  439MOL0     C59186   2.095   4.579   3.050  0.3327  0.5150  0.3628
  439MOL0     C59187   2.214   4.526   2.992 -0.9547 -0.7361  0.4423
  439MOL0     C59188   2.214   4.454   2.868 -0.2181  0.4263  0.0918
  439MOL0     O59189   2.335   4.394   2.834 -0.2295  0.1302  0.7717
  439MOL0     C59190   2.338   4.364   2.691 -0.2515  0.3411 -0.1250
  439MOL0     C59191   2.481   4.354   2.644 -0.2608  0.5652  0.3234
  439MOL0     C59192   2.580   4.458   2.706 -0.4482  0.8247 -0.6698
  439MOL0     C59193   2.714   4.418   2.667 -0.0974  0.7401  0.1189
  439MOL0     C59194   2.826   4.499   2.734  0.2709 -0.1378  0.2309
  439MOL0     C59195   2.912   4.551   2.801 -0.3558  0.1852 -0.4257
  439MOL0     C59196   2.082   4.426   2.821  0.5032  0.0405 -0.9883
  439MOL0     C59197   1.962   4.474   2.878 -0.2059 -0.2583 -0.2491
  439MOL0     H59198   1.504   4.474   2.899 -1.5190  1.8422 -0.4034
  439MOL0     H59199   1.290   4.520   2.973  0.2613 -0.8930  0.0202
  439MOL0     H59200   1.138   4.689   3.078 -1.7232  2.4016  0.9852
  439MOL0     H59201   1.083   4.527   3.119  0.2007 -0.6174  1.4690
  439MOL0     H59202   0.903   4.687   3.171 -0.8038  3.6852  2.1442
  439MOL0     H59203   0.945   4.577   3.308  0.5313  1.3051  3.4982
  439MOL0     H59204   1.064   4.726   3.421 -2.4782 -2.0541  0.0339
  439MOL0     H59205   1.072   4.846   3.289 -1.3171  2.7011  1.2386
  439MOL0     H59206   0.822   4.769   3.459  0.3146 -1.2811 -1.0323
  439MOL0     H59207   0.915   4.929   3.457  0.3588 -1.6550  1.5396
  439MOL0     H59208   0.853   4.961   3.227 -1.2128 -1.0724 -1.8968
  439MOL0     H59209   0.761   4.812   3.231 -0.5533 -0.1403 -0.4946
  439MOL0     H59210   0.606   4.998   3.253 -2.9109 -0.5996  1.5022
  439MOL0     H59211   0.617   4.909   3.405 -0.2663 -1.5483 -1.4929
  439MOL0     H59212   0.794   5.113   3.465  0.7700  1.1141  0.2957
  439MOL0     H59213   0.758   5.180   3.318  1.3735 -0.2960  0.9462
  439MOL0     H59214   0.520   5.213   3.371  0.6600 -2.0724 -1.0442
  439MOL0     H59215   0.619   5.283   3.498 -1.8364  1.5559 -0.7985
  439MOL0     H59216   0.665   5.142   3.731  0.4905  0.3099 -1.7119
  439MOL0     H59217   0.413   4.878   3.900 -0.6590  1.1885 -1.5823
  439MOL0     H59218   0.586   4.910   3.917  0.3601 -0.8048  0.1178
  439MOL0     H59219   0.342   5.110   3.959 -0.7350 -1.1509 -0.6686
  439MOL0     H59220   0.512   5.161   3.959  1.1122 -2.4932  0.7568
  439MOL0     H59221   0.505   5.138   4.170  0.9591  0.7333 -0.2377
  439MOL0     H59222   0.532   4.967   4.125 -0.6023  0.1914 -1.2311
  439MOL0     H59223   0.274   4.934   4.117  0.4020 -1.3858  2.3622
  439MOL0     H59224   0.259   5.091   4.193 -0.8159 -0.1436 -0.2514
  439MOL0     H59225   0.082   4.931   4.254  2.4319 -2.1171 -1.5810
  439MOL0     H59226  -0.131   4.965   4.326 -1.2286  1.7469  1.4821
  439MOL0     H59227  -0.168   4.794   4.371  0.7229 -0.2205 -1.5903
  439MOL0     H59228  -0.198   4.926   4.487  0.3464 -0.1699  1.2500
  439MOL0     H59229  -0.397   4.868   4.669 -0.7136 -0.6054 -0.4546
  439MOL0     H59230  -0.586   4.830   4.822  0.3479  0.5557 -0.7611
  439MOL0     H59231  -0.730   4.703   4.910  1.0416  0.3014 -0.0601
  439MOL0     H59232  -0.750   4.578   5.035 -0.7443 -0.1657 -1.6117
  439MOL0     H59233  -0.892   4.737   5.111  0.3894 -1.2660 -1.1259
  439MOL0     H59234  -0.742   4.758   5.216  1.6705 -1.1721  0.0017
  439MOL0     H59235  -0.791   4.925   4.964 -0.9684 -0.0149  0.1388
  439MOL0     H59236  -0.665   4.930   5.093  0.6678 -0.1322 -1.1174
  439MOL0     H59237  -0.864   4.985   5.245  1.9282 -0.6629  1.1101
  439MOL0     H59238  -0.778   5.108   5.138  0.8550 -0.2933 -2.1064
  439MOL0     H59239  -1.020   4.972   5.023  0.1854 -1.9870  3.5193
  439MOL0     H59240  -0.933   5.132   5.003  0.8613  0.2675  0.7134
  439MOL0     H59241  -1.069   5.053   5.249 -2.1800 -1.3928 -2.0273
  439MOL0     H59242  -1.000   5.210   5.212 -0.9652 -1.3905  1.8456
  439MOL0     H59243  -1.244   5.080   5.073 -0.7215  0.1126  0.3387
  439MOL0     H59244  -1.165   5.242   5.035  2.8400  0.3383  0.5066
  439MOL0     H59245  -1.196   5.314   5.267 -1.2900  3.8183 -2.1782
  439MOL0     H59246  -1.278   5.165   5.301 -0.6526  0.5166  1.3093
  439MOL0     H59247  -0.360   4.564   5.052 -1.7198 -0.9020 -0.5506
  439MOL0     H59248  -0.160   4.576   4.882  0.4121  1.8021  2.0495
  439MOL0     H59249   0.214   4.793   4.715  3.1243  0.6769  0.0753
  439MOL0     H59250   0.391   4.852   4.539 -0.6893 -1.1722  0.7537
  439MOL0     H59251   1.432   4.658   3.363  4.2164 -1.6392  2.4127
  439MOL0     H59252   1.657   4.642   3.276 -0.8468  0.6956  1.8098
  439MOL0     H59253   2.095   4.635   3.143 -0.3809 -2.1691  2.1028
  439MOL0     H59254   2.303   4.544   3.052 -0.0135 -1.3231 -0.7169
  439MOL0     H59255   2.283   4.273   2.666  0.9984 -0.1330 -1.2231
  439MOL0     H59256   2.286   4.447   2.642 -2.1046 -2.5294 -3.4982
  439MOL0     H59257   2.501   4.368   2.537 -0.3305  2.4389  0.5280
  439MOL0     H59258   2.505   4.251   2.675 -0.3660  1.3414  3.2267
  439MOL0     H59259   2.566   4.468   2.814  0.3810  4.7384 -0.7756
  439MOL0     H59260   2.550   4.557   2.669  2.4543  1.9179 -0.3531
  439MOL0     H59261   2.727   4.437   2.560 -2.1508  1.1240 -0.1064
  439MOL0     H59262   2.736   4.313   2.685  0.3677  0.2223 -2.9406
  439MOL0     H59263   3.002   4.566   2.856  0.4530 -0.4782 -1.5170
  439MOL0     H59264   2.063   4.359   2.737  1.7923 -2.5417  0.6414
  439MOL0     H59265   1.867   4.450   2.830 -0.2012 -0.9499  0.0815
  440MOL0     O59266   8.871   6.727   8.058  0.1804  0.5556 -0.2496
  440MOL0     C59267   8.818   6.816   8.128 -0.1741  0.6568 -0.1611
  440MOL0     O59268   8.879   6.936   8.149 -0.0715  0.3638 -0.4989
  440MOL0     C59269   9.014   6.942   8.110  0.1085 -0.6617  0.6159
  440MOL0     C59270   9.121   6.857   8.155  0.1702 -0.1803  0.5633
  440MOL0     C59271   9.250   6.869   8.105  0.7107 -0.1595  0.7101
  440MOL0     C59272   9.272   6.983   8.022  0.0391  0.1998  0.1364
  440MOL0     O59273   9.407   6.995   7.999 -0.1450  0.2097  0.0013
  440MOL0     C59274   9.450   7.065   7.887 -0.3408  0.0323  0.7990
  440MOL0     C59275   9.594   7.026   7.858 -1.0992 -0.1559 -0.0774
  440MOL0     C59276   9.617   6.888   7.794 -0.0114  0.1332 -0.4910
  440MOL0     C59277   9.755   6.844   7.783 -0.3931  0.4766  1.3188
  440MOL0     C59278   9.808   6.879   7.640  0.6352  0.5213 -0.3633
  440MOL0     C59279   9.918   6.776   7.615 -0.3569  0.0677 -0.3343
  440MOL0     C59280   9.992   6.815   7.484 -0.4215  0.5654 -0.2183
  440MOL0     C59281  10.089   6.702   7.445  0.3116  0.5972  0.2399
  440MOL0     N59282  10.137   6.725   7.309  0.0626  0.1768  0.2196
  440MOL0     C59283  10.249   6.805   7.288  0.1671  1.2990  0.0152
  440MOL0     C59284  10.271   6.800   7.155 -0.0840 -0.8129 -1.4467
  440MOL0     C59285  10.374   6.879   7.077  0.7624  0.1324 -0.2055
  440MOL0     C59286  10.399   7.015   7.132 -0.4894  0.4822 -0.9107
  440MOL0     C59287  10.275   7.094   7.097  0.1647 -0.3387  0.4788
  440MOL0     C59288  10.262   7.216   7.180 -0.2641 -0.7834  0.0227
  440MOL0     O59289  10.135   7.274   7.167  0.0486  0.3377 -0.6171
  440MOL0     C59290  10.114   7.405   7.184 -0.3871 -0.0347 -0.2874
  440MOL0     C59291  10.190   7.482   7.274 -0.6824 -0.3399 -0.4208
  440MOL0     C59292  10.155   7.611   7.312  0.5019  1.2200 -0.5368
  440MOL0     C59293  10.257   7.686   7.393  0.2637 -0.0134 -0.1202
  440MOL0     C59294  10.029   7.665   7.255 -0.6631  0.1416  0.3988
  440MOL0     C59295   9.993   7.806   7.261 -0.4817 -1.0306  0.0379
  440MOL0     O59296   9.867   7.844   7.212  0.9408 -0.0108 -0.1225
  440MOL0     C59297   9.823   7.976   7.229 -0.1813 -0.3791 -0.3375
  440MOL0     C59298   9.753   7.999   7.343 -0.0674 -0.2757 -0.3722
  440MOL0     C59299   9.703   8.122   7.361  0.0158 -0.0197 -0.4829
  440MOL0     C59300   9.702   8.220   7.267  0.0820  0.0881  0.7981
  440MOL0     O59301   9.626   8.333   7.285  0.1964 -0.4764 -0.4030
  440MOL0     C59302   9.536   8.380   7.181 -0.4512  0.0964 -0.2594
  440MOL0     C59303   9.388   8.346   7.201  1.8266 -0.6316  0.6360
  440MOL0     C59304   9.347   8.352   7.347  0.0997 -0.0138 -0.5979
  440MOL0     C59305   9.193   8.363   7.352  0.5967  0.0781 -0.7109
  440MOL0     C59306   9.131   8.358   7.494  0.4144  0.2716 -0.3529
  440MOL0     C59307   8.980   8.370   7.486  0.0665  0.7271  1.1773
  440MOL0     C59308   8.930   8.386   7.624  0.0394 -0.5267 -0.2000
  440MOL0     C59309   8.787   8.425   7.634  0.5778 -0.2589 -0.7946
  440MOL0    Cl59310   8.690   8.284   7.651 -0.1555  0.2519  0.2660
  440MOL0     C59311   9.786   8.204   7.156 -0.3826 -0.2966  0.9640
  440MOL0     C59312   9.844   8.078   7.135  0.0253 -0.0290 -0.1462
  440MOL0     O59313  10.076   7.883   7.308  0.1951  0.5383 -0.9555
  440MOL0     C59314   9.965   7.585   7.162  0.1515  0.0664  0.0617
  440MOL0     C59315  10.005   7.462   7.123 -0.1743  0.0133 -0.5809
  440MOL0     N59316  10.165   6.738   7.100 -0.3490  0.7975  0.7820
  440MOL0     N59317  10.091   6.680   7.188  0.3954  0.0277 -0.2357
  440MOL0     C59318   9.175   7.069   7.974  0.9889  0.7435 -0.0242
  440MOL0     C59319   9.048   7.044   8.025 -0.2799 -0.2739 -0.3702
  440MOL0     C59320   8.685   6.796   8.175  0.8660  0.2014 -0.2713
  440MOL0     C59321   8.624   6.903   8.251  0.5408 -0.5178  0.7699
  440MOL0     C59322   8.487   6.884   8.289  0.3933 -0.3007  0.6703
  440MOL0     C59323   8.416   6.768   8.274  0.2512 -0.0437 -0.2337
  440MOL0     O59324   8.290   6.756   8.321 -0.1467 -0.1427  0.0763
  440MOL0     C59325   8.182   6.784   8.223 -0.7262 -0.7693 -0.5643
  440MOL0     C59326   8.096   6.901   8.262 -0.2969  0.0318  0.0133
  440MOL0     C59327   8.011   6.863   8.381 -0.4640  0.2434 -0.0956
  440MOL0     C59328   7.919   6.974   8.420  0.3032  0.3893 -0.2971
  440MOL0     C59329   7.812   6.932   8.521  0.7531  0.2458 -0.5183
  440MOL0     C59330   7.724   6.889   8.599  0.2651 -0.4165 -0.0596
  440MOL0     C59331   8.473   6.661   8.205  0.5501  0.0127 -0.5472
  440MOL0     C59332   8.600   6.678   8.150 -0.5333  0.3948  1.1940
  440MOL0     H59333   9.101   6.768   8.214  0.3899  0.0640  1.0110
  440MOL0     H59334   9.334   6.813   8.145  1.4887 -1.2092 -2.1990
  440MOL0     H59335   9.396   7.041   7.795 -0.6997 -0.5190  1.1480
  440MOL0     H59336   9.446   7.170   7.916  3.0366  0.2031  1.0724
  440MOL0     H59337   9.629   7.105   7.791 -2.5139  0.0191 -0.6488
  440MOL0     H59338   9.658   7.032   7.947 -0.8635  2.0796 -0.3369
  440MOL0     H59339   9.557   6.823   7.859 -1.1710  1.0740 -0.5978
  440MOL0     H59340   9.565   6.886   7.698  0.5220  1.8917 -0.8419
  440MOL0     H59341   9.813   6.888   7.865 -1.6073 -0.5163  2.7668
  440MOL0     H59342   9.746   6.736   7.795 -1.2788  0.4449  0.4474
  440MOL0     H59343   9.731   6.847   7.570 -0.0401  1.4169 -0.0421
  440MOL0     H59344   9.835   6.985   7.634  0.3859  0.9518  3.4337
  440MOL0     H59345   9.991   6.790   7.695 -1.2221  1.8650  0.1985
  440MOL0     H59346   9.884   6.672   7.610 -1.2274  0.3035  0.2806
  440MOL0     H59347   9.920   6.824   7.401  0.7334 -0.2140 -1.3450
  440MOL0     H59348  10.043   6.911   7.495 -0.0111  0.7362 -2.9333
  440MOL0     H59349  10.037   6.606   7.448 -0.1464  0.7776 -1.1710
  440MOL0     H59350  10.177   6.699   7.511  0.5594 -0.4530 -0.1282
  440MOL0     H59351  10.309   6.860   7.360 -0.3699  0.8875  0.7915
  440MOL0     H59352  10.466   6.821   7.067  0.5857 -0.1251 -0.3567
  440MOL0     H59353  10.327   6.880   6.978  3.0862 -3.7018 -1.5758
  440MOL0     H59354  10.490   7.051   7.084  1.2562 -1.1040  1.0024
  440MOL0     H59355  10.419   7.015   7.239 -0.9102  1.4731 -0.8264
  440MOL0     H59356  10.179   7.042   7.097  0.4583 -0.8813  0.9588
  440MOL0     H59357  10.284   7.125   6.992  1.9168 -1.0728  0.3724
  440MOL0     H59358  10.345   7.280   7.150  0.7643 -1.3220  1.6007
  440MOL0     H59359  10.272   7.195   7.287  2.4922  1.0336  0.2089
  440MOL0     H59360  10.276   7.435   7.321  2.9560  3.7004 -2.4105
  440MOL0     H59361  10.216   7.742   7.477  5.2031  2.4664  1.0499
  440MOL0     H59362  10.325   7.613   7.437  0.2695 -2.9258 -4.3667
  440MOL0     H59363  10.302   7.762   7.328  0.8574 -0.2147  0.0519
  440MOL0     H59364   9.732   7.922   7.417  1.6172 -0.6510 -0.2530
  440MOL0     H59365   9.668   8.145   7.461  3.8265 -1.2575  1.2906
  440MOL0     H59366   9.544   8.489   7.175  1.4956  0.0052  0.0802
  440MOL0     H59367   9.569   8.337   7.086  0.8470 -2.9055  1.3971
  440MOL0     H59368   9.320   8.418   7.154  0.3072 -1.7084  1.1185
  440MOL0     H59369   9.369   8.245   7.163  1.9252  0.0780 -1.4201
  440MOL0     H59370   9.392   8.442   7.391 -1.9801  0.9866 -0.3990
  440MOL0     H59371   9.379   8.263   7.401 -2.1239  0.8312  2.3895
  440MOL0     H59372   9.162   8.461   7.314  2.6997  1.6348  1.3460
  440MOL0     H59373   9.154   8.287   7.283  1.2875 -0.0728 -0.9503
  440MOL0     H59374   9.181   8.430   7.559 -1.1165 -0.9460  2.3767
  440MOL0     H59375   9.149   8.258   7.536  2.8438  0.7759 -0.0542
  440MOL0     H59376   8.947   8.455   7.425 -2.8999 -1.9213 -1.2104
  440MOL0     H59377   8.949   8.279   7.435  1.0594  0.4572  1.0340
  440MOL0     H59378   8.997   8.452   7.679 -0.8484 -0.1857  0.5075
  440MOL0     H59379   8.944   8.289   7.672  2.0039  0.0178  0.3930
  440MOL0     H59380   8.761   8.484   7.546  0.6011  2.2118  0.7477
  440MOL0     H59381   8.779   8.489   7.722 -1.8517 -1.8484  0.2436
  440MOL0     H59382   9.795   8.288   7.087 -2.0024 -1.6122 -1.0045
  440MOL0     H59383   9.901   8.045   7.049 -2.6513 -3.8028 -0.7635
  440MOL0     H59384   9.878   7.620   7.107  1.8530 -0.5991 -3.3737
  440MOL0     H59385   9.942   7.395   7.064  1.3498 -0.1868 -2.0535
  440MOL0     H59386   9.191   7.148   7.901 -0.0826 -0.8822 -2.1120
  440MOL0     H59387   8.966   7.103   7.985  0.7142  1.7313  0.4487
  440MOL0     H59388   8.647   7.009   8.243 -4.4753  0.7041 -2.5368
  440MOL0     H59389   8.435   6.965   8.340 -0.9084  1.1038 -2.6315
  440MOL0     H59390   8.229   6.783   8.124 -1.0821  2.3801 -0.8601
  440MOL0     H59391   8.110   6.703   8.209 -3.0364  0.9542  0.6720
  440MOL0     H59392   8.031   6.926   8.178 -0.0973  2.4225  0.4794
  440MOL0     H59393   8.147   6.995   8.289  1.2981  0.4379 -3.7544
  440MOL0     H59394   8.074   6.853   8.470  1.2256  0.9697 -1.1452
  440MOL0     H59395   7.951   6.774   8.367 -0.4061  0.3318 -0.9532
  440MOL0     H59396   7.868   7.006   8.329  1.1207 -0.4963 -1.0985
  440MOL0     H59397   7.968   7.063   8.459 -2.6159  1.4454  1.2566
  440MOL0     H59398   7.646   6.854   8.664  0.6855 -3.4168 -1.0187
  440MOL0     H59399   8.400   6.581   8.198  1.0623 -0.6112  0.8405
  440MOL0     H59400   8.645   6.597   8.095 -0.1490  0.0650  1.9684
  441MOL0     O59401   8.375   8.070   8.690 -0.0112 -0.6973  0.2155
  441MOL0     C59402   8.354   8.031   8.580 -0.0144 -0.5556  0.6249
  441MOL0     O59403   8.234   8.036   8.518 -0.6076 -0.2123  0.6799
  441MOL0     C59404   8.118   8.058   8.593 -0.7636 -0.0696 -0.1509
  441MOL0     C59405   8.092   8.040   8.733 -0.2707  0.3758 -0.7946
  441MOL0     C59406   7.960   8.065   8.779  0.2352  0.2401  0.8391
  441MOL0     C59407   7.859   8.121   8.695 -0.0847 -0.0251  0.1096
  441MOL0     O59408   7.732   8.151   8.746  0.4134  0.0814  0.0455
  441MOL0     C59409   7.617   8.171   8.666 -0.0518 -0.0306 -0.6045
  441MOL0     C59410   7.478   8.166   8.719 -0.1520  0.8284  0.2414
  441MOL0     C59411   7.431   8.026   8.757 -0.6261  0.3530 -0.5620
  441MOL0     C59412   7.538   7.929   8.803  0.7708  0.0370  0.7716
  441MOL0     C59413   7.471   7.797   8.856  0.7911  0.6159  0.0156
  441MOL0     C59414   7.576   7.707   8.912  0.6190  0.1528  0.0805
  441MOL0     C59415   7.640   7.627   8.797 -0.0861 -0.2188  0.4495
  441MOL0     C59416   7.551   7.535   8.714 -0.5040 -0.3673 -0.2124
  441MOL0     N59417   7.630   7.472   8.603 -0.1530  0.1490  0.0678
  441MOL0     C59418   7.596   7.492   8.473  0.1714 -1.6121 -0.7484
  441MOL0     C59419   7.698   7.443   8.401  0.3363 -0.1555 -0.2110
  441MOL0     C59420   7.699   7.427   8.251  0.5746 -0.6786  0.2533
  441MOL0     C59421   7.838   7.413   8.194 -1.3152 -0.0517 -0.1987
  441MOL0     C59422   7.916   7.281   8.225 -0.2878 -0.1164  0.6267
  441MOL0     C59423   8.066   7.278   8.162 -0.0013 -0.0744 -0.0169
  441MOL0     O59424   8.071   7.318   8.018  1.2830 -0.1145 -0.7503
  441MOL0     C59425   8.193   7.329   7.959  0.3103  0.5580  0.4158
  441MOL0     C59426   8.192   7.386   7.837  1.1265 -0.1450  0.2260
  441MOL0     C59427   8.308   7.411   7.759 -0.0707  0.0906 -0.0526
  441MOL0     C59428   8.291   7.489   7.631  0.0152 -0.5558 -0.1286
  441MOL0     C59429   8.425   7.357   7.804  0.0587  0.1493  1.0208
  441MOL0     C59430   8.554   7.378   7.736 -0.0219  1.0067 -0.0943
  441MOL0     O59431   8.642   7.279   7.773  0.0717  0.6347  0.2849
  441MOL0     C59432   8.774   7.312   7.752 -0.3456  0.4535 -0.0184
  441MOL0     C59433   8.857   7.232   7.671  0.3465 -0.4932  0.4688
  441MOL0     C59434   8.999   7.242   7.668 -0.2516 -0.4408 -0.2372
  441MOL0     C59435   9.055   7.353   7.734 -0.5754  0.3151 -0.1546
  441MOL0     O59436   9.188   7.393   7.726  0.6445  0.3501 -0.1815
  441MOL0     C59437   9.288   7.305   7.656 -0.5242 -0.0626  0.3521
  441MOL0     C59438   9.284   7.313   7.499  0.7644 -0.6008 -0.3445
  441MOL0     C59439   9.359   7.199   7.437 -0.0798 -0.1587 -0.3877
  441MOL0     C59440   9.511   7.215   7.434 -0.6968  0.2557  0.2933
  441MOL0     C59441   9.573   7.099   7.356  0.5921 -0.1661  0.4453
  441MOL0     C59442   9.722   7.110   7.348  0.3335  0.1487  0.8957
  441MOL0     C59443   9.767   7.184   7.222  0.5405 -0.5566 -0.4845
  441MOL0     C59444   9.757   7.103   7.094 -0.1503 -0.7769 -0.5961
  441MOL0    Cl59445   9.851   6.950   7.099 -0.2973  0.4651  0.0443
  441MOL0     C59446   8.973   7.431   7.816 -0.8679 -0.1025  0.7752
  441MOL0     C59447   8.840   7.411   7.825  0.5544  0.8823  0.0570
  441MOL0     O59448   8.586   7.479   7.664 -0.5115  0.3907 -0.3490
  441MOL0     C59449   8.429   7.286   7.925 -0.0939  0.3880  0.2757
  441MOL0     C59450   8.314   7.279   8.002  0.6478  0.6599 -0.6052
  441MOL0     N59451   7.800   7.406   8.492 -0.3580 -0.5503 -0.3504
  441MOL0     N59452   7.751   7.412   8.614  0.1270 -0.0967  0.5612
  441MOL0     C59453   7.898   8.143   8.565 -0.2235  0.1256  0.1193
  441MOL0     C59454   8.019   8.112   8.508 -0.1190  0.3869  0.3978
  441MOL0     C59455   8.485   7.988   8.513 -0.0572 -0.0100 -0.6369
  441MOL0     C59456   8.595   7.932   8.584  0.6423 -0.0425 -0.5163
  441MOL0     C59457   8.711   7.890   8.519  0.8441  0.5146  0.3311
  441MOL0     C59458   8.716   7.906   8.379  0.0733 -0.6436 -0.0537
  441MOL0     O59459   8.827   7.858   8.305  0.3675  0.0615  0.0160
  441MOL0     C59460   8.905   7.757   8.357  0.0206  1.2174 -0.0097
  441MOL0     C59461   8.966   7.655   8.252 -0.4340  0.0848  0.8235
  441MOL0     C59462   9.055   7.540   8.313  0.3554 -0.2013 -0.6256
  441MOL0     C59463   9.124   7.452   8.207  0.2059 -0.5150  1.0941
  441MOL0     C59464   9.189   7.330   8.250 -0.0248  0.5092 -0.0373
  441MOL0     C59465   9.220   7.222   8.295  0.2669  0.4764 -0.1453
  441MOL0     C59466   8.627   7.980   8.305 -0.2015 -0.4524  0.3359
  441MOL0     C59467   8.513   8.011   8.371 -1.0998 -0.2525 -0.5047
  441MOL0     H59468   8.155   7.999   8.811 -0.9083  2.1300  0.7257
  441MOL0     H59469   7.940   8.035   8.882  0.6798  0.5955  1.0347
  441MOL0     H59470   7.636   8.272   8.630  0.4057 -0.4830 -1.6687
  441MOL0     H59471   7.617   8.107   8.578  3.1384  1.0235 -1.5119
  441MOL0     H59472   7.475   8.230   8.807 -0.6877  1.6954 -0.3974
  441MOL0     H59473   7.404   8.204   8.648  1.5125 -0.5562 -2.4033
  441MOL0     H59474   7.352   8.032   8.832 -0.4507  0.5797 -0.3918
  441MOL0     H59475   7.373   7.975   8.680 -2.7924 -0.6268  1.5717
  441MOL0     H59476   7.598   7.903   8.715  0.5146  0.7124  0.3921
  441MOL0     H59477   7.591   7.989   8.877  1.7567  0.7192 -0.4651
  441MOL0     H59478   7.393   7.825   8.928 -2.2465  1.9531 -3.4585
  441MOL0     H59479   7.425   7.744   8.772  2.4793  0.8169 -1.0803
  441MOL0     H59480   7.640   7.756   8.986  1.6915 -2.8843  1.3419
  441MOL0     H59481   7.534   7.629   8.977  0.8723  1.6364  2.1502
  441MOL0     H59482   7.688   7.705   8.737  2.2824 -0.7912  1.4614
  441MOL0     H59483   7.723   7.569   8.838 -0.7583 -0.1395  1.9797
  441MOL0     H59484   7.451   7.563   8.681 -1.0623 -0.4153  1.3662
  441MOL0     H59485   7.526   7.456   8.785 -1.1897 -0.0701 -0.1252
  441MOL0     H59486   7.509   7.548   8.441  0.4977  0.6700  1.9779
  441MOL0     H59487   7.631   7.350   8.213  0.5237 -0.3479 -0.3324
  441MOL0     H59488   7.654   7.518   8.211 -1.1308 -2.0360 -1.1171
  441MOL0     H59489   7.904   7.494   8.226  0.7546 -0.5987 -2.6875
  441MOL0     H59490   7.847   7.427   8.086  1.1073 -3.7027 -0.6680
  441MOL0     H59491   7.852   7.201   8.186  0.1848 -0.5336  0.7035
  441MOL0     H59492   7.930   7.264   8.332 -0.4041 -0.6608  0.5550
  441MOL0     H59493   8.095   7.173   8.172 -1.0162 -0.3904 -0.3390
  441MOL0     H59494   8.125   7.349   8.220  0.0958 -0.5211  0.4407
  441MOL0     H59495   8.097   7.419   7.796  1.2938 -0.9813 -0.9027
  441MOL0     H59496   8.344   7.584   7.631 -1.2082  0.1383  0.0914
  441MOL0     H59497   8.329   7.429   7.548  1.5888 -3.2358  2.3057
  441MOL0     H59498   8.187   7.505   7.602 -0.5552 -4.2583 -0.6083
  441MOL0     H59499   8.804   7.156   7.614 -2.2077  0.2996  1.6543
  441MOL0     H59500   9.052   7.178   7.598 -1.6763  1.2324 -3.0168
  441MOL0     H59501   9.392   7.329   7.679  0.3640 -1.2649 -2.1046
  441MOL0     H59502   9.281   7.200   7.688  1.9915 -0.6593 -0.8259
  441MOL0     H59503   9.180   7.311   7.465  1.3651  1.5618 -2.5337
  441MOL0     H59504   9.326   7.410   7.472  2.4835 -1.0259  0.6756
  441MOL0     H59505   9.324   7.195   7.334 -1.1027  0.0250 -0.0525
  441MOL0     H59506   9.336   7.111   7.498  0.4576  0.1812  0.3268
  441MOL0     H59507   9.554   7.304   7.388  2.8752 -1.5658 -0.2465
  441MOL0     H59508   9.546   7.200   7.536 -0.0215  1.8969  0.3200
  441MOL0     H59509   9.522   7.085   7.260 -4.4428  0.1665  2.7669
  441MOL0     H59510   9.545   7.010   7.414  1.4658  0.5478  2.0398
  441MOL0     H59511   9.771   7.158   7.434  0.2957  1.2019  0.3447
  441MOL0     H59512   9.774   7.014   7.349 -0.1389 -0.1073  1.5432
  441MOL0     H59513   9.872   7.213   7.238 -0.3606  2.7490  0.3238
  441MOL0     H59514   9.702   7.271   7.208  0.6003 -0.8356 -2.9504
  441MOL0     H59515   9.780   7.174   7.014 -0.8020  1.7598  1.3108
  441MOL0     H59516   9.652   7.073   7.090 -1.4683  3.3076 -2.5639
  441MOL0     H59517   9.023   7.514   7.866 -0.1701 -1.3892  2.3160
  441MOL0     H59518   8.777   7.468   7.893 -1.1373 -0.8415  0.0239
  441MOL0     H59519   8.522   7.256   7.974  1.0490  0.3920 -1.7783
  441MOL0     H59520   8.333   7.227   8.096  2.5674  1.7593 -0.3174
  441MOL0     H59521   7.823   8.184   8.498 -2.0354 -2.0985  0.6644
  441MOL0     H59522   8.034   8.138   8.403 -0.3995  0.6354  0.4166
  441MOL0     H59523   8.598   7.902   8.688  0.2057  1.9300  0.1119
  441MOL0     H59524   8.787   7.837   8.574 -1.1871 -4.2594 -0.9369
  441MOL0     H59525   8.994   7.804   8.400  0.9151  0.2594 -0.7687
  441MOL0     H59526   8.859   7.703   8.440 -1.5955  1.4585 -0.7138
  441MOL0     H59527   9.033   7.717   8.192 -2.2864 -1.0050 -2.6291
  441MOL0     H59528   8.883   7.615   8.193  0.0427  0.2097  0.0569
  441MOL0     H59529   8.989   7.480   8.377 -0.5624  1.3115 -0.1155
  441MOL0     H59530   9.134   7.579   8.378  0.6054 -0.2246 -0.9114
  441MOL0     H59531   9.201   7.517   8.163  0.2127 -1.3119 -0.1185
  441MOL0     H59532   9.040   7.433   8.140  1.3820  0.2736 -0.7084
  441MOL0     H59533   9.254   7.123   8.320 -3.5843 -1.4690 -1.8437
  441MOL0     H59534   8.629   7.999   8.198  0.5065  4.3556  0.9876
  441MOL0     H59535   8.430   8.064   8.326 -0.9509 -0.5347 -1.1134
  442MOL0     O59536  10.478   5.801   6.143 -0.4048 -0.1990 -0.5708
  442MOL0     C59537  10.497   5.910   6.087  0.4871  0.3257 -0.6394
  442MOL0     O59538  10.570   5.930   5.979 -0.5677  0.0251  0.7920
  442MOL0     C59539  10.612   5.822   5.899  1.4978 -0.3927  0.0130
  442MOL0     C59540  10.593   5.844   5.763  0.7072 -0.6693 -0.2157
  442MOL0     C59541  10.622   5.739   5.679 -0.7613  0.4236 -1.1841
  442MOL0     C59542  10.673   5.616   5.725  0.2432 -0.5178 -0.3948
  442MOL0     O59543  10.697   5.523   5.635 -0.8993 -1.0791  0.9649
  442MOL0     C59544  10.602   5.419   5.609 -0.4417  1.3047  0.3376
  442MOL0     C59545  10.679   5.285   5.554 -0.4339  0.4782  0.2056
  442MOL0     C59546  10.761   5.220   5.660 -1.0970  0.7840 -0.2601
  442MOL0     C59547  10.911   5.239   5.658  1.1478 -0.6740  0.2284
  442MOL0     C59548  10.981   5.172   5.770  0.7401 -0.5692  0.0701
  442MOL0     C59549  10.987   5.015   5.755  0.2633  0.1518  0.1441
  442MOL0     C59550  11.084   4.939   5.849 -0.0402  0.6283 -1.0363
  442MOL0     C59551  11.043   4.792   5.859  0.1133  0.9011  0.1359
  442MOL0     N59552  10.914   4.774   5.928  0.4831  0.4563  0.1075
  442MOL0     C59553  10.873   4.830   6.051  0.1093 -0.0367 -0.3719
  442MOL0     C59554  10.743   4.847   6.039 -0.2801 -0.0923  0.5307
  442MOL0     C59555  10.644   4.899   6.131 -0.3480 -0.0099 -0.3200
  442MOL0     C59556  10.610   5.046   6.096 -0.1956  0.2171 -0.9179
  442MOL0     C59557  10.712   5.158   6.121  0.2143 -0.3232  0.0974
  442MOL0     C59558  10.663   5.303   6.166  0.7029  0.4625 -0.1807
  442MOL0     O59559  10.648   5.286   6.306  0.8638  0.1734  0.4639
  442MOL0     C59560  10.569   5.379   6.375  0.2631  0.7821 -0.0087
  442MOL0     C59561  10.535   5.351   6.506 -0.8163  0.2461 -0.3995
  442MOL0     C59562  10.456   5.446   6.576 -0.0465 -0.1009  0.1333
  442MOL0     C59563  10.415   5.406   6.715 -0.5404  0.7312 -0.2395
  442MOL0     C59564  10.437   5.577   6.529  0.4921  0.5573  0.6140
  442MOL0     C59565  10.368   5.696   6.597  0.5249  0.3814 -0.2124
  442MOL0     O59566  10.427   5.809   6.573 -0.0395 -0.1633 -0.2919
  442MOL0     C59567  10.370   5.923   6.625  0.2889 -0.1079  0.2912
  442MOL0     C59568  10.245   5.972   6.579  0.5939 -0.0384  0.1238
  442MOL0     C59569  10.187   6.088   6.631 -0.2220  0.0986 -1.1048
  442MOL0     C59570  10.260   6.169   6.722  0.2424  0.1608  0.4283
  442MOL0     O59571  10.212   6.282   6.772  0.1468  0.0599  0.5129
  442MOL0     C59572  10.085   6.336   6.737  1.0770  0.3368 -0.3399
  442MOL0     C59573  10.027   6.414   6.854  0.7687  0.0616  0.3131
  442MOL0     C59574   9.911   6.514   6.823 -0.5504 -0.7194 -0.0740
  442MOL0     C59575   9.968   6.633   6.737 -0.3714 -0.3857 -1.2287
  442MOL0     C59576   9.867   6.739   6.726  0.0452  0.0873  0.9849
  442MOL0     C59577   9.912   6.840   6.619 -0.0538 -0.8759 -0.6282
  442MOL0     C59578  10.042   6.921   6.647  0.3128  0.4904 -0.3664
  442MOL0     C59579  10.021   7.003   6.772  0.0280  0.4152  0.1979
  442MOL0    Cl59580   9.896   7.125   6.732  0.1034  0.2292 -0.0959
  442MOL0     C59581  10.395   6.124   6.762  0.1625  0.5204 -0.8281
  442MOL0     C59582  10.441   6.000   6.714 -0.2063 -0.2207  0.6253
  442MOL0     O59583  10.262   5.676   6.650 -0.5393 -0.0689 -0.1585
  442MOL0     C59584  10.477   5.605   6.395 -0.1703 -0.0751 -0.6905
  442MOL0     C59585  10.533   5.502   6.310  0.0289 -0.4960  0.8220
  442MOL0     N59586  10.701   4.792   5.922 -0.7039  0.4852  0.7113
  442MOL0     N59587  10.802   4.742   5.860 -0.1826  0.1943  0.2897
  442MOL0     C59588  10.698   5.596   5.863 -0.1531  0.0963 -1.2605
  442MOL0     C59589  10.667   5.705   5.950  0.3443  0.1432  0.4341
  442MOL0     C59590  10.421   6.032   6.151 -0.4861  0.6914 -0.3010
  442MOL0     C59591  10.303   6.018   6.207  1.1053  0.2136 -0.4491
  442MOL0     C59592  10.230   6.138   6.249  1.6791 -0.0495  0.0064
  442MOL0     C59593  10.282   6.268   6.237 -0.4632  0.2419 -0.6020
  442MOL0     O59594  10.215   6.387   6.263  0.6908  0.1003  0.0561
  442MOL0     C59595  10.076   6.391   6.313 -0.1647 -0.4534  0.0926
  442MOL0     C59596  10.040   6.527   6.331  1.0073 -0.6827  1.0338
  442MOL0     C59597   9.993   6.596   6.204  1.2456 -0.0972 -0.4010
  442MOL0     C59598   9.957   6.743   6.228  0.3364  0.3884  0.0384
  442MOL0     C59599   9.825   6.746   6.281  0.3104 -0.5646 -0.5317
  442MOL0     C59600   9.713   6.777   6.329 -0.5874 -0.0641  0.5460
  442MOL0     C59601  10.408   6.266   6.170  0.4938 -0.9797  0.3814
  442MOL0     C59602  10.474   6.154   6.125 -0.3964 -0.8173  0.1203
  442MOL0     H59603  10.537   5.932   5.734  0.5346 -0.2552  1.3287
  442MOL0     H59604  10.588   5.750   5.577 -0.6627  1.0114 -1.1573
  442MOL0     H59605  10.553   5.395   5.704 -0.3516 -0.7471 -0.0904
  442MOL0     H59606  10.524   5.452   5.540 -2.8123 -0.2909  2.1317
  442MOL0     H59607  10.605   5.207   5.534  1.1494 -0.7107 -1.2821
  442MOL0     H59608  10.737   5.305   5.463  2.5630  0.8061  2.0574
  442MOL0     H59609  10.721   5.242   5.759  2.3470  1.5037  1.1293
  442MOL0     H59610  10.741   5.113   5.654  0.2994  0.5294 -0.9240
  442MOL0     H59611  10.951   5.196   5.565  1.0876 -0.5352  0.1374
  442MOL0     H59612  10.939   5.345   5.664  0.5175 -0.5812  1.9273
  442MOL0     H59613  11.085   5.205   5.778  0.6261 -0.3731  0.8532
  442MOL0     H59614  10.938   5.193   5.869  4.4908 -2.1117  2.2376
  442MOL0     H59615  10.885   4.978   5.756 -0.1607  0.8721 -3.1555
  442MOL0     H59616  11.008   5.010   5.647 -2.7145  1.3155 -0.5845
  442MOL0     H59617  11.186   4.952   5.813  0.5929  1.3805  0.8931
  442MOL0     H59618  11.084   4.981   5.950  0.5584  0.5645 -1.0111
  442MOL0     H59619  11.127   4.736   5.902  0.1786  0.6701 -0.2840
  442MOL0     H59620  11.026   4.740   5.764 -1.7038  0.7242  0.5139
  442MOL0     H59621  10.929   4.867   6.137 -0.9707  1.3921 -0.2457
  442MOL0     H59622  10.548   4.845   6.122 -1.3983  1.8988 -1.0669
  442MOL0     H59623  10.668   4.880   6.236  0.5676 -1.9680 -0.8398
  442MOL0     H59624  10.529   5.065   6.168  0.5056 -2.3150  0.6795
  442MOL0     H59625  10.564   5.054   5.997  0.7750  0.0318 -1.3880
  442MOL0     H59626  10.761   5.181   6.026  3.9745  1.1844  2.1944
  442MOL0     H59627  10.793   5.129   6.189  0.4519 -0.8105 -0.3879
  442MOL0     H59628  10.565   5.321   6.121  0.6098  2.9742  0.8880
  442MOL0     H59629  10.726   5.387   6.137  0.1419  1.1377  0.4892
  442MOL0     H59630  10.549   5.251   6.546  1.6474  0.9265  0.6645
  442MOL0     H59631  10.327   5.341   6.710  0.9514 -1.4179  0.5191
  442MOL0     H59632  10.504   5.365   6.763  0.5559 -0.0363 -2.7433
  442MOL0     H59633  10.379   5.493   6.772 -2.3603 -1.1693  1.6923
  442MOL0     H59634  10.187   5.920   6.503  1.0561 -0.0299 -0.2371
  442MOL0     H59635  10.089   6.120   6.596 -1.0631 -1.8753 -0.7017
  442MOL0     H59636  10.096   6.403   6.652  0.3699 -2.0333 -2.3994
  442MOL0     H59637  10.010   6.259   6.718  1.6386  0.4327 -3.4026
  442MOL0     H59638   9.979   6.340   6.918 -3.0710  2.4747  0.5794
  442MOL0     H59639  10.113   6.471   6.890  1.7454 -0.0334 -1.7302
  442MOL0     H59640   9.861   6.544   6.916  0.3560  0.2277  0.1221
  442MOL0     H59641   9.839   6.462   6.759 -1.2092 -1.9597  1.5764
  442MOL0     H59642  10.056   6.662   6.795 -1.7751 -1.1462  1.4289
  442MOL0     H59643   9.993   6.598   6.637  0.8621 -1.8984 -0.4343
  442MOL0     H59644   9.852   6.787   6.823  1.7112  2.3413  0.2124
  442MOL0     H59645   9.767   6.715   6.688 -0.0419  2.6690 -0.6766
  442MOL0     H59646   9.929   6.798   6.520 -0.9842  1.7405 -2.0119
  442MOL0     H59647   9.824   6.905   6.613  0.6137  0.1283  0.1472
  442MOL0     H59648  10.062   6.981   6.558  2.6717 -0.9665 -0.9383
  442MOL0     H59649  10.127   6.852   6.644 -0.4902 -0.4941 -2.0538
  442MOL0     H59650  10.112   7.051   6.810  1.0054 -1.6184  0.5730
  442MOL0     H59651   9.979   6.947   6.856 -0.0225  0.7464  0.3993
  442MOL0     H59652  10.451   6.168   6.843  1.0323  2.3285 -2.3476
  442MOL0     H59653  10.534   5.961   6.754  1.8146  2.5735 -1.0081
  442MOL0     H59654  10.470   5.707   6.357 -0.4714 -0.2486 -1.1041
  442MOL0     H59655  10.550   5.529   6.206 -0.3291 -0.0598  0.8716
  442MOL0     H59656  10.734   5.504   5.908  1.4236  1.6836  0.8952
  442MOL0     H59657  10.685   5.704   6.058  0.5149 -1.9842  0.4230
  442MOL0     H59658  10.261   5.918   6.215  0.6161  0.4594  0.2428
  442MOL0     H59659  10.131   6.122   6.290  2.1263 -0.3906  0.9902
  442MOL0     H59660  10.007   6.347   6.240  1.9177  0.7802 -2.7954
  442MOL0     H59661  10.055   6.336   6.405 -1.1897  1.5313  1.0873
  442MOL0     H59662  10.133   6.576   6.361  1.0194 -0.3539  0.4851
  442MOL0     H59663   9.965   6.526   6.410  1.6932 -3.2125  1.7277
  442MOL0     H59664   9.906   6.543   6.164  0.8291  0.0368  0.2859
  442MOL0     H59665  10.060   6.584   6.119  2.4086 -1.2760  0.6282
  442MOL0     H59666   9.962   6.805   6.138  0.9919  0.8755  0.3947
  442MOL0     H59667  10.032   6.795   6.290 -0.3741 -0.2411  1.4779
  442MOL0     H59668   9.627   6.819   6.375  0.8938  0.4187  3.0627
  442MOL0     H59669  10.455   6.361   6.149  0.1930 -1.1303 -1.0506
  442MOL0     H59670  10.569   6.154   6.071 -0.9671 -1.1956 -0.9148
  443MOL0     O59671   3.132   0.880   2.197 -0.5212  0.1332 -0.1547
  443MOL0     C59672   3.085   0.892   2.307  0.2197  0.1786 -0.0088
  443MOL0     O59673   2.983   0.969   2.334 -0.0029  0.1150  0.4447
  443MOL0     C59674   2.914   1.020   2.225  0.1821  0.1387  1.0182
  443MOL0     C59675   2.876   0.943   2.110  0.5790  0.2702  0.9474
  443MOL0     C59676   2.794   0.999   2.010  0.0294  0.3937 -0.0246
  443MOL0     C59677   2.759   1.130   2.012 -0.1718  0.4467  1.0397
  443MOL0     O59678   2.691   1.189   1.910 -0.0582  0.7457 -0.1449
  443MOL0     C59679   2.581   1.276   1.948 -0.7557  0.2555 -0.8251
  443MOL0     C59680   2.488   1.302   1.824 -0.9489 -0.3149 -0.1294
  443MOL0     C59681   2.408   1.171   1.800  0.6982 -0.6585 -0.6390
  443MOL0     C59682   2.319   1.183   1.677  0.2337 -0.4561 -0.2254
  443MOL0     C59683   2.186   1.245   1.698 -0.2907 -0.1673 -0.7100
  443MOL0     C59684   2.121   1.339   1.586  0.4922 -0.5378  0.4021
  443MOL0     C59685   2.226   1.448   1.544  0.3621  0.2741  0.1605
  443MOL0     C59686   2.155   1.564   1.476  0.2348 -0.0442 -0.9739
  443MOL0     N59687   2.100   1.525   1.342  0.5258 -1.0083 -0.5103
  443MOL0     C59688   2.150   1.443   1.245  0.7376 -0.5556  0.5181
  443MOL0     C59689   2.050   1.444   1.153 -0.4388  0.4799  0.4890
  443MOL0     C59690   2.070   1.397   1.004 -0.4376 -0.8867 -0.8008
  443MOL0     C59691   1.945   1.412   0.914  0.4084 -0.2560  0.2003
  443MOL0     C59692   1.836   1.312   0.945 -0.5760 -0.1125 -0.2754
  443MOL0     C59693   1.705   1.350   0.885 -0.2887  0.1193 -0.6391
  443MOL0     O59694   1.670   1.253   0.781 -0.5038  0.1038 -0.0236
  443MOL0     C59695   1.550   1.278   0.717 -0.0592 -0.1624 -1.1388
  443MOL0     C59696   1.543   1.215   0.591 -0.0225  0.1667 -0.8472
  443MOL0     C59697   1.429   1.227   0.514 -0.3770 -0.0138 -0.2112
  443MOL0     C59698   1.439   1.168   0.374 -0.2430  0.2949 -0.1345
  443MOL0     C59699   1.326   1.310   0.560  1.5746  0.4204 -0.4186
  443MOL0     C59700   1.197   1.341   0.490  0.6287 -1.0652  0.1692
  443MOL0     O59701   1.128   1.450   0.532 -0.1483 -0.1440 -0.8245
  443MOL0     C59702   1.009   1.479   0.472 -0.1490  0.6493 -0.1108
  443MOL0     C59703   0.986   1.501   0.340 -0.3182  0.4260 -0.1500
  443MOL0     C59704   0.861   1.496   0.275  0.1277  0.5063 -0.4504
  443MOL0     C59705   0.745   1.465   0.348 -0.3290  0.5031 -0.5879
  443MOL0     O59706   0.624   1.452   0.292 -0.8035 -0.4293 -0.2781
  443MOL0     C59707   0.611   1.416   0.158 -0.0012  0.0989 -0.2635
  443MOL0     C59708   0.500   1.312   0.164  0.2583 -0.2502 -0.0031
  443MOL0     C59709   0.357   1.382   0.156  0.2074 -0.7170 -0.7296
  443MOL0     C59710   0.253   1.289   0.234 -0.3582 -0.5293  0.5703
  443MOL0     C59711   0.146   1.380   0.288 -0.3653 -0.3127 -0.0849
  443MOL0     C59712   0.068   1.472   0.189 -0.9178  0.5337 -0.2258
  443MOL0     C59713   0.014   1.392   0.068 -1.1869  0.3081 -0.0699
  443MOL0     C59714  -0.082   1.483  -0.011  0.2620  0.1672  0.0168
  443MOL0    Cl59715  -0.242   1.457   0.064 -0.2834  0.1635  0.5789
  443MOL0     C59716   0.770   1.438   0.491  0.1839 -0.2577  0.3622
  443MOL0     C59717   0.894   1.446   0.551  0.1366 -0.3865 -0.0122
  443MOL0     O59718   1.161   1.271   0.393 -0.4382 -0.1417 -0.1117
  443MOL0     C59719   1.341   1.379   0.683 -0.6352  0.0931 -0.1121
  443MOL0     C59720   1.454   1.367   0.764  0.3562  1.0190 -1.0197
  443MOL0     N59721   1.948   1.525   1.183  0.4276 -0.6680 -0.0891
  443MOL0     N59722   1.976   1.568   1.297  0.4133 -0.4983 -0.5540
  443MOL0     C59723   2.798   1.204   2.123 -0.0212  0.1527 -0.4050
  443MOL0     C59724   2.874   1.150   2.231  0.5836 -0.9104  0.4322
  443MOL0     C59725   3.146   0.832   2.430 -0.0474 -0.3040  0.1654
  443MOL0     C59726   3.097   0.862   2.558  0.7215 -0.9291 -0.3848
  443MOL0     C59727   3.141   0.800   2.675 -0.8342  0.8637  0.7428
  443MOL0     C59728   3.252   0.715   2.655  1.0729  0.2236 -0.4693
  443MOL0     O59729   3.316   0.670   2.767 -0.1621 -0.4610  0.9824
  443MOL0     C59730   3.229   0.618   2.867  1.3198 -0.7886 -0.0243
  443MOL0     C59731   3.311   0.504   2.934 -0.0840  0.3300  0.5533
  443MOL0     C59732   3.437   0.553   3.007  0.2655 -0.5675  0.1577
  443MOL0     C59733   3.567   0.516   2.935  0.2237 -0.7432 -0.0655
  443MOL0     C59734   3.675   0.618   2.953 -1.1708 -0.2480 -0.5474
  443MOL0     C59735   3.772   0.682   3.000  0.0770  0.0016 -0.5585
  443MOL0     C59736   3.305   0.691   2.527  0.1976 -0.3223 -0.3526
  443MOL0     C59737   3.256   0.748   2.410 -1.1313 -0.2004 -0.4109
  443MOL0     H59738   2.910   0.841   2.094  1.0768  0.5065  0.4306
  443MOL0     H59739   2.763   0.944   1.922  0.6080  2.4406 -1.5977
  443MOL0     H59740   2.524   1.228   2.029  1.6387 -2.0711 -0.3737
  443MOL0     H59741   2.625   1.370   1.981  1.7513 -1.3745  0.8853
  443MOL0     H59742   2.417   1.379   1.856  1.6890  0.9272  3.3371
  443MOL0     H59743   2.538   1.327   1.730  0.1580 -2.4957 -0.1908
  443MOL0     H59744   2.475   1.086   1.784  0.3735 -0.8185 -1.2066
  443MOL0     H59745   2.340   1.154   1.884 -2.4873  0.1748 -2.8267
  443MOL0     H59746   2.364   1.224   1.586 -1.3126  1.6698 -0.0952
  443MOL0     H59747   2.291   1.079   1.655 -0.0419 -1.1466  2.9623
  443MOL0     H59748   2.108   1.170   1.713 -0.4936  0.1650 -0.0417
  443MOL0     H59749   2.199   1.306   1.789  2.8241 -0.2527 -0.9674
  443MOL0     H59750   2.093   1.283   1.496 -5.5617  1.1771  0.7961
  443MOL0     H59751   2.034   1.391   1.627 -0.3062 -0.6202 -1.1069
  443MOL0     H59752   2.287   1.477   1.630  2.4980  0.7810 -1.4372
  443MOL0     H59753   2.303   1.410   1.477 -0.1701 -1.4120  0.4611
  443MOL0     H59754   2.225   1.647   1.463  0.3780  0.4736  2.3941
  443MOL0     H59755   2.080   1.604   1.544  2.0152  2.3441 -0.2872
  443MOL0     H59756   2.239   1.382   1.232  0.3396 -1.0096 -0.1137
  443MOL0     H59757   2.145   1.466   0.964  0.1701  0.3010  2.1126
  443MOL0     H59758   2.109   1.295   1.003 -2.7381 -1.8253 -0.2774
  443MOL0     H59759   1.976   1.395   0.810 -0.5243  1.1268 -0.3312
  443MOL0     H59760   1.924   1.519   0.912  0.6298 -0.2183 -1.1125
  443MOL0     H59761   1.828   1.290   1.052 -1.0986  1.6378  0.0743
  443MOL0     H59762   1.876   1.219   0.903  2.5162  1.2167 -0.4840
  443MOL0     H59763   1.722   1.451   0.846 -0.3821  1.0939  1.6990
  443MOL0     H59764   1.636   1.359   0.969 -0.2272  1.9908 -0.7441
  443MOL0     H59765   1.627   1.163   0.546 -0.6579  1.3035 -3.4995
  443MOL0     H59766   1.531   1.112   0.360 -0.2803  0.6423 -2.0456
  443MOL0     H59767   1.356   1.100   0.352  1.4637 -1.4640 -1.5403
  443MOL0     H59768   1.435   1.250   0.302  2.2173 -0.7268 -1.5357
  443MOL0     H59769   1.078   1.515   0.285 -1.1858  3.0516 -1.0775
  443MOL0     H59770   0.858   1.511   0.167  1.4628 -2.3569 -0.9913
  443MOL0     H59771   0.577   1.502   0.099 -0.0577  0.9425  0.9626
  443MOL0     H59772   0.704   1.367   0.126  0.1646 -1.2767  2.0975
  443MOL0     H59773   0.500   1.229   0.093  3.9447 -0.2238 -0.2047
  443MOL0     H59774   0.520   1.265   0.260  2.5114 -0.2452 -0.4165
  443MOL0     H59775   0.336   1.390   0.049 -1.1318 -3.1708 -0.7191
  443MOL0     H59776   0.350   1.480   0.204  1.7592 -0.6673 -0.5469
  443MOL0     H59777   0.195   1.220   0.171  0.5729  0.8800 -1.9582
  443MOL0     H59778   0.300   1.237   0.318 -0.9394 -0.8904  0.6785
  443MOL0     H59779   0.196   1.443   0.362 -1.2365  2.6115 -1.8329
  443MOL0     H59780   0.078   1.308   0.335 -3.0778 -0.6025 -3.9992
  443MOL0     H59781  -0.020   1.517   0.235 -1.2969  0.8197 -1.2097
  443MOL0     H59782   0.138   1.544   0.146 -0.8394  2.4340  2.7727
  443MOL0     H59783  -0.044   1.303   0.091  0.2475 -0.9105 -0.9766
  443MOL0     H59784   0.097   1.359   0.005 -0.8971 -1.5919  1.2337
  443MOL0     H59785  -0.073   1.455  -0.117 -2.0215 -0.9833  0.0588
  443MOL0     H59786  -0.061   1.588   0.009 -6.1709  2.1787 -1.2723
  443MOL0     H59787   0.681   1.410   0.548 -0.2059  0.8781  0.3465
  443MOL0     H59788   0.904   1.439   0.659 -2.6015  2.7967  0.6379
  443MOL0     H59789   1.278   1.462   0.713 -0.2968  0.3946 -0.2225
  443MOL0     H59790   1.466   1.421   0.857  1.1444 -1.1611  0.2380
  443MOL0     H59791   2.777   1.311   2.127 -1.2378 -0.0816 -0.0954
  443MOL0     H59792   2.892   1.221   2.311  0.0596  0.9175 -0.9979
  443MOL0     H59793   3.022   0.940   2.561  2.5146  0.8946 -0.2078
  443MOL0     H59794   3.098   0.821   2.772 -1.6919  0.8021  0.3824
  443MOL0     H59795   3.190   0.687   2.942  0.4604  2.6040 -3.3051
  443MOL0     H59796   3.141   0.568   2.825  3.5237 -4.3143 -0.9578
  443MOL0     H59797   3.337   0.431   2.857 -1.8358  0.3393 -0.0840
  443MOL0     H59798   3.245   0.460   3.010 -1.3134  1.2309  0.0221
  443MOL0     H59799   3.424   0.503   3.104 -0.8418 -3.0704 -1.1821
  443MOL0     H59800   3.434   0.661   3.021  0.8675 -0.8219  2.8204
  443MOL0     H59801   3.557   0.493   2.829 -4.3451 -0.3726  0.0814
  443MOL0     H59802   3.598   0.422   2.982  1.2415  0.1761  1.1402
  443MOL0     H59803   3.846   0.740   3.051 -0.9744 -1.4429  2.8933
  443MOL0     H59804   3.400   0.638   2.522  0.2581 -0.3375  0.8367
  443MOL0     H59805   3.309   0.738   2.316 -1.0231 -1.6316 -0.2250
  444MOL0     O59806   1.324   2.401   0.869  0.1699 -0.1083  0.0087
  444MOL0     C59807   1.396   2.461   0.788 -0.1134  0.2747  0.7382
  444MOL0     O59808   1.381   2.574   0.714 -0.4551 -1.1652 -0.5501
  444MOL0     C59809   1.256   2.644   0.713 -0.6428 -0.5594  0.1199
  444MOL0     C59810   1.216   2.716   0.598  0.0174  1.1500 -0.4920
  444MOL0     C59811   1.092   2.779   0.582 -0.2880 -0.2782 -0.0959
  444MOL0     C59812   1.006   2.797   0.687  0.2028 -0.7823 -0.3695
  444MOL0     O59813   0.889   2.870   0.669 -0.5642 -0.4240 -0.5355
  444MOL0     C59814   0.826   2.926   0.788 -0.1888  0.6810 -0.0491
  444MOL0     C59815   0.695   2.997   0.744 -0.6236 -0.6364 -0.3879
  444MOL0     C59816   0.602   2.889   0.702 -0.0463 -0.3329  0.7341
  444MOL0     C59817   0.466   2.971   0.690 -0.5877 -0.3317  0.1916
  444MOL0     C59818   0.361   2.878   0.627 -0.4396  0.6921 -0.0465
  444MOL0     C59819   0.234   2.962   0.598  0.7728  1.2963  0.0388
  444MOL0     C59820   0.149   2.871   0.504 -0.3509  0.6837  0.1491
  444MOL0     C59821   0.025   2.943   0.442  0.5945  0.5307 -0.0350
  444MOL0     N59822  -0.077   2.973   0.549  0.3240  0.6783  0.3670
  444MOL0     C59823  -0.079   3.081   0.629 -0.3091 -0.4102  0.7917
  444MOL0     C59824  -0.176   3.062   0.721 -0.4466  0.5511 -0.4551
  444MOL0     C59825  -0.207   3.152   0.840  0.4385  0.4677  0.2044
  444MOL0     C59826  -0.199   3.313   0.820 -0.2322 -0.0237 -0.0426
  444MOL0     C59827  -0.299   3.352   0.712  0.1945  0.7061 -0.3216
  444MOL0     C59828  -0.443   3.330   0.749  0.5286 -0.0957 -0.4528
  444MOL0     O59829  -0.512   3.253   0.637  0.2793 -0.5529 -0.1442
  444MOL0     C59830  -0.620   3.181   0.675  0.1266  0.5463  0.5951
  444MOL0     C59831  -0.642   3.053   0.616  0.8940 -0.4731  0.5766
  444MOL0     C59832  -0.762   2.983   0.627 -0.3824 -0.2524  0.1876
  444MOL0     C59833  -0.765   2.849   0.554 -0.0615 -0.3273  0.1130
  444MOL0     C59834  -0.866   3.035   0.707  0.5658  0.8834 -0.8518
  444MOL0     C59835  -0.997   2.975   0.747  1.2673  0.2020  0.0223
  444MOL0     O59836  -1.101   3.058   0.746  0.7314  0.3167 -0.1490
  444MOL0     C59837  -1.225   3.005   0.752 -0.3400 -0.7031  0.0231
  444MOL0     C59838  -1.295   3.007   0.874  0.0930  0.3178  0.1651
  444MOL0     C59839  -1.430   2.960   0.869 -0.1093 -0.4260 -0.4733
  444MOL0     C59840  -1.507   2.927   0.758  0.2410 -0.5919  0.2492
  444MOL0     O59841  -1.633   2.868   0.762  0.2330  0.0276  0.0171
  444MOL0     C59842  -1.633   2.734   0.708 -0.8793  0.4386 -0.1455
  444MOL0     C59843  -1.770   2.668   0.722 -0.3190  0.7596 -0.2340
  444MOL0     C59844  -1.783   2.522   0.699  0.8235 -0.0117  1.3599
  444MOL0     C59845  -1.928   2.476   0.687 -0.6773 -0.8300 -0.1543
  444MOL0     C59846  -2.001   2.413   0.810  0.8511 -0.2758 -0.6494
  444MOL0     C59847  -2.041   2.528   0.903 -0.6947  0.0009 -0.9319
  444MOL0     C59848  -2.188   2.515   0.956 -0.5608  1.0015 -0.5998
  444MOL0     C59849  -2.306   2.531   0.858 -0.4894 -0.5060 -0.1150
  444MOL0    Cl59850  -2.274   2.668   0.760  0.6013 -0.0104 -0.1087
  444MOL0     C59851  -1.434   2.956   0.644 -0.1271 -0.1539  0.8616
  444MOL0     C59852  -1.299   2.992   0.637  0.8987 -0.7221  0.5868
  444MOL0     O59853  -1.001   2.857   0.778  0.4437  0.2281 -0.3724
  444MOL0     C59854  -0.853   3.167   0.757 -0.1704  0.1534 -1.2212
  444MOL0     C59855  -0.727   3.226   0.761  0.9480 -0.2452 -0.4751
  444MOL0     N59856  -0.238   2.942   0.682  0.5397 -0.1356 -0.1364
  444MOL0     N59857  -0.174   2.888   0.583 -0.6172  0.4140  0.3682
  444MOL0     C59858   1.048   2.734   0.805  0.2052 -0.1638 -0.1205
  444MOL0     C59859   1.163   2.651   0.813 -0.5280 -0.1904  0.0543
  444MOL0     C59860   1.540   2.426   0.804 -0.0809  0.2655 -0.7549
  444MOL0     C59861   1.578   2.314   0.882  0.6715  0.6658  0.2161
  444MOL0     C59862   1.713   2.268   0.887  0.3820  0.2620 -0.3881
  444MOL0     C59863   1.810   2.335   0.819  0.1631  0.0314 -0.3862
  444MOL0     O59864   1.940   2.301   0.830  0.4175  0.4518  0.4496
  444MOL0     C59865   1.968   2.189   0.741 -0.3380  0.2035 -0.1528
  444MOL0     C59866   1.997   2.235   0.602 -0.1064 -0.4789 -0.9141
  444MOL0     C59867   2.111   2.342   0.604  0.7976  0.5440 -0.3237
  444MOL0     C59868   2.170   2.354   0.470 -0.4799  0.1154 -0.0704
  444MOL0     C59869   2.307   2.415   0.467  0.0921  0.3379 -0.1890
  444MOL0     C59870   2.424   2.455   0.458  0.8060 -0.0621 -0.1825
  444MOL0     C59871   1.777   2.444   0.745  0.1630  0.6521 -0.6573
  444MOL0     C59872   1.649   2.501   0.748 -0.1835  1.0795  0.3526
  444MOL0     H59873   1.282   2.708   0.512  1.7368 -0.8331  0.9264
  444MOL0     H59874   1.062   2.827   0.489 -2.5077  2.9784  2.0765
  444MOL0     H59875   0.797   2.842   0.851  2.9800 -0.0071  0.6432
  444MOL0     H59876   0.892   2.991   0.847 -1.5641 -0.0412  2.4298
  444MOL0     H59877   0.665   3.067   0.823  3.1326  1.0414 -0.2090
  444MOL0     H59878   0.719   3.069   0.665 -4.6158  0.8329 -0.4977
  444MOL0     H59879   0.635   2.857   0.603 -3.5004 -1.0715 -0.3454
  444MOL0     H59880   0.591   2.800   0.766 -2.8334 -0.4783  0.1728
  444MOL0     H59881   0.421   3.002   0.784  1.5876 -0.8749  1.4901
  444MOL0     H59882   0.469   3.068   0.640 -0.7195  0.1813  1.1751
  444MOL0     H59883   0.414   2.839   0.540 -0.2649  0.6480  0.0785
  444MOL0     H59884   0.360   2.788   0.689 -3.5743 -0.2539 -1.2906
  444MOL0     H59885   0.187   2.982   0.695  2.5795 -1.3043  1.5912
  444MOL0     H59886   0.268   3.054   0.551 -1.9623  2.1087 -0.5355
  444MOL0     H59887   0.215   2.829   0.428 -1.0791  2.7222 -1.7212
  444MOL0     H59888   0.120   2.780   0.559  0.0645 -1.0836 -2.3838
  444MOL0     H59889  -0.022   2.864   0.383  0.3468  1.9882 -1.8808
  444MOL0     H59890   0.046   3.031   0.380 -0.3145  0.4263 -0.5124
  444MOL0     H59891  -0.014   3.167   0.617  0.8426 -1.3536  0.0277
  444MOL0     H59892  -0.305   3.132   0.885  0.4797  0.4097  0.2668
  444MOL0     H59893  -0.124   3.120   0.904 -0.6843 -2.9643  0.1566
  444MOL0     H59894  -0.099   3.340   0.785  0.3575 -1.3133  0.5694
  444MOL0     H59895  -0.214   3.376   0.908 -2.4752  1.4658 -1.3958
  444MOL0     H59896  -0.269   3.310   0.616 -0.1927  0.6162 -0.4043
  444MOL0     H59897  -0.278   3.459   0.700  0.3121  0.9115  1.3985
  444MOL0     H59898  -0.481   3.431   0.771  1.2543 -0.2596  1.8505
  444MOL0     H59899  -0.462   3.275   0.842  0.0073 -0.3590 -0.7079
  444MOL0     H59900  -0.562   3.019   0.551  2.2215 -0.8853  2.3234
  444MOL0     H59901  -0.690   2.817   0.481 -1.9261 -1.7660 -1.3031
  444MOL0     H59902  -0.766   2.777   0.637  0.8747  0.9583  1.2886
  444MOL0     H59903  -0.857   2.855   0.495 -0.5893 -1.1235  0.8276
  444MOL0     H59904  -1.239   3.024   0.966  1.4721  0.5992 -0.6884
  444MOL0     H59905  -1.476   2.928   0.962 -0.1947 -1.7598 -0.9469
  444MOL0     H59906  -1.588   2.732   0.609 -1.2731 -1.6164 -0.3298
  444MOL0     H59907  -1.555   2.694   0.773  2.4578  4.1221 -1.4843
  444MOL0     H59908  -1.812   2.675   0.823 -2.3675 -4.3979 -0.4290
  444MOL0     H59909  -1.844   2.715   0.656 -1.2691  3.0220  2.2358
  444MOL0     H59910  -1.729   2.469   0.778  2.1078 -1.8250 -0.6669
  444MOL0     H59911  -1.727   2.500   0.608 -0.3602  0.9129  0.3739
  444MOL0     H59912  -1.991   2.550   0.637 -0.8509 -2.5792 -2.7966
  444MOL0     H59913  -1.921   2.396   0.612  0.4345 -0.0340 -0.9170
  444MOL0     H59914  -1.939   2.339   0.862 -1.4568 -0.9356  1.3199
  444MOL0     H59915  -2.089   2.362   0.773 -0.3243  1.7580 -0.8081
  444MOL0     H59916  -1.960   2.544   0.975 -0.4078  1.4941 -1.5421
  444MOL0     H59917  -2.040   2.621   0.846 -0.6248 -2.2472 -4.9199
  444MOL0     H59918  -2.196   2.591   1.035 -0.3420  2.1090 -1.6141
  444MOL0     H59919  -2.197   2.415   0.998 -1.8192  0.8738 -1.1444
  444MOL0     H59920  -2.402   2.542   0.909 -1.0423 -0.5223 -1.1121
  444MOL0     H59921  -2.311   2.441   0.796  0.9423  0.8423 -2.3420
  444MOL0     H59922  -1.481   2.943   0.547 -0.7263 -2.7579  1.4166
  444MOL0     H59923  -1.251   3.002   0.541  0.0332 -2.0477 -0.0111
  444MOL0     H59924  -0.920   3.217   0.827  1.6587 -0.2233  0.8992
  444MOL0     H59925  -0.718   3.315   0.823 -0.6765 -0.6989  0.4786
  444MOL0     H59926   0.979   2.728   0.888 -2.8814  3.0678 -2.1613
  444MOL0     H59927   1.186   2.614   0.912  1.3116 -0.8103 -0.5560
  444MOL0     H59928   1.500   2.256   0.931  2.2078 -3.5365 -1.7942
  444MOL0     H59929   1.741   2.179   0.942 -1.7591 -1.3772 -1.8059
  444MOL0     H59930   2.059   2.144   0.781  0.2729  3.1107  2.1114
  444MOL0     H59931   1.885   2.119   0.733  0.0366 -0.5412  1.8863
  444MOL0     H59932   1.909   2.277   0.552 -0.1725 -0.5557 -0.8637
  444MOL0     H59933   2.022   2.147   0.541 -2.5853 -4.0045  2.6607
  444MOL0     H59934   2.193   2.307   0.668  0.3895 -0.7361 -0.4830
  444MOL0     H59935   2.084   2.437   0.651  0.9136  0.4407 -0.0442
  444MOL0     H59936   2.104   2.421   0.415 -1.2769 -0.7056 -0.1360
  444MOL0     H59937   2.184   2.263   0.411  2.1390  1.0880 -1.1364
  444MOL0     H59938   2.516   2.506   0.439 -0.6507  1.9417 -2.4446
  444MOL0     H59939   1.845   2.475   0.667 -0.1548 -0.1031 -1.2436
  444MOL0     H59940   1.629   2.587   0.685 -1.2899  1.0171  0.5871
  445MOL0     O59941   3.670   4.593   8.829 -0.0227 -0.2202 -0.2588
  445MOL0     C59942   3.663   4.504   8.745 -0.8492 -0.1977 -0.7071
  445MOL0     O59943   3.769   4.416   8.717 -0.1095  0.3291 -0.2665
  445MOL0     C59944   3.880   4.421   8.786  0.5168  0.2054  0.0723
  445MOL0     C59945   3.959   4.529   8.801  0.2142 -0.5997  1.0472
  445MOL0     C59946   4.080   4.531   8.876 -0.3680  0.6814 -0.3400
  445MOL0     C59947   4.113   4.427   8.956 -1.0608 -0.2440 -0.4065
  445MOL0     O59948   4.215   4.411   9.045 -0.3717 -0.1593  0.0695
  445MOL0     C59949   4.317   4.514   9.048  0.3481  0.6221  0.3061
  445MOL0     C59950   4.267   4.638   9.129  0.1177 -0.2391 -0.7422
  445MOL0     C59951   4.371   4.745   9.155 -0.2421  0.3792 -0.2152
  445MOL0     C59952   4.472   4.686   9.261  0.6762  0.3942  0.1645
  445MOL0     C59953   4.583   4.783   9.294 -0.7387 -0.4597  0.0849
  445MOL0     C59954   4.693   4.707   9.366  0.0109  0.8584  0.1150
  445MOL0     C59955   4.796   4.805   9.424 -0.0999 -0.5980  1.1836
  445MOL0     C59956   4.880   4.734   9.530 -0.6187  0.5094  0.2542
  445MOL0     N59957   4.791   4.717   9.654  0.0190  0.9149  0.0528
  445MOL0     C59958   4.724   4.602   9.692 -0.8324  0.4054 -0.4574
  445MOL0     C59959   4.673   4.628   9.814 -0.3183  0.6023 -0.1629
  445MOL0     C59960   4.583   4.531   9.892 -0.7824 -0.8902  0.0832
  445MOL0     C59961   4.456   4.521   9.796  0.2518 -0.5606 -0.0913
  445MOL0     C59962   4.367   4.652   9.809 -0.7932  0.1417  0.0934
  445MOL0     C59963   4.234   4.621   9.748 -1.2075  0.1047 -0.4014
  445MOL0     O59964   4.262   4.567   9.618 -0.7606 -0.1896  0.0058
  445MOL0     C59965   4.172   4.481   9.562 -0.6572 -0.5359  0.8166
  445MOL0     C59966   4.034   4.476   9.597  0.7426  0.6893 -0.6340
  445MOL0     C59967   3.953   4.376   9.536  0.1233 -0.0155 -0.0262
  445MOL0     C59968   3.819   4.366   9.589  0.7144  0.1614  0.1619
  445MOL0     C59969   4.000   4.295   9.435 -0.5016  0.1754  0.9158
  445MOL0     C59970   3.929   4.182   9.361 -0.2128 -0.0045  0.4250
  445MOL0     O59971   3.999   4.130   9.262  0.5343  0.7096  0.8363
  445MOL0     C59972   3.946   4.020   9.197 -0.2694  0.8049  0.7864
  445MOL0     C59973   3.831   4.019   9.121  0.5750 -0.5095 -0.0550
  445MOL0     C59974   3.773   3.900   9.071  0.6491  0.1509  0.1315
  445MOL0     C59975   3.841   3.776   9.081  0.2331 -0.2535 -0.4175
  445MOL0     O59976   3.785   3.669   9.025 -0.3753  0.3388  0.6769
  445MOL0     C59977   3.839   3.538   9.039  0.3326  0.2797 -0.1860
  445MOL0     C59978   3.744   3.447   8.948 -0.4730  0.0635 -1.2142
  445MOL0     C59979   3.720   3.305   9.008  0.0202  0.3555  0.2428
  445MOL0     C59980   3.629   3.206   8.928  0.2183  0.3043 -1.2980
  445MOL0     C59981   3.647   3.077   9.013  0.0181  0.0549 -0.1723
  445MOL0     C59982   3.552   2.962   8.967  0.2037 -0.6209  0.7672
  445MOL0     C59983   3.402   3.012   8.967  0.2809 -0.4103  0.7803
  445MOL0     C59984   3.292   2.918   8.953  0.3464  0.7007  0.1843
  445MOL0    Cl59985   3.301   2.818   8.805 -0.1843  0.7176  0.4187
  445MOL0     C59986   3.953   3.775   9.167 -0.0318 -0.0669  1.0315
  445MOL0     C59987   4.012   3.899   9.212 -0.6318 -0.2402  0.1091
  445MOL0     O59988   3.821   4.149   9.396  0.4172 -0.4190 -0.4806
  445MOL0     C59989   4.133   4.324   9.392  0.1145 -0.4021  0.2719
  445MOL0     C59990   4.216   4.415   9.455 -0.0089 -0.2484 -0.5038
  445MOL0     N59991   4.714   4.749   9.847 -0.2581  0.5456 -0.5216
  445MOL0     N59992   4.794   4.795   9.758  0.0168  0.4161  0.0964
  445MOL0     C59993   4.028   4.323   8.962  0.3187 -0.2904  0.1107
  445MOL0     C59994   3.915   4.314   8.877 -0.0972 -0.7297  0.1065
  445MOL0     C59995   3.550   4.489   8.669 -0.8028 -0.4008 -0.0332
  445MOL0     C59996   3.455   4.591   8.663 -1.3641 -0.7814 -0.1346
  445MOL0     C59997   3.334   4.574   8.585  0.5593  0.7333  0.4063
  445MOL0     C59998   3.309   4.452   8.522  0.3120  0.0745 -1.4147
  445MOL0     O59999   3.196   4.446   8.448 -0.3253 -0.1107 -0.5667
  445MOL0     C60000   3.109   4.333   8.455 -0.3554 -0.2106  0.5002
  445MOL0     C60001   2.972   4.372   8.394 -0.4608  0.4301 -0.9577
  445MOL0     C60002   2.884   4.247   8.399 -0.4282  0.1861 -0.0438
  445MOL0     C60003   2.748   4.289   8.333  0.8844  0.1297  0.3763
  445MOL0     C60004   2.647   4.182   8.349  0.4358 -0.3751 -0.0201
  445MOL0     C60005   2.568   4.095   8.373  0.2942  0.0300 -0.0277
  445MOL0     C60006   3.410   4.350   8.529 -0.4385  0.7347  0.7890
  445MOL0     C60007   3.524   4.365   8.609 -0.5534  0.3831 -0.1093
  445MOL0     H60008   3.939   4.621   8.747 -1.0168 -0.1871  2.1527
  445MOL0     H60009   4.148   4.612   8.856  0.8483  0.1821  1.5283
  445MOL0     H60010   4.405   4.468   9.095  0.1011 -1.7229 -1.3924
  445MOL0     H60011   4.349   4.540   8.947  0.2018  1.7064  0.5236
  445MOL0     H60012   4.185   4.690   9.079 -2.2753  1.3991  4.2486
  445MOL0     H60013   4.227   4.609   9.227 -2.6088  0.2185 -1.6623
  445MOL0     H60014   4.415   4.769   9.058 -0.4017 -0.6077 -0.5415
  445MOL0     H60015   4.325   4.836   9.194  1.4250  0.8820  0.7213
  445MOL0     H60016   4.409   4.659   9.346 -2.5683  0.7730 -1.9304
  445MOL0     H60017   4.512   4.592   9.221 -2.1496  0.1432 -2.4645
  445MOL0     H60018   4.621   4.827   9.201 -1.1078  1.8780  0.9652
  445MOL0     H60019   4.544   4.864   9.356  0.7130  0.6865 -0.4113
  445MOL0     H60020   4.649   4.649   9.448 -1.5929  1.3499 -0.3444
  445MOL0     H60021   4.743   4.639   9.297  1.1076 -0.3538  2.0489
  445MOL0     H60022   4.855   4.839   9.338  1.2161 -0.9257  1.9300
  445MOL0     H60023   4.756   4.899   9.461 -0.7326 -0.8030  1.0356
  445MOL0     H60024   4.971   4.793   9.547 -0.5734  1.0735 -1.6976
  445MOL0     H60025   4.920   4.639   9.494  2.1228  2.0698 -1.1000
  445MOL0     H60026   4.716   4.513   9.630 -2.2777 -0.7546  1.3007
  445MOL0     H60027   4.626   4.431   9.891 -2.3412 -1.5784 -0.3441
  445MOL0     H60028   4.560   4.579   9.988  2.6850  1.0232  0.1264
  445MOL0     H60029   4.408   4.439   9.851  2.9627 -1.3715  1.2621
  445MOL0     H60030   4.491   4.504   9.694  2.9541  1.1772  0.4528
  445MOL0     H60031   4.419   4.732   9.756  2.2509 -1.2350  0.7552
  445MOL0     H60032   4.364   4.673   9.916  0.3439  3.7402 -0.4622
  445MOL0     H60033   4.169   4.709   9.750 -0.3074  0.8025 -1.1188
  445MOL0     H60034   4.196   4.536   9.805 -0.6053 -2.0197 -2.9828
  445MOL0     H60035   3.989   4.546   9.666  2.0007 -0.9536  2.0068
  445MOL0     H60036   3.735   4.397   9.526  0.8440  1.4825  0.6039
  445MOL0     H60037   3.794   4.263   9.613  2.2380 -1.0327 -2.8200
  445MOL0     H60038   3.807   4.430   9.677  0.3546 -0.1614  0.3481
  445MOL0     H60039   3.765   4.105   9.113  1.1932 -0.0440 -0.2022
  445MOL0     H60040   3.686   3.891   9.007 -0.8635  1.3635  1.9077
  445MOL0     H60041   3.938   3.532   8.992  0.3734  4.8457 -1.1780
  445MOL0     H60042   3.849   3.504   9.142 -2.3966 -1.1859 -0.3014
  445MOL0     H60043   3.647   3.497   8.945 -0.4443  0.3667  1.0966
  445MOL0     H60044   3.787   3.444   8.848 -0.1310  0.4967 -1.0874
  445MOL0     H60045   3.688   3.315   9.112 -0.9491  2.2488 -0.1934
  445MOL0     H60046   3.822   3.265   9.009  1.5936  3.9512 -0.2956
  445MOL0     H60047   3.528   3.249   8.924  0.0283  0.4336  2.0433
  445MOL0     H60048   3.671   3.183   8.829 -0.9917 -1.8329 -1.3731
  445MOL0     H60049   3.627   3.087   9.120 -1.8879 -0.6393 -0.4345
  445MOL0     H60050   3.746   3.032   8.998 -0.3164 -0.8296  0.2585
  445MOL0     H60051   3.583   2.936   8.865  1.4889 -0.9242  1.2135
  445MOL0     H60052   3.564   2.880   9.039 -2.1517 -0.4505  1.4308
  445MOL0     H60053   3.386   3.077   8.880  3.0123  1.5886  1.6262
  445MOL0     H60054   3.367   3.062   9.057 -3.8728 -2.7205  0.7331
  445MOL0     H60055   3.200   2.977   8.954  0.8039  1.6418 -2.6262
  445MOL0     H60056   3.285   2.852   9.039 -0.3732 -1.0734 -1.1684
  445MOL0     H60057   4.004   3.679   9.173  0.3445  0.0126 -0.3888
  445MOL0     H60058   4.099   3.902   9.277 -0.0822 -3.2238 -0.3158
  445MOL0     H60059   4.167   4.265   9.308  1.9403  1.8702 -0.6910
  445MOL0     H60060   4.319   4.433   9.425 -0.6008  0.8639 -1.9339
  445MOL0     H60061   4.040   4.255   9.045  3.1421  1.8787  1.6507
  445MOL0     H60062   3.841   4.235   8.887  1.7059 -2.5258  0.0833
  445MOL0     H60063   3.465   4.695   8.693 -2.5598 -0.5723 -0.4361
  445MOL0     H60064   3.271   4.662   8.585  1.0089  1.0601  0.6522
  445MOL0     H60065   3.142   4.252   8.390 -0.8773  0.2516 -0.3685
  445MOL0     H60066   3.099   4.298   8.558  1.2024 -0.6877  0.5121
  445MOL0     H60067   2.986   4.418   8.296 -1.5594  3.0106  0.0142
  445MOL0     H60068   2.930   4.450   8.459 -3.6519 -2.6575  1.0503
  445MOL0     H60069   2.875   4.213   8.503  1.6852  2.7532  1.0672
  445MOL0     H60070   2.923   4.162   8.343  1.6862 -1.1089  3.0898
  445MOL0     H60071   2.772   4.299   8.227 -2.3301 -0.7114 -0.5392
  445MOL0     H60072   2.698   4.383   8.361 -1.8115 -0.9214 -0.6029
  445MOL0     H60073   2.499   4.027   8.419 -0.3498  3.2124  4.4043
  445MOL0     H60074   3.398   4.255   8.477  2.8796  1.0616 -0.8298
  445MOL0     H60075   3.592   4.281   8.604 -0.4781  0.2173  2.2222
  446MOL0     O60076   2.402   2.132  11.111 -0.8138 -0.2193 -0.5447
  446MOL0     C60077   2.489   2.109  11.196  0.2147 -0.8746  0.5060
  446MOL0     O60078   2.466   2.073  11.320  0.5581  0.8603 -0.4221
  446MOL0     C60079   2.337   2.041  11.360 -0.2744 -0.6898 -0.5903
  446MOL0     C60080   2.276   2.101  11.469 -0.0355  0.2773 -0.1770
  446MOL0     C60081   2.141   2.079  11.516  0.0846  0.5828 -0.1069
  446MOL0     C60082   2.052   1.995  11.436 -0.8679 -0.0139 -0.3324
  446MOL0     O60083   1.918   1.974  11.472  0.8484 -0.4235  0.2227
  446MOL0     C60084   1.853   2.043  11.579  0.8602  0.2993  0.3371
  446MOL0     C60085   1.702   2.032  11.551  0.2783 -0.4255 -0.0241
  446MOL0     C60086   1.614   2.096  11.659  0.2398 -0.4674 -0.0785
  446MOL0     C60087   1.463   2.080  11.625 -0.1512 -0.7102 -0.4012
  446MOL0     C60088   1.363   2.167  11.704  0.5190 -0.0347 -0.3991
  446MOL0     C60089   1.389   2.174  11.858  0.8434 -0.3372 -0.0363
  446MOL0     C60090   1.368   2.043  11.922 -0.2345  0.6396  0.0062
  446MOL0     C60091   1.435   2.035  12.057  0.0717  0.3710  0.2752
  446MOL0     N60092   1.390   1.913  12.123 -0.0465  0.3482  0.1394
  446MOL0     C60093   1.294   1.904  12.227  0.2906 -1.2046 -0.0857
  446MOL0     C60094   1.283   1.778  12.251  0.2739 -0.1279  0.2283
  446MOL0     C60095   1.203   1.702  12.356  0.6691  0.0867  0.3784
  446MOL0     C60096   1.076   1.647  12.291  0.1422 -0.2754  0.0932
  446MOL0     C60097   0.967   1.601  12.393  0.5024  0.8939  0.3967
  446MOL0     C60098   1.017   1.470  12.456 -0.5387  0.2028 -0.7503
  446MOL0     O60099   1.056   1.373  12.360 -0.6547 -0.2028 -0.1749
  446MOL0     C60100   0.968   1.295  12.288  0.8634  0.8347 -0.3316
  446MOL0     C60101   1.008   1.222  12.179  0.3437  0.5560  0.0781
  446MOL0     C60102   0.924   1.148  12.090 -0.3894 -0.7283  0.2089
  446MOL0     C60103   0.984   1.068  11.974 -0.0519  0.1484  0.3664
  446MOL0     C60104   0.792   1.147  12.127 -0.4398 -0.1444  0.7171
  446MOL0     C60105   0.686   1.057  12.068 -0.2672 -1.0389 -0.6944
  446MOL0     O60106   0.566   1.054  12.132 -0.9280  0.3936 -0.4548
  446MOL0     C60107   0.492   0.946  12.120  0.0850  0.1346  0.3023
  446MOL0     C60108   0.533   0.811  12.134 -0.4039  0.2664 -0.1420
  446MOL0     C60109   0.443   0.706  12.105  0.0553  0.3689  0.2233
  446MOL0     C60110   0.312   0.736  12.085  0.0271  0.1715  0.6770
  446MOL0     O60111   0.220   0.638  12.054  0.6556 -0.2923 -0.3748
  446MOL0     C60112   0.160   0.642  11.923  0.5368 -0.3073  0.2670
  446MOL0     C60113   0.005   0.652  11.927 -1.1151  0.9864  0.5834
  446MOL0     C60114  -0.052   0.525  11.986  0.2095 -0.4614 -0.6740
  446MOL0     C60115  -0.179   0.480  11.929  0.9394  1.3131 -0.2791
  446MOL0     C60116  -0.245   0.340  11.982 -0.5359  0.6917  0.7129
  446MOL0     C60117  -0.140   0.230  12.005 -1.1336 -0.1693 -0.2931
  446MOL0     C60118  -0.206   0.097  12.026  0.2794  0.6761 -0.3785
  446MOL0     C60119  -0.119  -0.023  11.993  0.5809  0.2173  0.2357
  446MOL0    Cl60120  -0.209  -0.171  11.972 -0.1081  0.4878  0.1242
  446MOL0     C60121   0.271   0.870  12.089  0.6879 -0.2810  0.6631
  446MOL0     C60122   0.361   0.974  12.098  0.6839  0.0178 -0.4150
  446MOL0     O60123   0.716   0.984  11.980  0.6549  0.1377  0.4525
  446MOL0     C60124   0.743   1.224  12.234  0.3575 -0.3599 -0.3761
  446MOL0     C60125   0.830   1.291  12.314 -0.1411  0.9602  0.6451
  446MOL0     N60126   1.359   1.707  12.167  0.2388  0.1701  0.2082
  446MOL0     N60127   1.431   1.786  12.094 -0.6183 -1.1418 -0.8472
  446MOL0     C60128   2.114   1.936  11.325  0.7744  0.1205  1.1625
  446MOL0     C60129   2.248   1.960  11.285  0.0828  1.1503  0.0879
  446MOL0     C60130   2.629   2.154  11.173 -0.0305 -0.7287 -0.1491
  446MOL0     C60131   2.664   2.268  11.097 -0.3447  0.4824 -0.1739
  446MOL0     C60132   2.795   2.285  11.056 -0.0581  0.6092  0.4117
  446MOL0     C60133   2.903   2.209  11.114  0.0239 -0.3123  0.2521
  446MOL0     O60134   3.035   2.250  11.113  0.2566 -0.1243 -0.9369
  446MOL0     C60135   3.068   2.354  11.017 -0.4904 -0.2034 -0.3739
  446MOL0     C60136   3.211   2.392  11.037 -0.5355 -0.2934  0.5530
  446MOL0     C60137   3.243   2.497  11.152 -0.2343 -0.1632  0.5258
  446MOL0     C60138   3.396   2.506  11.179 -0.3951 -0.6307  0.2158
  446MOL0     C60139   3.432   2.650  11.192  0.1722 -0.4042 -0.9597
  446MOL0     C60140   3.463   2.768  11.218 -0.2802  0.4556  0.2278
  446MOL0     C60141   2.863   2.107  11.195  0.1855 -0.5461 -1.2595
  446MOL0     C60142   2.732   2.081  11.225 -0.3645 -0.3732 -1.0055
  446MOL0     H60143   2.326   2.182  11.521  0.8148  1.0857 -2.1560
  446MOL0     H60144   2.109   2.144  11.596  2.1244  1.3076  0.1656
  446MOL0     H60145   1.876   1.999  11.676 -1.7732  0.2309  1.0128
  446MOL0     H60146   1.879   2.149  11.572 -0.2268  0.5072 -1.0395
  446MOL0     H60147   1.671   2.061  11.450 -0.6435 -1.1127  0.0565
  446MOL0     H60148   1.669   1.928  11.560 -1.5828  0.1921  0.6656
  446MOL0     H60149   1.634   2.057  11.759 -0.3871  1.3694  0.8097
  446MOL0     H60150   1.623   2.205  11.662 -1.3377 -0.3152 -0.2599
  446MOL0     H60151   1.453   2.113  11.521 -1.8499  2.1660  0.5703
  446MOL0     H60152   1.424   1.978  11.631  0.5895 -0.9331  1.0566
  446MOL0     H60153   1.384   2.265  11.662  0.5970  0.4490  0.7135
  446MOL0     H60154   1.259   2.134  11.691  0.3822  0.3493 -0.3111
  446MOL0     H60155   1.488   2.213  11.881  0.9841  0.2676 -1.5448
  446MOL0     H60156   1.314   2.239  11.905  0.9606 -0.4118  0.2538
  446MOL0     H60157   1.260   2.025  11.927 -0.2833  1.2005  1.4094
  446MOL0     H60158   1.412   1.960  11.867  2.7374  0.6381  2.1414
  446MOL0     H60159   1.402   2.122  12.113 -2.2225  0.6527 -1.3620
  446MOL0     H60160   1.543   2.042  12.049 -0.0280  1.4931 -0.2403
  446MOL0     H60161   1.241   1.984  12.278 -1.2204 -2.0091 -0.3348
  446MOL0     H60162   1.264   1.616  12.386  1.0602  0.2191 -0.0366
  446MOL0     H60163   1.184   1.769  12.441 -1.1486  0.7931 -0.5282
  446MOL0     H60164   1.105   1.569  12.221  2.7411  0.2580  0.4618
  446MOL0     H60165   1.028   1.717  12.222 -1.8598 -1.4352  0.2138
  446MOL0     H60166   0.873   1.601  12.336 -1.7856 -0.9844  3.8375
  446MOL0     H60167   0.941   1.664  12.479 -0.7248  1.0211 -0.0417
  446MOL0     H60168   0.941   1.440  12.529 -1.5922  2.8290 -0.6643
  446MOL0     H60169   1.099   1.484  12.526 -0.0623 -2.8188 -0.5665
  446MOL0     H60170   1.113   1.226  12.150  0.3961  2.6582  0.3958
  446MOL0     H60171   0.976   0.961  11.999  6.6416 -0.7075  0.7584
  446MOL0     H60172   0.940   1.096  11.878 -0.6507 -0.8557  0.3302
  446MOL0     H60173   1.091   1.087  11.979 -0.8115  6.6812 -0.1561
  446MOL0     H60174   0.636   0.782  12.150 -1.1803 -2.1676  0.9891
  446MOL0     H60175   0.479   0.603  12.103  1.5771  0.8194  1.9394
  446MOL0     H60176   0.205   0.727  11.871  0.2321 -0.0196  0.4749
  446MOL0     H60177   0.200   0.555  11.869  1.7351  0.9719 -1.0244
  446MOL0     H60178  -0.018   0.743  11.983 -2.5213  0.2490  1.2500
  446MOL0     H60179  -0.032   0.654  11.824 -0.9989  0.3400  0.5244
  446MOL0     H60180  -0.067   0.551  12.092  1.0405  0.1287 -0.6913
  446MOL0     H60181   0.019   0.441  11.981 -1.1011 -1.7909  1.4791
  446MOL0     H60182  -0.261   0.552  11.934 -1.0685 -0.8723 -0.1904
  446MOL0     H60183  -0.152   0.455  11.826 -0.6994  2.0602 -0.9207
  446MOL0     H60184  -0.317   0.304  11.908  1.1916  1.3297 -1.3983
  446MOL0     H60185  -0.293   0.367  12.076  0.0578  1.4662  0.8045
  446MOL0     H60186  -0.082   0.225  11.913 -1.6130 -0.6437 -0.5756
  446MOL0     H60187  -0.075   0.258  12.089 -0.3600 -1.5093 -0.4302
  446MOL0     H60188  -0.293   0.078  11.964 -0.3607 -4.4461  1.6167
  446MOL0     H60189  -0.241   0.088  12.129 -0.7308  1.3269 -0.6485
  446MOL0     H60190  -0.053  -0.031  12.080  0.5095  0.9228  0.3614
  446MOL0     H60191  -0.059  -0.010  11.903  1.8129  1.2539  1.1632
  446MOL0     H60192   0.165   0.893  12.089  0.9604  1.5873  3.6907
  446MOL0     H60193   0.335   1.079  12.085  1.5725  0.4795  1.2218
  446MOL0     H60194   0.647   1.229  12.284  1.8398  1.8281  2.5889
  446MOL0     H60195   0.784   1.352  12.392 -3.0429 -1.5874  1.0688
  446MOL0     H60196   2.044   1.882  11.262 -0.4136  2.0673  0.7249
  446MOL0     H60197   2.267   1.904  11.194 -4.0495  1.5577 -1.2035
  446MOL0     H60198   2.586   2.333  11.060 -2.7452 -3.0235 -1.8934
  446MOL0     H60199   2.805   2.373  10.992 -0.6614  2.8323  3.1643
  446MOL0     H60200   3.061   2.308  10.918  2.6640 -2.0793  0.1159
  446MOL0     H60201   3.000   2.438  11.032 -0.1629  0.0032 -0.0281
  446MOL0     H60202   3.253   2.430  10.943  0.5695 -0.8127  0.8207
  446MOL0     H60203   3.267   2.299  11.045 -0.4342 -0.2985 -0.1182
  446MOL0     H60204   3.178   2.480  11.238 -1.3661 -3.3294 -0.8165
  446MOL0     H60205   3.215   2.594  11.110  2.6937  1.5255  2.1355
  446MOL0     H60206   3.447   2.467  11.091  1.9543  1.2730  0.6317
  446MOL0     H60207   3.431   2.448  11.264 -2.3896 -1.1078  0.7803
  446MOL0     H60208   3.479   2.871  11.240 -0.9541  0.1804  2.1969
  446MOL0     H60209   2.933   2.056  11.260 -1.3702  0.3781  1.2975
  446MOL0     H60210   2.714   2.001  11.296  0.0518  0.3635 -0.0453
  447MOL0     O60211   9.737   8.853   7.969 -0.3397 -0.3284 -0.2429
  447MOL0     C60212   9.696   8.735   7.970 -0.2132  0.4370 -1.1184
  447MOL0     O60213   9.570   8.693   8.007  0.1195 -0.0872 -0.2379
  447MOL0     C60214   9.465   8.778   8.024 -0.4987 -0.7518 -0.9107
  447MOL0     C60215   9.439   8.896   7.952  0.3450 -0.7118 -0.5225
  447MOL0     C60216   9.325   8.976   7.995 -0.8333  0.9429 -0.9080
  447MOL0     C60217   9.254   8.950   8.116 -0.8534 -0.2895 -0.6057
  447MOL0     O60218   9.162   9.035   8.141 -0.6453  0.3796  0.0517
  447MOL0     C60219   9.176   9.087   8.279 -0.6929 -0.1116 -0.0644
  447MOL0     C60220   9.051   9.184   8.298  0.0258 -0.8726 -0.7649
  447MOL0     C60221   9.031   9.214   8.453 -0.6610  0.0963  0.2793
  447MOL0     C60222   8.935   9.325   8.473  0.9937 -0.3397  0.3691
  447MOL0     C60223   8.887   9.341   8.618 -0.5517 -0.1803 -0.7270
  447MOL0     C60224   8.775   9.243   8.668  0.6735 -0.4514 -1.0919
  447MOL0     C60225   8.739   9.283   8.815 -0.0668  0.4419 -1.4450
  447MOL0     C60226   8.601   9.270   8.867 -0.3147  0.6369 -0.0035
  447MOL0     N60227   8.574   9.132   8.899 -0.4168  0.1334 -0.5262
  447MOL0     C60228   8.507   9.049   8.815 -1.3613  0.6469  0.5529
  447MOL0     C60229   8.493   8.929   8.880 -0.0378 -0.1716  0.3835
  447MOL0     C60230   8.426   8.805   8.822 -0.8530  0.3751  0.5912
  447MOL0     C60231   8.279   8.832   8.795 -0.0405  0.2636 -0.1197
  447MOL0     C60232   8.198   8.870   8.919 -0.0906  0.4021 -0.8971
  447MOL0     C60233   8.066   8.802   8.918  0.4842 -0.3463 -0.0855
  447MOL0     O60234   7.998   8.840   8.803 -0.0572 -0.3030 -0.1399
  447MOL0     C60235   7.925   8.751   8.724  0.8882 -0.2662  0.4262
  447MOL0     C60236   7.904   8.795   8.593  0.1082  0.8511  0.4561
  447MOL0     C60237   7.810   8.754   8.506 -0.0941 -0.5165  0.6068
  447MOL0     C60238   7.790   8.832   8.374  0.0810  0.1288  0.0813
  447MOL0     C60239   7.737   8.639   8.551  0.1489 -0.2785 -0.1227
  447MOL0     C60240   7.624   8.583   8.478 -0.1543 -0.2501 -0.0331
  447MOL0     O60241   7.580   8.651   8.367 -0.5061 -0.6878  0.2287
  447MOL0     C60242   7.456   8.615   8.310  0.4699  0.6587 -0.9381
  447MOL0     C60243   7.338   8.575   8.385  0.1738 -0.1561  0.2934
  447MOL0     C60244   7.224   8.541   8.314 -0.4548 -0.5765  0.6317
  447MOL0     C60245   7.219   8.536   8.175  0.2597 -0.3841  0.8814
  447MOL0     O60246   7.094   8.487   8.123 -0.5136 -0.1688 -0.1664
  447MOL0     C60247   7.084   8.421   7.997  0.6791  0.1654  0.0190
  447MOL0     C60248   6.988   8.304   8.003 -0.3357 -1.3374 -1.1673
  447MOL0     C60249   6.939   8.273   7.864  0.0382 -0.2734 -0.4459
  447MOL0     C60250   6.831   8.155   7.874 -0.6291 -0.7189  0.0467
  447MOL0     C60251   6.781   8.127   7.728  0.2835  0.2389 -0.8143
  447MOL0     C60252   6.870   8.023   7.662 -0.1471  0.1996  0.3142
  447MOL0     C60253   6.834   7.993   7.515  0.8861  0.1831 -0.4394
  447MOL0     C60254   6.942   7.902   7.448  0.3608  0.2794  0.0533
  447MOL0    Cl60255   7.107   7.957   7.448  0.3902 -0.0637  0.2980
  447MOL0     C60256   7.335   8.578   8.106  0.1138  0.1976 -0.4280
  447MOL0     C60257   7.454   8.611   8.179  0.3067  0.0879  0.3448
  447MOL0     O60258   7.587   8.468   8.513  0.1126  0.1044  0.0094
  447MOL0     C60259   7.752   8.591   8.685 -0.1608 -0.3970  0.4060
  447MOL0     C60260   7.845   8.650   8.770  0.0870  0.3727  0.5787
  447MOL0     N60261   8.570   8.943   8.997  0.9114  0.4128  0.3170
  447MOL0     N60262   8.602   9.067   9.016 -0.1935  0.3281  0.0791
  447MOL0     C60263   9.283   8.830   8.186 -0.0435 -0.2229  0.6795
  447MOL0     C60264   9.386   8.756   8.142  0.3573  0.2564 -0.2228
  447MOL0     C60265   9.788   8.627   7.956 -0.5503  0.9363  0.0844
  447MOL0     C60266   9.923   8.648   7.979  0.9022 -0.3481  0.6895
  447MOL0     C60267  10.019   8.538   7.964  0.7894 -0.5684 -0.0580
  447MOL0     C60268   9.979   8.408   7.926  0.4929 -0.4489  0.9435
  447MOL0     O60269  10.058   8.300   7.901 -0.5830  0.1933 -0.3155
  447MOL0     C60270  10.199   8.322   7.912 -0.6093  0.2116 -0.7357
  447MOL0     C60271  10.267   8.189   7.901  0.5378 -0.1971  0.3318
  447MOL0     C60272  10.219   8.076   8.003  0.4193  0.3044  0.3382
  447MOL0     C60273  10.291   7.948   7.993 -0.7522  0.4138 -0.2881
  447MOL0     C60274  10.441   7.978   8.028  1.3007  0.1226  0.7503
  447MOL0     C60275  10.554   8.012   8.045  0.0707 -0.2377 -0.1242
  447MOL0     C60276   9.844   8.397   7.887  0.1339 -0.8719 -0.5437
  447MOL0     C60277   9.745   8.498   7.905  0.6660  0.1584  0.6484
  447MOL0     H60278   9.492   8.920   7.860  0.2046 -1.0678 -0.6951
  447MOL0     H60279   9.303   9.071   7.946 -1.6821  1.1870 -0.0906
  447MOL0     H60280   9.160   9.009   8.354 -1.8853 -0.5957 -0.7836
  447MOL0     H60281   9.269   9.144   8.291 -0.2621 -0.3411 -1.8875
  447MOL0     H60282   9.067   9.280   8.249 -0.4670  0.0270  0.7784
  447MOL0     H60283   8.963   9.132   8.260 -0.6803  0.1750 -0.5969
  447MOL0     H60284   8.997   9.120   8.497  1.0279 -0.3078  0.7645
  447MOL0     H60285   9.129   9.232   8.498 -0.3038 -0.6673 -0.1873
  447MOL0     H60286   8.964   9.422   8.431  0.1704 -1.3975 -2.9644
  447MOL0     H60287   8.846   9.300   8.414  0.8375 -1.8381  1.1912
  447MOL0     H60288   8.969   9.338   8.690 -2.8354  0.8462  2.1210
  447MOL0     H60289   8.843   9.441   8.617 -1.4154 -0.5452 -0.4335
  447MOL0     H60290   8.691   9.244   8.599 -0.1158 -0.5840 -0.1458
  447MOL0     H60291   8.812   9.140   8.678  0.0591 -0.4461  2.6011
  447MOL0     H60292   8.800   9.222   8.882 -2.1639 -0.2028 -0.0260
  447MOL0     H60293   8.766   9.387   8.835 -4.4471  1.3752  0.7322
  447MOL0     H60294   8.538   9.295   8.782 -2.4481  0.1150  1.3358
  447MOL0     H60295   8.586   9.321   8.963  1.7033 -1.0000  1.3014
  447MOL0     H60296   8.461   9.058   8.718  4.0147 -1.9136 -2.7226
  447MOL0     H60297   8.481   8.780   8.731 -0.4645 -0.0978  0.9426
  447MOL0     H60298   8.443   8.720   8.890  1.2199  0.3608  0.1368
  447MOL0     H60299   8.234   8.742   8.754 -0.0244  0.3937 -0.4274
  447MOL0     H60300   8.270   8.916   8.724  4.8461  0.5376 -0.7642
  447MOL0     H60301   8.192   8.979   8.913  1.2424  0.5834  0.3668
  447MOL0     H60302   8.243   8.845   9.015  0.8728  3.7934 -0.3405
  447MOL0     H60303   8.008   8.837   9.003 -0.1946 -1.1455 -0.2071
  447MOL0     H60304   8.079   8.693   8.920 -0.0503 -0.4130  1.9451
  447MOL0     H60305   7.963   8.878   8.555  1.6414  1.4550  3.7956
  447MOL0     H60306   7.843   8.790   8.287 -0.7010 -0.1931 -0.2556
  447MOL0     H60307   7.684   8.841   8.349  0.5012 -2.5581 -3.7187
  447MOL0     H60308   7.825   8.933   8.396  1.4712 -0.3377  0.1270
  447MOL0     H60309   7.352   8.581   8.493 -0.8303 -2.9365  0.6561
  447MOL0     H60310   7.125   8.519   8.355 -0.5742 -2.2598 -0.4876
  447MOL0     H60311   7.053   8.491   7.918  1.3836 -0.9114 -1.2542
  447MOL0     H60312   7.187   8.392   7.977  1.4639  1.2917  2.1437
  447MOL0     H60313   7.034   8.215   8.046 -2.7934 -1.6824  0.9926
  447MOL0     H60314   6.905   8.341   8.065  1.2294  0.4838 -0.0467
  447MOL0     H60315   7.027   8.243   7.805  0.7639 -0.1695  0.5645
  447MOL0     H60316   6.893   8.362   7.819  0.2652  0.5691  0.9311
  447MOL0     H60317   6.873   8.067   7.922  1.8654  0.0556 -0.5554
  447MOL0     H60318   6.752   8.185   7.943  0.3748 -2.3865  2.0039
  447MOL0     H60319   6.777   8.215   7.663  0.3836  1.4113  0.7016
  447MOL0     H60320   6.680   8.084   7.725  0.0427  0.7426 -0.2024
  447MOL0     H60321   6.969   8.068   7.656 -1.0033  1.9003 -2.3573
  447MOL0     H60322   6.878   7.938   7.731  0.8219  0.0063 -0.0204
  447MOL0     H60323   6.815   8.086   7.460 -1.3758  0.9182  1.4084
  447MOL0     H60324   6.731   7.957   7.520  0.5019  1.2374 -0.4349
  447MOL0     H60325   6.900   7.877   7.350  1.8836  3.5353 -1.5877
  447MOL0     H60326   6.955   7.813   7.512 -0.6164  0.0805 -0.0005
  447MOL0     H60327   7.335   8.574   7.998 -2.3748 -3.7930 -0.5036
  447MOL0     H60328   7.548   8.633   8.129  0.6810 -2.1588 -0.0645
  447MOL0     H60329   7.689   8.512   8.725 -3.2034  0.1012 -2.8617
  447MOL0     H60330   7.870   8.607   8.867  2.5384  2.0224  0.7763
  447MOL0     H60331   9.226   8.806   8.276  0.7699  1.5482  1.7268
  447MOL0     H60332   9.413   8.673   8.207  1.3570  1.0607  0.4400
  447MOL0     H60333   9.950   8.751   8.000 -2.2082  0.5978  0.5956
  447MOL0     H60334  10.124   8.564   7.972 -0.1476  3.6874  0.5424
  447MOL0     H60335  10.228   8.393   7.834  2.1820 -0.1946 -0.1751
  447MOL0     H60336  10.225   8.358   8.013 -0.2386 -1.5707 -0.1678
  447MOL0     H60337  10.375   8.211   7.902  0.2412  1.8323 -1.5780
  447MOL0     H60338  10.248   8.146   7.802 -1.8401 -4.0750  2.2360
  447MOL0     H60339  10.115   8.054   7.977  1.8890 -3.7641 -3.3239
  447MOL0     H60340  10.232   8.120   8.102  2.2029  1.5440 -0.3892
  447MOL0     H60341  10.286   7.891   7.900  1.2558  1.5747 -1.1616
  447MOL0     H60342  10.253   7.884   8.074 -0.8554 -0.3495 -0.9217
  447MOL0     H60343  10.658   8.036   8.054  0.0297  0.6751 -1.6744
  447MOL0     H60344   9.823   8.303   7.838  1.3849 -1.1944 -0.4992
  447MOL0     H60345   9.644   8.478   7.871  0.7176  3.0920 -1.6370
  448MOL0     O60346   0.673   3.210   5.473  0.1858 -0.0316 -0.6078
  448MOL0     C60347   0.786   3.236   5.428 -0.6054 -0.0311 -0.6386
  448MOL0     O60348   0.818   3.261   5.303  0.7131 -0.2781 -0.0014
  448MOL0     C60349   0.729   3.285   5.212 -0.3234  0.2086  0.2912
  448MOL0     C60350   0.781   3.349   5.101  0.2363  0.6971  0.7673
  448MOL0     C60351   0.702   3.381   4.992 -0.4252 -0.4557  0.4926
  448MOL0     C60352   0.568   3.356   4.992  0.1165 -0.2309  0.0586
  448MOL0     O60353   0.483   3.386   4.890  0.1729  0.1482  0.8275
  448MOL0     C60354   0.529   3.454   4.766 -0.0367 -0.4770 -0.9154
  448MOL0     C60355   0.608   3.367   4.666  0.1108 -0.4765 -0.3392
  448MOL0     C60356   0.523   3.257   4.604  0.0050  0.2299  0.3600
  448MOL0     C60357   0.449   3.300   4.474  0.9643  0.4730  0.7932
  448MOL0     C60358   0.425   3.171   4.389 -0.4338 -0.4045 -0.8723
  448MOL0     C60359   0.357   3.224   4.267  0.2653  0.6491  0.0354
  448MOL0     C60360   0.317   3.103   4.178 -0.5409  0.2190  0.5916
  448MOL0     C60361   0.175   3.117   4.132  0.6947 -0.1579 -0.4458
  448MOL0     N60362   0.127   2.999   4.050 -0.0280 -0.4976  0.8809
  448MOL0     C60363   0.003   2.977   4.029 -0.9433 -0.9379  0.1393
  448MOL0     C60364  -0.006   2.845   3.996 -1.1325 -0.1151 -0.4204
  448MOL0     C60365  -0.142   2.766   4.000 -0.6111 -0.3388  0.4613
  448MOL0     C60366  -0.217   2.774   3.865  0.9477  0.4817 -1.0129
  448MOL0     C60367  -0.145   2.710   3.743  1.1791  0.1656  0.3973
  448MOL0     C60368  -0.135   2.552   3.744 -0.0081  0.0843  0.2820
  448MOL0     O60369  -0.077   2.511   3.620  0.3514 -0.8695 -0.1315
  448MOL0     C60370  -0.110   2.392   3.573  0.5102 -0.3198  0.0644
  448MOL0     C60371  -0.107   2.382   3.438 -0.6018  0.4492  0.1437
  448MOL0     C60372  -0.130   2.258   3.369 -0.9453  1.1014 -0.8698
  448MOL0     C60373  -0.119   2.267   3.223 -0.1241  0.1261 -1.0671
  448MOL0     C60374  -0.185   2.152   3.448 -0.4261 -0.9853  0.2448
  448MOL0     C60375  -0.231   2.020   3.368 -0.0467 -0.5685 -0.7197
  448MOL0     O60376  -0.300   2.041   3.255  0.8308 -0.2600  0.3005
  448MOL0     C60377  -0.354   1.933   3.190 -0.5628  0.8196 -0.1268
  448MOL0     C60378  -0.474   1.874   3.232  0.4085  0.6250 -0.0469
  448MOL0     C60379  -0.540   1.781   3.149  0.6411  0.0451  0.0558
  448MOL0     C60380  -0.491   1.752   3.019 -0.5572 -0.3546  0.1055
  448MOL0     O60381  -0.560   1.666   2.939  0.3990 -0.6216  0.3133
  448MOL0     C60382  -0.534   1.531   2.971 -0.4714 -0.4345  0.6157
  448MOL0     C60383  -0.612   1.438   2.881  1.3111 -0.2803  0.1600
  448MOL0     C60384  -0.593   1.284   2.915  0.0402  0.7462 -0.2218
  448MOL0     C60385  -0.479   1.234   2.824  0.4308 -0.5745 -0.0073
  448MOL0     C60386  -0.468   1.086   2.818 -0.1538  1.3959  0.0614
  448MOL0     C60387  -0.583   1.015   2.744  0.2725 -0.3664  0.5547
  448MOL0     C60388  -0.553   0.852   2.755  0.8120  0.1176 -0.6051
  448MOL0     C60389  -0.695   0.780   2.756 -0.4962  0.6935  0.5283
  448MOL0    Cl60390  -0.746   0.771   2.585 -0.1653 -0.7071 -0.3214
  448MOL0     C60391  -0.372   1.810   2.972  0.4357  0.7109 -0.4289
  448MOL0     C60392  -0.309   1.900   3.063 -0.3376  1.1192 -0.7141
  448MOL0     O60393  -0.219   1.915   3.428 -0.7522  0.5826 -0.0755
  448MOL0     C60394  -0.188   2.163   3.588  0.0453  0.3691  0.0127
  448MOL0     C60395  -0.154   2.279   3.654  0.0248  0.0890  0.8976
  448MOL0     N60396   0.117   2.787   3.995  0.2454 -0.5302 -0.0015
  448MOL0     N60397   0.194   2.878   4.030  0.4296 -0.4239  0.5477
  448MOL0     C60398   0.513   3.309   5.112  0.4777 -0.6497  0.0462
  448MOL0     C60399   0.591   3.252   5.213 -0.1436 -0.0751 -0.3251
  448MOL0     C60400   0.904   3.241   5.520  1.0724 -0.1369  0.2298
  448MOL0     C60401   0.881   3.253   5.650  0.1605  0.2727  0.0237
  448MOL0     C60402   0.984   3.270   5.744 -0.6742 -0.0319  0.5057
  448MOL0     C60403   1.117   3.276   5.700 -0.7714  0.6844 -0.2963
  448MOL0     O60404   1.219   3.294   5.782  0.0707  0.0560  0.5184
  448MOL0     C60405   1.196   3.338   5.913 -0.6245  0.0733 -0.2436
  448MOL0     C60406   1.316   3.404   5.977  0.7932 -0.0763 -0.7520
  448MOL0     C60407   1.337   3.548   5.945  0.5540  0.7035 -0.0460
  448MOL0     C60408   1.210   3.638   5.960 -0.2112 -0.3929 -0.5265
  448MOL0     C60409   1.117   3.615   6.071 -0.2086  1.5079 -1.4886
  448MOL0     C60410   1.036   3.583   6.161 -0.8707 -0.9491 -0.0140
  448MOL0     C60411   1.138   3.259   5.566 -0.4044  0.5060  0.8372
  448MOL0     C60412   1.033   3.240   5.474 -0.3173 -0.7638  0.0960
  448MOL0     H60413   0.883   3.384   5.091 -0.3877  2.1068 -1.5663
  448MOL0     H60414   0.748   3.423   4.903  1.5303 -1.1413  1.1390
  448MOL0     H60415   0.434   3.476   4.716 -0.4712 -0.7297 -0.2088
  448MOL0     H60416   0.586   3.546   4.779  1.8725 -1.5453 -1.3552
  448MOL0     H60417   0.644   3.431   4.586  1.3597 -0.9848 -0.2117
  448MOL0     H60418   0.695   3.319   4.712  1.7977  1.9051 -0.9119
  448MOL0     H60419   0.592   3.176   4.578 -0.6557 -0.7032  1.4252
  448MOL0     H60420   0.460   3.223   4.686  0.5390 -2.3134 -0.1744
  448MOL0     H60421   0.357   3.356   4.493 -0.5996 -1.4034 -0.8610
  448MOL0     H60422   0.519   3.366   4.421 -2.0759  2.1052 -1.5134
  448MOL0     H60423   0.526   3.134   4.366  0.4502  0.8810  0.8022
  448MOL0     H60424   0.366   3.095   4.441 -1.0585 -0.2849 -1.3949
  448MOL0     H60425   0.265   3.279   4.291  0.7217  0.8014  1.5543
  448MOL0     H60426   0.430   3.286   4.215  1.2872 -0.3879  0.1910
  448MOL0     H60427   0.377   3.097   4.087 -0.5978  0.7520  0.5148
  448MOL0     H60428   0.324   3.015   4.243 -4.0799 -0.8278 -0.2327
  448MOL0     H60429   0.179   3.204   4.067  0.9605 -0.9972 -1.5925
  448MOL0     H60430   0.113   3.138   4.220  3.2032 -1.9220  1.9201
  448MOL0     H60431  -0.063   3.057   4.061  2.7304  3.6632 -2.4805
  448MOL0     H60432  -0.107   2.663   4.010 -0.1171 -0.8668 -4.1291
  448MOL0     H60433  -0.211   2.801   4.077 -0.0459  2.6387 -0.2778
  448MOL0     H60434  -0.238   2.880   3.846  2.0641  0.5302 -2.0228
  448MOL0     H60435  -0.312   2.722   3.880  0.8636  0.5161 -1.4383
  448MOL0     H60436  -0.040   2.741   3.740  1.2259  0.6456  3.5267
  448MOL0     H60437  -0.200   2.735   3.652  4.0891  0.4553 -1.3999
  448MOL0     H60438  -0.234   2.511   3.764  1.4951 -1.8350  6.1445
  448MOL0     H60439  -0.067   2.515   3.823 -0.9570 -0.0499  1.0515
  448MOL0     H60440  -0.093   2.471   3.378 -2.7425  0.0132 -1.1088
  448MOL0     H60441  -0.025   2.312   3.189  0.0643 -1.2248 -2.4618
  448MOL0     H60442  -0.127   2.175   3.165  2.9919 -1.1374  0.2352
  448MOL0     H60443  -0.187   2.347   3.192 -0.4249 -1.1934 -4.1241
  448MOL0     H60444  -0.518   1.896   3.328 -1.7689  2.0455 -1.3005
  448MOL0     H60445  -0.625   1.727   3.188  1.2225 -0.7017  0.3164
  448MOL0     H60446  -0.429   1.507   2.953 -0.6009  0.0129 -0.9027
  448MOL0     H60447  -0.563   1.513   3.074  0.5418 -3.4020  0.4509
  448MOL0     H60448  -0.714   1.476   2.891  1.9652  0.9353  4.2082
  448MOL0     H60449  -0.577   1.468   2.782 -0.2458  5.0482  0.8849
  448MOL0     H60450  -0.677   1.222   2.883  1.5659 -1.1055 -0.8474
  448MOL0     H60451  -0.586   1.257   3.021 -1.1316 -0.8262 -0.5054
  448MOL0     H60452  -0.509   1.266   2.723  1.5202 -0.8611 -0.4330
  448MOL0     H60453  -0.382   1.283   2.832 -0.1681  0.4483  1.1725
  448MOL0     H60454  -0.454   1.039   2.915 -1.5526  1.3875  0.2736
  448MOL0     H60455  -0.381   1.051   2.761  0.8724 -2.5965  3.6583
  448MOL0     H60456  -0.681   1.040   2.784 -0.6385 -0.7944 -1.2731
  448MOL0     H60457  -0.580   1.042   2.638 -0.0284  0.4945  0.7643
  448MOL0     H60458  -0.502   0.822   2.847  1.9738 -1.4617 -1.7051
  448MOL0     H60459  -0.495   0.809   2.673  2.3414  0.2301  0.3735
  448MOL0     H60460  -0.774   0.822   2.820 -1.0502 -0.5087  0.6829
  448MOL0     H60461  -0.688   0.678   2.795 -0.4909  1.1763  1.8402
  448MOL0     H60462  -0.331   1.785   2.875  1.4860 -0.4688  0.2860
  448MOL0     H60463  -0.213   1.945   3.038  0.2420 -0.4197 -1.4145
  448MOL0     H60464  -0.221   2.075   3.642 -0.7590  1.2282  0.9702
  448MOL0     H60465  -0.163   2.290   3.762  1.0994 -0.3386  1.0464
  448MOL0     H60466   0.405   3.321   5.114  0.5068  0.2504 -1.8731
  448MOL0     H60467   0.536   3.202   5.292  1.1869 -0.2739  0.5154
  448MOL0     H60468   0.788   3.249   5.707 -0.0090  2.3337 -0.0296
  448MOL0     H60469   0.965   3.281   5.851  3.1476  0.7380  1.2564
  448MOL0     H60470   1.118   3.414   5.915 -0.4152  0.2799  0.0027
  448MOL0     H60471   1.168   3.247   5.967 -1.6918  0.4823 -0.0930
  448MOL0     H60472   1.402   3.344   5.946 -0.4344 -2.1670 -0.3507
  448MOL0     H60473   1.291   3.384   6.082 -0.4952  2.6478 -0.4600
  448MOL0     H60474   1.375   3.558   5.843 -1.7783 -2.2128 -1.3464
  448MOL0     H60475   1.409   3.579   6.021  0.1087  0.2288  0.5756
  448MOL0     H60476   1.156   3.634   5.865 -1.7110 -2.0154  0.3499
  448MOL0     H60477   1.249   3.740   5.975  1.3140 -0.9534 -0.5015
  448MOL0     H60478   0.972   3.559   6.243 -1.1221 -1.2691 -0.3019
  448MOL0     H60479   1.243   3.257   5.537 -1.1285 -2.5242 -2.2042
  448MOL0     H60480   1.049   3.220   5.369  0.0231 -1.8641  0.3411
  449MOL0     O60481   2.168   1.096   1.185 -0.2333  0.1620  0.1878
  449MOL0     C60482   2.190   1.014   1.273 -0.3097  0.3041  0.3573
  449MOL0     O60483   2.095   0.915   1.318 -0.5862  0.0132 -0.6791
  449MOL0     C60484   1.961   0.899   1.292 -0.1809  0.4746  0.9569
  449MOL0     C60485   1.881   1.007   1.243 -0.4684 -1.1123  0.5597
  449MOL0     C60486   1.745   0.985   1.211 -0.5332  0.7584  0.2513
  449MOL0     C60487   1.684   0.866   1.257  0.3779 -1.2396 -0.7723
  449MOL0     O60488   1.548   0.875   1.255 -0.5451  0.2572  0.1425
  449MOL0     C60489   1.469   0.792   1.347  0.1490  0.8400 -0.2339
  449MOL0     C60490   1.327   0.840   1.370  0.5178 -1.1576  0.0760
  449MOL0     C60491   1.246   0.730   1.424 -0.5997 -0.0030  1.6547
  449MOL0     C60492   1.293   0.673   1.558  0.7782  0.4286  0.0359
  449MOL0     C60493   1.199   0.574   1.619 -0.3718 -0.3184 -0.0113
  449MOL0     C60494   1.055   0.622   1.660  0.7390 -0.4602 -0.7017
  449MOL0     C60495   0.979   0.515   1.748 -0.4571  0.0280 -0.5606
  449MOL0     C60496   0.948   0.385   1.669  0.0146 -0.2701  0.1394
  449MOL0     N60497   0.830   0.320   1.725  0.5364  0.6221 -1.0652
  449MOL0     C60498   0.826   0.237   1.834 -0.1826 -1.2812  0.3287
  449MOL0     C60499   0.695   0.206   1.845 -0.6383  0.3302  0.4064
  449MOL0     C60500   0.638   0.112   1.935 -0.1867  0.5258 -0.2722
  449MOL0     C60501   0.630  -0.026   1.874 -0.6666  0.5424 -0.1006
  449MOL0     C60502   0.529  -0.107   1.960 -0.4066 -0.1602  0.8659
  449MOL0     C60503   0.488  -0.241   1.901  0.7061  0.5878 -0.4464
  449MOL0     O60504   0.373  -0.299   1.963 -0.2162  0.2316 -0.3137
  449MOL0     C60505   0.313  -0.407   1.906 -0.2094  0.9980 -0.4168
  449MOL0     C60506   0.352  -0.537   1.945 -1.1272  0.1363 -0.3113
  449MOL0     C60507   0.275  -0.647   1.912 -0.0509 -0.0651 -0.0246
  449MOL0     C60508   0.335  -0.778   1.940 -0.8373 -0.3676  0.0785
  449MOL0     C60509   0.155  -0.627   1.829 -0.0335  0.0173 -0.6984
  449MOL0     C60510   0.076  -0.735   1.787 -0.9508  0.0021 -0.0099
  449MOL0     O60511   0.054  -0.841   1.870 -0.2904  0.0935  0.1164
  449MOL0     C60512  -0.022  -0.952   1.851  0.0053 -0.7042 -0.4937
  449MOL0     C60513  -0.070  -0.999   1.733  1.1599  0.5910 -0.3100
  449MOL0     C60514  -0.150  -1.109   1.719  0.8344 -0.1758  0.4817
  449MOL0     C60515  -0.184  -1.181   1.835  0.4404 -0.6032  0.6758
  449MOL0     O60516  -0.245  -1.303   1.838 -0.0530  0.0715  0.1826
  449MOL0     C60517  -0.332  -1.327   1.728  0.5511 -0.2575 -0.6244
  449MOL0     C60518  -0.430  -1.434   1.754  0.3348 -0.0577  0.5026
  449MOL0     C60519  -0.533  -1.396   1.868  0.7157 -0.5537  0.6330
  449MOL0     C60520  -0.667  -1.341   1.830 -0.6548  0.5116 -0.0899
  449MOL0     C60521  -0.756  -1.342   1.954  0.1669  0.8736  0.4902
  449MOL0     C60522  -0.890  -1.265   1.936  0.3529  0.4578 -0.8062
  449MOL0     C60523  -0.965  -1.275   2.078  0.0688  0.4453  0.5489
  449MOL0     C60524  -1.095  -1.188   2.089  0.0042 -0.8781 -0.5320
  449MOL0    Cl60525  -1.237  -1.265   1.997 -0.2719  0.0936 -0.0097
  449MOL0     C60526  -0.144  -1.130   1.952  0.3088 -0.0856 -0.4271
  449MOL0     C60527  -0.069  -1.013   1.966 -0.8208 -0.0189  0.2486
  449MOL0     O60528   0.011  -0.724   1.684 -0.8943 -0.1465  0.7399
  449MOL0     C60529   0.112  -0.494   1.809  0.2166 -0.1080  0.5911
  449MOL0     C60530   0.193  -0.387   1.840 -0.4326 -0.2950 -0.8514
  449MOL0     N60531   0.629   0.266   1.744  0.0610  0.1608  0.3301
  449MOL0     N60532   0.708   0.326   1.669  0.2806 -0.7091 -0.1642
  449MOL0     C60533   1.757   0.766   1.309  0.3043  0.3547 -0.2439
  449MOL0     C60534   1.897   0.774   1.314  0.2220 -0.0889  0.0609
  449MOL0     C60535   2.325   1.017   1.334 -0.5261 -0.5400 -1.0791
  449MOL0     C60536   2.419   1.116   1.325  1.0743  0.7609 -0.7642
  449MOL0     C60537   2.551   1.106   1.382  0.2507  0.2263  0.0482
  449MOL0     C60538   2.590   0.995   1.460 -0.3099 -0.5736 -0.2468
  449MOL0     O60539   2.716   0.997   1.507 -0.6267  0.6114 -0.2743
  449MOL0     C60540   2.753   0.909   1.617  0.2270  0.3115  0.8716
  449MOL0     C60541   2.895   0.951   1.647  0.5219 -0.2904 -1.2232
  449MOL0     C60542   2.983   0.859   1.736 -0.1368  0.4042  0.0599
  449MOL0     C60543   3.100   0.934   1.817  0.0656  0.4240 -0.6749
  449MOL0     C60544   3.192   0.984   1.721 -0.9410 -0.0657 -0.5094
  449MOL0     C60545   3.274   1.020   1.638 -0.4164  0.2011  0.1031
  449MOL0     C60546   2.486   0.897   1.481 -0.4315 -1.0819 -0.8012
  449MOL0     C60547   2.368   0.911   1.420  0.2180 -0.2014 -0.4871
  449MOL0     H60548   1.906   1.110   1.217  0.2027 -1.4497 -0.1673
  449MOL0     H60549   1.702   1.071   1.162  0.2767  1.1707  0.2445
  449MOL0     H60550   1.463   0.690   1.308 -1.2691  1.1651 -0.9522
  449MOL0     H60551   1.513   0.791   1.447 -2.1154 -1.1632  0.8637
  449MOL0     H60552   1.331   0.922   1.443 -0.8036  1.8948 -2.9777
  449MOL0     H60553   1.273   0.885   1.286 -3.4635 -1.3637  2.2704
  449MOL0     H60554   1.143   0.767   1.431 -1.5356 -1.3443 -2.2092
  449MOL0     H60555   1.236   0.651   1.348 -0.7264  0.3430  1.3091
  449MOL0     H60556   1.396   0.636   1.557  0.8826 -0.1399  5.1652
  449MOL0     H60557   1.297   0.752   1.634 -2.7178 -0.6486  1.5253
  449MOL0     H60558   1.198   0.489   1.550 -0.2028  0.9636 -1.6400
  449MOL0     H60559   1.261   0.542   1.703 -1.8053  1.3690  1.7670
  449MOL0     H60560   1.066   0.697   1.738  0.2779 -2.0122  0.9277
  449MOL0     H60561   0.994   0.656   1.575  1.2515  1.5302 -0.3102
  449MOL0     H60562   1.036   0.489   1.838 -1.9800  2.9452  1.3670
  449MOL0     H60563   0.884   0.557   1.780 -0.6130  0.2870 -1.3560
  449MOL0     H60564   1.036   0.319   1.672 -1.7019 -2.6634  2.2513
  449MOL0     H60565   0.934   0.414   1.564 -1.8909  0.3956  0.5519
  449MOL0     H60566   0.911   0.216   1.898 -1.1213 -1.7177  1.4641
  449MOL0     H60567   0.691   0.100   2.031  2.2520  2.6786 -1.2406
  449MOL0     H60568   0.539   0.153   1.956 -0.1996  0.5543 -0.3936
  449MOL0     H60569   0.731  -0.068   1.874 -1.1232 -0.6186 -0.8400
  449MOL0     H60570   0.593  -0.034   1.771 -1.6055 -0.1073  0.2745
  449MOL0     H60571   0.443  -0.040   1.966  1.4553  2.5128 -0.4275
  449MOL0     H60572   0.564  -0.125   2.062  2.1620 -0.1947  0.0397
  449MOL0     H60573   0.574  -0.305   1.922  0.4609  0.3889 -0.0434
  449MOL0     H60574   0.478  -0.245   1.792  0.6933  0.5244 -0.4430
  449MOL0     H60575   0.453  -0.543   1.985 -0.7520  0.0034 -1.2349
  449MOL0     H60576   0.314  -0.843   1.855 -1.3723 -1.9042  1.3499
  449MOL0     H60577   0.443  -0.763   1.948 -0.2876 -3.0399 -1.3270
  449MOL0     H60578   0.299  -0.818   2.034 -1.1330  0.0448  0.1450
  449MOL0     H60579  -0.038  -0.955   1.639  0.8343 -2.2578 -1.8582
  449MOL0     H60580  -0.170  -1.149   1.620 -2.0855 -1.8234  1.5933
  449MOL0     H60581  -0.399  -1.241   1.712 -1.0391 -1.5137 -1.0458
  449MOL0     H60582  -0.281  -1.338   1.632 -1.1745  0.1019 -1.6418
  449MOL0     H60583  -0.478  -1.454   1.657  1.2397  2.4082 -0.5281
  449MOL0     H60584  -0.379  -1.528   1.774  3.0954  1.9653  4.0078
  449MOL0     H60585  -0.487  -1.324   1.937 -0.0320 -0.3847  0.9649
  449MOL0     H60586  -0.554  -1.483   1.931  2.1661 -1.3882  0.0226
  449MOL0     H60587  -0.656  -1.237   1.799 -1.3692  1.0009  1.2220
  449MOL0     H60588  -0.713  -1.389   1.743 -0.8673 -0.9026  0.7559
  449MOL0     H60589  -0.711  -1.288   2.037 -1.1287  1.6640  0.7102
  449MOL0     H60590  -0.773  -1.444   1.988 -1.4315  0.4988 -1.2203
  449MOL0     H60591  -0.863  -1.164   1.903  0.5915  0.2556 -1.2467
  449MOL0     H60592  -0.962  -1.306   1.865 -1.8262  1.9083  0.4548
  449MOL0     H60593  -0.898  -1.242   2.158  0.0625 -0.8494  1.1179
  449MOL0     H60594  -0.998  -1.378   2.095  0.7788 -0.3337 -2.1780
  449MOL0     H60595  -1.077  -1.082   2.067 -0.7498 -0.3495  1.1866
  449MOL0     H60596  -1.129  -1.196   2.193  2.7040  1.1032  0.6226
  449MOL0     H60597  -0.160  -1.183   2.045  0.6521 -0.3553 -0.5196
  449MOL0     H60598  -0.039  -0.970   2.061  0.0070 -1.3896  0.6366
  449MOL0     H60599   0.021  -0.473   1.754  0.2898 -3.0849 -0.8899
  449MOL0     H60600   0.156  -0.285   1.842 -0.0843 -0.1623  1.7733
  449MOL0     H60601   1.709   0.674   1.339  0.1178  0.0099 -1.5319
  449MOL0     H60602   1.951   0.690   1.357 -1.6639 -2.4058 -1.8006
  449MOL0     H60603   2.390   1.201   1.263 -0.4531 -0.4847 -1.8445
  449MOL0     H60604   2.618   1.188   1.357 -0.2020  0.8055  0.7154
  449MOL0     H60605   2.681   0.933   1.696 -2.0858  1.2565 -1.3954
  449MOL0     H60606   2.751   0.803   1.591  3.8423  0.3966 -0.2207
  449MOL0     H60607   2.890   1.051   1.692  1.7404 -1.4509  1.7801
  449MOL0     H60608   2.950   0.952   1.552  2.1682  2.2017 -0.3376
  449MOL0     H60609   3.036   0.790   1.670  0.0387  0.0431  0.5679
  449MOL0     H60610   2.919   0.801   1.804 -0.2065 -1.6072 -1.6168
  449MOL0     H60611   3.141   0.885   1.905 -0.6351 -3.0554 -2.1060
  449MOL0     H60612   3.050   1.022   1.860 -0.0566 -0.1233  0.3286
  449MOL0     H60613   3.336   1.051   1.556 -0.2310 -0.0033  0.1659
  449MOL0     H60614   2.506   0.821   1.556  1.0984  1.3085  1.3843
  449MOL0     H60615   2.297   0.837   1.455 -0.3122  0.3437 -0.4020
  450MOL0     O60616   8.693   6.984   4.584  0.2432  0.0110  0.4898
  450MOL0     C60617   8.730   6.870   4.600 -0.0059 -0.1574 -1.3527
  450MOL0     O60618   8.645   6.759   4.623  0.1676 -0.1167 -1.0693
  450MOL0     C60619   8.509   6.759   4.606 -0.8085  0.4144 -1.0155
  450MOL0     C60620   8.450   6.763   4.474 -0.4703  0.6250 -0.0758
  450MOL0     C60621   8.315   6.785   4.464  0.2414 -1.0272  0.4687
  450MOL0     C60622   8.233   6.796   4.580  0.5310 -0.5700 -0.9077
  450MOL0     O60623   8.099   6.819   4.563 -0.1595 -0.0937  0.4070
  450MOL0     C60624   8.026   6.882   4.677  0.9913  0.0857 -0.1780
  450MOL0     C60625   7.892   6.939   4.631 -0.2919  0.3318 -0.4632
  450MOL0     C60626   7.802   6.822   4.583  0.0873  0.1778 -0.3608
  450MOL0     C60627   7.670   6.870   4.532  0.3888 -0.2844 -0.0401
  450MOL0     C60628   7.576   6.747   4.499  0.2997 -0.3255  0.3395
  450MOL0     C60629   7.427   6.769   4.490 -0.3407 -0.1080  0.3335
  450MOL0     C60630   7.364   6.635   4.473  0.5701  0.2176  0.3089
  450MOL0     C60631   7.210   6.631   4.478 -0.4455  0.4954  0.2655
  450MOL0     N60632   7.150   6.636   4.614 -0.3105 -0.2939  0.4245
  450MOL0     C60633   7.141   6.540   4.710 -0.3751 -0.3763  0.4400
  450MOL0     C60634   7.117   6.611   4.819  0.2981  0.4244 -0.2179
  450MOL0     C60635   7.077   6.548   4.957  0.0650 -0.5209  0.4254
  450MOL0     C60636   6.951   6.467   4.926  0.6783 -0.7980 -0.7933
  450MOL0     C60637   6.834   6.556   4.917 -0.7859  0.6019 -1.0593
  450MOL0     C60638   6.726   6.504   4.825 -0.2447 -1.0675  0.1511
  450MOL0     O60639   6.640   6.419   4.896 -0.7492 -0.2803 -0.2561
  450MOL0     C60640   6.510   6.405   4.858 -0.7383  0.3740  0.0646
  450MOL0     C60641   6.417   6.362   4.953 -0.9532  0.1962 -0.5517
  450MOL0     C60642   6.283   6.334   4.921 -0.3259 -0.0960  0.2257
  450MOL0     C60643   6.195   6.278   5.030  0.3744 -0.8789  0.4419
  450MOL0     C60644   6.236   6.340   4.783  0.0969 -1.1750  0.9975
  450MOL0     C60645   6.103   6.313   4.728  0.2396  0.0851  0.2152
  450MOL0     O60646   6.011   6.366   4.811  0.0642 -0.0382 -0.4200
  450MOL0     C60647   5.878   6.345   4.788 -0.2863  0.6025 -0.2491
  450MOL0     C60648   5.823   6.229   4.826  0.3851 -0.4656 -0.5722
  450MOL0     C60649   5.689   6.201   4.817  0.0660 -0.2906  0.5602
  450MOL0     C60650   5.610   6.300   4.756  0.4998  0.2928 -0.0788
  450MOL0     O60651   5.483   6.258   4.738  0.1694 -0.1725  0.2530
  450MOL0     C60652   5.440   6.250   4.603 -0.4534  1.0942  0.1189
  450MOL0     C60653   5.403   6.106   4.575 -0.3702 -0.3486 -0.9664
  450MOL0     C60654   5.299   6.047   4.662  0.7579 -0.0981  0.3565
  450MOL0     C60655   5.169   6.131   4.698  0.5375  0.1659 -0.4220
  450MOL0     C60656   5.083   6.059   4.816  0.9220 -0.3522 -0.5946
  450MOL0     C60657   5.051   5.908   4.797 -0.5118  0.3843  0.5910
  450MOL0     C60658   4.960   5.889   4.669 -0.0021 -0.4251  0.6764
  450MOL0     C60659   4.898   5.752   4.670 -0.1737  0.8842 -0.4131
  450MOL0    Cl60660   4.770   5.748   4.548  0.1355  0.1454 -0.2717
  450MOL0     C60661   5.655   6.421   4.729 -1.4212  0.1021  0.2490
  450MOL0     C60662   5.792   6.450   4.736  0.2983  0.2149  0.9061
  450MOL0     O60663   6.086   6.263   4.618 -0.3019 -0.1341  0.9426
  450MOL0     C60664   6.329   6.398   4.691 -0.0760  0.3299  0.0737
  450MOL0     C60665   6.459   6.423   4.723 -0.4046  0.4607 -0.3606
  450MOL0     N60666   7.109   6.745   4.796  1.2894  0.8595  0.3516
  450MOL0     N60667   7.128   6.751   4.671 -0.2576 -0.5410  0.0636
  450MOL0     C60668   8.293   6.783   4.707 -0.4588  0.2068  1.3393
  450MOL0     C60669   8.434   6.762   4.728 -0.2378 -0.2951  0.0332
  450MOL0     C60670   8.875   6.840   4.580  0.4519 -0.5527 -0.3711
  450MOL0     C60671   8.958   6.947   4.536 -1.0570 -0.3639  0.3352
  450MOL0     C60672   9.093   6.930   4.509  0.0678  0.1177  0.2962
  450MOL0     C60673   9.140   6.795   4.522  0.4185  0.3506  0.1002
  450MOL0     O60674   9.273   6.756   4.494 -0.0415  0.1567  0.6361
  450MOL0     C60675   9.359   6.831   4.415  0.7938  0.9076  0.4839
  450MOL0     C60676   9.324   6.807   4.264  0.5249 -0.3802 -0.1060
  450MOL0     C60677   9.435   6.846   4.161  0.0482 -0.2996 -0.4299
  450MOL0     C60678   9.464   6.999   4.149  0.7212  0.1014 -0.0885
  450MOL0     C60679   9.538   7.051   4.271  0.7259  0.7672 -0.3835
  450MOL0     C60680   9.598   7.096   4.359 -1.1974 -0.7257  0.7609
  450MOL0     C60681   9.053   6.691   4.555  0.0349 -0.8055 -0.6338
  450MOL0     C60682   8.920   6.717   4.593 -0.3594 -0.0130  0.3289
  450MOL0     H60683   8.520   6.759   4.391  0.6111 -1.6060  0.8846
  450MOL0     H60684   8.268   6.784   4.366  0.4003  0.7203  0.3545
  450MOL0     H60685   8.002   6.806   4.751 -1.7078 -0.2413 -1.2805
  450MOL0     H60686   8.094   6.958   4.717  2.3588 -0.2813 -1.6409
  450MOL0     H60687   7.846   6.995   4.714  0.6177  0.0886  0.2165
  450MOL0     H60688   7.920   7.016   4.558  2.9950 -0.8803 -0.6466
  450MOL0     H60689   7.839   6.770   4.495 -1.6107 -3.4513  0.8517
  450MOL0     H60690   7.786   6.748   4.662  0.5739  0.0821 -0.3529
  450MOL0     H60691   7.629   6.931   4.612 -0.7607 -0.3573 -0.5438
  450MOL0     H60692   7.676   6.934   4.443  2.2403 -3.1603 -2.1795
  450MOL0     H60693   7.624   6.723   4.404 -0.0718  0.5398 -0.0852
  450MOL0     H60694   7.604   6.673   4.575  0.4676 -1.0685 -0.4341
  450MOL0     H60695   7.396   6.816   4.583  0.2822  3.0125 -0.9052
  450MOL0     H60696   7.394   6.834   4.408 -0.9260 -2.3758 -1.3131
  450MOL0     H60697   7.394   6.593   4.376  1.0089  2.1564 -0.4366
  450MOL0     H60698   7.403   6.572   4.553 -0.4851  3.9294  4.0959
  450MOL0     H60699   7.184   6.536   4.429  0.7989 -0.4227  1.3136
  450MOL0     H60700   7.176   6.715   4.417 -0.0845 -0.9354 -1.9972
  450MOL0     H60701   7.136   6.432   4.695  0.4408 -0.6872  2.1455
  450MOL0     H60702   7.162   6.483   4.982  1.2410  0.9410  0.3520
  450MOL0     H60703   7.057   6.626   5.031  1.4184  1.4721 -1.1938
  450MOL0     H60704   6.933   6.394   5.005  1.3527 -2.5297 -2.1802
  450MOL0     H60705   6.970   6.408   4.836  1.4217  2.1819 -2.7664
  450MOL0     H60706   6.864   6.659   4.897  2.5686  0.3403  1.7214
  450MOL0     H60707   6.786   6.566   5.015  1.0169  1.4808 -0.2175
  450MOL0     H60708   6.769   6.460   4.735  1.7194  0.5153  0.2621
  450MOL0     H60709   6.667   6.589   4.791 -0.7364 -2.8208 -4.1491
  450MOL0     H60710   6.455   6.351   5.054  1.9501 -2.2621 -1.7564
  450MOL0     H60711   6.264   6.237   5.103  0.8974 -0.9894 -0.1078
  450MOL0     H60712   6.131   6.352   5.081 -0.6336 -2.5528  1.7312
  450MOL0     H60713   6.131   6.204   4.981 -0.9974  1.8163 -2.1702
  450MOL0     H60714   5.892   6.152   4.858 -1.2487 -2.9691 -2.6415
  450MOL0     H60715   5.667   6.099   4.847 -0.1515 -0.4232 -0.0361
  450MOL0     H60716   5.352   6.314   4.588  1.3680  4.0829  1.2031
  450MOL0     H60717   5.526   6.274   4.540 -0.6252  1.4175  0.0031
  450MOL0     H60718   5.372   6.093   4.471  1.3786  2.0373 -1.8953
  450MOL0     H60719   5.494   6.046   4.589 -0.0234  0.5099  0.6054
  450MOL0     H60720   5.354   6.027   4.755 -1.8323 -1.3113  1.7300
  450MOL0     H60721   5.272   5.950   4.620 -0.7834 -0.3351  1.7827
  450MOL0     H60722   5.191   6.231   4.737  2.1530 -0.3548  0.0890
  450MOL0     H60723   5.104   6.141   4.611  0.2744  1.8637 -0.0657
  450MOL0     H60724   4.986   6.110   4.820  0.5284 -1.0731 -0.6876
  450MOL0     H60725   5.136   6.084   4.908 -0.3466  0.5685 -0.0775
  450MOL0     H60726   5.140   5.846   4.787 -1.5399 -1.1720  0.6195
  450MOL0     H60727   5.000   5.868   4.886  0.4488 -3.2378 -0.3132
  450MOL0     H60728   5.019   5.907   4.579  1.4120 -1.0324  1.4562
  450MOL0     H60729   4.881   5.964   4.678 -0.1402 -0.3257 -0.9768
  450MOL0     H60730   4.860   5.721   4.768 -2.4239  2.5743 -0.6956
  450MOL0     H60731   4.979   5.683   4.643  1.6566  2.3400  1.0096
  450MOL0     H60732   5.587   6.492   4.682 -1.0662 -0.1198 -0.6030
  450MOL0     H60733   5.829   6.549   4.712  3.3585 -0.4353  2.4263
  450MOL0     H60734   6.302   6.410   4.587 -1.5489 -1.0519  0.2598
  450MOL0     H60735   6.518   6.435   4.633 -0.6535  1.3409 -0.4161
  450MOL0     H60736   8.233   6.779   4.797 -2.0636 -1.4686  0.2557
  450MOL0     H60737   8.471   6.747   4.829 -1.2403 -1.3477  0.2732
  450MOL0     H60738   8.914   7.045   4.521  0.5349  0.8985  3.0965
  450MOL0     H60739   9.162   7.006   4.476 -0.2618  0.0565 -0.5635
  450MOL0     H60740   9.374   6.937   4.438 -0.9186  2.3129 -3.8853
  450MOL0     H60741   9.459   6.788   4.429  0.6624  0.4748  0.1169
  450MOL0     H60742   9.231   6.861   4.244  0.9754 -0.6710 -3.6972
  450MOL0     H60743   9.294   6.704   4.243  1.5438 -0.4366 -1.3799
  450MOL0     H60744   9.393   6.817   4.064  1.7664 -0.8662 -1.0481
  450MOL0     H60745   9.528   6.792   4.183  0.9768  0.7990 -1.5278
  450MOL0     H60746   9.362   7.040   4.146  0.2774 -1.0002 -2.7839
  450MOL0     H60747   9.509   7.030   4.054 -0.8608 -1.1210 -1.3022
  450MOL0     H60748   9.637   7.148   4.445 -0.4829 -1.9193  1.1907
  450MOL0     H60749   9.086   6.588   4.554  0.4105 -0.6963  0.0229
  450MOL0     H60750   8.859   6.638   4.636 -1.6728  1.9648  2.3559
  451MOL0     O60751   3.434   2.904   7.316  0.1066  0.1677  0.2187
  451MOL0     C60752   3.353   2.927   7.409 -1.2357  0.2243  0.1330
  451MOL0     O60753   3.372   2.992   7.527 -0.7572 -0.3017 -0.5940
  451MOL0     C60754   3.505   3.024   7.553 -0.0899 -0.0189  0.6870
  451MOL0     C60755   3.549   3.154   7.533 -0.3841 -0.4408 -0.6106
  451MOL0     C60756   3.688   3.186   7.545  0.4157  0.7352 -0.8986
  451MOL0     C60757   3.779   3.085   7.595 -0.0845  0.2226 -0.1929
  451MOL0     O60758   3.908   3.131   7.585  0.0986 -0.0179 -0.6083
  451MOL0     C60759   4.002   3.056   7.658 -0.4893 -0.2572 -0.1457
  451MOL0     C60760   4.136   3.124   7.656  0.1956  0.0983  0.5851
  451MOL0     C60761   4.258   3.047   7.712 -0.7318 -0.3056  0.6612
  451MOL0     C60762   4.269   2.893   7.663 -0.2792 -1.0060 -0.0930
  451MOL0     C60763   4.405   2.834   7.710 -0.5376 -0.0635  1.1498
  451MOL0     C60764   4.534   2.916   7.726 -0.2747  0.5942  1.5365
  451MOL0     C60765   4.656   2.828   7.769 -0.3497 -0.2602  0.6430
  451MOL0     C60766   4.641   2.738   7.889 -0.0517  0.8378 -0.9269
  451MOL0     N60767   4.651   2.822   8.014 -0.2720  0.1575  0.3063
  451MOL0     C60768   4.540   2.879   8.081 -0.8036  0.3260 -0.8388
  451MOL0     C60769   4.589   2.924   8.196  0.5890  1.1864 -0.2442
  451MOL0     C60770   4.510   2.986   8.310 -0.2984 -0.0550 -0.7023
  451MOL0     C60771   4.489   2.891   8.430  0.3592  0.4962  0.5553
  451MOL0     C60772   4.391   2.949   8.528  0.3764 -0.8729 -0.8079
  451MOL0     C60773   4.365   2.867   8.655  0.0744 -0.0627 -0.1596
  451MOL0     O60774   4.304   2.736   8.616  0.1853 -0.0536  0.0987
  451MOL0     C60775   4.170   2.730   8.585  0.4268  0.4978  0.3513
  451MOL0     C60776   4.117   2.612   8.529 -0.4163 -0.3317  0.8537
  451MOL0     C60777   3.986   2.611   8.482  0.3618  0.6184 -0.2085
  451MOL0     C60778   3.946   2.482   8.411 -0.2976 -0.7959 -0.4285
  451MOL0     C60779   3.901   2.721   8.489 -0.1087  0.2424 -0.0815
  451MOL0     C60780   3.752   2.737   8.446 -0.4341  0.4725 -0.2588
  451MOL0     O60781   3.688   2.851   8.480 -0.0450  0.5788 -0.4082
  451MOL0     C60782   3.557   2.881   8.477 -0.0915  0.1981  0.5778
  451MOL0     C60783   3.494   2.851   8.357  1.7913  0.4161  0.4098
  451MOL0     C60784   3.353   2.897   8.345  0.0416  0.8533 -0.0504
  451MOL0     C60785   3.280   2.967   8.446 -0.7879 -0.2935 -0.4943
  451MOL0     O60786   3.161   3.023   8.424  0.1365 -0.3665  0.2478
  451MOL0     C60787   3.048   2.936   8.418 -0.0633 -0.7373 -0.1731
  451MOL0     C60788   2.937   2.998   8.502 -0.4157  0.3731  1.0807
  451MOL0     C60789   2.973   3.037   8.648  0.3615 -0.4622 -0.3507
  451MOL0     C60790   2.850   3.069   8.736  0.6384 -0.0851 -0.0116
  451MOL0     C60791   2.906   3.111   8.878  0.1831 -0.3863 -0.7300
  451MOL0     C60792   2.956   3.256   8.891 -0.0980  1.0715 -0.1032
  451MOL0     C60793   2.978   3.310   9.038 -0.1346  0.5930 -0.2124
  451MOL0     C60794   2.974   3.458   9.051 -0.3484  0.3326 -0.5945
  451MOL0    Cl60795   3.106   3.557   8.995 -0.0309  0.3476 -0.2510
  451MOL0     C60796   3.358   2.992   8.560 -0.0833  0.4156 -1.0072
  451MOL0     C60797   3.489   2.950   8.579 -1.0414  0.1043  0.5499
  451MOL0     O60798   3.706   2.637   8.382 -0.0014  0.1555 -0.8752
  451MOL0     C60799   3.949   2.829   8.563 -0.2190 -0.3154 -0.2108
  451MOL0     C60800   4.081   2.843   8.598  0.2588  0.8095 -0.3813
  451MOL0     N60801   4.731   2.926   8.183  0.0716 -0.2841  0.1751
  451MOL0     N60802   4.760   2.850   8.084 -0.1325  0.6396 -0.3520
  451MOL0     C60803   3.738   2.958   7.626 -0.0389  0.0840  0.3021
  451MOL0     C60804   3.599   2.934   7.605 -0.8236 -0.0187 -0.2077
  451MOL0     C60805   3.226   2.866   7.381  0.0996 -0.6871 -0.3480
  451MOL0     C60806   3.105   2.924   7.439 -0.1904 -0.0476  0.4205
  451MOL0     C60807   2.983   2.854   7.437 -0.1994 -0.9426  0.4267
  451MOL0     C60808   2.968   2.734   7.368  0.2589 -0.2633 -0.4196
  451MOL0     O60809   2.849   2.665   7.347 -0.1767  0.2994 -0.0243
  451MOL0     C60810   2.733   2.742   7.375  0.4444 -0.3693 -0.4824
  451MOL0     C60811   2.601   2.676   7.326 -0.6955 -0.4839  0.3321
  451MOL0     C60812   2.507   2.617   7.426 -0.5608  0.0080  0.1894
  451MOL0     C60813   2.409   2.524   7.352 -0.0562  0.2631 -0.4727
  451MOL0     C60814   2.298   2.602   7.275  0.1045 -0.1170 -0.4323
  451MOL0     C60815   2.208   2.651   7.213 -0.2050  0.5299  0.7826
  451MOL0     C60816   3.082   2.678   7.310 -0.1371 -0.2300 -0.4590
  451MOL0     C60817   3.209   2.738   7.317 -0.5118 -0.5967  0.3340
  451MOL0     H60818   3.476   3.230   7.508  1.3470  0.8196 -2.0648
  451MOL0     H60819   3.728   3.284   7.521 -1.9041  2.1311  0.4810
  451MOL0     H60820   3.973   3.050   7.764  0.6107  0.3043  0.2088
  451MOL0     H60821   4.001   2.966   7.596 -1.1969  1.6685 -3.1580
  451MOL0     H60822   4.159   3.141   7.550  0.0003 -1.0792  0.3347
  451MOL0     H60823   4.116   3.214   7.714 -2.1492  1.2250 -1.7738
  451MOL0     H60824   4.351   3.096   7.681  0.4176 -2.0207  1.2227
  451MOL0     H60825   4.267   3.066   7.819  0.1640  0.8532  0.4003
  451MOL0     H60826   4.180   2.843   7.702 -0.8275 -1.7989 -2.2413
  451MOL0     H60827   4.273   2.880   7.555 -0.3142 -0.8342 -0.1157
  451MOL0     H60828   4.385   2.811   7.815  0.7536 -1.0660  1.2082
  451MOL0     H60829   4.423   2.739   7.659 -0.5110  1.1217 -1.1791
  451MOL0     H60830   4.566   2.972   7.639  0.3171  2.3656  2.8393
  451MOL0     H60831   4.518   2.993   7.802 -0.7052 -0.3575  2.4389
  451MOL0     H60832   4.695   2.774   7.682 -0.2686  1.2429 -0.2976
  451MOL0     H60833   4.731   2.900   7.804 -2.1945  1.7871  0.5995
  451MOL0     H60834   4.726   2.670   7.894 -1.3679 -1.0437 -2.7735
  451MOL0     H60835   4.548   2.683   7.900 -1.3001  3.0719  0.5369
  451MOL0     H60836   4.437   2.873   8.048 -1.1616  0.3246  0.2354
  451MOL0     H60837   4.562   3.076   8.342  2.4998 -1.8432  0.1206
  451MOL0     H60838   4.409   3.003   8.272 -1.0114 -2.3663 -0.0018
  451MOL0     H60839   4.583   2.862   8.479 -0.2250 -0.5003  1.1162
  451MOL0     H60840   4.449   2.801   8.382  1.6358  0.6901 -0.9754
  451MOL0     H60841   4.297   2.983   8.484  0.4460  2.8663  1.4760
  451MOL0     H60842   4.447   3.035   8.568  0.9692 -1.6641  0.1064
  451MOL0     H60843   4.310   2.928   8.727 -0.4305  1.3986 -1.7335
  451MOL0     H60844   4.463   2.845   8.698  1.5955  2.2371 -2.2510
  451MOL0     H60845   4.177   2.522   8.525  0.1499 -0.0419  2.1946
  451MOL0     H60846   3.921   2.501   8.306  0.8137  0.3816 -0.5074
  451MOL0     H60847   4.014   2.396   8.415  0.5690 -0.2593 -2.4710
  451MOL0     H60848   3.854   2.450   8.461  0.9760 -1.0067  1.9117
  451MOL0     H60849   3.525   2.796   8.269 -2.1793 -2.4649  0.4978
  451MOL0     H60850   3.299   2.880   8.252  2.0791  0.4913 -1.2462
  451MOL0     H60851   3.020   2.928   8.313  2.5945 -3.2640 -0.7988
  451MOL0     H60852   3.075   2.833   8.441  2.5455  0.1766  1.2889
  451MOL0     H60853   2.918   3.089   8.445 -2.5865 -1.0861 -0.7141
  451MOL0     H60854   2.845   2.940   8.488 -1.3154  2.0438 -0.3547
  451MOL0     H60855   3.045   3.119   8.633  0.1037 -0.4878 -1.8944
  451MOL0     H60856   3.030   2.962   8.703  0.3840  1.4605  2.4683
  451MOL0     H60857   2.784   3.147   8.697 -1.7931 -1.5332  0.9635
  451MOL0     H60858   2.789   2.979   8.750 -0.7082  0.5060 -1.7941
  451MOL0     H60859   2.989   3.049   8.915  2.1452  0.7868 -2.9198
  451MOL0     H60860   2.826   3.100   8.952  1.4456 -0.7348  0.6548
  451MOL0     H60861   3.060   3.259   8.857 -0.0646 -2.8049 -0.7333
  451MOL0     H60862   2.894   3.327   8.835  1.5757  2.4299 -0.3182
  451MOL0     H60863   3.076   3.275   9.071  0.8550  1.8475 -1.6852
  451MOL0     H60864   2.895   3.269   9.095  0.1806 -1.0162 -0.8565
  451MOL0     H60865   2.969   3.474   9.159  1.3843 -1.9361 -0.0823
  451MOL0     H60866   2.892   3.505   8.997  0.6561  2.5153 -0.3457
  451MOL0     H60867   3.313   3.054   8.637  0.4302 -0.7549  0.2885
  451MOL0     H60868   3.547   2.972   8.668 -1.1664 -1.1813  0.9745
  451MOL0     H60869   3.895   2.922   8.578  0.7826  0.3016 -0.3535
  451MOL0     H60870   4.113   2.931   8.652  0.4920 -0.4413  1.6530
  451MOL0     H60871   3.806   2.875   7.647  0.4562  0.4245  0.0776
  451MOL0     H60872   3.563   2.838   7.639  1.0983 -0.5382  0.4575
  451MOL0     H60873   3.125   3.024   7.476 -1.1594  0.5892 -0.7383
  451MOL0     H60874   2.896   2.911   7.466  0.8849  0.4645  1.0534
  451MOL0     H60875   2.737   2.763   7.482  2.3011 -0.2578 -0.5325
  451MOL0     H60876   2.742   2.842   7.332  2.4236  1.2626  3.2692
  451MOL0     H60877   2.632   2.594   7.260 -3.7388 -2.4502  1.1270
  451MOL0     H60878   2.555   2.746   7.256 -3.0431 -2.1835  0.0443
  451MOL0     H60879   2.453   2.700   7.473  0.0603  1.8770 -2.1863
  451MOL0     H60880   2.557   2.554   7.500 -2.3244  0.4752  1.8422
  451MOL0     H60881   2.351   2.461   7.420 -1.6016  1.3887 -0.6773
  451MOL0     H60882   2.451   2.466   7.270 -2.4723 -0.8222 -1.0316
  451MOL0     H60883   2.138   2.694   7.144 -0.0302  1.9027  1.4224
  451MOL0     H60884   3.068   2.591   7.247  1.8178 -1.8195  1.1502
  451MOL0     H60885   3.295   2.686   7.276 -0.1877 -3.3969  4.0789
  452MOL0     O60886   5.012   4.688   3.489  0.0630  0.4985  0.1372
  452MOL0     C60887   5.097   4.708   3.573  0.5597  1.7799  0.0343
  452MOL0     O60888   5.114   4.822   3.652 -0.9861 -0.4865 -0.0562
  452MOL0     C60889   5.041   4.933   3.614  0.0977 -1.2420  0.0284
  452MOL0     C60890   5.093   5.036   3.533  1.3626  0.4724  1.0445
  452MOL0     C60891   5.013   5.145   3.489  0.1878  0.8621  0.2235
  452MOL0     C60892   4.871   5.138   3.509 -0.5848 -0.4395 -0.3638
  452MOL0     O60893   4.781   5.226   3.452 -1.1481  0.7371 -0.3321
  452MOL0     C60894   4.834   5.338   3.387  0.9742 -0.3592  0.1866
  452MOL0     C60895   4.718   5.415   3.329 -1.0047  0.4701 -0.3430
  452MOL0     C60896   4.645   5.505   3.429  0.0247  0.2011  0.1117
  452MOL0     C60897   4.569   5.614   3.356  0.1979 -0.0157  0.5208
  452MOL0     C60898   4.672   5.728   3.320 -0.0653  1.4927 -0.0542
  452MOL0     C60899   4.626   5.826   3.214  0.1430 -0.1992  0.3139
  452MOL0     C60900   4.722   5.947   3.194 -0.5528  0.0834  0.8622
  452MOL0     C60901   4.727   6.052   3.301 -0.5321  0.2101 -0.4514
  452MOL0     N60902   4.605   6.126   3.322 -0.2271  0.6315  0.1724
  452MOL0     C60903   4.578   6.255   3.277  1.1736  0.6601 -0.0202
  452MOL0     C60904   4.448   6.278   3.289 -0.0458 -0.0448 -0.0674
  452MOL0     C60905   4.365   6.393   3.245 -0.1930  0.6815  0.4762
  452MOL0     C60906   4.435   6.528   3.276 -0.3716  0.0324  0.6745
  452MOL0     C60907   4.338   6.643   3.262  0.1884  0.2868  0.2391
  452MOL0     C60908   4.244   6.631   3.135 -1.0860  0.8286  0.2127
  452MOL0     O60909   4.158   6.738   3.155 -0.4861 -0.9067  0.4951
  452MOL0     C60910   4.016   6.738   3.133 -0.0828  0.0826  0.2871
  452MOL0     C60911   3.934   6.832   3.185 -0.3482 -0.2570 -0.3921
  452MOL0     C60912   3.797   6.828   3.177  0.0153  0.0700  0.2399
  452MOL0     C60913   3.728   6.945   3.237  0.0833 -0.1499 -0.0783
  452MOL0     C60914   3.729   6.730   3.110 -0.0979  0.1013  0.7406
  452MOL0     C60915   3.577   6.719   3.095 -0.1305  0.8900 -0.2871
  452MOL0     O60916   3.494   6.801   3.164 -0.6276 -0.0744 -0.3267
  452MOL0     C60917   3.360   6.794   3.168  1.0720 -0.1248 -0.7675
  452MOL0     C60918   3.285   6.666   3.194  0.3214  0.2792 -0.4172
  452MOL0     C60919   3.152   6.671   3.174  0.6625 -0.4430  0.0717
  452MOL0     C60920   3.077   6.790   3.152  0.0218  0.7169 -0.6128
  452MOL0     O60921   2.935   6.768   3.154 -0.0734 -0.2434  0.1884
  452MOL0     C60922   2.853   6.860   3.084  0.8385  0.8595  0.4295
  452MOL0     C60923   2.705   6.808   3.069  0.7446  0.9092 -0.5897
  452MOL0     C60924   2.610   6.896   2.996  0.2610  0.3411 -0.4918
  452MOL0     C60925   2.471   6.838   3.006 -0.3651  0.2404 -1.0481
  452MOL0     C60926   2.367   6.909   2.916  0.4086 -0.2683 -0.9483
  452MOL0     C60927   2.222   6.886   2.976 -0.5429  0.3439  0.2108
  452MOL0     C60928   2.112   6.947   2.886  0.3143 -0.4058  0.0300
  452MOL0     C60929   2.120   6.913   2.745 -0.5377 -0.6319 -0.0438
  452MOL0    Cl60930   1.975   6.969   2.659 -0.3843  0.1281  0.1564
  452MOL0     C60931   3.146   6.908   3.128  0.4413 -0.0516  0.2316
  452MOL0     C60932   3.287   6.909   3.143 -0.2902  0.4335  0.4700
  452MOL0     O60933   3.537   6.637   3.019 -0.1124  0.2999 -0.9775
  452MOL0     C60934   3.807   6.634   3.044 -0.3321  0.0669  0.0196
  452MOL0     C60935   3.950   6.636   3.056 -0.3340 -0.5687  0.0758
  452MOL0     N60936   4.397   6.172   3.355 -1.4672 -0.3737 -0.2248
  452MOL0     N60937   4.494   6.083   3.384 -0.3686  0.4503 -0.6168
  452MOL0     C60938   4.827   5.037   3.598  0.7412 -0.4423  0.0156
  452MOL0     C60939   4.906   4.935   3.652 -0.3594 -0.2026 -1.0403
  452MOL0     C60940   5.197   4.602   3.595 -0.5115 -0.3527  0.0309
  452MOL0     C60941   5.181   4.479   3.539 -0.0938  0.1531  0.1471
  452MOL0     C60942   5.266   4.375   3.567  0.8844 -0.3110 -0.2248
  452MOL0     C60943   5.386   4.384   3.636  0.3178  0.6638 -0.0412
  452MOL0     O60944   5.468   4.278   3.645 -0.3841 -0.1334  0.1990
  452MOL0     C60945   5.583   4.285   3.741 -0.6499 -0.4244  0.2585
  452MOL0     C60946   5.708   4.336   3.680  0.0471 -0.1382 -0.3806
  452MOL0     C60947   5.801   4.388   3.791  0.3530  0.6919 -0.0003
  452MOL0     C60948   5.867   4.262   3.852  0.2491 -0.3441 -0.6437
  452MOL0     C60949   5.983   4.279   3.945 -0.6367 -0.6999  0.6759
  452MOL0     C60950   6.073   4.314   4.022  0.2824 -1.0396  0.0396
  452MOL0     C60951   5.410   4.512   3.689  0.1472 -1.0248 -0.1279
  452MOL0     C60952   5.318   4.617   3.671 -0.5686 -0.9243 -0.7606
  452MOL0     H60953   5.198   5.022   3.509  1.5992  0.9920  1.7425
  452MOL0     H60954   5.046   5.230   3.430 -3.3977  2.6238  0.5228
  452MOL0     H60955   4.897   5.398   3.453 -0.4722  2.8279 -1.0731
  452MOL0     H60956   4.902   5.315   3.304 -0.0763  4.1509 -2.3012
  452MOL0     H60957   4.758   5.478   3.249 -2.0257 -0.8756 -1.9936
  452MOL0     H60958   4.634   5.367   3.278 -2.5305  1.3957  1.1786
  452MOL0     H60959   4.566   5.442   3.473 -0.1287  0.2659 -0.0721
  452MOL0     H60960   4.704   5.560   3.503 -0.9320  0.3175  0.8163
  452MOL0     H60961   4.518   5.578   3.266 -0.6262  0.5555  0.7486
  452MOL0     H60962   4.494   5.655   3.425  1.8168 -0.6413  2.7725
  452MOL0     H60963   4.695   5.785   3.411  1.0355  0.1046  0.5795
  452MOL0     H60964   4.766   5.676   3.300  0.2688  1.5116  1.3350
  452MOL0     H60965   4.602   5.778   3.119 -2.5340  1.8271 -0.2015
  452MOL0     H60966   4.527   5.867   3.239 -0.0728  1.3294 -2.5417
  452MOL0     H60967   4.823   5.909   3.175 -1.6752 -1.8037 -2.0921
  452MOL0     H60968   4.697   6.010   3.108 -0.4503 -1.8247 -0.6510
  452MOL0     H60969   4.816   6.115   3.292  0.6058 -1.1304  0.8919
  452MOL0     H60970   4.749   6.006   3.398 -0.8844 -2.5254 -1.5817
  452MOL0     H60971   4.658   6.320   3.243  1.8320 -0.7494 -1.2887
  452MOL0     H60972   4.362   6.373   3.137 -0.1122  1.3240  0.3467
  452MOL0     H60973   4.267   6.404   3.293 -0.6899 -2.4531  0.3547
  452MOL0     H60974   4.513   6.541   3.200 -1.5411 -1.6482 -0.9065
  452MOL0     H60975   4.494   6.534   3.368  1.9757  3.0679 -0.8212
  452MOL0     H60976   4.397   6.735   3.248  0.9580  0.1479  2.2220
  452MOL0     H60977   4.274   6.661   3.348 -0.5523 -0.2057 -0.2076
  452MOL0     H60978   4.190   6.537   3.124  1.5794 -0.9128  1.1706
  452MOL0     H60979   4.305   6.646   3.046  0.9830  1.1280  1.6064
  452MOL0     H60980   3.979   6.919   3.234  1.9876 -1.1871 -0.7436
  452MOL0     H60981   3.798   7.023   3.270  1.1075 -0.0273 -2.3798
  452MOL0     H60982   3.668   6.994   3.160 -1.9044 -1.0356  0.8391
  452MOL0     H60983   3.663   6.918   3.321 -0.9462 -0.8541 -1.0769
  452MOL0     H60984   3.330   6.574   3.230 -1.6380 -1.7556 -2.7562
  452MOL0     H60985   3.097   6.579   3.194 -1.7917  1.4112  2.5939
  452MOL0     H60986   2.852   6.956   3.137  2.3087  0.3810  1.3959
  452MOL0     H60987   2.902   6.872   2.987  0.5789 -1.0932  0.0276
  452MOL0     H60988   2.700   6.714   3.014  1.2107  1.9014 -2.4324
  452MOL0     H60989   2.662   6.791   3.168  1.2639 -2.3304 -0.8333
  452MOL0     H60990   2.641   6.897   2.891 -0.3868 -2.1543 -0.7763
  452MOL0     H60991   2.622   6.996   3.040  3.2783 -0.9160  1.9225
  452MOL0     H60992   2.479   6.730   2.989 -1.1791 -0.4525  2.1761
  452MOL0     H60993   2.444   6.839   3.112  0.2707 -3.7694 -0.6744
  452MOL0     H60994   2.385   6.875   2.813  0.2027 -3.9747  0.0697
  452MOL0     H60995   2.380   7.017   2.905 -3.9912  0.2171 -3.6230
  452MOL0     H60996   2.209   6.778   2.991  4.2647 -0.6311 -1.0632
  452MOL0     H60997   2.224   6.951   3.064  0.2192  1.5422 -0.6673
  452MOL0     H60998   2.112   7.056   2.893 -1.1388 -0.2291 -1.8319
  452MOL0     H60999   2.008   6.923   2.909  0.6680 -2.5850 -0.4666
  452MOL0     H61000   2.122   6.804   2.731  1.0780 -0.4312 -1.7563
  452MOL0     H61001   2.207   6.959   2.697  1.1246  1.0535  4.1087
  452MOL0     H61002   3.092   7.000   3.107 -0.4986 -0.8190 -0.8385
  452MOL0     H61003   3.339   6.997   3.107  0.8668 -0.9692 -1.4590
  452MOL0     H61004   3.771   6.551   2.983 -1.0085  2.6221 -3.4030
  452MOL0     H61005   3.999   6.552   3.008 -1.3099  0.0300 -2.0958
  452MOL0     H61006   4.721   5.016   3.605  1.0788 -4.7856 -3.2142
  452MOL0     H61007   4.862   4.862   3.718  0.0355 -1.9965 -2.6646
  452MOL0     H61008   5.108   4.445   3.466  0.0132 -3.8714  1.6549
  452MOL0     H61009   5.221   4.287   3.523  1.3249 -0.1781 -0.9534
  452MOL0     H61010   5.553   4.343   3.829  0.6979  1.8793 -0.7023
  452MOL0     H61011   5.594   4.182   3.778 -0.6204 -1.7556 -3.1532
  452MOL0     H61012   5.687   4.424   3.618  1.7607  0.7767  0.2617
  452MOL0     H61013   5.747   4.258   3.614 -2.9087 -3.0855  1.0708
  452MOL0     H61014   5.753   4.457   3.861  0.9125  2.7383 -1.5420
  452MOL0     H61015   5.884   4.449   3.753 -0.2378  0.5227 -1.6599
  452MOL0     H61016   5.909   4.203   3.770  1.5856 -1.2751  0.6544
  452MOL0     H61017   5.798   4.201   3.912 -0.1923  0.6882 -0.0916
  452MOL0     H61018   6.144   4.375   4.074 -0.0163  0.2892 -1.0574
  452MOL0     H61019   5.492   4.549   3.750 -0.3980  2.9684 -1.5588
  452MOL0     H61020   5.339   4.717   3.710 -2.8401 -1.1281  1.1749
  453MOL0     O61021   1.072   4.615   0.662  0.2339 -0.0869 -1.3437
  453MOL0     C61022   1.084   4.583   0.777  0.6880  0.3295 -0.1584
  453MOL0     O61023   0.987   4.597   0.872  0.1700 -0.4304  0.6282
  453MOL0     C61024   0.858   4.599   0.831 -0.6277 -0.3551  0.4324
  453MOL0     C61025   0.806   4.509   0.735 -0.0775 -0.8006  0.5888
  453MOL0     C61026   0.667   4.522   0.692 -0.4526  0.3351  0.1266
  453MOL0     C61027   0.588   4.629   0.749  0.2029  0.3896 -0.5037
  453MOL0     O61028   0.466   4.666   0.694 -0.7768  0.1780  0.3545
  453MOL0     C61029   0.391   4.559   0.633  0.0932 -0.6812  1.0308
  453MOL0     C61030   0.242   4.603   0.636  0.0006  0.5458 -0.6983
  453MOL0     C61031   0.191   4.612   0.777  0.6171 -1.2207  1.5493
  453MOL0     C61032   0.042   4.584   0.769 -0.4093  1.5740  0.1894
  453MOL0     C61033  -0.038   4.702   0.717  0.8032  0.4545  0.5802
  453MOL0     C61034  -0.009   4.842   0.772  0.1066  0.2793  0.1327
  453MOL0     C61035  -0.017   4.845   0.920  0.1691  0.1996 -0.7635
  453MOL0     C61036   0.015   4.978   0.991  0.1443 -0.0604 -0.7194
  453MOL0     N61037  -0.050   5.096   0.932 -0.2210 -0.0255  0.7112
  453MOL0     C61038  -0.183   5.126   0.943 -0.3309  0.1348 -0.5081
  453MOL0     C61039  -0.201   5.251   0.888  1.0598 -0.9028 -0.4535
  453MOL0     C61040  -0.336   5.316   0.866  0.9130 -0.3977  0.5544
  453MOL0     C61041  -0.397   5.371   0.995 -0.6804 -0.0314  0.3099
  453MOL0     C61042  -0.519   5.439   0.951  0.3126  0.8094  0.4342
  453MOL0     C61043  -0.592   5.509   1.061 -0.5163  0.9246  0.6122
  453MOL0     O61044  -0.699   5.590   1.011 -0.1819 -0.2530 -0.0523
  453MOL0     C61045  -0.823   5.549   1.059  0.2504  0.4602  0.0037
  453MOL0     C61046  -0.859   5.414   1.048 -0.1695  0.0979 -0.3027
  453MOL0     C61047  -0.977   5.366   1.101 -0.1254  0.6129  0.3390
  453MOL0     C61048  -1.002   5.220   1.085 -0.8685  1.0884 -0.0184
  453MOL0     C61049  -1.071   5.457   1.158  0.0243  0.4764 -0.7629
  453MOL0     C61050  -1.202   5.418   1.203 -1.1907  0.0667  0.2587
  453MOL0     O61051  -1.204   5.304   1.284 -0.2071 -0.2275 -0.7930
  453MOL0     C61052  -1.322   5.238   1.305  0.5935  0.2851 -0.6578
  453MOL0     C61053  -1.335   5.193   1.444  0.4017 -0.5511 -0.1210
  453MOL0     C61054  -1.464   5.153   1.484  0.0259 -0.2441  0.1102
  453MOL0     C61055  -1.566   5.138   1.386  1.0931 -1.1965  0.3553
  453MOL0     O61056  -1.677   5.078   1.436  0.1764  0.1864  0.4108
  453MOL0     C61057  -1.793   5.073   1.347 -0.7304 -0.1842 -1.1718
  453MOL0     C61058  -1.921   5.021   1.417 -0.8604  0.7164 -0.1408
  453MOL0     C61059  -1.946   5.101   1.543 -0.4957 -1.0978 -0.2360
  453MOL0     C61060  -1.990   5.015   1.659  0.0738  0.2163  0.0270
  453MOL0     C61061  -2.012   5.088   1.796  0.3096 -0.4067 -0.9972
  453MOL0     C61062  -1.886   5.102   1.879  0.0547  0.0796 -0.1307
  453MOL0     C61063  -1.839   4.975   1.964 -0.4931  0.7308 -0.0388
  453MOL0     C61064  -1.715   5.012   2.050 -0.0629 -0.0744 -0.7090
  453MOL0    Cl61065  -1.685   4.888   2.180  0.0794  0.1957  0.6184
  453MOL0     C61066  -1.536   5.156   1.250  0.0853 -0.7759 -0.8617
  453MOL0     C61067  -1.416   5.217   1.211 -0.7975 -0.0920  0.1461
  453MOL0     O61068  -1.302   5.476   1.162 -1.0070 -0.0690  0.1744
  453MOL0     C61069  -1.034   5.596   1.177 -1.0899 -0.0945  1.1997
  453MOL0     C61070  -0.913   5.640   1.125 -0.0575  0.7432  0.1327
  453MOL0     N61071  -0.078   5.299   0.854 -0.2015 -0.3274 -0.4796
  453MOL0     N61072   0.008   5.205   0.877  0.8355  0.1374  0.3001
  453MOL0     C61073   0.639   4.711   0.854 -0.3704  0.0892  0.3090
  453MOL0     C61074   0.773   4.693   0.885 -0.2455  1.0386 -0.6395
  453MOL0     C61075   1.222   4.552   0.817 -0.0742  0.4726  0.6442
  453MOL0     C61076   1.281   4.592   0.939 -0.2606  0.0483 -0.7431
  453MOL0     C61077   1.409   4.559   0.978 -0.3476 -1.0534 -0.1658
  453MOL0     C61078   1.492   4.486   0.889  0.0783 -0.0088  0.0166
  453MOL0     O61079   1.624   4.460   0.913  0.2154 -0.1442 -0.6188
  453MOL0     C61080   1.677   4.477   1.054  0.4409 -0.0468  0.3619
  453MOL0     C61081   1.727   4.621   1.085  0.9112  0.0656 -0.5343
  453MOL0     C61082   1.876   4.635   1.091  0.5038 -0.3667 -0.7665
  453MOL0     C61083   1.942   4.618   0.959 -1.0107  0.4613 -0.1113
  453MOL0     C61084   2.091   4.604   0.992 -0.5026  0.4638  0.2918
  453MOL0     C61085   2.208   4.592   1.031 -0.0403 -0.0522 -0.1241
  453MOL0     C61086   1.435   4.440   0.769 -0.0047 -0.0158  0.2411
  453MOL0     C61087   1.303   4.475   0.733 -0.0330 -0.1816  0.9805
  453MOL0     H61088   0.869   4.429   0.698  2.2869  0.2021  2.1872
  453MOL0     H61089   0.649   4.442   0.621 -0.1621 -0.8011  1.2960
  453MOL0     H61090   0.428   4.558   0.530  1.3093  5.1009  1.0816
  453MOL0     H61091   0.414   4.468   0.688 -0.0095 -0.0193  2.1897
  453MOL0     H61092   0.227   4.698   0.584 -2.5030 -0.0758 -1.2642
  453MOL0     H61093   0.189   4.523   0.585 -0.9710 -0.3193  1.5372
  453MOL0     H61094   0.242   4.534   0.835  0.2690 -1.7477  1.1612
  453MOL0     H61095   0.214   4.709   0.822 -2.1801 -0.3612  1.3309
  453MOL0     H61096   0.020   4.494   0.709  0.0230  0.8262  1.1259
  453MOL0     H61097   0.005   4.562   0.869 -3.1107 -0.6712 -1.1324
  453MOL0     H61098  -0.026   4.704   0.608  0.9156 -0.3429  0.5764
  453MOL0     H61099  -0.142   4.679   0.737  1.2581 -2.5349  0.0048
  453MOL0     H61100   0.083   4.889   0.735 -0.3088  0.5541 -0.5756
  453MOL0     H61101  -0.095   4.901   0.739 -0.1402 -0.8896 -1.4635
  453MOL0     H61102  -0.125   4.831   0.932  0.0579  0.9240 -0.8720
  453MOL0     H61103   0.027   4.753   0.961 -4.8702 -2.3183 -0.2323
  453MOL0     H61104   0.124   4.994   0.990  0.5329 -2.2498 -3.0775
  453MOL0     H61105  -0.020   4.960   1.093 -1.4963  3.3930 -0.5168
  453MOL0     H61106  -0.257   5.054   0.976 -0.8437 -0.8032 -3.4415
  453MOL0     H61107  -0.324   5.386   0.783  2.4390 -2.5276 -1.1447
  453MOL0     H61108  -0.406   5.241   0.828  0.7191  0.6026 -1.1760
  453MOL0     H61109  -0.329   5.442   1.044 -0.1169 -0.1760 -0.2433
  453MOL0     H61110  -0.416   5.292   1.068 -1.7841  1.3860  1.6416
  453MOL0     H61111  -0.579   5.367   0.894 -2.6578  3.6466 -0.2862
  453MOL0     H61112  -0.500   5.516   0.876 -0.0724  0.0199 -0.4950
  453MOL0     H61113  -0.526   5.575   1.118 -0.6712 -0.1748  2.1411
  453MOL0     H61114  -0.617   5.431   1.134 -0.4888  1.2902  1.0176
  453MOL0     H61115  -0.790   5.350   0.994 -3.1613 -1.6633 -2.3358
  453MOL0     H61116  -0.931   5.171   1.018 -1.0078  0.1451  0.5173
  453MOL0     H61117  -0.997   5.176   1.185 -0.9075 -0.8337 -0.8236
  453MOL0     H61118  -1.104   5.204   1.048 -1.8115  1.7691  2.1572
  453MOL0     H61119  -1.256   5.216   1.514  1.3189 -2.9948 -0.2367
  453MOL0     H61120  -1.482   5.140   1.591  1.0616 -0.1031  0.3045
  453MOL0     H61121  -1.813   5.177   1.319 -0.0215  0.0437 -0.8410
  453MOL0     H61122  -1.782   5.029   1.247 -2.9938  1.3785 -2.1877
  453MOL0     H61123  -2.005   5.025   1.348  0.8531 -0.0890 -2.3980
  453MOL0     H61124  -1.898   4.915   1.431 -1.8986  0.4124 -0.6730
  453MOL0     H61125  -2.025   5.172   1.517 -0.1412 -0.5639  0.1320
  453MOL0     H61126  -1.854   5.152   1.572 -0.1497  0.1131 -3.1384
  453MOL0     H61127  -2.090   4.973   1.644 -0.2735  0.5174  1.3290
  453MOL0     H61128  -1.922   4.931   1.675 -0.5101 -0.1317  0.7910
  453MOL0     H61129  -2.085   5.026   1.849  2.5918 -2.3311  0.0872
  453MOL0     H61130  -2.060   5.186   1.791 -0.1137 -0.6128 -1.0132
  453MOL0     H61131  -1.803   5.142   1.821  1.2110 -1.0773  0.6474
  453MOL0     H61132  -1.899   5.178   1.957  3.9699  1.3015 -0.4402
  453MOL0     H61133  -1.825   4.883   1.906  0.0885  1.4442 -1.0559
  453MOL0     H61134  -1.930   4.966   2.024 -0.1591 -0.8006  0.2834
  453MOL0     H61135  -1.744   5.101   2.106  1.9267 -0.6577  1.3863
  453MOL0     H61136  -1.629   5.037   1.987  0.1712  1.8357  0.2781
  453MOL0     H61137  -1.616   5.135   1.180 -0.5274 -2.9864  0.4059
  453MOL0     H61138  -1.402   5.238   1.106 -2.8641 -4.8096 -1.3598
  453MOL0     H61139  -1.083   5.670   1.239 -0.5516 -0.2976  1.8859
  453MOL0     H61140  -0.880   5.742   1.141  2.0303  0.2182 -0.4612
  453MOL0     H61141   0.575   4.791   0.890  0.0899  0.1572  0.9953
  453MOL0     H61142   0.825   4.751   0.961 -0.5494  0.7049 -0.1757
  453MOL0     H61143   1.221   4.637   1.017  0.1214 -3.9447  2.1780
  453MOL0     H61144   1.438   4.597   1.076 -1.0135 -1.5952  0.2499
  453MOL0     H61145   1.596   4.454   1.124  0.7382  0.2804  0.8135
  453MOL0     H61146   1.759   4.407   1.071 -0.4514 -2.3457 -3.5540
  453MOL0     H61147   1.679   4.647   1.180  1.8340 -1.1975  0.3111
  453MOL0     H61148   1.683   4.703   1.027  0.0850  2.0193  2.5939
  453MOL0     H61149   1.914   4.564   1.166 -0.4958  0.9902  1.0870
  453MOL0     H61150   1.886   4.739   1.123  0.0237 -1.0621  1.9645
  453MOL0     H61151   1.936   4.708   0.897 -0.8358 -1.0283 -2.4060
  453MOL0     H61152   1.913   4.523   0.912  2.9491 -1.4287  0.8268
  453MOL0     H61153   2.313   4.589   1.053  0.1864 -0.6567 -1.2364
  453MOL0     H61154   1.502   4.388   0.700 -0.2843 -0.5580  0.3766
  453MOL0     H61155   1.257   4.446   0.639  0.2389 -0.6138  0.9766
  454MOL0     O61156   0.888   6.558   4.110  0.8662  0.3148 -0.1725
  454MOL0     C61157   0.985   6.509   4.175  0.7949  0.0225 -0.2262
  454MOL0     O61158   0.970   6.445   4.297  0.0704  0.2515 -0.2016
  454MOL0     C61159   0.839   6.417   4.333  0.4779  0.4425 -0.1362
  454MOL0     C61160   0.728   6.507   4.360 -0.1901 -0.4142 -0.1065
  454MOL0     C61161   0.602   6.470   4.405 -0.2259 -0.4405 -0.2193
  454MOL0     C61162   0.578   6.342   4.441 -0.0085  0.4579  0.3102
  454MOL0     O61163   0.457   6.294   4.474  0.0344 -0.5848  0.1144
  454MOL0     C61164   0.390   6.357   4.586  0.6792 -0.0271  0.3455
  454MOL0     C61165   0.240   6.304   4.566 -1.2235  0.3585  0.7613
  454MOL0     C61166   0.152   6.357   4.678  0.1426 -0.4715  0.9471
  454MOL0     C61167   0.026   6.275   4.671  0.2176  0.9173  0.0749
  454MOL0     C61168  -0.083   6.347   4.767  0.4026  0.5876  0.0130
  454MOL0     C61169  -0.209   6.263   4.790 -0.4472  0.3990  0.3778
  454MOL0     C61170  -0.300   6.319   4.899 -0.4648 -0.5389 -0.7728
  454MOL0     C61171  -0.349   6.201   4.992 -0.0286 -0.4942 -0.2581
  454MOL0     N61172  -0.436   6.253   5.102  0.3987  0.2552 -0.1567
  454MOL0     C61173  -0.559   6.304   5.083  0.2929  0.6401 -0.7375
  454MOL0     C61174  -0.605   6.354   5.202  0.0978  0.4120 -0.2673
  454MOL0     C61175  -0.744   6.408   5.231  0.9468  0.8396  0.0600
  454MOL0     C61176  -0.785   6.505   5.121 -0.4598  0.1126 -0.0941
  454MOL0     C61177  -0.939   6.533   5.135  0.0873 -0.9704 -0.0278
  454MOL0     C61178  -0.981   6.595   5.008 -0.1486 -0.0190  0.7116
  454MOL0     O61179  -0.980   6.493   4.901 -0.4910  1.0263  0.2250
  454MOL0     C61180  -1.093   6.461   4.826 -0.6299 -0.2541  0.0322
  454MOL0     C61181  -1.100   6.332   4.785 -0.0760  0.2317 -0.1126
  454MOL0     C61182  -1.215   6.287   4.721  0.8249 -0.3057  0.0213
  454MOL0     C61183  -1.251   6.140   4.709  0.4094  0.0480 -0.1702
  454MOL0     C61184  -1.314   6.383   4.669 -0.1624  0.2756  0.2348
  454MOL0     C61185  -1.449   6.338   4.604 -0.5125 -0.0051  0.0109
  454MOL0     O61186  -1.544   6.446   4.600 -0.1707 -0.0462  0.6998
  454MOL0     C61187  -1.665   6.426   4.534  0.3817 -0.0565  0.1858
  454MOL0     C61188  -1.787   6.474   4.586 -0.8079 -0.8229 -0.3072
  454MOL0     C61189  -1.912   6.458   4.528  0.1143 -0.1647  1.5910
  454MOL0     C61190  -1.924   6.389   4.403 -0.8257 -0.2701 -0.0234
  454MOL0     O61191  -2.051   6.361   4.358 -0.5036 -0.2861  0.6084
  454MOL0     C61192  -2.079   6.282   4.245 -0.3979  0.3756  0.4377
  454MOL0     C61193  -2.228   6.248   4.252 -0.2363  0.5877  0.6467
  454MOL0     C61194  -2.314   6.376   4.243  0.0295 -0.5823  0.9993
  454MOL0     C61195  -2.470   6.340   4.237 -1.0515  0.1907 -0.3736
  454MOL0     C61196  -2.551   6.471   4.274 -0.0414  0.0446 -0.5895
  454MOL0     C61197  -2.701   6.446   4.251  0.5261 -0.5280  0.0092
  454MOL0     C61198  -2.732   6.455   4.096 -0.3558 -0.0668 -0.0613
  454MOL0     C61199  -2.851   6.372   4.047 -0.3062 -0.6592  0.4632
  454MOL0    Cl61200  -3.011   6.410   4.121 -0.5788  0.0501  0.0921
  454MOL0     C61201  -1.805   6.342   4.346 -0.5418 -0.4234  0.1707
  454MOL0     C61202  -1.685   6.357   4.407 -0.2242  0.3224 -1.3362
  454MOL0     O61203  -1.458   6.238   4.536  0.0569  0.2007 -0.4294
  454MOL0     C61204  -1.297   6.517   4.711 -0.6529 -0.0347  0.1694
  454MOL0     C61205  -1.188   6.555   4.789  0.6234 -0.1120  0.5419
  454MOL0     N61206  -0.507   6.317   5.293 -0.0636  0.5758 -0.1838
  454MOL0     N61207  -0.399   6.264   5.236 -0.2769  0.4383 -0.6265
  454MOL0     C61208   0.681   6.249   4.410  0.6729 -0.0083 -0.1900
  454MOL0     C61209   0.809   6.280   4.361  1.1220 -0.4323  0.3201
  454MOL0     C61210   1.118   6.542   4.136 -0.9582  0.6805  0.5970
  454MOL0     C61211   1.145   6.594   4.003  0.0692  0.8066  0.7449
  454MOL0     C61212   1.277   6.623   3.973  0.2559  0.5639 -0.1502
  454MOL0     C61213   1.380   6.606   4.058 -0.7611 -0.4032  0.3499
  454MOL0     O61214   1.506   6.628   4.008 -0.3160 -0.1357  0.0575
  454MOL0     C61215   1.623   6.626   4.089 -0.4283  0.2509 -0.4735
  454MOL0     C61216   1.737   6.639   3.994  0.8525 -0.4122 -0.3085
  454MOL0     C61217   1.876   6.614   4.062  0.4052  0.5958 -0.6713
  454MOL0     C61218   1.995   6.625   3.961  0.3419  0.9410 -0.3702
  454MOL0     C61219   2.001   6.757   3.900  0.2670  0.0908 -0.2659
  454MOL0     C61220   2.011   6.872   3.868 -0.2364  0.1151 -0.8138
  454MOL0     C61221   1.352   6.548   4.188 -0.6789  0.8107  1.2256
  454MOL0     C61222   1.223   6.518   4.230 -0.0370  0.2419  0.2827
  454MOL0     H61223   0.743   6.612   4.339  3.6605 -0.7754  0.0531
  454MOL0     H61224   0.520   6.539   4.417 -1.3262 -2.1887  4.1657
  454MOL0     H61225   0.428   6.317   4.680 -1.1349 -1.7583  0.4022
  454MOL0     H61226   0.396   6.466   4.579 -0.4987  0.2024  2.1842
  454MOL0     H61227   0.207   6.314   4.462 -0.7130  3.2817  0.8012
  454MOL0     H61228   0.251   6.195   4.574 -1.2625  0.1811 -1.1107
  454MOL0     H61229   0.205   6.346   4.773 -0.7651 -0.4471  1.4639
  454MOL0     H61230   0.119   6.460   4.664 -0.1000 -0.8469 -1.6714
  454MOL0     H61231  -0.023   6.278   4.573  0.9352  3.0083 -0.2749
  454MOL0     H61232   0.038   6.168   4.689  4.2256  1.0605 -0.8370
  454MOL0     H61233  -0.026   6.392   4.849  0.1141  0.1169  0.4731
  454MOL0     H61234  -0.116   6.435   4.710  2.1120  0.4959 -1.1825
  454MOL0     H61235  -0.260   6.270   4.693  0.4151  0.7350 -0.0674
  454MOL0     H61236  -0.169   6.164   4.811  0.1435  0.5683  0.0892
  454MOL0     H61237  -0.250   6.400   4.953 -0.4586  0.5504 -2.3453
  454MOL0     H61238  -0.386   6.362   4.847 -0.0831  0.7949 -0.3524
  454MOL0     H61239  -0.258   6.155   5.030  0.7529  1.3321  0.1882
  454MOL0     H61240  -0.400   6.122   4.937 -1.0129 -1.0236  1.3535
  454MOL0     H61241  -0.617   6.307   4.991 -0.9271  2.8384  0.0097
  454MOL0     H61242  -0.814   6.325   5.233  0.2972  1.3814  0.4724
  454MOL0     H61243  -0.756   6.464   5.325 -1.1077  1.9706 -0.8090
  454MOL0     H61244  -0.772   6.448   5.028  1.2130  0.3210 -0.0245
  454MOL0     H61245  -0.733   6.600   5.115 -3.1777  1.7036 -0.0848
  454MOL0     H61246  -0.956   6.606   5.215  0.6508  0.3474 -1.0663
  454MOL0     H61247  -1.002   6.443   5.135 -3.6035  1.3791 -0.7633
  454MOL0     H61248  -0.923   6.684   4.980  1.4861 -1.0424  0.6471
  454MOL0     H61249  -1.083   6.628   5.029  0.1398  0.8246  0.8166
  454MOL0     H61250  -1.031   6.256   4.819  2.2455  2.1777 -0.1542
  454MOL0     H61251  -1.235   6.112   4.604 -1.7660  1.5284 -0.9625
  454MOL0     H61252  -1.185   6.084   4.776 -0.2590  2.1776  2.4573
  454MOL0     H61253  -1.354   6.115   4.734  0.2433 -0.0756 -0.9447
  454MOL0     H61254  -1.786   6.525   4.682 -2.2379 -1.5419  0.1133
  454MOL0     H61255  -2.008   6.492   4.567 -1.0392  1.2301 -2.0278
  454MOL0     H61256  -2.060   6.337   4.152  1.3335 -2.5120 -1.1034
  454MOL0     H61257  -2.036   6.182   4.233 -0.2757  0.4967 -0.1482
  454MOL0     H61258  -2.241   6.176   4.170  1.2498 -1.0101  1.7520
  454MOL0     H61259  -2.250   6.191   4.342  1.0144 -1.0224 -0.0352
  454MOL0     H61260  -2.290   6.426   4.149 -0.2875 -0.3463  1.0452
  454MOL0     H61261  -2.285   6.447   4.320 -0.0494  0.7631 -0.1573
  454MOL0     H61262  -2.504   6.304   4.140 -0.0024  1.0244 -1.0823
  454MOL0     H61263  -2.486   6.258   4.308 -1.4958 -1.8449 -2.6991
  454MOL0     H61264  -2.513   6.552   4.211  0.9808  0.2547  0.2761
  454MOL0     H61265  -2.525   6.495   4.377  2.2564 -2.0282 -0.5862
  454MOL0     H61266  -2.734   6.352   4.297 -3.0031  0.8921  0.6129
  454MOL0     H61267  -2.751   6.522   4.311 -1.4058 -0.1839 -1.9159
  454MOL0     H61268  -2.640   6.422   4.048 -0.1328  0.8470 -0.2846
  454MOL0     H61269  -2.740   6.562   4.077 -2.2719  0.1497  1.6111
  454MOL0     H61270  -2.830   6.267   4.069  0.4591 -0.3674  1.1642
  454MOL0     H61271  -2.843   6.379   3.938  0.7300  6.0512  0.5533
  454MOL0     H61272  -1.812   6.273   4.263  0.5194  0.4244 -0.6501
  454MOL0     H61273  -1.592   6.327   4.361 -0.4430 -1.9889 -0.3822
  454MOL0     H61274  -1.370   6.596   4.701 -0.2352  0.5797  1.7075
  454MOL0     H61275  -1.172   6.659   4.812  1.0337 -0.1873  0.6023
  454MOL0     H61276   0.666   6.145   4.438 -1.6687 -0.0023 -1.1874
  454MOL0     H61277   0.877   6.199   4.337  0.1040 -0.4318 -3.0354
  454MOL0     H61278   1.074   6.619   3.925  2.0168  0.0122 -1.4161
  454MOL0     H61279   1.295   6.667   3.875 -0.8184  0.5369 -0.3817
  454MOL0     H61280   1.628   6.720   4.146 -0.3181  0.4808 -0.8610
  454MOL0     H61281   1.627   6.536   4.151  0.1492  1.0309  0.6700
  454MOL0     H61282   1.739   6.735   3.941  0.6385 -2.2023 -3.8750
  454MOL0     H61283   1.724   6.561   3.918  2.9847 -0.6102 -0.5321
  454MOL0     H61284   1.874   6.513   4.106 -4.3280 -0.0325 -1.7769
  454MOL0     H61285   1.890   6.687   4.142  0.6205  0.3236 -0.4591
  454MOL0     H61286   1.981   6.545   3.887 -0.8133  1.4450 -0.7152
  454MOL0     H61287   2.084   6.609   4.022 -1.3559 -1.7750  1.6243
  454MOL0     H61288   2.023   6.977   3.851  0.6942  0.4198  1.2750
  454MOL0     H61289   1.427   6.536   4.266  0.3578 -2.5317 -0.1211
  454MOL0     H61290   1.210   6.469   4.325 -1.4144 -1.4051 -0.6959
  455MOL0     O61291   2.114   5.960   3.961  0.1163  0.4020  0.4588
  455MOL0     C61292   2.112   5.931   3.839 -0.2118  0.2271  0.1429
  455MOL0     O61293   2.010   5.958   3.748 -0.0084 -0.2207  0.5603
  455MOL0     C61294   1.886   6.006   3.787 -0.0555 -0.1444 -0.2501
  455MOL0     C61295   1.866   6.112   3.876  0.5362  0.1736 -0.8688
  455MOL0     C61296   1.735   6.156   3.906 -0.6430 -0.4871 -0.0783
  455MOL0     C61297   1.624   6.090   3.849 -0.6892 -1.0196 -1.1590
  455MOL0     O61298   1.496   6.122   3.903 -0.0163  0.4302  0.2207
  455MOL0     C61299   1.445   6.256   3.916 -0.8870 -0.3758  0.6671
  455MOL0     C61300   1.299   6.246   3.876 -0.0791 -0.6024 -0.1013
  455MOL0     C61301   1.219   6.178   3.985 -0.6339 -0.3170 -0.4154
  455MOL0     C61302   1.075   6.175   3.941 -0.6394 -0.0182  0.7746
  455MOL0     C61303   0.971   6.110   4.037 -0.7233 -1.1884  0.2138
  455MOL0     C61304   0.830   6.096   3.972 -0.5933 -0.3963  0.4966
  455MOL0     C61305   0.735   6.033   4.067  0.0700  0.3750  0.2303
  455MOL0     C61306   0.594   6.040   4.012  0.1790 -0.3306 -0.1347
  455MOL0     N61307   0.489   5.969   4.086  0.4256  0.9744 -0.6046
  455MOL0     C61308   0.440   6.010   4.202 -0.4924 -0.0495  0.7676
  455MOL0     C61309   0.351   5.920   4.234 -0.5113  0.4436  0.0151
  455MOL0     C61310   0.256   5.943   4.350  0.8311 -1.2906 -0.5933
  455MOL0     C61311   0.120   5.894   4.321  0.8506  0.4644  0.0152
  455MOL0     C61312   0.017   5.915   4.441 -0.2505  0.5601  0.3108
  455MOL0     C61313  -0.126   5.879   4.392 -0.1367  0.8333 -1.0168
  455MOL0     O61314  -0.210   5.859   4.505  0.1716  0.1156 -0.0395
  455MOL0     C61315  -0.321   5.785   4.500 -0.0736  0.2773 -0.2390
  455MOL0     C61316  -0.362   5.723   4.381  0.7276  0.2323  0.0436
  455MOL0     C61317  -0.480   5.645   4.378 -0.1871 -0.6041  0.1184
  455MOL0     C61318  -0.526   5.572   4.249 -0.6578  0.4698 -0.0149
  455MOL0     C61319  -0.552   5.611   4.501  0.0715 -0.1298  0.2169
  455MOL0     C61320  -0.668   5.526   4.505  0.3782  0.3223 -0.3347
  455MOL0     O61321  -0.753   5.577   4.593  0.1428 -0.2037  0.5094
  455MOL0     C61322  -0.871   5.508   4.629 -0.3405  0.4952 -0.2681
  455MOL0     C61323  -0.994   5.559   4.575 -0.5437  0.4819 -1.0265
  455MOL0     C61324  -1.115   5.513   4.628  0.5871  0.2618 -0.9808
  455MOL0     C61325  -1.122   5.417   4.732 -0.2027 -0.0923  0.0780
  455MOL0     O61326  -1.239   5.362   4.779  0.5030 -0.4896 -0.2475
  455MOL0     C61327  -1.357   5.446   4.779 -0.2362 -0.5227 -0.0842
  455MOL0     C61328  -1.434   5.432   4.646  0.1461  0.8364  0.2609
  455MOL0     C61329  -1.506   5.568   4.606 -0.4434  0.7113  0.0928
  455MOL0     C61330  -1.631   5.536   4.526 -0.4474  0.2813  0.7814
  455MOL0     C61331  -1.751   5.506   4.617 -0.4893  0.1120 -0.8935
  455MOL0     C61332  -1.871   5.476   4.521 -0.3422 -0.4854  0.6353
  455MOL0     C61333  -1.944   5.600   4.468 -0.6133 -0.3877  0.9340
  455MOL0     C61334  -2.055   5.559   4.373  0.9230 -0.3680  0.7649
  455MOL0    Cl61335  -2.197   5.559   4.485  0.2020  0.4426  0.0036
  455MOL0     C61336  -1.000   5.368   4.774  0.0902  0.1104  0.2633
  455MOL0     C61337  -0.880   5.418   4.731 -0.2070  0.3869  0.0880
  455MOL0     O61338  -0.683   5.425   4.443  0.3207 -0.0712 -0.1159
  455MOL0     C61339  -0.514   5.686   4.616  0.2797  0.2374 -0.0872
  455MOL0     C61340  -0.398   5.766   4.615  0.0924 -0.1686 -0.0484
  455MOL0     N61341   0.356   5.816   4.147  0.0356 -1.0886 -0.1366
  455MOL0     N61342   0.430   5.846   4.050  0.2379 -0.6593  0.0882
  455MOL0     C61343   1.642   5.972   3.778 -0.7145 -0.0979  0.7216
  455MOL0     C61344   1.771   5.933   3.747 -0.1989  0.1008  0.4339
  455MOL0     C61345   2.244   5.873   3.783 -0.7842 -0.3836  0.2144
  455MOL0     C61346   2.265   5.848   3.652 -0.5674 -0.3591 -0.0770
  455MOL0     C61347   2.387   5.808   3.608 -0.0568 -0.1998  0.9128
  455MOL0     C61348   2.494   5.793   3.695 -0.4891  0.0107 -0.5600
  455MOL0     O61349   2.608   5.740   3.642 -0.8592  0.1230  0.0677
  455MOL0     C61350   2.738   5.774   3.705  0.5612 -0.0022 -0.5447
  455MOL0     C61351   2.783   5.656   3.800 -0.1703 -0.1444  0.8791
  455MOL0     C61352   2.923   5.672   3.850  0.1698 -0.7652  0.3874
  455MOL0     C61353   2.976   5.548   3.911  0.0538 -0.2034 -0.6906
  455MOL0     C61354   3.118   5.553   3.950 -0.6457  1.1015  0.2138
  455MOL0     C61355   3.236   5.527   3.963 -0.2834 -0.5731 -0.0164
  455MOL0     C61356   2.476   5.825   3.831  0.7748  0.5240  0.4462
  455MOL0     C61357   2.352   5.861   3.879  0.5678 -1.1406  0.1850
  455MOL0     H61358   1.953   6.156   3.926 -0.6431 -0.3109  1.7786
  455MOL0     H61359   1.720   6.236   3.976 -0.2070  0.8082 -1.4126
  455MOL0     H61360   1.462   6.311   4.008  1.5593  2.3497 -1.2246
  455MOL0     H61361   1.497   6.321   3.845 -0.0332 -1.3797  0.3314
  455MOL0     H61362   1.271   6.350   3.856  2.7286  0.1827 -0.4611
  455MOL0     H61363   1.288   6.177   3.792  1.8070  0.6099 -1.4293
  455MOL0     H61364   1.258   6.078   4.002 -1.8440 -0.7340  0.0321
  455MOL0     H61365   1.246   6.227   4.079  0.5886 -0.1892 -0.8226
  455MOL0     H61366   1.046   6.280   3.927  0.7221  0.2769 -0.0183
  455MOL0     H61367   1.075   6.110   3.853  0.3402  1.5716 -0.4832
  455MOL0     H61368   1.003   6.009   4.067  0.7710 -0.5916  0.7291
  455MOL0     H61369   0.967   6.169   4.129  1.3584 -2.5334  1.2470
  455MOL0     H61370   0.789   6.191   3.935 -1.0226 -1.1996 -1.1859
  455MOL0     H61371   0.841   6.037   3.881  0.0781 -1.8583  1.4888
  455MOL0     H61372   0.758   5.926   4.070 -1.9466 -0.2722 -2.5362
  455MOL0     H61373   0.742   6.067   4.170  1.8767 -1.1147  0.6516
  455MOL0     H61374   0.589   5.990   3.914 -0.1491 -4.4571  1.7616
  455MOL0     H61375   0.572   6.147   4.006  1.6696 -0.0470 -1.1983
  455MOL0     H61376   0.457   6.102   4.258 -1.0225 -0.7964  2.2040
  455MOL0     H61377   0.294   5.890   4.437 -3.0739 -1.0379  1.4736
  455MOL0     H61378   0.260   6.049   4.376  3.8904 -0.8349 -2.4015
  455MOL0     H61379   0.122   5.790   4.287  1.6964  0.1343  1.0064
  455MOL0     H61380   0.084   5.959   4.240 -0.1657  1.5521  1.2802
  455MOL0     H61381   0.022   6.017   4.478 -2.1822  0.9800 -0.4394
  455MOL0     H61382   0.043   5.846   4.522 -0.3173 -2.2597 -1.8836
  455MOL0     H61383  -0.108   5.785   4.338  3.5651  1.8912 -1.8687
  455MOL0     H61384  -0.174   5.954   4.328 -0.3115  1.0620 -0.6174
  455MOL0     H61385  -0.304   5.723   4.289  2.0110 -1.4199  0.7871
  455MOL0     H61386  -0.635   5.566   4.240 -0.4906 -3.0411 -1.2387
  455MOL0     H61387  -0.491   5.622   4.159 -2.7311  0.8868 -0.6514
  455MOL0     H61388  -0.495   5.467   4.248  2.4921  1.2399  2.1608
  455MOL0     H61389  -1.003   5.638   4.501 -3.5548 -2.1365 -3.7635
  455MOL0     H61390  -1.205   5.559   4.589  1.3752  2.3066 -0.5239
  455MOL0     H61391  -1.421   5.403   4.856 -0.4261 -0.6757 -0.3230
  455MOL0     H61392  -1.329   5.548   4.806  1.1513 -1.6608  3.3354
  455MOL0     H61393  -1.379   5.398   4.558  0.2319 -1.2875  1.0733
  455MOL0     H61394  -1.508   5.355   4.669 -1.5663  2.1815 -0.4906
  455MOL0     H61395  -1.446   5.629   4.539 -1.2471  0.8937 -0.4787
  455MOL0     H61396  -1.527   5.637   4.689  2.2676 -0.3356  1.7738
  455MOL0     H61397  -1.650   5.626   4.467  0.6528  0.9053  1.3442
  455MOL0     H61398  -1.621   5.456   4.452 -5.0921 -0.7720  0.9376
  455MOL0     H61399  -1.783   5.579   4.693  1.1996  1.3593 -1.3279
  455MOL0     H61400  -1.740   5.409   4.667  0.5402 -1.5331 -4.0766
  455MOL0     H61401  -1.837   5.423   4.432 -1.0411 -1.0745  0.7135
  455MOL0     H61402  -1.937   5.411   4.579  0.8039 -1.6750  0.6406
  455MOL0     H61403  -1.867   5.660   4.418 -2.1445 -0.2078 -1.3888
  455MOL0     H61404  -1.986   5.668   4.542 -0.3896 -0.0271  0.7316
  455MOL0     H61405  -2.023   5.467   4.324  0.3003  0.1481 -0.6811
  455MOL0     H61406  -2.079   5.626   4.290 -1.1448  1.2711  2.5637
  455MOL0     H61407  -1.003   5.311   4.867 -3.9232 -1.3289 -0.5041
  455MOL0     H61408  -0.782   5.380   4.758  0.3992  1.8174 -0.0095
  455MOL0     H61409  -0.574   5.663   4.704 -2.3482  0.2596 -1.7634
  455MOL0     H61410  -0.368   5.819   4.705  3.8879 -2.1006  0.0120
  455MOL0     H61411   1.562   5.909   3.743  0.0936 -0.0071 -1.4255
  455MOL0     H61412   1.776   5.853   3.674 -0.5359  0.1204  0.3895
  455MOL0     H61413   2.179   5.868   3.589 -0.4142  0.3733 -0.0721
  455MOL0     H61414   2.413   5.774   3.508  0.8311  0.0312  1.0572
  455MOL0     H61415   2.804   5.793   3.620 -1.8038  2.4426 -2.0061
  455MOL0     H61416   2.728   5.866   3.764 -1.9068 -0.0479 -0.7815
  455MOL0     H61417   2.776   5.567   3.738  2.2280 -0.1823  0.5499
  455MOL0     H61418   2.717   5.649   3.887  0.4105 -1.8953  1.2193
  455MOL0     H61419   2.919   5.759   3.917  0.0007  0.5867 -1.3162
  455MOL0     H61420   2.990   5.697   3.768  0.1936  0.4392  0.7519
  455MOL0     H61421   2.977   5.478   3.827  2.4302 -0.3121 -0.6225
  455MOL0     H61422   2.919   5.531   4.003  0.5204 -0.6851 -0.4846
  455MOL0     H61423   3.339   5.498   3.976  0.4788  1.4807 -1.1175
  455MOL0     H61424   2.564   5.825   3.895  2.1490 -2.1273 -1.2436
  455MOL0     H61425   2.337   5.912   3.973  0.6682  0.9376 -0.8633
  456MOL0     O61426   7.841   5.541   3.964  0.1366  0.4096 -0.0884
  456MOL0     C61427   7.872   5.620   3.880 -0.0536 -0.0770  0.3938
  456MOL0     O61428   7.789   5.684   3.791  0.1343 -0.5616  0.1895
  456MOL0     C61429   7.664   5.715   3.848 -0.1775 -0.1473  0.3888
  456MOL0     C61430   7.651   5.766   3.976 -0.2568 -0.1410 -0.3666
  456MOL0     C61431   7.528   5.786   4.032 -0.4324  0.4203  0.0398
  456MOL0     C61432   7.411   5.747   3.966  0.2078  1.4670 -0.3648
  456MOL0     O61433   7.300   5.783   4.025 -0.0373  0.2855  0.0240
  456MOL0     C61434   7.205   5.674   4.035 -0.8582 -0.2339  0.7290
  456MOL0     C61435   7.070   5.733   4.093 -0.1159 -0.1359  1.5168
  456MOL0     C61436   7.092   5.810   4.221  0.1830  0.1278 -0.6399
  456MOL0     C61437   6.949   5.855   4.268 -0.8035 -0.3600 -0.2667
  456MOL0     C61438   6.835   5.750   4.262 -0.6066 -0.3931  0.2343
  456MOL0     C61439   6.859   5.617   4.343 -0.5214 -0.1750 -0.4072
  456MOL0     C61440   6.734   5.522   4.319  0.2749  0.7676  0.6240
  456MOL0     C61441   6.607   5.549   4.397 -0.9707 -0.6692 -0.6512
  456MOL0     N61442   6.636   5.527   4.546  0.5532  0.3032  0.4245
  456MOL0     C61443   6.681   5.403   4.591 -0.3321  0.5121 -0.2652
  456MOL0     C61444   6.740   5.439   4.709  0.2874 -0.1339 -0.2402
  456MOL0     C61445   6.794   5.341   4.812 -0.2929 -0.2927  0.5289
  456MOL0     C61446   6.678   5.250   4.862  0.3517 -0.0922  0.2998
  456MOL0     C61447   6.546   5.328   4.891  0.2199  1.3097  0.4543
  456MOL0     C61448   6.442   5.228   4.939 -0.6296  0.3054 -0.3516
  456MOL0     O61449   6.312   5.291   4.962 -0.5130  0.3582  0.5396
  456MOL0     C61450   6.200   5.215   4.986 -0.4093  0.0379  0.5034
  456MOL0     C61451   6.214   5.085   5.029  0.3902  0.8457  0.0800
  456MOL0     C61452   6.095   5.022   5.072  0.4250  0.4775  0.1447
  456MOL0     C61453   6.137   4.899   5.150 -0.3811  0.8895  0.4285
  456MOL0     C61454   5.966   5.074   5.053 -0.9625 -0.4341 -0.7329
  456MOL0     C61455   5.839   4.999   5.092 -0.7023 -1.1434  0.0988
  456MOL0     O61456   5.725   5.072   5.104 -0.2831 -0.3173  0.1526
  456MOL0     C61457   5.609   5.021   5.139  0.1661  0.1749  0.5063
  456MOL0     C61458   5.537   4.920   5.063  0.5873  0.2103 -0.7376
  456MOL0     C61459   5.407   4.879   5.108 -0.4169  0.6151 -0.2604
  456MOL0     C61460   5.346   4.934   5.219 -0.7512 -0.3783 -0.2743
  456MOL0     O61461   5.230   4.898   5.265  0.3612  0.0511 -0.6625
  456MOL0     C61462   5.140   5.007   5.271 -0.1789 -0.2469  0.3379
  456MOL0     C61463   4.998   4.958   5.300 -0.3263 -0.0174  0.1378
  456MOL0     C61464   4.952   4.873   5.180 -0.4016 -0.5345  0.9035
  456MOL0     C61465   4.799   4.856   5.202 -0.9429 -0.4908 -0.4226
  456MOL0     C61466   4.741   4.760   5.103 -0.1288 -0.2095  0.5412
  456MOL0     C61467   4.590   4.757   5.110 -0.1187  0.7129 -0.7548
  456MOL0     C61468   4.522   4.739   5.248 -1.0998 -0.2848 -0.0893
  456MOL0     C61469   4.384   4.681   5.237  0.4669  0.6922 -0.4675
  456MOL0    Cl61470   4.327   4.619   5.410 -0.0852 -0.2096 -0.3039
  456MOL0     C61471   5.422   5.023   5.295 -0.2258 -1.0034 -0.3449
  456MOL0     C61472   5.546   5.071   5.260  0.0216 -0.1892  0.9736
  456MOL0     O61473   5.842   4.880   5.111 -0.0410  0.1870 -0.2892
  456MOL0     C61474   5.958   5.192   4.986 -1.0181 -0.1258  0.2469
  456MOL0     C61475   6.076   5.265   4.954  0.8089  0.0236 -0.2292
  456MOL0     N61476   6.710   5.574   4.737 -0.6777  0.6308 -0.0147
  456MOL0     N61477   6.668   5.624   4.633 -0.3662  0.2982 -0.8676
  456MOL0     C61478   7.422   5.701   3.830 -0.4060 -0.2624  0.0135
  456MOL0     C61479   7.544   5.686   3.767  0.1178 -0.3436  1.1185
  456MOL0     C61480   8.015   5.643   3.845  0.0586 -0.2116 -0.1331
  456MOL0     C61481   8.053   5.757   3.778 -0.2436 -0.1898 -1.0148
  456MOL0     C61482   8.185   5.774   3.730  0.3990  0.1965  0.3807
  456MOL0     C61483   8.288   5.678   3.750  0.3095  0.5206 -0.0650
  456MOL0     O61484   8.408   5.719   3.690  0.3614  0.1339  0.2709
  456MOL0     C61485   8.490   5.620   3.629 -0.2004  0.7200 -0.3253
  456MOL0     C61486   8.627   5.688   3.591  0.5969 -0.2851  0.0502
  456MOL0     C61487   8.704   5.625   3.481 -0.5245 -0.1651 -0.3909
  456MOL0     C61488   8.842   5.692   3.488  0.1645  0.6456 -0.1292
  456MOL0     C61489   8.942   5.618   3.406 -0.2257  0.8781  0.0971
  456MOL0     C61490   9.025   5.565   3.331 -0.0289 -0.0650 -0.3531
  456MOL0     C61491   8.254   5.563   3.826  0.6244  0.0380 -0.2516
  456MOL0     C61492   8.116   5.555   3.875 -0.3659  0.8629 -0.4576
  456MOL0     H61493   7.740   5.789   4.032  0.5444 -0.3306 -1.5279
  456MOL0     H61494   7.516   5.819   4.134  3.8450 -0.5946  1.0534
  456MOL0     H61495   7.182   5.620   3.942  0.2703  2.8829 -1.5414
  456MOL0     H61496   7.256   5.606   4.103 -1.1036  1.9176  3.2071
  456MOL0     H61497   7.024   5.789   4.011  3.7719  0.0948 -0.7231
  456MOL0     H61498   7.011   5.643   4.112 -2.6914  1.6849  2.7365
  456MOL0     H61499   7.134   5.744   4.297  0.9400  2.6633  1.2893
  456MOL0     H61500   7.157   5.897   4.209 -0.4687  0.3029 -3.6120
  456MOL0     H61501   6.953   5.891   4.372 -1.6277  1.8327 -0.9450
  456MOL0     H61502   6.926   5.940   4.203  1.5233 -0.9167 -1.9289
  456MOL0     H61503   6.744   5.795   4.303 -0.6942 -1.5055  1.3436
  456MOL0     H61504   6.822   5.723   4.157  2.9291  0.4346 -0.5427
  456MOL0     H61505   6.951   5.570   4.309  0.6617  1.5134  0.2978
  456MOL0     H61506   6.876   5.641   4.449  1.4600  0.0068 -0.7327
  456MOL0     H61507   6.693   5.530   4.218 -0.4105  2.6347  0.9965
  456MOL0     H61508   6.758   5.415   4.323  2.3419  1.1768  0.2283
  456MOL0     H61509   6.524   5.496   4.350 -3.0791  2.6623 -0.9873
  456MOL0     H61510   6.566   5.650   4.386  0.5859  0.2516  1.2894
  456MOL0     H61511   6.671   5.305   4.545 -1.5602  0.4955 -0.0138
  456MOL0     H61512   6.877   5.289   4.763 -1.0541 -0.9972 -0.0263
  456MOL0     H61513   6.848   5.381   4.899 -3.0281 -1.1486  2.7453
  456MOL0     H61514   6.711   5.213   4.959 -0.1906 -2.4255 -0.3295
  456MOL0     H61515   6.660   5.171   4.787 -1.5137  0.6907 -0.1479
  456MOL0     H61516   6.505   5.373   4.800 -0.3159  3.0430  1.5093
  456MOL0     H61517   6.564   5.404   4.967  1.1126 -0.3991  2.0199
  456MOL0     H61518   6.476   5.193   5.037  1.5318 -1.0705 -1.5293
  456MOL0     H61519   6.430   5.141   4.873 -1.2861  0.2018 -0.1092
  456MOL0     H61520   6.308   5.037   5.051  0.4617 -0.1476 -2.1285
  456MOL0     H61521   6.105   4.803   5.107 -1.7832  2.4305 -2.1935
  456MOL0     H61522   6.242   4.895   5.179 -0.1765  0.3892 -0.3672
  456MOL0     H61523   6.090   4.908   5.249 -1.3180 -1.0689  0.2052
  456MOL0     H61524   5.586   4.885   4.972  0.8251 -1.9302  0.1608
  456MOL0     H61525   5.349   4.804   5.056 -0.8201  0.3364  0.5625
  456MOL0     H61526   5.162   5.071   5.357 -0.5516  0.5661 -0.1594
  456MOL0     H61527   5.149   5.071   5.182  1.0015  3.1678  2.7098
  456MOL0     H61528   4.994   4.901   5.394  0.6348  0.2791  0.3710
  456MOL0     H61529   4.933   5.044   5.310 -1.3254 -0.6252 -0.9145
  456MOL0     H61530   4.986   4.770   5.190 -3.5132 -1.7430  0.0052
  456MOL0     H61531   4.963   4.924   5.083 -1.6239  0.2778  1.1787
  456MOL0     H61532   4.779   4.828   5.306 -0.1490  1.3372  0.2565
  456MOL0     H61533   4.748   4.952   5.189 -0.4673 -0.2881 -0.8233
  456MOL0     H61534   4.768   4.657   5.128  1.4546 -0.0421 -0.3541
  456MOL0     H61535   4.781   4.779   5.003 -0.8739  3.3836  0.7871
  456MOL0     H61536   4.548   4.852   5.077 -1.8533  0.7725  1.4230
  456MOL0     H61537   4.562   4.674   5.045 -1.5776 -0.0743  0.7851
  456MOL0     H61538   4.514   4.841   5.286 -0.9895  0.8278 -2.8796
  456MOL0     H61539   4.581   4.668   5.308  0.4051  0.8138 -0.1933
  456MOL0     H61540   4.386   4.608   5.156  1.0446  2.6243 -2.2817
  456MOL0     H61541   4.313   4.757   5.203 -0.1676  0.7656  0.9393
  456MOL0     H61542   5.376   5.048   5.391 -0.1751 -1.2796 -0.2499
  456MOL0     H61543   5.602   5.138   5.324  1.5830 -0.7895  0.2920
  456MOL0     H61544   5.857   5.233   4.974 -1.5740 -1.1417  1.2977
  456MOL0     H61545   6.069   5.368   4.921  1.0905 -0.9063 -3.4869
  456MOL0     H61546   7.338   5.685   3.764  0.6280  1.7877 -1.9197
  456MOL0     H61547   7.551   5.645   3.667 -0.6961 -2.7215  1.9611
  456MOL0     H61548   7.986   5.842   3.764 -0.2159 -0.1489 -0.8974
  456MOL0     H61549   8.203   5.869   3.681 -0.5515  0.7102  0.9915
  456MOL0     H61550   8.504   5.537   3.698  0.7250  2.4568  1.6636
  456MOL0     H61551   8.443   5.572   3.542  2.7753 -1.6837 -0.7684
  456MOL0     H61552   8.678   5.691   3.688 -1.6255 -1.1595  1.3247
  456MOL0     H61553   8.611   5.789   3.551 -1.5134 -1.3138 -1.8932
  456MOL0     H61554   8.646   5.650   3.391  1.3010  1.7112 -1.1266
  456MOL0     H61555   8.701   5.516   3.487 -0.7429 -0.2163 -1.2479
  456MOL0     H61556   8.869   5.695   3.594 -3.2474  1.0760  0.8296
  456MOL0     H61557   8.834   5.797   3.458 -0.2502  0.2801 -1.3382
  456MOL0     H61558   9.078   5.527   3.247  0.0668  0.5361 -0.5732
  456MOL0     H61559   8.330   5.488   3.851  1.2903  0.4678 -0.9471
  456MOL0     H61560   8.094   5.468   3.937 -1.8464  0.7725 -1.0652
  457MOL0     O61561  10.763   2.879   2.098 -0.5173  0.3164  0.0689
  457MOL0     C61562  10.759   2.789   2.012 -0.5755 -0.2170  0.5150
  457MOL0     O61563  10.655   2.720   1.968 -0.1840  1.0628 -0.4123
  457MOL0     C61564  10.536   2.712   2.039  0.6146 -0.7307 -0.0275
  457MOL0     C61565  10.537   2.732   2.177  0.1907 -0.6529  0.5004
  457MOL0     C61566  10.417   2.716   2.252 -0.1667  0.4450  0.0468
  457MOL0     C61567  10.298   2.669   2.187  0.1261  0.0525 -0.3089
  457MOL0     O61568  10.191   2.657   2.269 -0.4846 -0.2874 -0.3639
  457MOL0     C61569  10.062   2.645   2.221 -0.5605 -1.5225 -0.1515
  457MOL0     C61570   9.979   2.694   2.334 -0.6801  0.1915  0.2945
  457MOL0     C61571   9.828   2.708   2.301 -0.0093 -0.0403  0.8782
  457MOL0     C61572   9.747   2.582   2.263 -0.1911 -0.2369  0.1687
  457MOL0     C61573   9.755   2.537   2.115  0.1251  0.8395  0.7806
  457MOL0     C61574   9.685   2.400   2.103 -0.2344 -0.4342  0.7874
  457MOL0     C61575   9.529   2.414   2.082  0.1447  0.0497 -0.5814
  457MOL0     C61576   9.478   2.272   2.031  0.2439  0.0657 -0.1699
  457MOL0     N61577   9.463   2.165   2.133  0.8708  0.0073 -0.0159
  457MOL0     C61578   9.485   2.186   2.266 -1.0887  0.2656  0.0221
  457MOL0     C61579   9.459   2.063   2.321  0.3617 -0.4864 -0.0224
  457MOL0     C61580   9.439   2.026   2.464 -0.5161  0.1259 -0.2541
  457MOL0     C61581   9.394   1.879   2.505  0.6960 -0.2248  0.9029
  457MOL0     C61582   9.249   1.851   2.476  0.1566 -0.2256  0.4357
  457MOL0     C61583   9.240   1.694   2.444  0.1593 -0.5974 -0.8456
  457MOL0     O61584   9.281   1.622   2.562  0.0360  0.3413  1.0521
  457MOL0     C61585   9.197   1.611   2.667 -0.2968 -0.1553  0.0450
  457MOL0     C61586   9.243   1.544   2.783 -0.2719 -0.3611 -0.5452
  457MOL0     C61587   9.171   1.546   2.912  0.6726  0.1146 -0.0464
  457MOL0     C61588   9.232   1.476   3.033 -0.3266 -0.1920  0.1651
  457MOL0     C61589   9.036   1.595   2.914  0.9389  0.7468 -0.0249
  457MOL0     C61590   8.938   1.595   3.026 -0.0881  0.4295  0.2947
  457MOL0     O61591   8.799   1.601   3.002 -0.2843 -0.2765  0.4559
  457MOL0     C61592   8.707   1.545   3.082  0.3546 -0.4844  0.0406
  457MOL0     C61593   8.577   1.595   3.076  0.3114  1.1203 -0.2604
  457MOL0     C61594   8.475   1.555   3.175 -0.9089  0.0802 -0.2846
  457MOL0     C61595   8.503   1.453   3.272 -1.0109 -1.0294 -0.5348
  457MOL0     O61596   8.401   1.428   3.363 -0.3869  0.0544  0.4489
  457MOL0     C61597   8.445   1.375   3.487  0.2657  0.5157 -0.5240
  457MOL0     C61598   8.330   1.392   3.576 -0.3413 -1.2129  0.1238
  457MOL0     C61599   8.209   1.303   3.538 -0.0056  0.5071 -0.5413
  457MOL0     C61600   8.096   1.347   3.636 -0.0218  0.2612 -0.3785
  457MOL0     C61601   8.002   1.234   3.657 -0.0058  0.0984 -0.3729
  457MOL0     C61602   7.883   1.235   3.548  0.3960  0.5030 -0.3839
  457MOL0     C61603   7.787   1.113   3.582 -0.4131 -0.0658  0.2645
  457MOL0     C61604   7.704   1.077   3.464  0.3024 -0.1811  0.8665
  457MOL0    Cl61605   7.622   1.207   3.375 -0.2944 -0.1099 -0.3432
  457MOL0     C61606   8.633   1.394   3.270  0.5742  0.2239 -0.0435
  457MOL0     C61607   8.730   1.443   3.181  0.1328 -0.2215 -0.1563
  457MOL0     O61608   8.988   1.602   3.134 -0.3999 -0.3347 -0.0067
  457MOL0     C61609   8.995   1.651   2.801 -0.3679 -0.1990 -0.2352
  457MOL0     C61610   9.065   1.659   2.679  0.6944  0.3772 -0.0761
  457MOL0     N61611   9.438   1.968   2.212 -0.1082 -0.2037 -0.1125
  457MOL0     N61612   9.439   2.032   2.103 -0.1554 -0.7134 -0.2986
  457MOL0     C61613  10.297   2.663   2.048  0.7606 -0.4182 -0.6771
  457MOL0     C61614  10.415   2.678   1.981  0.4016 -0.3909  0.2627
  457MOL0     C61615  10.900   2.757   1.941  1.1760  0.5104  0.0657
  457MOL0     C61616  10.905   2.700   1.808 -0.4905  0.0352 -0.1475
  457MOL0     C61617  11.034   2.673   1.754  0.2019  0.5064  0.1089
  457MOL0     C61618  11.155   2.708   1.819 -0.4850 -0.3915 -0.3766
  457MOL0     O61619  11.270   2.684   1.756 -0.3130 -0.6663  0.5784
  457MOL0     C61620  11.386   2.653   1.840  0.4628 -0.3861 -0.2341
  457MOL0     C61621  11.465   2.782   1.852 -0.2775  0.2086 -0.7448
  457MOL0     C61622  11.551   2.779   1.975  0.5982  0.1606  0.2465
  457MOL0     C61623  11.670   2.679   1.951 -0.0333 -0.1454 -0.1817
  457MOL0     C61624  11.756   2.673   2.062  0.5705 -0.1840  0.1358
  457MOL0     C61625  11.835   2.648   2.153  0.5235  0.1613 -0.6192
  457MOL0     C61626  11.142   2.768   1.943 -0.3404  0.5456  0.1854
  457MOL0     C61627  11.019   2.775   2.008  0.0950 -0.6488  0.8377
  457MOL0     H61628  10.624   2.746   2.241 -0.5066  1.1124  1.1239
  457MOL0     H61629  10.416   2.731   2.359  1.1592  0.5971  0.0582
  457MOL0     H61630  10.043   2.699   2.128 -2.4946  0.5042  1.3141
  457MOL0     H61631  10.039   2.540   2.201  0.0829 -1.5972 -0.5226
  457MOL0     H61632   9.996   2.612   2.404 -2.3425 -0.1847  0.3125
  457MOL0     H61633  10.009   2.788   2.382 -0.2754 -1.0769  2.6510
  457MOL0     H61634   9.787   2.763   2.386 -2.1049  0.5415 -0.4167
  457MOL0     H61635   9.811   2.770   2.212  1.3288  2.5099  2.2725
  457MOL0     H61636   9.761   2.495   2.328 -2.1836  0.6261  1.8741
  457MOL0     H61637   9.643   2.600   2.292 -0.0846 -0.2016  0.5328
  457MOL0     H61638   9.707   2.601   2.041 -2.1768 -0.5768  0.9622
  457MOL0     H61639   9.857   2.512   2.085 -0.3009 -0.4175  0.2749
  457MOL0     H61640   9.730   2.354   2.014  2.1225 -1.0270  2.2107
  457MOL0     H61641   9.721   2.331   2.180  0.5250 -1.5990 -0.5576
  457MOL0     H61642   9.472   2.457   2.165  0.2771 -2.6193  1.0038
  457MOL0     H61643   9.509   2.480   1.997 -1.2855  2.7863  1.6980
  457MOL0     H61644   9.534   2.237   1.944  2.9015  0.4280  1.2964
  457MOL0     H61645   9.381   2.296   1.985  0.2714  0.3819 -0.0614
  457MOL0     H61646   9.512   2.278   2.316 -1.1785 -0.3738  1.2981
  457MOL0     H61647   9.538   2.052   2.504  2.0287 -4.7990 -2.4371
  457MOL0     H61648   9.351   2.081   2.498  0.0661  3.4080 -3.4162
  457MOL0     H61649   9.403   1.867   2.613  1.1679  0.9828  1.0191
  457MOL0     H61650   9.468   1.811   2.464 -1.6955 -3.3548  1.4064
  457MOL0     H61651   9.226   1.898   2.380 -1.0967  0.4359  1.0494
  457MOL0     H61652   9.177   1.888   2.549 -2.5162 -0.0035 -2.1509
  457MOL0     H61653   9.292   1.672   2.350 -1.6192 -0.4490 -1.8973
  457MOL0     H61654   9.137   1.672   2.415 -0.1099  0.8468 -1.0647
  457MOL0     H61655   9.345   1.507   2.787  0.2835  1.1497  1.4078
  457MOL0     H61656   9.341   1.483   3.024 -0.5074  0.8217 -1.6642
  457MOL0     H61657   9.212   1.533   3.124 -2.9560 -0.1916 -0.3537
  457MOL0     H61658   9.195   1.374   3.022 -0.4030 -0.0334 -1.1528
  457MOL0     H61659   8.544   1.680   3.017 -3.2492 -0.1031 -0.2982
  457MOL0     H61660   8.373   1.591   3.168 -1.6940 -2.1522 -1.4737
  457MOL0     H61661   8.480   1.271   3.497 -1.5960 -0.1994 -1.0657
  457MOL0     H61662   8.527   1.439   3.521  1.7398  1.0202 -4.5494
  457MOL0     H61663   8.349   1.373   3.683 -3.6063 -0.4201  0.9629
  457MOL0     H61664   8.295   1.495   3.566 -0.8260 -1.0781  2.5728
  457MOL0     H61665   8.241   1.200   3.555  0.6874  0.7831 -0.1161
  457MOL0     H61666   8.175   1.309   3.434 -0.6137 -2.5705 -0.6215
  457MOL0     H61667   8.135   1.371   3.735  2.1802  0.3125 -1.2025
  457MOL0     H61668   8.042   1.437   3.603  0.7642  0.2636 -1.7451
  457MOL0     H61669   7.954   1.249   3.754  0.1879  1.5091 -0.4630
  457MOL0     H61670   8.067   1.147   3.670  0.2537  0.5763  2.2309
  457MOL0     H61671   7.819   1.322   3.561  1.1596  0.8928  0.9087
  457MOL0     H61672   7.921   1.233   3.445  0.7778  0.7333 -0.2480
  457MOL0     H61673   7.727   1.151   3.664 -0.0830  4.0210 -1.1703
  457MOL0     H61674   7.837   1.020   3.613  2.3105  0.8730 -0.9729
  457MOL0     H61675   7.643   0.988   3.485 -0.8988  0.2293 -0.7404
  457MOL0     H61676   7.779   1.044   3.391 -0.3602  1.7070 -0.7451
  457MOL0     H61677   8.665   1.317   3.339  1.9788 -0.5727 -1.5208
  457MOL0     H61678   8.831   1.404   3.180  1.1392  2.1795  0.5752
  457MOL0     H61679   8.900   1.703   2.805 -0.7398 -0.8910  0.2465
  457MOL0     H61680   9.016   1.709   2.596  2.1200 -1.4884 -2.1626
  457MOL0     H61681  10.210   2.635   1.989 -0.6443  1.3413  0.4556
  457MOL0     H61682  10.416   2.688   1.873  3.6376  1.2092  0.3086
  457MOL0     H61683  10.816   2.683   1.749 -1.0806  1.7642  0.1800
  457MOL0     H61684  11.057   2.628   1.658  1.4988  2.2768 -0.4534
  457MOL0     H61685  11.350   2.618   1.937 -3.7590 -0.3068 -1.5862
  457MOL0     H61686  11.428   2.562   1.796 -1.4602 -1.8485  0.8236
  457MOL0     H61687  11.401   2.870   1.862 -0.2016  0.3769 -1.6568
  457MOL0     H61688  11.525   2.786   1.761 -0.0346 -0.2229 -0.6059
  457MOL0     H61689  11.485   2.774   2.062  0.9619 -1.0414  0.4692
  457MOL0     H61690  11.589   2.882   1.974 -1.0573  0.7984  0.9473
  457MOL0     H61691  11.728   2.708   1.863 -1.8238 -1.1175 -1.7691
  457MOL0     H61692  11.637   2.577   1.931 -0.1609 -0.4533  1.4575
  457MOL0     H61693  11.899   2.612   2.231  1.7846  1.9308 -0.7664
  457MOL0     H61694  11.231   2.806   1.992 -0.9965  2.4536 -0.0432
  457MOL0     H61695  11.031   2.809   2.110  1.2850  1.5402  0.0365
  458MOL0     O61696   4.431   0.369   8.109 -0.9433 -0.2336  0.2158
  458MOL0     C61697   4.471   0.482   8.141 -0.4028  0.1245  0.7311
  458MOL0     O61698   4.398   0.597   8.112  0.9355  0.0646 -0.8929
  458MOL0     C61699   4.275   0.596   8.058  0.5528  0.7515 -0.7684
  458MOL0     C61700   4.168   0.513   8.107  0.3865  0.1445  0.4101
  458MOL0     C61701   4.030   0.543   8.066 -0.8110  0.1159  0.2221
  458MOL0     C61702   3.994   0.662   8.005 -0.2713  0.4852  0.3137
  458MOL0     O61703   3.872   0.707   7.962 -0.1596  0.8996 -0.5377
  458MOL0     C61704   3.787   0.612   7.894 -0.1692  0.0523 -0.5657
  458MOL0     C61705   3.655   0.663   7.850 -0.4464  0.6905 -0.1383
  458MOL0     C61706   3.577   0.713   7.971 -0.1700  0.0122 -0.5470
  458MOL0     C61707   3.426   0.744   7.937  0.9446  0.0736 -0.1056
  458MOL0     C61708   3.349   0.750   8.068  1.2219  0.8972  0.0145
  458MOL0     C61709   3.201   0.786   8.052  0.6646 -0.8427  0.2800
  458MOL0     C61710   3.127   0.793   8.185 -0.2339  0.1204  0.6646
  458MOL0     C61711   2.980   0.814   8.164  0.2111 -0.6379  0.8317
  458MOL0     N61712   2.955   0.956   8.132  0.5634 -0.9046  0.0990
  458MOL0     C61713   2.964   1.054   8.229  0.8017 -0.0638  0.0430
  458MOL0     C61714   2.974   1.162   8.158  0.2847 -1.1274 -0.8681
  458MOL0     C61715   2.964   1.296   8.224 -0.6490  0.5067 -0.0215
  458MOL0     C61716   2.860   1.311   8.336  0.2962  0.5130 -0.3507
  458MOL0     C61717   2.721   1.283   8.274 -0.0414 -0.2138  0.8231
  458MOL0     C61718   2.605   1.298   8.370  0.0188 -0.7264 -0.4220
  458MOL0     O61719   2.642   1.242   8.499 -0.2981  1.0496 -0.5897
  458MOL0     C61720   2.548   1.238   8.597  0.2294  0.2449  0.3380
  458MOL0     C61721   2.420   1.291   8.589 -0.1159 -0.4707 -0.5599
  458MOL0     C61722   2.322   1.271   8.687 -0.5429  0.1729 -0.0530
  458MOL0     C61723   2.190   1.349   8.673  0.0238  0.4550 -0.0745
  458MOL0     C61724   2.360   1.189   8.796 -0.2583 -0.6083 -0.2908
  458MOL0     C61725   2.264   1.139   8.891  0.1584  0.9693 -0.0806
  458MOL0     O61726   2.165   1.221   8.946 -0.5807 -0.0931  0.2095
  458MOL0     C61727   2.052   1.152   8.996  0.4245 -0.0647 -0.6119
  458MOL0     C61728   1.980   1.058   8.919 -1.0132  0.1930 -0.5698
  458MOL0     C61729   1.870   1.000   8.973  0.5965  0.6953  1.1879
  458MOL0     C61730   1.823   1.027   9.099 -0.5208 -0.2133  0.6374
  458MOL0     O61731   1.714   0.960   9.154  0.2176 -0.1394 -0.3019
  458MOL0     C61732   1.755   0.829   9.185  0.1559  1.4382 -0.5168
  458MOL0     C61733   1.673   0.768   9.292  0.6203  0.0599  0.5969
  458MOL0     C61734   1.651   0.866   9.400 -0.8462  0.5423 -0.0691
  458MOL0     C61735   1.603   0.804   9.528  0.4110 -0.0755 -0.2069
  458MOL0     C61736   1.635   0.887   9.653  0.0038 -0.6122 -0.2201
  458MOL0     C61737   1.569   1.031   9.657  0.5543  0.1691 -0.0204
  458MOL0     C61738   1.438   1.031   9.734 -0.9279  0.1929  0.2923
  458MOL0     C61739   1.341   1.142   9.690  0.3104  0.1354  0.8330
  458MOL0    Cl61740   1.398   1.309   9.730 -0.3220 -0.2380  0.1898
  458MOL0     C61741   1.882   1.135   9.170 -0.2272 -1.3117  0.5617
  458MOL0     C61742   2.004   1.193   9.121 -0.2330  0.2311  0.0768
  458MOL0     O61743   2.280   1.022   8.916 -0.0653 -0.9078  0.1004
  458MOL0     C61744   2.495   1.144   8.807 -0.6547  0.0174  0.3534
  458MOL0     C61745   2.595   1.162   8.711  0.2043  0.6937  1.2769
  458MOL0     N61746   2.971   1.134   8.026 -0.2533 -0.3767 -0.6508
  458MOL0     N61747   2.957   1.006   8.005 -0.6436  0.0923 -0.4011
  458MOL0     C61748   4.108   0.744   7.967 -0.4274 -0.4789 -0.8669
  458MOL0     C61749   4.238   0.714   7.994  0.8668 -0.2000 -0.2405
  458MOL0     C61750   4.617   0.498   8.197 -0.2227  0.2903  0.7374
  458MOL0     C61751   4.680   0.621   8.182  0.0422 -0.7397 -0.1751
  458MOL0     C61752   4.801   0.655   8.243  0.5286 -0.2403  0.9432
  458MOL0     C61753   4.878   0.559   8.310  0.0689 -0.1224 -0.1561
  458MOL0     O61754   5.002   0.577   8.376  0.5197  0.0120 -0.1754
  458MOL0     C61755   5.066   0.698   8.340 -0.3250 -0.5699 -0.3686
  458MOL0     C61756   5.196   0.701   8.410 -0.0043 -0.2786 -0.0542
  458MOL0     C61757   5.253   0.840   8.427 -0.1200  0.0022 -0.2825
  458MOL0     C61758   5.367   0.846   8.532  0.5286 -0.2666 -0.5922
  458MOL0     C61759   5.455   0.728   8.523 -0.2365  0.5711 -0.0437
  458MOL0     C61760   5.529   0.630   8.506 -0.6544 -0.2601  0.0287
  458MOL0     C61761   4.826   0.440   8.300 -0.0594  0.2608  0.4569
  458MOL0     C61762   4.701   0.399   8.247  0.2222  0.8240  0.6700
  458MOL0     H61763   4.197   0.428   8.169  2.4737 -0.0401 -0.6856
  458MOL0     H61764   3.956   0.470   8.096 -0.8323 -0.0452 -0.2225
  458MOL0     H61765   3.841   0.574   7.807 -1.6608 -0.6182 -1.2397
  458MOL0     H61766   3.767   0.528   7.961 -2.4935  0.6107 -0.4622
  458MOL0     H61767   3.677   0.739   7.775  3.1931  0.8127  0.8801
  458MOL0     H61768   3.595   0.582   7.807  0.9511 -0.4249 -0.0511
  458MOL0     H61769   3.579   0.634   8.047 -2.5292  0.1370 -0.2776
  458MOL0     H61770   3.616   0.807   8.013 -0.4808 -0.1945  0.2159
  458MOL0     H61771   3.414   0.828   7.868  0.8909  0.3641  0.2567
  458MOL0     H61772   3.397   0.665   7.867  0.8074  1.9166 -2.2118
  458MOL0     H61773   3.351   0.652   8.116  0.0004  0.9937  0.2909
  458MOL0     H61774   3.397   0.815   8.142  1.5128  1.5084 -0.6944
  458MOL0     H61775   3.197   0.879   7.996  0.7965 -0.9765  0.0450
  458MOL0     H61776   3.154   0.711   7.987 -0.9209 -1.1386  1.6872
  458MOL0     H61777   3.135   0.695   8.232 -1.9349  0.5391  1.9560
  458MOL0     H61778   3.180   0.860   8.252  3.6294 -0.3187 -1.6651
  458MOL0     H61779   2.919   0.800   8.254 -0.4746  3.4563  1.2159
  458MOL0     H61780   2.943   0.748   8.085 -1.5291  0.6407  0.5048
  458MOL0     H61781   2.962   1.045   8.337  0.3008 -3.3766 -0.1138
  458MOL0     H61782   3.062   1.319   8.266  0.0028 -0.7329 -0.8067
  458MOL0     H61783   2.950   1.365   8.140 -0.1486  2.2880  1.3069
  458MOL0     H61784   2.853   1.413   8.376 -0.7532  1.1174 -1.9973
  458MOL0     H61785   2.883   1.240   8.416 -2.1810 -1.4481 -1.2838
  458MOL0     H61786   2.704   1.182   8.234 -3.8981  0.2072  1.0087
  458MOL0     H61787   2.706   1.354   8.192  1.1948  0.5719  1.2502
  458MOL0     H61788   2.512   1.267   8.322 -1.3242  2.4708 -0.1637
  458MOL0     H61789   2.591   1.404   8.394  0.6947 -0.1290 -2.4450
  458MOL0     H61790   2.385   1.341   8.499 -0.5811  0.2511  0.0121
  458MOL0     H61791   2.183   1.435   8.740 -0.5139  1.8407 -1.8298
  458MOL0     H61792   2.193   1.388   8.570  1.0584 -1.6043 -0.8864
  458MOL0     H61793   2.107   1.283   8.700  2.1990 -1.4645  2.4451
  458MOL0     H61794   2.031   1.029   8.828  0.6083  1.0101  0.0388
  458MOL0     H61795   1.818   0.921   8.919 -1.2249  3.3249 -1.2269
  458MOL0     H61796   1.761   0.754   9.105 -1.3436  1.6372 -0.8462
  458MOL0     H61797   1.851   0.834   9.237  0.8202 -1.5468 -1.2322
  458MOL0     H61798   1.575   0.748   9.249  0.5690  0.2242  0.6378
  458MOL0     H61799   1.719   0.677   9.331 -0.0860  1.0441  4.0319
  458MOL0     H61800   1.599   0.950   9.353  3.1709  0.8433 -4.8160
  458MOL0     H61801   1.752   0.903   9.421  1.2461 -1.9767 -4.3083
  458MOL0     H61802   1.500   0.788   9.492  0.5999 -3.1166  0.3313
  458MOL0     H61803   1.635   0.700   9.536 -1.9706 -0.9838 -1.2242
  458MOL0     H61804   1.744   0.897   9.657  0.2559 -2.4930 -1.3484
  458MOL0     H61805   1.583   0.833   9.732 -2.2579  0.1510 -1.0979
  458MOL0     H61806   1.637   1.097   9.711  0.1787  0.2469  0.3629
  458MOL0     H61807   1.548   1.068   9.555 -1.5030  0.8237  0.5757
  458MOL0     H61808   1.453   1.036   9.843 -1.4486  0.8997  0.3382
  458MOL0     H61809   1.381   0.939   9.718  1.2202 -1.1434 -0.0741
  458MOL0     H61810   1.241   1.133   9.735 -2.2766  4.4007 -3.0656
  458MOL0     H61811   1.313   1.123   9.586  1.2295  1.9478  0.2112
  458MOL0     H61812   1.837   1.175   9.260 -1.9879 -0.7202 -0.5149
  458MOL0     H61813   2.054   1.271   9.179  1.6055 -0.9962  0.2296
  458MOL0     H61814   2.529   1.099   8.900 -0.7733  0.3324  0.5527
  458MOL0     H61815   2.697   1.128   8.717 -0.1370 -1.0467 -1.0781
  458MOL0     H61816   4.079   0.839   7.925 -3.5660 -0.6165  0.7478
  458MOL0     H61817   4.319   0.781   7.968  1.3933 -0.6204  0.2865
  458MOL0     H61818   4.624   0.701   8.135  1.0500 -0.1664 -0.4169
  458MOL0     H61819   4.821   0.761   8.238  1.7508 -0.4884 -0.0729
  458MOL0     H61820   5.075   0.716   8.233  1.2094  2.3214  0.1276
  458MOL0     H61821   5.009   0.781   8.381  0.1316 -0.2213 -0.4286
  458MOL0     H61822   5.261   0.643   8.344 -0.3712  0.2175 -0.8667
  458MOL0     H61823   5.191   0.659   8.511 -0.0211 -0.1242  0.0095
  458MOL0     H61824   5.180   0.904   8.475  1.7823 -0.0839  2.9855
  458MOL0     H61825   5.277   0.890   8.333 -1.9182  1.2412 -0.1358
  458MOL0     H61826   5.330   0.853   8.635  0.8360 -3.8072 -0.1353
  458MOL0     H61827   5.426   0.938   8.522  0.2962 -0.0911 -0.3563
  458MOL0     H61828   5.589   0.541   8.505  1.2422  0.9368  1.0560
  458MOL0     H61829   4.891   0.363   8.342 -0.5475 -0.1884  0.4020
  458MOL0     H61830   4.681   0.292   8.249  2.3519  0.3343 -0.7766
  459MOL0     O61831   8.629   7.315   1.933 -0.6134  0.2093 -0.1548
  459MOL0     C61832   8.544   7.235   1.890  0.2080  0.0712 -0.6119
  459MOL0     O61833   8.508   7.110   1.944 -0.4743 -0.0972 -0.0258
  459MOL0     C61834   8.571   7.046   2.044 -0.5985 -0.2429 -0.0171
  459MOL0     C61835   8.524   6.915   2.069  0.7298 -0.2094  0.5350
  459MOL0     C61836   8.574   6.838   2.176 -0.2412  0.4185 -0.1944
  459MOL0     C61837   8.682   6.896   2.262  0.0261  0.0012 -1.2555
  459MOL0     O61838   8.740   6.837   2.366 -0.0176 -0.3748  0.4338
  459MOL0     C61839   8.766   6.695   2.353  0.7543 -0.0250 -0.1510
  459MOL0     C61840   8.885   6.669   2.270 -0.2501  0.4016 -0.6669
  459MOL0     C61841   8.937   6.531   2.268 -0.4595 -0.0053  0.3994
  459MOL0     C61842   8.834   6.423   2.226 -0.0928  0.3698  0.4950
  459MOL0     C61843   8.891   6.289   2.178 -0.8717  0.5671 -0.1271
  459MOL0     C61844   8.975   6.212   2.274  0.2276 -0.5024  0.4149
  459MOL0     C61845   9.057   6.101   2.204  0.0409  0.7859 -0.3003
  459MOL0     C61846   9.194   6.156   2.175 -0.2104 -0.2983  0.1223
  459MOL0     N61847   9.284   6.049   2.107 -0.1268  0.1297 -0.5233
  459MOL0     C61848   9.257   6.000   1.980 -0.5372  0.2170  0.9974
  459MOL0     C61849   9.371   5.943   1.933 -0.8682  0.4168  0.4381
  459MOL0     C61850   9.377   5.882   1.794  0.7029  0.6939 -0.4879
  459MOL0     C61851   9.522   5.846   1.750  0.7300  0.5531  0.4451
  459MOL0     C61852   9.607   5.951   1.702 -0.4214 -0.2979 -0.2105
  459MOL0     C61853   9.662   6.058   1.802 -0.1173 -0.7471  0.5560
  459MOL0     O61854   9.739   6.153   1.723 -0.0339  0.4841  0.1380
  459MOL0     C61855   9.880   6.160   1.728 -0.4350 -0.0275 -0.4270
  459MOL0     C61856   9.948   6.278   1.696  0.1829 -0.0425  0.6494
  459MOL0     C61857  10.085   6.294   1.699 -0.0992  0.3501 -0.1386
  459MOL0     C61858  10.138   6.431   1.655 -0.2347  1.2338  0.9374
  459MOL0     C61859  10.168   6.181   1.744 -0.4213 -0.6795  0.0086
  459MOL0     C61860  10.306   6.205   1.787 -0.5697 -0.5043 -0.0848
  459MOL0     O61861  10.384   6.286   1.709  0.2561  0.4101  0.0630
  459MOL0     C61862  10.517   6.279   1.732 -0.5441  0.0457  0.1471
  459MOL0     C61863  10.600   6.196   1.650 -0.0895  0.6555 -0.2340
  459MOL0     C61864  10.735   6.195   1.655 -0.1616 -0.7308  0.6385
  459MOL0     C61865  10.799   6.281   1.751  0.0985 -0.3578  0.7981
  459MOL0     O61866  10.933   6.267   1.772 -0.5687  0.1135 -0.3375
  459MOL0     C61867  10.999   6.399   1.798  0.7169  0.6270  0.2394
  459MOL0     C61868  11.140   6.375   1.758  0.9620  0.4528 -0.3192
  459MOL0     C61869  11.234   6.487   1.782  0.8832 -0.0741  0.1049
  459MOL0     C61870  11.378   6.441   1.759 -0.3735  0.0811  0.4787
  459MOL0     C61871  11.454   6.567   1.748 -0.0604  0.8597  0.6547
  459MOL0     C61872  11.606   6.543   1.726  0.8316 -0.8110  0.3924
  459MOL0     C61873  11.681   6.679   1.713  0.5700  0.5621  0.4887
  459MOL0     C61874  11.793   6.674   1.620 -0.9060  0.8271  0.5654
  459MOL0    Cl61875  11.893   6.816   1.649  0.2609  0.4437  0.5180
  459MOL0     C61876  10.717   6.373   1.831 -0.8872  0.0025  0.2109
  459MOL0     C61877  10.573   6.372   1.815  0.2335 -0.2831  0.3214
  459MOL0     O61878  10.346   6.142   1.884  0.3532 -0.4312  0.4828
  459MOL0     C61879  10.106   6.063   1.786 -0.5693  0.1709  0.4908
  459MOL0     C61880   9.969   6.053   1.761  0.1497  0.4036 -0.4924
  459MOL0     N61881   9.466   5.956   2.029 -1.2924  0.0053  0.1230
  459MOL0     N61882   9.417   6.022   2.127 -0.2764  0.3046  0.1161
  459MOL0     C61883   8.723   7.017   2.232  0.1067  0.6740  0.4327
  459MOL0     C61884   8.665   7.097   2.134 -0.0381  0.0598  0.0714
  459MOL0     C61885   8.482   7.253   1.759  0.6188 -0.9663 -0.4293
  459MOL0     C61886   8.351   7.209   1.740 -0.5548 -0.2033  0.4527
  459MOL0     C61887   8.283   7.238   1.619  0.1388  0.0118 -0.1902
  459MOL0     C61888   8.351   7.295   1.508  0.0495 -0.3722  0.4194
  459MOL0     O61889   8.279   7.294   1.388 -0.2684  0.4386  0.4317
  459MOL0     C61890   8.344   7.357   1.272  0.6741 -0.3128 -0.2217
  459MOL0     C61891   8.258   7.347   1.146  0.5712  0.3166 -0.0695
  459MOL0     C61892   8.286   7.453   1.039  0.0888 -0.7741 -0.0696
  459MOL0     C61893   8.431   7.493   1.022 -0.3494  0.8726 -0.3645
  459MOL0     C61894   8.452   7.593   0.923  0.5029 -0.6728  0.7750
  459MOL0     C61895   8.449   7.668   0.823 -0.2844  0.2691 -0.1731
  459MOL0     C61896   8.483   7.343   1.536 -0.2422  0.4067 -0.3409
  459MOL0     C61897   8.545   7.320   1.658 -0.4809  0.7207 -0.1069
  459MOL0     H61898   8.469   6.862   1.991  0.4332 -2.5865  2.2357
  459MOL0     H61899   8.539   6.735   2.185 -0.8983  0.6660  0.1436
  459MOL0     H61900   8.776   6.654   2.454 -1.9591  0.6495  0.4843
  459MOL0     H61901   8.677   6.639   2.324  1.3070 -1.1290  0.2278
  459MOL0     H61902   8.868   6.705   2.168  0.5477  3.3446  0.1494
  459MOL0     H61903   8.964   6.734   2.309  0.0389  0.0635 -0.6904
  459MOL0     H61904   9.007   6.532   2.184 -1.1624  1.0461 -0.1932
  459MOL0     H61905   8.991   6.498   2.358  1.9333  1.7747 -0.2890
  459MOL0     H61906   8.778   6.400   2.317  0.7508 -3.3812  0.2385
  459MOL0     H61907   8.767   6.470   2.154  1.9243  1.8483 -0.5184
  459MOL0     H61908   8.815   6.219   2.142 -1.0697  0.0313  1.2936
  459MOL0     H61909   8.954   6.318   2.093 -0.7654  3.5706  0.8587
  459MOL0     H61910   9.038   6.280   2.331 -1.0348  1.7158 -0.7356
  459MOL0     H61911   8.905   6.183   2.352 -2.6473  3.0161 -0.5792
  459MOL0     H61912   9.073   6.015   2.271 -0.7044 -0.6190 -1.8584
  459MOL0     H61913   9.004   6.060   2.118  0.7910 -1.2547  0.1573
  459MOL0     H61914   9.240   6.183   2.270  1.7555  1.2338 -1.1863
  459MOL0     H61915   9.205   6.240   2.105 -1.0033  1.2914  1.8358
  459MOL0     H61916   9.176   6.002   1.908  0.5839  0.7947 -0.2970
  459MOL0     H61917   9.308   5.798   1.780  0.5377  1.1235 -2.7832
  459MOL0     H61918   9.340   5.946   1.713  0.0527  0.1907 -0.5953
  459MOL0     H61919   9.515   5.777   1.665  1.1206  0.3246  0.5911
  459MOL0     H61920   9.569   5.793   1.834 -0.3413  1.0061  1.3631
  459MOL0     H61921   9.553   5.997   1.619 -0.5065  0.0306  0.0293
  459MOL0     H61922   9.692   5.903   1.652 -0.3587 -1.4130  0.9187
  459MOL0     H61923   9.731   6.015   1.875  0.4013  1.8906  1.7137
  459MOL0     H61924   9.587   6.108   1.863  0.9804  1.6330  0.0435
  459MOL0     H61925   9.897   6.371   1.670  2.6775  0.8864 -1.3399
  459MOL0     H61926  10.165   6.416   1.550 -0.6091  1.1316  0.8582
  459MOL0     H61927  10.065   6.513   1.655 -0.2177  1.2756  2.4580
  459MOL0     H61928  10.228   6.462   1.710 -0.4762 -0.4355  2.3186
  459MOL0     H61929  10.549   6.136   1.575 -1.0241 -1.2086  1.7733
  459MOL0     H61930  10.801   6.139   1.588  1.3209  0.0832  1.3641
  459MOL0     H61931  10.958   6.482   1.741 -1.0887  0.2564  0.9360
  459MOL0     H61932  11.001   6.408   1.907 -1.8922 -1.8408  0.6161
  459MOL0     H61933  11.184   6.288   1.809 -0.1288  0.0121 -0.0905
  459MOL0     H61934  11.136   6.330   1.658 -1.6156 -0.0744 -0.0546
  459MOL0     H61935  11.226   6.514   1.888  0.3452  0.5108 -0.0766
  459MOL0     H61936  11.203   6.575   1.725 -1.4593  0.8470  2.5655
  459MOL0     H61937  11.416   6.381   1.842  0.4846 -0.0326  0.0169
  459MOL0     H61938  11.389   6.388   1.664  3.9633  1.6321 -0.1230
  459MOL0     H61939  11.453   6.631   1.836  4.0915 -0.0871  1.6379
  459MOL0     H61940  11.418   6.624   1.661 -0.3439  0.4146  0.4762
  459MOL0     H61941  11.645   6.493   1.815  0.2556 -0.0231  1.0925
  459MOL0     H61942  11.613   6.478   1.637 -1.8508 -0.2082 -0.3630
  459MOL0     H61943  11.714   6.718   1.809 -2.5844 -0.0365  1.9503
  459MOL0     H61944  11.618   6.761   1.676 -1.1360 -0.5183  0.8713
  459MOL0     H61945  11.749   6.662   1.521 -1.3988 -3.0095  1.1095
  459MOL0     H61946  11.857   6.587   1.638 -0.7438  0.3601 -1.8694
  459MOL0     H61947  10.748   6.442   1.909 -1.3785  1.9397 -1.2121
  459MOL0     H61948  10.506   6.441   1.866  0.5455 -0.2096  0.6359
  459MOL0     H61949  10.166   5.976   1.812 -2.4035 -2.1256 -2.3789
  459MOL0     H61950   9.921   5.956   1.773 -0.6243  0.7737 -0.4820
  459MOL0     H61951   8.806   7.067   2.280  0.1611 -0.3391  1.4334
  459MOL0     H61952   8.705   7.197   2.127  1.4021 -0.6007 -2.4388
  459MOL0     H61953   8.303   7.152   1.819 -0.0680 -2.5956 -0.8600
  459MOL0     H61954   8.187   7.189   1.601 -0.1784 -0.5907  2.6290
  459MOL0     H61955   8.353   7.463   1.296 -1.5843  0.0500 -0.7788
  459MOL0     H61956   8.442   7.310   1.260  0.7918  0.0698 -0.8022
  459MOL0     H61957   8.150   7.361   1.162  0.1403  2.7294 -3.8103
  459MOL0     H61958   8.265   7.242   1.114  1.2645  0.0844  0.8036
  459MOL0     H61959   8.227   7.543   1.057  2.2527  1.3352 -2.7208
  459MOL0     H61960   8.247   7.406   0.948 -0.4721 -0.6191  0.0847
  459MOL0     H61961   8.496   7.406   1.003  0.4077  1.0268  1.3470
  459MOL0     H61962   8.461   7.542   1.115 -0.9513 -2.8051  2.0114
  459MOL0     H61963   8.450   7.735   0.740  2.8999 -0.2389 -0.6709
  459MOL0     H61964   8.539   7.395   1.459  3.4953 -2.1454  0.3689
  459MOL0     H61965   8.645   7.358   1.674  1.0379 -2.1825 -2.0382
  460MOL0     O61966  10.225   8.748  10.668 -0.3977 -0.2616  0.2707
  460MOL0     C61967  10.242   8.865  10.702 -0.6890  0.4645 -0.3180
  460MOL0     O61968  10.141   8.963  10.706 -0.0776  0.3825  0.6133
  460MOL0     C61969  10.012   8.932  10.727  0.4379 -0.0208 -0.4619
  460MOL0     C61970   9.943   8.807  10.697  0.8626  0.1940  0.7028
  460MOL0     C61971   9.807   8.794  10.717  0.0798 -0.1897  0.6971
  460MOL0     C61972   9.729   8.900  10.756 -0.5601 -0.6818 -0.4605
  460MOL0     O61973   9.595   8.880  10.765  0.2716 -0.0174 -0.1462
  460MOL0     C61974   9.508   9.001  10.763 -0.1077 -0.7433  0.3370
  460MOL0     C61975   9.369   8.951  10.746  0.0748 -0.0952 -0.1274
  460MOL0     C61976   9.342   8.890  10.607 -0.1765 -0.2831  0.0505
  460MOL0     C61977   9.344   8.735  10.617 -0.0496 -1.0848 -0.3856
  460MOL0     C61978   9.350   8.664  10.468  0.1590 -0.4739 -0.5616
  460MOL0     C61979   9.389   8.517  10.481 -0.7672  0.6626  0.1732
  460MOL0     C61980   9.270   8.421  10.497  0.1170  0.0746 -0.0175
  460MOL0     C61981   9.328   8.278  10.521  0.5736  0.0788  0.1819
  460MOL0     N61982   9.251   8.154  10.472 -0.9661 -0.1591 -0.2012
  460MOL0     C61983   9.296   8.059  10.389  0.4692 -0.1319 -0.5302
  460MOL0     C61984   9.189   7.978  10.371  0.3409 -0.1687  0.2728
  460MOL0     C61985   9.179   7.847  10.290  0.4655  0.3496  0.3444
  460MOL0     C61986   9.078   7.853  10.170  0.2072  0.1349  0.3039
  460MOL0     C61987   9.073   7.712  10.101  0.8973 -0.3546 -0.3828
  460MOL0     C61988   9.008   7.722   9.961  0.2057  0.5996  0.2259
  460MOL0     O61989   9.017   7.589   9.911 -0.1422  0.1521  0.3841
  460MOL0     C61990   8.934   7.493   9.950 -0.2305 -0.4666  0.8093
  460MOL0     C61991   8.983   7.366   9.907  0.2432  0.6732 -0.1397
  460MOL0     C61992   8.906   7.247   9.929  0.0495  0.7351  0.4400
  460MOL0     C61993   8.966   7.126   9.878  0.5112 -0.7024  0.4526
  460MOL0     C61994   8.785   7.252   9.998 -0.1341  0.0149  0.8741
  460MOL0     C61995   8.695   7.129  10.014 -0.8969 -0.5449 -0.8127
  460MOL0     O61996   8.742   7.002   9.973  0.3466  0.6829 -0.5944
  460MOL0     C61997   8.656   6.898   9.947  0.3357 -0.5273  0.2488
  460MOL0     C61998   8.701   6.797   9.864 -0.3728  0.9296  0.4859
  460MOL0     C61999   8.623   6.684   9.836 -0.2774  0.3017 -0.0210
  460MOL0     C62000   8.490   6.680   9.882 -0.5170 -0.1409 -0.7047
  460MOL0     O62001   8.423   6.564   9.889  0.3802 -0.8845 -0.1278
  460MOL0     C62002   8.474   6.444   9.824  0.0141  0.1872  0.6349
  460MOL0     C62003   8.384   6.322   9.851 -0.2621  1.5049  0.6747
  460MOL0     C62004   8.349   6.298   9.995 -0.0082  0.3168 -0.4983
  460MOL0     C62005   8.271   6.177  10.010  0.0223  0.8909  0.4662
  460MOL0     C62006   8.226   6.150  10.153  0.0619 -0.8326 -0.0564
  460MOL0     C62007   8.084   6.097  10.164  1.4219  1.0012  0.6251
  460MOL0     C62008   8.038   6.111  10.319  0.2710 -0.1106  0.5115
  460MOL0     C62009   7.903   6.037  10.316  0.5622  0.6288  0.3482
  460MOL0    Cl62010   7.799   6.093  10.450  0.4400 -0.2476  0.0171
  460MOL0     C62011   8.440   6.778   9.961  0.0656  0.2685 -0.0015
  460MOL0     C62012   8.521   6.889   9.989 -0.5662 -0.5613  0.0980
  460MOL0     O62013   8.581   7.152  10.050  0.0007 -0.6332  0.9355
  460MOL0     C62014   8.735   7.383  10.038 -0.2651  0.5590 -1.2165
  460MOL0     C62015   8.810   7.498  10.016 -0.0741  0.1504 -0.0101
  460MOL0     N62016   9.082   8.019  10.452 -0.2751  0.6198 -0.1341
  460MOL0     N62017   9.123   8.126  10.509 -0.1609 -0.5158 -0.1107
  460MOL0     C62018   9.791   9.019  10.781  0.1502  0.5006 -0.4904
  460MOL0     C62019   9.931   9.035  10.774 -0.2638  0.2048  0.3888
  460MOL0     C62020  10.373   8.899  10.758  0.1920 -0.4952  1.1909
  460MOL0     C62021  10.390   9.027  10.827  0.0310 -0.3366 -1.1285
  460MOL0     C62022  10.510   9.070  10.888 -0.3013  0.0071 -0.2696
  460MOL0     C62023  10.618   8.980  10.883 -0.8580  0.2696 -0.3638
  460MOL0     O62024  10.743   9.006  10.936 -0.2957  0.4575  0.3109
  460MOL0     C62025  10.752   9.114  11.032 -0.2427  0.0308  0.1205
  460MOL0     C62026  10.886   9.102  11.107 -0.1305  0.0020  0.1290
  460MOL0     C62027  10.894   9.214  11.209 -0.8803  0.4360  0.3464
  460MOL0     C62028  11.034   9.207  11.275  0.3486  0.1936 -0.4113
  460MOL0     C62029  11.040   9.168  11.416  0.0800 -0.6106  0.6374
  460MOL0     C62030  11.036   9.114  11.519 -0.9961  0.3772 -0.4230
  460MOL0     C62031  10.608   8.854  10.813 -0.3926 -0.4242  0.3394
  460MOL0     C62032  10.487   8.813  10.759 -0.5854 -0.5745  0.3944
  460MOL0     H62033   9.996   8.726  10.649  2.8092  1.8937 -0.1781
  460MOL0     H62034   9.761   8.697  10.702  1.2392 -0.7230  0.5335
  460MOL0     H62035   9.515   9.062  10.854  1.6263  1.4424 -1.1378
  460MOL0     H62036   9.536   9.067  10.680 -2.2206  2.8782  2.2278
  460MOL0     H62037   9.337   8.873  10.816  0.6670  1.7223  2.2941
  460MOL0     H62038   9.293   9.029  10.754  1.3227  1.0457  1.0128
  460MOL0     H62039   9.241   8.925  10.584 -0.5279  0.9499  3.0263
  460MOL0     H62040   9.405   8.924  10.524  0.8739 -0.9519  0.5562
  460MOL0     H62041   9.440   8.714  10.666  0.8628 -0.4923 -1.8722
  460MOL0     H62042   9.261   8.700  10.680  0.1295 -1.2176 -0.2197
  460MOL0     H62043   9.253   8.681  10.421 -1.3942 -2.2330  1.7746
  460MOL0     H62044   9.431   8.711  10.412  0.6846 -1.5005 -0.6812
  460MOL0     H62045   9.454   8.489  10.397  3.1452  0.7773  2.8768
  460MOL0     H62046   9.454   8.513  10.570  1.3475  1.3960 -1.2512
  460MOL0     H62047   9.220   8.455  10.588 -1.0296 -1.4010 -0.0570
  460MOL0     H62048   9.199   8.431  10.415 -0.6221  0.9677  0.7154
  460MOL0     H62049   9.325   8.268  10.630  2.4772 -1.0790  0.1657
  460MOL0     H62050   9.429   8.277  10.479  0.6892 -2.3993  0.3606
  460MOL0     H62051   9.395   8.039  10.349  1.0883  0.5836  0.6112
  460MOL0     H62052   9.278   7.819  10.254 -0.4890  0.2262 -2.3601
  460MOL0     H62053   9.137   7.776  10.363  0.6412  0.7564  0.8513
  460MOL0     H62054   9.121   7.930  10.105 -1.5017 -0.1571 -1.2486
  460MOL0     H62055   8.978   7.882  10.202 -0.1623  1.3080 -1.7348
  460MOL0     H62056   9.018   7.638  10.159  1.0490 -1.1295 -1.2068
  460MOL0     H62057   9.172   7.670  10.082  1.5236  1.6057 -1.9111
  460MOL0     H62058   9.073   7.791   9.906  0.7678  1.2579  1.6334
  460MOL0     H62059   8.902   7.748   9.960  0.6114  2.3706 -0.4237
  460MOL0     H62060   9.077   7.356   9.854 -0.1439 -0.2132 -0.6717
  460MOL0     H62061   8.981   7.062   9.966 -1.2560 -2.8511 -0.7087
  460MOL0     H62062   8.904   7.072   9.806  0.9484  0.2091 -0.6336
  460MOL0     H62063   9.067   7.144   9.839  0.8287 -1.4428  0.8985
  460MOL0     H62064   8.804   6.791   9.832 -1.3206  0.8691 -2.9021
  460MOL0     H62065   8.650   6.599   9.775  0.6316 -1.0106  2.0864
  460MOL0     H62066   8.488   6.463   9.717 -0.4143  0.4607  0.6228
  460MOL0     H62067   8.570   6.427   9.872 -0.4157  2.4845  2.4701
  460MOL0     H62068   8.289   6.330   9.798  0.3367  2.0004 -0.3630
  460MOL0     H62069   8.439   6.234   9.817  2.0873  2.7798  0.9559
  460MOL0     H62070   8.287   6.375  10.041 -0.5030  1.0983 -2.3545
  460MOL0     H62071   8.441   6.281  10.052 -1.1943 -0.4894  1.2782
  460MOL0     H62072   8.183   6.181   9.945 -0.0379 -2.5601  0.1531
  460MOL0     H62073   8.327   6.093   9.969  0.1770  0.4524  1.5432
  460MOL0     H62074   8.237   6.244  10.208 -0.5200 -1.3725  1.0070
  460MOL0     H62075   8.288   6.072  10.198  0.0123 -0.4336  0.7264
  460MOL0     H62076   8.018   6.149  10.094  2.2597 -0.3471 -1.2504
  460MOL0     H62077   8.078   5.990  10.144  0.4606  0.7211  2.3095
  460MOL0     H62078   8.026   6.216  10.346 -3.1828 -0.9050  2.5552
  460MOL0     H62079   8.112   6.067  10.386  1.0621 -0.8010 -0.7528
  460MOL0     H62080   7.925   5.930  10.313 -1.0970  0.2767 -0.1624
  460MOL0     H62081   7.845   6.058  10.225 -0.7570 -1.4078  0.6590
  460MOL0     H62082   8.349   6.773  10.019 -0.1458  2.0005 -0.1412
  460MOL0     H62083   8.471   6.960  10.055 -2.1085  0.8156 -2.3782
  460MOL0     H62084   8.637   7.393  10.085 -0.9922 -4.4138 -1.2231
  460MOL0     H62085   8.767   7.597  10.030 -1.7332 -0.5445 -0.0334
  460MOL0     H62086   9.734   9.106  10.810  0.6069  0.9672 -0.9812
  460MOL0     H62087   9.977   9.130  10.801 -1.4912  0.2875  2.3877
  460MOL0     H62088  10.304   9.091  10.840  2.1397  2.1842  2.1511
  460MOL0     H62089  10.526   9.171  10.925  2.1385 -0.3663 -0.1584
  460MOL0     H62090  10.759   9.203  10.969  0.8594 -0.9695 -1.2446
  460MOL0     H62091  10.667   9.098  11.099 -2.3109 -3.0472 -2.8809
  460MOL0     H62092  10.971   9.123  11.042 -0.1774 -1.2636 -0.3738
  460MOL0     H62093  10.893   9.006  11.160 -0.2385  1.1683  2.3990
  460MOL0     H62094  10.817   9.196  11.285 -0.7943  0.6002  0.4763
  460MOL0     H62095  10.877   9.315  11.171  1.2125  0.1117 -1.6598
  460MOL0     H62096  11.087   9.301  11.258  2.4093 -0.3526  2.3912
  460MOL0     H62097  11.093   9.139  11.214  0.0522 -0.9898  0.5980
  460MOL0     H62098  11.033   9.072  11.618 -0.5543  0.3414 -0.4248
  460MOL0     H62099  10.696   8.791  10.808  2.8832  3.7346 -0.4498
  460MOL0     H62100  10.487   8.717  10.709 -0.7809 -1.0739  1.3355
  461MOL0     O62101   5.804   7.219   2.583  0.5708  0.0752  0.8306
  461MOL0     C62102   5.863   7.329   2.601  1.0949 -0.1080  0.1223
  461MOL0     O62103   5.795   7.445   2.596 -0.0310 -0.2264 -0.2364
  461MOL0     C62104   5.676   7.440   2.534  0.3120  0.5217  0.1411
  461MOL0     C62105   5.656   7.502   2.412 -0.2273  0.3628  0.0975
  461MOL0     C62106   5.529   7.522   2.357 -0.1796 -0.1730 -0.1108
  461MOL0     C62107   5.420   7.468   2.428 -0.3278  1.2592 -0.2538
  461MOL0     O62108   5.297   7.502   2.372  0.2351 -0.6719 -0.4138
  461MOL0     C62109   5.176   7.432   2.413 -0.3291  0.6164 -0.5140
  461MOL0     C62110   5.051   7.485   2.348  0.5595  0.4117 -1.1594
  461MOL0     C62111   4.940   7.415   2.419 -0.5992  0.8524 -0.2324
  461MOL0     C62112   4.808   7.484   2.383  0.1089 -0.1963  0.2439
  461MOL0     C62113   4.669   7.438   2.440  0.2428  0.6583 -0.1909
  461MOL0     C62114   4.560   7.524   2.371 -0.6733 -0.4917 -0.5080
  461MOL0     C62115   4.421   7.520   2.449  0.4802 -0.5684  0.5439
  461MOL0     C62116   4.306   7.597   2.372 -0.1695 -0.1545 -0.4085
  461MOL0     N62117   4.185   7.611   2.453 -0.0789 -0.1501  0.7528
  461MOL0     C62118   4.092   7.509   2.443  0.2730 -0.0038 -0.8838
  461MOL0     C62119   4.000   7.550   2.535 -0.0988 -0.4053  0.9249
  461MOL0     C62120   3.861   7.494   2.560  0.0329  0.5509 -0.1457
  461MOL0     C62121   3.747   7.580   2.517  0.5857 -0.5951 -0.1832
  461MOL0     C62122   3.704   7.577   2.372  0.5265  0.2866 -0.0889
  461MOL0     C62123   3.664   7.432   2.322 -0.5831 -0.4332  0.6654
  461MOL0     O62124   3.653   7.432   2.183  0.0546 -0.1438  0.0336
  461MOL0     C62125   3.526   7.465   2.116  0.4325 -0.0406  0.0209
  461MOL0     C62126   3.533   7.463   1.976  0.6728 -0.1142  0.1929
  461MOL0     C62127   3.419   7.471   1.901  0.5713 -0.8717  0.3577
  461MOL0     C62128   3.425   7.441   1.750 -0.0146  1.1770  0.0187
  461MOL0     C62129   3.285   7.471   1.960 -0.0008  0.1067  0.2223
  461MOL0     C62130   3.159   7.475   1.882 -0.0390 -0.8857 -0.7281
  461MOL0     O62131   3.104   7.366   1.822  0.1765 -0.6394  0.2010
  461MOL0     C62132   3.007   7.386   1.730  1.2944  0.2577  0.2533
  461MOL0     C62133   2.876   7.336   1.759 -0.2727 -0.8557 -0.9502
  461MOL0     C62134   2.765   7.346   1.670 -0.7288 -0.9620 -0.0093
  461MOL0     C62135   2.787   7.415   1.543  0.2006  0.3440 -0.2404
  461MOL0     O62136   2.673   7.436   1.464  0.0172  0.6055 -0.1404
  461MOL0     C62137   2.650   7.330   1.365  0.5340  1.0847  0.5095
  461MOL0     C62138   2.524   7.244   1.401  0.5765 -0.3806  0.3071
  461MOL0     C62139   2.386   7.317   1.394 -0.5122  0.1211 -0.2290
  461MOL0     C62140   2.347   7.398   1.526  0.2122  0.2829 -0.7162
  461MOL0     C62141   2.190   7.429   1.529 -0.1663  0.1392 -0.1838
  461MOL0     C62142   2.168   7.536   1.638 -0.1475  0.8969  0.5592
  461MOL0     C62143   2.017   7.568   1.641  0.2429  0.6087 -0.0752
  461MOL0     C62144   1.991   7.666   1.751 -1.2066  0.3406 -0.5258
  461MOL0    Cl62145   1.818   7.718   1.754 -0.3948  0.0773 -0.0564
  461MOL0     C62146   2.912   7.467   1.515  0.2980 -0.2664  0.3163
  461MOL0     C62147   3.017   7.457   1.612  0.5906 -0.2029  0.3356
  461MOL0     O62148   3.110   7.590   1.877 -0.0408  0.2689 -0.4492
  461MOL0     C62149   3.284   7.492   2.101 -0.0549  0.4738  0.8354
  461MOL0     C62150   3.401   7.492   2.175  0.1707  1.2038  0.5610
  461MOL0     N62151   4.041   7.660   2.602 -0.0486 -0.4454 -0.5010
  461MOL0     N62152   4.156   7.694   2.558  0.0867  0.2330  0.4825
  461MOL0     C62153   5.438   7.408   2.555  0.5104  0.3330  0.1928
  461MOL0     C62154   5.565   7.398   2.604 -0.8297  0.4514  0.2877
  461MOL0     C62155   6.001   7.321   2.619  0.7039  0.5037  0.6549
  461MOL0     C62156   6.086   7.219   2.557  0.1312 -0.3253 -0.2966
  461MOL0     C62157   6.223   7.220   2.588 -0.5176 -0.6159  0.2190
  461MOL0     C62158   6.278   7.311   2.674 -0.2313  0.0471 -0.7066
  461MOL0     O62159   6.415   7.297   2.701 -0.3274 -0.5886  0.6474
  461MOL0     C62160   6.462   7.183   2.775  0.2035 -0.2642 -0.0704
  461MOL0     C62161   6.606   7.138   2.725  0.4912 -0.7724  0.2319
  461MOL0     C62162   6.613   7.110   2.579  0.4551 -0.3213  0.5529
  461MOL0     C62163   6.749   7.046   2.530 -0.3567 -0.3630 -0.8499
  461MOL0     C62164   6.775   6.914   2.592  0.7040  0.0969 -0.2601
  461MOL0     C62165   6.786   6.815   2.644  0.1476  0.5324 -0.6779
  461MOL0     C62166   6.198   7.415   2.728  0.0081 -0.4842  0.5686
  461MOL0     C62167   6.064   7.416   2.701 -0.0632 -0.1119 -0.1561
  461MOL0     H62168   5.743   7.536   2.356  1.2160 -3.9733 -0.6313
  461MOL0     H62169   5.527   7.588   2.270  2.8212 -2.8658 -2.4751
  461MOL0     H62170   5.192   7.323   2.407  0.3780  0.7793 -2.5799
  461MOL0     H62171   5.154   7.449   2.518  1.0299  0.4871 -0.1819
  461MOL0     H62172   5.052   7.594   2.355 -1.2664  0.3460  2.8767
  461MOL0     H62173   5.047   7.467   2.240 -0.8465 -0.3190 -1.0045
  461MOL0     H62174   4.928   7.310   2.392  0.0762  0.2117  1.7883
  461MOL0     H62175   4.960   7.425   2.526  2.2933  0.6353 -0.6866
  461MOL0     H62176   4.820   7.590   2.410 -3.4431  0.4077 -0.0924
  461MOL0     H62177   4.799   7.476   2.275  1.0581  1.0685  0.0411
  461MOL0     H62178   4.645   7.332   2.426 -0.9358  0.5345  2.2039
  461MOL0     H62179   4.670   7.446   2.549  0.3026  1.0621 -0.2216
  461MOL0     H62180   4.594   7.628   2.366  0.6681 -0.9372 -1.2418
  461MOL0     H62181   4.548   7.484   2.270  0.1776 -1.1904 -0.3420
  461MOL0     H62182   4.381   7.419   2.461  0.4523 -0.6732 -0.3315
  461MOL0     H62183   4.431   7.564   2.548 -1.5150 -0.6718  0.8332
  461MOL0     H62184   4.277   7.549   2.278 -4.4478  0.6246  0.3090
  461MOL0     H62185   4.339   7.700   2.355 -1.2220  0.7978  2.6807
  461MOL0     H62186   4.078   7.428   2.372 -2.3083  0.2171 -0.7126
  461MOL0     H62187   3.851   7.392   2.523  1.5499  0.2148  0.2925
  461MOL0     H62188   3.846   7.477   2.667  0.2373 -0.7849 -0.3127
  461MOL0     H62189   3.774   7.684   2.536 -0.4047 -0.3325 -0.1423
  461MOL0     H62190   3.660   7.560   2.582  0.1453 -0.8230 -0.8346
  461MOL0     H62191   3.784   7.619   2.311 -0.9355  4.6207  0.6283
  461MOL0     H62192   3.619   7.646   2.364 -1.5563 -2.0109  0.6162
  461MOL0     H62193   3.568   7.406   2.369 -2.6481 -0.7089 -3.2174
  461MOL0     H62194   3.734   7.354   2.350 -0.2505 -0.4436 -0.1687
  461MOL0     H62195   3.626   7.460   1.920 -0.6397 -3.0395 -2.1087
  461MOL0     H62196   3.401   7.334   1.742  1.3308  0.6847  1.8925
  461MOL0     H62197   3.362   7.501   1.684 -2.5253 -1.2152  0.0764
  461MOL0     H62198   3.524   7.463   1.709 -1.1199  1.7470 -2.4912
  461MOL0     H62199   2.850   7.290   1.854 -0.0910 -1.0478 -0.9917
  461MOL0     H62200   2.664   7.317   1.699 -0.9737 -0.7979 -0.6706
  461MOL0     H62201   2.632   7.377   1.268  3.7665  1.6036  0.0505
  461MOL0     H62202   2.732   7.259   1.352  0.6188  1.4103 -0.8506
  461MOL0     H62203   2.514   7.164   1.327  2.2432 -1.5246  1.2394
  461MOL0     H62204   2.534   7.185   1.493 -2.0690  0.7098  1.3654
  461MOL0     H62205   2.301   7.250   1.378 -2.3641  1.9492  1.2442
  461MOL0     H62206   2.385   7.378   1.303  1.6482 -2.0929 -1.8436
  461MOL0     H62207   2.375   7.331   1.608 -1.0580  0.4939 -0.0949
  461MOL0     H62208   2.409   7.489   1.522 -1.9191  1.7673 -2.7366
  461MOL0     H62209   2.130   7.339   1.545 -1.8454  1.2183 -0.2214
  461MOL0     H62210   2.160   7.480   1.437  1.9040  3.7571  0.9401
  461MOL0     H62211   2.195   7.495   1.735 -0.9995  0.3200  0.5652
  461MOL0     H62212   2.224   7.627   1.619 -0.0388  0.5340 -1.0279
  461MOL0     H62213   1.956   7.477   1.652 -3.0203  2.7517  1.2387
  461MOL0     H62214   1.989   7.624   1.551  1.2588 -1.2077 -1.5924
  461MOL0     H62215   2.051   7.757   1.743  2.7872 -2.1900 -2.4271
  461MOL0     H62216   2.021   7.612   1.841  0.7780  2.1229 -0.0336
  461MOL0     H62217   2.913   7.524   1.423 -3.4285 -0.0475  0.2627
  461MOL0     H62218   3.107   7.517   1.601  1.8637 -1.9521  0.7173
  461MOL0     H62219   3.191   7.513   2.153  0.7016  1.6196  1.7662
  461MOL0     H62220   3.399   7.489   2.283 -2.3445  0.5596  0.5479
  461MOL0     H62221   5.351   7.380   2.614  1.0489 -2.6168 -0.2584
  461MOL0     H62222   5.589   7.367   2.706  0.5604  3.7101  1.0904
  461MOL0     H62223   6.042   7.149   2.487 -3.8165  1.3437  0.2643
  461MOL0     H62224   6.273   7.141   2.533 -2.0589 -0.0306 -2.1726
  461MOL0     H62225   6.471   7.215   2.879 -0.5609 -3.3897  1.0786
  461MOL0     H62226   6.392   7.099   2.770  0.9909 -0.9897  0.7728
  461MOL0     H62227   6.644   7.049   2.775 -2.1816 -1.2735  1.5927
  461MOL0     H62228   6.677   7.215   2.757 -0.1989 -0.1855  0.3845
  461MOL0     H62229   6.606   7.202   2.521  0.8487 -0.4904  0.2297
  461MOL0     H62230   6.537   7.039   2.546 -0.6760 -1.0946  4.2776
  461MOL0     H62231   6.831   7.116   2.551 -0.3271 -0.7710  0.4945
  461MOL0     H62232   6.730   7.028   2.424 -1.4845  1.9504 -1.0834
  461MOL0     H62233   6.781   6.723   2.699  1.1124  0.8600 -0.0118
  461MOL0     H62234   6.240   7.502   2.777 -0.5981  1.4699 -2.1375
  461MOL0     H62235   6.010   7.497   2.749  2.1690  0.6999  1.1286
  462MOL0     O62236   0.134  11.180   7.518 -0.0637 -0.3137 -0.7207
  462MOL0     C62237   0.121  11.301   7.527  0.0054 -0.5928  0.4071
  462MOL0     O62238   0.057  11.378   7.625  0.8843  0.8236  0.8385
  462MOL0     C62239  -0.037  11.333   7.713 -0.8112 -0.2768  0.6663
  462MOL0     C62240  -0.023  11.366   7.844 -0.3156 -0.7143 -0.1687
  462MOL0     C62241  -0.124  11.340   7.939 -0.0650 -0.3993 -0.3481
  462MOL0     C62242  -0.235  11.272   7.901  0.0869  0.6276  0.2419
  462MOL0     O62243  -0.326  11.235   7.995 -0.1425  0.3136 -0.6161
  462MOL0     C62244  -0.461  11.244   7.963 -0.6408  0.3972 -0.5044
  462MOL0     C62245  -0.530  11.110   8.015 -0.2616  0.5221  0.1845
  462MOL0     C62246  -0.502  10.996   7.910 -0.7448 -1.4889  0.9515
  462MOL0     C62247  -0.579  10.874   7.962 -0.0416 -0.5030  0.2275
  462MOL0     C62248  -0.572  10.758   7.858  0.4643 -0.1973  0.9499
  462MOL0     C62249  -0.667  10.638   7.892  0.7298 -0.3680 -0.3060
  462MOL0     C62250  -0.690  10.560   7.767 -0.0654  0.4648 -0.4692
  462MOL0     C62251  -0.791  10.614   7.672 -0.2250 -0.0169  0.3766
  462MOL0     N62252  -0.922  10.554   7.705 -0.4488 -0.5899 -0.6840
  462MOL0     C62253  -0.990  10.453   7.628  0.2990 -0.0336 -0.8374
  462MOL0     C62254  -1.117  10.446   7.674  0.4052 -0.5728 -0.2226
  462MOL0     C62255  -1.214  10.352   7.631 -0.4371  0.3396 -0.4140
  462MOL0     C62256  -1.208  10.232   7.730  0.1877  1.1745 -1.6102
  462MOL0     C62257  -1.322  10.140   7.713  0.7512 -0.0166  0.8877
  462MOL0     C62258  -1.319  10.020   7.797  0.2168  0.6288  0.1830
  462MOL0     O62259  -1.424   9.935   7.752  0.4824 -0.0266 -0.3061
  462MOL0     C62260  -1.454   9.824   7.833  0.2082  0.0573  0.1440
  462MOL0     C62261  -1.367   9.763   7.928 -0.3377 -0.1231 -1.2089
  462MOL0     C62262  -1.401   9.657   8.016 -0.0209  0.2587  0.6044
  462MOL0     C62263  -1.302   9.617   8.121  0.0201  0.4702 -0.2799
  462MOL0     C62264  -1.537   9.608   8.006  0.8535  0.0947 -0.6283
  462MOL0     C62265  -1.593   9.507   8.093 -0.6633 -0.3923  0.6893
  462MOL0     O62266  -1.728   9.507   8.105  0.8418 -0.7494 -0.3516
  462MOL0     C62267  -1.785   9.404   8.172 -0.6381  0.0957  0.3830
  462MOL0     C62268  -1.829   9.421   8.303 -0.0487  0.7034 -0.1807
  462MOL0     C62269  -1.881   9.310   8.377  0.3022  0.6270  0.4505
  462MOL0     C62270  -1.875   9.181   8.320  0.2031  0.3262  0.6351
  462MOL0     O62271  -1.911   9.064   8.378 -0.7197 -0.1011 -0.7649
  462MOL0     C62272  -1.881   9.055   8.523  0.7856  0.8096 -0.0699
  462MOL0     C62273  -1.975   8.947   8.587  0.0979  0.1815 -0.3932
  462MOL0     C62274  -2.015   8.981   8.735 -0.4645 -1.3187  0.5276
  462MOL0     C62275  -2.135   9.071   8.739 -0.2632  0.7055  0.1514
  462MOL0     C62276  -2.279   9.004   8.718 -0.2363 -0.5441  0.0270
  462MOL0     C62277  -2.314   8.901   8.831 -0.1594 -1.1399 -0.8144
  462MOL0     C62278  -2.429   8.959   8.923 -0.5581  0.5214 -0.4172
  462MOL0     C62279  -2.491   8.859   9.025  0.9684  0.1150  1.0341
  462MOL0    Cl62280  -2.544   8.703   8.951 -0.0666  0.1831  0.0998
  462MOL0     C62281  -1.829   9.169   8.185  0.0657 -1.0367 -0.0866
  462MOL0     C62282  -1.784   9.274   8.108 -0.4909 -0.3143 -0.4617
  462MOL0     O62283  -1.520   9.430   8.153  0.2320 -0.0507  0.2393
  462MOL0     C62284  -1.619   9.663   7.900 -0.3280  0.1398 -0.1346
  462MOL0     C62285  -1.578   9.765   7.819  0.7606  0.3366 -0.1767
  462MOL0     N62286  -1.125  10.541   7.771  0.1611  0.1671  0.0069
  462MOL0     N62287  -1.013  10.596   7.795  0.5298 -1.0417  0.2931
  462MOL0     C62288  -0.231  11.215   7.769 -0.4859  0.6684 -0.7021
  462MOL0     C62289  -0.128  11.243   7.673  0.7741 -0.7612  0.6128
  462MOL0     C62290   0.196  11.376   7.418 -0.0523 -1.0596  0.4600
  462MOL0     C62291   0.189  11.515   7.412 -0.3163  0.2383  0.2816
  462MOL0     C62292   0.265  11.588   7.316 -0.0600  0.3001 -0.3844
  462MOL0     C62293   0.357  11.521   7.234 -0.4001  0.1636 -0.1843
  462MOL0     O62294   0.427  11.604   7.147 -0.3775  0.1794 -0.5762
  462MOL0     C62295   0.505  11.547   7.043 -0.2177  0.5286 -0.4400
  462MOL0     C62296   0.584  11.642   6.960 -0.1927  0.5728  0.5445
  462MOL0     C62297   0.718  11.678   7.037 -0.3010  1.1652  0.9689
  462MOL0     C62298   0.772  11.822   6.996  0.7731 -0.5317  0.0999
  462MOL0     C62299   0.890  11.865   7.073 -0.1561  0.5491  0.9592
  462MOL0     C62300   0.990  11.916   7.128  1.2182 -0.4917 -0.1222
  462MOL0     C62301   0.369  11.383   7.246  0.9315  0.2689 -0.0062
  462MOL0     C62302   0.286  11.313   7.331 -0.1588  0.5134 -0.5992
  462MOL0     H62303   0.064  11.425   7.873 -1.6608  0.3299  2.0332
  462MOL0     H62304  -0.130  11.371   8.042 -0.6556 -2.0602  0.1424
  462MOL0     H62305  -0.499  11.331   8.018  0.8432 -0.4674  2.0948
  462MOL0     H62306  -0.477  11.255   7.855 -1.2083  3.3519 -0.2071
  462MOL0     H62307  -0.473  11.070   8.099 -1.6436 -1.3444  0.3058
  462MOL0     H62308  -0.632  11.113   8.054  0.8143  1.6357  3.2455
  462MOL0     H62309  -0.546  11.025   7.814 -1.0276 -0.4106  1.3913
  462MOL0     H62310  -0.394  10.990   7.893 -0.7587 -0.9899  0.6514
  462MOL0     H62311  -0.551  10.844   8.063  0.7217  2.8832  1.1242
  462MOL0     H62312  -0.686  10.898   7.963 -0.1698 -0.9355  2.6440
  462MOL0     H62313  -0.592  10.793   7.756 -0.9084 -0.0431  1.2443
  462MOL0     H62314  -0.470  10.722   7.847  0.0374 -1.2602  0.2445
  462MOL0     H62315  -0.623  10.565   7.961  0.9061  1.1651  1.2623
  462MOL0     H62316  -0.758  10.680   7.935 -1.4833 -2.1998 -2.8202
  462MOL0     H62317  -0.593  10.546   7.719  0.6073  2.8116  0.0589
  462MOL0     H62318  -0.724  10.461   7.800 -3.3806  1.8479  0.7685
  462MOL0     H62319  -0.763  10.581   7.571 -0.8331  2.2329 -0.5921
  462MOL0     H62320  -0.792  10.724   7.669  0.2403 -0.0105  0.3154
  462MOL0     H62321  -0.955  10.404   7.538  0.2340 -0.1614 -0.7936
  462MOL0     H62322  -1.311  10.399   7.647 -1.5511 -2.4958  2.3834
  462MOL0     H62323  -1.199  10.306   7.533 -1.3777 -0.3848 -0.2317
  462MOL0     H62324  -1.197  10.272   7.831  2.4929  0.7452 -1.6369
  462MOL0     H62325  -1.118  10.177   7.699 -0.0670  1.4611 -2.9126
  462MOL0     H62326  -1.308  10.111   7.609 -2.2597  1.5126 -0.0759
  462MOL0     H62327  -1.419  10.192   7.716  0.0182 -0.7801 -3.3399
  462MOL0     H62328  -1.342  10.050   7.900 -0.3122  2.5946 -0.4490
  462MOL0     H62329  -1.226   9.963   7.797  0.9601  1.8085 -0.4574
  462MOL0     H62330  -1.270   9.811   7.944 -1.5427  2.0788  0.0996
  462MOL0     H62331  -1.203   9.662   8.106 -0.5128  3.2204  3.0960
  462MOL0     H62332  -1.329   9.646   8.223  1.6639 -2.4058  1.1135
  462MOL0     H62333  -1.299   9.508   8.119 -4.5441  0.1456  0.4075
  462MOL0     H62334  -1.830   9.524   8.334  2.5651  0.3573  1.3707
  462MOL0     H62335  -1.928   9.320   8.475 -0.5650  1.1799 -0.0081
  462MOL0     H62336  -1.781   9.012   8.538  0.1698 -0.4477  0.5746
  462MOL0     H62337  -1.884   9.149   8.579 -1.0658  0.2467  0.8520
  462MOL0     H62338  -2.062   8.938   8.522 -1.5567  0.2605  1.6924
  462MOL0     H62339  -1.928   8.848   8.584 -0.7909 -0.2247 -1.1699
  462MOL0     H62340  -1.929   9.023   8.788  0.9371 -0.4946 -2.2051
  462MOL0     H62341  -2.047   8.888   8.784 -3.9333 -0.0732  0.9066
  462MOL0     H62342  -2.134   9.112   8.840 -1.0634  1.4531 -0.1294
  462MOL0     H62343  -2.129   9.151   8.665 -2.4475  0.3222 -0.5262
  462MOL0     H62344  -2.274   8.965   8.616  1.2410 -1.4036  0.3954
  462MOL0     H62345  -2.359   9.078   8.718 -1.9363 -2.2605  1.8433
  462MOL0     H62346  -2.342   8.803   8.792  1.2019 -1.9613  0.1868
  462MOL0     H62347  -2.233   8.877   8.900 -1.1430 -0.5660  0.5931
  462MOL0     H62348  -2.512   8.981   8.856 -1.9980 -1.7413  0.5086
  462MOL0     H62349  -2.390   9.051   8.970  0.9984 -0.2351 -0.1645
  462MOL0     H62350  -2.579   8.908   9.068 -0.6956 -1.3701 -0.4841
  462MOL0     H62351  -2.416   8.833   9.099  4.0483 -2.2634 -2.5601
  462MOL0     H62352  -1.824   9.074   8.133  2.0306  0.1340 -2.2011
  462MOL0     H62353  -1.738   9.251   8.012  2.2005 -1.8693  1.0596
  462MOL0     H62354  -1.718   9.620   7.889  0.4162 -1.2501 -1.8040
  462MOL0     H62355  -1.650   9.804   7.748 -2.6178 -1.0695  2.2128
  462MOL0     H62356  -0.313  11.153   7.734 -0.5332 -0.0700  0.6409
  462MOL0     H62357  -0.127  11.211   7.570 -3.3192 -0.7971  0.4235
  462MOL0     H62358   0.115  11.567   7.471 -3.2911 -1.5638 -1.6336
  462MOL0     H62359   0.258  11.694   7.336  0.7386  0.2339  0.2801
  462MOL0     H62360   0.569  11.471   7.089 -1.2990 -0.5357 -0.6353
  462MOL0     H62361   0.435  11.494   6.978 -2.5420  0.2004  2.1278
  462MOL0     H62362   0.519  11.728   6.944  1.5379  2.2885  2.1263
  462MOL0     H62363   0.611  11.610   6.859  1.6415  1.9509  0.5468
  462MOL0     H62364   0.798  11.606   7.020 -1.8868 -1.7856  4.7332
  462MOL0     H62365   0.691  11.680   7.143 -1.4260  1.5641  0.6902
  462MOL0     H62366   0.687  11.889   7.010  2.2563  0.7867  4.0643
  462MOL0     H62367   0.800  11.833   6.890 -1.6787 -2.0410 -0.7917
  462MOL0     H62368   1.081  11.958   7.166 -0.0224  0.5267  1.8918
  462MOL0     H62369   0.431  11.315   7.189  0.0767  0.1141 -0.7828
  462MOL0     H62370   0.302  11.206   7.340 -3.3789 -0.1739 -1.5771
  463MOL0     O62371   4.777   6.275  11.036 -0.2048 -0.2962  0.5784
  463MOL0     C62372   4.843   6.286  11.138 -0.5150  0.0813 -0.4983
  463MOL0     O62373   4.795   6.296  11.270 -0.3054 -0.0902  0.6579
  463MOL0     C62374   4.658   6.279  11.288  0.4861  0.3962 -1.0964
  463MOL0     C62375   4.560   6.363  11.237  0.1264  0.3447  0.1108
  463MOL0     C62376   4.433   6.336  11.280  0.3576  0.6730  0.5437
  463MOL0     C62377   4.401   6.232  11.365 -0.0643 -0.6746  0.3185
  463MOL0     O62378   4.271   6.198  11.405  0.1988  0.5461 -0.0037
  463MOL0     C62379   4.151   6.280  11.369 -1.1000 -0.3694  0.2127
  463MOL0     C62380   4.029   6.241  11.456 -0.6541 -0.2319  0.8168
  463MOL0     C62381   3.897   6.311  11.406  0.1043 -0.3795 -1.4591
  463MOL0     C62382   3.824   6.215  11.321  0.1730  0.6053 -0.0397
  463MOL0     C62383   3.703   6.269  11.254 -0.0012 -0.5808  0.6827
  463MOL0     C62384   3.640   6.171  11.158  0.7338 -0.2636  0.2605
  463MOL0     C62385   3.503   6.227  11.093 -0.1708 -0.4408 -1.0500
  463MOL0     C62386   3.385   6.221  11.183 -0.4427 -0.6339  0.1051
  463MOL0     N62387   3.266   6.298  11.131 -0.3536  0.2658  0.0757
  463MOL0     C62388   3.140   6.237  11.113  0.8094  0.5608 -0.3801
  463MOL0     C62389   3.057   6.337  11.081  0.3278 -0.2456 -0.0360
  463MOL0     C62390   2.911   6.327  11.042  0.4540  0.0202  0.0771
  463MOL0     C62391   2.817   6.431  11.105 -0.5316  0.9493  0.2025
  463MOL0     C62392   2.851   6.432  11.262  0.1947  0.1345  1.0621
  463MOL0     C62393   2.768   6.537  11.350 -0.3170  0.1714  0.2172
  463MOL0     O62394   2.629   6.523  11.344  0.1080 -0.1036  0.5585
  463MOL0     C62395   2.570   6.423  11.407  0.1980 -0.2300  0.5740
  463MOL0     C62396   2.622   6.344  11.510 -0.5313  0.3148  0.2619
  463MOL0     C62397   2.546   6.243  11.576 -0.4335  0.2521  0.5203
  463MOL0     C62398   2.599   6.165  11.694  0.1395 -0.5672 -0.0888
  463MOL0     C62399   2.416   6.219  11.526 -0.3384  0.8773  0.2822
  463MOL0     C62400   2.299   6.127  11.582  0.7024  0.4108  0.7291
  463MOL0     O62401   2.180   6.137  11.512  0.0181 -0.4539  0.1321
  463MOL0     C62402   2.065   6.091  11.570  0.5693 -0.6424 -0.2710
  463MOL0     C62403   1.960   6.175  11.592  0.1648 -0.0301  0.9152
  463MOL0     C62404   1.841   6.123  11.649 -0.3176 -0.3762 -0.3366
  463MOL0     C62405   1.814   5.980  11.648  0.3984  0.1663 -0.5125
  463MOL0     O62406   1.689   5.936  11.685 -0.0251 -0.0288  0.0921
  463MOL0     C62407   1.666   5.804  11.731  0.1747  0.4700 -0.3953
  463MOL0     C62408   1.526   5.807  11.791  0.0673  0.6748 -0.3014
  463MOL0     C62409   1.427   5.821  11.686  1.1665  0.2489  0.9724
  463MOL0     C62410   1.279   5.837  11.736  0.3079 -0.3012 -0.1976
  463MOL0     C62411   1.169   5.818  11.628  0.0571  0.5750  0.2652
  463MOL0     C62412   1.037   5.854  11.690  0.2080  1.1111  0.2938
  463MOL0     C62413   0.919   5.795  11.608  0.2228 -0.0068  0.2824
  463MOL0     C62414   0.883   5.863  11.471 -0.1382  0.2222  0.2267
  463MOL0    Cl62415   0.823   6.019  11.524 -0.5194  0.1636 -0.8690
  463MOL0     C62416   1.917   5.893  11.607  0.5569  1.0360 -0.1243
  463MOL0     C62417   2.038   5.952  11.567 -0.4498 -0.2057 -0.2559
  463MOL0     O62418   2.321   6.052  11.674  0.0058  0.2523  0.4936
  463MOL0     C62419   2.377   6.292  11.413  0.4203 -0.9794  0.6808
  463MOL0     C62420   2.440   6.400  11.361 -0.2564  0.4184  0.5788
  463MOL0     N62421   3.132   6.458  11.081  0.2398 -0.0511 -0.3259
  463MOL0     N62422   3.256   6.435  11.112 -0.6033 -0.4396  0.6761
  463MOL0     C62423   4.505   6.165  11.435  0.1989 -0.0670 -0.0789
  463MOL0     C62424   4.636   6.186  11.391  0.8479 -0.7816 -0.4331
  463MOL0     C62425   4.988   6.252  11.125 -0.4455 -0.0704  0.2654
  463MOL0     C62426   5.065   6.272  11.233 -0.3993  0.3598  0.0596
  463MOL0     C62427   5.199   6.246  11.225 -0.1492 -0.1755 -0.8189
  463MOL0     C62428   5.263   6.189  11.113 -0.4880  0.0725  0.2387
  463MOL0     O62429   5.398   6.169  11.121  0.0329  0.1255  0.3863
  463MOL0     C62430   5.469   6.118  11.010 -0.4399  1.0036  0.7630
  463MOL0     C62431   5.619   6.080  11.046  0.2633 -0.0842 -0.8238
  463MOL0     C62432   5.626   5.938  11.119  0.2433 -0.5711  0.4128
  463MOL0     C62433   5.599   5.813  11.030  0.1276  0.7157 -0.6370
  463MOL0     C62434   5.721   5.775  10.960  0.5060 -1.0525  1.0371
  463MOL0     C62435   5.819   5.762  10.891  0.1312 -0.7453 -0.0170
  463MOL0     C62436   5.186   6.172  11.003 -0.0029 -0.1406  0.4128
  463MOL0     C62437   5.050   6.205  11.007  0.5613 -0.6963 -0.8627
  463MOL0     H62438   4.583   6.451  11.178 -3.1440  1.8446  0.8309
  463MOL0     H62439   4.346   6.390  11.243 -1.5112 -2.0242  0.6733
  463MOL0     H62440   4.167   6.387  11.381  0.1439 -0.6857  1.5393
  463MOL0     H62441   4.126   6.257  11.265 -0.3804  2.6960 -0.7449
  463MOL0     H62442   4.009   6.134  11.460 -1.0083 -0.2140 -0.1858
  463MOL0     H62443   4.058   6.275  11.556 -0.1473 -2.7449  1.5830
  463MOL0     H62444   3.843   6.348  11.494  1.8505 -1.3947  0.1139
  463MOL0     H62445   3.922   6.402  11.351 -0.4944  0.8603  0.2237
  463MOL0     H62446   3.888   6.167  11.246 -0.8842 -0.0572 -0.5393
  463MOL0     H62447   3.787   6.131  11.381  0.5974  1.0782  0.9113
  463MOL0     H62448   3.638   6.300  11.336  0.6782  1.6675  0.4305
  463MOL0     H62449   3.728   6.358  11.196 -1.6181 -0.0829  0.7113
  463MOL0     H62450   3.712   6.163  11.077 -0.9994  1.9101 -1.6244
  463MOL0     H62451   3.633   6.072  11.205  1.3253 -0.9959 -1.1401
  463MOL0     H62452   3.528   6.332  11.072 -0.3257  0.2015  1.6518
  463MOL0     H62453   3.483   6.166  11.005  1.3210  0.4192 -2.0332
  463MOL0     H62454   3.413   6.265  11.279  2.0339 -0.3136 -0.6837
  463MOL0     H62455   3.356   6.117  11.202 -1.5212 -0.8246 -2.2317
  463MOL0     H62456   3.105   6.138  11.137  0.2225  1.2518  1.8487
  463MOL0     H62457   2.900   6.324  10.933 -0.2181  0.0086  0.1452
  463MOL0     H62458   2.869   6.237  11.087 -1.7554  1.6327  1.4651
  463MOL0     H62459   2.720   6.382  11.095  0.8722 -2.0319  0.0637
  463MOL0     H62460   2.828   6.534  11.071 -0.4996  0.5757 -0.9650
  463MOL0     H62461   2.956   6.460  11.273 -0.0404  2.2763 -1.2636
  463MOL0     H62462   2.830   6.333  11.302 -1.1185  0.0054  0.1249
  463MOL0     H62463   2.775   6.639  11.312 -0.7472  0.1212 -0.0055
  463MOL0     H62464   2.808   6.542  11.451  2.2217 -1.2076 -0.6177
  463MOL0     H62465   2.726   6.363  11.537  0.5205  1.4088 -3.8468
  463MOL0     H62466   2.700   6.198  11.722 -0.0938  1.0195 -0.9880
  463MOL0     H62467   2.531   6.171  11.780  1.7204 -0.4027  1.2053
  463MOL0     H62468   2.612   6.061  11.664  1.0246 -0.4238 -0.2481
  463MOL0     H62469   1.970   6.282  11.578 -0.1258 -0.1404 -0.2262
  463MOL0     H62470   1.761   6.189  11.683 -1.0462 -2.5591  2.5906
  463MOL0     H62471   1.670   5.727  11.653 -1.3321 -0.7624  0.6961
  463MOL0     H62472   1.742   5.773  11.803 -1.6993 -1.4100  0.8907
  463MOL0     H62473   1.502   5.716  11.845 -1.7201  1.1641 -0.2272
  463MOL0     H62474   1.518   5.894  11.857  2.6209 -0.6542  1.9658
  463MOL0     H62475   1.433   5.724  11.635  0.1178  1.8284 -2.4078
  463MOL0     H62476   1.452   5.907  11.624 -0.7639  1.1100  1.2971
  463MOL0     H62477   1.256   5.767  11.817  2.1079 -0.8787 -0.1382
  463MOL0     H62478   1.271   5.940  11.773  2.0200  0.0740 -0.7688
  463MOL0     H62479   1.174   5.715  11.591  1.1656  0.2241  1.3036
  463MOL0     H62480   1.188   5.885  11.544 -0.6811  1.3022  0.6634
  463MOL0     H62481   1.037   5.813  11.792  0.5424  0.9303  0.2241
  463MOL0     H62482   1.018   5.960  11.711 -2.1636  0.3109  2.7658
  463MOL0     H62483   0.827   5.799  11.667 -0.7654  3.6814 -1.2660
  463MOL0     H62484   0.954   5.692  11.592 -0.4261  0.1391 -2.6488
  463MOL0     H62485   0.809   5.809  11.411  0.3202  2.3596 -2.4921
  463MOL0     H62486   0.970   5.864  11.404 -1.1840  0.1405 -1.1748
  463MOL0     H62487   1.918   5.784  11.610  1.1843  1.0562  0.9313
  463MOL0     H62488   2.117   5.882  11.544  2.3051  2.6682 -0.1837
  463MOL0     H62489   2.280   6.277  11.368  0.0656 -0.1362  1.1461
  463MOL0     H62490   2.399   6.464  11.283  0.9973 -1.5179 -1.8161
  463MOL0     H62491   4.483   6.078  11.497  3.3255 -2.3517 -1.8937
  463MOL0     H62492   4.708   6.119  11.436  0.2273  0.8711  3.4694
  463MOL0     H62493   5.021   6.326  11.316  2.4834  1.9801  0.6781
  463MOL0     H62494   5.264   6.268  11.309  0.3511  0.5435 -1.3687
  463MOL0     H62495   5.426   6.032  10.957  0.9125  1.7603 -1.7502
  463MOL0     H62496   5.474   6.199  10.936  0.9121  1.0607  0.8756
  463MOL0     H62497   5.663   6.156  11.111 -2.1264  1.2607 -0.6528
  463MOL0     H62498   5.681   6.075  10.956  0.8211 -0.9194 -0.4095
  463MOL0     H62499   5.545   5.945  11.192  0.2225  1.1723  0.2811
  463MOL0     H62500   5.720   5.921  11.173 -0.3669 -3.0795  0.7894
  463MOL0     H62501   5.527   5.822  10.948  0.4084  0.1722 -0.9505
  463MOL0     H62502   5.562   5.724  11.081  0.1356  0.7852 -0.5106
  463MOL0     H62503   5.907   5.748  10.832  1.9118  0.9356  2.0372
  463MOL0     H62504   5.227   6.146  10.906  2.9713  1.8368  0.9860
  463MOL0     H62505   4.986   6.190  10.921  0.0628  1.3311 -0.9136
  464MOL0     O62506   5.411   4.687   3.953 -0.5154 -0.0797  0.0724
  464MOL0     C62507   5.421   4.690   4.075 -0.0733 -0.4846 -0.1625
  464MOL0     O62508   5.325   4.733   4.165  0.2120 -0.1840 -0.3392
  464MOL0     C62509   5.194   4.756   4.121  0.2080 -0.4929  0.5019
  464MOL0     C62510   5.087   4.686   4.165  0.5818 -0.1300  0.2074
  464MOL0     C62511   4.954   4.716   4.122 -0.1037 -0.6037  0.5865
  464MOL0     C62512   4.935   4.817   4.028 -0.6092 -0.6070  0.4124
  464MOL0     O62513   4.806   4.846   3.980 -1.1207  0.2291 -0.0233
  464MOL0     C62514   4.707   4.877   4.076  0.2793  0.5102  0.4980
  464MOL0     C62515   4.581   4.920   3.989  0.2726  0.1676  0.4275
  464MOL0     C62516   4.510   4.807   3.915  0.5885 -0.0629  0.6954
  464MOL0     C62517   4.390   4.861   3.834  0.3212 -1.4044 -0.5943
  464MOL0     C62518   4.427   4.881   3.687  0.0832  0.5961 -0.1968
  464MOL0     C62519   4.338   4.990   3.621  0.0204  0.8709  0.2322
  464MOL0     C62520   4.391   4.995   3.475  0.1360 -0.3662  0.2989
  464MOL0     C62521   4.329   5.116   3.412  0.5700  0.4066  0.1070
  464MOL0     N62522   4.185   5.117   3.417 -0.1578  0.0200 -0.5285
  464MOL0     C62523   4.115   5.195   3.500 -0.0862  0.5337  0.4535
  464MOL0     C62524   3.985   5.140   3.483 -1.6751 -1.1288 -0.4648
  464MOL0     C62525   3.877   5.202   3.559 -0.0386  0.7688 -0.5757
  464MOL0     C62526   3.902   5.216   3.711 -0.4576  0.2945  0.2752
  464MOL0     C62527   3.784   5.262   3.806  0.5114  0.3784  0.9055
  464MOL0     C62528   3.644   5.242   3.743 -0.0042 -0.0134  0.0253
  464MOL0     O62529   3.616   5.304   3.616 -0.1911  0.3606 -0.2083
  464MOL0     C62530   3.488   5.298   3.571 -0.2826  0.1500  1.0390
  464MOL0     C62531   3.413   5.175   3.563  0.7457 -0.9186 -0.2981
  464MOL0     C62532   3.283   5.169   3.503  0.3441 -0.1872 -0.7574
  464MOL0     C62533   3.233   5.029   3.474  0.2683 -0.2982  0.0258
  464MOL0     C62534   3.226   5.290   3.462  0.0641  0.2498 -1.1626
  464MOL0     C62535   3.086   5.294   3.423  0.1511  0.7059  0.5160
  464MOL0     O62536   3.044   5.402   3.365 -0.4295 -0.3490  0.0388
  464MOL0     C62537   2.915   5.444   3.364 -0.4879  0.2946 -0.3544
  464MOL0     C62538   2.878   5.509   3.245 -0.1149 -0.0434 -0.5657
  464MOL0     C62539   2.753   5.559   3.230  0.8580  0.6154  0.6827
  464MOL0     C62540   2.659   5.557   3.337 -1.4776 -0.9577 -1.1194
  464MOL0     O62541   2.539   5.613   3.316  0.1771 -0.1726 -0.3078
  464MOL0     C62542   2.433   5.533   3.361  0.3742 -0.3320  0.4118
  464MOL0     C62543   2.294   5.596   3.323  0.2149 -0.8597 -0.0643
  464MOL0     C62544   2.181   5.517   3.394  0.9041 -0.3320 -0.8642
  464MOL0     C62545   2.048   5.579   3.358  0.1304 -0.0177  0.0448
  464MOL0     C62546   1.945   5.466   3.375  0.4169 -0.5613  0.3767
  464MOL0     C62547   1.811   5.524   3.321 -0.4196 -0.6075 -0.0804
  464MOL0     C62548   1.748   5.622   3.433 -0.6604 -0.1561  0.4611
  464MOL0     C62549   1.607   5.659   3.389 -0.4755  0.7637 -0.9487
  464MOL0    Cl62550   1.604   5.710   3.218 -0.3949  0.5538 -0.4061
  464MOL0     C62551   2.700   5.504   3.459 -0.6624  0.4530  0.7745
  464MOL0     C62552   2.823   5.437   3.475 -0.0455 -0.3860 -0.0259
  464MOL0     O62553   3.012   5.201   3.457 -0.2544  0.3629  0.3537
  464MOL0     C62554   3.304   5.409   3.479  0.1124 -0.0991 -0.7254
  464MOL0     C62555   3.429   5.413   3.527  0.0362  0.6210 -0.2246
  464MOL0     N62556   3.989   5.036   3.410  0.0466  0.7740  0.3901
  464MOL0     N62557   4.109   5.027   3.361 -0.4849  0.1577 -0.3252
  464MOL0     C62558   5.047   4.889   3.975  0.4703  0.0061 -0.1714
  464MOL0     C62559   5.176   4.851   4.019 -0.3457  0.1812  0.5161
  464MOL0     C62560   5.557   4.666   4.128 -0.1480 -0.1408 -0.3046
  464MOL0     C62561   5.574   4.642   4.273  0.6868  0.2556 -0.3466
  464MOL0     C62562   5.700   4.630   4.330  0.4524 -0.5679  0.5696
  464MOL0     C62563   5.811   4.626   4.239  0.1163 -0.3225  0.4049
  464MOL0     O62564   5.936   4.606   4.279  0.6510 -0.4171 -0.6296
  464MOL0     C62565   5.974   4.656   4.404 -0.0416  1.0275  1.2653
  464MOL0     C62566   6.124   4.639   4.391  0.3892 -0.3180 -0.3338
  464MOL0     C62567   6.191   4.729   4.283  0.7348 -0.9459 -0.0003
  464MOL0     C62568   6.340   4.730   4.313 -0.1906  0.2953 -0.5063
  464MOL0     C62569   6.396   4.595   4.274  0.0176  0.0276  0.0515
  464MOL0     C62570   6.451   4.497   4.232  0.1850 -0.1302 -0.0046
  464MOL0     C62571   5.795   4.639   4.098 -0.0685  0.5499  0.1313
  464MOL0     C62572   5.673   4.667   4.044 -0.1311  0.0581 -0.3903
  464MOL0     H62573   5.112   4.616   4.244 -3.2551  1.1896  2.8487
  464MOL0     H62574   4.871   4.670   4.175  0.1786 -1.1327  0.5772
  464MOL0     H62575   4.681   4.788   4.134  2.9535  1.9038  4.2276
  464MOL0     H62576   4.730   4.963   4.139  1.1970 -0.2421  1.2082
  464MOL0     H62577   4.516   4.971   4.060  0.6725  1.0051  0.2008
  464MOL0     H62578   4.600   4.991   3.908 -0.6510 -2.7244 -2.5617
  464MOL0     H62579   4.579   4.763   3.843 -0.6497  0.4833 -0.8814
  464MOL0     H62580   4.468   4.738   3.989 -3.7265  0.7943 -0.6194
  464MOL0     H62581   4.306   4.792   3.836 -0.4404 -0.5036  1.4216
  464MOL0     H62582   4.346   4.949   3.882 -1.1705 -2.5530  0.2384
  464MOL0     H62583   4.527   4.926   3.697  0.1298  0.2391  1.0515
  464MOL0     H62584   4.433   4.795   3.619 -2.0019  0.0498  0.2523
  464MOL0     H62585   4.231   4.967   3.627  0.3487 -1.4064 -1.1192
  464MOL0     H62586   4.348   5.087   3.669  1.3536  0.0425  1.7190
  464MOL0     H62587   4.500   4.991   3.471  0.1741  1.0325 -0.6754
  464MOL0     H62588   4.356   4.908   3.419  1.0940  0.5339 -1.7987
  464MOL0     H62589   4.350   5.104   3.305 -0.8193  1.9579 -0.3918
  464MOL0     H62590   4.367   5.212   3.450  2.7052 -0.9278  1.5376
  464MOL0     H62591   4.133   5.277   3.570 -2.9727  2.2175 -0.5919
  464MOL0     H62592   3.865   5.305   3.523  1.2851  0.9977 -0.4045
  464MOL0     H62593   3.789   5.141   3.535  1.4822 -0.9087 -2.1063
  464MOL0     H62594   3.982   5.289   3.728 -1.6650  1.4325  1.3130
  464MOL0     H62595   3.948   5.128   3.756  2.7823  2.0650  0.6956
  464MOL0     H62596   3.783   5.367   3.836 -2.6210 -0.1245  3.0725
  464MOL0     H62597   3.805   5.213   3.902 -0.6310 -0.0615  0.9443
  464MOL0     H62598   3.570   5.267   3.820 -0.6670 -0.6672 -0.3806
  464MOL0     H62599   3.626   5.136   3.722 -0.7815  0.3964 -1.4632
  464MOL0     H62600   3.464   5.083   3.588  1.7637 -1.1595 -2.9117
  464MOL0     H62601   3.201   4.977   3.564  0.1420  2.5229  1.7317
  464MOL0     H62602   3.155   5.020   3.398 -1.7711 -0.0109  1.9691
  464MOL0     H62603   3.327   4.977   3.451  0.1817  0.5265 -2.5922
  464MOL0     H62604   2.946   5.517   3.161  0.4204 -0.1704 -0.1475
  464MOL0     H62605   2.727   5.588   3.129 -2.7073 -0.0984  1.2510
  464MOL0     H62606   2.428   5.435   3.312  1.0745  0.3977 -1.1778
  464MOL0     H62607   2.440   5.528   3.470  3.4908  0.1304  0.3293
  464MOL0     H62608   2.296   5.702   3.348  0.3180 -0.3509 -2.0699
  464MOL0     H62609   2.282   5.583   3.215 -0.6141  2.3988 -0.4541
  464MOL0     H62610   2.189   5.510   3.503 -4.4907 -0.8339 -0.2037
  464MOL0     H62611   2.181   5.418   3.347  1.4136 -1.0543  0.5865
  464MOL0     H62612   2.028   5.656   3.433  0.7273 -0.0539  0.2493
  464MOL0     H62613   2.059   5.627   3.260  2.7468 -0.9071 -0.1676
  464MOL0     H62614   1.935   5.436   3.480 -2.1648 -3.6854 -0.5761
  464MOL0     H62615   1.975   5.380   3.314  1.3861  1.4232 -2.1209
  464MOL0     H62616   1.824   5.575   3.225 -0.1850 -0.8955 -0.2002
  464MOL0     H62617   1.742   5.442   3.304 -0.3030 -0.5271 -0.9633
  464MOL0     H62618   1.810   5.713   3.429 -0.1820 -0.5189 -0.7458
  464MOL0     H62619   1.763   5.570   3.528 -1.8088 -0.3331  0.5595
  464MOL0     H62620   1.565   5.732   3.459 -4.6497 -4.4683  2.8880
  464MOL0     H62621   1.536   5.577   3.403 -3.1206  3.0934  0.1250
  464MOL0     H62622   2.626   5.516   3.538 -0.4880  2.2287  0.7178
  464MOL0     H62623   2.868   5.400   3.566 -0.8388  1.4529  1.1827
  464MOL0     H62624   3.257   5.504   3.457  0.6971  0.3789  0.0566
  464MOL0     H62625   3.479   5.504   3.559  1.9801  0.0587 -1.4923
  464MOL0     H62626   5.032   4.967   3.901 -1.1464 -1.3098 -1.3317
  464MOL0     H62627   5.258   4.904   3.972  0.3248  0.1523  1.6161
  464MOL0     H62628   5.494   4.649   4.346  2.4193  0.4570  1.6234
  464MOL0     H62629   5.704   4.613   4.437 -4.7199  1.9887  1.5169
  464MOL0     H62630   5.946   4.761   4.412  0.5761  1.3686 -0.5301
  464MOL0     H62631   5.931   4.597   4.485  1.0677 -0.1353  1.0436
  464MOL0     H62632   6.157   4.536   4.373  1.0902 -0.1324 -0.1656
  464MOL0     H62633   6.161   4.673   4.488 -0.5421  2.1481 -0.7737
  464MOL0     H62634   6.148   4.827   4.305 -0.2627 -1.3466 -0.1177
  464MOL0     H62635   6.175   4.694   4.181  0.6131  1.0006 -0.7074
  464MOL0     H62636   6.362   4.743   4.420 -1.7226  0.6510 -0.2025
  464MOL0     H62637   6.390   4.810   4.258 -1.1505  0.1034 -1.7067
  464MOL0     H62638   6.482   4.401   4.197  0.2691  0.4863 -1.7380
  464MOL0     H62639   5.880   4.637   4.030  0.2640  0.5043  0.5405
  464MOL0     H62640   5.655   4.686   3.939 -1.0463  1.6637  0.0188
  465MOL0     O62641   0.948   0.901   7.995 -0.7525 -0.0308  0.2690
  465MOL0     C62642   0.891   0.877   8.103  0.4697 -0.6430  0.6679
  465MOL0     O62643   0.761   0.923   8.131 -0.3311 -0.1124 -0.0700
  465MOL0     C62644   0.710   1.020   8.046  0.7440  0.6012  0.1927
  465MOL0     C62645   0.650   1.126   8.111  0.0219  0.1101  0.4545
  465MOL0     C62646   0.592   1.228   8.038  0.7986 -0.2886 -0.0796
  465MOL0     C62647   0.597   1.234   7.898 -0.1235  0.0603 -0.3042
  465MOL0     O62648   0.558   1.339   7.831  0.0002 -0.5145 -0.1060
  465MOL0     C62649   0.632   1.455   7.871 -0.7542  0.5972 -0.4061
  465MOL0     C62650   0.631   1.557   7.760 -0.8916  0.5389 -1.0067
  465MOL0     C62651   0.716   1.513   7.635 -0.5420  0.2483  0.4753
  465MOL0     C62652   0.728   1.617   7.533  0.2834 -0.4525  0.5454
  465MOL0     C62653   0.811   1.572   7.411 -0.1458  0.0294  0.6547
  465MOL0     C62654   0.859   1.684   7.315  0.5307 -0.2003  0.2067
  465MOL0     C62655   0.900   1.634   7.174  0.2776  0.2591  0.2808
  465MOL0     C62656   0.997   1.721   7.087 -0.0548 -0.5229  0.9133
  465MOL0     N62657   0.942   1.854   7.084 -0.3470  0.2397  0.7059
  465MOL0     C62658   0.816   1.885   7.038 -0.6082 -0.2060  0.2163
  465MOL0     C62659   0.817   2.023   7.060  0.3572  0.6256  0.2889
  465MOL0     C62660   0.717   2.129   7.022  0.3233 -0.0998 -0.2092
  465MOL0     C62661   0.567   2.103   7.063 -0.7049  0.4217 -0.2131
  465MOL0     C62662   0.557   2.144   7.214 -0.0901  0.0157  1.0340
  465MOL0     C62663   0.407   2.130   7.265  0.0687 -0.5292  0.5227
  465MOL0     O62664   0.337   2.011   7.223 -0.5058  0.6002 -0.9263
  465MOL0     C62665   0.202   2.023   7.207  0.3034  0.2001 -0.5482
  465MOL0     C62666   0.115   2.130   7.233 -0.8835 -1.2334  0.6643
  465MOL0     C62667  -0.018   2.132   7.201  0.3557  0.6099 -1.0935
  465MOL0     C62668  -0.097   2.255   7.239  0.7337  0.6161  0.5726
  465MOL0     C62669  -0.074   2.026   7.135 -0.2590  0.7287  0.7355
  465MOL0     C62670  -0.220   2.002   7.085 -0.1765  0.1537  0.5127
  465MOL0     O62671  -0.249   1.875   7.033 -0.2930 -0.1686  0.7969
  465MOL0     C62672  -0.383   1.829   7.041 -0.4682 -0.2730 -0.4164
  465MOL0     C62673  -0.430   1.758   6.929 -0.6869 -0.2806  0.6842
  465MOL0     C62674  -0.554   1.707   6.919 -0.8572 -0.7074 -0.3863
  465MOL0     C62675  -0.642   1.716   7.035 -0.4287 -0.1348  0.4609
  465MOL0     O62676  -0.763   1.655   7.030  0.5161 -0.1209 -0.4856
  465MOL0     C62677  -0.781   1.538   6.944  0.3769  0.6147  1.4488
  465MOL0     C62678  -0.925   1.495   6.960  1.1957 -0.0752 -0.5802
  465MOL0     C62679  -0.935   1.346   6.938 -0.6935 -0.3171  0.3413
  465MOL0     C62680  -1.083   1.297   6.946 -0.5742  0.0011  0.7839
  465MOL0     C62681  -1.078   1.160   6.897  0.0523  0.2020 -0.3359
  465MOL0     C62682  -1.219   1.097   6.907 -0.1248  0.0900 -0.2616
  465MOL0     C62683  -1.204   0.962   6.826  0.1414 -0.2804  0.2552
  465MOL0     C62684  -1.339   0.904   6.801  0.4607  0.3850 -0.2535
  465MOL0    Cl62685  -1.317   0.803   6.653  0.0712 -0.3579 -0.2936
  465MOL0     C62686  -0.597   1.791   7.146  0.3433  1.0608  0.4208
  465MOL0     C62687  -0.470   1.846   7.154 -0.1148  0.2458  0.3396
  465MOL0     O62688  -0.300   2.095   7.098 -0.3642 -0.3453 -0.0293
  465MOL0     C62689   0.009   1.922   7.104  0.0141  0.0923  0.9318
  465MOL0     C62690   0.148   1.918   7.141  0.9116 -0.8526 -0.3510
  465MOL0     N62691   0.945   2.071   7.100  0.8654  0.4179  0.4678
  465MOL0     N62692   1.018   1.968   7.110  0.1878  0.1236  0.2689
  465MOL0     C62693   0.655   1.123   7.826  0.4097  0.2196 -0.8393
  465MOL0     C62694   0.705   1.021   7.909 -0.4407  0.4528  0.8862
  465MOL0     C62695   0.966   0.790   8.193  0.2211  0.6735 -0.5907
  465MOL0     C62696   0.906   0.737   8.311 -0.2979 -0.6815 -0.2674
  465MOL0     C62697   0.976   0.634   8.371 -0.1287 -0.4675  0.6705
  465MOL0     C62698   1.105   0.588   8.326  0.3669 -0.4512  0.3873
  465MOL0     O62699   1.162   0.480   8.393  0.0615 -0.2170  0.4011
  465MOL0     C62700   1.298   0.492   8.446 -0.5556 -0.2962 -0.2538
  465MOL0     C62701   1.314   0.566   8.583 -0.0902 -0.6038 -0.3266
  465MOL0     C62702   1.297   0.718   8.575 -0.0301 -0.1926  0.8304
  465MOL0     C62703   1.286   0.772   8.720 -0.3919  0.0417  0.0097
  465MOL0     C62704   1.397   0.724   8.802  0.6846  0.1601  0.0366
  465MOL0     C62705   1.459   0.665   8.881  0.1044 -0.0736 -0.8325
  465MOL0     C62706   1.162   0.648   8.215 -0.4734 -0.2684  0.0649
  465MOL0     C62707   1.094   0.745   8.154 -0.5102  0.1100  0.0431
  465MOL0     H62708   0.644   1.118   8.219 -0.9926 -2.3666  0.2953
  465MOL0     H62709   0.544   1.312   8.087  0.4690  0.9391 -2.3850
  465MOL0     H62710   0.590   1.501   7.962 -0.7409  1.4806 -0.8369
  465MOL0     H62711   0.734   1.428   7.897 -0.1103  1.4195 -1.9528
  465MOL0     H62712   0.529   1.579   7.727 -0.1845  2.7308 -1.8857
  465MOL0     H62713   0.663   1.655   7.796 -0.4727  0.6955 -1.7804
  465MOL0     H62714   0.818   1.487   7.666 -0.5133  1.2238  1.2048
  465MOL0     H62715   0.670   1.420   7.599  0.0918  0.3304 -0.5806
  465MOL0     H62716   0.631   1.655   7.502 -1.0328 -2.7136  1.6361
  465MOL0     H62717   0.773   1.700   7.589 -1.5140  0.4907  0.6410
  465MOL0     H62718   0.898   1.517   7.449 -0.0712 -1.2105 -1.1909
  465MOL0     H62719   0.748   1.499   7.359 -1.2831 -0.1764  2.2365
  465MOL0     H62720   0.782   1.762   7.315  1.6064  0.9902  2.9123
  465MOL0     H62721   0.943   1.731   7.366  0.6468  0.2347 -0.3775
  465MOL0     H62722   0.949   1.541   7.205  0.7625  0.6360  0.6475
  465MOL0     H62723   0.814   1.608   7.112  0.9195  0.8876 -0.8978
  465MOL0     H62724   1.006   1.681   6.986 -0.5186 -0.5074  0.8658
  465MOL0     H62725   1.093   1.724   7.141  1.4278 -0.4052 -1.5717
  465MOL0     H62726   0.727   1.828   7.015 -1.8227  1.8862 -0.5798
  465MOL0     H62727   0.750   2.224   7.066  0.8430  0.0825 -0.9560
  465MOL0     H62728   0.730   2.145   6.914 -1.1954 -0.6587 -0.5024
  465MOL0     H62729   0.549   1.997   7.041  1.4083 -0.1613  0.5787
  465MOL0     H62730   0.498   2.165   7.005  2.7942  3.0172 -1.9920
  465MOL0     H62731   0.580   2.249   7.231 -0.5650 -0.0109  1.9586
  465MOL0     H62732   0.614   2.069   7.271  1.7005 -1.5547 -2.5473
  465MOL0     H62733   0.356   2.221   7.233  3.2536  1.6402  1.1519
  465MOL0     H62734   0.405   2.137   7.375 -1.2316  1.6726  0.4170
  465MOL0     H62735   0.157   2.228   7.254  0.4573 -1.1009 -2.1905
  465MOL0     H62736  -0.117   2.320   7.152 -0.8378  1.5202  1.5668
  465MOL0     H62737  -0.191   2.222   7.284 -1.0996  0.9026 -2.6703
  465MOL0     H62738  -0.037   2.314   7.308 -1.2578  0.1794  2.8015
  465MOL0     H62739  -0.372   1.762   6.837 -1.3832 -0.7334  0.2160
  465MOL0     H62740  -0.596   1.662   6.829 -2.4488  0.1991 -0.1417
  465MOL0     H62741  -0.768   1.556   6.836  0.9456 -2.3311  0.9442
  465MOL0     H62742  -0.707   1.468   6.983  1.1469  0.1780 -0.6342
  465MOL0     H62743  -0.958   1.522   7.061 -0.6903 -1.5494 -0.7492
  465MOL0     H62744  -0.999   1.557   6.909 -2.7866  1.3060  5.7227
  465MOL0     H62745  -0.883   1.307   7.026  1.9171 -0.8551 -1.3230
  465MOL0     H62746  -0.877   1.319   6.849 -0.5449 -0.7835  0.5806
  465MOL0     H62747  -1.110   1.299   7.052 -0.5427 -3.9308  1.0337
  465MOL0     H62748  -1.158   1.353   6.890  1.0437 -0.7030 -2.3165
  465MOL0     H62749  -0.999   1.107   6.950  0.3887  1.1069  0.0848
  465MOL0     H62750  -1.046   1.154   6.793 -1.3891 -3.4879 -0.7462
  465MOL0     H62751  -1.242   1.080   7.013  3.3388  3.4278  1.2332
  465MOL0     H62752  -1.287   1.163   6.852 -0.0250  0.7620  0.4043
  465MOL0     H62753  -1.136   0.897   6.880  1.2797 -0.1589 -0.9751
  465MOL0     H62754  -1.171   0.977   6.723  1.4784  0.5472  0.7791
  465MOL0     H62755  -1.421   0.971   6.776  0.2940 -0.1265 -1.0964
  465MOL0     H62756  -1.374   0.854   6.892  0.9148  2.7175  1.2957
  465MOL0     H62757  -0.663   1.801   7.231  2.0654  1.1460  1.8008
  465MOL0     H62758  -0.440   1.898   7.244 -0.6002 -1.2751  1.4388
  465MOL0     H62759  -0.028   1.838   7.047 -1.5113  1.5371 -0.3022
  465MOL0     H62760   0.205   1.831   7.110 -2.3026 -2.8119 -1.2389
  465MOL0     H62761   0.643   1.108   7.719 -2.3425 -2.3030 -0.3150
  465MOL0     H62762   0.735   0.922   7.874  1.0379  0.5608  1.7965
  465MOL0     H62763   0.806   0.775   8.334 -0.1597  0.6995 -1.7743
  465MOL0     H62764   0.932   0.590   8.460  0.1701 -0.1163  0.9960
  465MOL0     H62765   1.328   0.388   8.463  2.9329  0.8553  1.5449
  465MOL0     H62766   1.371   0.532   8.375  1.8570  0.2228  2.3521
  465MOL0     H62767   1.416   0.543   8.614  0.4531  1.5083 -0.3985
  465MOL0     H62768   1.245   0.525   8.656 -0.6007  1.5176  0.4515
  465MOL0     H62769   1.212   0.752   8.514  0.8782  0.0383 -0.3391
  465MOL0     H62770   1.378   0.770   8.523 -0.6525  2.4430  2.3157
  465MOL0     H62771   1.191   0.746   8.766 -0.8050 -0.1238 -0.9165
  465MOL0     H62772   1.302   0.880   8.730  0.6574  0.0001 -0.9608
  465MOL0     H62773   1.529   0.634   8.956 -1.6545 -1.2444  0.3968
  465MOL0     H62774   1.260   0.621   8.178 -0.0687  1.7783 -0.4841
  465MOL0     H62775   1.143   0.800   8.075 -0.5500 -0.7625 -0.6022
  466MOL0     O62776   6.502   1.637   5.069  0.4246 -0.6064  0.4251
  466MOL0     C62777   6.411   1.570   5.017 -0.0330 -0.8212  0.4078
  466MOL0     O62778   6.407   1.434   5.003 -0.4720  0.5384  0.7190
  466MOL0     C62779   6.515   1.346   5.008  0.5215  0.1988  0.0689
  466MOL0     C62780   6.493   1.213   5.039 -0.4765  0.5460 -0.3643
  466MOL0     C62781   6.600   1.125   5.043  0.2438  0.6334 -0.5906
  466MOL0     C62782   6.730   1.166   5.022 -0.0606  0.4831 -0.0994
  466MOL0     O62783   6.835   1.077   5.020  0.4051 -0.0365 -0.2569
  466MOL0     C62784   6.905   1.048   4.897 -0.1306  0.3583 -0.4538
  466MOL0     C62785   6.814   0.987   4.787  0.2387 -0.0587  0.3265
  466MOL0     C62786   6.743   0.860   4.828  0.3653  0.3743 -0.1469
  466MOL0     C62787   6.651   0.787   4.720 -0.0752 -0.3793 -0.0964
  466MOL0     C62788   6.584   0.656   4.774  0.1053 -0.6396  1.5184
  466MOL0     C62789   6.482   0.695   4.885  0.6431  0.2740  0.0989
  466MOL0     C62790   6.428   0.555   4.919 -0.3105 -0.0165  0.1517
  466MOL0     C62791   6.314   0.571   5.009  0.8982 -0.9339 -0.2772
  466MOL0     N62792   6.262   0.434   5.034 -0.7278  0.5644  0.4886
  466MOL0     C62793   6.280   0.354   5.150 -0.6801 -0.3981  0.9892
  466MOL0     C62794   6.192   0.252   5.135  0.0958  0.3011 -0.1864
  466MOL0     C62795   6.187   0.131   5.239  0.0394  0.6175  0.5791
  466MOL0     C62796   6.092   0.015   5.198  0.7128 -1.0113  0.0796
  466MOL0     C62797   5.947   0.068   5.212  0.4180  0.5145  0.1289
  466MOL0     C62798   5.842  -0.058   5.207 -0.2535  0.1106  1.2187
  466MOL0     O62799   5.707  -0.006   5.221  0.8657 -0.4243 -0.5069
  466MOL0     C62800   5.608  -0.067   5.154  0.6824  1.3504  0.8207
  466MOL0     C62801   5.616  -0.101   5.018  0.0629  0.8778  0.0419
  466MOL0     C62802   5.507  -0.161   4.948  0.3887 -0.0534 -0.0007
  466MOL0     C62803   5.522  -0.207   4.806 -0.0198 -0.9546  0.1511
  466MOL0     C62804   5.384  -0.167   5.028 -0.8186 -0.4269  0.1679
  466MOL0     C62805   5.263  -0.214   4.966 -0.4203 -0.8479  0.4394
  466MOL0     O62806   5.143  -0.182   5.016 -0.0861  0.4594 -0.5714
  466MOL0     C62807   5.033  -0.177   4.935 -0.0696  1.0965 -0.4307
  466MOL0     C62808   4.917  -0.231   4.996 -0.2524 -0.1432  0.0386
  466MOL0     C62809   4.804  -0.231   4.915  0.2199  0.7520 -0.4284
  466MOL0     C62810   4.794  -0.185   4.780  0.0290  0.1322  0.6239
  466MOL0     O62811   4.684  -0.183   4.711  1.2977 -0.2206  0.2213
  466MOL0     C62812   4.687  -0.184   4.565 -1.0676 -0.4495  0.0876
  466MOL0     C62813   4.561  -0.243   4.517  1.1198 -0.1296  0.4156
  466MOL0     C62814   4.441  -0.160   4.524  0.1319 -0.4391 -1.0317
  466MOL0     C62815   4.309  -0.237   4.484 -0.0140  0.9605 -0.5506
  466MOL0     C62816   4.298  -0.271   4.333 -0.7805  0.0739  0.0373
  466MOL0     C62817   4.159  -0.300   4.274  0.9845 -0.4892 -0.4542
  466MOL0     C62818   4.106  -0.426   4.335  0.2514 -0.0237  0.7698
  466MOL0     C62819   3.989  -0.384   4.425 -0.6891  0.2291  0.7287
  466MOL0    Cl62820   3.908  -0.539   4.505 -0.0403 -0.0934 -0.4127
  466MOL0     C62821   4.916  -0.137   4.726 -0.1753  0.1410  0.1317
  466MOL0     C62822   5.035  -0.138   4.800 -0.1779 -0.4372 -0.6703
  466MOL0     O62823   5.279  -0.300   4.880 -0.2298  0.6011 -0.2005
  466MOL0     C62824   5.377  -0.124   5.163  0.2039 -0.7611 -0.6329
  466MOL0     C62825   5.485  -0.069   5.225 -0.5472 -0.5708  0.2297
  466MOL0     N62826   6.135   0.261   5.009  0.0076 -0.6167  0.6736
  466MOL0     N62827   6.180   0.365   4.955 -0.1061  0.8733  0.2393
  466MOL0     C62828   6.758   1.298   5.010 -0.3772 -0.4767 -0.0797
  466MOL0     C62829   6.654   1.393   5.000 -0.7443  0.4828 -0.3301
  466MOL0     C62830   6.288   1.643   4.976  0.4862 -0.0113 -0.4259
  466MOL0     C62831   6.164   1.585   4.993  0.5342  0.2240  0.2829
  466MOL0     C62832   6.051   1.658   4.937 -0.4103 -0.5910 -0.7426
  466MOL0     C62833   6.063   1.781   4.876 -0.0327  0.3882 -0.2202
  466MOL0     O62834   5.950   1.831   4.823  0.5429 -0.8927 -0.8129
  466MOL0     C62835   5.941   1.973   4.806 -0.5546  0.0220 -0.2536
  466MOL0     C62836   5.799   2.022   4.810 -0.0572 -0.3226 -0.3327
  466MOL0     C62837   5.744   2.009   4.955 -0.2450  0.1111 -0.4883
  466MOL0     C62838   5.630   2.116   4.969  0.0583  0.8004  0.6489
  466MOL0     C62839   5.520   2.053   4.895  0.7999  0.9652 -0.3396
  466MOL0     C62840   5.432   1.989   4.850  0.0508  0.1220 -0.2852
  466MOL0     C62841   6.193   1.846   4.882  0.7504  0.2970  0.9045
  466MOL0     C62842   6.306   1.776   4.923 -0.0242  0.5229 -0.8665
  466MOL0     H62843   6.388   1.185   5.051 -0.7020  1.6927  0.4607
  466MOL0     H62844   6.580   1.020   5.060 -0.3291  0.7420 -0.5929
  466MOL0     H62845   6.956   1.141   4.872  2.3931  0.5662  4.2230
  466MOL0     H62846   6.978   0.969   4.918 -1.3309 -1.0702 -1.3746
  466MOL0     H62847   6.734   1.058   4.763  0.0382  0.2615  1.8716
  466MOL0     H62848   6.878   0.972   4.699  0.1101  2.7373 -0.3479
  466MOL0     H62849   6.829   0.796   4.849  0.6767  0.5382 -0.8886
  466MOL0     H62850   6.693   0.869   4.925 -1.4407  2.6190 -1.1852
  466MOL0     H62851   6.571   0.856   4.691 -0.2814 -0.8561 -0.6818
  466MOL0     H62852   6.706   0.773   4.626 -2.4711  1.9180 -2.0031
  466MOL0     H62853   6.536   0.613   4.686  3.0080  2.9973 -2.2443
  466MOL0     H62854   6.655   0.583   4.815  0.6424 -1.3047 -0.4573
  466MOL0     H62855   6.534   0.727   4.976  1.8378 -1.3547  0.0373
  466MOL0     H62856   6.404   0.762   4.850 -0.0947 -0.6734 -0.1097
  466MOL0     H62857   6.394   0.529   4.818 -2.0428  1.3880  0.3238
  466MOL0     H62858   6.504   0.489   4.961 -1.2705 -0.3399  1.4081
  466MOL0     H62859   6.242   0.626   4.947  1.1372 -1.4774 -1.0499
  466MOL0     H62860   6.327   0.621   5.106  0.8784  1.5658 -1.5020
  466MOL0     H62861   6.352   0.362   5.231 -0.6986 -1.5476  1.1331
  466MOL0     H62862   6.283   0.081   5.257 -0.8737 -1.9691 -1.1211
  466MOL0     H62863   6.149   0.164   5.336 -0.9087 -0.2202  0.5151
  466MOL0     H62864   6.100  -0.074   5.261  2.0346 -1.6819 -0.9936
  466MOL0     H62865   6.121  -0.017   5.098 -0.9110  3.9517 -2.2946
  466MOL0     H62866   5.922   0.139   5.132  1.6172 -0.5239 -1.2316
  466MOL0     H62867   5.929   0.123   5.305 -0.0969 -0.3770  0.5660
  466MOL0     H62868   5.860  -0.132   5.286  1.0459  1.1296  1.9118
  466MOL0     H62869   5.863  -0.099   5.108  1.3575  1.6193  0.8909
  466MOL0     H62870   5.710  -0.093   4.965  0.5691 -2.1901  0.3063
  466MOL0     H62871   5.522  -0.316   4.804 -0.7059 -0.9482 -0.4190
  466MOL0     H62872   5.441  -0.160   4.749 -0.5654 -1.1615  0.7380
  466MOL0     H62873   5.618  -0.178   4.762  0.0170 -1.0379  0.1763
  466MOL0     H62874   4.932  -0.265   5.098 -0.5743 -0.7838 -0.1288
  466MOL0     H62875   4.713  -0.255   4.969  2.5116  0.0917  3.5374
  466MOL0     H62876   4.685  -0.078   4.537 -1.9331 -0.3973  0.3044
  466MOL0     H62877   4.772  -0.242   4.529 -0.6044  0.3970 -0.2089
  466MOL0     H62878   4.581  -0.280   4.416 -0.0009 -0.3440  0.2599
  466MOL0     H62879   4.542  -0.327   4.584  1.0210 -0.3969  0.0575
  466MOL0     H62880   4.441  -0.065   4.471 -0.0625  0.5413  0.6727
  466MOL0     H62881   4.429  -0.135   4.629 -1.8875  0.1841 -1.3591
  466MOL0     H62882   4.305  -0.330   4.541 -0.7034 -0.2195 -2.4070
  466MOL0     H62883   4.228  -0.172   4.519  0.5134 -0.0226  2.8094
  466MOL0     H62884   4.362  -0.354   4.302  0.0846  0.5428  0.5365
  466MOL0     H62885   4.338  -0.188   4.274  3.1505 -2.1243 -0.6888
  466MOL0     H62886   4.092  -0.213   4.269  3.8836  1.8474 -4.3452
  466MOL0     H62887   4.179  -0.316   4.168  0.9231  0.0747 -0.5521
  466MOL0     H62888   4.177  -0.466   4.407  1.6666  1.8398  0.4969
  466MOL0     H62889   4.074  -0.505   4.266 -0.5441  0.6449  0.3389
  466MOL0     H62890   3.915  -0.325   4.369  1.7446  2.8856  0.0424
  466MOL0     H62891   4.025  -0.318   4.504  0.4008  1.5693 -0.8096
  466MOL0     H62892   4.932  -0.100   4.625  0.2980 -0.3675  0.0218
  466MOL0     H62893   5.129  -0.098   4.763  0.4952 -0.5983  0.7975
  466MOL0     H62894   5.289  -0.141   5.223  0.9543 -4.7256 -0.4156
  466MOL0     H62895   5.468  -0.032   5.325  2.0462 -2.0638  1.3311
  466MOL0     H62896   6.861   1.329   5.021 -0.0163 -1.4231 -0.6797
  466MOL0     H62897   6.679   1.499   5.009 -0.0138  0.4094 -1.2285
  466MOL0     H62898   6.162   1.487   5.040 -1.0135  1.0256  2.0212
  466MOL0     H62899   5.956   1.606   4.942 -0.8981  0.3118 -0.6000
  466MOL0     H62900   5.993   2.016   4.892 -0.8471 -2.0053  1.0080
  466MOL0     H62901   5.999   1.990   4.714 -1.4171  2.9537 -0.3704
  466MOL0     H62902   5.726   1.978   4.741 -1.7577  2.8417 -0.7677
  466MOL0     H62903   5.801   2.128   4.784 -2.1321 -0.1673 -0.0500
  466MOL0     H62904   5.821   2.026   5.031 -1.1875  0.7304  0.3474
  466MOL0     H62905   5.702   1.912   4.980 -3.5656  0.7223 -2.9389
  466MOL0     H62906   5.666   2.210   4.926  1.4762 -1.1634 -2.8854
  466MOL0     H62907   5.609   2.130   5.075  0.0549  1.7903  0.5267
  466MOL0     H62908   5.359   1.933   4.795 -0.4542  2.7499 -2.4884
  466MOL0     H62909   6.213   1.945   4.842 -0.0070  0.0783 -0.0441
  466MOL0     H62910   6.401   1.826   4.909 -0.7943  2.0465 -0.9230
  467MOL0     O62911   6.352   9.941   4.056 -0.0589  0.8956 -0.1273
  467MOL0     C62912   6.358   9.823   4.014 -0.6145  0.3558 -0.1735
  467MOL0     O62913   6.471   9.736   4.016  0.0423 -0.0706 -0.3500
  467MOL0     C62914   6.600   9.786   4.046 -0.0597  0.4574 -1.1281
  467MOL0     C62915   6.671   9.747   4.159 -0.1337 -0.3626 -0.4799
  467MOL0     C62916   6.803   9.780   4.182 -0.0190 -0.6338  1.0407
  467MOL0     C62917   6.873   9.855   4.083 -0.2264 -0.0538 -0.9722
  467MOL0     O62918   7.005   9.883   4.117 -0.1220 -0.1298 -0.0020
  467MOL0     C62919   7.056  10.000   4.063 -0.5659  0.2346  0.0837
  467MOL0     C62920   7.207   9.995   4.078 -0.2049  0.5717  0.8401
  467MOL0     C62921   7.252   9.978   4.219 -0.0846  0.2976 -0.5681
  467MOL0     C62922   7.411   9.984   4.211 -0.3494  0.8702  0.2334
  467MOL0     C62923   7.455   9.988   4.360 -0.3409 -0.4422 -0.2271
  467MOL0     C62924   7.588  10.068   4.384 -0.5458 -0.5680 -0.0403
  467MOL0     C62925   7.578  10.210   4.351  0.2646  0.4808 -1.0210
  467MOL0     C62926   7.700  10.291   4.388  0.3130  1.2663  0.2010
  467MOL0     N62927   7.823  10.236   4.319  0.3262  0.3476 -0.1742
  467MOL0     C62928   7.934  10.179   4.386 -0.5699  0.3136  0.3467
  467MOL0     C62929   8.027  10.169   4.287 -0.3206  0.6458  0.0412
  467MOL0     C62930   8.160  10.105   4.291 -0.4873  0.3875 -0.3191
  467MOL0     C62931   8.277  10.213   4.309 -0.2562 -0.3803  0.3942
  467MOL0     C62932   8.302  10.242   4.456 -0.1567 -0.9890  0.2003
  467MOL0     C62933   8.379  10.130   4.524 -1.1117  0.8970 -0.0645
  467MOL0     O62934   8.389  10.132   4.669  0.5643 -0.7086  0.0227
  467MOL0     C62935   8.267  10.159   4.726  0.4281  0.6779 -0.1256
  467MOL0     C62936   8.230  10.276   4.793 -0.1870  0.0984 -0.3025
  467MOL0     C62937   8.099  10.310   4.835  0.3837  0.8842  0.4844
  467MOL0     C62938   8.088  10.449   4.885  1.0163 -0.0332 -0.5625
  467MOL0     C62939   7.999  10.210   4.816  0.1554 -0.6036 -0.0336
  467MOL0     C62940   7.851  10.246   4.843 -0.5730  0.5899  0.1903
  467MOL0     O62941   7.754  10.176   4.786  0.3581 -0.1626  0.0762
  467MOL0     C62942   7.622  10.188   4.817 -0.0045  0.5756  0.2247
  467MOL0     C62943   7.539  10.075   4.827  0.5376  0.1475  0.1064
  467MOL0     C62944   7.413  10.076   4.881 -0.4230  0.5023  0.4762
  467MOL0     C62945   7.357  10.194   4.931  0.0623 -0.5037  0.6732
  467MOL0     O62946   7.225  10.201   4.973 -0.1379  0.0833 -0.0884
  467MOL0     C62947   7.120  10.172   4.877 -0.3039 -1.4141 -0.0634
  467MOL0     C62948   7.112  10.286   4.784 -0.1209  0.7793  0.0284
  467MOL0     C62949   7.093  10.253   4.639 -0.5344 -0.4364 -0.5631
  467MOL0     C62950   6.949  10.209   4.589 -0.1841 -0.7854 -0.0445
  467MOL0     C62951   6.946  10.175   4.438 -0.2884  0.5466 -0.4634
  467MOL0     C62952   6.806  10.197   4.381  0.1215  0.1674 -0.3190
  467MOL0     C62953   6.717  10.081   4.427  0.7668  0.0168  0.0228
  467MOL0     C62954   6.569  10.096   4.386 -0.7720  0.3235  0.7250
  467MOL0    Cl62955   6.470   9.949   4.428 -0.0614  0.0139 -0.0061
  467MOL0     C62956   7.423  10.313   4.905  0.1563  0.2890  0.3837
  467MOL0     C62957   7.555  10.305   4.849 -0.1530 -0.2326  0.8889
  467MOL0     O62958   7.821  10.321   4.935  0.4496  0.1288  0.4229
  467MOL0     C62959   8.032  10.085   4.754  0.0568  0.2869 -0.4830
  467MOL0     C62960   8.167  10.064   4.726 -0.0436  0.8149  0.4611
  467MOL0     N62961   7.981  10.231   4.169 -0.2217 -0.5960 -1.0256
  467MOL0     N62962   7.857  10.267   4.188 -0.3051 -0.0452  0.7279
  467MOL0     C62963   6.796   9.902   3.975 -0.4313  0.6947 -1.0146
  467MOL0     C62964   6.664   9.863   3.955 -0.3619 -0.0585 -0.0556
  467MOL0     C62965   6.225   9.757   3.980 -0.6974  0.5095 -0.5746
  467MOL0     C62966   6.111   9.835   3.954  0.6089  0.6618  0.2986
  467MOL0     C62967   5.992   9.777   3.915  0.0799  0.0649 -0.1522
  467MOL0     C62968   5.978   9.645   3.929 -0.1427 -0.0784  0.5563
  467MOL0     O62969   5.867   9.569   3.910 -0.4485 -0.5855 -0.7826
  467MOL0     C62970   5.759   9.615   3.824  0.1263 -0.2490 -0.5650
  467MOL0     C62971   5.649   9.675   3.900 -0.1895 -0.2393  0.5178
  467MOL0     C62972   5.578   9.586   4.002 -0.4306  0.4146  0.2493
  467MOL0     C62973   5.528   9.660   4.124  0.4444 -0.7853  0.4938
  467MOL0     C62974   5.459   9.582   4.226  0.2198 -0.3538 -0.3835
  467MOL0     C62975   5.415   9.521   4.318 -0.4783  0.6704  0.2377
  467MOL0     C62976   6.088   9.560   3.959  0.5013 -0.1567  0.6192
  467MOL0     C62977   6.212   9.621   3.992  0.1000  0.2249 -0.0443
  467MOL0     H62978   6.631   9.686   4.240  3.7173 -0.7308  1.3924
  467MOL0     H62979   6.857   9.751   4.272 -0.7739 -0.2534  1.6385
  467MOL0     H62980   7.036  10.007   3.955 -2.2450 -0.2032  0.3446
  467MOL0     H62981   6.999  10.081   4.111 -2.1297  0.7453 -2.4089
  467MOL0     H62982   7.244   9.916   4.012 -3.2132 -0.2990  0.0016
  467MOL0     H62983   7.245  10.093   4.050 -0.5462  0.3658 -0.3869
  467MOL0     H62984   7.212  10.063   4.274  0.8427  2.0995 -2.5577
  467MOL0     H62985   7.221   9.882   4.262  2.4037 -1.0571 -1.5725
  467MOL0     H62986   7.445   9.895   4.158 -1.3561  0.3456  0.4417
  467MOL0     H62987   7.449  10.071   4.156  0.8885 -1.3685 -2.6976
  467MOL0     H62988   7.378  10.039   4.418  0.1734  0.6597 -0.4905
  467MOL0     H62989   7.460   9.888   4.404  0.8850 -0.8073 -1.1422
  467MOL0     H62990   7.626  10.055   4.486  1.4595 -3.8068 -1.0503
  467MOL0     H62991   7.665  10.027   4.317 -1.7267 -1.8248 -0.6953
  467MOL0     H62992   7.544  10.231   4.249  1.5346  0.3844 -1.4821
  467MOL0     H62993   7.513  10.251   4.430  0.2631 -0.9176 -0.2641
  467MOL0     H62994   7.711  10.302   4.496 -0.7806  0.8067  0.3727
  467MOL0     H62995   7.670  10.382   4.335 -4.0256 -1.1837 -2.1398
  467MOL0     H62996   7.937  10.166   4.494 -0.9232  0.0268  0.3224
  467MOL0     H62997   8.165  10.026   4.365  0.4196  1.2083  0.5351
  467MOL0     H62998   8.173  10.056   4.194  3.4868  0.4416  0.0184
  467MOL0     H62999   8.248  10.299   4.248 -3.5352 -1.1079  0.7306
  467MOL0     H63000   8.361  10.163   4.261  0.4637  1.0111  0.1546
  467MOL0     H63001   8.206  10.250   4.507  0.6145  1.1554  1.4479
  467MOL0     H63002   8.363  10.332   4.468 -0.4619 -0.9277  1.3391
  467MOL0     H63003   8.482  10.137   4.488 -0.6231  2.4986  1.5188
  467MOL0     H63004   8.334  10.034   4.496 -0.4614  0.3772  0.6589
  467MOL0     H63005   8.316  10.342   4.801 -1.2690  1.4794  0.2725
  467MOL0     H63006   8.112  10.523   4.809 -1.5326  1.2064 -0.2452
  467MOL0     H63007   7.985  10.478   4.902  0.6760 -1.6021  0.2411
  467MOL0     H63008   8.151  10.455   4.974 -1.3432  0.9375  1.1282
  467MOL0     H63009   7.573   9.980   4.787  1.2525 -0.2513  1.5990
  467MOL0     H63010   7.358   9.983   4.893 -3.2796  2.1097  0.4817
  467MOL0     H63011   7.144  10.077   4.829  2.2618 -0.1016 -1.6247
  467MOL0     H63012   7.032  10.148   4.939  0.6900 -0.2037  1.9374
  467MOL0     H63013   7.017  10.332   4.812 -2.4385 -2.8932 -1.0002
  467MOL0     H63014   7.196  10.355   4.793  2.1934 -1.8115 -0.3597
  467MOL0     H63015   7.173  10.190   4.601 -1.1936 -1.6241 -0.0314
  467MOL0     H63016   7.106  10.348   4.586  1.6776  1.5838  3.2099
  467MOL0     H63017   6.924  10.118   4.644  1.6678 -0.8461  0.7925
  467MOL0     H63018   6.890  10.295   4.620  1.0711 -0.3096  1.1433
  467MOL0     H63019   6.965  10.069   4.418  0.7567  1.1273 -2.9790
  467MOL0     H63020   7.028  10.232   4.392  0.1632  1.3598  1.2674
  467MOL0     H63021   6.769  10.291   4.424 -2.5569 -0.9482 -0.0071
  467MOL0     H63022   6.820  10.205   4.273 -2.8062 -1.7296 -0.9345
  467MOL0     H63023   6.714  10.064   4.535 -0.4465 -0.3126 -0.0444
  467MOL0     H63024   6.757   9.989   4.384 -2.7942 -1.7242  0.0437
  467MOL0     H63025   6.567  10.109   4.278 -0.5261  2.0338  0.8943
  467MOL0     H63026   6.513  10.181   4.427 -0.4132  0.5667  0.7103
  467MOL0     H63027   7.372  10.407   4.924 -1.6770 -0.3289 -1.1145
  467MOL0     H63028   7.598  10.405   4.845  0.5321 -0.5056  1.1504
  467MOL0     H63029   7.952  10.013   4.742 -0.3399  0.3395  1.4691
  467MOL0     H63030   8.187   9.973   4.670 -1.6055 -0.2702  1.5983
  467MOL0     H63031   6.856   9.938   3.891  1.8019  0.5352  0.4347
  467MOL0     H63032   6.604   9.896   3.870 -1.2634  0.8546  0.8895
  467MOL0     H63033   6.123   9.943   3.948 -0.6602  0.8013  0.0064
  467MOL0     H63034   5.904   9.837   3.890 -0.7224 -0.5715  1.0612
  467MOL0     H63035   5.788   9.702   3.766 -3.1126  0.3398 -1.5113
  467MOL0     H63036   5.735   9.535   3.753 -2.1025 -0.5799  0.4599
  467MOL0     H63037   5.569   9.698   3.829  0.5092 -1.7641 -0.8294
  467MOL0     H63038   5.678   9.773   3.938 -2.6188  0.9773 -0.5777
  467MOL0     H63039   5.650   9.512   4.039 -0.8001 -0.5229 -0.8198
  467MOL0     H63040   5.500   9.524   3.957 -0.3499  1.7137 -1.7883
  467MOL0     H63041   5.444   9.722   4.092 -0.5514 -2.0873  0.5175
  467MOL0     H63042   5.614   9.707   4.172  1.9523 -0.9693 -1.8612
  467MOL0     H63043   5.361   9.498   4.408  1.9150 -0.9482  1.3475
  467MOL0     H63044   6.072   9.453   3.968  0.6081 -0.5470 -2.6479
  467MOL0     H63045   6.282   9.547   4.029 -1.4516 -1.7143 -0.7558
  468MOL0     O63046   0.184   2.938   8.518 -1.2596 -0.1047 -0.4366
  468MOL0     C63047   0.250   2.892   8.427  0.0154  0.5045  0.0813
  468MOL0     O63048   0.234   2.768   8.368  0.2968 -0.2854 -0.2638
  468MOL0     C63049   0.110   2.699   8.374 -0.4973  0.4670  0.2790
  468MOL0     C63050   0.036   2.679   8.263  0.5310 -0.1317 -0.5095
  468MOL0     C63051  -0.085   2.619   8.271  0.4037  0.1663  0.0319
  468MOL0     C63052  -0.137   2.555   8.388  0.4005 -0.5291  0.5796
  468MOL0     O63053  -0.259   2.490   8.405  0.1368  0.1218 -0.1521
  468MOL0     C63054  -0.358   2.495   8.296 -0.6451  0.0555  0.0354
  468MOL0     C63055  -0.480   2.405   8.320  0.5288 -0.4530 -0.1011
  468MOL0     C63056  -0.446   2.260   8.351  0.4252  0.2695 -0.1679
  468MOL0     C63057  -0.454   2.253   8.502 -0.9178 -0.4630 -0.1994
  468MOL0     C63058  -0.419   2.111   8.534  1.0364  0.1141 -1.3760
  468MOL0     C63059  -0.450   2.068   8.682  0.5375 -0.1783 -0.0490
  468MOL0     C63060  -0.435   1.916   8.690 -0.4975 -1.2219 -0.2589
  468MOL0     C63061  -0.446   1.868   8.837  0.2813 -0.0463  0.0347
  468MOL0     N63062  -0.580   1.823   8.871  0.0505 -0.7395  0.8010
  468MOL0     C63063  -0.625   1.728   8.960  0.5675 -0.0954  0.3734
  468MOL0     C63064  -0.762   1.750   8.975 -0.2944 -0.7878  0.3465
  468MOL0     C63065  -0.866   1.675   9.055  0.0756 -0.0260  0.1959
  468MOL0     C63066  -0.894   1.760   9.186  0.2301  0.6681 -0.1744
  468MOL0     C63067  -0.770   1.738   9.276 -0.0290 -0.4052  0.6900
  468MOL0     C63068  -0.751   1.825   9.391  0.5381  0.0482 -0.7210
  468MOL0     O63069  -0.846   1.830   9.503 -0.0684  0.5874  0.4875
  468MOL0     C63070  -0.876   1.955   9.544  0.3831  0.4320 -0.3246
  468MOL0     C63071  -0.785   2.064   9.540 -0.0898 -0.1095 -0.8040
  468MOL0     C63072  -0.819   2.196   9.581 -0.0700  0.0132 -0.0216
  468MOL0     C63073  -0.714   2.302   9.573  0.2310 -0.1147 -0.0323
  468MOL0     C63074  -0.949   2.217   9.637  0.5255 -0.3263  0.4374
  468MOL0     C63075  -1.014   2.347   9.682 -0.7507  0.4767  1.1026
  468MOL0     O63076  -1.103   2.325   9.779  0.9372 -0.2579 -0.5764
  468MOL0     C63077  -1.200   2.418   9.800  1.2032 -0.5251  0.1277
  468MOL0     C63078  -1.268   2.495   9.700  0.1471 -0.1988  0.1089
  468MOL0     C63079  -1.363   2.584   9.732  0.7849  0.1205 -0.1573
  468MOL0     C63080  -1.391   2.608   9.873  1.0673  0.4715 -0.8517
  468MOL0     O63081  -1.481   2.701   9.908 -0.1681 -0.5717  0.2927
  468MOL0     C63082  -1.422   2.827   9.951 -0.1313  0.0254  0.4466
  468MOL0     C63083  -1.524   2.936   9.994 -0.1054  0.6497  0.6260
  468MOL0     C63084  -1.644   2.907   9.894  1.2319  0.2915  0.1762
  468MOL0     C63085  -1.730   3.039   9.892 -0.4663  1.1107  0.5308
  468MOL0     C63086  -1.850   3.021   9.804  1.2678  0.9251  0.2888
  468MOL0     C63087  -1.825   2.958   9.664 -0.3407  0.6285  0.9644
  468MOL0     C63088  -1.926   2.983   9.547 -0.0555  0.1866  0.2653
  468MOL0     C63089  -1.949   3.127   9.498  0.4425 -0.5806 -0.5360
  468MOL0    Cl63090  -1.924   3.151   9.318  0.3372 -0.2074  0.4962
  468MOL0     C63091  -1.339   2.530   9.969 -0.8023  1.0504  0.6275
  468MOL0     C63092  -1.230   2.448   9.943 -0.1785  0.7008 -0.0432
  468MOL0     O63093  -1.003   2.443   9.611 -0.3986 -0.4920  0.3415
  468MOL0     C63094  -1.035   2.110   9.650 -0.3496  0.6499 -0.5022
  468MOL0     C63095  -0.996   1.981   9.604 -0.2082  0.3326  0.6308
  468MOL0     N63096  -0.800   1.862   8.892 -0.0297  0.3759  0.6686
  468MOL0     N63097  -0.692   1.898   8.836 -0.2611 -0.4269  0.2143
  468MOL0     C63098  -0.060   2.575   8.503 -0.7415  0.5298  0.0308
  468MOL0     C63099   0.065   2.653   8.499 -0.1744  0.5554 -0.2963
  468MOL0     C63100   0.352   2.984   8.366 -0.8556  1.0081  0.6603
  468MOL0     C63101   0.383   2.953   8.229 -0.7563  0.2647  0.7675
  468MOL0     C63102   0.469   3.043   8.165 -0.0434 -0.4060  0.3282
  468MOL0     C63103   0.538   3.142   8.226 -1.2599  0.6411 -0.1107
  468MOL0     O63104   0.616   3.226   8.153  0.1249  0.0940  0.4160
  468MOL0     C63105   0.680   3.342   8.209  0.7324 -0.2798  0.6370
  468MOL0     C63106   0.579   3.459   8.212  0.4604  0.5997  0.9271
  468MOL0     C63107   0.528   3.499   8.069  0.3053 -0.1876 -0.1078
  468MOL0     C63108   0.635   3.554   7.971  0.3491 -0.0897 -0.6180
  468MOL0     C63109   0.700   3.674   8.027  0.0843 -0.3405 -0.3551
  468MOL0     C63110   0.748   3.779   8.069  0.5134 -0.1989  0.3763
  468MOL0     C63111   0.516   3.155   8.367 -0.4635 -0.4331  0.1910
  468MOL0     C63112   0.421   3.080   8.434 -0.3095  0.1634  0.0844
  468MOL0     H63113   0.076   2.699   8.165 -2.2936 -0.2730 -1.8024
  468MOL0     H63114  -0.148   2.605   8.184 -2.3436 -0.9610  2.0356
  468MOL0     H63115  -0.392   2.597   8.276 -2.3141 -0.6156 -0.7926
  468MOL0     H63116  -0.319   2.469   8.197  0.5386  2.2770 -0.1251
  468MOL0     H63117  -0.535   2.455   8.401  0.6972 -0.1712 -0.1608
  468MOL0     H63118  -0.551   2.409   8.237 -0.5480 -0.4496  0.7896
  468MOL0     H63119  -0.509   2.184   8.304  0.0866  0.0474  0.6209
  468MOL0     H63120  -0.345   2.236   8.316  1.2483  1.3805  1.3048
  468MOL0     H63121  -0.375   2.315   8.545 -1.3126 -0.5369  0.6479
  468MOL0     H63122  -0.554   2.282   8.534 -1.8777 -0.0587 -3.2912
  468MOL0     H63123  -0.477   2.040   8.474 -2.1562 -2.0488  3.5947
  468MOL0     H63124  -0.313   2.094   8.512  0.7966  1.0380 -3.4591
  468MOL0     H63125  -0.378   2.119   8.747  1.6931 -0.1768 -1.3003
  468MOL0     H63126  -0.555   2.093   8.702  0.5605  2.3667 -2.4514
  468MOL0     H63127  -0.500   1.862   8.621 -1.0141 -1.0856  0.1232
  468MOL0     H63128  -0.330   1.898   8.662 -0.3525  0.7195 -1.1466
  468MOL0     H63129  -0.433   1.947   8.911  0.3398  0.2317 -0.2748
  468MOL0     H63130  -0.379   1.784   8.860  0.1113  0.2651  1.8140
  468MOL0     H63131  -0.569   1.640   8.989  2.7851  0.5157 -1.7605
  468MOL0     H63132  -0.958   1.652   9.001  0.3189  2.6187 -1.5192
  468MOL0     H63133  -0.826   1.577   9.083 -1.7171 -0.5590  1.0282
  468MOL0     H63134  -0.980   1.712   9.233  0.3062  1.0115  0.3212
  468MOL0     H63135  -0.926   1.863   9.164 -1.3495  0.5402  1.3058
  468MOL0     H63136  -0.671   1.754   9.233  0.0265  0.1979  1.0352
  468MOL0     H63137  -0.764   1.635   9.313  2.8260 -0.4968  0.1828
  468MOL0     H63138  -0.750   1.921   9.337 -0.7642 -0.3135 -1.4390
  468MOL0     H63139  -0.654   1.817   9.442  0.5366 -0.4155 -0.7854
  468MOL0     H63140  -0.681   2.057   9.510 -0.2071  1.7259 -1.7548
  468MOL0     H63141  -0.618   2.265   9.535  0.9008  2.2213 -0.7689
  468MOL0     H63142  -0.742   2.371   9.493  0.4206 -0.4012 -0.3527
  468MOL0     H63143  -0.692   2.353   9.667 -1.2255 -0.4693  0.5241
  468MOL0     H63144  -1.231   2.496   9.598  1.8841 -0.7116  0.6948
  468MOL0     H63145  -1.415   2.653   9.666 -0.8122 -1.0429 -0.1727
  468MOL0     H63146  -1.342   2.817  10.025 -0.8733 -0.9439  1.1450
  468MOL0     H63147  -1.372   2.868   9.863 -0.1032  0.4668  0.6612
  468MOL0     H63148  -1.562   2.933  10.096 -2.1518  3.7860  0.0828
  468MOL0     H63149  -1.477   3.033   9.976  5.4689 -2.0929 -2.3015
  468MOL0     H63150  -1.706   2.826   9.934 -2.1374  1.9727 -1.3213
  468MOL0     H63151  -1.599   2.895   9.795 -0.3875  3.8564 -1.1527
  468MOL0     H63152  -1.756   3.068   9.994 -0.8378  2.0235  0.1887
  468MOL0     H63153  -1.663   3.113   9.848  3.2435 -0.4768  3.0140
  468MOL0     H63154  -1.903   3.114   9.780 -3.5474 -1.9347 -1.7444
  468MOL0     H63155  -1.927   2.957   9.849 -0.8137  2.6891 -0.6049
  468MOL0     H63156  -1.729   2.993   9.623 -1.0660  1.2636 -0.2657
  468MOL0     H63157  -1.809   2.850   9.673  2.6023  0.7981 -0.7341
  468MOL0     H63158  -2.013   2.927   9.581  1.1458 -2.6185 -0.9771
  468MOL0     H63159  -1.879   2.935   9.461  4.2532  2.0022  1.2929
  468MOL0     H63160  -1.882   3.190   9.557  1.0651 -1.0568 -0.7202
  468MOL0     H63161  -2.050   3.157   9.528 -0.0853 -0.3631 -2.4375
  468MOL0     H63162  -1.363   2.550  10.072  0.2713  3.4470  0.4717
  468MOL0     H63163  -1.175   2.392  10.018  0.6434 -1.7765 -2.3505
  468MOL0     H63164  -1.131   2.117   9.700  0.0893  0.0685  0.4652
  468MOL0     H63165  -1.065   1.898   9.606 -0.2309  0.2863 -1.1718
  468MOL0     H63166  -0.083   2.534   8.601  0.6994 -0.3986  0.0075
  468MOL0     H63167   0.129   2.678   8.583  0.3051  0.4604 -0.6278
  468MOL0     H63168   0.331   2.873   8.177 -0.6345  0.5147  0.2614
  468MOL0     H63169   0.475   3.027   8.058  3.4187 -2.1979  0.6289
  468MOL0     H63170   0.718   3.314   8.308  1.0019  2.2619  1.3055
  468MOL0     H63171   0.775   3.367   8.162  0.5377 -2.4972 -1.1451
  468MOL0     H63172   0.627   3.543   8.264 -0.5607  1.9712 -0.2720
  468MOL0     H63173   0.494   3.422   8.269  0.5811 -1.8584 -0.3561
  468MOL0     H63174   0.441   3.566   8.077 -0.4298 -1.0413 -0.7940
  468MOL0     H63175   0.482   3.405   8.038 -0.1545 -1.1622  3.0947
  468MOL0     H63176   0.580   3.583   7.880  0.4012 -1.4319 -1.0992
  468MOL0     H63177   0.705   3.474   7.945  0.2930  0.1662 -1.6257
  468MOL0     H63178   0.764   3.881   8.097 -0.6547  0.2038 -0.3355
  468MOL0     H63179   0.580   3.218   8.428 -2.1839  0.9650  0.6213
  468MOL0     H63180   0.401   3.093   8.540  2.5565 -0.7838  0.8154
  469MOL0     O63181   0.256   2.356   7.526  0.0678 -0.4768 -0.3532
  469MOL0     C63182   0.289   2.473   7.557  0.0057  0.4958  0.2473
  469MOL0     O63183   0.202   2.578   7.569  0.1444 -0.4706  0.4528
  469MOL0     C63184   0.071   2.576   7.524 -0.3966  0.2086 -1.0925
  469MOL0     C63185  -0.019   2.481   7.552 -0.4272 -1.0253 -1.1330
  469MOL0     C63186  -0.157   2.502   7.538  0.4053 -0.2000 -0.2615
  469MOL0     C63187  -0.206   2.616   7.474 -0.6681 -1.0805 -0.5985
  469MOL0     O63188  -0.346   2.634   7.480 -0.0913  0.6893 -0.4422
  469MOL0     C63189  -0.405   2.744   7.403  1.2681  0.3287  0.3503
  469MOL0     C63190  -0.416   2.886   7.464  0.2015  0.1178 -0.3818
  469MOL0     C63191  -0.441   2.876   7.615  0.1584  0.1034 -0.4066
  469MOL0     C63192  -0.493   3.000   7.678  0.1209 -0.5137 -0.0041
  469MOL0     C63193  -0.569   2.973   7.806  0.7344  0.3280 -0.7809
  469MOL0     C63194  -0.485   2.902   7.918 -0.1616 -1.1829 -0.5348
  469MOL0     C63195  -0.578   2.868   8.033 -0.2349  0.8089  0.0891
  469MOL0     C63196  -0.585   2.711   8.046 -0.4936  0.0001 -0.5184
  469MOL0     N63197  -0.691   2.657   8.126 -0.1201  0.1353 -0.0180
  469MOL0     C63198  -0.788   2.574   8.081  1.1865 -0.1896  0.4134
  469MOL0     C63199  -0.889   2.591   8.174 -0.8656  0.2980 -0.0117
  469MOL0     C63200  -1.023   2.527   8.167  0.4267 -0.1643 -0.0000
  469MOL0     C63201  -1.135   2.633   8.200  0.5439  0.4270  0.1746
  469MOL0     C63202  -1.281   2.587   8.162 -0.3856  0.1029 -0.1029
  469MOL0     C63203  -1.389   2.691   8.163  0.4491 -0.2464  0.7615
  469MOL0     O63204  -1.494   2.609   8.120  0.3026 -0.0328  0.2276
  469MOL0     C63205  -1.623   2.636   8.148 -0.2616 -0.3423 -0.5703
  469MOL0     C63206  -1.683   2.733   8.227  0.1671  0.5368 -0.1285
  469MOL0     C63207  -1.817   2.741   8.253  0.5309 -0.7520  0.1068
  469MOL0     C63208  -1.857   2.848   8.353  0.5244 -0.4315  0.0957
  469MOL0     C63209  -1.910   2.660   8.182 -0.3396 -0.4003 -0.4988
  469MOL0     C63210  -2.062   2.671   8.194 -0.0131  0.7661 -0.7395
  469MOL0     O63211  -2.135   2.580   8.114  0.2407 -0.8336 -0.8997
  469MOL0     C63212  -2.273   2.556   8.138 -0.6795 -0.7089 -0.3235
  469MOL0     C63213  -2.357   2.661   8.129  0.0789 -0.4960 -0.4457
  469MOL0     C63214  -2.493   2.644   8.153  0.6027 -0.1039 -0.2652
  469MOL0     C63215  -2.541   2.530   8.201  0.4899  0.1361  0.0149
  469MOL0     O63216  -2.672   2.520   8.246  0.3718 -0.5846 -0.0623
  469MOL0     C63217  -2.743   2.417   8.177  0.3574  0.5189 -0.8382
  469MOL0     C63218  -2.873   2.411   8.259 -0.5501  0.1891  1.0825
  469MOL0     C63219  -2.940   2.530   8.305  0.1317 -0.5256  0.2797
  469MOL0     C63220  -3.043   2.504   8.414 -0.8866  0.2969 -0.7347
  469MOL0     C63221  -3.091   2.639   8.457  0.7091 -0.5050 -0.0908
  469MOL0     C63222  -3.217   2.621   8.548  0.8835  0.5783  0.3818
  469MOL0     C63223  -3.263   2.751   8.610  0.0876 -0.2374  0.1515
  469MOL0     C63224  -3.233   2.754   8.762 -1.0108  0.2119 -0.1658
  469MOL0    Cl63225  -3.062   2.776   8.792 -0.4932  0.0469 -0.2915
  469MOL0     C63226  -2.453   2.430   8.213  1.0610  0.0976 -0.7258
  469MOL0     C63227  -2.319   2.436   8.190 -0.6231 -0.4103  0.3168
  469MOL0     O63228  -2.115   2.753   8.272  0.4041 -0.2367 -0.9990
  469MOL0     C63229  -1.854   2.569   8.095 -0.2439 -0.0566 -0.3315
  469MOL0     C63230  -1.719   2.559   8.077 -0.2755  0.0158  0.8681
  469MOL0     N63231  -0.849   2.690   8.267  0.3520 -0.6238 -1.3699
  469MOL0     N63232  -0.728   2.726   8.235 -0.6451  0.2113 -0.2798
  469MOL0     C63233  -0.112   2.711   7.429  0.9492  1.1228 -0.1695
  469MOL0     C63234   0.026   2.687   7.451  0.8192  0.4729  0.1137
  469MOL0     C63235   0.430   2.496   7.601  0.1367 -0.8011  0.4712
  469MOL0     C63236   0.533   2.406   7.561 -0.8433  0.7012 -0.3055
  469MOL0     C63237   0.674   2.429   7.601  0.5068  0.1365  0.3641
  469MOL0     C63238   0.714   2.538   7.681 -0.3124 -0.6238 -0.6124
  469MOL0     O63239   0.835   2.560   7.741  0.7061 -0.5449  0.0402
  469MOL0     C63240   0.931   2.452   7.740 -0.5916 -0.1633 -0.5992
  469MOL0     C63241   1.037   2.469   7.631 -0.1531  0.5166  0.4047
  469MOL0     C63242   1.101   2.603   7.621  0.1456 -0.8026  1.1784
  469MOL0     C63243   1.175   2.640   7.748  0.3472  0.1704  0.6686
  469MOL0     C63244   1.224   2.782   7.741  0.6287 -0.2545  0.7545
  469MOL0     C63245   1.247   2.902   7.733  0.4717 -0.7341 -0.6060
  469MOL0     C63246   0.608   2.630   7.718 -0.5465  0.1400 -0.3634
  469MOL0     C63247   0.476   2.610   7.666  0.5863 -0.0609  0.3801
  469MOL0     H63248   0.012   2.399   7.616 -1.2003 -0.1051  0.4911
  469MOL0     H63249  -0.219   2.423   7.579  1.2816 -0.7261  0.0947
  469MOL0     H63250  -0.362   2.749   7.302 -0.3521  0.4556 -0.3695
  469MOL0     H63251  -0.507   2.710   7.388  1.3940 -0.4759  1.2254
  469MOL0     H63252  -0.323   2.941   7.449 -0.0575  1.0469  1.1747
  469MOL0     H63253  -0.504   2.927   7.413 -2.3336  0.3438  3.6816
  469MOL0     H63254  -0.510   2.793   7.631  0.1767  0.1162 -0.2585
  469MOL0     H63255  -0.354   2.849   7.674 -0.3991  0.2083  0.4836
  469MOL0     H63256  -0.415   3.074   7.699 -0.5578 -0.0252  0.8843
  469MOL0     H63257  -0.567   3.049   7.614 -0.1592  1.0553  1.4430
  469MOL0     H63258  -0.582   3.079   7.829 -0.7819  0.1474 -0.7069
  469MOL0     H63259  -0.667   2.925   7.799  1.1138 -0.3874 -1.2271
  469MOL0     H63260  -0.426   2.815   7.889  2.7735  0.4804  0.0350
  469MOL0     H63261  -0.417   2.980   7.955 -0.8565 -1.4439  1.4313
  469MOL0     H63262  -0.544   2.893   8.134 -2.4074  0.7119  0.9001
  469MOL0     H63263  -0.676   2.915   8.021  0.9532  3.2514 -0.5279
  469MOL0     H63264  -0.495   2.682   8.101 -0.4521 -0.6624 -0.9241
  469MOL0     H63265  -0.607   2.674   7.945 -3.8652 -1.5887  0.6395
  469MOL0     H63266  -0.788   2.521   7.987 -2.0719 -0.0489  0.2218
  469MOL0     H63267  -1.033   2.492   8.063 -0.6342 -1.4292  0.4983
  469MOL0     H63268  -1.023   2.439   8.232 -3.5520 -1.9601 -2.0625
  469MOL0     H63269  -1.115   2.725   8.145  2.0621 -0.4924 -0.8682
  469MOL0     H63270  -1.146   2.658   8.306 -1.0726  0.7511 -0.0278
  469MOL0     H63271  -1.312   2.508   8.230  2.5915 -0.6988  0.4535
  469MOL0     H63272  -1.271   2.547   8.061 -0.6364  1.4265 -0.6842
  469MOL0     H63273  -1.370   2.767   8.087 -3.7868 -1.8964 -2.3246
  469MOL0     H63274  -1.400   2.737   8.262 -1.9038  1.2824 -0.1036
  469MOL0     H63275  -1.612   2.800   8.275  0.3371  0.0082  0.3695
  469MOL0     H63276  -1.916   2.930   8.312 -2.6907 -1.8720  1.4074
  469MOL0     H63277  -1.919   2.804   8.432  0.8178  0.6969  0.9853
  469MOL0     H63278  -1.774   2.893   8.407 -0.9568 -0.0943  2.2372
  469MOL0     H63279  -2.314   2.757   8.102  0.2685  0.5289  3.0148
  469MOL0     H63280  -2.562   2.726   8.139 -0.1231 -0.4145  1.2289
  469MOL0     H63281  -2.760   2.444   8.073  2.4613  1.5835 -0.9670
  469MOL0     H63282  -2.693   2.320   8.188  0.0720  0.6193  2.0785
  469MOL0     H63283  -2.942   2.360   8.191  1.5203  0.4351 -1.3312
  469MOL0     H63284  -2.850   2.338   8.338 -1.0961 -1.0413  0.1429
  469MOL0     H63285  -2.985   2.579   8.218 -0.5423  2.9647  2.3550
  469MOL0     H63286  -2.869   2.605   8.341  0.7883 -0.5985 -0.8412
  469MOL0     H63287  -3.123   2.443   8.373 -0.4496  0.9785 -2.7293
  469MOL0     H63288  -2.997   2.460   8.503  1.1810 -0.5585 -2.1474
  469MOL0     H63289  -3.103   2.698   8.366 -1.1425 -0.6360  0.0260
  469MOL0     H63290  -3.022   2.687   8.528 -0.2594 -0.3092  0.7482
  469MOL0     H63291  -3.294   2.585   8.480  2.0054  2.1304 -1.8469
  469MOL0     H63292  -3.200   2.542   8.621  0.2583 -1.2502 -1.3632
  469MOL0     H63293  -3.372   2.761   8.601  0.2652  0.9272 -1.0015
  469MOL0     H63294  -3.221   2.836   8.556  0.8751 -1.1551 -0.7299
  469MOL0     H63295  -3.266   2.655   8.794  0.8870 -1.2286 -2.3440
  469MOL0     H63296  -3.280   2.830   8.826  0.4573  0.2032  0.9732
  469MOL0     H63297  -2.488   2.333   8.247 -0.7931  0.9202 -0.1971
  469MOL0     H63298  -2.252   2.350   8.201  2.4781  1.8490  0.4620
  469MOL0     H63299  -1.927   2.509   8.041  0.0167 -1.2307  0.5816
  469MOL0     H63300  -1.687   2.484   8.006 -3.0255 -2.8649  2.4038
  469MOL0     H63301  -0.146   2.800   7.377  1.4722 -0.1046 -2.7519
  469MOL0     H63302   0.092   2.766   7.416  2.4053 -1.4852 -1.6338
  469MOL0     H63303   0.508   2.328   7.490 -0.0655 -0.7194  0.9187
  469MOL0     H63304   0.750   2.358   7.569  1.4248  1.4929 -0.5712
  469MOL0     H63305   0.971   2.452   7.842 -4.1873  0.3221  0.9855
  469MOL0     H63306   0.892   2.350   7.741  0.6205 -0.7648  3.1609
  469MOL0     H63307   0.995   2.443   7.533  0.6186 -0.7836  0.3992
  469MOL0     H63308   1.117   2.396   7.643 -0.9327 -0.2635  0.9813
  469MOL0     H63309   1.026   2.680   7.599  0.1211 -1.4465 -1.3296
  469MOL0     H63310   1.167   2.609   7.534 -4.2456  1.5473 -2.4321
  469MOL0     H63311   1.258   2.571   7.765 -0.3067 -1.8413 -3.0810
  469MOL0     H63312   1.103   2.637   7.830 -3.5406  0.5604 -2.4114
  469MOL0     H63313   1.254   3.008   7.731 -1.3462 -0.4572  2.1620
  469MOL0     H63314   0.616   2.716   7.783  0.9151 -0.1491 -0.1119
  469MOL0     H63315   0.395   2.679   7.684  0.2567 -0.3443 -0.0135
  470MOL0     O63316   3.794   3.592   3.467  0.3802  0.1476 -0.7114
  470MOL0     C63317   3.909   3.584   3.427  0.5412 -0.0791 -0.3532
  470MOL0     O63318   3.938   3.521   3.312  0.5349  0.4857  0.2336
  470MOL0     C63319   3.834   3.493   3.230  0.2785 -0.0497  0.4435
  470MOL0     C63320   3.799   3.363   3.196  0.6626  0.5305  0.3323
  470MOL0     C63321   3.682   3.334   3.123 -1.1244  0.5222  0.6346
  470MOL0     C63322   3.604   3.429   3.068 -0.4877  0.8368 -1.3495
  470MOL0     O63323   3.485   3.413   3.002 -0.0057  0.5310  0.1538
  470MOL0     C63324   3.413   3.289   2.995 -0.0479  0.6743  0.5563
  470MOL0     C63325   3.475   3.199   2.886  0.2153 -0.4354  0.0402
  470MOL0     C63326   3.368   3.116   2.810 -0.8502 -0.5860 -0.3546
  470MOL0     C63327   3.293   3.024   2.904  0.6189 -0.3891 -0.1416
  470MOL0     C63328   3.184   2.936   2.835  0.2748 -0.9844  0.1792
  470MOL0     C63329   3.081   3.007   2.742 -0.6609 -0.1181 -0.1966
  470MOL0     C63330   2.978   3.090   2.819 -0.2029 -0.1727  0.0156
  470MOL0     C63331   2.854   3.101   2.749  0.2101  0.3363  1.6601
  470MOL0     N63332   2.761   3.176   2.831 -0.0181 -0.2802 -0.2893
  470MOL0     C63333   2.760   3.312   2.857  0.6107 -0.8408  0.2849
  470MOL0     C63334   2.645   3.342   2.929 -1.4220  0.5304 -0.7171
  470MOL0     C63335   2.601   3.468   2.993 -0.3484  0.1929  0.1392
  470MOL0     C63336   2.694   3.514   3.114 -0.0565 -0.4208 -0.1081
  470MOL0     C63337   2.644   3.647   3.159 -1.2141 -0.6011 -0.1815
  470MOL0     C63338   2.745   3.737   3.239 -0.3683  0.0522  0.8399
  470MOL0     O63339   2.791   3.664   3.360 -0.4276  0.4417 -0.2212
  470MOL0     C63340   2.889   3.708   3.442 -0.6627  0.4851 -0.3457
  470MOL0     C63341   2.919   3.625   3.553 -0.4158 -0.3013 -0.4072
  470MOL0     C63342   3.012   3.672   3.652  1.3233 -1.0527  0.0302
  470MOL0     C63343   3.038   3.586   3.773 -0.0343 -1.0570  0.1238
  470MOL0     C63344   3.064   3.803   3.638  0.0100 -0.8601  0.9487
  470MOL0     C63345   3.145   3.873   3.744  1.1995 -0.1538  0.8049
  470MOL0     O63346   3.155   4.006   3.729  0.2360 -0.3140  0.0626
  470MOL0     C63347   3.247   4.088   3.799 -0.6033  0.2749  0.0594
  470MOL0     C63348   3.331   4.172   3.726 -0.5762  0.0184  0.2380
  470MOL0     C63349   3.418   4.260   3.789 -0.7898 -0.1815  0.7947
  470MOL0     C63350   3.435   4.267   3.927 -0.5038  0.4860  0.2783
  470MOL0     O63351   3.528   4.350   3.973  0.5710  0.0567 -0.6905
  470MOL0     C63352   3.538   4.349   4.119  0.9253 -0.0871  0.3200
  470MOL0     C63353   3.667   4.427   4.156 -0.1292  0.3663  0.0244
  470MOL0     C63354   3.709   4.434   4.302 -0.4912  0.4916 -0.2118
  470MOL0     C63355   3.627   4.531   4.385 -0.3562 -0.9142 -0.0027
  470MOL0     C63356   3.669   4.546   4.529  0.1737  0.4287 -0.2088
  470MOL0     C63357   3.566   4.643   4.602  0.2149  0.5052  0.2985
  470MOL0     C63358   3.586   4.651   4.751 -0.4148 -0.4248  1.0232
  470MOL0     C63359   3.462   4.680   4.825 -0.4596 -0.7826 -0.2075
  470MOL0    Cl63360   3.366   4.820   4.764 -0.2367 -0.4172  0.0858
  470MOL0     C63361   3.342   4.181   4.003 -0.7967 -0.8861  0.2329
  470MOL0     C63362   3.258   4.090   3.935  1.2129 -0.3536  0.2464
  470MOL0     O63363   3.193   3.811   3.834 -0.1755  0.0415 -0.5180
  470MOL0     C63364   3.043   3.883   3.518 -0.6565 -0.3956  0.1016
  470MOL0     C63365   2.950   3.830   3.423  0.7329 -0.0819 -0.5310
  470MOL0     N63366   2.575   3.224   2.938 -0.3575 -0.0201 -1.1483
  470MOL0     N63367   2.636   3.129   2.871 -0.4253  0.0171 -0.1328
  470MOL0     C63368   3.641   3.562   3.094  0.5785  0.8782  0.2044
  470MOL0     C63369   3.748   3.591   3.178 -0.6286  0.3825 -0.0944
  470MOL0     C63370   4.013   3.659   3.506  0.7656 -0.6264  0.8412
  470MOL0     C63371   3.978   3.733   3.617  0.1716  0.4969 -0.1385
  470MOL0     C63372   4.077   3.815   3.680  0.5464 -0.0405 -0.3150
  470MOL0     C63373   4.215   3.809   3.631 -0.0512 -0.3095  0.3633
  470MOL0     O63374   4.333   3.874   3.680 -0.2181  1.1244 -0.4890
  470MOL0     C63375   4.304   3.954   3.788  0.1840 -0.1186  0.1473
  470MOL0     C63376   4.353   3.879   3.906 -1.3481 -0.6563  0.4224
  470MOL0     C63377   4.498   3.903   3.919  0.8848  0.0459  0.3181
  470MOL0     C63378   4.542   3.861   4.055 -0.6371 -0.2826  0.3582
  470MOL0     C63379   4.674   3.904   4.093  0.2455  1.1001 -0.4175
  470MOL0     C63380   4.790   3.911   4.117 -1.0431  0.5057 -0.3777
  470MOL0     C63381   4.247   3.734   3.521  0.1689  0.5530 -0.3706
  470MOL0     C63382   4.143   3.663   3.454  0.4095 -0.9049 -0.3721
  470MOL0     H63383   3.851   3.270   3.215  0.8683  0.6093  0.1529
  470MOL0     H63384   3.651   3.234   3.094 -1.0564  0.2244  1.5561
  470MOL0     H63385   3.410   3.240   3.092 -2.2830  1.0511  0.7259
  470MOL0     H63386   3.313   3.322   2.966  1.1682  1.6280 -3.1402
  470MOL0     H63387   3.514   3.255   2.801 -1.7039  0.9568  0.0049
  470MOL0     H63388   3.555   3.141   2.933  1.2377  2.6701  2.5156
  470MOL0     H63389   3.306   3.176   2.743  2.4351  0.6084 -2.5869
  470MOL0     H63390   3.417   3.052   2.736  0.8798 -0.1801  0.3930
  470MOL0     H63391   3.357   2.951   2.954  0.9731  1.1019  1.7041
  470MOL0     H63392   3.245   3.082   2.983  2.5061  0.6686  0.3018
  470MOL0     H63393   3.240   2.859   2.781 -0.3718 -1.7270  0.5432
  470MOL0     H63394   3.133   2.882   2.915  2.3700 -2.2713  0.7184
  470MOL0     H63395   3.128   3.064   2.662 -1.5204  0.4395 -0.3137
  470MOL0     H63396   3.035   2.922   2.690  0.6545  0.0615 -1.7265
  470MOL0     H63397   2.946   3.042   2.912 -2.4345  3.4126  1.3455
  470MOL0     H63398   3.014   3.193   2.834  0.3176 -0.4470  0.7337
  470MOL0     H63399   2.819   3.003   2.715  1.1095  0.2735  0.8604
  470MOL0     H63400   2.864   3.164   2.660  1.5253 -0.5920  1.1262
  470MOL0     H63401   2.841   3.380   2.832 -1.8294  2.1027 -0.2075
  470MOL0     H63402   2.598   3.550   2.922 -2.7316  0.1734  0.1670
  470MOL0     H63403   2.499   3.446   3.026 -0.5108 -0.5755 -0.8400
  470MOL0     H63404   2.800   3.520   3.086  0.8619  2.3925  3.2163
  470MOL0     H63405   2.679   3.442   3.195 -2.1389  1.1249  0.9722
  470MOL0     H63406   2.550   3.649   3.214 -0.9088  0.2238  0.3332
  470MOL0     H63407   2.634   3.709   3.070 -2.4138 -0.2719  0.1687
  470MOL0     H63408   2.694   3.828   3.272 -0.1265  0.8535 -0.8702
  470MOL0     H63409   2.826   3.761   3.170  0.1152 -2.7630  0.2842
  470MOL0     H63410   2.865   3.532   3.569 -0.2930 -0.2815  0.1555
  470MOL0     H63411   2.964   3.507   3.789  0.7589 -1.4125  2.4321
  470MOL0     H63412   3.138   3.544   3.763  1.1137  1.2266  1.2186
  470MOL0     H63413   3.029   3.655   3.858 -0.5369  0.2450 -0.9496
  470MOL0     H63414   3.327   4.157   3.619  0.5311 -4.1085  0.6153
  470MOL0     H63415   3.476   4.330   3.730 -3.5883  3.2078  1.7510
  470MOL0     H63416   3.459   4.397   4.178 -0.5901 -1.2685 -0.6535
  470MOL0     H63417   3.543   4.249   4.163 -3.4144 -0.8299 -0.3723
  470MOL0     H63418   3.748   4.383   4.097  0.1662 -0.5579  1.0767
  470MOL0     H63419   3.646   4.525   4.113 -6.2177 -0.4714  0.1098
  470MOL0     H63420   3.811   4.474   4.310  0.2675 -1.6436  2.1937
  470MOL0     H63421   3.700   4.338   4.353 -2.0643  0.7859  0.1357
  470MOL0     H63422   3.642   4.631   4.343  0.5207  0.1568  2.6684
  470MOL0     H63423   3.522   4.500   4.378 -0.2229 -1.0701 -1.8669
  470MOL0     H63424   3.772   4.582   4.540  0.8390 -1.0592 -1.2588
  470MOL0     H63425   3.660   4.448   4.576 -0.1129  0.0576 -1.0343
  470MOL0     H63426   3.581   4.745   4.563  0.8576 -0.1188 -1.1802
  470MOL0     H63427   3.464   4.618   4.572  0.5732  1.3220 -1.7904
  470MOL0     H63428   3.661   4.730   4.763  0.5979 -0.4841 -3.4044
  470MOL0     H63429   3.633   4.561   4.791  1.1074 -0.2354 -0.2296
  470MOL0     H63430   3.489   4.702   4.928 -1.4571 -0.9302  0.1000
  470MOL0     H63431   3.401   4.590   4.817  0.0466 -1.2394  0.9270
  470MOL0     H63432   3.344   4.166   4.111  1.4965 -4.4121 -0.1217
  470MOL0     H63433   3.189   4.033   3.997  0.2150  1.0997  0.5215
  470MOL0     H63434   3.074   3.987   3.514  0.9795 -0.8406  0.4175
  470MOL0     H63435   2.926   3.891   3.337  2.8770 -0.4957 -1.5157
  470MOL0     H63436   3.581   3.639   3.045 -2.4229 -0.6713  1.1804
  470MOL0     H63437   3.763   3.697   3.193 -1.4041  0.4051  0.6050
  470MOL0     H63438   3.874   3.731   3.649 -0.5686 -0.4545 -2.4191
  470MOL0     H63439   4.045   3.876   3.764 -1.1990 -0.8821 -0.3065
  470MOL0     H63440   4.349   4.050   3.761 -1.7413  1.1352  1.1178
  470MOL0     H63441   4.197   3.973   3.802  0.1872 -0.5081  0.7228
  470MOL0     H63442   4.332   3.771   3.901 -0.5534 -0.7743 -1.0270
  470MOL0     H63443   4.301   3.918   3.993 -1.7926  1.3604 -0.6912
  470MOL0     H63444   4.522   4.010   3.913 -0.0471  0.1802 -1.4309
  470MOL0     H63445   4.558   3.852   3.843 -0.9479 -1.7229 -0.0414
  470MOL0     H63446   4.542   3.752   4.053 -0.1132 -0.2755 -0.4355
  470MOL0     H63447   4.474   3.881   4.139  0.3949 -0.3032  1.2183
  470MOL0     H63448   4.889   3.900   4.157 -1.6292 -0.3053  0.9097
  470MOL0     H63449   4.351   3.736   3.490  0.5369 -3.7988 -0.0059
  470MOL0     H63450   4.165   3.609   3.362  0.8930  2.4409 -2.3930
  471MOL0     O63451   2.660   4.452   8.703  0.1950  0.1484  0.8376
  471MOL0     C63452   2.729   4.540   8.663 -0.3175  1.0698  0.4757
  471MOL0     O63453   2.854   4.566   8.706 -0.3400 -0.2022 -0.0053
  471MOL0     C63454   2.939   4.489   8.786  0.0502  0.2931 -0.1970
  471MOL0     C63455   3.066   4.553   8.809  0.0064 -0.1843 -0.0116
  471MOL0     C63456   3.163   4.492   8.883 -0.1551 -0.5457 -0.6522
  471MOL0     C63457   3.139   4.363   8.931 -0.2814  0.2506 -0.5982
  471MOL0     O63458   3.230   4.275   8.994 -0.5080  0.1728 -0.1671
  471MOL0     C63459   3.342   4.233   8.913  0.9739  0.3038  0.1425
  471MOL0     C63460   3.450   4.153   8.983 -0.1329 -0.4820 -0.0963
  471MOL0     C63461   3.499   4.229   9.112 -0.4362  0.2786  0.0879
  471MOL0     C63462   3.591   4.348   9.080  0.4370  0.9746  0.0998
  471MOL0     C63463   3.629   4.426   9.210 -0.2943  0.7476 -0.1891
  471MOL0     C63464   3.754   4.505   9.196 -1.0419 -0.6771  0.1575
  471MOL0     C63465   3.800   4.596   9.316 -0.3446 -0.0500  0.2722
  471MOL0     C63466   3.840   4.736   9.276  0.0760  0.4501  0.6941
  471MOL0     N63467   3.904   4.810   9.391 -0.1506 -0.0107  0.4587
  471MOL0     C63468   4.041   4.811   9.422  0.2016  0.1365  0.2519
  471MOL0     C63469   4.042   4.897   9.533  0.5900 -0.5194  0.0286
  471MOL0     C63470   4.163   4.947   9.601 -1.0063 -0.5999  0.4173
  471MOL0     C63471   4.191   5.085   9.534  0.2078  0.2121  0.6455
  471MOL0     C63472   4.233   5.076   9.383 -0.0918  0.3210 -0.1225
  471MOL0     C63473   4.289   5.204   9.327  1.1679 -0.0812 -0.7481
  471MOL0     O63474   4.347   5.166   9.201  0.0266  0.3160  0.3334
  471MOL0     C63475   4.484   5.133   9.192  0.0022  0.7056 -0.0860
  471MOL0     C63476   4.531   5.099   9.065  0.7478  0.3222  0.7795
  471MOL0     C63477   4.666   5.076   9.032  0.7028  0.8802 -0.6174
  471MOL0     C63478   4.715   5.084   8.887  0.6280 -0.8412  0.5844
  471MOL0     C63479   4.758   5.084   9.135 -0.2325  0.4966  0.3826
  471MOL0     C63480   4.895   5.053   9.117 -0.5817 -0.4943  0.4834
  471MOL0     O63481   4.978   5.146   9.189 -0.3942 -0.1742 -0.6617
  471MOL0     C63482   5.110   5.126   9.189 -0.0370 -0.0226  0.2222
  471MOL0     C63483   5.163   5.037   9.279  0.2301 -0.6775  0.4467
  471MOL0     C63484   5.308   5.031   9.294  0.4674 -0.5815  0.3011
  471MOL0     C63485   5.381   5.125   9.222 -0.0004  0.1528  0.3216
  471MOL0     O63486   5.513   5.137   9.256 -0.0588 -0.1050 -0.4867
  471MOL0     C63487   5.605   5.140   9.138  1.2757  0.1283 -0.5216
  471MOL0     C63488   5.676   5.269   9.153 -0.0639  1.0058 -0.6133
  471MOL0     C63489   5.787   5.272   9.047 -0.4524 -0.6589  0.7882
  471MOL0     C63490   5.894   5.369   9.090 -0.2615 -0.1035  0.1714
  471MOL0     C63491   5.987   5.423   8.982  0.0536 -0.5563 -0.5653
  471MOL0     C63492   6.088   5.532   9.037  0.5593  0.3636 -0.4175
  471MOL0     C63493   6.181   5.578   8.920 -0.3130 -0.3330  0.1931
  471MOL0     C63494   6.290   5.676   8.960 -0.3702 -0.4161 -0.2085
  471MOL0    Cl63495   6.336   5.761   8.810 -0.1372  0.3960 -0.0293
  471MOL0     C63496   5.320   5.224   9.148 -0.5245 -0.3009  0.1592
  471MOL0     C63497   5.186   5.221   9.122 -0.7234  0.2605  0.7603
  471MOL0     O63498   4.926   4.961   9.047  0.8347 -0.1429 -0.3422
  471MOL0     C63499   4.723   5.118   9.266 -0.0594 -0.6372  0.1029
  471MOL0     C63500   4.584   5.141   9.295  0.2251 -0.5869  0.0638
  471MOL0     N63501   3.911   4.938   9.569  0.1577  0.3740  0.2130
  471MOL0     N63502   3.838   4.889   9.478  0.4061 -0.4840 -0.0213
  471MOL0     C63503   3.013   4.300   8.910  0.0488 -0.0285  0.1792
  471MOL0     C63504   2.919   4.361   8.836  0.7197 -0.2430 -0.1732
  471MOL0     C63505   2.671   4.633   8.560 -0.4573 -0.5997 -0.4777
  471MOL0     C63506   2.755   4.709   8.479 -0.0585  0.0373  0.6839
  471MOL0     C63507   2.692   4.790   8.376  0.4656  0.0762  1.1974
  471MOL0     C63508   2.555   4.789   8.350 -0.6985 -0.5617 -0.2298
  471MOL0     O63509   2.515   4.867   8.242 -0.0620 -0.9093 -0.2359
  471MOL0     C63510   2.378   4.865   8.207  0.6264  0.2692  0.2234
  471MOL0     C63511   2.366   4.925   8.062 -0.1386 -0.7933  0.1555
  471MOL0     C63512   2.456   5.044   8.021  0.6789 -0.1822  0.8382
  471MOL0     C63513   2.595   5.017   7.976 -0.2685 -0.1036 -0.2601
  471MOL0     C63514   2.614   4.924   7.870 -0.3412 -0.8322 -0.0796
  471MOL0     C63515   2.610   4.834   7.789 -0.2894 -0.3929  1.4195
  471MOL0     C63516   2.474   4.710   8.426  1.4197  0.1735 -0.3939
  471MOL0     C63517   2.524   4.636   8.536 -1.3881  0.1098 -0.2310
  471MOL0     H63518   3.097   4.649   8.768 -2.2456  0.0304 -1.3560
  471MOL0     H63519   3.260   4.539   8.893 -0.9665  2.2739 -4.1115
  471MOL0     H63520   3.301   4.164   8.838  1.2647 -0.2289  0.4724
  471MOL0     H63521   3.386   4.319   8.862 -1.4243  0.8915 -1.0744
  471MOL0     H63522   3.416   4.051   9.003 -2.4216  0.3087  0.2650
  471MOL0     H63523   3.527   4.148   8.906  0.1803 -3.7050  0.2954
  471MOL0     H63524   3.411   4.262   9.168  0.6258  1.9064  0.8678
  471MOL0     H63525   3.552   4.166   9.184 -0.4416  1.9987  1.6854
  471MOL0     H63526   3.683   4.326   9.026  0.9500  1.2772  0.8362
  471MOL0     H63527   3.542   4.419   9.013  0.6745  2.7787  1.7565
  471MOL0     H63528   3.548   4.478   9.263  1.0609 -1.1887  4.2639
  471MOL0     H63529   3.645   4.348   9.285  0.9483  0.5609 -0.6305
  471MOL0     H63530   3.827   4.424   9.186 -0.6237 -0.4024  0.8736
  471MOL0     H63531   3.755   4.561   9.102 -2.0590  0.8298  0.9927
  471MOL0     H63532   3.712   4.606   9.381 -3.5035  1.1193 -3.7854
  471MOL0     H63533   3.883   4.548   9.370  1.4851 -0.5941 -2.7975
  471MOL0     H63534   3.749   4.783   9.237  1.6629  1.0790 -2.6031
  471MOL0     H63535   3.914   4.718   9.198 -0.3466 -2.6502  0.8759
  471MOL0     H63536   4.126   4.762   9.375  0.6537  2.3176 -1.3855
  471MOL0     H63537   4.142   4.960   9.707 -0.3778 -1.8051  0.6997
  471MOL0     H63538   4.255   4.894   9.574 -0.8336 -0.1187  0.0287
  471MOL0     H63539   4.275   5.136   9.583  1.1600 -1.1631  0.4994
  471MOL0     H63540   4.104   5.151   9.533  0.6030  0.7375  0.3400
  471MOL0     H63541   4.150   5.048   9.317 -2.3319  4.0721  0.8144
  471MOL0     H63542   4.306   4.995   9.375  0.1594  0.3657  1.3774
  471MOL0     H63543   4.357   5.256   9.395 -0.2219  1.4786 -0.4878
  471MOL0     H63544   4.202   5.264   9.300  0.9344 -0.6369 -1.2387
  471MOL0     H63545   4.459   5.089   8.984 -1.6620 -1.6496  3.0183
  471MOL0     H63546   4.790   5.009   8.861 -0.3284 -1.0342 -1.9287
  471MOL0     H63547   4.636   5.075   8.813  1.3028 -2.0541 -0.0126
  471MOL0     H63548   4.764   5.181   8.872  0.2210 -0.7459 -0.1499
  471MOL0     H63549   5.091   4.979   9.335 -1.1810 -0.2989 -0.8744
  471MOL0     H63550   5.352   4.963   9.367  1.1539 -1.5059 -0.9248
  471MOL0     H63551   5.675   5.057   9.141  1.1251 -0.1033 -2.4317
  471MOL0     H63552   5.549   5.140   9.044  0.3396 -2.0616 -0.0408
  471MOL0     H63553   5.605   5.352   9.145 -1.5744 -0.4050 -2.6007
  471MOL0     H63554   5.712   5.267   9.256 -2.6050 -0.1673  0.3279
  471MOL0     H63555   5.753   5.308   8.950  0.2858  1.0902  1.1302
  471MOL0     H63556   5.823   5.170   9.032 -2.2967 -1.4085  1.1175
  471MOL0     H63557   5.858   5.452   9.151 -2.1055 -1.2562  0.7222
  471MOL0     H63558   5.948   5.313   9.168 -0.4248  0.2225  0.5203
  471MOL0     H63559   5.936   5.471   8.898  0.7504  1.6580  0.2050
  471MOL0     H63560   6.046   5.335   8.954 -0.8890 -1.2496 -0.4237
  471MOL0     H63561   6.030   5.616   9.077  0.7955  0.5984 -0.5667
  471MOL0     H63562   6.154   5.495   9.117  0.6662  0.9501 -0.2300
  471MOL0     H63563   6.122   5.633   8.847  0.6287 -1.4418 -1.4696
  471MOL0     H63564   6.222   5.489   8.871  1.4376 -0.6015  2.0089
  471MOL0     H63565   6.377   5.626   9.003  2.2227  2.2491 -2.0008
  471MOL0     H63566   6.243   5.749   9.026  0.7541 -2.1438  2.7169
  471MOL0     H63567   5.383   5.299   9.100 -2.1318  0.3319 -1.0317
  471MOL0     H63568   5.149   5.300   9.058 -2.1518  0.2604  1.5301
  471MOL0     H63569   4.799   5.125   9.343 -1.1036  0.8805  1.0685
  471MOL0     H63570   4.542   5.170   9.391  0.3062  0.7204 -0.2762
  471MOL0     H63571   2.987   4.204   8.952 -0.3918  0.6590  1.5381
  471MOL0     H63572   2.828   4.310   8.807  0.0524 -0.0778  1.5689
  471MOL0     H63573   2.863   4.716   8.489  0.0334  0.7381 -0.5321
  471MOL0     H63574   2.755   4.853   8.313  1.1470 -1.3313  0.4150
  471MOL0     H63575   2.322   4.771   8.211 -1.0923  1.2437  0.1435
  471MOL0     H63576   2.330   4.935   8.277 -2.6426  0.0667 -1.5887
  471MOL0     H63577   2.260   4.950   8.054  0.3923  2.2544  1.3679
  471MOL0     H63578   2.383   4.843   7.991  0.3669 -0.4086 -0.1726
  471MOL0     H63579   2.462   5.116   8.103 -2.4939 -0.8973  1.8397
  471MOL0     H63580   2.404   5.097   7.939  0.8843  0.6019  1.2028
  471MOL0     H63581   2.643   4.976   8.065  1.7330  1.4104 -0.5712
  471MOL0     H63582   2.646   5.113   7.960 -1.3240 -0.1015 -5.2383
  471MOL0     H63583   2.613   4.755   7.716  1.4163 -0.5226  1.5937
  471MOL0     H63584   2.367   4.702   8.405  1.5872 -1.6066 -0.7678
  471MOL0     H63585   2.462   4.575   8.600 -1.6712  1.0851  0.4394
  472MOL0     O63586  10.307   1.329   3.729  0.0171  0.5649  1.1628
  472MOL0     C63587  10.368   1.431   3.701 -0.2720 -1.3371  0.2791
  472MOL0     O63588  10.308   1.555   3.685  0.2094 -0.1918 -1.1107
  472MOL0     C63589  10.183   1.585   3.711 -0.5626 -0.1064 -0.3858
  472MOL0     C63590  10.073   1.517   3.672  1.8096 -0.0408 -1.0046
  472MOL0     C63591   9.943   1.578   3.678 -0.1071  0.0332  0.0689
  472MOL0     C63592   9.925   1.713   3.737 -0.5020  0.1743  0.1860
  472MOL0     O63593   9.804   1.783   3.752  0.2503 -1.0057 -0.5139
  472MOL0     C63594   9.676   1.720   3.752 -0.2717 -0.6342  0.0580
  472MOL0     C63595   9.568   1.823   3.782 -0.5103  0.6726  0.0818
  472MOL0     C63596   9.557   1.937   3.676 -0.1091 -0.4206 -0.6006
  472MOL0     C63597   9.420   2.006   3.698 -0.4357 -0.4482  0.3217
  472MOL0     C63598   9.391   2.115   3.596 -0.1381  0.5095 -0.1085
  472MOL0     C63599   9.283   2.208   3.637  0.1105  0.0290 -0.0205
  472MOL0     C63600   9.149   2.129   3.659 -0.4122 -0.7102  0.3499
  472MOL0     C63601   9.036   2.229   3.693 -0.7447  0.5892 -1.2650
  472MOL0     N63602   9.010   2.333   3.593 -0.8124  0.5999  0.3847
  472MOL0     C63603   8.954   2.298   3.473  0.1538  1.3029  0.5954
  472MOL0     C63604   8.959   2.399   3.388  0.6009 -0.7874 -0.4413
  472MOL0     C63605   8.895   2.398   3.249  0.5269 -0.2962 -0.0700
  472MOL0     C63606   8.747   2.406   3.241  0.6729  0.0474  0.1322
  472MOL0     C63607   8.680   2.265   3.239  0.4070 -0.3326  0.0133
  472MOL0     C63608   8.530   2.300   3.245  0.9052 -0.1244  0.4579
  472MOL0     O63609   8.492   2.345   3.118  0.4828 -0.4824 -0.7032
  472MOL0     C63610   8.358   2.349   3.087  1.0856 -0.8637 -0.1772
  472MOL0     C63611   8.256   2.358   3.189 -0.4300 -0.2823 -0.0649
  472MOL0     C63612   8.116   2.382   3.168 -0.7368 -0.0602  0.0275
  472MOL0     C63613   8.018   2.387   3.287  0.1711  0.6410 -1.1387
  472MOL0     C63614   8.079   2.384   3.025  0.4970  0.2472 -0.8660
  472MOL0     C63615   7.938   2.407   2.985  0.1725  0.5815 -0.6160
  472MOL0     O63616   7.918   2.399   2.852  0.4146 -0.4393 -0.0073
  472MOL0     C63617   7.797   2.429   2.794  0.3557 -0.8752 -0.0715
  472MOL0     C63618   7.803   2.523   2.687  0.7238 -0.4285  0.1378
  472MOL0     C63619   7.691   2.560   2.617  0.1705  0.0143  0.4859
  472MOL0     C63620   7.567   2.510   2.649 -0.1318  0.5428 -0.1569
  472MOL0     O63621   7.467   2.569   2.578  0.3489 -0.7659 -0.5126
  472MOL0     C63622   7.354   2.491   2.542 -0.2736  0.3801  0.4758
  472MOL0     C63623   7.242   2.574   2.475  1.0091 -0.9484 -0.1226
  472MOL0     C63624   7.282   2.657   2.349 -0.1698  0.3699 -0.2194
  472MOL0     C63625   7.166   2.720   2.271  0.3307 -0.9879  0.8220
  472MOL0     C63626   7.220   2.801   2.160  0.2251 -0.1282 -0.2267
  472MOL0     C63627   7.122   2.902   2.099  0.1124 -0.9233  0.0960
  472MOL0     C63628   6.969   2.864   2.108  0.7542  0.5457 -0.5397
  472MOL0     C63629   6.872   2.967   2.045  0.0618 -0.3130  0.4011
  472MOL0    Cl63630   6.709   2.972   2.132  0.0046 -0.0319  0.2380
  472MOL0     C63631   7.556   2.410   2.749 -0.0052  0.3235 -0.5455
  472MOL0     C63632   7.672   2.375   2.827 -0.1491 -0.0434 -0.1153
  472MOL0     O63633   7.851   2.438   3.062  0.3877  0.5069 -0.0853
  472MOL0     C63634   8.179   2.362   2.921 -0.3497 -0.3972  0.1135
  472MOL0     C63635   8.317   2.352   2.955 -0.1708 -0.2212  0.5857
  472MOL0     N63636   9.017   2.498   3.456  0.3839 -0.4534  0.2275
  472MOL0     N63637   9.058   2.456   3.577  0.0428 -0.5706 -0.7037
  472MOL0     C63638  10.037   1.773   3.782 -0.3849 -0.4708 -0.1903
  472MOL0     C63639  10.165   1.717   3.762  0.0824 -0.9708 -0.1696
  472MOL0     C63640  10.517   1.426   3.663 -0.0111 -0.2984  0.4239
  472MOL0     C63641  10.580   1.521   3.583 -0.3476 -0.3145  0.8504
  472MOL0     C63642  10.711   1.507   3.552 -0.4309  0.7230 -0.5663
  472MOL0     C63643  10.781   1.398   3.585  0.4334 -0.4188  0.5041
  472MOL0     O63644  10.916   1.404   3.544 -0.4695 -0.4915  0.9005
  472MOL0     C63645  10.995   1.288   3.547 -0.6664 -1.4553 -0.0741
  472MOL0     C63646  11.130   1.303   3.475 -0.4570  0.0011 -0.0327
  472MOL0     C63647  11.192   1.440   3.486  0.2812  0.2707  0.6352
  472MOL0     C63648  11.305   1.451   3.397  0.0522  1.0774 -0.2822
  472MOL0     C63649  11.396   1.337   3.414 -0.0696  0.4145  0.2440
  472MOL0     C63650  11.487   1.253   3.429 -1.2053 -0.3527 -0.0397
  472MOL0     C63651  10.714   1.293   3.653 -0.7382 -0.0533 -0.0575
  472MOL0     C63652  10.581   1.304   3.679 -0.7386  0.3113  0.0359
  472MOL0     H63653  10.078   1.413   3.639  0.2393 -0.4021 -0.2025
  472MOL0     H63654   9.855   1.520   3.652 -1.8166  2.4122  0.2265
  472MOL0     H63655   9.667   1.674   3.653 -0.2741 -2.1266  0.7240
  472MOL0     H63656   9.670   1.640   3.826 -0.3103  0.8284  1.7112
  472MOL0     H63657   9.468   1.778   3.787 -0.6295  1.0298  1.0292
  472MOL0     H63658   9.594   1.873   3.875  0.2369 -0.6584  0.6201
  472MOL0     H63659   9.636   2.013   3.686 -0.8699  0.1337  1.4887
  472MOL0     H63660   9.551   1.889   3.577  2.2355 -3.9241  0.7651
  472MOL0     H63661   9.341   1.930   3.689 -1.5376  0.5170  1.4268
  472MOL0     H63662   9.415   2.038   3.802  1.0295  0.1832  0.2152
  472MOL0     H63663   9.485   2.169   3.585 -0.7690  1.3736 -1.4353
  472MOL0     H63664   9.368   2.072   3.498  2.1682 -0.4674 -0.2984
  472MOL0     H63665   9.321   2.270   3.719  0.2602  0.9517 -0.7610
  472MOL0     H63666   9.268   2.274   3.550 -1.6456 -0.8333 -0.4252
  472MOL0     H63667   9.121   2.074   3.568 -2.4814  2.9491 -1.4544
  472MOL0     H63668   9.162   2.061   3.744 -1.0828 -0.2303  0.8422
  472MOL0     H63669   9.070   2.283   3.782 -3.6336 -1.7123  1.4578
  472MOL0     H63670   8.946   2.174   3.723 -0.6566  0.7396 -0.7165
  472MOL0     H63671   8.910   2.201   3.452  1.5432  0.5799  0.8909
  472MOL0     H63672   8.928   2.485   3.192 -0.2374  0.7457  1.0254
  472MOL0     H63673   8.927   2.307   3.196 -2.1660 -0.4812 -1.5754
  472MOL0     H63674   8.725   2.459   3.148  0.0100  1.4069  1.0281
  472MOL0     H63675   8.705   2.465   3.323 -1.7268 -0.7479 -0.4373
  472MOL0     H63676   8.694   2.199   3.325 -2.0592 -3.1569 -1.5852
  472MOL0     H63677   8.717   2.208   3.153  1.2005  0.9754 -0.5489
  472MOL0     H63678   8.518   2.370   3.328  2.9123  1.7414 -0.7272
  472MOL0     H63679   8.475   2.207   3.262  1.8316 -0.7656  0.0625
  472MOL0     H63680   8.282   2.360   3.295 -0.5010  1.2135 -0.0455
  472MOL0     H63681   7.940   2.464   3.283 -0.8384  0.0179  2.8012
  472MOL0     H63682   7.978   2.285   3.293  3.5995 -0.7320  2.3847
  472MOL0     H63683   8.066   2.428   3.375 -2.2694  2.7716 -0.6700
  472MOL0     H63684   7.896   2.577   2.673  0.1870  1.1528  2.1944
  472MOL0     H63685   7.692   2.630   2.534  0.2630 -1.5024 -0.8495
  472MOL0     H63686   7.393   2.411   2.478 -1.2397  0.2282  0.0688
  472MOL0     H63687   7.299   2.451   2.628 -1.2967  1.0711  0.1505
  472MOL0     H63688   7.157   2.513   2.443  0.1207 -0.2226  0.7751
  472MOL0     H63689   7.211   2.641   2.556  2.1824 -2.6655  1.8350
  472MOL0     H63690   7.331   2.583   2.286 -1.7189  1.9027 -3.4363
  472MOL0     H63691   7.353   2.736   2.373 -0.9570  2.1711 -3.3486
  472MOL0     H63692   7.107   2.646   2.216  2.1147 -0.0987 -2.5565
  472MOL0     H63693   7.102   2.781   2.336 -0.1948  1.2028 -1.6121
  472MOL0     H63694   7.245   2.719   2.091  0.9725 -0.9244  0.9632
  472MOL0     H63695   7.310   2.852   2.194  0.3378  0.7221 -1.6956
  472MOL0     H63696   7.140   2.997   2.150 -3.0978 -0.4106  0.5070
  472MOL0     H63697   7.144   2.912   1.992  2.3911 -1.1558  0.4851
  472MOL0     H63698   6.945   2.851   2.214  2.7243  2.4071  0.2159
  472MOL0     H63699   6.945   2.779   2.044  0.1820 -0.4335  0.9162
  472MOL0     H63700   6.863   2.960   1.937  2.8403  0.1357  0.0480
  472MOL0     H63701   6.917   3.063   2.075 -0.8591 -0.9750  4.5777
  472MOL0     H63702   7.464   2.360   2.777  1.0024 -1.2945  0.0272
  472MOL0     H63703   7.658   2.301   2.906  2.7882 -1.5952 -0.9047
  472MOL0     H63704   8.153   2.361   2.816  0.7991 -2.2976 -0.1899
  472MOL0     H63705   8.398   2.352   2.883  0.7689  1.4333  1.5677
  472MOL0     H63706  10.017   1.869   3.827 -2.5872 -1.5715  1.3515
  472MOL0     H63707  10.250   1.779   3.791  0.1689 -1.8318  1.5845
  472MOL0     H63708  10.544   1.620   3.559  1.1395 -0.0627 -0.5025
  472MOL0     H63709  10.763   1.585   3.496  0.1981  1.2112  0.6668
  472MOL0     H63710  11.014   1.277   3.654 -1.0569 -0.7662  0.0684
  472MOL0     H63711  10.946   1.195   3.515 -0.2160 -1.3474 -1.1226
  472MOL0     H63712  11.111   1.273   3.371 -0.8552 -1.9193  0.5432
  472MOL0     H63713  11.197   1.222   3.508 -1.5829 -2.1399 -2.5866
  472MOL0     H63714  11.236   1.452   3.585  1.3228 -0.6439  0.3074
  472MOL0     H63715  11.113   1.513   3.467  0.8491  0.4109 -1.4551
  472MOL0     H63716  11.359   1.545   3.413  2.0295  0.1469 -1.1601
  472MOL0     H63717  11.280   1.453   3.290  3.3687 -1.1075 -1.2385
  472MOL0     H63718  11.570   1.188   3.450 -2.6866 -2.0336  0.8414
  472MOL0     H63719  10.772   1.210   3.690  0.5675  0.7407 -0.2846
  472MOL0     H63720  10.529   1.220   3.723  3.5154 -2.9403 -0.5600
  473MOL0     O63721   5.210   5.487   6.225 -0.2051  0.6903  0.1725
  473MOL0     C63722   5.304   5.501   6.148 -0.4379 -0.4474  0.6280
  473MOL0     O63723   5.282   5.541   6.015 -0.6585 -0.2164 -0.5638
  473MOL0     C63724   5.162   5.595   5.981 -0.2117  0.4408  0.5246
  473MOL0     C63725   5.101   5.702   6.051  0.3224  0.1183  0.2111
  473MOL0     C63726   4.982   5.759   6.004 -0.1984 -0.6534  1.0471
  473MOL0     C63727   4.912   5.699   5.899  0.3739 -0.2344 -0.1394
  473MOL0     O63728   4.796   5.754   5.850  0.6951  0.0880  1.3222
  473MOL0     C63729   4.720   5.834   5.941 -0.1305  0.5148 -0.1051
  473MOL0     C63730   4.666   5.763   6.063 -0.5737  0.2910 -0.0841
  473MOL0     C63731   4.603   5.633   6.026 -0.3859  0.3794 -0.3155
  473MOL0     C63732   4.563   5.547   6.137  0.5037  0.3670  0.2050
  473MOL0     C63733   4.662   5.444   6.187  1.4741 -0.3088  0.6679
  473MOL0     C63734   4.641   5.396   6.327 -0.7585 -0.2841 -0.7173
  473MOL0     C63735   4.679   5.508   6.432  0.1942 -0.3310  0.5170
  473MOL0     C63736   4.696   5.459   6.584  0.0287  0.4894  0.3812
  473MOL0     N63737   4.780   5.340   6.585  0.0353  0.0143  0.1718
  473MOL0     C63738   4.907   5.332   6.543 -0.2666 -0.2849  0.6463
  473MOL0     C63739   4.953   5.207   6.549 -0.7120 -1.1313 -0.9845
  473MOL0     C63740   5.085   5.166   6.500 -0.6274  0.1863 -0.0730
  473MOL0     C63741   5.200   5.152   6.604  0.1853  0.9262  1.5333
  473MOL0     C63742   5.188   5.036   6.708 -0.2212  0.3337  0.4771
  473MOL0     C63743   5.321   5.030   6.786  0.0948  0.0355 -0.3912
  473MOL0     O63744   5.315   5.142   6.868  0.4342  0.0201 -0.2543
  473MOL0     C63745   5.408   5.147   6.969  0.0289  0.0526 -0.7649
  473MOL0     C63746   5.397   5.060   7.072  0.0583  0.2021 -0.1567
  473MOL0     C63747   5.484   5.054   7.185 -0.0475  0.1690  1.0354
  473MOL0     C63748   5.453   4.959   7.298 -0.5825 -0.7097  1.0398
  473MOL0     C63749   5.606   5.118   7.169  0.1035 -0.1787 -0.5532
  473MOL0     C63750   5.724   5.121   7.269  0.3268 -0.1546  0.3081
  473MOL0     O63751   5.840   5.190   7.232  0.7851  0.0540 -0.1729
  473MOL0     C63752   5.949   5.188   7.313  0.5024  0.3295  0.3097
  473MOL0     C63753   6.026   5.069   7.334  0.2980  0.0702  0.1041
  473MOL0     C63754   6.143   5.074   7.412  0.9946  0.7901  0.6009
  473MOL0     C63755   6.177   5.196   7.473 -0.2882 -0.4716 -0.3781
  473MOL0     O63756   6.281   5.181   7.559  0.5600  0.0322  0.4677
  473MOL0     C63757   6.283   5.268   7.674  0.9899 -0.0881  0.6036
  473MOL0     C63758   6.379   5.230   7.785 -0.0220 -0.1012  0.2028
  473MOL0     C63759   6.518   5.197   7.731  0.9226 -0.2575 -0.8221
  473MOL0     C63760   6.624   5.191   7.844 -0.8407 -0.1339  0.0014
  473MOL0     C63761   6.758   5.138   7.798  1.1123  0.6023  0.3702
  473MOL0     C63762   6.863   5.135   7.919  0.8004 -0.4419  0.2327
  473MOL0     C63763   6.977   5.048   7.907 -0.6089 -0.2130  0.5065
  473MOL0     C63764   7.055   5.064   7.776  0.3416  0.2278 -0.5514
  473MOL0    Cl63765   7.177   4.941   7.713 -0.3437 -0.3361 -0.0861
  473MOL0     C63766   6.110   5.315   7.442  0.1253 -0.0064 -0.1280
  473MOL0     C63767   6.000   5.310   7.356  0.5976  0.3543  0.7485
  473MOL0     O63768   5.723   5.037   7.355 -0.6646  0.3498  0.1209
  473MOL0     C63769   5.624   5.193   7.049 -0.5730 -0.3337  0.4965
  473MOL0     C63770   5.524   5.219   6.964  0.5831  0.7905  0.0529
  473MOL0     N63771   4.846   5.133   6.592  0.3916 -1.3038 -0.5725
  473MOL0     N63772   4.737   5.207   6.609  0.2984  0.6156 -0.3085
  473MOL0     C63773   4.973   5.593   5.829  0.4606 -0.7866 -0.6201
  473MOL0     C63774   5.094   5.536   5.868  0.0559 -0.5857  0.1521
  473MOL0     C63775   5.438   5.455   6.191  0.0695 -0.0174 -0.0118
  473MOL0     C63776   5.552   5.498   6.131 -0.2297 -1.2308  0.0235
  473MOL0     C63777   5.672   5.435   6.160 -0.5920 -0.4251 -0.4762
  473MOL0     C63778   5.684   5.347   6.269 -0.2058  0.9427  0.2782
  473MOL0     O63779   5.798   5.275   6.286  1.3791 -1.1211 -0.5979
  473MOL0     C63780   5.841   5.283   6.430  0.2296 -0.0201  0.4635
  473MOL0     C63781   5.984   5.233   6.434 -0.6593  0.1183 -0.0420
  473MOL0     C63782   6.034   5.194   6.586  0.1429 -1.1869  0.5132
  473MOL0     C63783   6.173   5.121   6.592 -0.1346  0.2756  0.2662
  473MOL0     C63784   6.174   4.996   6.523  0.2408  0.0929 -0.4703
  473MOL0     C63785   6.161   4.882   6.480 -0.6129 -0.8246 -0.0660
  473MOL0     C63786   5.571   5.319   6.349  0.7788 -0.0483  0.3774
  473MOL0     C63787   5.452   5.373   6.306  0.4367 -0.7746 -0.5655
  473MOL0     H63788   5.152   5.751   6.133  0.9948 -0.3145  0.0539
  473MOL0     H63789   4.936   5.846   6.051 -2.5741  1.2921 -4.1564
  473MOL0     H63790   4.767   5.930   5.966 -2.0103  0.7695  3.0544
  473MOL0     H63791   4.641   5.874   5.877 -3.2083 -1.6020  2.1063
  473MOL0     H63792   4.746   5.750   6.137 -1.3024 -1.3234  0.4609
  473MOL0     H63793   4.599   5.833   6.112  0.2476 -0.2786  1.9930
  473MOL0     H63794   4.512   5.656   5.970 -1.4828 -0.0401  1.2245
  473MOL0     H63795   4.672   5.576   5.963 -1.1502 -0.7331 -0.1688
  473MOL0     H63796   4.527   5.610   6.219  0.7789 -1.0865  1.4854
  473MOL0     H63797   4.482   5.488   6.094  1.3451 -0.8601  0.2446
  473MOL0     H63798   4.640   5.355   6.128 -1.2820 -0.3848  1.6459
  473MOL0     H63799   4.764   5.479   6.169  1.0476  1.5177  1.5387
  473MOL0     H63800   4.536   5.372   6.345 -1.0980  1.8669  0.5366
  473MOL0     H63801   4.699   5.305   6.341  0.7903  0.6624 -0.6816
  473MOL0     H63802   4.772   5.549   6.393 -0.0160  0.2638  0.6241
  473MOL0     H63803   4.598   5.579   6.411 -0.5728 -1.4130 -0.3244
  473MOL0     H63804   4.605   5.418   6.627 -0.5346  1.5141  0.1866
  473MOL0     H63805   4.744   5.535   6.646  0.8137 -0.4027  0.8906
  473MOL0     H63806   4.959   5.417   6.501  1.3119 -1.3827  0.2596
  473MOL0     H63807   5.085   5.071   6.446 -1.7764  0.1344  0.0059
  473MOL0     H63808   5.125   5.237   6.428 -1.7635 -2.4142 -3.5562
  473MOL0     H63809   5.215   5.245   6.659  0.5727  2.0826 -0.4237
  473MOL0     H63810   5.297   5.141   6.554 -0.6258  1.1081 -0.1290
  473MOL0     H63811   5.167   4.934   6.672 -0.5348  0.0231  1.4919
  473MOL0     H63812   5.105   5.056   6.777  0.9391  1.5301  1.5727
  473MOL0     H63813   5.403   5.035   6.714 -1.6353  1.0378 -2.4271
  473MOL0     H63814   5.328   4.933   6.836  1.1920 -1.1486 -2.6625
  473MOL0     H63815   5.307   4.999   7.084 -0.6568  1.6586  2.7634
  473MOL0     H63816   5.493   4.994   7.394 -0.3073  1.7979  0.0863
  473MOL0     H63817   5.347   4.978   7.317 -0.6598  3.5313 -2.0900
  473MOL0     H63818   5.474   4.855   7.271  2.4455 -0.1334  0.7579
  473MOL0     H63819   6.001   4.972   7.293 -0.0704  0.4882 -0.6916
  473MOL0     H63820   6.205   4.985   7.417  1.8573  1.2862 -0.5845
  473MOL0     H63821   6.307   5.370   7.641 -0.1153 -0.1658 -0.5283
  473MOL0     H63822   6.181   5.264   7.711  0.6825 -2.9420 -0.3050
  473MOL0     H63823   6.380   5.310   7.859  1.6818 -0.1551  0.2753
  473MOL0     H63824   6.343   5.136   7.827  1.7691 -1.5156 -1.2216
  473MOL0     H63825   6.555   5.274   7.662  1.4883  0.5073  0.3077
  473MOL0     H63826   6.516   5.100   7.680 -0.6746 -0.9735  0.5065
  473MOL0     H63827   6.640   5.295   7.874 -0.5383 -0.6607  1.7665
  473MOL0     H63828   6.581   5.140   7.931 -0.5150 -2.8125 -1.3121
  473MOL0     H63829   6.800   5.193   7.713  1.6824 -2.0053 -1.1803
  473MOL0     H63830   6.753   5.039   7.752 -0.7740  0.4448  0.8556
  473MOL0     H63831   6.887   5.242   7.923 -1.0475  0.0179 -0.0600
  473MOL0     H63832   6.814   5.095   8.008 -0.3445 -1.9265 -1.0172
  473MOL0     H63833   6.951   4.941   7.910  0.8712 -0.6129  0.0075
  473MOL0     H63834   7.044   5.057   7.993  2.2165 -1.5290 -1.3965
  473MOL0     H63835   7.100   5.164   7.780  0.6914  0.0460  1.2853
  473MOL0     H63836   6.983   5.058   7.695 -1.0424 -0.8174  0.6905
  473MOL0     H63837   6.144   5.412   7.474 -2.0594  1.5149 -2.0798
  473MOL0     H63838   5.949   5.402   7.329 -0.0356 -0.7000 -2.0650
  473MOL0     H63839   5.715   5.248   7.027 -1.4131  0.0475 -2.4791
  473MOL0     H63840   5.543   5.288   6.882 -0.1916  0.8304 -0.1084
  473MOL0     H63841   4.933   5.564   5.733 -1.3212  0.0834 -0.1842
  473MOL0     H63842   5.158   5.464   5.817  3.2330 -0.2849  3.3351
  473MOL0     H63843   5.536   5.568   6.049 -1.2571 -0.5837  0.7647
  473MOL0     H63844   5.755   5.445   6.091 -0.2861 -1.1944 -0.2411
  473MOL0     H63845   5.840   5.383   6.474  0.8006 -0.9325  2.6916
  473MOL0     H63846   5.780   5.230   6.504 -0.8663  2.3871  1.4145
  473MOL0     H63847   6.053   5.304   6.388 -0.6172  0.0476 -0.0880
  473MOL0     H63848   5.992   5.135   6.385  2.0008 -0.2064  0.8556
  473MOL0     H63849   5.960   5.122   6.621 -2.2972  0.9273  0.0400
  473MOL0     H63850   6.041   5.287   6.643  3.2418 -2.9529  3.4133
  473MOL0     H63851   6.203   5.111   6.696 -1.0604  0.3359  0.5481
  473MOL0     H63852   6.239   5.195   6.547 -1.4899  1.0633 -0.5097
  473MOL0     H63853   6.171   4.788   6.430 -1.1267 -1.3204  0.7224
  473MOL0     H63854   5.575   5.266   6.444 -0.2441  2.1415  1.7334
  473MOL0     H63855   5.369   5.354   6.374  0.4750  1.7370  0.3176
  474MOL0     O63856   6.473   8.794   6.454 -0.3994 -0.2902 -0.4081
  474MOL0     C63857   6.529   8.688   6.469  0.1056  0.7049  0.4529
  474MOL0     O63858   6.505   8.564   6.408 -0.5485  0.0384 -0.3537
  474MOL0     C63859   6.386   8.548   6.348  0.6335  0.4999  0.7842
  474MOL0     C63860   6.380   8.487   6.218 -0.2510 -0.0428  0.0997
  474MOL0     C63861   6.250   8.460   6.155 -0.8616 -0.3222  0.7909
  474MOL0     C63862   6.133   8.501   6.218  0.5821 -0.5295  0.7606
  474MOL0     O63863   6.005   8.483   6.160 -0.0728 -0.2292  0.1273
  474MOL0     C63864   5.940   8.595   6.101  1.5079 -0.8356 -0.6630
  474MOL0     C63865   5.831   8.554   6.006 -0.0578 -1.0426 -0.3074
  474MOL0     C63866   5.770   8.676   5.949 -0.4304 -0.6623 -0.3675
  474MOL0     C63867   5.666   8.636   5.844  1.3137 -0.2280  0.6898
  474MOL0     C63868   5.588   8.764   5.798 -0.3235 -0.3445 -0.3613
  474MOL0     C63869   5.466   8.720   5.712  0.3262  0.0437 -0.4102
  474MOL0     C63870   5.388   8.833   5.642 -0.1561 -0.4334 -1.2120
  474MOL0     C63871   5.242   8.789   5.609 -1.0949  0.4417  0.2756
  474MOL0     N63872   5.186   8.883   5.506 -0.0686 -0.8022  0.5227
  474MOL0     C63873   5.069   8.949   5.506 -0.3916 -0.5885  0.5051
  474MOL0     C63874   5.060   9.013   5.384  0.7979 -0.0853 -1.4513
  474MOL0     C63875   4.945   9.086   5.343  0.1107  0.1125  0.3890
  474MOL0     C63876   4.939   9.230   5.375 -0.4095  0.1518 -0.5930
  474MOL0     C63877   4.927   9.256   5.528  0.2869 -0.1508  0.2972
  474MOL0     C63878   4.929   9.406   5.545 -0.5619 -0.0100  0.2860
  474MOL0     O63879   4.954   9.436   5.680 -1.2968 -0.4642 -0.2341
  474MOL0     C63880   4.876   9.531   5.753  0.3783 -0.4322 -0.3920
  474MOL0     C63881   4.892   9.542   5.895 -0.0370 -0.2335  0.6566
  474MOL0     C63882   4.834   9.644   5.977 -0.7646 -0.2559 -0.0479
  474MOL0     C63883   4.835   9.618   6.122  0.5319 -0.3670 -0.7140
  474MOL0     C63884   4.764   9.744   5.910 -0.0027  0.0476 -0.1722
  474MOL0     C63885   4.713   9.866   5.976  0.3490  0.7338 -0.3082
  474MOL0     O63886   4.643   9.958   5.901  0.2394  0.0569  0.3799
  474MOL0     C63887   4.599  10.063   5.969  0.4545  0.8193 -0.5055
  474MOL0     C63888   4.644  10.191   5.948  0.2951 -0.3589  0.8040
  474MOL0     C63889   4.588  10.309   6.018  0.7222 -0.4257  0.1793
  474MOL0     C63890   4.476  10.286   6.101 -0.4778 -0.4529  0.4419
  474MOL0     O63891   4.415  10.406   6.145 -0.4251  0.6548  0.2131
  474MOL0     C63892   4.277  10.393   6.178  0.0795  0.3820  0.0390
  474MOL0     C63893   4.229  10.533   6.230  0.1941 -0.1602 -0.6260
  474MOL0     C63894   4.083  10.559   6.183  0.9012 -0.5169 -0.1794
  474MOL0     C63895   4.011  10.679   6.245 -0.8232 -0.0119 -0.0489
  474MOL0     C63896   3.885  10.691   6.161 -0.1043  0.9562 -0.0471
  474MOL0     C63897   3.796  10.812   6.209 -0.2045  0.3951 -0.1172
  474MOL0     C63898   3.732  10.800   6.349  0.8160  0.3409 -0.0081
  474MOL0     C63899   3.667  10.932   6.381  0.0411 -0.5217 -0.6886
  474MOL0    Cl63900   3.554  10.895   6.512 -0.3283 -0.0940 -0.1205
  474MOL0     C63901   4.414  10.163   6.111 -0.7914 -0.5946  0.2388
  474MOL0     C63902   4.482  10.050   6.054 -0.3701 -0.4939  0.3754
  474MOL0     O63903   4.748   9.887   6.094  0.0228  0.8351  0.1068
  474MOL0     C63904   4.753   9.741   5.767 -0.1738 -0.0264 -0.5812
  474MOL0     C63905   4.808   9.635   5.696 -0.3829  0.1029 -0.7152
  474MOL0     N63906   5.172   8.998   5.316  0.1000  0.0578 -0.1741
  474MOL0     N63907   5.248   8.908   5.379 -0.9981 -0.1769 -0.0393
  474MOL0     C63908   6.147   8.570   6.338 -0.1189 -0.2098  0.1767
  474MOL0     C63909   6.265   8.594   6.403 -0.6221  0.2968  0.5330
  474MOL0     C63910   6.649   8.688   6.550  0.5061  0.1764 -0.5987
  474MOL0     C63911   6.690   8.805   6.610 -0.3626  0.2077  0.5573
  474MOL0     C63912   6.803   8.807   6.693 -0.4719  1.0301 -0.0849
  474MOL0     C63913   6.880   8.689   6.716 -0.4256 -0.2992  0.0432
  474MOL0     O63914   6.990   8.680   6.787  0.1047 -0.1184 -0.5323
  474MOL0     C63915   7.111   8.735   6.732  0.1917  0.5648  0.8359
  474MOL0     C63916   7.222   8.643   6.801  0.0058  0.5785 -0.1652
  474MOL0     C63917   7.359   8.698   6.797 -0.1678  0.2885  0.2846
  474MOL0     C63918   7.462   8.578   6.783  0.2865 -0.1857 -1.0685
  474MOL0     C63919   7.447   8.478   6.885  0.1644 -0.9467 -0.1940
  474MOL0     C63920   7.415   8.396   6.969  0.1247  0.1204 -0.5273
  474MOL0     C63921   6.843   8.573   6.656 -0.3717  0.0693  0.1167
  474MOL0     C63922   6.722   8.569   6.578  0.3609  0.5063  0.7862
  474MOL0     H63923   6.468   8.449   6.168 -0.0627  1.5758 -0.8350
  474MOL0     H63924   6.242   8.407   6.060 -1.0662  0.4426  0.3779
  474MOL0     H63925   5.891   8.652   6.181  4.2506 -1.3254  1.5177
  474MOL0     H63926   6.012   8.662   6.054  0.5381  1.2993  0.7535
  474MOL0     H63927   5.873   8.493   5.925  1.3751 -0.3876 -0.0810
  474MOL0     H63928   5.759   8.494   6.063 -0.8672  1.7087  1.7908
  474MOL0     H63929   5.724   8.736   6.028 -0.8855  0.3269 -1.3584
  474MOL0     H63930   5.842   8.740   5.897 -3.0716 -1.0489 -5.1038
  474MOL0     H63931   5.722   8.582   5.768  0.3563  0.2046 -0.3516
  474MOL0     H63932   5.599   8.569   5.899  0.9716  0.9232  1.7128
  474MOL0     H63933   5.552   8.827   5.880 -1.4699 -0.7809 -0.5047
  474MOL0     H63934   5.652   8.822   5.731 -0.6136 -2.1105 -2.2746
  474MOL0     H63935   5.504   8.660   5.629 -2.2629 -1.0554 -0.8848
  474MOL0     H63936   5.403   8.660   5.779 -0.1609  0.3696 -0.5676
  474MOL0     H63937   5.376   8.917   5.711  0.7406 -1.7855  0.7128
  474MOL0     H63938   5.439   8.877   5.556 -1.8661  1.1485 -1.4688
  474MOL0     H63939   5.186   8.795   5.703 -0.6169  2.2947  0.4949
  474MOL0     H63940   5.245   8.692   5.560  1.5085  1.1597 -1.1833
  474MOL0     H63941   4.982   8.947   5.571 -1.2978  2.1973 -0.4719
  474MOL0     H63942   4.951   9.075   5.234  1.6149 -2.0823  0.6081
  474MOL0     H63943   4.854   9.038   5.380  0.3874 -1.3014 -0.6649
  474MOL0     H63944   4.849   9.274   5.331 -1.1793 -1.0069 -0.2373
  474MOL0     H63945   5.030   9.279   5.340  0.8081 -0.6264  1.3292
  474MOL0     H63946   5.020   9.221   5.575  2.7412  0.7325 -3.4701
  474MOL0     H63947   4.841   9.210   5.577 -0.5890 -0.6666 -1.6357
  474MOL0     H63948   4.830   9.448   5.524  0.3618  2.6614  0.9090
  474MOL0     H63949   5.003   9.450   5.478 -0.5471  0.6933  0.7521
  474MOL0     H63950   4.947   9.465   5.948  0.8525 -0.0762 -0.0059
  474MOL0     H63951   4.930   9.654   6.164  0.5121  0.8589 -1.6532
  474MOL0     H63952   4.758   9.669   6.181 -0.5565 -0.2427 -2.1892
  474MOL0     H63953   4.824   9.511   6.144  0.0696  0.0361  1.2200
  474MOL0     H63954   4.719  10.205   5.871  0.8097 -0.9921  1.1800
  474MOL0     H63955   4.624  10.411   6.009  0.3188 -0.2764  0.2052
  474MOL0     H63956   4.227  10.364   6.085  1.2081  1.2953 -0.8762
  474MOL0     H63957   4.266  10.329   6.266 -0.4912  1.2327  0.6011
  474MOL0     H63958   4.235  10.517   6.338  0.2018  2.8355 -0.0944
  474MOL0     H63959   4.293  10.615   6.196  0.7351 -0.9430 -1.5505
  474MOL0     H63960   4.025  10.469   6.206 -1.3845  1.5731  3.1724
  474MOL0     H63961   4.090  10.572   6.074  0.8629 -0.5144 -0.1815
  474MOL0     H63962   3.995  10.661   6.352  2.8265 -0.5078  0.5601
  474MOL0     H63963   4.069  10.769   6.226  0.4736 -0.6168  0.8816
  474MOL0     H63964   3.819  10.604   6.159 -1.8706  2.0860  2.8079
  474MOL0     H63965   3.923  10.710   6.060  0.3463  0.1510 -0.0406
  474MOL0     H63966   3.858  10.901   6.214  0.3379 -0.0322  1.2109
  474MOL0     H63967   3.722  10.842   6.135 -0.7643 -1.3518 -0.3253
  474MOL0     H63968   3.795  10.779   6.436 -1.7585  1.3084  2.2187
  474MOL0     H63969   3.660  10.718   6.351 -1.0158  1.8435 -1.1464
  474MOL0     H63970   3.625  10.977   6.291 -0.2203  0.5370 -0.0604
  474MOL0     H63971   3.752  10.991   6.416  0.3854 -0.3188 -1.8309
  474MOL0     H63972   4.316  10.148   6.154  0.0660 -2.6777  1.6280
  474MOL0     H63973   4.432   9.955   6.068  0.8706 -0.9226  2.3703
  474MOL0     H63974   4.694   9.811   5.708  0.6461 -1.4988 -3.2941
  474MOL0     H63975   4.776   9.633   5.592  0.8367  0.2370 -1.1001
  474MOL0     H63976   6.055   8.594   6.391 -0.3237  1.9123 -1.0430
  474MOL0     H63977   6.257   8.651   6.495 -0.1095 -1.6338  1.8282
  474MOL0     H63978   6.641   8.901   6.598  3.2596  1.9089 -2.4623
  474MOL0     H63979   6.831   8.902   6.738  2.0316  1.1553 -1.7237
  474MOL0     H63980   7.118   8.734   6.623 -0.9369  0.5522  0.7478
  474MOL0     H63981   7.130   8.836   6.772 -0.4536  0.8571  0.4211
  474MOL0     H63982   7.214   8.557   6.735  2.5370  1.4603 -1.7574
  474MOL0     H63983   7.204   8.612   6.904  2.3396 -1.4844 -0.3044
  474MOL0     H63984   7.370   8.768   6.880 -1.8004  1.7078 -0.6120
  474MOL0     H63985   7.376   8.773   6.718  1.9564 -0.7751 -0.3277
  474MOL0     H63986   7.562   8.622   6.788 -0.5890  1.7943  1.1164
  474MOL0     H63987   7.444   8.536   6.684 -1.5658  0.5379 -1.0701
  474MOL0     H63988   7.373   8.312   7.020 -1.2384  0.5348 -0.9323
  474MOL0     H63989   6.908   8.487   6.656  0.9065  0.9892  1.4722
  474MOL0     H63990   6.702   8.471   6.535 -1.7846  1.2844 -0.1474
  475MOL0     O63991   2.470   4.993  11.090  0.0372 -0.0343 -0.2764
  475MOL0     C63992   2.552   5.044  11.015 -0.0675 -0.7817 -0.2140
  475MOL0     O63993   2.520   5.127  10.909 -0.6832  0.3765  0.1899
  475MOL0     C63994   2.399   5.142  10.854  0.0561 -0.0747  0.1207
  475MOL0     C63995   2.393   5.197  10.726  0.2685  0.4935 -0.4115
  475MOL0     C63996   2.269   5.213  10.663  0.5699 -0.6406  0.5978
  475MOL0     C63997   2.148   5.178  10.728  0.0786  0.7361 -0.3223
  475MOL0     O63998   2.032   5.189  10.654 -0.2103 -0.9865 -1.0816
  475MOL0     C63999   1.907   5.170  10.726 -0.2188 -0.5297  1.0468
  475MOL0     C64000   1.799   5.202  10.616 -0.1934  0.5143 -0.5963
  475MOL0     C64001   1.798   5.351  10.566 -0.5548  0.2067 -0.4008
  475MOL0     C64002   1.760   5.439  10.683 -0.2065 -0.9207 -0.0922
  475MOL0     C64003   1.710   5.575  10.627  0.4514 -0.6565 -0.1466
  475MOL0     C64004   1.654   5.666  10.737 -0.1217 -0.7688 -0.1228
  475MOL0     C64005   1.500   5.644  10.750  0.1713  0.2553  0.6647
  475MOL0     C64006   1.441   5.729  10.866  0.2929  0.6217  0.2107
  475MOL0     N64007   1.448   5.876  10.838 -0.2715  0.0016 -0.6846
  475MOL0     C64008   1.349   5.947  10.772  0.2665 -0.3493 -0.7703
  475MOL0     C64009   1.388   6.076  10.785  1.4531  0.5823 -0.1756
  475MOL0     C64010   1.298   6.193  10.742 -0.1160  0.3069 -0.1523
  475MOL0     C64011   1.273   6.293  10.853 -0.6494  0.3863 -0.7789
  475MOL0     C64012   1.211   6.215  10.969 -0.6558 -0.8491  0.6051
  475MOL0     C64013   1.163   6.310  11.089  0.0646 -0.5183  0.3866
  475MOL0     O64014   1.055   6.245  11.145 -0.8592  0.2237 -0.4312
  475MOL0     C64015   0.929   6.266  11.091 -0.4893 -0.2458  0.4741
  475MOL0     C64016   0.900   6.343  10.971 -0.5524  0.4261 -0.7507
  475MOL0     C64017   0.776   6.332  10.912  0.1977 -0.3736  0.2029
  475MOL0     C64018   0.774   6.377  10.773 -0.4057  0.0039  0.3399
  475MOL0     C64019   0.670   6.281  10.991 -0.1169  0.1799  0.0722
  475MOL0     C64020   0.528   6.284  10.949 -1.3756 -0.3969  0.3613
  475MOL0     O64021   0.446   6.213  11.034 -0.8418  0.0073  0.4741
  475MOL0     C64022   0.312   6.235  11.004 -0.3124 -0.1053 -0.2564
  475MOL0     C64023   0.244   6.325  11.086 -0.3224  0.3066  0.5675
  475MOL0     C64024   0.110   6.349  11.064 -0.3773 -0.6434 -0.1269
  475MOL0     C64025   0.036   6.283  10.964  0.9887 -0.5023  0.6871
  475MOL0     O64026  -0.103   6.274  10.948  0.0093 -0.2534  0.3845
  475MOL0     C64027  -0.189   6.354  11.032  0.6268 -0.2779  0.6721
  475MOL0     C64028  -0.259   6.259  11.130  0.3784 -0.7130  0.0961
  475MOL0     C64029  -0.351   6.163  11.051 -0.4771 -0.7458  0.7717
  475MOL0     C64030  -0.461   6.098  11.137 -0.5385  0.0416  0.1407
  475MOL0     C64031  -0.578   6.037  11.057 -0.3896  0.5226 -0.6698
  475MOL0     C64032  -0.683   5.967  11.151 -0.4565 -0.4375  0.3568
  475MOL0     C64033  -0.764   5.862  11.080 -0.2809  0.4680 -0.2482
  475MOL0     C64034  -0.845   5.926  10.964  0.3624 -0.5945  0.1144
  475MOL0    Cl64035  -0.977   5.814  10.920 -0.1913  0.2128  0.2240
  475MOL0     C64036   0.111   6.187  10.887  0.5996  0.0026 -0.0959
  475MOL0     C64037   0.251   6.157  10.906 -0.8780 -0.5951  1.3788
  475MOL0     O64038   0.501   6.348  10.848  0.4181 -0.0196 -0.3366
  475MOL0     C64039   0.697   6.224  11.113 -0.3621 -0.8028 -0.1698
  475MOL0     C64040   0.822   6.211  11.168  0.7647 -0.1994 -0.1365
  475MOL0     N64041   1.509   6.076  10.848  0.1317 -0.4483 -0.0835
  475MOL0     N64042   1.543   5.957  10.890  0.4578 -0.2453  0.2810
  475MOL0     C64043   2.153   5.128  10.856  0.2228 -0.4669 -0.0106
  475MOL0     C64044   2.275   5.113  10.916 -0.5713  0.5658 -0.3436
  475MOL0     C64045   2.691   5.033  11.052  0.2627  0.0508 -1.0126
  475MOL0     C64046   2.731   4.934  11.147  0.3807  0.1272 -0.3821
  475MOL0     C64047   2.864   4.919  11.178 -0.4522  1.0319  0.5020
  475MOL0     C64048   2.960   5.009  11.124  0.7901  0.2901  0.3419
  475MOL0     O64049   3.088   4.987  11.159 -0.2208 -0.5224  0.4732
  475MOL0     C64050   3.163   5.109  11.165  0.3500 -0.4425 -0.4331
  475MOL0     C64051   3.137   5.162  11.309 -0.6075 -0.4631  0.1575
  475MOL0     C64052   3.254   5.251  11.359  0.5224 -0.7134 -0.0975
  475MOL0     C64053   3.250   5.272  11.515 -0.3131  0.2416  0.3326
  475MOL0     C64054   3.287   5.146  11.594  0.2432 -1.2002  0.7795
  475MOL0     C64055   3.315   5.052  11.660  0.6392 -0.3739 -0.5118
  475MOL0     C64056   2.920   5.096  11.027  0.6503 -0.9430 -0.7385
  475MOL0     C64057   2.792   5.117  10.999 -0.5714  0.3580 -0.2979
  475MOL0     H64058   2.484   5.246  10.693  0.3830  2.2200  2.1092
  475MOL0     H64059   2.273   5.244  10.559  2.4177  0.8319  1.0685
  475MOL0     H64060   1.894   5.064  10.746 -4.8073 -0.3394  0.1832
  475MOL0     H64061   1.895   5.238  10.812 -0.2468 -0.2851  0.8517
  475MOL0     H64062   1.810   5.143  10.525  0.0296 -0.0552 -0.2023
  475MOL0     H64063   1.703   5.163  10.653 -0.5134  1.8689  0.0800
  475MOL0     H64064   1.905   5.371  10.561  0.2856 -2.1400  3.6785
  475MOL0     H64065   1.742   5.370  10.474  0.0810 -0.8802 -1.0321
  475MOL0     H64066   1.675   5.390  10.732 -0.8596 -0.3500 -0.6212
  475MOL0     H64067   1.840   5.459  10.755  0.1666  0.7393 -0.9040
  475MOL0     H64068   1.796   5.633  10.593  1.3936 -1.3920  0.8824
  475MOL0     H64069   1.651   5.557  10.537  3.4536 -3.0324 -1.8399
  475MOL0     H64070   1.705   5.651  10.833 -0.0832 -3.2158 -0.4553
  475MOL0     H64071   1.658   5.772  10.710 -0.2232 -0.9180 -0.7242
  475MOL0     H64072   1.456   5.673  10.654 -1.8760 -0.0872  1.4539
  475MOL0     H64073   1.502   5.537  10.775  3.9062  0.0706  0.1712
  475MOL0     H64074   1.507   5.700  10.948  1.9319 -2.6442 -2.0465
  475MOL0     H64075   1.340   5.695  10.885  1.1220 -3.1181 -1.2215
  475MOL0     H64076   1.264   5.901  10.723  0.3061 -1.9078  0.5172
  475MOL0     H64077   1.339   6.244  10.654 -1.9553  1.0340 -0.6372
  475MOL0     H64078   1.198   6.155  10.718  0.7078 -0.6151 -2.3130
  475MOL0     H64079   1.195   6.362  10.818 -1.1061  1.0027  1.3246
  475MOL0     H64080   1.360   6.350  10.886 -1.8420  1.9194 -0.1586
  475MOL0     H64081   1.269   6.128  11.000 -2.3893 -1.7941  1.3996
  475MOL0     H64082   1.115   6.174  10.934 -0.7988 -0.6893  0.8089
  475MOL0     H64083   1.132   6.404  11.041 -0.3583 -1.7849 -2.0041
  475MOL0     H64084   1.237   6.334  11.165 -0.0749  1.7931 -0.1218
  475MOL0     H64085   0.988   6.380  10.918  0.1759  1.4201  1.0490
  475MOL0     H64086   0.713   6.465  10.755 -0.6860 -0.7098 -2.7649
  475MOL0     H64087   0.874   6.387  10.729 -1.3081 -1.9642 -2.3786
  475MOL0     H64088   0.717   6.307  10.712  0.1787  1.1465 -1.6024
  475MOL0     H64089   0.296   6.384  11.160  0.5991  1.0600 -0.6424
  475MOL0     H64090   0.068   6.422  11.132  4.0841  3.8977 -1.5663
  475MOL0     H64091  -0.138   6.443  11.070  2.0202  2.0750 -5.4672
  475MOL0     H64092  -0.265   6.398  10.967 -1.0297 -0.1552  2.5889
  475MOL0     H64093  -0.190   6.190  11.179 -0.4316 -0.5637  1.4815
  475MOL0     H64094  -0.320   6.315  11.201 -0.2813 -1.4393  0.1227
  475MOL0     H64095  -0.285   6.096  10.994  1.2759  1.1577  0.4679
  475MOL0     H64096  -0.401   6.219  10.972  0.2746 -2.1555 -0.7591
  475MOL0     H64097  -0.413   6.014  11.188  0.2934 -1.0985 -2.3703
  475MOL0     H64098  -0.501   6.177  11.203 -0.4666  0.2988 -0.1208
  475MOL0     H64099  -0.537   5.972  10.979 -0.3122 -2.2711  1.5440
  475MOL0     H64100  -0.618   6.129  11.014 -0.4587  0.9718  0.3384
  475MOL0     H64101  -0.626   5.910  11.224  0.2359 -0.8762 -0.5076
  475MOL0     H64102  -0.749   6.040  11.200 -0.0866 -1.5203  2.5959
  475MOL0     H64103  -0.836   5.809  11.143  1.6595 -1.6763  0.3112
  475MOL0     H64104  -0.695   5.787  11.041 -0.6010  0.2701 -0.4352
  475MOL0     H64105  -0.779   5.940  10.878 -0.5611  5.1843 -0.0639
  475MOL0     H64106  -0.888   6.021  10.998  1.8902 -0.6432  2.4102
  475MOL0     H64107   0.046   6.122  10.830  1.3459  0.4437 -1.4974
  475MOL0     H64108   0.302   6.082  10.847 -0.8329  0.3849  0.1429
  475MOL0     H64109   0.611   6.190  11.171 -2.3481  2.8482 -0.6923
  475MOL0     H64110   0.838   6.159  11.262  1.6531  1.6557  0.7700
  475MOL0     H64111   2.059   5.108  10.906 -0.8087  1.2321 -1.1802
  475MOL0     H64112   2.279   5.075  11.017  1.6362  1.3487 -0.0917
  475MOL0     H64113   2.658   4.865  11.190  1.0342 -0.7716 -0.6695
  475MOL0     H64114   2.904   4.852  11.252 -0.0575  1.0777  0.3295
  475MOL0     H64115   3.264   5.079  11.135  0.3103 -0.2835 -0.7219
  475MOL0     H64116   3.146   5.189  11.093 -1.9596 -1.3898 -1.0285
  475MOL0     H64117   3.111   5.073  11.367  1.4710 -0.5126  1.0984
  475MOL0     H64118   3.047   5.223  11.320  1.3562  2.2087  2.8396
  475MOL0     H64119   3.246   5.346  11.305  1.3238 -0.7288 -0.2651
  475MOL0     H64120   3.354   5.213  11.333  1.7866  2.9986 -1.2489
  475MOL0     H64121   3.148   5.290  11.549 -0.6366  1.7549 -1.3174
  475MOL0     H64122   3.320   5.353  11.534 -0.9851  2.1041 -3.9214
  475MOL0     H64123   3.347   4.964  11.711 -3.0629 -2.4037 -1.3298
  475MOL0     H64124   2.987   5.165  10.977 -1.7750  3.8704  1.9232
  475MOL0     H64125   2.775   5.197  10.927  1.8829  0.9634 -0.2783
  476MOL0     O64126   5.864   5.392   9.544 -0.4715  0.2093  0.3528
  476MOL0     C64127   5.861   5.500   9.485 -0.2051  0.3533  0.1923
  476MOL0     O64128   5.747   5.577   9.467 -0.3996  0.4430 -0.4307
  476MOL0     C64129   5.631   5.550   9.535 -0.3172  0.3735 -0.2660
  476MOL0     C64130   5.608   5.529   9.671  0.3150 -0.1899  0.2334
  476MOL0     C64131   5.476   5.510   9.717 -0.2413  0.1038  0.2145
  476MOL0     C64132   5.365   5.529   9.640  0.0435  0.6557 -0.4857
  476MOL0     O64133   5.238   5.514   9.679 -0.1572 -0.2176 -1.1948
  476MOL0     C64134   5.212   5.567   9.811 -0.6099  0.3856 -0.8663
  476MOL0     C64135   5.067   5.561   9.843 -0.3179  0.0868 -0.3270
  476MOL0     C64136   4.974   5.641   9.751  0.6839  0.5949 -0.6876
  476MOL0     C64137   4.836   5.622   9.800  0.2705  0.1842  0.3949
  476MOL0     C64138   4.739   5.708   9.715 -0.2418  0.1043 -0.3822
  476MOL0     C64139   4.609   5.676   9.775  0.5632  0.4822  0.9480
  476MOL0     C64140   4.500   5.770   9.726  0.6315  0.2826  0.7662
  476MOL0     C64141   4.468   5.768   9.576 -0.7127  0.4214  0.3664
  476MOL0     N64142   4.379   5.656   9.556  0.1142  0.5182 -0.4370
  476MOL0     C64143   4.246   5.656   9.538 -0.6666 -0.1875 -0.2559
  476MOL0     C64144   4.206   5.528   9.525  0.7593 -0.2697 -0.0813
  476MOL0     C64145   4.061   5.497   9.503 -0.3326  0.2238 -0.2034
  476MOL0     C64146   3.987   5.504   9.636  0.3158  0.5203  1.4367
  476MOL0     C64147   3.835   5.468   9.620 -0.5199 -0.0439  0.3590
  476MOL0     C64148   3.743   5.587   9.577  0.1117  0.2262 -0.8666
  476MOL0     O64149   3.619   5.537   9.540 -0.5912 -0.5185 -0.8175
  476MOL0     C64150   3.495   5.602   9.559 -0.4066  0.3333  1.4724
  476MOL0     C64151   3.378   5.536   9.517  0.1677 -0.4020  0.1354
  476MOL0     C64152   3.249   5.598   9.507  0.2607 -0.5284  0.9891
  476MOL0     C64153   3.131   5.519   9.464 -0.0515 -0.3402 -0.3965
  476MOL0     C64154   3.240   5.736   9.550  0.1547  0.3050 -0.3326
  476MOL0     C64155   3.099   5.802   9.563 -0.0621  0.1730  0.8269
  476MOL0     O64156   3.089   5.890   9.664  0.0954 -0.7453  0.2019
  476MOL0     C64157   2.962   5.924   9.698  0.4217  0.2466 -0.7452
  476MOL0     C64158   2.857   5.834   9.745 -0.5708  0.2012  0.5102
  476MOL0     C64159   2.736   5.891   9.781  0.4568  0.2089 -0.1199
  476MOL0     C64160   2.712   6.020   9.776 -0.0833 -0.1547 -0.2176
  476MOL0     O64161   2.590   6.069   9.829 -0.0670  0.1084  0.4695
  476MOL0     C64162   2.570   6.214   9.826  0.1869 -0.6280  0.7220
  476MOL0     C64163   2.442   6.254   9.894  0.0978 -0.6544 -0.0851
  476MOL0     C64164   2.350   6.324   9.789  0.8796  0.2071  0.1552
  476MOL0     C64165   2.240   6.399   9.867  0.1476 -1.3549  1.0749
  476MOL0     C64166   2.174   6.513   9.792  0.5883 -0.6299  0.7319
  476MOL0     C64167   2.066   6.461   9.696  0.4964 -0.2356 -0.0434
  476MOL0     C64168   2.002   6.579   9.615  0.3653 -0.1770  0.0427
  476MOL0     C64169   1.868   6.539   9.555  0.4136  0.7065 -0.1376
  476MOL0    Cl64170   1.743   6.572   9.675 -0.1752  0.5316  0.0444
  476MOL0     C64171   2.807   6.109   9.713  0.2393  0.3003  0.7327
  476MOL0     C64172   2.927   6.056   9.682  0.8966  0.3576  0.4645
  476MOL0     O64173   3.005   5.767   9.492  0.3186  0.8055 -0.0225
  476MOL0     C64174   3.352   5.799   9.604 -0.5101 -0.1677 -0.6802
  476MOL0     C64175   3.478   5.739   9.605 -0.2339 -0.3164  0.2655
  476MOL0     N64176   4.321   5.447   9.540  0.0739 -0.2002 -0.4873
  476MOL0     N64177   4.422   5.525   9.557 -0.3526 -0.0134 -0.5123
  476MOL0     C64178   5.390   5.574   9.502 -0.4681 -0.0959  0.1429
  476MOL0     C64179   5.519   5.576   9.455  0.0647  0.3541  0.2394
  476MOL0     C64180   5.986   5.561   9.432 -0.1778  0.3423 -0.4126
  476MOL0     C64181   5.996   5.678   9.364  0.1796  0.0434  0.4296
  476MOL0     C64182   6.115   5.738   9.321  0.1441 -0.5132 -0.7032
  476MOL0     C64183   6.238   5.671   9.345 -0.2560 -0.0234 -0.7197
  476MOL0     O64184   6.351   5.740   9.307 -0.1168 -0.1750  0.0808
  476MOL0     C64185   6.452   5.651   9.274 -0.4152  0.0976  0.7084
  476MOL0     C64186   6.568   5.727   9.220 -0.6804 -0.2848 -0.2241
  476MOL0     C64187   6.700   5.657   9.202  0.5778 -0.2693  0.2041
  476MOL0     C64188   6.813   5.751   9.153  0.0972  0.6665 -0.7031
  476MOL0     C64189   6.931   5.664   9.141  0.2998  0.7064  0.6579
  476MOL0     C64190   7.028   5.586   9.135  0.1689  0.9068  0.9151
  476MOL0     C64191   6.231   5.543   9.400  0.2282 -0.0592 -0.8624
  476MOL0     C64192   6.111   5.496   9.451 -0.3439  0.1158  0.9158
  476MOL0     H64193   5.697   5.524   9.733  0.1423  0.3128  0.5242
  476MOL0     H64194   5.469   5.472   9.818 -0.4059  0.7467  0.4476
  476MOL0     H64195   5.269   5.509   9.883 -0.0266  0.0910 -1.5474
  476MOL0     H64196   5.256   5.666   9.827  1.8797 -0.4039 -2.2268
  476MOL0     H64197   5.039   5.455   9.846  2.0320 -0.5605  0.7480
  476MOL0     H64198   5.070   5.597   9.947 -0.0987 -1.6372  0.2919
  476MOL0     H64199   4.998   5.747   9.757 -0.3671  0.8552 -0.9088
  476MOL0     H64200   4.983   5.593   9.653  1.6474 -1.7559  0.4651
  476MOL0     H64201   4.810   5.516   9.792  1.4538  0.0397 -3.2818
  476MOL0     H64202   4.831   5.643   9.907 -0.3436 -3.9968  1.3578
  476MOL0     H64203   4.756   5.816   9.727 -3.1811  0.9263 -2.5006
  476MOL0     H64204   4.744   5.685   9.608 -0.5108  2.6299 -1.0160
  476MOL0     H64205   4.589   5.572   9.748  0.1806  1.0204 -1.0736
  476MOL0     H64206   4.606   5.698   9.882  1.0135 -0.3611  1.1411
  476MOL0     H64207   4.403   5.744   9.769 -0.6319 -1.0702 -2.5626
  476MOL0     H64208   4.533   5.871   9.755  0.2281 -0.0539  2.4878
  476MOL0     H64209   4.566   5.761   9.528 -1.0225  0.3948 -0.2692
  476MOL0     H64210   4.414   5.857   9.543 -0.1202 -0.3936 -3.1418
  476MOL0     H64211   4.179   5.741   9.534  0.3586  0.6559 -0.1247
  476MOL0     H64212   4.021   5.577   9.440  1.7662  1.5322  0.0027
  476MOL0     H64213   4.053   5.403   9.449  2.3090 -0.5565  0.6219
  476MOL0     H64214   3.999   5.608   9.667  1.2486  0.6449  0.7104
  476MOL0     H64215   4.035   5.438   9.709 -2.1700  0.1256  2.8469
  476MOL0     H64216   3.801   5.422   9.713  0.6439 -0.4666  0.5890
  476MOL0     H64217   3.837   5.383   9.552 -3.1831 -0.2016  0.3719
  476MOL0     H64218   3.782   5.635   9.487  3.3221  2.3409  1.4283
  476MOL0     H64219   3.746   5.655   9.663  0.5690  0.7258 -1.2758
  476MOL0     H64220   3.381   5.439   9.469 -0.8204  0.0644 -0.9555
  476MOL0     H64221   3.071   5.529   9.554  1.1203 -0.7482  0.4572
  476MOL0     H64222   3.081   5.563   9.377  0.2053 -1.9908 -1.4219
  476MOL0     H64223   3.148   5.414   9.439 -1.2981 -0.3392 -1.3208
  476MOL0     H64224   2.870   5.726   9.755 -3.0384 -0.3596 -1.3984
  476MOL0     H64225   2.653   5.835   9.822 -1.0446 -0.0771 -3.2635
  476MOL0     H64226   2.651   6.263   9.881  0.0558  0.1450  0.2398
  476MOL0     H64227   2.561   6.247   9.722  0.7437 -3.7032 -0.4074
  476MOL0     H64228   2.389   6.166   9.933 -1.2460  0.2701  0.2390
  476MOL0     H64229   2.469   6.323   9.974 -2.4162 -1.8229  1.9034
  476MOL0     H64230   2.295   6.245   9.736 -0.1004 -0.4249  2.0030
  476MOL0     H64231   2.403   6.386   9.716 -1.2193  2.9287  0.7506
  476MOL0     H64232   2.167   6.323   9.896 -0.5200  0.1372  3.5622
  476MOL0     H64233   2.278   6.446   9.959  1.9365 -3.8603  1.7208
  476MOL0     H64234   2.244   6.561   9.723 -0.1628 -1.4129 -0.6267
  476MOL0     H64235   2.129   6.581   9.864  2.2419  2.1792 -0.7284
  476MOL0     H64236   2.100   6.386   9.624 -1.7614  0.2773 -1.7495
  476MOL0     H64237   1.990   6.412   9.757 -2.2644 -0.4279 -3.3646
  476MOL0     H64238   2.068   6.617   9.537  2.5844 -0.8459  1.4805
  476MOL0     H64239   1.999   6.663   9.685  2.5445  0.1318 -0.1685
  476MOL0     H64240   1.879   6.436   9.520  2.5930  2.3728 -5.3380
  476MOL0     H64241   1.856   6.592   9.460 -0.0047  2.5864  0.9091
  476MOL0     H64242   2.795   6.216   9.706  0.9294  0.3089 -0.6849
  476MOL0     H64243   3.007   6.125   9.659  0.1791  1.2405  0.5619
  476MOL0     H64244   3.340   5.900   9.641  0.2394 -1.5250  3.9261
  476MOL0     H64245   3.569   5.790   9.637  0.1484 -0.0838 -1.1164
  476MOL0     H64246   5.312   5.601   9.432  0.0102  0.7603 -0.0702
  476MOL0     H64247   5.517   5.606   9.350 -0.7257 -1.5734 -0.3445
  476MOL0     H64248   5.902   5.725   9.337  0.5214 -0.2809 -1.4781
  476MOL0     H64249   6.122   5.833   9.269 -3.0196  0.1995 -0.0401
  476MOL0     H64250   6.486   5.598   9.363  2.1490  1.0235  0.3651
  476MOL0     H64251   6.425   5.582   9.194 -0.9415  1.6097 -0.4754
  476MOL0     H64252   6.574   5.818   9.281 -2.9732  1.2518 -2.1033
  476MOL0     H64253   6.530   5.784   9.134  1.1501  0.7364 -0.4021
  476MOL0     H64254   6.682   5.571   9.137  1.0481  0.2444 -0.6315
  476MOL0     H64255   6.720   5.626   9.305 -1.8287  1.7232  1.3711
  476MOL0     H64256   6.830   5.826   9.231 -0.9310 -0.2564  0.4705
  476MOL0     H64257   6.773   5.799   9.063 -1.0240  2.8882  0.8825
  476MOL0     H64258   7.100   5.509   9.119 -1.9603 -1.4549  1.8222
  476MOL0     H64259   6.317   5.478   9.411 -0.2607 -0.8793 -1.7077
  476MOL0     H64260   6.118   5.404   9.508 -0.1006  1.0173  2.3938
  477MOL0     O64261   7.291   8.964   3.926 -0.3348  0.1464 -0.1569
  477MOL0     C64262   7.323   8.847   3.916 -0.2874 -0.1212 -0.2418
  477MOL0     O64263   7.248   8.733   3.916  0.1732 -0.2156 -0.5231
  477MOL0     C64264   7.120   8.755   3.963 -0.7167  0.8863 -0.3602
  477MOL0     C64265   7.022   8.809   3.882 -0.5940 -0.1444 -1.0289
  477MOL0     C64266   6.889   8.838   3.928  0.2143 -0.2710 -0.1657
  477MOL0     C64267   6.858   8.808   4.060 -0.5010 -0.7550  0.0287
  477MOL0     O64268   6.752   8.865   4.114  0.2029  0.3931 -0.2368
  477MOL0     C64269   6.650   8.780   4.176 -0.0218  0.6344  0.4036
  477MOL0     C64270   6.663   8.779   4.328 -0.2339 -1.2061 -1.4959
  477MOL0     C64271   6.541   8.724   4.409  0.9219  0.7541 -0.3824
  477MOL0     C64272   6.392   8.749   4.344 -0.8510 -1.1471  0.0951
  477MOL0     C64273   6.276   8.679   4.412 -0.6521  0.6411  0.1713
  477MOL0     C64274   6.146   8.727   4.359 -0.2239 -0.2910 -0.3799
  477MOL0     C64275   6.027   8.624   4.378  0.2980 -0.3236 -0.1090
  477MOL0     C64276   5.984   8.563   4.246 -1.2787 -0.0746 -0.6716
  477MOL0     N64277   5.927   8.427   4.270  0.0878 -0.3696 -0.1600
  477MOL0     C64278   5.796   8.420   4.315  0.2333 -0.0772 -0.3443
  477MOL0     C64279   5.780   8.290   4.344 -0.1485  0.6549  0.3259
  477MOL0     C64280   5.664   8.220   4.410 -0.0006  0.1370  0.5787
  477MOL0     C64281   5.549   8.306   4.465 -0.5723 -0.1368  0.5189
  477MOL0     C64282   5.427   8.235   4.520 -0.0293  0.3965 -0.1359
  477MOL0     C64283   5.329   8.344   4.572  1.2002  0.0029 -0.3918
  477MOL0     O64284   5.238   8.274   4.659 -0.1808 -0.1932  0.0937
  477MOL0     C64285   5.129   8.340   4.700  0.4536 -0.4459  0.1588
  477MOL0     C64286   5.092   8.470   4.660 -0.1754  0.6283  0.3427
  477MOL0     C64287   4.973   8.533   4.704 -0.6619  0.4009 -0.3322
  477MOL0     C64288   4.952   8.674   4.653 -0.1785  1.6961 -0.0941
  477MOL0     C64289   4.884   8.459   4.784  0.9725  0.5781 -0.0056
  477MOL0     C64290   4.745   8.506   4.813 -0.5676  0.4679  0.0133
  477MOL0     O64291   4.656   8.407   4.826 -0.1262  0.2375 -0.6559
  477MOL0     C64292   4.528   8.434   4.863 -0.1511 -0.4102 -0.0142
  477MOL0     C64293   4.501   8.432   4.999 -0.0437 -0.3830 -0.4163
  477MOL0     C64294   4.366   8.442   5.047 -0.2456  0.1894  0.5839
  477MOL0     C64295   4.257   8.456   4.959  0.6659 -0.0463  0.8371
  477MOL0     O64296   4.124   8.468   4.990 -0.4779  0.1547  0.4908
  477MOL0     C64297   4.082   8.511   5.120 -1.2150 -0.2307  1.2196
  477MOL0     C64298   4.122   8.656   5.145  0.6101  0.4529  0.7599
  477MOL0     C64299   4.004   8.728   5.224 -0.0556  0.5131 -0.1349
  477MOL0     C64300   4.017   8.728   5.375  0.3439 -1.0455  0.5304
  477MOL0     C64301   3.926   8.817   5.472  0.6438  1.0241  0.7161
  477MOL0     C64302   4.002   8.803   5.603  0.5958 -0.5994  0.5792
  477MOL0     C64303   3.926   8.882   5.707  1.4937 -0.0915 -0.0375
  477MOL0     C64304   4.021   8.920   5.830 -0.4821 -0.3525  0.4180
  477MOL0    Cl64305   3.964   9.059   5.910  0.3592  0.1280  0.4050
  477MOL0     C64306   4.285   8.456   4.825  0.0327 -0.0180  0.7165
  477MOL0     C64307   4.420   8.450   4.777  0.2940  0.1115  0.3302
  477MOL0     O64308   4.713   8.626   4.815 -0.1661 -0.8639 -0.1003
  477MOL0     C64309   4.910   8.326   4.820  0.0028 -0.6052  0.3041
  477MOL0     C64310   5.028   8.278   4.779 -0.4276  0.1904 -1.0193
  477MOL0     N64311   5.895   8.218   4.310 -0.0781  0.3826  0.7236
  477MOL0     N64312   5.988   8.305   4.276  0.4231  0.7598  0.9384
  477MOL0     C64313   6.963   8.758   4.138  0.0498  0.1522 -1.6676
  477MOL0     C64314   7.086   8.723   4.095 -1.1900 -0.3300  0.4175
  477MOL0     C64315   7.469   8.828   3.903 -0.4863  0.3689  0.4408
  477MOL0     C64316   7.558   8.932   3.915 -0.1152  0.3322 -0.0069
  477MOL0     C64317   7.698   8.925   3.879 -0.8237  0.6069 -0.7365
  477MOL0     C64318   7.753   8.799   3.837 -1.5557 -0.0768  0.6574
  477MOL0     O64319   7.884   8.795   3.792 -0.4430  0.4737  0.5311
  477MOL0     C64320   7.973   8.680   3.814  1.2364  0.8855 -0.0875
  477MOL0     C64321   7.967   8.627   3.959  0.8916 -0.3825 -0.2969
  477MOL0     C64322   8.015   8.737   4.062 -0.1351 -0.9311  0.3058
  477MOL0     C64323   8.161   8.767   4.069 -0.0024  0.8596  0.1496
  477MOL0     C64324   8.243   8.644   4.089  0.1271  1.1423  0.1730
  477MOL0     C64325   8.302   8.536   4.094  0.4911  0.1872  0.1983
  477MOL0     C64326   7.664   8.692   3.840 -0.4431  0.1937 -0.8857
  477MOL0     C64327   7.529   8.711   3.869  0.4757  0.4102 -0.1437
  477MOL0     H64328   7.046   8.822   3.776 -1.9864 -2.6760 -1.7254
  477MOL0     H64329   6.818   8.887   3.862  2.0490  1.3405 -1.0293
  477MOL0     H64330   6.557   8.830   4.147 -0.8101 -0.3175  1.1990
  477MOL0     H64331   6.650   8.679   4.135 -0.6991  0.0438  1.7884
  477MOL0     H64332   6.748   8.732   4.379 -1.3443  0.7496  2.5582
  477MOL0     H64333   6.656   8.884   4.357 -1.5353 -2.0871  1.7937
  477MOL0     H64334   6.564   8.618   4.421  4.0057  1.6621  3.7812
  477MOL0     H64335   6.539   8.772   4.507 -0.5776 -2.5066  1.3378
  477MOL0     H64336   6.370   8.855   4.363  0.1552 -1.3729  3.0314
  477MOL0     H64337   6.397   8.728   4.237 -0.5855 -0.3368 -0.0588
  477MOL0     H64338   6.282   8.572   4.390 -0.6162  0.6659  0.0585
  477MOL0     H64339   6.276   8.685   4.521  0.0198 -1.5413  0.3253
  477MOL0     H64340   6.125   8.816   4.418  0.9561  2.6058 -4.0100
  477MOL0     H64341   6.153   8.756   4.254  2.8951 -1.3214 -0.5878
  477MOL0     H64342   6.051   8.537   4.440  0.8437 -0.1855 -0.1214
  477MOL0     H64343   5.940   8.670   4.425 -1.1589  0.9019 -3.6764
  477MOL0     H64344   6.075   8.558   4.184 -0.2151  1.3259  0.6818
  477MOL0     H64345   5.919   8.628   4.188 -1.1686 -0.0708 -0.7923
  477MOL0     H64346   5.716   8.493   4.308 -0.7178 -1.2063 -1.5309
  477MOL0     H64347   5.615   8.148   4.344  0.0131  1.3776 -0.8570
  477MOL0     H64348   5.707   8.159   4.489 -2.6911 -1.9569  0.5769
  477MOL0     H64349   5.521   8.372   4.383 -2.1539  0.8851  1.8270
  477MOL0     H64350   5.587   8.371   4.545  0.6886 -1.6807  1.2369
  477MOL0     H64351   5.469   8.176   4.602  0.2463  3.2541  1.9497
  477MOL0     H64352   5.383   8.167   4.447  2.5786 -2.3078  0.6254
  477MOL0     H64353   5.285   8.384   4.480 -0.3624  0.1451  0.3785
  477MOL0     H64354   5.386   8.420   4.626  0.5219 -0.3264  0.8322
  477MOL0     H64355   5.149   8.520   4.583  0.8761 -1.1515 -0.0874
  477MOL0     H64356   4.893   8.656   4.563  1.9954 -2.8967 -0.8689
  477MOL0     H64357   4.907   8.742   4.725 -0.2845  1.5154  0.0093
  477MOL0     H64358   5.052   8.708   4.626  1.6022 -0.6701  2.9703
  477MOL0     H64359   4.581   8.425   5.073  2.0226  1.4916 -2.2986
  477MOL0     H64360   4.353   8.445   5.155 -0.0753 -1.5829  0.6922
  477MOL0     H64361   3.974   8.500   5.113 -1.1693  0.2663 -1.9416
  477MOL0     H64362   4.113   8.449   5.204 -1.7269  2.0978  3.2480
  477MOL0     H64363   4.219   8.659   5.195  1.6756  2.1054 -1.2607
  477MOL0     H64364   4.138   8.713   5.053  0.6125 -1.8384 -0.7345
  477MOL0     H64365   3.909   8.678   5.204  0.4651 -1.2539  1.5165
  477MOL0     H64366   4.008   8.835   5.200  1.4085  0.2062 -1.4229
  477MOL0     H64367   4.017   8.626   5.413 -1.5819 -1.7350 -1.1456
  477MOL0     H64368   4.121   8.760   5.391  0.9453 -2.8312  0.5038
  477MOL0     H64369   3.830   8.765   5.477 -0.3813  2.9031  1.6416
  477MOL0     H64370   3.905   8.920   5.443  0.8929  1.3436  1.6353
  477MOL0     H64371   4.003   8.696   5.628 -1.6441 -0.6998  0.4025
  477MOL0     H64372   4.101   8.848   5.589  0.7017 -0.7573  0.8079
  477MOL0     H64373   3.848   8.818   5.748  2.3685 -1.0907  0.0933
  477MOL0     H64374   3.878   8.973   5.668  4.0796  1.6534  0.6117
  477MOL0     H64375   4.122   8.943   5.794 -0.4447 -2.9562 -1.4106
  477MOL0     H64376   4.050   8.833   5.891  1.2557  0.6567  1.1187
  477MOL0     H64377   4.197   8.445   4.763 -0.0524 -0.4800  0.9125
  477MOL0     H64378   4.422   8.460   4.669  1.2128  1.4483  0.4419
  477MOL0     H64379   4.838   8.268   4.877 -0.9113  2.2363  2.2805
  477MOL0     H64380   5.050   8.176   4.811 -0.9025  0.4443  0.1711
  477MOL0     H64381   6.934   8.765   4.242  1.6749 -2.7095 -0.9065
  477MOL0     H64382   7.155   8.698   4.174  0.3094  1.1986 -0.3597
  477MOL0     H64383   7.514   9.020   3.961  0.9812  0.3099  1.1557
  477MOL0     H64384   7.768   9.007   3.887 -1.6487  1.3154 -0.7162
  477MOL0     H64385   7.959   8.598   3.743 -0.6332  1.5031 -0.4764
  477MOL0     H64386   8.068   8.732   3.798  0.4176  2.6133  0.5129
  477MOL0     H64387   8.032   8.540   3.975  1.5959  0.3930  1.2525
  477MOL0     H64388   7.863   8.604   3.982  0.4793  1.7839  0.1852
  477MOL0     H64389   7.977   8.714   4.162  2.4246 -1.9614  1.1239
  477MOL0     H64390   7.972   8.832   4.031  0.4678 -0.4059  1.0494
  477MOL0     H64391   8.174   8.821   4.163  0.2331 -0.8148  1.1077
  477MOL0     H64392   8.192   8.832   3.986  1.4357  0.4123  0.3024
  477MOL0     H64393   8.326   8.434   4.114 -2.9676 -0.9369 -0.7490
  477MOL0     H64394   7.692   8.597   3.796  1.6696  0.2206  0.2536
  477MOL0     H64395   7.461   8.627   3.860 -0.1983  1.0384 -1.0000
  478MOL0     O64396   2.226   6.216   5.073  0.3433  0.4535  0.0124
  478MOL0     C64397   2.296   6.281   5.151  0.3278 -0.9740  0.8040
  478MOL0     O64398   2.259   6.391   5.224  0.1651 -0.1083  0.0922
  478MOL0     C64399   2.145   6.462   5.223 -0.4576 -0.4381 -0.2842
  478MOL0     C64400   2.026   6.411   5.181  0.9158  1.0204  0.2406
  478MOL0     C64401   1.916   6.491   5.189 -0.0457 -0.3310 -0.2644
  478MOL0     C64402   1.927   6.622   5.242  0.2835  0.1180 -0.5437
  478MOL0     O64403   1.812   6.696   5.237  0.0808 -0.8019 -0.2191
  478MOL0     C64404   1.788   6.772   5.359  0.6365  0.4879  0.5886
  478MOL0     C64405   1.690   6.881   5.319 -0.3798  0.2188 -0.1844
  478MOL0     C64406   1.550   6.851   5.368  0.8140 -0.3341 -0.2214
  478MOL0     C64407   1.470   6.979   5.352 -0.1042 -1.1179  0.9709
  478MOL0     C64408   1.330   6.965   5.405  0.1328  1.0542 -0.5689
  478MOL0     C64409   1.255   7.090   5.350  0.4430  0.3649  0.2036
  478MOL0     C64410   1.117   7.106   5.423  0.2177 -0.3664  0.3192
  478MOL0     C64411   1.066   7.248   5.382  0.5655 -0.0046 -0.0770
  478MOL0     N64412   0.960   7.284   5.484  0.3224  0.8383 -0.1332
  478MOL0     C64413   0.832   7.234   5.484  0.7175 -0.4808  0.3501
  478MOL0     C64414   0.772   7.311   5.582 -0.3132 -0.5441  0.4212
  478MOL0     C64415   0.649   7.276   5.657 -0.5880 -0.0106 -0.7225
  478MOL0     C64416   0.542   7.378   5.686  0.5974 -0.4507 -0.2223
  478MOL0     C64417   0.497   7.468   5.560  0.1587 -0.9406 -0.7560
  478MOL0     C64418   0.358   7.533   5.578  0.5797  0.2658 -0.5589
  478MOL0     O64419   0.262   7.421   5.595 -0.8825 -0.2442  0.0811
  478MOL0     C64420   0.148   7.456   5.646  0.5777 -0.1845 -0.5467
  478MOL0     C64421   0.105   7.584   5.686 -0.1634 -0.6716 -0.2986
  478MOL0     C64422  -0.020   7.616   5.738  0.0855  0.9113 -0.1250
  478MOL0     C64423  -0.058   7.749   5.793 -0.2456 -0.7539 -0.0982
  478MOL0     C64424  -0.103   7.502   5.769  0.7887 -0.6425 -0.7027
  478MOL0     C64425  -0.240   7.530   5.809 -0.0139  0.4893  0.1158
  478MOL0     O64426  -0.283   7.495   5.925 -0.0808 -0.1331 -0.4411
  478MOL0     C64427  -0.415   7.499   5.955 -0.5110 -0.1253  0.5313
  478MOL0     C64428  -0.479   7.620   5.992  0.8042  0.6076 -0.2270
  478MOL0     C64429  -0.617   7.617   6.024 -0.1230 -0.2182 -0.1839
  478MOL0     C64430  -0.689   7.502   6.023 -0.0447 -0.7488 -0.1177
  478MOL0     O64431  -0.823   7.483   6.059  0.1479  0.2832  0.2126
  478MOL0     C64432  -0.877   7.581   6.140  0.6791 -0.2691 -0.8904
  478MOL0     C64433  -1.002   7.540   6.210  0.7819  0.3153  0.1239
  478MOL0     C64434  -1.117   7.497   6.121 -0.0783  0.4792  0.6435
  478MOL0     C64435  -1.248   7.471   6.195 -0.2453  0.4032  0.5012
  478MOL0     C64436  -1.291   7.329   6.188  0.0724  0.2948  0.0319
  478MOL0     C64437  -1.436   7.314   6.239  0.5943 -0.5967 -0.0991
  478MOL0     C64438  -1.481   7.172   6.211 -0.5162  0.2126 -0.1363
  478MOL0     C64439  -1.619   7.135   6.255  0.2380 -0.5944  0.2404
  478MOL0    Cl64440  -1.642   7.152   6.427 -0.2574  0.2504 -0.1206
  478MOL0     C64441  -0.629   7.393   5.969 -0.2183  0.4416 -0.7643
  478MOL0     C64442  -0.493   7.388   5.923 -0.2291 -0.6210 -0.4089
  478MOL0     O64443  -0.309   7.591   5.729  0.6954  0.3314 -0.1430
  478MOL0     C64444  -0.056   7.374   5.753 -0.6167  0.1846 -0.3979
  478MOL0     C64445   0.068   7.354   5.692 -0.1269 -0.0874 -0.3469
  478MOL0     N64446   0.857   7.408   5.628  0.0089 -0.2753  0.3704
  478MOL0     N64447   0.970   7.387   5.571 -0.1963 -0.3568  1.0163
  478MOL0     C64448   2.049   6.670   5.296 -0.5477  0.4971  0.5414
  478MOL0     C64449   2.160   6.586   5.289  0.3345 -0.4794 -0.2360
  478MOL0     C64450   2.443   6.258   5.132 -0.0711 -0.6660 -0.0478
  478MOL0     C64451   2.516   6.188   5.029  0.0967 -0.1206 -0.1424
  478MOL0     C64452   2.657   6.190   5.017 -0.3025 -0.4517 -0.3094
  478MOL0     C64453   2.738   6.277   5.094 -0.0172 -0.1494 -0.2772
  478MOL0     O64454   2.873   6.262   5.065  0.5000 -0.3986 -0.2494
  478MOL0     C64455   2.957   6.304   5.175  0.1031  0.3283 -0.8031
  478MOL0     C64456   3.101   6.332   5.141 -0.2305 -0.7808  0.0178
  478MOL0     C64457   3.164   6.202   5.098 -0.2666 -0.2277 -0.7874
  478MOL0     C64458   3.310   6.224   5.078 -1.5173 -0.0808 -0.7629
  478MOL0     C64459   3.388   6.100   5.056 -0.4543 -0.6539 -0.9018
  478MOL0     C64460   3.437   5.999   5.017 -1.0818  0.3545 -0.2784
  478MOL0     C64461   2.674   6.332   5.208 -0.7600 -1.1885  0.9054
  478MOL0     C64462   2.527   6.328   5.226  0.7702  0.3516  0.5331
  478MOL0     H64463   2.021   6.308   5.146 -2.6464 -0.8173  5.1053
  478MOL0     H64464   1.827   6.462   5.134 -0.4747  1.2835 -0.4747
  478MOL0     H64465   1.751   6.700   5.432  2.3708  0.5227  1.5547
  478MOL0     H64466   1.875   6.822   5.404  1.3103  0.0631 -0.2199
  478MOL0     H64467   1.726   6.975   5.361  1.5810  0.4678 -2.2911
  478MOL0     H64468   1.692   6.901   5.212  2.5941 -0.2242 -0.2961
  478MOL0     H64469   1.507   6.762   5.320  1.4850 -2.4713  2.8759
  478MOL0     H64470   1.546   6.823   5.473  0.2665 -1.0317 -0.4184
  478MOL0     H64471   1.516   7.062   5.407  0.0747 -0.7768  0.3173
  478MOL0     H64472   1.454   7.010   5.248  0.5628  0.3766  1.2798
  478MOL0     H64473   1.286   6.875   5.362  3.4526 -0.4894 -1.0591
  478MOL0     H64474   1.320   6.962   5.514 -3.5430 -1.7141 -0.7948
  478MOL0     H64475   1.315   7.176   5.380 -0.3382  1.1142 -0.3375
  478MOL0     H64476   1.238   7.079   5.243  1.3888  0.9964 -0.0185
  478MOL0     H64477   1.048   7.027   5.394 -1.3834  1.6211 -1.5983
  478MOL0     H64478   1.129   7.106   5.532 -0.0484 -0.6744  0.3486
  478MOL0     H64479   1.030   7.253   5.278 -0.3030 -0.9394  0.1625
  478MOL0     H64480   1.157   7.308   5.394  0.4071  0.4348 -0.9391
  478MOL0     H64481   0.792   7.150   5.428  0.9287 -1.4683  1.6382
  478MOL0     H64482   0.603   7.192   5.605  1.5596 -1.6130 -0.1857
  478MOL0     H64483   0.681   7.230   5.751  1.4020  0.6986 -1.0077
  478MOL0     H64484   0.584   7.448   5.759 -1.4743  0.8674 -0.2092
  478MOL0     H64485   0.452   7.330   5.725  0.7111 -0.3281  0.2061
  478MOL0     H64486   0.484   7.406   5.471 -1.2560  0.8619 -1.8965
  478MOL0     H64487   0.571   7.546   5.540 -0.2503 -0.2852  0.2073
  478MOL0     H64488   0.325   7.595   5.494 -1.9333  1.3226  1.0550
  478MOL0     H64489   0.358   7.599   5.665 -1.0284  1.7008 -1.5848
  478MOL0     H64490   0.172   7.665   5.662 -0.3692 -1.1828 -2.9010
  478MOL0     H64491   0.028   7.802   5.834 -0.4848  0.9549 -1.6607
  478MOL0     H64492  -0.105   7.813   5.718 -0.8764  0.5515  1.3373
  478MOL0     H64493  -0.129   7.749   5.877 -0.4529 -0.5462 -0.2731
  478MOL0     H64494  -0.414   7.706   5.997  2.8368 -0.8967  0.3004
  478MOL0     H64495  -0.663   7.714   6.045  0.7320 -0.2455  2.0992
  478MOL0     H64496  -0.807   7.616   6.216 -1.6593  0.3191  1.1180
  478MOL0     H64497  -0.903   7.661   6.071 -1.6730  2.0075  2.3784
  478MOL0     H64498  -0.985   7.453   6.273 -1.5458  0.6499  1.3304
  478MOL0     H64499  -1.034   7.625   6.270 -0.9519  0.6031 -1.1221
  478MOL0     H64500  -1.088   7.410   6.060 -1.2395 -0.2882  1.1580
  478MOL0     H64501  -1.127   7.565   6.036  2.0061 -0.0932 -0.1434
  478MOL0     H64502  -1.239   7.499   6.300  1.3005  0.2286  0.4419
  478MOL0     H64503  -1.332   7.523   6.147  0.8073  1.9510  0.2443
  478MOL0     H64504  -1.226   7.279   6.260 -1.2873 -1.7248 -0.0620
  478MOL0     H64505  -1.292   7.282   6.089 -5.6982 -3.4559  1.3403
  478MOL0     H64506  -1.431   7.332   6.347  0.8765 -1.1420 -0.0183
  478MOL0     H64507  -1.502   7.389   6.196  0.1983 -0.5075  0.6400
  478MOL0     H64508  -1.414   7.109   6.270  1.1320  2.8734  1.0435
  478MOL0     H64509  -1.468   7.148   6.105  0.5907  0.5112 -0.0795
  478MOL0     H64510  -1.651   7.036   6.221  2.1464 -0.5295 -1.9907
  478MOL0     H64511  -1.688   7.209   6.212 -0.5884 -1.1898  0.5152
  478MOL0     H64512  -0.686   7.301   5.964  1.5461 -0.6226 -3.0210
  478MOL0     H64513  -0.445   7.304   5.875 -1.6957 -1.5909 -0.2287
  478MOL0     H64514  -0.112   7.287   5.786 -1.2676  0.7137 -0.0838
  478MOL0     H64515   0.108   7.254   5.678 -0.5966  0.1026 -3.7420
  478MOL0     H64516   2.071   6.766   5.341 -3.0880  1.1215  0.6249
  478MOL0     H64517   2.254   6.615   5.333 -1.3893 -1.2301  4.5696
  478MOL0     H64518   2.460   6.134   4.954 -1.2212 -2.1530  2.1784
  478MOL0     H64519   2.707   6.136   4.937  1.2310 -2.7418  2.0375
  478MOL0     H64520   2.927   6.397   5.224  2.7693 -0.4304  2.6365
  478MOL0     H64521   2.950   6.230   5.256 -1.7172  0.2332 -1.0085
  478MOL0     H64522   3.153   6.374   5.228  0.1431  0.7935 -0.9134
  478MOL0     H64523   3.104   6.403   5.057 -0.0131  0.0241  0.6918
  478MOL0     H64524   3.126   6.187   4.996 -0.2325  0.5539 -0.9228
  478MOL0     H64525   3.126   6.119   5.159  0.1952 -0.1827 -0.4371
  478MOL0     H64526   3.345   6.275   5.169  1.7954  1.0416 -2.5109
  478MOL0     H64527   3.336   6.288   4.994  0.0782 -0.8753 -0.9152
  478MOL0     H64528   3.486   5.907   4.990  0.6653  0.6150  1.7039
  478MOL0     H64529   2.740   6.377   5.282  0.1052 -0.5774 -0.2135
  478MOL0     H64530   2.474   6.370   5.311 -1.1541  0.7452 -0.7853
  479MOL0     O64531   7.513   6.834   4.856 -0.4634  0.1715  0.1007
  479MOL0     C64532   7.573   6.923   4.910 -0.0834  0.1875 -0.2569
  479MOL0     O64533   7.699   6.920   4.974  0.4174 -0.3552  0.4164
  479MOL0     C64534   7.773   6.813   5.000  0.0663  0.5847 -0.2112
  479MOL0     C64535   7.766   6.688   4.950 -0.1627  0.1778  0.2215
  479MOL0     C64536   7.875   6.598   4.972 -0.0017 -0.1735 -0.1151
  479MOL0     C64537   7.990   6.626   5.033 -0.4867 -0.0837 -0.6581
  479MOL0     O64538   8.086   6.530   5.045  0.0307 -0.0068 -0.2095
  479MOL0     C64539   8.131   6.480   4.916 -0.2858 -0.3428 -0.5672
  479MOL0     C64540   8.282   6.489   4.909 -0.7535 -0.5837  0.0133
  479MOL0     C64541   8.347   6.371   4.972 -0.1402  0.2943 -1.5554
  479MOL0     C64542   8.413   6.389   5.112 -0.1261  0.5519 -0.3683
  479MOL0     C64543   8.483   6.263   5.170 -0.4446  0.4689 -0.1989
  479MOL0     C64544   8.565   6.301   5.292  0.1964  0.0783 -0.2592
  479MOL0     C64545   8.703   6.370   5.275  1.1931  0.0589  0.0856
  479MOL0     C64546   8.816   6.291   5.339  0.0093 -0.5014  0.0178
  479MOL0     N64547   8.946   6.360   5.329  0.8661 -0.1230 -0.3955
  479MOL0     C64548   8.980   6.489   5.378 -0.6655 -1.0066  0.0977
  479MOL0     C64549   9.109   6.506   5.326  0.1563 -0.0280 -0.2096
  479MOL0     C64550   9.199   6.619   5.359  1.0467 -0.5558 -0.8060
  479MOL0     C64551   9.263   6.687   5.233 -0.3344 -0.0638 -0.4293
  479MOL0     C64552   9.169   6.773   5.143 -0.3645  0.3678 -0.2880
  479MOL0     C64553   9.080   6.695   5.049  0.0604  1.1522 -0.7238
  479MOL0     O64554   9.012   6.786   4.959 -0.2622 -0.6646  0.2633
  479MOL0     C64555   8.878   6.836   4.992  0.3422 -0.1410  0.3041
  479MOL0     C64556   8.804   6.788   5.099 -0.2174 -0.0514  0.1814
  479MOL0     C64557   8.675   6.837   5.134 -0.7169 -0.8891 -0.1097
  479MOL0     C64558   8.605   6.786   5.259  0.2730 -0.5808  0.8511
  479MOL0     C64559   8.617   6.938   5.049 -0.3225  0.3537 -0.0183
  479MOL0     C64560   8.489   7.002   5.078  0.4202 -0.3219  1.2461
  479MOL0     O64561   8.461   7.100   4.998 -0.1456 -0.0452  0.3441
  479MOL0     C64562   8.346   7.168   5.014  0.6275  0.1862  0.4222
  479MOL0     C64563   8.346   7.307   5.046 -0.4230  0.3543  0.7070
  479MOL0     C64564   8.234   7.385   5.045 -0.7576 -0.3026  0.2648
  479MOL0     C64565   8.108   7.329   5.008 -0.0105  0.6102 -0.7041
  479MOL0     O64566   7.992   7.393   5.016 -0.0707 -0.4690 -0.0467
  479MOL0     C64567   7.977   7.525   4.956  0.1900 -0.1623  0.4934
  479MOL0     C64568   7.965   7.633   5.062  0.1636 -0.0507  0.1368
  479MOL0     C64569   7.820   7.621   5.121  0.4713  1.2224  0.3364
  479MOL0     C64570   7.823   7.652   5.270  0.0025  0.4811 -0.2586
  479MOL0     C64571   7.680   7.651   5.317 -0.7810  0.3399  0.4793
  479MOL0     C64572   7.671   7.688   5.461  0.7700  0.3233 -0.5375
  479MOL0     C64573   7.648   7.582   5.573  0.5758  0.2604  0.5118
  479MOL0     C64574   7.740   7.602   5.695  1.2164 -0.0598  0.3379
  479MOL0    Cl64575   7.892   7.523   5.666  0.0125 -0.1953 -0.2239
  479MOL0     C64576   8.112   7.192   4.990  0.0647  0.1783  0.1014
  479MOL0     C64577   8.224   7.117   4.981 -0.3344 -0.1835 -0.1092
  479MOL0     O64578   8.408   6.952   5.161  0.5162  0.1904  0.0118
  479MOL0     C64579   8.692   6.991   4.944  0.9447  0.4649  0.1495
  479MOL0     C64580   8.823   6.941   4.920 -0.0410 -0.8596 -0.4062
  479MOL0     N64581   9.132   6.389   5.253  0.2015 -0.1369  1.1451
  479MOL0     N64582   9.037   6.306   5.250 -0.3226 -0.4304 -0.4833
  479MOL0     C64583   7.993   6.756   5.082 -0.8751 -0.1143 -0.1777
  479MOL0     C64584   7.885   6.847   5.070  0.1890  0.4977 -0.2605
  479MOL0     C64585   7.508   7.062   4.897  0.5787  0.5483 -0.2828
  479MOL0     C64586   7.364   7.066   4.910  0.0294  0.0199  0.3314
  479MOL0     C64587   7.303   7.190   4.937 -0.1567 -0.0053  0.2105
  479MOL0     C64588   7.383   7.299   4.937 -0.9745 -0.2237  0.5509
  479MOL0     O64589   7.317   7.422   4.937 -0.6178  0.4555  0.4084
  479MOL0     C64590   7.381   7.552   4.906 -0.0674  0.7122 -0.2583
  479MOL0     C64591   7.433   7.614   5.035 -0.2803 -0.5045 -0.2277
  479MOL0     C64592   7.333   7.681   5.137  0.1259 -0.0703 -0.8747
  479MOL0     C64593   7.313   7.827   5.106 -0.1369  0.0221  0.1136
  479MOL0     C64594   7.437   7.899   5.121  0.1486 -0.0002 -0.8439
  479MOL0     C64595   7.551   7.954   5.119  0.3859  0.8160 -0.3449
  479MOL0     C64596   7.520   7.294   4.915 -0.1522  1.3200  0.0748
  479MOL0     C64597   7.584   7.178   4.896  0.5585 -0.1268 -0.8832
  479MOL0     H64598   7.675   6.659   4.899 -0.8176 -3.8170  3.1487
  479MOL0     H64599   7.847   6.502   4.931 -1.3502  1.1089 -2.3823
  479MOL0     H64600   8.098   6.376   4.911  1.4071 -1.0813  1.7692
  479MOL0     H64601   8.102   6.538   4.827  3.4629  1.1471 -0.9720
  479MOL0     H64602   8.313   6.490   4.804  0.6778 -0.0145  0.4107
  479MOL0     H64603   8.331   6.579   4.949 -2.9977 -0.0081  1.6460
  479MOL0     H64604   8.271   6.296   4.997  0.0452  0.2770 -1.0240
  479MOL0     H64605   8.424   6.332   4.904  1.5800 -0.2712  0.5924
  479MOL0     H64606   8.488   6.468   5.098  0.2979  0.5233  1.4456
  479MOL0     H64607   8.344   6.427   5.189  1.6206  1.0954  0.9995
  479MOL0     H64608   8.410   6.181   5.175  0.4515 -0.6843 -3.2655
  479MOL0     H64609   8.544   6.217   5.091 -0.4085 -0.3830  0.3113
  479MOL0     H64610   8.499   6.369   5.348 -1.7206 -1.1222 -0.9756
  479MOL0     H64611   8.574   6.210   5.352  0.8322  1.2919  1.5651
  479MOL0     H64612   8.729   6.369   5.169  0.0103 -3.0598 -0.2804
  479MOL0     H64613   8.705   6.474   5.307  0.7425  0.5887 -1.5255
  479MOL0     H64614   8.823   6.189   5.301  0.5899 -0.2691 -0.5254
  479MOL0     H64615   8.796   6.284   5.446  1.2853  0.0670  0.3192
  479MOL0     H64616   8.936   6.571   5.433 -1.4194 -2.0772  1.1180
  479MOL0     H64617   9.132   6.688   5.411 -2.6821 -3.5653 -1.1867
  479MOL0     H64618   9.274   6.577   5.426 -0.8831 -2.9964 -0.0435
  479MOL0     H64619   9.305   6.602   5.179  3.3419  1.2837  0.0492
  479MOL0     H64620   9.335   6.761   5.270 -1.8165  1.1718  0.1311
  479MOL0     H64621   9.228   6.845   5.086  1.0194  0.2036  0.8578
  479MOL0     H64622   9.102   6.823   5.214 -4.6366 -0.8600 -3.1107
  479MOL0     H64623   9.008   6.634   5.105  3.3879 -0.7967  1.8417
  479MOL0     H64624   9.153   6.638   4.992  1.7426  0.9279  1.5118
  479MOL0     H64625   8.835   6.710   5.169  3.3642  0.7283 -0.3091
  479MOL0     H64626   8.578   6.869   5.325  2.0944  1.6481 -1.0269
  479MOL0     H64627   8.513   6.732   5.235 -0.6279 -0.8592  4.3633
  479MOL0     H64628   8.658   6.717   5.326  1.4947 -1.4867 -0.9777
  479MOL0     H64629   8.446   7.349   5.047 -0.3486  0.1799  0.6645
  479MOL0     H64630   8.226   7.491   5.069 -1.8244  0.7467 -3.8248
  479MOL0     H64631   8.063   7.554   4.895  0.6008 -1.8353  0.2445
  479MOL0     H64632   7.888   7.519   4.893  0.5210  1.6125 -0.2152
  479MOL0     H64633   8.042   7.621   5.138  1.2690 -0.7770 -1.0718
  479MOL0     H64634   7.966   7.737   5.029 -3.4348  0.4349  1.0358
  479MOL0     H64635   7.785   7.521   5.094  0.7117  2.0454 -3.5816
  479MOL0     H64636   7.742   7.678   5.070 -2.1370 -2.5652 -0.3849
  479MOL0     H64637   7.889   7.590   5.330 -0.5834 -0.5044 -0.6153
  479MOL0     H64638   7.865   7.753   5.274 -1.6508  1.1786  0.2793
  479MOL0     H64639   7.642   7.548   5.309 -0.5693  0.1952  1.2213
  479MOL0     H64640   7.608   7.708   5.258 -0.3295  1.5148  1.0334
  479MOL0     H64641   7.753   7.756   5.489 -3.1059  4.6223  1.8803
  479MOL0     H64642   7.596   7.765   5.481  2.5597  1.5858  2.0165
  479MOL0     H64643   7.651   7.481   5.531 -2.4148 -0.3176  1.4223
  479MOL0     H64644   7.547   7.610   5.604 -0.0521 -1.6543  0.3382
  479MOL0     H64645   7.687   7.562   5.782 -2.0354 -0.1960 -1.5580
  479MOL0     H64646   7.751   7.710   5.710 -0.9245  0.1609  0.5959
  479MOL0     H64647   8.015   7.147   4.970  0.0801  0.7195 -1.2871
  479MOL0     H64648   8.216   7.011   4.958 -2.5854  0.0510 -0.6350
  479MOL0     H64649   8.667   7.075   4.880  3.1594  2.2532  1.4582
  479MOL0     H64650   8.881   6.987   4.840  0.0805 -2.7562 -1.4617
  479MOL0     H64651   8.087   6.780   5.132  2.2902  2.0009 -6.1225
  479MOL0     H64652   7.894   6.949   5.103 -1.2344  0.2338  1.0507
  479MOL0     H64653   7.313   6.970   4.907 -1.3529  0.7645 -1.2491
  479MOL0     H64654   7.195   7.199   4.942 -0.4659  2.1654 -4.8077
  479MOL0     H64655   7.458   7.538   4.829 -0.8455  0.1636 -0.9554
  479MOL0     H64656   7.308   7.620   4.862 -0.4320  0.6236  0.1958
  479MOL0     H64657   7.504   7.691   5.003  1.9123 -1.5092  1.8839
  479MOL0     H64658   7.493   7.536   5.083 -0.8173 -0.9955 -0.3438
  479MOL0     H64659   7.365   7.667   5.241  3.0215 -1.5749 -1.8325
  479MOL0     H64660   7.237   7.632   5.123 -0.5947  1.5324 -1.8423
  479MOL0     H64661   7.242   7.870   5.178  2.1736  0.1688  2.4700
  479MOL0     H64662   7.284   7.849   5.003  3.2960 -0.1020 -1.0036
  479MOL0     H64663   7.643   8.009   5.122  1.2325 -0.5761  0.3053
  479MOL0     H64664   7.582   7.384   4.917  2.8544 -0.6263  0.7930
  479MOL0     H64665   7.692   7.169   4.888  1.0715  0.9659  2.9456
  480MOL0     O64666   9.382   0.158   8.944  0.0362 -0.6963  0.3959
  480MOL0     C64667   9.430   0.217   9.037 -0.5365 -0.7371 -0.1787
  480MOL0     O64668   9.364   0.250   9.158  0.1654  0.3441  0.0947
  480MOL0     C64669   9.237   0.227   9.181  0.6178 -0.5634 -0.4312
  480MOL0     C64670   9.211   0.173   9.308 -0.6054 -0.1802  0.5219
  480MOL0     C64671   9.083   0.137   9.342 -0.1116  0.7230 -0.0758
  480MOL0     C64672   8.975   0.168   9.270  0.4078 -0.9818  0.0815
  480MOL0     O64673   8.855   0.114   9.313 -0.3931  0.9614 -0.0731
  480MOL0     C64674   8.752   0.089   9.219 -0.8140  0.4855 -0.7491
  480MOL0     C64675   8.629   0.038   9.290  0.4606 -0.0297  0.4018
  480MOL0     C64676   8.568   0.145   9.389 -0.4533  0.0982  0.1311
  480MOL0     C64677   8.435   0.095   9.452  1.2795  0.0187 -1.2105
  480MOL0     C64678   8.348   0.195   9.535 -0.6284 -0.3255 -0.5004
  480MOL0     C64679   8.248   0.272   9.456 -0.4131 -0.1049 -0.4607
  480MOL0     C64680   8.131   0.340   9.535 -0.1742  0.1036 -0.6273
  480MOL0     C64681   8.182   0.420   9.659  0.1904 -0.2057  0.5471
  480MOL0     N64682   8.073   0.489   9.727  0.3574 -0.7374  0.1752
  480MOL0     C64683   8.062   0.622   9.712  0.4903 -0.0693  0.2632
  480MOL0     C64684   7.989   0.657   9.822 -0.2410 -0.2129  0.3405
  480MOL0     C64685   7.953   0.804   9.860  0.4611  0.9726  0.4312
  480MOL0     C64686   8.008   0.835   9.993 -0.5234  0.1675 -0.7694
  480MOL0     C64687   8.033   0.979  10.027  0.1245  0.1565 -0.2405
  480MOL0     C64688   7.901   1.057  10.064 -0.6396  0.3485  0.2274
  480MOL0     O64689   7.841   1.019  10.189  0.5161  0.4799  0.1137
  480MOL0     C64690   7.712   1.058  10.220 -0.3999  0.0787 -0.2596
  480MOL0     C64691   7.662   1.019  10.347  0.9621  0.0443 -1.0597
  480MOL0     C64692   7.528   1.047  10.395 -1.0383 -0.6618 -0.2822
  480MOL0     C64693   7.491   0.994  10.537  0.8120 -0.6121  0.3919
  480MOL0     C64694   7.438   1.116  10.303 -0.0578 -0.5930 -0.7154
  480MOL0     C64695   7.293   1.146  10.335 -0.2915 -0.2980 -0.0251
  480MOL0     O64696   7.242   1.234  10.245  0.5929 -0.5780  0.0109
  480MOL0     C64697   7.109   1.255  10.214  0.8049  0.3912 -0.4591
  480MOL0     C64698   7.004   1.245  10.314 -0.2893  0.1892 -0.4659
  480MOL0     C64699   6.872   1.272  10.281 -0.3599  0.0662 -0.1593
  480MOL0     C64700   6.836   1.321  10.155 -0.0024 -0.4444 -0.6521
  480MOL0     O64701   6.703   1.353  10.127 -0.6131  0.1082 -0.7159
  480MOL0     C64702   6.677   1.404   9.995 -0.2076 -0.3267  1.2069
  480MOL0     C64703   6.525   1.423   9.978 -0.9522  0.2825  0.1750
  480MOL0     C64704   6.495   1.515   9.859 -0.7334  0.1229  0.1546
  480MOL0     C64705   6.346   1.553   9.873 -0.2454 -0.4197 -0.0449
  480MOL0     C64706   6.290   1.614   9.747  0.6575  0.7223  0.5316
  480MOL0     C64707   6.220   1.511   9.644 -0.5784  0.6135  0.3198
  480MOL0     C64708   6.127   1.592   9.554  0.2200 -0.1357 -0.1411
  480MOL0     C64709   6.059   1.508   9.447  1.1264  0.5598  0.0202
  480MOL0    Cl64710   6.177   1.401   9.349 -0.1994  0.1608 -0.1635
  480MOL0     C64711   6.941   1.334  10.058  0.2345 -0.4352 -0.1223
  480MOL0     C64712   7.074   1.304  10.085  0.3889 -0.5775 -0.8414
  480MOL0     O64713   7.230   1.085  10.420 -0.4847  0.4461 -0.1642
  480MOL0     C64714   7.495   1.157  10.179 -0.2967  0.8138 -0.0504
  480MOL0     C64715   7.625   1.126  10.139 -0.4337 -0.4426 -0.3294
  480MOL0     N64716   7.945   0.541   9.884  0.4248 -0.2694  0.3657
  480MOL0     N64717   7.992   0.445   9.824  0.2501  0.2315  0.9685
  480MOL0     C64718   9.004   0.218   9.141  0.1389 -0.8374  0.2528
  480MOL0     C64719   9.128   0.257   9.095  0.3887 -0.1212  0.7158
  480MOL0     C64720   9.581   0.250   9.033  0.0813 -0.0238  0.0100
  480MOL0     C64721   9.661   0.209   8.932 -0.5724  1.1072  0.1617
  480MOL0     C64722   9.798   0.243   8.940  1.0117  0.1669  0.0827
  480MOL0     C64723   9.844   0.338   9.036 -0.6121  0.6805  0.5761
  480MOL0     O64724   9.976   0.378   9.042 -0.1573 -0.2639  0.0105
  480MOL0     C64725  10.058   0.353   8.922  0.2771  1.5255  0.0064
  480MOL0     C64726  10.124   0.221   8.954 -0.3288  1.0864 -0.1813
  480MOL0     C64727  10.229   0.178   8.852  0.1714  0.0775  0.7193
  480MOL0     C64728  10.366   0.216   8.898  0.2285  0.3292  0.5095
  480MOL0     C64729  10.467   0.190   8.802 -0.4937  0.7914  0.6319
  480MOL0     C64730  10.553   0.164   8.720 -0.5561  0.1163 -0.9145
  480MOL0     C64731   9.756   0.387   9.128 -0.1344 -0.2503  0.6141
  480MOL0     C64732   9.626   0.335   9.129  0.9345  0.2773  0.1529
  480MOL0     H64733   9.290   0.138   9.374  2.7135  0.4844 -2.7750
  480MOL0     H64734   9.066   0.084   9.435 -0.3911  2.1475  0.7253
  480MOL0     H64735   8.722   0.185   9.176 -2.8646 -0.8167 -2.3891
  480MOL0     H64736   8.780   0.015   9.143  0.1026 -0.3564  0.3736
  480MOL0     H64737   8.553   0.014   9.216  0.0272  0.4176  0.6954
  480MOL0     H64738   8.650  -0.057   9.339 -0.8763 -0.8113 -0.5065
  480MOL0     H64739   8.641   0.162   9.469  1.6707  0.0975 -1.7249
  480MOL0     H64740   8.545   0.233   9.328 -2.0316 -0.6059 -0.3432
  480MOL0     H64741   8.370   0.059   9.372  0.5212 -2.1180  0.2983
  480MOL0     H64742   8.450   0.002   9.507 -1.7770 -1.8140 -3.2102
  480MOL0     H64743   8.294   0.139   9.612 -0.3278  0.1224  0.0396
  480MOL0     H64744   8.411   0.269   9.585 -2.9525  1.1659  0.3510
  480MOL0     H64745   8.303   0.345   9.396 -1.8318  1.1360 -0.3070
  480MOL0     H64746   8.201   0.193   9.397 -0.6070 -0.9238  0.7528
  480MOL0     H64747   8.078   0.416   9.478 -1.3157 -2.5858 -3.4506
  480MOL0     H64748   8.063   0.260   9.565  0.0145 -0.6618 -2.1648
  480MOL0     H64749   8.251   0.495   9.620 -1.4802  0.1668 -1.9356
  480MOL0     H64750   8.237   0.358   9.731  3.1268  3.3576  1.7041
  480MOL0     H64751   8.091   0.689   9.631 -2.2132 -0.3888 -1.0765
  480MOL0     H64752   7.989   0.865   9.777 -0.0234 -0.7575 -1.1020
  480MOL0     H64753   7.845   0.798   9.878 -0.2838  0.9708 -3.3097
  480MOL0     H64754   8.102   0.780   9.998 -0.9753 -1.1498 -4.1747
  480MOL0     H64755   7.962   0.782  10.077 -0.5312  1.7827  0.3058
  480MOL0     H64756   8.086   1.023   9.942  0.7907  0.5103  0.3499
  480MOL0     H64757   8.100   0.979  10.113  3.9706 -0.6610 -2.9592
  480MOL0     H64758   7.834   1.056   9.978  3.4989 -2.3056 -3.4203
  480MOL0     H64759   7.926   1.163  10.079  2.4208 -0.4391  1.4630
  480MOL0     H64760   7.724   0.966  10.418  1.9781  1.8836 -0.5139
  480MOL0     H64761   7.445   0.895  10.542 -1.5449  0.3741 -0.1088
  480MOL0     H64762   7.575   0.996  10.607 -1.1314 -0.8943  2.8757
  480MOL0     H64763   7.428   1.073  10.579 -1.5638 -1.4358 -1.4193
  480MOL0     H64764   7.021   1.212  10.416  0.2148  1.9665  0.0641
  480MOL0     H64765   6.794   1.259  10.355 -0.8391  1.1803 -0.4589
  480MOL0     H64766   6.729   1.498   9.975 -1.2139  0.1033  0.5630
  480MOL0     H64767   6.711   1.327   9.925 -1.7041 -2.2550  2.4774
  480MOL0     H64768   6.473   1.327   9.974 -0.1155 -0.1666 -0.1411
  480MOL0     H64769   6.504   1.473  10.073  1.1085  2.3810 -0.4039
  480MOL0     H64770   6.519   1.468   9.763  3.9319  0.0248  1.1333
  480MOL0     H64771   6.557   1.606   9.852 -1.2478  0.7039  2.4410
  480MOL0     H64772   6.284   1.466   9.894 -0.8667 -0.0139 -0.1680
  480MOL0     H64773   6.337   1.620   9.959 -1.7868 -2.2370  1.2769
  480MOL0     H64774   6.370   1.666   9.694  0.3274  0.3210 -0.3881
  480MOL0     H64775   6.204   1.681   9.761 -0.0099 -0.3286  1.6920
  480MOL0     H64776   6.289   1.444   9.591 -0.5010 -0.8571  2.1909
  480MOL0     H64777   6.151   1.455   9.706 -0.4023  0.4428  0.3629
  480MOL0     H64778   6.178   1.679   9.512  2.1747 -1.7143 -1.1937
  480MOL0     H64779   6.052   1.643   9.616 -3.2707 -0.9079 -3.3646
  480MOL0     H64780   5.997   1.575   9.387  0.2884  3.2306  3.5104
  480MOL0     H64781   5.988   1.436   9.489  0.7156  0.9151 -0.0571
  480MOL0     H64782   6.915   1.362   9.956  1.1183 -1.6912 -0.7222
  480MOL0     H64783   7.157   1.308  10.016 -0.6208  0.3592 -2.0461
  480MOL0     H64784   7.433   1.218  10.116  0.5035 -0.3865 -2.0901
  480MOL0     H64785   7.655   1.150  10.037  0.3015  1.2009  0.2392
  480MOL0     H64786   8.928   0.233   9.064 -0.6152  4.4884  1.6235
  480MOL0     H64787   9.138   0.298   8.995  3.0858  1.4368  1.5270
  480MOL0     H64788   9.620   0.152   8.850  0.1686  2.0270 -0.8677
  480MOL0     H64789   9.866   0.215   8.860  1.4647  0.9816  0.1634
  480MOL0     H64790  10.002   0.358   8.828 -1.5813  1.5195  1.0642
  480MOL0     H64791  10.136   0.429   8.913 -0.8619  2.7325  0.0199
  480MOL0     H64792  10.045   0.145   8.958  0.6453  0.0672  0.1784
  480MOL0     H64793  10.173   0.219   9.052 -0.5242 -4.8440  0.1953
  480MOL0     H64794  10.204   0.225   8.757 -2.7119 -0.6979  0.9902
  480MOL0     H64795  10.229   0.068   8.848 -1.1805  0.0781 -0.0952
  480MOL0     H64796  10.391   0.162   8.991 -1.7865 -0.5270  0.6119
  480MOL0     H64797  10.373   0.323   8.919  1.9817  0.2434  0.5326
  480MOL0     H64798  10.630   0.154   8.647  0.9387 -0.4264  0.6583
  480MOL0     H64799   9.796   0.465   9.193  0.8700 -0.3264  0.1119
  480MOL0     H64800   9.558   0.383   9.199  2.7688  1.9384  0.8865
  481MOL0     O64801   1.124   9.499   3.362  0.2291 -0.2906 -0.3274
  481MOL0     C64802   1.088   9.615   3.341  1.2029  0.2006  0.4102
  481MOL0     O64803   0.965   9.673   3.363  0.4001  0.1759 -0.5062
  481MOL0     C64804   0.851   9.610   3.377  1.0514  0.3505  0.1243
  481MOL0     C64805   0.756   9.688   3.438  0.1880  0.8790 -0.1462
  481MOL0     C64806   0.627   9.629   3.456  0.4091  0.0429  0.1679
  481MOL0     C64807   0.599   9.499   3.411  2.0535 -0.4511 -0.1293
  481MOL0     O64808   0.469   9.443   3.436  0.2037 -0.3487 -0.3260
  481MOL0     C64809   0.424   9.365   3.333 -0.4313 -0.4184  0.9538
  481MOL0     C64810   0.275   9.334   3.339  0.2395 -0.0829  0.4040
  481MOL0     C64811   0.243   9.231   3.448  0.1250  0.0872 -0.9296
  481MOL0     C64812   0.098   9.193   3.415 -0.1276 -0.0308  1.0948
  481MOL0     C64813   0.038   9.093   3.508  0.2397  0.0283 -0.6475
  481MOL0     C64814  -0.011   9.160   3.637 -0.3330 -0.5440 -0.4012
  481MOL0     C64815  -0.073   9.062   3.737  0.1045  0.1978  0.6829
  481MOL0     C64816  -0.229   9.078   3.745 -0.5810 -0.4153  0.9667
  481MOL0     N64817  -0.278   9.011   3.870  0.8380  0.2013  0.3895
  481MOL0     C64818  -0.388   8.925   3.880 -0.2682  0.1271  0.2033
  481MOL0     C64819  -0.422   8.913   4.010 -0.0836 -0.7249 -0.1016
  481MOL0     C64820  -0.540   8.849   4.079 -0.0477 -0.3259  1.1710
  481MOL0     C64821  -0.525   8.696   4.079 -0.6465  1.0433  0.0427
  481MOL0     C64822  -0.636   8.628   4.162  0.6812  0.4323 -0.1461
  481MOL0     C64823  -0.777   8.663   4.118 -0.2789 -0.1167  0.1224
  481MOL0     O64824  -0.821   8.784   4.175  0.1931  0.3723  0.5240
  481MOL0     C64825  -0.950   8.820   4.138  0.3264  0.4775 -0.1241
  481MOL0     C64826  -1.025   8.771   4.037  0.8590  0.4307  0.2076
  481MOL0     C64827  -1.164   8.814   4.021 -0.2928  0.7483  0.6576
  481MOL0     C64828  -1.239   8.761   3.896 -1.9090  0.4556  0.0694
  481MOL0     C64829  -1.226   8.899   4.123  0.2649 -0.4808  0.7255
  481MOL0     C64830  -1.364   8.947   4.116  0.3680 -0.3324  0.0790
  481MOL0     O64831  -1.417   8.973   4.244  0.4906 -0.3982 -0.1186
  481MOL0     C64832  -1.550   9.002   4.270  0.5360  0.4280 -0.2059
  481MOL0     C64833  -1.563   9.059   4.401  0.1643  1.7809  0.4600
  481MOL0     C64834  -1.698   9.099   4.432 -0.5498  0.1275 -0.7016
  481MOL0     C64835  -1.804   9.102   4.343 -0.2565 -0.6162  0.1224
  481MOL0     O64836  -1.915   9.162   4.400 -0.5960  0.2174 -0.2306
  481MOL0     C64837  -2.003   9.230   4.307 -0.1177  0.8999 -0.1500
  481MOL0     C64838  -2.084   9.337   4.371 -0.5936 -0.2654  0.1926
  481MOL0     C64839  -1.992   9.451   4.411  0.2230 -0.1678 -0.2532
  481MOL0     C64840  -1.925   9.518   4.290 -1.1213  0.5793 -0.8427
  481MOL0     C64841  -1.914   9.668   4.312  0.5705  0.9932  0.6809
  481MOL0     C64842  -1.828   9.709   4.435 -0.4758  0.0945 -0.8659
  481MOL0     C64843  -1.674   9.668   4.415  0.0670 -0.4831 -0.2399
  481MOL0     C64844  -1.572   9.739   4.520 -0.3295 -0.6015  0.5258
  481MOL0    Cl64845  -1.515   9.891   4.471  0.1392  0.0223  0.1180
  481MOL0     C64846  -1.781   9.039   4.218  0.1895 -0.3263 -0.4363
  481MOL0     C64847  -1.657   8.992   4.177 -0.5897  0.3784 -0.5498
  481MOL0     O64848  -1.424   8.947   4.009  0.0505 -0.9930  0.3552
  481MOL0     C64849  -1.141   8.957   4.218  0.6052 -0.2566  0.0330
  481MOL0     C64850  -1.012   8.920   4.223 -0.2773 -0.0741  0.4244
  481MOL0     N64851  -0.338   8.997   4.082 -0.2340  0.6209 -0.0671
  481MOL0     N64852  -0.252   9.044   3.997 -0.4449  0.5041  0.0499
  481MOL0     C64853   0.703   9.422   3.345  0.4786  1.1218 -0.8930
  481MOL0     C64854   0.824   9.482   3.325 -0.7430 -0.4109  0.2032
  481MOL0     C64855   1.188   9.716   3.301 -1.6237  0.3309  0.1723
  481MOL0     C64856   1.311   9.674   3.246 -0.1118  0.9860  0.4139
  481MOL0     C64857   1.400   9.765   3.204  0.4292 -0.5724 -0.2723
  481MOL0     C64858   1.384   9.907   3.229  0.1853 -1.0840 -0.2899
  481MOL0     O64859   1.464  10.019   3.197  0.1381 -0.0734 -0.0658
  481MOL0     C64860   1.600   9.990   3.164 -0.1718 -0.6389 -0.6412
  481MOL0     C64861   1.670  10.124   3.180 -0.0419 -0.3730 -0.0603
  481MOL0     C64862   1.825  10.123   3.176  0.0507  0.1121  0.5736
  481MOL0     C64863   1.876  10.265   3.199 -0.2258 -1.1369  0.1259
  481MOL0     C64864   1.965  10.306   3.090 -0.5035  0.5519  0.3894
  481MOL0     C64865   2.030  10.346   2.994 -0.0950 -0.0550  1.0745
  481MOL0     C64866   1.272   9.942   3.302  0.9581  0.1990 -0.2857
  481MOL0     C64867   1.178   9.850   3.343  0.3864  0.2537 -0.4329
  481MOL0     H64868   0.754   9.779   3.498 -2.2437 -1.1763  3.3013
  481MOL0     H64869   0.547   9.681   3.509  1.7478  1.1242  1.2212
  481MOL0     H64870   0.454   9.409   3.237 -1.7814  1.5856  1.3908
  481MOL0     H64871   0.476   9.269   3.341  0.7266  0.2215  1.4260
  481MOL0     H64872   0.220   9.426   3.362  1.1194  0.3838  0.6958
  481MOL0     H64873   0.232   9.307   3.243 -0.0387 -1.5148  0.9000
  481MOL0     H64874   0.306   9.142   3.438  1.1302  0.3873  1.9036
  481MOL0     H64875   0.267   9.275   3.545 -1.4321  2.2259 -1.4493
  481MOL0     H64876   0.031   9.276   3.390  0.7450 -0.2462 -2.4006
  481MOL0     H64877   0.106   9.144   3.318  2.0382  1.0514  0.6684
  481MOL0     H64878  -0.044   9.047   3.452  2.3776 -1.4458 -2.7702
  481MOL0     H64879   0.107   9.013   3.538  1.2295  0.9464 -0.3923
  481MOL0     H64880   0.076   9.206   3.683 -0.7779  0.4583 -0.5377
  481MOL0     H64881  -0.077   9.245   3.616 -1.5093 -0.8736  1.6449
  481MOL0     H64882  -0.058   8.956   3.716 -0.7805 -0.4748  3.0646
  481MOL0     H64883  -0.029   9.079   3.836 -0.4761 -1.3380  1.2431
  481MOL0     H64884  -0.258   9.025   3.654  3.0275  1.7531 -1.7436
  481MOL0     H64885  -0.271   9.179   3.746 -3.7360 -1.6429  1.8657
  481MOL0     H64886  -0.441   8.877   3.798 -1.3246 -0.3767  1.1625
  481MOL0     H64887  -0.546   8.880   4.183 -3.7234 -3.0243  1.9372
  481MOL0     H64888  -0.632   8.879   4.028  0.4915 -0.7479 -0.1126
  481MOL0     H64889  -0.427   8.668   4.118  0.5244 -1.2744 -3.9808
  481MOL0     H64890  -0.523   8.655   3.977 -0.1570  2.1135 -0.3929
  481MOL0     H64891  -0.628   8.668   4.263  1.2329 -0.6695  0.2626
  481MOL0     H64892  -0.622   8.520   4.171 -0.1482  0.4329  1.6124
  481MOL0     H64893  -0.838   8.582   4.159  1.3597 -1.0447  0.8340
  481MOL0     H64894  -0.779   8.661   4.009  1.8165  1.1277  0.0071
  481MOL0     H64895  -0.983   8.701   3.966  2.7214  0.6392  1.0446
  481MOL0     H64896  -1.182   8.675   3.861 -1.7285 -0.2900  2.0613
  481MOL0     H64897  -1.336   8.722   3.926 -1.1173 -0.0021  2.2513
  481MOL0     H64898  -1.250   8.840   3.820 -2.1756 -0.2235 -0.6047
  481MOL0     H64899  -1.479   9.061   4.470  0.8116 -0.6084 -0.1622
  481MOL0     H64900  -1.710   9.113   4.539 -0.6081 -0.4366 -0.6305
  481MOL0     H64901  -1.929   9.269   4.236  4.0642 -2.8879  1.6250
  481MOL0     H64902  -2.072   9.156   4.266 -1.7731 -0.8511  4.9876
  481MOL0     H64903  -2.158   9.382   4.305  0.3768  0.8342 -0.1877
  481MOL0     H64904  -2.138   9.297   4.457  0.1476  0.4540  1.0230
  481MOL0     H64905  -1.915   9.426   4.483  0.6209  1.5321 -0.0626
  481MOL0     H64906  -2.059   9.519   4.464  0.9589 -1.9364  3.2648
  481MOL0     H64907  -1.826   9.471   4.284 -0.3459  1.9828  0.0992
  481MOL0     H64908  -1.979   9.507   4.196 -1.0343 -0.8505 -0.7446
  481MOL0     H64909  -2.014   9.712   4.318 -0.5974 -1.2256 -0.8645
  481MOL0     H64910  -1.865   9.718   4.228  0.4051  2.2429  1.3127
  481MOL0     H64911  -1.832   9.817   4.445  0.9991  0.0995  0.1385
  481MOL0     H64912  -1.862   9.663   4.528 -1.4796  0.6807 -0.9320
  481MOL0     H64913  -1.634   9.687   4.314 -0.8801  1.8284 -0.2555
  481MOL0     H64914  -1.666   9.560   4.426 -2.0421 -0.7613 -1.0656
  481MOL0     H64915  -1.480   9.682   4.534  0.7360  0.3912 -1.9644
  481MOL0     H64916  -1.632   9.740   4.611  0.3359 -0.6828  0.9694
  481MOL0     H64917  -1.857   9.025   4.141  3.7874 -2.5101 -3.9469
  481MOL0     H64918  -1.647   8.967   4.072 -3.5252 -5.9538  0.1921
  481MOL0     H64919  -1.181   9.026   4.291  0.9786 -3.0963  3.1257
  481MOL0     H64920  -0.955   8.978   4.294 -2.1806  0.4193  1.6508
  481MOL0     H64921   0.696   9.323   3.301 -0.9253  0.5604  0.4994
  481MOL0     H64922   0.891   9.414   3.275 -1.8565  0.5154 -2.7354
  481MOL0     H64923   1.330   9.572   3.213 -4.0775  0.3699 -0.4038
  481MOL0     H64924   1.487   9.749   3.142  1.9211 -1.3938  1.8832
  481MOL0     H64925   1.643   9.909   3.224  1.6389 -0.7903 -2.0794
  481MOL0     H64926   1.607   9.961   3.059  1.3712  0.4072 -0.8636
  481MOL0     H64927   1.641  10.172   3.275  0.5642 -2.0459  1.0163
  481MOL0     H64928   1.636  10.190   3.100 -3.9692 -1.0376  0.8424
  481MOL0     H64929   1.863  10.086   3.081 -1.7844 -1.0085  0.2210
  481MOL0     H64930   1.869  10.058   3.252  0.3267 -3.0385 -2.0912
  481MOL0     H64931   1.925  10.277   3.296 -0.1426  2.7303 -0.2722
  481MOL0     H64932   1.791  10.333   3.204  0.5288 -0.0273 -1.3637
  481MOL0     H64933   2.076  10.396   2.911 -1.7752 -1.1589 -0.6068
  481MOL0     H64934   1.266  10.044   3.339 -1.6325 -0.3318  1.0347
  481MOL0     H64935   1.095   9.878   3.406  0.4215 -0.0028 -0.2698
  482MOL0     O64936   1.884   2.345   2.573  0.3484  0.1401  0.5995
  482MOL0     C64937   1.947   2.259   2.516 -0.3489  0.1260  0.7911
  482MOL0     O64938   1.955   2.231   2.383 -0.0683  0.3124  0.0074
  482MOL0     C64939   1.892   2.301   2.275  0.0619 -0.4360 -0.4628
  482MOL0     C64940   1.805   2.412   2.284 -0.1114  0.2305  0.9078
  482MOL0     C64941   1.737   2.464   2.171  0.0743 -0.0956  0.7528
  482MOL0     C64942   1.754   2.408   2.049 -0.0429  0.7959  0.9812
  482MOL0     O64943   1.689   2.463   1.944  0.7999  0.0720 -0.0265
  482MOL0     C64944   1.670   2.397   1.820  1.2516 -0.2165 -0.2770
  482MOL0     C64945   1.544   2.452   1.739  0.0659  0.8248  0.0317
  482MOL0     C64946   1.496   2.353   1.639 -1.0751  0.2427  0.1122
  482MOL0     C64947   1.370   2.406   1.575 -0.3310  1.3875  0.2609
  482MOL0     C64948   1.304   2.302   1.476 -0.1752  0.3207 -0.9340
  482MOL0     C64949   1.178   2.344   1.409  0.1056  0.2555 -0.1996
  482MOL0     C64950   1.157   2.244   1.288 -0.2262 -0.9714  0.1197
  482MOL0     C64951   1.015   2.273   1.232 -0.3082 -0.7482  0.2128
  482MOL0     N64952   0.986   2.202   1.103 -0.2634 -0.6012  0.2933
  482MOL0     C64953   1.038   2.231   0.980  0.2218 -0.8761 -0.1636
  482MOL0     C64954   0.954   2.160   0.903 -0.0230 -0.9603  0.2241
  482MOL0     C64955   0.966   2.167   0.754  0.1325  1.1963  0.3928
  482MOL0     C64956   0.870   2.059   0.686 -0.1795 -0.1147 -1.1641
  482MOL0     C64957   0.913   2.060   0.532  0.3280  0.4965 -0.5207
  482MOL0     C64958   0.833   1.973   0.444 -0.4000  0.0692  1.0216
  482MOL0     O64959   0.696   2.023   0.448  0.1787 -0.3240  0.1000
  482MOL0     C64960   0.642   2.096   0.333  0.4426  0.6824  0.2644
  482MOL0     C64961   0.716   2.140   0.221 -0.1839 -0.4182  0.3364
  482MOL0     C64962   0.657   2.219   0.120  0.2938  0.0935  0.2785
  482MOL0     C64963   0.740   2.268   0.011 -0.1773  0.1651  0.2568
  482MOL0     C64964   0.515   2.219   0.113  0.7173  0.7896 -0.3027
  482MOL0     C64965   0.436   2.277  -0.001 -0.3733  0.9279 -0.8233
  482MOL0     O64966   0.310   2.262   0.013  0.2928 -0.0303  0.1658
  482MOL0     C64967   0.243   2.307  -0.100  0.0102  0.1231 -0.2426
  482MOL0     C64968   0.235   2.441  -0.131  1.3754 -0.6791 -0.3618
  482MOL0     C64969   0.146   2.479  -0.241 -0.1888  0.1088  0.6799
  482MOL0     C64970   0.078   2.380  -0.319 -0.2348 -0.2349  0.4484
  482MOL0     O64971   0.005   2.418  -0.427  0.4255  0.3880 -0.6406
  482MOL0     C64972  -0.051   2.548  -0.442  0.0985 -0.3914 -0.0521
  482MOL0     C64973  -0.207   2.512  -0.459  0.0683 -0.1595 -0.5619
  482MOL0     C64974  -0.270   2.642  -0.523 -0.6868  0.6500  0.2682
  482MOL0     C64975  -0.404   2.617  -0.581 -0.0367  0.6196  0.4431
  482MOL0     C64976  -0.472   2.742  -0.624 -0.1478  0.4976 -0.2364
  482MOL0     C64977  -0.606   2.698  -0.690  0.1875  0.3909  0.7453
  482MOL0     C64978  -0.660   2.812  -0.779 -0.3856  0.9671 -1.1167
  482MOL0     C64979  -0.724   2.932  -0.706 -0.2371  0.5626  0.8441
  482MOL0    Cl64980  -0.876   2.877  -0.631 -0.0102 -0.1336 -0.0767
  482MOL0     C64981   0.088   2.250  -0.278  0.0217 -1.1939 -0.5043
  482MOL0     C64982   0.170   2.213  -0.168  0.3335 -0.0790 -0.0840
  482MOL0     O64983   0.496   2.325  -0.100  1.2302 -0.2427  0.1961
  482MOL0     C64984   0.441   2.167   0.226 -0.2997  0.7795 -1.1750
  482MOL0     C64985   0.502   2.117   0.338  0.2155 -0.0396  0.1127
  482MOL0     N64986   0.873   2.081   0.981  0.6583  0.3734 -0.3528
  482MOL0     N64987   0.892   2.110   1.104 -0.0437  0.1690  0.0313
  482MOL0     C64988   1.834   2.295   2.034 -0.7369  0.0884 -0.5630
  482MOL0     C64989   1.904   2.251   2.143  0.8237  0.6464 -1.1235
  482MOL0     C64990   2.017   2.166   2.609 -0.8987  0.0349  0.0789
  482MOL0     C64991   2.131   2.098   2.561 -0.0476  0.1489  0.4722
  482MOL0     C64992   2.185   1.999   2.642  0.4119 -1.1411  0.6667
  482MOL0     C64993   2.136   1.978   2.772 -0.0729  0.0267 -0.0060
  482MOL0     O64994   2.199   1.867   2.847  0.3002  0.0582 -0.4680
  482MOL0     C64995   2.151   1.833   2.984 -0.3814 -0.1401  0.1527
  482MOL0     C64996   2.188   1.936   3.090 -0.5601  0.0102 -1.2403
  482MOL0     C64997   2.118   1.903   3.231 -0.6085  0.2278  0.8129
  482MOL0     C64998   2.129   2.012   3.334 -0.0104 -0.8929  0.3713
  482MOL0     C64999   2.050   2.138   3.302 -0.2972 -0.4537  0.2362
  482MOL0     C65000   1.998   2.244   3.277  0.3892 -0.8483 -0.3593
  482MOL0     C65001   2.037   2.065   2.825 -0.3729  0.5058 -0.5533
  482MOL0     C65002   1.969   2.147   2.744 -0.6059 -0.0622 -0.0815
  482MOL0     H65003   1.784   2.464   2.377 -2.1711 -0.6223  0.9772
  482MOL0     H65004   1.684   2.558   2.184 -0.4874 -0.1902 -0.6495
  482MOL0     H65005   1.761   2.410   1.760  0.8346  1.3786 -0.6065
  482MOL0     H65006   1.658   2.288   1.829  0.3528  0.0226  2.4284
  482MOL0     H65007   1.459   2.477   1.804 -1.2892 -0.7360 -1.0493
  482MOL0     H65008   1.574   2.543   1.685  2.0907 -0.7970 -1.7735
  482MOL0     H65009   1.575   2.327   1.569 -2.5547 -0.3231 -1.4217
  482MOL0     H65010   1.459   2.259   1.682 -0.3584 -0.3627 -0.5636
  482MOL0     H65011   1.301   2.431   1.656 -0.4302  0.3342  0.5086
  482MOL0     H65012   1.395   2.499   1.522 -0.3999  1.5243  0.4667
  482MOL0     H65013   1.374   2.265   1.400 -1.5649 -1.2306 -1.5311
  482MOL0     H65014   1.283   2.221   1.546 -3.5785  1.5833 -0.2629
  482MOL0     H65015   1.095   2.336   1.479  0.6922  1.8876  0.7128
  482MOL0     H65016   1.174   2.450   1.383 -4.3955 -0.2268 -2.3728
  482MOL0     H65017   1.241   2.258   1.219 -0.3541 -3.0855 -0.5200
  482MOL0     H65018   1.169   2.143   1.327  1.3233 -0.7852  0.1637
  482MOL0     H65019   1.006   2.379   1.203  1.6715  0.1878  2.6038
  482MOL0     H65020   0.939   2.248   1.306  0.7964 -2.3577  0.8507
  482MOL0     H65021   1.125   2.289   0.952 -0.1112  0.5825  1.6874
  482MOL0     H65022   0.952   2.266   0.709 -1.1075  0.2856 -1.3164
  482MOL0     H65023   1.069   2.142   0.728  0.7833  1.3774  2.5393
  482MOL0     H65024   0.767   2.093   0.689  0.1906  0.9568  0.3437
  482MOL0     H65025   0.880   1.958   0.726 -2.6717  0.0284  0.0013
  482MOL0     H65026   1.018   2.031   0.523 -0.1177 -1.1779 -0.6091
  482MOL0     H65027   0.911   2.160   0.487 -0.1537 -0.2607 -2.2798
  482MOL0     H65028   0.831   1.870   0.480  1.0813 -2.0706 -4.1156
  482MOL0     H65029   0.867   1.962   0.340  0.0674  0.5244  1.1212
  482MOL0     H65030   0.824   2.126   0.216  0.6266  4.5192 -1.3784
  482MOL0     H65031   0.710   2.358  -0.043  0.8390  0.8635  0.8328
  482MOL0     H65032   0.836   2.299   0.051  0.1552 -2.1734  1.4645
  482MOL0     H65033   0.748   2.188  -0.064 -2.2693  0.3287 -0.2048
  482MOL0     H65034   0.288   2.515  -0.071 -0.3458  1.2923 -1.1796
  482MOL0     H65035   0.133   2.586  -0.239  1.8713  0.4193 -0.1425
  482MOL0     H65036  -0.044   2.610  -0.352 -0.1360 -1.0966  0.4528
  482MOL0     H65037  -0.010   2.601  -0.529  1.5785 -0.3370  0.6622
  482MOL0     H65038  -0.230   2.430  -0.528 -2.1530 -1.0111  1.0637
  482MOL0     H65039  -0.250   2.490  -0.361 -0.1246  0.1687 -0.5725
  482MOL0     H65040  -0.203   2.661  -0.607 -0.2604  0.7183  0.6206
  482MOL0     H65041  -0.274   2.722  -0.448 -1.4483  0.3863  0.5204
  482MOL0     H65042  -0.392   2.537  -0.656 -1.7459 -0.8487  1.6447
  482MOL0     H65043  -0.469   2.577  -0.503  0.0839  1.9570  1.2607
  482MOL0     H65044  -0.408   2.801  -0.689  3.4320 -0.9330  1.6987
  482MOL0     H65045  -0.493   2.803  -0.536 -2.0948  1.0699 -1.0444
  482MOL0     H65046  -0.578   2.613  -0.753  4.8842  1.9638  0.3066
  482MOL0     H65047  -0.691   2.690  -0.622 -1.4099  2.7385 -0.8299
  482MOL0     H65048  -0.723   2.778  -0.861  3.0904 -0.1732 -3.5304
  482MOL0     H65049  -0.568   2.846  -0.828  0.7047  0.8109  0.7355
  482MOL0     H65050  -0.744   3.009  -0.781  1.0506  0.9001  0.8318
  482MOL0     H65051  -0.661   2.979  -0.630  1.4138 -2.3946  1.4534
  482MOL0     H65052   0.016   2.176  -0.312 -2.1311  0.5200  0.1172
  482MOL0     H65053   0.170   2.105  -0.160  0.5450 -0.0632  0.1740
  482MOL0     H65054   0.334   2.186   0.222 -0.1554  2.2682  0.7469
  482MOL0     H65055   0.442   2.080   0.420 -0.7344  1.0116 -0.0969
  482MOL0     H65056   1.852   2.249   1.937  2.2477  1.4797 -0.7757
  482MOL0     H65057   1.971   2.166   2.141 -1.0936 -1.0617  1.5678
  482MOL0     H65058   2.172   2.114   2.461  1.9875  1.5097  1.4683
  482MOL0     H65059   2.257   1.934   2.595 -0.7422 -0.6973 -1.8445
  482MOL0     H65060   2.043   1.824   2.972 -0.2369 -0.0789 -1.5172
  482MOL0     H65061   2.187   1.734   3.010 -1.2797 -0.7369 -0.7719
  482MOL0     H65062   2.154   2.034   3.057  1.5011  0.9706 -0.6934
  482MOL0     H65063   2.296   1.944   3.102 -0.8618  0.4936  1.8404
  482MOL0     H65064   2.158   1.810   3.273  2.5770  1.7936  1.5416
  482MOL0     H65065   2.011   1.883   3.218 -0.2407 -0.7916 -1.1354
  482MOL0     H65066   2.235   2.034   3.349  0.3636 -3.6626  2.5040
  482MOL0     H65067   2.092   1.972   3.429  0.8690 -3.3868 -0.2837
  482MOL0     H65068   1.944   2.332   3.250  4.1139  1.6834 -0.4102
  482MOL0     H65069   1.985   2.051   2.919  0.1027 -1.4107 -0.5429
  482MOL0     H65070   1.876   2.198   2.770 -1.8282 -1.3451 -1.7004
  483MOL0     O65071  10.504   7.579  10.403 -0.3992 -0.1828  0.8973
  483MOL0     C65072  10.497   7.460  10.364 -0.0710 -0.1091 -0.7143
  483MOL0     O65073  10.408   7.365  10.412  0.7486  0.0744  0.0309
  483MOL0     C65074  10.317   7.402  10.510 -0.1790 -0.4479  0.5566
  483MOL0     C65075  10.231   7.507  10.499  0.1533 -0.2756 -0.2456
  483MOL0     C65076  10.134   7.521  10.604 -0.8911 -0.3469 -0.7409
  483MOL0     C65077  10.137   7.440  10.721 -0.0137 -0.3658  0.1432
  483MOL0     O65078  10.042   7.468  10.814 -0.4378 -0.6920  0.0099
  483MOL0     C65079   9.969   7.363  10.861  0.5916 -0.0869 -0.2634
  483MOL0     C65080   9.856   7.406  10.959 -0.0309  0.4628 -0.3240
  483MOL0     C65081   9.738   7.470  10.877  0.6168  0.1247  0.8723
  483MOL0     C65082   9.616   7.512  10.962  0.5433  0.2531  0.6833
  483MOL0     C65083   9.528   7.383  10.998 -0.0598 -0.7440 -0.2509
  483MOL0     C65084   9.405   7.423  11.069 -0.2429 -0.3774  0.7506
  483MOL0     C65085   9.348   7.283  11.116 -0.3621 -0.1596 -0.3502
  483MOL0     C65086   9.207   7.294  11.163  0.6875  0.9371  0.1368
  483MOL0     N65087   9.155   7.166  11.217 -0.4434  1.0390  0.3002
  483MOL0     C65088   9.093   7.072  11.146 -0.1357  0.2151 -0.3497
  483MOL0     C65089   9.096   6.959  11.221  1.0821  0.1054 -0.4630
  483MOL0     C65090   9.041   6.831  11.173 -0.3909  0.9517 -1.2927
  483MOL0     C65091   8.889   6.842  11.177  0.2620 -0.3234  0.3384
  483MOL0     C65092   8.830   6.702  11.182 -0.7073  0.5488 -0.5579
  483MOL0     C65093   8.674   6.693  11.194 -0.6867  1.0041 -0.5870
  483MOL0     O65094   8.629   6.561  11.185  0.6171 -0.0202 -0.4043
  483MOL0     C65095   8.500   6.529  11.193  0.4469 -0.6233 -0.3397
  483MOL0     C65096   8.400   6.614  11.234  1.0618 -0.8235  0.3774
  483MOL0     C65097   8.261   6.590  11.213  0.4114  0.6289 -0.3023
  483MOL0     C65098   8.151   6.679  11.258  1.2168 -0.2334  0.4187
  483MOL0     C65099   8.236   6.462  11.160  0.3624 -0.0236  1.4736
  483MOL0     C65100   8.097   6.403  11.131 -0.3042  0.1503 -0.0653
  483MOL0     O65101   8.062   6.292  11.201 -0.1505  0.6388 -0.6992
  483MOL0     C65102   7.937   6.242  11.210  0.3772 -0.3234  0.2241
  483MOL0     C65103   7.924   6.104  11.214 -0.0031  0.3724  0.6521
  483MOL0     C65104   7.797   6.049  11.234 -0.2641  0.9487 -0.5658
  483MOL0     C65105   7.679   6.129  11.233  0.4177 -0.8703  0.5946
  483MOL0     O65106   7.547   6.094  11.251 -0.0776 -0.2646 -0.5047
  483MOL0     C65107   7.513   5.963  11.299 -0.8193 -0.1177 -0.8748
  483MOL0     C65108   7.364   5.952  11.311 -0.6380  0.7363 -0.1602
  483MOL0     C65109   7.287   5.967  11.183  0.8843  0.2414 -0.2863
  483MOL0     C65110   7.134   5.984  11.215 -0.0644 -0.2276  0.2706
  483MOL0     C65111   7.043   5.958  11.097  0.4865 -0.5764  0.4253
  483MOL0     C65112   6.889   5.975  11.112  0.8066 -0.6785 -0.2806
  483MOL0     C65113   6.813   5.884  11.215 -0.4126 -0.3597 -0.3061
  483MOL0     C65114   6.684   5.941  11.263  0.2106 -0.5112  0.5622
  483MOL0    Cl65115   6.587   5.811  11.338  0.1539  0.5353  0.3831
  483MOL0     C65116   7.691   6.264  11.226 -0.6623 -0.8640 -0.1562
  483MOL0     C65117   7.822   6.318  11.223  0.9396  0.2073 -0.2055
  483MOL0     O65118   8.022   6.467  11.052 -0.3080 -0.3285  1.1112
  483MOL0     C65119   8.342   6.367  11.140 -0.6804  0.5715  0.2595
  483MOL0     C65120   8.472   6.407  11.149 -0.3470 -0.5824 -0.5337
  483MOL0     N65121   9.165   6.995  11.342  0.0835 -0.1314 -0.3836
  483MOL0     N65122   9.199   7.118  11.337  0.7570 -0.5613 -0.8392
  483MOL0     C65123  10.225   7.331  10.725  0.0554 -0.8372  0.3193
  483MOL0     C65124  10.322   7.321  10.622 -0.3517 -0.9270 -0.4866
  483MOL0     C65125  10.583   7.415  10.255  0.4655  0.9509  0.1247
  483MOL0     C65126  10.713   7.468  10.230  1.2461  0.9347  0.3877
  483MOL0     C65127  10.800   7.409  10.138  0.5480  0.2750  0.0152
  483MOL0     C65128  10.752   7.309  10.053 -0.1815  0.1258  0.7000
  483MOL0     O65129  10.818   7.252   9.945 -0.0156  0.0328  0.2110
  483MOL0     C65130  10.959   7.282   9.936 -0.3889 -0.3264  0.7316
  483MOL0     C65131  11.018   7.157   9.863  0.2350 -0.5059 -0.2711
  483MOL0     C65132  11.000   7.169   9.717  0.1741  0.2459  0.8969
  483MOL0     C65133  11.111   7.249   9.641 -0.1072 -0.1357 -0.5224
  483MOL0     C65134  11.069   7.277   9.508  0.5939 -0.2881  0.3995
  483MOL0     C65135  11.039   7.320   9.401 -0.0466 -0.5827  0.0528
  483MOL0     C65136  10.623   7.255  10.071 -0.0054 -0.1899 -0.3139
  483MOL0     C65137  10.544   7.307  10.171  0.0576 -0.3531  0.5889
  483MOL0     H65138  10.230   7.567  10.408  1.2515 -0.3609 -0.3345
  483MOL0     H65139  10.071   7.609  10.601  1.8642  1.7395 -2.9530
  483MOL0     H65140   9.936   7.307  10.773 -3.5542 -0.0055  1.0291
  483MOL0     H65141  10.029   7.298  10.926 -2.9972 -1.5691  1.8768
  483MOL0     H65142   9.815   7.321  11.014  0.2417  0.5509  0.0231
  483MOL0     H65143   9.899   7.477  11.030 -2.2551  2.0861 -0.4899
  483MOL0     H65144   9.777   7.556  10.822  1.8019 -0.9238 -0.0093
  483MOL0     H65145   9.707   7.411  10.790  1.3617 -1.8314  1.8676
  483MOL0     H65146   9.656   7.551  11.056  0.8144  1.7457 -0.0214
  483MOL0     H65147   9.557   7.583  10.903  1.3326 -1.4894 -2.3830
  483MOL0     H65148   9.502   7.323  10.910  0.9895 -3.3255  1.0929
  483MOL0     H65149   9.595   7.324  11.061  0.7200  0.6875  0.2968
  483MOL0     H65150   9.420   7.478  11.163 -0.3943  0.9059  0.0474
  483MOL0     H65151   9.340   7.488  11.010  1.5121  1.6795  0.9248
  483MOL0     H65152   9.348   7.207  11.037 -0.6100  0.0684 -0.5683
  483MOL0     H65153   9.414   7.249  11.196 -0.2013 -1.9986 -1.2029
  483MOL0     H65154   9.133   7.326  11.088 -1.1197 -1.0068  0.9612
  483MOL0     H65155   9.195   7.364  11.246  1.0378  1.8787 -0.5855
  483MOL0     H65156   9.053   7.076  11.045  0.9375 -0.1739 -0.8108
  483MOL0     H65157   9.082   6.811  11.074  0.5128  3.3532 -1.4832
  483MOL0     H65158   9.071   6.754  11.245  0.1093  1.3851 -1.0260
  483MOL0     H65159   8.855   6.897  11.089  2.3371 -1.1069 -1.0283
  483MOL0     H65160   8.852   6.899  11.263  0.0708  0.2418 -0.1132
  483MOL0     H65161   8.867   6.659  11.276 -1.7812 -2.3786 -1.3566
  483MOL0     H65162   8.862   6.644  11.095 -0.0516  0.6535 -0.3881
  483MOL0     H65163   8.635   6.748  11.108 -1.1238 -0.9485 -1.7058
  483MOL0     H65164   8.642   6.739  11.288  1.0551  2.2611 -0.5532
  483MOL0     H65165   8.420   6.708  11.284 -2.2541 -0.7386  1.8234
  483MOL0     H65166   8.101   6.631  11.343 -1.8652  4.5318  1.6966
  483MOL0     H65167   8.194   6.774  11.290 -0.1587  0.8330 -0.7238
  483MOL0     H65168   8.083   6.694  11.174  2.6099  0.5331 -0.6074
  483MOL0     H65169   8.011   6.039  11.206  0.6103  1.3351 -1.0578
  483MOL0     H65170   7.795   5.941  11.242 -0.4949  0.9925 -0.0010
  483MOL0     H65171   7.544   5.892  11.222  0.9277  0.5496 -0.8203
  483MOL0     H65172   7.568   5.942  11.391  1.5086 -1.7061 -2.5190
  483MOL0     H65173   7.341   5.853  11.351  1.5056  0.2093 -0.0665
  483MOL0     H65174   7.341   6.024  11.391  2.7771  1.0185  0.7504
  483MOL0     H65175   7.302   5.882  11.116  2.7832 -0.7568  1.2984
  483MOL0     H65176   7.312   6.065  11.142 -2.5571  1.6678  0.6940
  483MOL0     H65177   7.106   5.923  11.302  1.4538  2.6003  2.9520
  483MOL0     H65178   7.127   6.089  11.248 -1.1460 -0.2554  0.1696
  483MOL0     H65179   7.068   5.858  11.059  1.1927 -0.6602  1.0987
  483MOL0     H65180   7.064   6.031  11.018 -3.5567  2.6751  1.9774
  483MOL0     H65181   6.875   6.079  11.144 -1.1681 -1.0728  0.2834
  483MOL0     H65182   6.835   5.963  11.017 -1.4804 -3.8097  1.2252
  483MOL0     H65183   6.881   5.850  11.294 -1.2305 -2.1593 -0.3293
  483MOL0     H65184   6.782   5.785  11.181 -0.0844 -0.4773 -0.2700
  483MOL0     H65185   6.630   5.979  11.176 -2.2964  2.1990  3.0536
  483MOL0     H65186   6.702   6.024  11.332 -3.4821  2.7974 -1.9796
  483MOL0     H65187   7.614   6.339  11.243  0.8729  1.2613 -1.9459
  483MOL0     H65188   7.839   6.424  11.238  0.9163  0.0032  1.4765
  483MOL0     H65189   8.325   6.266  11.106 -0.1265  0.4784  0.2458
  483MOL0     H65190   8.545   6.337  11.109  1.4756  0.0350  1.5479
  483MOL0     H65191  10.211   7.266  10.811 -1.5334  0.4518  1.0976
  483MOL0     H65192  10.387   7.234  10.624  0.7280 -0.1339  0.5538
  483MOL0     H65193  10.742   7.556  10.286 -0.9124  2.4276 -0.6620
  483MOL0     H65194  10.898   7.455  10.137  0.4766  0.4294  0.0893
  483MOL0     H65195  10.988   7.372   9.880 -0.2454 -1.6048 -1.3851
  483MOL0     H65196  11.005   7.292  10.035 -0.8646  1.3447  0.8055
  483MOL0     H65197  10.963   7.075   9.910  0.5129  0.9067  2.8068
  483MOL0     H65198  11.122   7.149   9.899  1.3441  1.4066 -2.7710
  483MOL0     H65199  10.897   7.201   9.701 -0.6914 -2.0854  1.3108
  483MOL0     H65200  11.002   7.069   9.672  2.2191 -0.5833  2.6285
  483MOL0     H65201  11.207   7.197   9.643 -0.7137 -1.3163 -0.7727
  483MOL0     H65202  11.132   7.342   9.695  0.1807 -1.2961  1.4759
  483MOL0     H65203  11.012   7.369   9.309  0.5406  3.5849  1.8332
  483MOL0     H65204  10.593   7.177  10.002  0.7146  0.6829 -1.6348
  483MOL0     H65205  10.443   7.268  10.174  0.1583 -1.2133 -2.9890
  484MOL0     O65206   8.455   2.967   2.245  0.2439 -0.7284 -0.7505
  484MOL0     C65207   8.467   3.040   2.343  0.7116  0.8529  0.5291
  484MOL0     O65208   8.371   3.085   2.422  0.0935 -0.4710  0.0811
  484MOL0     C65209   8.245   3.061   2.398  0.4935  0.0705 -0.7462
  484MOL0     C65210   8.165   3.023   2.512 -0.1906 -0.6990 -0.6730
  484MOL0     C65211   8.028   2.986   2.503 -0.3024  0.3560  0.8254
  484MOL0     C65212   7.974   2.989   2.374  0.5481  0.0463  0.4053
  484MOL0     O65213   7.845   2.952   2.341 -0.2373 -0.0812 -0.8666
  484MOL0     C65214   7.755   2.937   2.446  1.1296  0.1724 -1.0093
  484MOL0     C65215   7.612   2.953   2.394  0.1630 -0.3727  0.1081
  484MOL0     C65216   7.585   3.094   2.328  0.7333  1.0437 -0.0554
  484MOL0     C65217   7.462   3.092   2.232 -0.4598 -0.1489 -0.7376
  484MOL0     C65218   7.433   3.238   2.189 -0.5697 -0.5812 -0.5592
  484MOL0     C65219   7.335   3.243   2.071  0.6154  1.1832 -0.0983
  484MOL0     C65220   7.324   3.384   2.027  0.4786  0.7745  0.6169
  484MOL0     C65221   7.191   3.414   1.963 -0.8185 -0.2559  0.6570
  484MOL0     N65222   7.144   3.334   1.848 -0.1825  1.1631  0.2114
  484MOL0     C65223   7.201   3.318   1.725 -0.8483 -0.5870  0.3249
  484MOL0     C65224   7.124   3.229   1.660 -0.9565 -0.2231  0.2196
  484MOL0     C65225   7.138   3.174   1.519 -0.5012 -0.4957  0.1157
  484MOL0     C65226   7.235   3.265   1.421 -0.4127  0.0701 -0.3677
  484MOL0     C65227   7.317   3.170   1.322 -1.2991  0.4896  0.1486
  484MOL0     C65228   7.413   3.073   1.396  0.9401  1.6683 -0.1075
  484MOL0     O65229   7.429   3.121   1.535 -0.0658  0.2785  0.4807
  484MOL0     C65230   7.527   3.058   1.602  0.0523  0.1486 -0.3096
  484MOL0     C65231   7.549   3.133   1.715 -0.1195 -0.3773 -0.4549
  484MOL0     C65232   7.651   3.101   1.807  0.4070 -0.8216  0.6940
  484MOL0     C65233   7.683   3.213   1.910  0.0906  0.1978 -0.1706
  484MOL0     C65234   7.732   2.985   1.782  0.6963  0.6132  1.0190
  484MOL0     C65235   7.847   2.954   1.863  0.8622  0.2579 -1.2049
  484MOL0     O65236   7.952   2.915   1.789 -0.0348 -0.0377  0.1168
  484MOL0     C65237   8.071   2.860   1.836  0.5578  0.3546 -0.0603
  484MOL0     C65238   8.152   2.822   1.730 -0.1878  0.4485 -0.0173
  484MOL0     C65239   8.284   2.768   1.753 -0.2418 -0.0630 -0.3090
  484MOL0     C65240   8.324   2.737   1.888  0.0904 -0.1297  1.1573
  484MOL0     O65241   8.441   2.678   1.904  0.2292  1.6456 -0.3061
  484MOL0     C65242   8.482   2.668   2.044  0.2215 -0.4894 -0.4107
  484MOL0     C65243   8.603   2.589   2.068 -0.1355 -0.0772 -0.2174
  484MOL0     C65244   8.651   2.585   2.213 -0.0169 -0.5912  0.0519
  484MOL0     C65245   8.790   2.648   2.233  1.0719  1.2661  0.5615
  484MOL0     C65246   8.915   2.569   2.194  0.5397  0.1468 -0.0513
  484MOL0     C65247   9.048   2.628   2.247  1.3388 -0.7688  0.7185
  484MOL0     C65248   9.067   2.594   2.401  0.1778  0.0474  0.1496
  484MOL0     C65249   9.208   2.607   2.440 -0.2558 -0.5179 -0.9320
  484MOL0    Cl65250   9.314   2.472   2.411  0.2421  0.3009 -0.2046
  484MOL0     C65251   8.235   2.774   1.987 -0.1387  0.2620  0.3470
  484MOL0     C65252   8.114   2.836   1.970  0.5764 -0.6981  0.6076
  484MOL0     O65253   7.842   2.962   1.989  0.6939 -0.5151  0.4404
  484MOL0     C65254   7.708   2.917   1.658  0.8775  0.6909  0.8002
  484MOL0     C65255   7.605   2.950   1.575  0.9290 -0.1830 -0.0050
  484MOL0     N65256   7.030   3.190   1.750 -0.0302 -0.8855 -0.4262
  484MOL0     N65257   7.048   3.250   1.862  0.1377 -0.4611  0.6962
  484MOL0     C65258   8.050   3.034   2.264 -0.7505  0.7397 -0.1322
  484MOL0     C65259   8.186   3.071   2.273  0.3704 -0.1299  0.2299
  484MOL0     C65260   8.609   3.076   2.370 -0.0966 -0.0387  0.5074
  484MOL0     C65261   8.640   3.168   2.469 -0.0160 -0.0406 -0.0435
  484MOL0     C65262   8.770   3.210   2.490  1.1057  0.9421 -0.2281
  484MOL0     C65263   8.878   3.167   2.417  0.2160  0.0644  0.6433
  484MOL0     O65264   9.001   3.204   2.466  0.2661  0.9655  0.0922
  484MOL0     C65265   9.110   3.213   2.381  0.2194  0.1430  0.1102
  484MOL0     C65266   9.222   3.135   2.445 -0.7035 -0.6288  0.9215
  484MOL0     C65267   9.340   3.134   2.354  0.1634  0.2525 -0.7090
  484MOL0     C65268   9.471   3.074   2.408  0.3088 -0.3453 -0.0295
  484MOL0     C65269   9.462   2.941   2.475  0.4330  0.2941 -0.3361
  484MOL0     C65270   9.488   2.834   2.526 -0.9678 -0.6498 -1.2056
  484MOL0     C65271   8.853   3.074   2.308 -0.1961 -0.9883  0.1812
  484MOL0     C65272   8.718   3.023   2.295 -0.0197  0.1542  0.1338
  484MOL0     H65273   8.200   3.031   2.614 -0.3478  3.0412 -0.7675
  484MOL0     H65274   7.970   2.954   2.588 -0.5899  1.5766  1.1104
  484MOL0     H65275   7.770   2.835   2.483  0.7461 -0.2361 -1.9385
  484MOL0     H65276   7.761   3.007   2.530  0.5588 -0.4334 -0.4498
  484MOL0     H65277   7.596   2.865   2.331 -0.3483 -0.3361  0.1854
  484MOL0     H65278   7.545   2.936   2.479 -0.4852 -0.2092 -0.3606
  484MOL0     H65279   7.573   3.162   2.413  2.4733  0.1870  0.9262
  484MOL0     H65280   7.674   3.118   2.270  1.1876 -1.0319 -0.2963
  484MOL0     H65281   7.484   3.030   2.144 -1.2504 -1.1425 -0.2577
  484MOL0     H65282   7.373   3.062   2.287  0.4823  0.7802  1.3986
  484MOL0     H65283   7.409   3.302   2.274  0.8630  1.7343 -1.7625
  484MOL0     H65284   7.526   3.284   2.151 -1.8887  1.3983 -1.6023
  484MOL0     H65285   7.380   3.192   1.986  0.6542 -1.5412  1.4584
  484MOL0     H65286   7.233   3.208   2.091 -0.5005  1.0804 -4.7551
  484MOL0     H65287   7.320   3.459   2.107  0.7794  1.2630  0.1842
  484MOL0     H65288   7.410   3.410   1.965  0.4952 -2.3761 -0.8662
  484MOL0     H65289   7.202   3.519   1.935  2.4306 -0.7726 -0.4152
  484MOL0     H65290   7.108   3.411   2.035 -2.1054 -1.5763 -0.8031
  484MOL0     H65291   7.293   3.363   1.686 -2.2278  2.2650  0.1011
  484MOL0     H65292   7.176   3.073   1.540 -0.4373 -0.1218  1.9420
  484MOL0     H65293   7.050   3.170   1.454  0.3616  0.9335 -1.2065
  484MOL0     H65294   7.297   3.334   1.478 -2.2041  0.7720  0.8043
  484MOL0     H65295   7.174   3.331   1.360  1.7650  1.8446 -0.7625
  484MOL0     H65296   7.385   3.239   1.271 -0.9945  1.2880  1.5810
  484MOL0     H65297   7.258   3.117   1.247  0.3901  1.0492 -1.6780
  484MOL0     H65298   7.505   3.058   1.339  0.4226 -2.9325 -0.0442
  484MOL0     H65299   7.364   2.976   1.398  1.5730  1.3472  0.3112
  484MOL0     H65300   7.480   3.214   1.735  1.7248  1.1739 -0.1667
  484MOL0     H65301   7.662   3.185   2.014 -0.5510  1.0690 -0.0539
  484MOL0     H65302   7.789   3.240   1.908  0.5748 -1.4620  0.5457
  484MOL0     H65303   7.631   3.305   1.884  0.7921 -0.0030 -2.5813
  484MOL0     H65304   8.117   2.847   1.630  0.1324  0.4414 -0.1317
  484MOL0     H65305   8.353   2.753   1.671  3.2263  2.0566  1.9407
  484MOL0     H65306   8.492   2.765   2.094 -2.0228 -1.4444  2.1930
  484MOL0     H65307   8.406   2.617   2.105  0.2681  0.2445  0.2791
  484MOL0     H65308   8.595   2.484   2.036  1.1082 -0.2634  0.0193
  484MOL0     H65309   8.678   2.635   2.003 -1.3747 -1.4487 -2.7988
  484MOL0     H65310   8.651   2.478   2.237  0.7706 -0.8840 -1.1799
  484MOL0     H65311   8.580   2.642   2.274 -0.2848  1.3860 -1.9777
  484MOL0     H65312   8.780   2.746   2.185 -1.8319  0.2367 -1.1768
  484MOL0     H65313   8.804   2.675   2.338  0.6319  2.6641  0.2797
  484MOL0     H65314   8.925   2.557   2.086 -1.2309  0.6084 -0.2934
  484MOL0     H65315   8.909   2.465   2.229  0.8927 -0.8944 -2.8142
  484MOL0     H65316   9.134   2.584   2.197  2.5227  2.2619 -0.1389
  484MOL0     H65317   9.042   2.735   2.223 -0.1959 -1.0353 -0.2134
  484MOL0     H65318   9.036   2.490   2.416  0.2752 -0.1865 -1.1003
  484MOL0     H65319   9.001   2.657   2.461 -0.4875 -1.4046  0.9721
  484MOL0     H65320   9.197   2.621   2.548 -0.8211 -0.8568 -0.9422
  484MOL0     H65321   9.256   2.699   2.406  1.4130 -1.0908 -0.2332
  484MOL0     H65322   8.252   2.758   2.093 -1.1791 -0.9723  0.3665
  484MOL0     H65323   8.039   2.843   2.048 -0.5559 -3.0904 -0.1527
  484MOL0     H65324   7.771   2.832   1.632 -1.9754 -1.6376  0.9147
  484MOL0     H65325   7.581   2.890   1.488 -3.7673  2.1812 -0.6532
  484MOL0     H65326   8.003   3.050   2.168  0.2056 -2.8851 -1.3709
  484MOL0     H65327   8.244   3.112   2.191 -1.0644  0.5057 -0.4953
  484MOL0     H65328   8.566   3.235   2.512 -0.5814  0.6707 -2.0238
  484MOL0     H65329   8.786   3.284   2.568 -1.8106 -1.0882  2.5641
  484MOL0     H65330   9.086   3.188   2.277 -0.2810  2.9710 -0.5391
  484MOL0     H65331   9.139   3.317   2.364 -3.9272  1.2421 -1.3103
  484MOL0     H65332   9.183   3.035   2.465  1.2819 -1.6635 -0.1563
  484MOL0     H65333   9.252   3.172   2.544 -0.9940 -1.3117  1.2782
  484MOL0     H65334   9.375   3.236   2.335 -1.5812  0.8916 -0.7035
  484MOL0     H65335   9.315   3.076   2.265  0.2910  0.2728 -0.7574
  484MOL0     H65336   9.509   3.147   2.479 -1.4136 -0.2008  0.8106
  484MOL0     H65337   9.537   3.066   2.321  1.7465 -0.7309  1.0677
  484MOL0     H65338   9.503   2.737   2.570 -2.6061 -0.7188 -0.7466
  484MOL0     H65339   8.931   3.042   2.239 -1.5323  1.2039 -2.5479
  484MOL0     H65340   8.689   2.956   2.214 -0.6005 -0.2554  0.6744
  485MOL0     O65341   3.774   8.086   9.019 -0.9571 -0.0041  0.1847
  485MOL0     C65342   3.767   8.004   8.923  0.2629 -0.1204  0.2131
  485MOL0     O65343   3.675   7.906   8.910 -0.1219  1.0814  0.2461
  485MOL0     C65344   3.587   7.876   9.012 -0.4479  0.4214  0.4714
  485MOL0     C65345   3.454   7.837   8.966  0.2336 -0.4350 -0.0749
  485MOL0     C65346   3.359   7.806   9.064  0.7659  0.1012  0.1050
  485MOL0     C65347   3.388   7.815   9.203 -0.4014 -0.3786  1.1078
  485MOL0     O65348   3.288   7.807   9.291  0.1977  0.0190  0.0997
  485MOL0     C65349   3.323   7.785   9.429  0.0795  0.8902  0.4910
  485MOL0     C65350   3.194   7.750   9.518  0.0395 -0.3046  0.1510
  485MOL0     C65351   3.106   7.869   9.560 -0.5183  0.2333  0.8874
  485MOL0     C65352   3.015   7.948   9.465  0.2452 -0.6151  0.6009
  485MOL0     C65353   2.928   8.034   9.555 -0.1978 -0.0315  0.1303
  485MOL0     C65354   2.873   8.154   9.475 -0.9501 -0.2701 -0.5761
  485MOL0     C65355   2.806   8.251   9.571 -0.2696 -0.8227 -0.4499
  485MOL0     C65356   2.745   8.366   9.494 -0.4551 -0.4835  0.3547
  485MOL0     N65357   2.636   8.343   9.397  0.4912  0.0462 -0.3432
  485MOL0     C65358   2.527   8.260   9.430 -0.1362  0.8113  0.5281
  485MOL0     C65359   2.466   8.247   9.309  0.3294  0.1214  0.0957
  485MOL0     C65360   2.338   8.164   9.264 -0.6699 -0.1959 -0.5756
  485MOL0     C65361   2.204   8.231   9.313 -0.4300  0.7507  0.2209
  485MOL0     C65362   2.083   8.189   9.234 -0.0717  0.1024 -1.3202
  485MOL0     C65363   1.946   8.212   9.311 -0.0280  0.4566 -0.8402
  485MOL0     O65364   1.832   8.176   9.221 -0.0522  0.1045 -0.2654
  485MOL0     C65365   1.708   8.206   9.270  0.1683 -0.6174  0.0174
  485MOL0     C65366   1.607   8.192   9.179  0.3478 -0.5887  0.7992
  485MOL0     C65367   1.481   8.254   9.208 -0.2732  0.6243  0.8290
  485MOL0     C65368   1.376   8.249   9.100  0.3392 -0.5002 -1.2542
  485MOL0     C65369   1.446   8.289   9.348 -0.0457  1.3377  0.0846
  485MOL0     C65370   1.309   8.331   9.396 -0.1641  0.9994 -0.5328
  485MOL0     O65371   1.234   8.415   9.321  0.7050  0.6583 -0.0721
  485MOL0     C65372   1.104   8.432   9.361 -0.3479 -0.3120  0.1791
  485MOL0     C65373   1.006   8.328   9.375 -0.2275  0.4307 -0.3220
  485MOL0     C65374   0.875   8.361   9.402 -0.2793 -0.0569 -0.0589
  485MOL0     C65375   0.835   8.498   9.428 -0.4015  1.5877 -0.7038
  485MOL0     O65376   0.698   8.523   9.456 -0.5555  0.5759 -0.9047
  485MOL0     C65377   0.661   8.659   9.476 -0.1012 -1.0373 -0.2807
  485MOL0     C65378   0.519   8.656   9.535 -0.1107  0.2420 -0.2198
  485MOL0     C65379   0.412   8.609   9.444  0.5372 -0.2028  0.3778
  485MOL0     C65380   0.270   8.661   9.501  0.5085  0.0795 -0.4452
  485MOL0     C65381   0.156   8.623   9.412 -0.7896  0.2672 -0.2331
  485MOL0     C65382   0.026   8.708   9.457  0.7570 -0.0507  0.7217
  485MOL0     C65383  -0.098   8.667   9.373 -0.4504  0.4317  1.1868
  485MOL0     C65384  -0.215   8.753   9.403 -0.1824  0.4942  0.1942
  485MOL0    Cl65385  -0.336   8.684   9.300 -0.1755  0.4646 -0.0541
  485MOL0     C65386   0.933   8.595   9.416 -0.5089  0.2970  0.2180
  485MOL0     C65387   1.067   8.565   9.383  0.8723  0.0239  0.7565
  485MOL0     O65388   1.279   8.297   9.511  0.9741  0.6982  0.3537
  485MOL0     C65389   1.550   8.269   9.441  0.4944  0.7084 -0.3959
  485MOL0     C65390   1.687   8.242   9.406  0.0710  0.3858  0.3584
  485MOL0     N65391   2.532   8.335   9.220  0.0330  0.0757 -0.0081
  485MOL0     N65392   2.636   8.394   9.273  0.2515  0.0346  0.5169
  485MOL0     C65393   3.518   7.836   9.238  0.7853 -0.0520  0.4512
  485MOL0     C65394   3.618   7.857   9.146 -0.1268  0.0788 -0.0813
  485MOL0     C65395   3.854   8.028   8.801 -0.0239  0.2651  0.1443
  485MOL0     C65396   3.993   8.036   8.807  0.2694  0.1516  0.2301
  485MOL0     C65397   4.058   8.054   8.683 -0.0060 -0.5397 -0.1805
  485MOL0     C65398   3.989   8.056   8.566  0.2169 -0.0603 -0.4597
  485MOL0     O65399   4.041   8.065   8.445 -0.3183  0.6843 -1.0222
  485MOL0     C65400   4.170   8.111   8.424  0.6393  0.7126  0.5019
  485MOL0     C65401   4.168   8.164   8.282 -0.5768 -0.9039 -0.3683
  485MOL0     C65402   4.162   8.050   8.185  0.4216  0.3861  0.0340
  485MOL0     C65403   4.145   8.097   8.037  0.6846 -0.3829 -0.3081
  485MOL0     C65404   4.027   8.177   8.007 -0.1123  0.0150 -0.6742
  485MOL0     C65405   3.925   8.240   7.984 -0.1981  0.7213 -0.0635
  485MOL0     C65406   3.857   8.043   8.560  0.1406  0.1781 -0.0826
  485MOL0     C65407   3.791   8.030   8.678 -0.2649  0.5305 -0.4121
  485MOL0     H65408   3.430   7.827   8.861  0.0391 -0.2965 -0.0436
  485MOL0     H65409   3.262   7.767   9.038  2.1986 -3.4091 -0.4402
  485MOL0     H65410   3.392   7.703   9.451 -0.9870 -0.8027 -2.0565
  485MOL0     H65411   3.371   7.874   9.470 -1.1596  0.2749  3.5450
  485MOL0     H65412   3.138   7.672   9.467  1.9323 -1.1069 -0.8011
  485MOL0     H65413   3.239   7.709   9.609 -0.5737 -0.0546  0.5741
  485MOL0     H65414   3.037   7.822   9.631  1.2815 -0.2787  2.3626
  485MOL0     H65415   3.166   7.940   9.617  0.4894 -1.2913  1.7990
  485MOL0     H65416   3.076   8.010   9.398  0.4304 -2.0797 -0.6655
  485MOL0     H65417   2.949   7.888   9.402 -2.3245 -2.1885  4.4571
  485MOL0     H65418   2.844   7.986   9.608 -1.1847  0.9396 -0.5042
  485MOL0     H65419   2.982   8.077   9.640 -0.2720 -0.9700  0.6649
  485MOL0     H65420   2.954   8.198   9.417 -0.7859 -0.6888 -0.6692
  485MOL0     H65421   2.803   8.129   9.395  0.5789  0.9289 -2.3698
  485MOL0     H65422   2.731   8.198   9.631 -1.5276 -0.4721 -1.6588
  485MOL0     H65423   2.879   8.293   9.641  0.3563 -2.9422  0.2484
  485MOL0     H65424   2.827   8.416   9.442  0.2169 -1.2734  0.6342
  485MOL0     H65425   2.693   8.431   9.565 -3.5347 -0.9797 -1.2512
  485MOL0     H65426   2.508   8.211   9.525  0.3277 -0.9339 -0.2498
  485MOL0     H65427   2.328   8.164   9.155 -0.5885  1.4938 -0.5951
  485MOL0     H65428   2.352   8.061   9.300 -3.5486 -0.3033  0.4805
  485MOL0     H65429   2.222   8.339   9.309 -0.5420  0.9111  2.6834
  485MOL0     H65430   2.187   8.204   9.417 -0.0742  1.9515  0.6071
  485MOL0     H65431   2.095   8.081   9.228 -4.1293 -0.5824 -0.1880
  485MOL0     H65432   2.086   8.246   9.140 -0.6067  2.0561 -0.2218
  485MOL0     H65433   1.949   8.311   9.356  1.9767  0.8688 -1.7807
  485MOL0     H65434   1.956   8.145   9.397 -0.8110  1.5779  0.1485
  485MOL0     H65435   1.629   8.155   9.079  3.5052 -0.6698  1.4273
  485MOL0     H65436   1.330   8.150   9.082  1.2614 -0.9903 -0.9547
  485MOL0     H65437   1.287   8.309   9.122  1.1333  0.0347  0.6388
  485MOL0     H65438   1.425   8.283   9.008 -2.9624  2.6142 -2.0846
  485MOL0     H65439   1.038   8.226   9.356 -0.4966 -0.1218  1.9192
  485MOL0     H65440   0.810   8.274   9.410  1.8800 -2.0007 -1.9954
  485MOL0     H65441   0.727   8.701   9.552  0.9542 -1.7477 -0.7793
  485MOL0     H65442   0.664   8.725   9.388  4.4512  0.7311  0.9180
  485MOL0     H65443   0.505   8.584   9.616 -0.7050  1.0334  0.3993
  485MOL0     H65444   0.502   8.760   9.567 -1.9364 -0.0560 -0.0981
  485MOL0     H65445   0.415   8.500   9.429 -0.4010 -0.0657 -0.9535
  485MOL0     H65446   0.437   8.653   9.347 -1.5238  0.4755  0.1067
  485MOL0     H65447   0.253   8.627   9.603  2.9516 -0.2599 -0.0817
  485MOL0     H65448   0.272   8.770   9.512 -0.5189  0.1471 -0.7715
  485MOL0     H65449   0.148   8.514   9.420  1.3253  0.2362  2.9479
  485MOL0     H65450   0.185   8.645   9.308  2.2693  2.7268  1.0022
  485MOL0     H65451   0.007   8.692   9.564 -3.6573  2.7092  0.6128
  485MOL0     H65452   0.047   8.815   9.450 -0.4344  0.2237  0.9628
  485MOL0     H65453  -0.128   8.563   9.388 -0.0264 -0.2728 -2.1612
  485MOL0     H65454  -0.079   8.680   9.266 -1.1108 -2.7799  0.5668
  485MOL0     H65455  -0.185   8.856   9.385  0.3297  0.7001  1.9539
  485MOL0     H65456  -0.248   8.745   9.507 -1.3569  1.5860 -0.0770
  485MOL0     H65457   0.923   8.701   9.435  4.1157  0.9486  0.2459
  485MOL0     H65458   1.149   8.636   9.392  2.6567 -1.2108 -3.5179
  485MOL0     H65459   1.531   8.284   9.546  0.0698  0.8358 -0.4880
  485MOL0     H65460   1.754   8.258   9.490  0.6735 -0.0751 -0.0300
  485MOL0     H65461   3.542   7.824   9.343  1.1079 -3.2470  0.1142
  485MOL0     H65462   3.724   7.864   9.170  0.1739 -1.4711 -0.8369
  485MOL0     H65463   4.048   8.018   8.898  1.9849  0.1804 -0.7505
  485MOL0     H65464   4.165   8.075   8.685  0.1537 -1.3717  0.1284
  485MOL0     H65465   4.195   8.191   8.494  0.1799  2.0076 -0.7653
  485MOL0     H65466   4.239   8.029   8.442 -0.5366  0.0110  2.1477
  485MOL0     H65467   4.255   8.222   8.253 -1.2031  0.5947  0.6304
  485MOL0     H65468   4.079   8.227   8.279 -1.4049 -2.0699 -2.0816
  485MOL0     H65469   4.082   7.983   8.218 -0.6126  1.8737  0.6287
  485MOL0     H65470   4.256   7.994   8.184 -0.7013 -1.6151 -0.1423
  485MOL0     H65471   4.161   8.007   7.977  1.9357  0.4642 -1.2949
  485MOL0     H65472   4.229   8.162   8.013  1.3439 -0.8558  0.6235
  485MOL0     H65473   3.832   8.289   7.965 -0.2752 -0.3001 -2.7143
  485MOL0     H65474   3.806   8.047   8.464 -0.6174  2.5073  0.3517
  485MOL0     H65475   3.682   8.035   8.685 -0.1454  1.1912  1.8383
  486MOL0     O65476   5.708   4.422   7.133 -0.0211  0.4061  0.2553
  486MOL0     C65477   5.666   4.521   7.193  0.0091  0.3991 -0.2071
  486MOL0     O65478   5.548   4.588   7.171 -0.2092 -0.4173 -0.7538
  486MOL0     C65479   5.482   4.600   7.047 -0.2181  0.6229 -1.1695
  486MOL0     C65480   5.351   4.640   7.050  0.5986  0.3432  0.3666
  486MOL0     C65481   5.269   4.646   6.931 -0.5234  1.1945 -0.2700
  486MOL0     C65482   5.330   4.616   6.806  0.2863 -0.3123  0.2493
  486MOL0     O65483   5.255   4.643   6.694 -0.1052  0.0780  0.8254
  486MOL0     C65484   5.309   4.624   6.561 -0.5871 -0.1999  0.0508
  486MOL0     C65485   5.210   4.682   6.452  0.2556 -0.1603  0.1965
  486MOL0     C65486   5.244   4.640   6.313 -1.1201 -0.4949 -0.0021
  486MOL0     C65487   5.169   4.719   6.206 -0.9363  0.0409 -0.0759
  486MOL0     C65488   5.239   4.699   6.061  0.2663 -0.0295 -0.2190
  486MOL0     C65489   5.150   4.767   5.959  0.6755  0.2066 -0.1991
  486MOL0     C65490   5.207   4.731   5.816  0.6185 -0.1070 -0.8764
  486MOL0     C65491   5.112   4.745   5.695  0.1260  0.1410 -0.0912
  486MOL0     N65492   5.080   4.889   5.675 -0.2719  0.0151  0.4649
  486MOL0     C65493   4.967   4.953   5.714  0.0379 -0.6706  0.1052
  486MOL0     C65494   4.980   5.081   5.670 -1.0558  0.2788  0.3033
  486MOL0     C65495   4.868   5.182   5.674  0.7980 -0.8752 -0.2764
  486MOL0     C65496   4.781   5.169   5.544 -0.4474  0.9004 -0.2281
  486MOL0     C65497   4.650   5.260   5.532 -0.4385  0.6089 -0.4317
  486MOL0     C65498   4.628   5.304   5.389  0.8655 -0.8044 -0.3960
  486MOL0     O65499   4.587   5.197   5.310  0.7163 -0.7026  1.0405
  486MOL0     C65500   4.454   5.157   5.317 -0.6704  0.0524  1.0978
  486MOL0     C65501   4.356   5.197   5.407  0.3096  0.3955  0.2792
  486MOL0     C65502   4.226   5.160   5.392  0.9336 -0.2861 -0.2602
  486MOL0     C65503   4.115   5.221   5.486  0.1108  0.0055 -0.1690
  486MOL0     C65504   4.189   5.065   5.290 -0.2026  0.2350 -0.2618
  486MOL0     C65505   4.050   5.010   5.279 -0.5495 -0.0813 -0.2527
  486MOL0     O65506   4.021   4.994   5.146  0.4587  0.5243 -0.3085
  486MOL0     C65507   3.906   5.059   5.103 -0.2111  0.0686 -0.6689
  486MOL0     C65508   3.810   4.975   5.043 -0.8561 -0.5782 -0.0728
  486MOL0     C65509   3.690   5.033   4.996 -0.2733  0.4116  0.9877
  486MOL0     C65510   3.666   5.171   5.026  0.0731  0.1947  0.4175
  486MOL0     O65511   3.560   5.244   4.983  0.6283  0.2307 -0.1917
  486MOL0     C65512   3.487   5.187   4.878  0.1856 -0.0679  0.1459
  486MOL0     C65513   3.396   5.300   4.823 -0.2849 -0.8276  0.6930
  486MOL0     C65514   3.476   5.427   4.780  0.1402 -0.8485 -0.1221
  486MOL0     C65515   3.380   5.544   4.779  0.4169  0.3314  0.0958
  486MOL0     C65516   3.450   5.680   4.779  0.2302 -0.0047  0.0287
  486MOL0     C65517   3.551   5.687   4.658  0.9463  0.3015 -0.0785
  486MOL0     C65518   3.634   5.809   4.656  0.4301 -0.2613 -0.1181
  486MOL0     C65519   3.760   5.794   4.740 -0.1342 -0.0859  0.2240
  486MOL0    Cl65520   3.771   5.923   4.864  0.1016 -0.3419 -0.2170
  486MOL0     C65521   3.755   5.255   5.096 -0.6533 -0.3854 -0.0835
  486MOL0     C65522   3.880   5.196   5.135  0.0129 -1.1042  0.1847
  486MOL0     O65523   3.971   4.992   5.372 -0.3226  0.6996  1.0032
  486MOL0     C65524   4.283   5.032   5.196 -0.6357  0.1357  0.2934
  486MOL0     C65525   4.406   5.082   5.206 -0.0265 -0.2010  0.6253
  486MOL0     N65526   5.102   5.091   5.615 -0.6377 -0.9833 -0.3019
  486MOL0     N65527   5.157   4.976   5.607 -0.0274  0.0969 -1.0017
  486MOL0     C65528   5.468   4.580   6.804  1.1207  0.3308  0.0395
  486MOL0     C65529   5.542   4.577   6.924 -0.9685  0.0362 -0.8469
  486MOL0     C65530   5.740   4.565   7.309 -0.6169 -0.4632  0.5669
  486MOL0     C65531   5.817   4.474   7.374  0.9166 -0.1903 -0.9413
  486MOL0     C65532   5.894   4.510   7.483  0.2880 -0.1480  0.2474
  486MOL0     C65533   5.894   4.643   7.520 -0.7256  0.9353  0.9667
  486MOL0     O65534   5.965   4.679   7.626 -0.6353  0.5598 -0.0049
  486MOL0     C65535   5.998   4.816   7.660  0.0582  0.3108 -0.9515
  486MOL0     C65536   6.083   4.804   7.792  0.0188  0.4308  0.0080
  486MOL0     C65537   6.226   4.756   7.743  0.2528  0.3883 -0.1014
  486MOL0     C65538   6.326   4.804   7.848 -0.2041 -0.3341  0.4061
  486MOL0     C65539   6.463   4.759   7.813  0.1778 -0.5080 -0.5005
  486MOL0     C65540   6.574   4.712   7.785  0.7754  0.1737 -0.3149
  486MOL0     C65541   5.820   4.740   7.455 -0.5150  0.1832  0.5737
  486MOL0     C65542   5.750   4.702   7.348  0.4823  0.6582  0.2590
  486MOL0     H65543   5.309   4.648   7.150  1.0481  0.7736  0.5230
  486MOL0     H65544   5.165   4.675   6.928 -0.7732  0.7133  2.1051
  486MOL0     H65545   5.400   4.684   6.555 -1.1482  0.6441 -0.2123
  486MOL0     H65546   5.322   4.515   6.557 -1.8898 -0.5589  3.0708
  486MOL0     H65547   5.111   4.639   6.471 -0.5062  2.2041  2.1470
  486MOL0     H65548   5.207   4.789   6.474  0.0536 -0.5578  2.3006
  486MOL0     H65549   5.348   4.656   6.280 -1.3743 -0.3009 -0.7386
  486MOL0     H65550   5.234   4.532   6.294  1.1875 -0.4104 -2.2743
  486MOL0     H65551   5.070   4.673   6.205  0.1810 -2.5617  0.1405
  486MOL0     H65552   5.151   4.822   6.236  0.3569  0.0806  0.6467
  486MOL0     H65553   5.338   4.746   6.058 -0.4417  1.6399  1.0410
  486MOL0     H65554   5.251   4.594   6.031 -0.4598  0.9333 -4.6630
  486MOL0     H65555   5.062   4.704   5.974  1.2874 -1.2216 -2.2444
  486MOL0     H65556   5.135   4.874   5.976  0.0183  0.0647  0.1434
  486MOL0     H65557   5.298   4.789   5.800  0.5495  1.0102  2.1747
  486MOL0     H65558   5.232   4.625   5.814 -1.2799 -0.6810  1.5995
  486MOL0     H65559   5.018   4.691   5.710  0.8187 -1.3208 -0.8364
  486MOL0     H65560   5.166   4.707   5.607  1.6649 -0.3868  1.0315
  486MOL0     H65561   4.885   4.905   5.767 -0.4312 -2.4198 -2.0593
  486MOL0     H65562   4.802   5.158   5.758  3.6787  0.2894  2.4977
  486MOL0     H65563   4.903   5.285   5.674  2.3744 -1.2709 -3.5840
  486MOL0     H65564   4.768   5.065   5.516 -1.2530  0.2091  2.3934
  486MOL0     H65565   4.845   5.208   5.465 -2.4551 -2.0808 -3.6515
  486MOL0     H65566   4.662   5.341   5.604  0.3583 -1.0793  1.4227
  486MOL0     H65567   4.567   5.204   5.575  0.8021 -0.4077  0.7372
  486MOL0     H65568   4.724   5.344   5.356  0.6224 -1.0611 -1.4463
  486MOL0     H65569   4.563   5.392   5.379 -0.2260 -1.2376  2.1881
  486MOL0     H65570   4.384   5.271   5.481  1.8822  0.7237 -0.5984
  486MOL0     H65571   4.162   5.274   5.569 -0.2147  0.1949 -0.1078
  486MOL0     H65572   4.054   5.293   5.432 -1.5398 -1.6981 -0.6722
  486MOL0     H65573   4.048   5.143   5.524 -1.2873 -0.0636 -2.5403
  486MOL0     H65574   3.836   4.872   5.022 -2.4634 -0.9985 -0.1183
  486MOL0     H65575   3.621   4.969   4.943 -0.0769  2.8390 -2.4950
  486MOL0     H65576   3.550   5.156   4.794 -0.9778 -4.2884  0.5892
  486MOL0     H65577   3.430   5.097   4.902  1.1269 -1.3796 -2.1861
  486MOL0     H65578   3.345   5.258   4.736 -0.3398 -0.6257  0.6279
  486MOL0     H65579   3.320   5.322   4.898  1.1077  2.1747  1.3652
  486MOL0     H65580   3.521   5.418   4.681 -0.5903 -0.1870 -0.5278
  486MOL0     H65581   3.556   5.443   4.853 -1.9525 -0.5185  2.2323
  486MOL0     H65582   3.314   5.528   4.694  1.4185 -1.1878 -0.4216
  486MOL0     H65583   3.312   5.544   4.865  1.0974  0.8779  0.6451
  486MOL0     H65584   3.515   5.712   4.861  0.7235  2.6127 -1.2676
  486MOL0     H65585   3.372   5.756   4.784  0.1995 -0.0880  0.9902
  486MOL0     H65586   3.616   5.600   4.648 -0.2025 -0.4267 -1.5741
  486MOL0     H65587   3.496   5.694   4.563  0.7432  0.0244  0.0175
  486MOL0     H65588   3.562   5.884   4.692 -0.6474  0.0828 -2.7056
  486MOL0     H65589   3.661   5.838   4.554  1.0626  1.2489  0.4388
  486MOL0     H65590   3.853   5.787   4.683  1.3477  1.0974  2.3600
  486MOL0     H65591   3.755   5.701   4.797  1.7692 -0.7369 -0.6012
  486MOL0     H65592   3.737   5.359   5.121 -0.9177 -0.5673  0.5095
  486MOL0     H65593   3.953   5.265   5.177 -1.9423  0.7729  0.6747
  486MOL0     H65594   4.262   4.967   5.111 -2.7228  1.2196 -0.0974
  486MOL0     H65595   4.472   5.067   5.121 -0.0294  0.6812  0.4623
  486MOL0     H65596   5.515   4.559   6.709 -2.3688 -0.3293 -1.6867
  486MOL0     H65597   5.648   4.555   6.927 -0.2116  3.0351 -2.0474
  486MOL0     H65598   5.821   4.369   7.346  2.6218  0.0946 -1.8861
  486MOL0     H65599   5.935   4.427   7.539 -1.6457 -0.9213  0.6163
  486MOL0     H65600   6.057   4.850   7.574 -0.1476 -1.9747 -2.0911
  486MOL0     H65601   5.916   4.887   7.673  1.6595  1.7277  2.6218
  486MOL0     H65602   6.034   4.733   7.859 -1.0775  2.5322  1.5821
  486MOL0     H65603   6.081   4.907   7.829 -0.7800  0.2768  0.4187
  486MOL0     H65604   6.256   4.802   7.648 -1.8729 -2.1871 -2.1940
  486MOL0     H65605   6.225   4.647   7.744  0.5168  0.3765 -0.7691
  486MOL0     H65606   6.284   4.778   7.946 -2.1767  0.2312 -0.2494
  486MOL0     H65607   6.345   4.912   7.859  2.1681 -0.1722 -3.5175
  486MOL0     H65608   6.676   4.681   7.774  0.7777 -0.7341  1.9145
  486MOL0     H65609   5.814   4.843   7.490 -0.3057  0.6436 -0.7014
  486MOL0     H65610   5.684   4.771   7.297 -0.4966 -0.9051 -0.6625
  487MOL0     O65611   9.483  11.054   3.455 -0.2927 -0.5113 -0.1044
  487MOL0     C65612   9.587  11.033   3.392  0.6097 -0.4090  0.5012
  487MOL0     O65613   9.599  10.974   3.275  0.4167 -0.0021 -0.3898
  487MOL0     C65614   9.504  10.897   3.226 -0.1989  0.5086 -0.1384
  487MOL0     C65615   9.518  10.759   3.214 -0.5104  0.8636 -0.1116
  487MOL0     C65616   9.428  10.677   3.142  0.1635 -0.9201  0.0293
  487MOL0     C65617   9.307  10.735   3.097  0.5452  0.4122 -1.1402
  487MOL0     O65618   9.204  10.669   3.042 -0.1011  0.3019 -0.5478
  487MOL0     C65619   9.190  10.528   3.047 -0.2144 -0.5695 -0.7457
  487MOL0     C65620   9.045  10.488   3.021  0.0492 -0.4793  0.3371
  487MOL0     C65621   9.008  10.518   2.876  0.4045 -0.3148  0.0431
  487MOL0     C65622   8.869  10.471   2.822  0.2821 -0.0604 -0.5345
  487MOL0     C65623   8.875  10.496   2.668 -0.8292  0.5174 -0.8326
  487MOL0     C65624   8.762  10.439   2.587  0.0766  0.9061 -0.3130
  487MOL0     C65625   8.621  10.450   2.654 -0.5244 -0.0843  0.2445
  487MOL0     C65626   8.505  10.384   2.581 -0.6751  0.6505  0.1169
  487MOL0     N65627   8.379  10.415   2.644 -0.3209  0.3854  0.0535
  487MOL0     C65628   8.328  10.362   2.757 -0.5432 -0.6153  0.1921
  487MOL0     C65629   8.224  10.432   2.798  0.1831 -0.3354 -0.1466
  487MOL0     C65630   8.145  10.415   2.913 -0.5097 -0.6236 -0.2778
  487MOL0     C65631   8.023  10.354   2.896  0.6347  0.1386 -0.1123
  487MOL0     C65632   7.925  10.423   2.790 -0.3835 -0.0216  0.7650
  487MOL0     C65633   7.915  10.329   2.663 -1.1276 -0.3856  0.7386
  487MOL0     O65634   7.847  10.206   2.688  0.5032 -0.4800 -0.0405
  487MOL0     C65635   7.712  10.190   2.716  0.1951 -0.1192 -0.5862
  487MOL0     C65636   7.612  10.285   2.720  0.3068 -0.2321  0.9949
  487MOL0     C65637   7.479  10.258   2.747 -0.1408 -0.1684 -0.5436
  487MOL0     C65638   7.374  10.370   2.755 -0.9434 -0.0595  0.2676
  487MOL0     C65639   7.429  10.120   2.747 -0.3627  0.1099  0.9991
  487MOL0     C65640   7.279  10.084   2.752  0.8141 -0.3868  0.1617
  487MOL0     O65641   7.201  10.152   2.832 -0.8478  0.0850 -0.0949
  487MOL0     C65642   7.066  10.172   2.799  0.0405  0.8793  0.0007
  487MOL0     C65643   6.960  10.150   2.888  0.0406 -0.3117 -0.5018
  487MOL0     C65644   6.827  10.182   2.853  0.3310  0.1312  0.2900
  487MOL0     C65645   6.800  10.237   2.731  0.9385 -0.1583  0.0919
  487MOL0     O65646   6.669  10.277   2.718  0.0701 -1.0964 -0.2371
  487MOL0     C65647   6.594  10.232   2.605 -0.2202  0.1070  0.0542
  487MOL0     C65648   6.464  10.148   2.638 -0.1987  0.5941  0.5170
  487MOL0     C65649   6.371  10.136   2.514 -0.3101 -0.0002 -1.2127
  487MOL0     C65650   6.237  10.075   2.547 -0.2380  0.4061 -0.4826
  487MOL0     C65651   6.125  10.132   2.457  0.4886  0.0757 -1.4077
  487MOL0     C65652   5.984  10.104   2.514  0.7412  0.3626 -0.6082
  487MOL0     C65653   5.868  10.189   2.460 -0.1799 -0.4587  0.4708
  487MOL0     C65654   5.888  10.331   2.504  0.0584 -0.6509  1.0687
  487MOL0    Cl65655   5.762  10.415   2.427 -0.1712  0.7919  0.2463
  487MOL0     C65656   6.903  10.261   2.642  0.1869  0.7913 -0.1434
  487MOL0     C65657   7.038  10.227   2.675 -0.1481  0.4233  0.4702
  487MOL0     O65658   7.243   9.980   2.702 -0.7327  0.0080  0.0377
  487MOL0     C65659   7.537  10.025   2.741  0.0650 -0.4977 -0.4033
  487MOL0     C65660   7.673  10.064   2.737  0.2310 -0.0101 -0.1283
  487MOL0     N65661   8.200  10.525   2.694  1.1640 -0.6022 -0.2047
  487MOL0     N65662   8.301  10.522   2.606  0.0991 -0.2449 -0.2020
  487MOL0     C65663   9.280  10.870   3.115 -0.1238  0.1047  0.3712
  487MOL0     C65664   9.381  10.949   3.182  0.3217 -1.0819  0.4689
  487MOL0     C65665   9.705  11.101   3.438 -0.4492 -0.2953  0.3876
  487MOL0     C65666   9.829  11.084   3.374  0.1222 -0.4986  0.4784
  487MOL0     C65667   9.947  11.128   3.435 -0.0914 -0.1500  0.1594
  487MOL0     C65668   9.949  11.195   3.554 -0.2764 -0.2751  0.4833
  487MOL0     O65669  10.059  11.240   3.613 -0.1203 -0.3752 -0.2814
  487MOL0     C65670  10.166  11.141   3.614 -0.9975 -0.3055 -0.1013
  487MOL0     C65671  10.287  11.196   3.686 -0.0427 -0.7053 -0.0589
  487MOL0     C65672  10.315  11.184   3.839  0.6872  0.7054  0.4148
  487MOL0     C65673  10.461  11.226   3.857  0.5113  0.0272  0.6006
  487MOL0     C65674  10.514  11.351   3.803  0.5896 -0.0863  0.3743
  487MOL0     C65675  10.548  11.447   3.738 -0.2864  0.1783 -0.6572
  487MOL0     C65676   9.824  11.239   3.596 -0.2587 -0.3519 -0.6148
  487MOL0     C65677   9.698  11.194   3.548 -0.0866  0.5692 -0.2586
  487MOL0     H65678   9.616  10.725   3.247 -0.0119  2.0673 -0.3103
  487MOL0     H65679   9.448  10.571   3.129 -1.1020 -0.9976 -1.5795
  487MOL0     H65680   9.262  10.481   2.978 -0.8585 -2.5054 -0.1606
  487MOL0     H65681   9.219  10.490   3.145 -0.5719  2.0988  0.4772
  487MOL0     H65682   9.049  10.379   3.035  1.7119 -0.3411  1.1690
  487MOL0     H65683   8.984  10.537   3.097  2.9496 -0.4078  2.8069
  487MOL0     H65684   9.020  10.626   2.863 -1.8278  0.1676  1.3098
  487MOL0     H65685   9.088  10.488   2.808  1.1466  1.0904  0.2643
  487MOL0     H65686   8.845  10.367   2.846 -2.5061  0.9578  1.6033
  487MOL0     H65687   8.789  10.531   2.866 -1.0936 -0.3129 -2.5718
  487MOL0     H65688   8.880  10.605   2.653 -0.7651  0.1964 -3.8039
  487MOL0     H65689   8.965  10.455   2.620 -0.7566  2.7998 -2.8596
  487MOL0     H65690   8.734  10.486   2.493  0.5636  1.2794 -0.2749
  487MOL0     H65691   8.786  10.333   2.574 -2.7355  0.0581  0.6854
  487MOL0     H65692   8.627  10.397   2.749 -1.0040 -2.1714 -0.8251
  487MOL0     H65693   8.592  10.556   2.658 -2.7098 -0.6452  0.8056
  487MOL0     H65694   8.526  10.277   2.587  0.4588  0.8382 -0.2881
  487MOL0     H65695   8.505  10.430   2.482  2.5233  0.8342  0.1081
  487MOL0     H65696   8.359  10.282   2.823 -1.2367  0.2831  1.6680
  487MOL0     H65697   8.204  10.361   2.988 -0.2600 -2.6068 -1.7967
  487MOL0     H65698   8.134  10.519   2.943  0.2588 -0.5846 -0.0967
  487MOL0     H65699   7.968  10.356   2.991 -0.3547  2.4410 -0.6637
  487MOL0     H65700   8.043  10.247   2.882  1.4325  0.0792  1.3893
  487MOL0     H65701   7.969  10.519   2.761 -0.1951  0.7889  3.4821
  487MOL0     H65702   7.827  10.454   2.828 -0.7803  2.5266 -1.9697
  487MOL0     H65703   8.016  10.302   2.632 -0.5760  2.7516 -0.5054
  487MOL0     H65704   7.866  10.385   2.582  1.2790  0.2876 -0.3178
  487MOL0     H65705   7.642  10.388   2.709  1.1609 -0.5687 -0.0746
  487MOL0     H65706   7.304  10.350   2.673  2.6972  0.9003 -3.4857
  487MOL0     H65707   7.338  10.365   2.857  1.0563  0.7657  1.0756
  487MOL0     H65708   7.414  10.466   2.721 -0.7033 -0.4937 -0.7287
  487MOL0     H65709   6.985  10.097   2.979  0.0588 -0.7097 -0.7357
  487MOL0     H65710   6.746  10.162   2.922 -1.6772  0.7639 -1.7465
  487MOL0     H65711   6.560  10.327   2.563 -1.5797  1.8003  4.3978
  487MOL0     H65712   6.656  10.170   2.540  1.6113  0.0068  1.7861
  487MOL0     H65713   6.501  10.050   2.672 -1.7114  0.0343  0.6366
  487MOL0     H65714   6.400  10.195   2.714 -2.5208  1.1293 -1.6499
  487MOL0     H65715   6.420  10.078   2.434 -2.3359  0.6015 -2.9865
  487MOL0     H65716   6.354  10.239   2.484  0.0941  1.0415  1.7994
  487MOL0     H65717   6.237   9.966   2.539 -0.4094  0.3991 -0.4131
  487MOL0     H65718   6.215  10.102   2.651  0.6516 -0.7949  0.0397
  487MOL0     H65719   6.119  10.101   2.352 -1.5012 -1.0854 -1.0001
  487MOL0     H65720   6.136  10.241   2.462  0.7411 -0.0265  1.5111
  487MOL0     H65721   5.971   9.996   2.507  0.3028  0.3247  0.5740
  487MOL0     H65722   5.988  10.115   2.623 -2.6418 -2.8058  0.0396
  487MOL0     H65723   5.777  10.148   2.504 -0.6785  1.2469  1.1188
  487MOL0     H65724   5.858  10.183   2.351 -1.9247 -2.4584  0.6683
  487MOL0     H65725   5.982  10.374   2.469  0.3007 -2.7739 -1.1433
  487MOL0     H65726   5.885  10.324   2.614  1.5596 -3.8204  1.0215
  487MOL0     H65727   6.882  10.324   2.556  0.1651  2.2251  0.8644
  487MOL0     H65728   7.119  10.241   2.603  0.3674  0.5358  1.0643
  487MOL0     H65729   7.505   9.922   2.731 -0.2515 -0.5460  0.8982
  487MOL0     H65730   7.742   9.980   2.732  0.4859 -0.1773  3.5108
  487MOL0     H65731   9.188  10.915   3.078  0.4541  0.3671 -0.7725
  487MOL0     H65732   9.352  11.052   3.196 -2.3861 -1.4815 -1.2532
  487MOL0     H65733   9.834  11.034   3.278  0.4718  1.7338 -0.7422
  487MOL0     H65734  10.039  11.116   3.379 -0.1332  2.1654 -0.5005
  487MOL0     H65735  10.139  11.049   3.666  0.4672 -0.2571  0.7814
  487MOL0     H65736  10.202  11.101   3.519  0.0382 -1.2591  0.6695
  487MOL0     H65737  10.283  11.301   3.654 -0.3949 -0.6816  0.0648
  487MOL0     H65738  10.368  11.149   3.629 -0.2550 -1.0089 -0.1100
  487MOL0     H65739  10.298  11.081   3.873  0.8373  0.4232 -0.3340
  487MOL0     H65740  10.254  11.250   3.902 -1.7322 -2.1060  1.2962
  487MOL0     H65741  10.519  11.152   3.800 -0.6206  0.1269 -0.7264
  487MOL0     H65742  10.485  11.224   3.963 -0.1146 -0.6217  0.7408
  487MOL0     H65743  10.553  11.529   3.670 -1.3013  2.4557  1.8437
  487MOL0     H65744   9.814  11.303   3.683  2.4986 -2.7611  1.7369
  487MOL0     H65745   9.610  11.236   3.597 -0.2641 -0.0585 -0.0355
  488MOL0     O65746   9.673   2.489   1.055 -0.0275 -0.0720  0.3273
  488MOL0     C65747   9.769   2.564   1.046 -0.3759  0.3262  0.0571
  488MOL0     O65748   9.766   2.697   1.094  0.3463  0.0815  0.3360
  488MOL0     C65749   9.657   2.737   1.160  0.8793 -0.4112  0.6769
  488MOL0     C65750   9.584   2.840   1.093  0.4194 -0.5146  0.5988
  488MOL0     C65751   9.465   2.885   1.151 -0.1531 -0.8615 -1.0070
  488MOL0     C65752   9.412   2.821   1.268  0.3793 -0.1785 -0.3786
  488MOL0     O65753   9.296   2.861   1.311  0.1123 -0.1690 -0.3294
  488MOL0     C65754   9.225   2.795   1.420 -0.3952 -0.1590 -0.9437
  488MOL0     C65755   9.151   2.667   1.371 -0.3881  0.0595  0.0829
  488MOL0     C65756   9.021   2.712   1.308  0.1007  0.3388 -0.2951
  488MOL0     C65757   8.942   2.598   1.249  0.1574 -0.0778  1.0594
  488MOL0     C65758   8.816   2.638   1.172 -0.6869 -0.0149  0.2080
  488MOL0     C65759   8.741   2.508   1.130 -0.2377 -0.1783  0.5381
  488MOL0     C65760   8.617   2.541   1.043 -0.8308 -1.1394  0.0435
  488MOL0     C65761   8.561   2.418   0.981 -0.0293  0.2862  0.3314
  488MOL0     N65762   8.658   2.360   0.878  0.5792 -0.9020 -0.3247
  488MOL0     C65763   8.717   2.440   0.787  0.2879 -0.2051  0.0421
  488MOL0     C65764   8.799   2.348   0.726  0.4283 -0.1687 -0.2670
  488MOL0     C65765   8.894   2.361   0.610  0.3002 -0.2683  0.9108
  488MOL0     C65766   8.815   2.377   0.475 -0.0551  0.0053 -0.1740
  488MOL0     C65767   8.751   2.517   0.438  0.1514  0.6355  0.0265
  488MOL0     C65768   8.708   2.505   0.293 -0.0115 -0.3826 -0.0575
  488MOL0     O65769   8.639   2.381   0.275  0.2126  0.2087 -1.2265
  488MOL0     C65770   8.501   2.374   0.302 -0.7437  0.2199  0.7676
  488MOL0     C65771   8.419   2.483   0.331  0.3061 -0.0470  0.5486
  488MOL0     C65772   8.281   2.472   0.338 -0.1717  0.0027  0.5162
  488MOL0     C65773   8.212   2.604   0.364 -0.0804  0.8431  0.9313
  488MOL0     C65774   8.220   2.343   0.323 -0.4612 -1.0263 -0.3147
  488MOL0     C65775   8.074   2.316   0.339 -0.2438 -0.1161 -0.6807
  488MOL0     O65776   8.008   2.409   0.399 -0.3587 -0.3615 -0.1885
  488MOL0     C65777   7.868   2.411   0.388 -0.4375  0.4693 -1.2547
  488MOL0     C65778   7.806   2.517   0.316  0.1387 -0.6680 -0.1408
  488MOL0     C65779   7.671   2.531   0.317  0.5461 -1.0760 -1.0636
  488MOL0     C65780   7.587   2.435   0.370 -0.1815  1.1977 -0.1421
  488MOL0     O65781   7.452   2.439   0.367  0.1484 -0.3778 -0.4566
  488MOL0     C65782   7.395   2.458   0.235 -0.1430 -0.0586 -0.1452
  488MOL0     C65783   7.242   2.421   0.220 -0.6809 -0.2872 -0.1151
  488MOL0     C65784   7.218   2.265   0.215 -0.4654 -0.1867  0.3735
  488MOL0     C65785   7.165   2.216   0.350 -1.0692  0.4896 -1.0302
  488MOL0     C65786   7.203   2.066   0.354  0.9739 -0.2279 -0.1061
  488MOL0     C65787   7.151   1.997   0.473 -0.0265 -0.2532  0.6799
  488MOL0     C65788   7.212   1.856   0.498  0.0194  0.1696 -0.2039
  488MOL0     C65789   7.102   1.747   0.499 -0.3333  0.2017  0.2803
  488MOL0    Cl65790   7.164   1.594   0.442  0.3250  0.1607 -0.5332
  488MOL0     C65791   7.646   2.318   0.420  0.0447  0.2800 -0.1493
  488MOL0     C65792   7.784   2.308   0.441 -0.9222  0.2244 -0.2080
  488MOL0     O65793   8.029   2.214   0.295 -0.7099 -0.4202  0.0958
  488MOL0     C65794   8.309   2.233   0.314 -0.6851 -0.3159 -0.6018
  488MOL0     C65795   8.445   2.248   0.300  0.7352 -0.3474  0.3332
  488MOL0     N65796   8.790   2.230   0.795 -0.3841  0.2720  0.5779
  488MOL0     N65797   8.704   2.240   0.885 -0.0773  0.1792  0.0569
  488MOL0     C65798   9.490   2.718   1.339 -0.4619 -0.4307 -0.3364
  488MOL0     C65799   9.619   2.689   1.291  0.1474  0.3303  0.1340
  488MOL0     C65800   9.889   2.508   0.979 -0.8747 -0.1338 -0.2561
  488MOL0     C65801   9.895   2.381   0.921  0.5935  0.0019  0.8043
  488MOL0     C65802  10.010   2.335   0.862  0.1557 -0.3018 -0.1596
  488MOL0     C65803  10.131   2.410   0.863  0.2127  0.6247 -0.2237
  488MOL0     O65804  10.252   2.354   0.821  0.6309 -0.9132  0.1272
  488MOL0     C65805  10.245   2.343   0.677 -0.5127  0.3601 -0.0271
  488MOL0     C65806  10.257   2.479   0.614  0.5592  0.1565  0.3611
  488MOL0     C65807  10.137   2.528   0.535  0.4393  0.8257 -0.6045
  488MOL0     C65808  10.151   2.647   0.465  0.6067 -0.6351 -0.1266
  488MOL0     C65809  10.030   2.667   0.390 -0.1281 -0.2145  0.7009
  488MOL0     C65810   9.935   2.657   0.314  0.2261  0.7500 -0.1521
  488MOL0     C65811  10.125   2.536   0.918  0.2108 -0.2124 -0.9505
  488MOL0     C65812  10.008   2.583   0.974 -0.4466 -0.0726  0.9863
  488MOL0     H65813   9.628   2.873   1.000 -1.4060 -3.0237 -1.3301
  488MOL0     H65814   9.403   2.960   1.104 -1.5285 -0.6049  1.0494
  488MOL0     H65815   9.291   2.781   1.505  1.1046  2.1235 -1.6405
  488MOL0     H65816   9.155   2.862   1.471 -2.1431 -1.8053 -1.0630
  488MOL0     H65817   9.210   2.621   1.291  1.1379  3.0557 -0.6254
  488MOL0     H65818   9.141   2.600   1.457  1.0233 -0.0656  0.1696
  488MOL0     H65819   8.950   2.760   1.376  0.0112 -0.2101  0.0050
  488MOL0     H65820   9.038   2.784   1.227 -1.0110  2.2505  1.0654
  488MOL0     H65821   9.001   2.534   1.183  0.4813  0.8355  0.4337
  488MOL0     H65822   8.913   2.534   1.332  2.7976 -2.9364 -0.0179
  488MOL0     H65823   8.762   2.711   1.234  1.1647  2.9224 -1.4007
  488MOL0     H65824   8.843   2.693   1.081 -3.6195 -0.2565 -0.8978
  488MOL0     H65825   8.812   2.451   1.070  0.0756  1.4872 -0.7479
  488MOL0     H65826   8.715   2.452   1.220  0.3600 -1.4260 -0.0424
  488MOL0     H65827   8.547   2.593   1.109 -0.1850  0.6509 -0.6042
  488MOL0     H65828   8.630   2.618   0.967 -2.4825 -1.3627 -0.5032
  488MOL0     H65829   8.467   2.442   0.930  1.0237  0.9908 -1.3728
  488MOL0     H65830   8.547   2.340   1.057 -1.0477  3.3704  3.5881
  488MOL0     H65831   8.708   2.544   0.756  1.6191 -0.4326 -1.2344
  488MOL0     H65832   8.966   2.442   0.623  1.8943 -1.4395 -0.2671
  488MOL0     H65833   8.947   2.265   0.601  0.2419 -0.2164 -0.0500
  488MOL0     H65834   8.753   2.287   0.469  1.4279 -1.0934  0.4243
  488MOL0     H65835   8.891   2.351   0.401 -0.0976 -0.7941  0.0509
  488MOL0     H65836   8.829   2.592   0.453  0.0720  0.3742  2.0250
  488MOL0     H65837   8.667   2.541   0.504 -0.2228  0.0270 -0.2218
  488MOL0     H65838   8.797   2.515   0.229  3.3508  1.4753  4.3757
  488MOL0     H65839   8.645   2.593   0.276 -4.3224 -3.5279 -2.3156
  488MOL0     H65840   8.455   2.583   0.351 -0.1152 -0.2299  2.3369
  488MOL0     H65841   8.221   2.613   0.472  5.4722 -0.5441  0.8918
  488MOL0     H65842   8.266   2.685   0.313  0.5310 -1.4661 -2.4349
  488MOL0     H65843   8.107   2.611   0.335  0.4779  0.8282 -1.2789
  488MOL0     H65844   7.861   2.598   0.268  0.2230 -1.7105 -1.9036
  488MOL0     H65845   7.625   2.613   0.261  0.0964 -0.3028  0.3759
  488MOL0     H65846   7.401   2.567   0.222  0.3285  0.2600  2.3315
  488MOL0     H65847   7.452   2.406   0.158  2.3804 -0.6266  1.9736
  488MOL0     H65848   7.182   2.461   0.303 -0.9045 -0.1755 -0.3271
  488MOL0     H65849   7.198   2.474   0.135 -0.1512 -0.3945 -0.4621
  488MOL0     H65850   7.313   2.220   0.185 -0.5718  1.5717 -3.0211
  488MOL0     H65851   7.150   2.230   0.137 -1.0362 -0.7856  1.1267
  488MOL0     H65852   7.217   2.261   0.435  0.5217  1.1373 -2.2795
  488MOL0     H65853   7.058   2.231   0.368 -0.6518 -0.8315  3.9785
  488MOL0     H65854   7.307   2.038   0.338  0.0972 -3.5380 -1.0261
  488MOL0     H65855   7.159   2.012   0.269 -1.3841  0.6111  0.5034
  488MOL0     H65856   7.165   2.054   0.565 -2.1866 -1.1978  1.6583
  488MOL0     H65857   7.044   1.980   0.462  0.1535 -2.5969  1.7268
  488MOL0     H65858   7.265   1.845   0.593 -0.7185 -1.5463  0.0403
  488MOL0     H65859   7.289   1.831   0.424 -0.3712  0.8405 -0.8532
  488MOL0     H65860   7.035   1.771   0.415 -1.7899  1.7148  1.7683
  488MOL0     H65861   7.049   1.753   0.595 -0.3936  2.7971  0.1757
  488MOL0     H65862   7.580   2.236   0.443 -0.6666  1.1428  0.9915
  488MOL0     H65863   7.819   2.218   0.490 -1.2704  0.3125  0.2073
  488MOL0     H65864   8.265   2.135   0.306  0.9316 -1.1241 -0.1567
  488MOL0     H65865   8.501   2.160   0.269  2.0985  0.3824  0.6511
  488MOL0     H65866   9.462   2.667   1.431  2.5931  0.0391  0.9728
  488MOL0     H65867   9.684   2.617   1.340  0.6267  1.3312  1.0116
  488MOL0     H65868   9.802   2.325   0.922 -0.8628  2.2657  1.1501
  488MOL0     H65869  10.005   2.241   0.809  2.5784  0.5479 -2.1475
  488MOL0     H65870  10.332   2.282   0.651  0.3511  1.6001 -0.1172
  488MOL0     H65871  10.156   2.295   0.635 -0.1434  0.2577 -0.7073
  488MOL0     H65872  10.345   2.464   0.551  0.0253  0.5907 -0.5066
  488MOL0     H65873  10.285   2.555   0.687 -1.6315  0.6661  0.7524
  488MOL0     H65874  10.054   2.551   0.603  0.0373  1.6125 -1.3322
  488MOL0     H65875  10.112   2.447   0.466 -0.4366  0.6411 -0.0898
  488MOL0     H65876  10.240   2.650   0.401  1.4309 -0.4730  0.9975
  488MOL0     H65877  10.159   2.728   0.538 -0.4151 -0.5731 -0.0738
  488MOL0     H65878   9.843   2.656   0.259  1.0139  2.2965 -1.5985
  488MOL0     H65879  10.219   2.589   0.910  1.3298 -2.0570 -0.7445
  488MOL0     H65880  10.013   2.687   1.003  1.2224 -0.5716  2.6535
  489MOL0     O65881   0.989   1.286   1.314  0.3794  0.3407 -0.3725
  489MOL0     C65882   0.956   1.236   1.423  0.6063 -0.0617 -0.0774
  489MOL0     O65883   0.851   1.154   1.443 -0.5848 -0.3775  0.5144
  489MOL0     C65884   0.763   1.100   1.346 -0.5397  0.4632  0.0549
  489MOL0     C65885   0.792   1.083   1.201  0.2192 -0.6727 -0.7460
  489MOL0     C65886   0.708   1.017   1.110 -0.4412  0.3802 -0.0276
  489MOL0     C65887   0.606   0.947   1.165  0.8958  0.2692  0.0091
  489MOL0     O65888   0.525   0.882   1.073  0.1878  0.4889  0.4879
  489MOL0     C65889   0.517   0.741   1.104 -0.4739 -0.4513  0.4442
  489MOL0     C65890   0.382   0.707   1.166 -0.5124 -0.4281 -0.4195
  489MOL0     C65891   0.270   0.746   1.075  0.1930  0.5356 -0.1609
  489MOL0     C65892   0.146   0.661   1.117  0.3201  0.4278  0.1048
  489MOL0     C65893   0.020   0.697   1.038 -0.4453  0.2551 -0.1333
  489MOL0     C65894  -0.092   0.595   1.051 -0.4100 -0.0560  0.1773
  489MOL0     C65895  -0.216   0.660   0.997 -0.1034  0.8146  0.7166
  489MOL0     C65896  -0.312   0.550   0.941 -0.4630 -0.2474  0.2162
  489MOL0     N65897  -0.426   0.620   0.882 -0.2029  0.0948 -0.0759
  489MOL0     C65898  -0.534   0.660   0.955  0.0182 -0.2188  0.1815
  489MOL0     C65899  -0.622   0.692   0.858 -0.0088 -0.5930 -0.0767
  489MOL0     C65900  -0.769   0.727   0.888 -0.0161 -0.0867 -0.1460
  489MOL0     C65901  -0.871   0.622   0.830 -0.7849  0.4168 -0.2386
  489MOL0     C65902  -1.000   0.596   0.907  0.2471 -0.5236 -0.0362
  489MOL0     C65903  -1.094   0.505   0.835 -0.0182 -1.0779 -0.7064
  489MOL0     O65904  -1.051   0.371   0.818  0.7535 -0.6656 -0.0533
  489MOL0     C65905  -1.126   0.257   0.862 -0.1543 -0.5073  0.5764
  489MOL0     C65906  -1.120   0.147   0.777 -0.2392 -0.3017 -0.7725
  489MOL0     C65907  -1.202   0.035   0.798  0.3209  0.2574  0.6061
  489MOL0     C65908  -1.197  -0.076   0.687  0.0488 -0.1267 -0.7186
  489MOL0     C65909  -1.291   0.027   0.909 -0.2592 -0.4939  0.0975
  489MOL0     C65910  -1.404  -0.076   0.934 -0.7008 -0.0691 -1.5988
  489MOL0     O65911  -1.416  -0.167   0.840  0.8248 -0.3928 -0.2211
  489MOL0     C65912  -1.511  -0.268   0.861  0.2023 -0.9809  0.1187
  489MOL0     C65913  -1.512  -0.341   0.980 -0.1620 -0.2616 -0.7959
  489MOL0     C65914  -1.611  -0.435   1.010  0.0848 -1.0757 -0.4408
  489MOL0     C65915  -1.718  -0.458   0.922 -0.3709  0.1747 -0.6550
  489MOL0     O65916  -1.806  -0.544   0.977 -0.2275 -0.0407  0.1651
  489MOL0     C65917  -1.941  -0.538   0.926 -0.4103  0.2459  0.3585
  489MOL0     C65918  -1.946  -0.632   0.807  0.0933 -0.0639  0.1189
  489MOL0     C65919  -2.063  -0.734   0.800  0.3118 -0.1155  0.0694
  489MOL0     C65920  -2.196  -0.657   0.771 -0.5893  0.1068  0.6832
  489MOL0     C65921  -2.305  -0.750   0.697  0.4818  0.3980 -0.6205
  489MOL0     C65922  -2.373  -0.853   0.792  0.5451  0.3294  0.1595
  489MOL0     C65923  -2.496  -0.910   0.726 -0.4099  0.2694 -0.4811
  489MOL0     C65924  -2.576  -1.000   0.813 -0.6706  1.3858  0.7997
  489MOL0    Cl65925  -2.659  -1.110   0.697  0.4442 -0.2969 -0.2242
  489MOL0     C65926  -1.720  -0.383   0.798  0.1369  0.6496  0.2019
  489MOL0     C65927  -1.614  -0.284   0.775  0.0501 -0.5752  0.2142
  489MOL0     O65928  -1.472  -0.073   1.037  0.2881 -0.0395 -0.1926
  489MOL0     C65929  -1.289   0.141   0.998  0.1792 -0.3324 -0.1533
  489MOL0     C65930  -1.209   0.256   0.974  0.7640  0.6807 -0.3881
  489MOL0     N65931  -0.574   0.677   0.731  0.1687  0.2031 -0.2345
  489MOL0     N65932  -0.454   0.639   0.743 -1.0877 -0.3590 -0.3871
  489MOL0     C65933   0.571   0.974   1.296 -0.0018  0.0842 -1.3555
  489MOL0     C65934   0.646   1.044   1.392 -0.9042 -0.0301 -0.3805
  489MOL0     C65935   1.026   1.276   1.548 -0.2817  0.1541 -0.0826
  489MOL0     C65936   0.969   1.246   1.673 -0.5583 -0.5709 -1.1826
  489MOL0     C65937   1.017   1.294   1.793  0.0041 -0.1401  0.2906
  489MOL0     C65938   1.131   1.383   1.787 -0.2646 -0.1792  1.0383
  489MOL0     O65939   1.193   1.432   1.904 -0.6822 -0.8227  1.0572
  489MOL0     C65940   1.162   1.386   2.040 -0.8022  0.0470 -0.3903
  489MOL0     C65941   1.277   1.420   2.141  0.2141  0.4949 -0.8127
  489MOL0     C65942   1.241   1.352   2.282 -0.2582 -0.2852 -1.0076
  489MOL0     C65943   1.353   1.343   2.389  0.0645  0.3375  1.0612
  489MOL0     C65944   1.411   1.470   2.412  0.2900  0.0377 -0.6365
  489MOL0     C65945   1.471   1.577   2.430  0.4633  0.4391  0.0679
  489MOL0     C65946   1.190   1.411   1.665 -0.4057  0.1472  0.5296
  489MOL0     C65947   1.141   1.359   1.545 -0.5043  0.5189 -0.1294
  489MOL0     H65948   0.887   1.120   1.161  0.8574  1.3190  2.2523
  489MOL0     H65949   0.741   1.011   1.007  2.2872  1.7513  0.6877
  489MOL0     H65950   0.534   0.687   1.010  0.4790 -2.0965  1.5179
  489MOL0     H65951   0.595   0.707   1.174  2.5791  3.7441 -0.5268
  489MOL0     H65952   0.383   0.598   1.179 -1.1553 -0.2100  2.0748
  489MOL0     H65953   0.382   0.753   1.265  2.6794  1.6678 -1.2214
  489MOL0     H65954   0.255   0.852   1.099 -0.3865 -0.2312  3.6090
  489MOL0     H65955   0.280   0.724   0.969 -3.8546 -1.8732 -0.2509
  489MOL0     H65956   0.177   0.558   1.100  0.1125  0.2009  1.0407
  489MOL0     H65957   0.138   0.676   1.225  1.0003 -1.3949  0.4409
  489MOL0     H65958  -0.014   0.794   1.076 -0.0411  1.1008 -1.8489
  489MOL0     H65959   0.054   0.714   0.936  1.4860  0.7293  0.5523
  489MOL0     H65960  -0.068   0.498   1.006 -0.6947 -1.1527  2.2713
  489MOL0     H65961  -0.100   0.580   1.159  0.2827  0.7610  0.3546
  489MOL0     H65962  -0.263   0.723   1.073  2.3392  1.1531  2.0134
  489MOL0     H65963  -0.195   0.728   0.914 -2.3665  1.4039  0.5429
  489MOL0     H65964  -0.328   0.489   1.030 -1.5237  0.2686  0.3979
  489MOL0     H65965  -0.265   0.494   0.860 -0.1384  2.9474 -2.0109
  489MOL0     H65966  -0.547   0.638   1.060  2.8602 -1.9539  0.2779
  489MOL0     H65967  -0.783   0.734   0.997  0.0590 -0.5121 -0.1077
  489MOL0     H65968  -0.797   0.827   0.855 -0.7352  0.1110  0.9874
  489MOL0     H65969  -0.811   0.532   0.815 -1.5528  0.1473 -1.8885
  489MOL0     H65970  -0.885   0.652   0.725  0.5683 -0.2338 -0.6312
  489MOL0     H65971  -1.050   0.687   0.939 -0.7404 -0.1643 -2.3620
  489MOL0     H65972  -0.971   0.541   0.997  1.9295 -2.2528 -1.5249
  489MOL0     H65973  -1.103   0.555   0.738 -2.1113 -2.8920 -1.5454
  489MOL0     H65974  -1.187   0.526   0.888  0.6932  2.2555 -0.5304
  489MOL0     H65975  -1.076   0.153   0.679  0.1327 -3.0337 -0.8307
  489MOL0     H65976  -1.293  -0.069   0.635 -2.2913 -1.9826  2.9557
  489MOL0     H65977  -1.116  -0.059   0.616 -0.2536  0.2892 -0.9765
  489MOL0     H65978  -1.194  -0.177   0.728 -4.3524 -0.6596 -1.1544
  489MOL0     H65979  -1.436  -0.315   1.053  0.0985  3.8129 -2.2370
  489MOL0     H65980  -1.623  -0.480   1.108 -1.6408  0.2447  0.0021
  489MOL0     H65981  -2.007  -0.570   1.006  0.1964 -0.5555  0.5471
  489MOL0     H65982  -1.975  -0.437   0.899 -2.4357 -0.3440  0.5496
  489MOL0     H65983  -1.941  -0.573   0.716 -0.2177 -2.0830 -1.2891
  489MOL0     H65984  -1.852  -0.689   0.806  1.0653  1.4492  1.0358
  489MOL0     H65985  -2.065  -0.795   0.890 -2.0351  0.8685  0.7548
  489MOL0     H65986  -2.057  -0.805   0.717 -2.1147  0.4581 -0.6878
  489MOL0     H65987  -2.240  -0.614   0.862  0.5214  0.4967  1.0541
  489MOL0     H65988  -2.176  -0.571   0.706 -0.6995 -0.7217 -0.4888
  489MOL0     H65989  -2.262  -0.809   0.616  0.8542 -1.2037  0.6811
  489MOL0     H65990  -2.383  -0.679   0.666 -1.7212 -0.9202  1.5125
  489MOL0     H65991  -2.290  -0.924   0.803 -0.1344 -0.2767  1.5069
  489MOL0     H65992  -2.392  -0.786   0.876  1.6108  2.3075 -1.0913
  489MOL0     H65993  -2.470  -0.962   0.633  2.5906 -0.1523  0.4812
  489MOL0     H65994  -2.568  -0.834   0.697 -0.4195  2.0318  3.5525
  489MOL0     H65995  -2.641  -0.941   0.878  0.6711  1.3839  2.1932
  489MOL0     H65996  -2.507  -1.061   0.872 -0.6648  0.3124 -0.2989
  489MOL0     H65997  -1.794  -0.381   0.719 -0.6782  0.1520  0.9395
  489MOL0     H65998  -1.620  -0.218   0.688  0.2327 -0.7588  0.0630
  489MOL0     H65999  -1.350   0.132   1.087  2.5023 -1.6551  1.4282
  489MOL0     H66000  -1.231   0.348   1.029  0.3773 -0.5315  1.5796
  489MOL0     H66001   0.468   0.965   1.330  0.2161  2.6932  0.2894
  489MOL0     H66002   0.613   1.059   1.494 -2.7553  1.6897 -1.1579
  489MOL0     H66003   0.892   1.170   1.682  1.3897 -2.4028  2.7066
  489MOL0     H66004   0.972   1.263   1.887  1.6295  0.2803  1.2354
  489MOL0     H66005   1.079   1.442   2.084 -1.4373 -3.9749  4.3542
  489MOL0     H66006   1.131   1.282   2.035  0.4532 -0.3089 -2.5437
  489MOL0     H66007   1.288   1.528   2.153 -2.5921  0.6985  0.6484
  489MOL0     H66008   1.369   1.371   2.109  0.5618 -0.5803  1.6169
  489MOL0     H66009   1.207   1.250   2.262  3.2132 -1.5330 -1.3130
  489MOL0     H66010   1.165   1.417   2.325 -1.4245 -1.9329 -0.4753
  489MOL0     H66011   1.422   1.269   2.348  0.8593  1.1073  0.9750
  489MOL0     H66012   1.319   1.313   2.489 -0.9752 -0.6972  0.4208
  489MOL0     H66013   1.520   1.672   2.436 -1.2699  1.7306 -3.4799
  489MOL0     H66014   1.271   1.483   1.677  0.9011 -1.3444  1.0285
  489MOL0     H66015   1.184   1.407   1.457  0.0952  1.3321  0.5986
  490MOL0     O66016   7.055   2.565   9.613 -0.5568 -0.1859  0.4984
  490MOL0     C66017   7.042   2.513   9.505 -0.1435 -0.2168 -1.6227
  490MOL0     O66018   7.120   2.523   9.394 -0.3438  0.4112  0.0575
  490MOL0     C66019   7.242   2.582   9.405 -0.4486  0.5201 -0.3642
  490MOL0     C66020   7.356   2.503   9.378 -0.4372  0.6890 -0.5756
  490MOL0     C66021   7.486   2.553   9.400  0.3592 -0.4708  1.0102
  490MOL0     C66022   7.500   2.690   9.441 -1.4259 -0.4436  0.0797
  490MOL0     O66023   7.633   2.723   9.459  0.5312  0.1871  0.0043
  490MOL0     C66024   7.671   2.853   9.496  0.3060  0.3515 -0.3057
  490MOL0     C66025   7.820   2.873   9.502 -0.6870 -0.6653  0.0111
  490MOL0     C66026   7.864   3.012   9.549  0.0085  0.0679  0.3972
  490MOL0     C66027   8.014   3.042   9.510  1.0697  0.3437 -0.3834
  490MOL0     C66028   8.060   3.160   9.592  0.2994  0.0418 -0.3803
  490MOL0     C66029   8.129   3.120   9.728  0.8477 -0.0380  0.3124
  490MOL0     C66030   8.161   3.242   9.812  0.7669 -0.8802 -0.9619
  490MOL0     C66031   8.051   3.250   9.930 -0.6159  0.6970  0.1557
  490MOL0     N66032   7.916   3.277   9.876  0.0700  0.4084  0.1619
  490MOL0     C66033   7.821   3.175   9.876  0.5508  0.5645  0.0130
  490MOL0     C66034   7.702   3.234   9.858 -0.0161  0.0751  0.4658
  490MOL0     C66035   7.580   3.156   9.845  0.5623  0.2238 -0.2382
  490MOL0     C66036   7.494   3.197   9.718 -0.2159 -0.4988  0.7119
  490MOL0     C66037   7.364   3.126   9.704 -0.6303  0.5958  0.7191
  490MOL0     C66038   7.310   3.160   9.566 -1.1131 -0.1466  0.3328
  490MOL0     O66039   7.176   3.116   9.561 -0.2853  0.0738  0.9630
  490MOL0     C66040   7.089   3.159   9.460  0.3022 -0.2955  0.5685
  490MOL0     C66041   6.953   3.144   9.483 -0.8839  0.6687 -0.4746
  490MOL0     C66042   6.858   3.171   9.386 -0.1585 -0.2629  0.2705
  490MOL0     C66043   6.715   3.147   9.414  0.9505 -1.0270  0.0594
  490MOL0     C66044   6.897   3.231   9.260 -0.4780  0.5214 -0.3093
  490MOL0     C66045   6.801   3.273   9.157  0.8523  0.8983  0.4257
  490MOL0     O66046   6.696   3.181   9.124 -0.4289  0.0647  0.0223
  490MOL0     C66047   6.585   3.224   9.047 -0.4824 -0.1473  0.4055
  490MOL0     C66048   6.485   3.127   9.024 -0.4260 -0.5289 -0.0989
  490MOL0     C66049   6.372   3.156   8.942  0.7164 -0.2076  0.3261
  490MOL0     C66050   6.353   3.277   8.888  0.3984 -0.4423 -0.0660
  490MOL0     O66051   6.249   3.288   8.796 -0.1492  0.9265  0.5043
  490MOL0     C66052   6.248   3.398   8.703 -0.3611  0.0421  0.9057
  490MOL0     C66053   6.355   3.384   8.589  0.1856  0.0123 -0.3216
  490MOL0     C66054   6.332   3.490   8.483 -0.3692  0.4280 -0.0645
  490MOL0     C66055   6.200   3.481   8.407  0.3869 -0.4965  0.3511
  490MOL0     C66056   6.197   3.574   8.290  0.5750 -0.8195 -0.5781
  490MOL0     C66057   6.081   3.558   8.185  0.2176 -0.8152  0.2232
  490MOL0     C66058   5.942   3.579   8.257  0.1863 -0.3663 -0.0153
  490MOL0     C66059   5.887   3.722   8.244  0.5853  0.2181 -0.5199
  490MOL0    Cl66060   5.745   3.721   8.356  0.1881 -0.5097 -0.1089
  490MOL0     C66061   6.435   3.375   8.928 -0.2192  0.2756 -0.4478
  490MOL0     C66062   6.546   3.352   9.008 -0.2556 -1.3435  0.0981
  490MOL0     O66063   6.818   3.379   9.098 -0.6258 -0.8488  0.0245
  490MOL0     C66064   7.039   3.245   9.240  0.5255 -0.9806  1.0673
  490MOL0     C66065   7.136   3.212   9.332  0.2813  0.0455  0.0041
  490MOL0     N66066   7.725   3.372   9.835 -1.2161 -0.1377  0.0367
  490MOL0     N66067   7.857   3.394   9.844 -0.9943 -0.8948 -0.2225
  490MOL0     C66068   7.394   2.773   9.456  0.2506  0.1343  0.1706
  490MOL0     C66069   7.261   2.720   9.438  0.3061  0.0501 -0.5215
  490MOL0     C66070   6.920   2.430   9.491  0.7782  0.8142 -0.2743
  490MOL0     C66071   6.815   2.434   9.578 -0.6511  0.1920  0.4333
  490MOL0     C66072   6.701   2.356   9.561 -0.3077 -0.0725  0.6252
  490MOL0     C66073   6.687   2.264   9.456  0.0427  0.7664  0.4040
  490MOL0     O66074   6.582   2.181   9.439  0.0904  0.6989  0.0595
  490MOL0     C66075   6.456   2.200   9.500  0.0363  0.1585  0.3182
  490MOL0     C66076   6.356   2.138   9.400 -0.1489  0.1323 -0.0603
  490MOL0     C66077   6.221   2.145   9.456 -0.0664 -0.1693  0.1197
  490MOL0     C66078   6.185   2.037   9.564 -0.1703  0.1246  1.0843
  490MOL0     C66079   6.051   2.049   9.617  0.0113  0.0049  0.2881
  490MOL0     C66080   5.944   2.067   9.665  1.0404  0.0790  0.6566
  490MOL0     C66081   6.800   2.253   9.371  0.2893  0.2979 -0.6943
  490MOL0     C66082   6.908   2.338   9.382 -0.3443 -0.1295 -0.0849
  490MOL0     H66083   7.350   2.396   9.363  2.3191 -0.3384  3.7354
  490MOL0     H66084   7.565   2.489   9.360  0.0984  0.8186 -1.7568
  490MOL0     H66085   7.622   2.924   9.429  0.0357 -0.6584 -1.2056
  490MOL0     H66086   7.621   2.870   9.591  0.1406  1.0824 -0.5170
  490MOL0     H66087   7.865   2.793   9.561  1.4471  1.9980  2.2985
  490MOL0     H66088   7.854   2.872   9.399  0.5345 -1.6688  0.4107
  490MOL0     H66089   7.801   3.093   9.512  0.5944  0.5964  0.5274
  490MOL0     H66090   7.855   3.017   9.657 -0.4624  2.5711  0.2911
  490MOL0     H66091   8.080   2.960   9.539 -1.0243 -1.2427  0.0899
  490MOL0     H66092   8.013   3.062   9.402  1.9106  1.7589 -0.1551
  490MOL0     H66093   8.134   3.219   9.536 -1.2657  1.1166 -1.3997
  490MOL0     H66094   7.972   3.220   9.616 -1.4988 -3.1707  1.7309
  490MOL0     H66095   8.069   3.047   9.783 -0.6335 -0.5433 -1.8370
  490MOL0     H66096   8.223   3.083   9.687  1.1617  2.1460 -1.0892
  490MOL0     H66097   8.263   3.247   9.851  0.7682  1.8706 -1.1089
  490MOL0     H66098   8.153   3.342   9.767 -0.1373  0.0683  1.1807
  490MOL0     H66099   8.084   3.331   9.995 -1.2635  1.2149 -0.1536
  490MOL0     H66100   8.061   3.152   9.978  0.4748 -1.4483 -3.9364
  490MOL0     H66101   7.834   3.069   9.892  0.0499  0.3977 -0.6221
  490MOL0     H66102   7.597   3.048   9.840 -2.2997 -0.2724 -1.1292
  490MOL0     H66103   7.525   3.177   9.937  3.1121  2.2783  0.9338
  490MOL0     H66104   7.558   3.195   9.630  0.1248  2.5481  0.7832
  490MOL0     H66105   7.467   3.302   9.730 -2.7745 -0.6750 -2.3081
  490MOL0     H66106   7.305   3.175   9.781  0.4340  1.7781  0.8048
  490MOL0     H66107   7.374   3.017   9.712 -0.3620  0.2600 -2.6803
  490MOL0     H66108   7.371   3.115   9.487  1.1507  0.3571  1.7120
  490MOL0     H66109   7.312   3.267   9.544 -1.5366 -0.6823 -2.7754
  490MOL0     H66110   6.923   3.109   9.581 -0.1607  0.0753 -0.4549
  490MOL0     H66111   6.685   3.048   9.380  1.3339 -0.4770 -2.0461
  490MOL0     H66112   6.689   3.147   9.520 -2.0905  0.0150 -0.5815
  490MOL0     H66113   6.652   3.223   9.366  0.6975 -1.8319 -0.9195
  490MOL0     H66114   6.503   3.028   9.065  1.3760  0.5446  1.9171
  490MOL0     H66115   6.309   3.074   8.909 -1.1900  1.1889  0.3088
  490MOL0     H66116   6.154   3.408   8.648  1.0641  1.5611 -1.4052
  490MOL0     H66117   6.258   3.495   8.751 -0.4317 -0.7269  2.5561
  490MOL0     H66118   6.446   3.415   8.642 -0.7049 -1.4265  2.2087
  490MOL0     H66119   6.359   3.278   8.563  0.4734  0.1570 -0.8987
  490MOL0     H66120   6.404   3.476   8.401  1.0453 -3.6546  1.5791
  490MOL0     H66121   6.340   3.590   8.527 -1.3490 -0.4431  2.2408
  490MOL0     H66122   6.193   3.377   8.375  0.7167 -0.2125 -0.6846
  490MOL0     H66123   6.112   3.499   8.470 -0.2725  0.9975 -0.9495
  490MOL0     H66124   6.295   3.567   8.241  0.2822 -0.4456 -1.2403
  490MOL0     H66125   6.208   3.679   8.320 -4.2876 -0.5721  1.1326
  490MOL0     H66126   6.099   3.630   8.104  1.2997  0.5801  1.6441
  490MOL0     H66127   6.088   3.455   8.150 -1.0158 -1.6697  2.2714
  490MOL0     H66128   5.927   3.548   8.361 -1.1462  0.3428  0.0303
  490MOL0     H66129   5.871   3.519   8.199 -1.8412 -0.6694  2.5938
  490MOL0     H66130   5.859   3.738   8.139  3.0177  1.2573 -1.0821
  490MOL0     H66131   5.961   3.799   8.267  1.3259 -0.3458 -0.9304
  490MOL0     H66132   6.407   3.479   8.910  0.1601  0.6123  0.8432
  490MOL0     H66133   6.591   3.439   9.054 -4.3391  2.5071 -2.3947
  490MOL0     H66134   7.091   3.277   9.150  3.1519 -5.2566  0.8302
  490MOL0     H66135   7.239   3.240   9.314  0.1548 -1.6214 -4.6257
  490MOL0     H66136   7.395   2.881   9.466  0.3966  0.1423  0.0719
  490MOL0     H66137   7.168   2.777   9.446 -0.0221 -0.6385  1.0392
  490MOL0     H66138   6.819   2.519   9.646  1.9399  1.1376 -0.7385
  490MOL0     H66139   6.621   2.359   9.634 -1.4386  0.7520 -0.5919
  490MOL0     H66140   6.455   2.143   9.593  0.1616  4.4127  3.1578
  490MOL0     H66141   6.433   2.305   9.518  0.1946  0.0909  0.9139
  490MOL0     H66142   6.399   2.037   9.392  2.0927  1.1346 -1.6547
  490MOL0     H66143   6.362   2.186   9.302 -3.3421 -1.3733 -1.1399
  490MOL0     H66144   6.157   2.145   9.368  1.0544 -0.0836 -0.7240
  490MOL0     H66145   6.211   2.241   9.507  0.1522 -0.2848  0.3831
  490MOL0     H66146   6.257   2.046   9.646 -0.3900 -0.4558  1.3466
  490MOL0     H66147   6.203   1.939   9.519 -2.2742  1.3858 -2.9092
  490MOL0     H66148   5.844   2.092   9.696  0.6227  0.4466 -0.8626
  490MOL0     H66149   6.801   2.183   9.288 -1.4708  0.3168 -0.7572
  490MOL0     H66150   6.986   2.330   9.308 -0.9085 -1.5966 -0.5721
  491MOL0     O66151   1.835  11.304   9.109 -0.5446  0.1095  0.4583
  491MOL0     C66152   1.906  11.403   9.069 -1.9392 -0.0597 -0.6854
  491MOL0     O66153   1.863  11.531   9.042 -0.0926  0.1187  0.3931
  491MOL0     C66154   1.725  11.559   9.054 -1.0300 -0.2415 -0.1749
  491MOL0     C66155   1.667  11.627   8.948  0.2732  0.4787  0.0735
  491MOL0     C66156   1.530  11.671   8.960  0.5259 -0.1268  0.0388
  491MOL0     C66157   1.448  11.635   9.076  0.6519 -0.1274  0.3086
  491MOL0     O66158   1.314  11.677   9.100 -0.2072 -0.6409 -0.2671
  491MOL0     C66159   1.269  11.783   9.024 -0.7469  0.3071 -0.1843
  491MOL0     C66160   1.138  11.834   9.090  0.0517  0.7138 -0.6888
  491MOL0     C66161   1.109  11.972   9.039  0.4660  0.4606 -0.4157
  491MOL0     C66162   0.976  12.017   9.111  0.4071  0.5221 -0.3935
  491MOL0     C66163   0.924  12.155   9.045 -0.7456  0.7249 -0.4240
  491MOL0     C66164   0.791  12.216   9.103 -0.0714 -0.4558 -0.7787
  491MOL0     C66165   0.786  12.220   9.260  0.1670  0.1515 -0.1087
  491MOL0     C66166   0.647  12.252   9.316 -0.2213  0.2876  0.0985
  491MOL0     N66167   0.611  12.396   9.283 -0.5827  0.3097  0.1087
  491MOL0     C66168   0.638  12.497   9.375  0.4889  0.2952  0.6548
  491MOL0     C66169   0.609  12.617   9.307 -0.6299  0.0292 -0.3854
  491MOL0     C66170   0.612  12.759   9.362  0.9182 -0.2698 -0.9041
  491MOL0     C66171   0.554  12.762   9.499 -0.4471 -1.0319 -0.1584
  491MOL0     C66172   0.418  12.680   9.523  0.9257 -0.5217  0.0433
  491MOL0     C66173   0.341  12.726   9.657  0.3178  0.4650 -0.1472
  491MOL0     O66174   0.202  12.697   9.641 -0.1468  0.1851 -0.0870
  491MOL0     C66175   0.114  12.800   9.620  0.8680 -0.0823 -0.1567
  491MOL0     C66176  -0.008  12.783   9.687 -0.1220  1.1056  0.0243
  491MOL0     C66177  -0.106  12.881   9.687 -0.4552 -0.4792  0.4975
  491MOL0     C66178  -0.232  12.848   9.753 -0.0483  0.5685 -0.3298
  491MOL0     C66179  -0.079  13.004   9.615  0.4690 -0.6132 -0.0193
  491MOL0     C66180  -0.178  13.102   9.589 -0.1821  1.0330 -0.3386
  491MOL0     O66181  -0.127  13.222   9.558 -0.0544 -0.1485 -0.1834
  491MOL0     C66182  -0.217  13.292   9.481 -0.9478 -0.9479  0.9521
  491MOL0     C66183  -0.261  13.244   9.355 -0.7608 -0.4601  0.2258
  491MOL0     C66184  -0.364  13.318   9.297  0.1102  0.3246 -0.3553
  491MOL0     C66185  -0.431  13.428   9.360 -0.2747  0.4469 -0.1182
  491MOL0     O66186  -0.531  13.499   9.296  0.3402  0.1069  0.3001
  491MOL0     C66187  -0.540  13.478   9.156  0.6940 -0.7591 -0.6598
  491MOL0     C66188  -0.634  13.585   9.097 -0.2319 -0.6201  0.3655
  491MOL0     C66189  -0.780  13.565   9.135  0.1013 -0.0363  0.4547
  491MOL0     C66190  -0.863  13.690   9.111  0.8940 -0.1403  0.1419
  491MOL0     C66191  -0.839  13.786   9.229 -0.1297  0.9979 -0.1555
  491MOL0     C66192  -0.873  13.931   9.212  1.1038 -0.6866  0.3733
  491MOL0     C66193  -0.851  14.010   9.334  0.0894  0.1952  0.3370
  491MOL0     C66194  -0.832  14.163   9.314 -0.0049 -0.2232  0.1555
  491MOL0    Cl66195  -0.673  14.175   9.234  0.4452  0.0200  0.3291
  491MOL0     C66196  -0.383  13.472   9.487 -0.0732  0.1558 -0.6280
  491MOL0     C66197  -0.273  13.405   9.539 -0.2588  0.7572  0.3284
  491MOL0     O66198  -0.301  13.075   9.599 -0.6055 -0.6970 -0.2457
  491MOL0     C66199   0.047  13.020   9.553  0.3447  0.4059 -0.1267
  491MOL0     C66200   0.144  12.922   9.564 -0.0892 -0.0608  0.2827
  491MOL0     N66201   0.572  12.581   9.182 -0.0845  0.2394 -0.5884
  491MOL0     N66202   0.563  12.457   9.169  0.1270  0.4553 -0.6027
  491MOL0     C66203   1.511  11.558   9.180 -0.9610 -0.2070  0.2770
  491MOL0     C66204   1.651  11.534   9.166 -1.2912 -0.1002  0.0252
  491MOL0     C66205   2.050  11.390   9.036  0.3134  0.8528  0.4103
  491MOL0     C66206   2.126  11.486   8.964 -0.3835 -0.3829  0.6484
  491MOL0     C66207   2.256  11.452   8.918 -0.2375 -0.5945 -0.5016
  491MOL0     C66208   2.317  11.328   8.951 -0.2655 -0.2532 -0.0393
  491MOL0     O66209   2.435  11.282   8.902  0.1123 -0.0608  0.3778
  491MOL0     C66210   2.555  11.361   8.922 -0.5152  0.5317 -0.2130
  491MOL0     C66211   2.606  11.362   9.065 -0.5903  0.3815 -0.0397
  491MOL0     C66212   2.664  11.229   9.117 -0.4794 -0.2746 -0.6870
  491MOL0     C66213   2.697  11.271   9.262 -0.4518 -0.5413 -0.4654
  491MOL0     C66214   2.834  11.332   9.272 -0.0432 -0.2245 -1.5267
  491MOL0     C66215   2.950  11.361   9.276 -0.1205  0.0538  0.4332
  491MOL0     C66216   2.240  11.242   9.033  0.3756 -0.1664  1.1739
  491MOL0     C66217   2.107  11.266   9.071 -0.1034  0.5766 -1.0016
  491MOL0     H66218   1.728  11.624   8.859  0.8866  1.5596  0.4399
  491MOL0     H66219   1.483  11.735   8.885  1.9064 -0.0437 -0.7805
  491MOL0     H66220   1.343  11.863   9.021  0.6805 -0.9516 -0.1601
  491MOL0     H66221   1.249  11.749   8.922  0.5406 -0.5228 -0.1869
  491MOL0     H66222   1.058  11.761   9.073  1.1424 -1.2812  1.9118
  491MOL0     H66223   1.149  11.841   9.199 -5.3775  0.5747  0.1186
  491MOL0     H66224   1.189  12.043   9.061  0.8746 -0.7861  2.5243
  491MOL0     H66225   1.091  11.963   8.931  1.5130  1.8154 -0.7395
  491MOL0     H66226   0.897  11.941   9.111  0.0080  0.8535 -2.8459
  491MOL0     H66227   1.008  12.041   9.212  1.5000 -0.5099 -0.4800
  491MOL0     H66228   1.011  12.221   9.046  2.1027 -2.6689 -0.8336
  491MOL0     H66229   0.908  12.143   8.937 -1.2334  1.0003 -0.3859
  491MOL0     H66230   0.782  12.315   9.058 -3.1754 -0.3018 -0.0414
  491MOL0     H66231   0.701  12.170   9.060 -2.6389  2.3772  1.1210
  491MOL0     H66232   0.815  12.124   9.305 -0.7970  0.4012  1.0810
  491MOL0     H66233   0.854  12.296   9.300  0.3210 -0.6455  1.1887
  491MOL0     H66234   0.650  12.249   9.426  1.3278  1.9991  0.1574
  491MOL0     H66235   0.572  12.181   9.283 -1.3022  0.5524  1.8592
  491MOL0     H66236   0.658  12.496   9.482 -3.9294  0.2278  1.6837
  491MOL0     H66237   0.711  12.804   9.371  0.6442  0.1219  0.3852
  491MOL0     H66238   0.567  12.832   9.296  0.3316  2.2450  2.0521
  491MOL0     H66239   0.526  12.865   9.522 -1.9328 -1.8984  2.1956
  491MOL0     H66240   0.622  12.727   9.577  0.5573 -1.5620 -1.2335
  491MOL0     H66241   0.417  12.571   9.521 -0.3765 -0.5822  1.7479
  491MOL0     H66242   0.349  12.714   9.444 -0.2754 -1.8631  0.4697
  491MOL0     H66243   0.355  12.831   9.684  1.4514  0.2807  0.0209
  491MOL0     H66244   0.388  12.667   9.736 -0.6897  0.1253  0.2043
  491MOL0     H66245  -0.027  12.689   9.739  2.5150  0.8726  0.7148
  491MOL0     H66246  -0.303  12.817   9.676  0.8850 -2.0563 -0.2226
  491MOL0     H66247  -0.225  12.764   9.822  1.0229  0.5516 -0.4413
  491MOL0     H66248  -0.264  12.934   9.813  1.9190  0.2021  1.3245
  491MOL0     H66249  -0.217  13.154   9.314 -0.7362 -0.2870 -0.1280
  491MOL0     H66250  -0.401  13.280   9.202  1.8496  1.0156 -1.3323
  491MOL0     H66251  -0.445  13.491   9.104  0.9859 -2.3752 -0.5759
  491MOL0     H66252  -0.583  13.379   9.146  0.7203 -0.7623 -0.7414
  491MOL0     H66253  -0.588  13.674   9.141  0.5318  0.7397 -2.8863
  491MOL0     H66254  -0.641  13.579   8.988  0.3062  0.3525  0.2653
  491MOL0     H66255  -0.788  13.532   9.239  0.7706 -1.8272 -0.0310
  491MOL0     H66256  -0.833  13.494   9.071 -2.5018 -0.9871  3.4014
  491MOL0     H66257  -0.847  13.741   9.015 -1.4712  1.1311  0.3700
  491MOL0     H66258  -0.968  13.662   9.103  1.2911 -1.3874 -1.1405
  491MOL0     H66259  -0.739  13.783   9.273  0.0337  0.9698 -0.5201
  491MOL0     H66260  -0.900  13.753   9.314  1.6145  1.1946  1.2286
  491MOL0     H66261  -0.819  13.974   9.127  1.5217  1.8395  1.8241
  491MOL0     H66262  -0.982  13.931   9.203  1.0487 -1.5626  0.9998
  491MOL0     H66263  -0.761  13.973   9.383 -0.4473  1.5664  2.5024
  491MOL0     H66264  -0.933  13.988   9.404  0.3868 -0.7532  0.4043
  491MOL0     H66265  -0.834  14.220   9.408 -2.3193 -0.3717  0.2470
  491MOL0     H66266  -0.914  14.195   9.249 -1.3820 -1.6840  1.1054
  491MOL0     H66267  -0.422  13.559   9.539  1.1583  0.5428 -0.3040
  491MOL0     H66268  -0.238  13.446   9.633  0.7024 -0.7898  0.6704
  491MOL0     H66269   0.055  13.108   9.489  0.9947  0.4088 -0.0490
  491MOL0     H66270   0.238  12.934   9.513 -0.8644  0.7292 -1.0020
  491MOL0     H66271   1.445  11.543   9.265  0.6918  1.5112  1.9849
  491MOL0     H66272   1.701  11.479   9.245 -1.1964 -1.4814 -0.9561
  491MOL0     H66273   2.086  11.580   8.929 -1.2359 -1.7213 -2.2382
  491MOL0     H66274   2.302  11.530   8.858 -0.4030 -1.7471 -2.1750
  491MOL0     H66275   2.635  11.310   8.868 -0.8871  0.9067 -1.1399
  491MOL0     H66276   2.543  11.461   8.880 -0.2602  1.8134  2.5320
  491MOL0     H66277   2.535  11.400   9.138  1.3664  1.8801  1.1816
  491MOL0     H66278   2.689  11.434   9.065  1.1969 -1.5538  0.7018
  491MOL0     H66279   2.754  11.194   9.067 -1.0958 -3.3961  0.1717
  491MOL0     H66280   2.584  11.155   9.114 -0.2851 -0.5425  0.2586
  491MOL0     H66281   2.695  11.186   9.330  0.8634  0.6484  1.1420
  491MOL0     H66282   2.633  11.351   9.302  0.3501 -1.3586  2.7673
  491MOL0     H66283   3.055  11.370   9.257  0.2420 -0.5431  1.9336
  491MOL0     H66284   2.280  11.144   9.056 -0.5359 -1.0391 -0.6547
  491MOL0     H66285   2.046  11.194   9.125  1.5735 -1.3339 -1.5449
  492MOL0     O66286  10.961   1.616   1.673 -0.1522  0.4121  0.4825
  492MOL0     C66287  10.924   1.587   1.786  0.2233 -0.1785 -0.2281
  492MOL0     O66288  10.835   1.491   1.821 -0.0481 -0.0899 -0.2599
  492MOL0     C66289  10.777   1.415   1.718 -0.5940 -0.0746 -0.2747
  492MOL0     C66290  10.649   1.374   1.759 -0.3535 -0.0122 -0.5719
  492MOL0     C66291  10.575   1.297   1.677 -0.7423  0.3232  0.0599
  492MOL0     C66292  10.624   1.235   1.562  0.5209 -1.0471  0.6020
  492MOL0     O66293  10.562   1.144   1.479 -0.3468 -0.9850  0.4913
  492MOL0     C66294  10.454   1.069   1.538  0.0086 -0.0723  0.2022
  492MOL0     C66295  10.323   1.146   1.508  0.6590  1.1412  0.1388
  492MOL0     C66296  10.198   1.055   1.542 -0.6871 -0.3603  1.1110
  492MOL0     C66297  10.160   1.068   1.688 -0.4224  0.8337  0.0966
  492MOL0     C66298  10.050   0.969   1.735  0.7819  0.5817 -0.0653
  492MOL0     C66299  10.033   0.956   1.883 -0.2743  0.3496  0.1354
  492MOL0     C66300   9.927   0.847   1.919  0.5078  0.5117 -0.2715
  492MOL0     C66301   9.962   0.708   1.879  1.8906  0.6438 -0.2184
  492MOL0     N66302   9.847   0.622   1.926 -0.0474  0.5573 -0.1530
  492MOL0     C66303   9.838   0.575   2.057 -0.4077 -0.3757  0.2123
  492MOL0     C66304   9.697   0.550   2.068 -0.2835  0.3234  0.3890
  492MOL0     C66305   9.636   0.491   2.199  0.2713 -0.2004 -0.4733
  492MOL0     C66306   9.480   0.480   2.176 -0.3690 -0.7716 -0.2319
  492MOL0     C66307   9.408   0.621   2.173  0.0008  0.6544  0.7453
  492MOL0     C66308   9.261   0.613   2.190  0.9940  0.5412 -0.0230
  492MOL0     O66309   9.198   0.538   2.087  0.6229  0.1941  0.5404
  492MOL0     C66310   9.066   0.510   2.110 -0.2286 -0.4372  0.4538
  492MOL0     C66311   9.027   0.393   2.042 -0.3491 -0.1428  0.5449
  492MOL0     C66312   8.896   0.353   2.049  1.5135  0.1811  0.2021
  492MOL0     C66313   8.852   0.234   1.961  0.3725  0.1684  0.3035
  492MOL0     C66314   8.803   0.424   2.127 -0.3683 -0.2553 -0.0635
  492MOL0     C66315   8.660   0.394   2.155  0.1736 -0.1956  0.5678
  492MOL0     O66316   8.623   0.269   2.142 -0.1193 -0.2585 -0.1483
  492MOL0     C66317   8.490   0.236   2.145  0.8024 -0.4105  0.0727
  492MOL0     C66318   8.428   0.212   2.017 -0.3186  0.0763 -0.5437
  492MOL0     C66319   8.301   0.157   2.006  0.2876 -0.3649 -0.5288
  492MOL0     C66320   8.227   0.138   2.125  0.0545  0.5948  0.5129
  492MOL0     O66321   8.110   0.075   2.122  0.1880 -0.4584 -0.4610
  492MOL0     C66322   8.000   0.165   2.144 -0.7469  0.2194 -0.7240
  492MOL0     C66323   7.925   0.222   2.023  0.1078  0.4051  0.1201
  492MOL0     C66324   7.851   0.105   1.949  0.0820 -0.0773  0.1041
  492MOL0     C66325   7.722   0.068   2.027 -0.1136 -0.0440 -0.2636
  492MOL0     C66326   7.618   0.011   1.931 -0.9774  0.7325 -0.7184
  492MOL0     C66327   7.487  -0.019   2.004  0.0682 -0.4259  0.5443
  492MOL0     C66328   7.395  -0.092   1.909  0.1856 -0.0646  0.0520
  492MOL0     C66329   7.267  -0.130   1.983 -0.0665  0.0990 -0.3524
  492MOL0    Cl66330   7.157  -0.172   1.846 -0.1000  0.1028  0.4423
  492MOL0     C66331   8.276   0.171   2.250  0.8559  0.8054 -0.1049
  492MOL0     C66332   8.417   0.217   2.260  0.5709  0.8153 -0.1804
  492MOL0     O66333   8.588   0.484   2.190 -0.1673  0.5972 -0.0626
  492MOL0     C66334   8.849   0.536   2.202  0.3085  0.6891 -1.2274
  492MOL0     C66335   8.984   0.583   2.194  0.3205 -0.3205 -0.0922
  492MOL0     N66336   9.636   0.569   1.944  0.5633 -0.0607 -0.2725
  492MOL0     N66337   9.731   0.609   1.863 -0.5074  0.6713 -0.0922
  492MOL0     C66338  10.754   1.270   1.524  0.0560 -0.4545 -0.9928
  492MOL0     C66339  10.831   1.362   1.597 -0.4544 -0.1850 -0.7489
  492MOL0     C66340  10.973   1.674   1.905 -0.3143 -0.3236  0.0850
  492MOL0     C66341  11.090   1.745   1.893  0.0617  0.6034 -0.1792
  492MOL0     C66342  11.159   1.795   2.006 -0.2681 -0.4401 -0.2323
  492MOL0     C66343  11.090   1.802   2.128 -0.3406 -0.7285 -0.5363
  492MOL0     O66344  11.139   1.862   2.241 -0.5464  0.4991 -0.1216
  492MOL0     C66345  11.281   1.902   2.242 -0.4524  0.4399 -0.4616
  492MOL0     C66346  11.325   1.972   2.380  0.2835  1.5490  0.1451
  492MOL0     C66347  11.226   2.078   2.426  1.0496 -1.2051 -0.4984
  492MOL0     C66348  11.187   2.182   2.322  0.0534  0.0041 -0.4652
  492MOL0     C66349  11.304   2.257   2.282  0.3556  0.1498  0.6124
  492MOL0     C66350  11.398   2.330   2.268 -0.5934 -0.7490 -0.3887
  492MOL0     C66351  10.963   1.748   2.140  0.2351  0.3774 -0.4114
  492MOL0     C66352  10.905   1.677   2.029 -0.9773 -0.0050  0.4850
  492MOL0     H66353  10.600   1.412   1.848 -0.9858 -1.0494 -0.4608
  492MOL0     H66354  10.480   1.276   1.725 -0.9091  0.4168 -0.2243
  492MOL0     H66355  10.459   0.972   1.489 -2.0838 -0.3323  0.4103
  492MOL0     H66356  10.463   1.055   1.646 -2.7529  0.0948  0.5488
  492MOL0     H66357  10.327   1.230   1.578  0.7829  0.5190  0.9005
  492MOL0     H66358  10.314   1.177   1.404  0.0915 -1.0910 -0.5306
  492MOL0     H66359  10.111   1.087   1.482 -0.4834 -1.7084  0.0443
  492MOL0     H66360  10.212   0.949   1.519 -3.1934 -1.1308  2.7414
  492MOL0     H66361  10.251   1.050   1.745  1.5103  3.3167 -2.0217
  492MOL0     H66362  10.122   1.169   1.704  0.2898  2.1452 -4.7250
  492MOL0     H66363   9.965   1.003   1.675  0.4384 -0.8375 -0.4212
  492MOL0     H66364  10.079   0.871   1.694 -1.2959  1.5679 -4.3993
  492MOL0     H66365  10.126   0.918   1.927 -0.6847  0.5444  1.1972
  492MOL0     H66366   9.999   1.050   1.927  1.8233  1.3045 -0.1994
  492MOL0     H66367   9.906   0.850   2.026  0.8948 -0.8106 -0.1396
  492MOL0     H66368   9.833   0.877   1.871  0.9147 -0.0419 -1.4678
  492MOL0     H66369  10.059   0.672   1.915  2.0346 -2.2386 -3.0184
  492MOL0     H66370   9.963   0.716   1.770  4.6407  1.8126 -0.1870
  492MOL0     H66371   9.920   0.572   2.128 -0.0210 -1.3761 -0.2474
  492MOL0     H66372   9.683   0.395   2.222  1.6297 -0.6525 -4.3780
  492MOL0     H66373   9.641   0.558   2.285 -1.9807 -1.2692  0.5626
  492MOL0     H66374   9.453   0.408   2.253  0.4222 -1.7515 -0.8376
  492MOL0     H66375   9.465   0.438   2.076  2.2251 -1.2984 -0.4902
  492MOL0     H66376   9.425   0.667   2.076 -2.5612  0.4537  0.1362
  492MOL0     H66377   9.440   0.695   2.247 -3.2908  1.9505  1.0134
  492MOL0     H66378   9.221   0.714   2.201 -0.9479 -0.2065  0.1044
  492MOL0     H66379   9.242   0.557   2.283 -2.0558  0.1049 -0.8084
  492MOL0     H66380   9.096   0.357   1.967 -1.4992 -0.6442 -0.2975
  492MOL0     H66381   8.868   0.143   2.019 -3.8391 -0.7548  0.2901
  492MOL0     H66382   8.748   0.233   1.927  1.6491  1.7580 -4.3833
  492MOL0     H66383   8.912   0.220   1.870  0.0439 -1.5701  0.3317
  492MOL0     H66384   8.482   0.241   1.928  0.3901  0.0966 -0.1178
  492MOL0     H66385   8.259   0.142   1.907  1.2425  0.7943 -1.1312
  492MOL0     H66386   7.931   0.110   2.209  0.4401 -0.3821  0.0727
  492MOL0     H66387   8.032   0.252   2.203 -1.2545 -0.6838  0.9663
  492MOL0     H66388   7.853   0.295   2.061  0.3786  0.8678 -0.2449
  492MOL0     H66389   7.990   0.271   1.951 -0.9845  0.3364 -0.9381
  492MOL0     H66390   7.915   0.017   1.948 -0.8189 -0.7595 -1.0604
  492MOL0     H66391   7.820   0.136   1.849 -2.0724  1.4640  1.1462
  492MOL0     H66392   7.744  -0.013   2.097 -0.3539 -0.5951 -0.8116
  492MOL0     H66393   7.686   0.147   2.093 -1.7192 -0.8760 -0.0750
  492MOL0     H66394   7.659  -0.082   1.889 -1.3599  0.6513 -0.9135
  492MOL0     H66395   7.603   0.078   1.845 -1.8677  0.9582 -0.3985
  492MOL0     H66396   7.501  -0.066   2.103 -0.6962 -0.4250  0.6556
  492MOL0     H66397   7.440   0.079   2.016 -0.7712 -0.4584 -2.0307
  492MOL0     H66398   7.441  -0.184   1.874  1.4658  0.3343  0.6358
  492MOL0     H66399   7.382  -0.022   1.826  0.2811  0.7150  0.6799
  492MOL0     H66400   7.240  -0.052   2.055 -0.4922 -2.9775  3.1059
  492MOL0     H66401   7.293  -0.217   2.044  3.5172  2.1112  1.3046
  492MOL0     H66402   8.211   0.158   2.335  0.2362  1.4536 -0.4671
  492MOL0     H66403   8.476   0.236   2.349  2.2219  2.3386 -1.5309
  492MOL0     H66404   8.786   0.604   2.258  0.7546 -2.5187  3.8189
  492MOL0     H66405   9.016   0.670   2.250 -1.9678  1.3736 -1.2687
  492MOL0     H66406  10.793   1.214   1.439 -3.2967 -2.4572 -1.4128
  492MOL0     H66407  10.928   1.392   1.560 -0.4244  0.0636 -0.4776
  492MOL0     H66408  11.121   1.753   1.790 -2.1869  0.5136 -0.9167
  492MOL0     H66409  11.253   1.844   1.983  0.0618 -0.5428  0.8481
  492MOL0     H66410  11.349   1.817   2.228 -0.6060  0.6247 -2.6056
  492MOL0     H66411  11.301   1.974   2.162  2.6050 -1.9078 -2.0117
  492MOL0     H66412  11.429   2.004   2.381  0.3469  1.5811 -2.1777
  492MOL0     H66413  11.335   1.890   2.451  2.8419  0.8256 -0.9414
  492MOL0     H66414  11.263   2.131   2.514 -2.5791 -0.0879  0.5339
  492MOL0     H66415  11.145   2.022   2.474 -0.3543  1.1562  0.0680
  492MOL0     H66416  11.122   2.255   2.371 -0.1528 -1.0628  0.9177
  492MOL0     H66417  11.132   2.123   2.248 -1.1576 -1.7808  1.7410
  492MOL0     H66418  11.465   2.414   2.267 -0.9449 -0.4494  0.5573
  492MOL0     H66419  10.908   1.755   2.233  1.4689  0.4854  0.3379
  492MOL0     H66420  10.806   1.634   2.041 -2.1771  2.8961  1.9694
  493MOL0     O66421   6.642   6.528   0.162 -0.2359  0.3027  0.5788
  493MOL0     C66422   6.551   6.585   0.100  0.6525  0.6899  0.0085
  493MOL0     O66423   6.575   6.693   0.010 -0.8878  0.1170 -0.2734
  493MOL0     C66424   6.677   6.784   0.035 -0.7375  0.4859 -0.6330
  493MOL0     C66425   6.733   6.846  -0.070  0.0301  0.5563  0.8164
  493MOL0     C66426   6.828   6.941  -0.059  0.5605  0.2869  0.3092
  493MOL0     C66427   6.869   6.982   0.066 -0.7743  0.2777  0.9704
  493MOL0     O66428   6.979   7.073   0.076  0.7670  1.3152 -0.2419
  493MOL0     C66429   7.029   7.147  -0.037  0.4391 -0.3696 -0.8612
  493MOL0     C66430   7.094   7.269   0.039  0.1127 -0.5423 -0.1154
  493MOL0     C66431   7.228   7.230   0.089 -0.1869  0.3751 -0.5280
  493MOL0     C66432   7.288   7.346   0.168  0.0394  0.8104  0.4316
  493MOL0     C66433   7.444   7.343   0.176  0.3798  0.0161  0.0756
  493MOL0     C66434   7.493   7.429   0.302  0.0490 -0.2147  0.2668
  493MOL0     C66435   7.636   7.396   0.343  0.1296  0.1472 -0.2806
  493MOL0     C66436   7.736   7.436   0.238  1.1437 -0.3561  0.6601
  493MOL0     N66437   7.867   7.414   0.291 -0.1462  0.6789  0.1361
  493MOL0     C66438   7.927   7.501   0.371  0.0806 -0.0536  0.4454
  493MOL0     C66439   8.039   7.445   0.397  0.0802  0.0639  0.3927
  493MOL0     C66440   8.147   7.526   0.468  1.2445  0.0994  0.6287
  493MOL0     C66441   8.161   7.477   0.617 -0.4420  0.3556 -0.2753
  493MOL0     C66442   8.048   7.497   0.711  0.5585 -0.0572 -0.1771
  493MOL0     C66443   8.048   7.652   0.754 -0.4813  0.1340  0.4532
  493MOL0     O66444   7.976   7.674   0.883  0.3631  0.6082  0.3720
  493MOL0     C66445   7.839   7.643   0.874 -0.4120  0.3082  0.2870
  493MOL0     C66446   7.751   7.657   0.767  0.2599  0.1246  0.1861
  493MOL0     C66447   7.612   7.636   0.794  0.9811 -0.4215  0.4233
  493MOL0     C66448   7.529   7.635   0.666 -0.1323 -0.6057  0.4843
  493MOL0     C66449   7.566   7.598   0.924 -0.1297 -0.4624  0.0712
  493MOL0     C66450   7.417   7.570   0.955 -0.3940  0.0727  0.5360
  493MOL0     O66451   7.337   7.555   0.847 -0.1285 -0.2762 -0.5315
  493MOL0     C66452   7.201   7.525   0.862 -0.3519 -0.1389  0.3857
  493MOL0     C66453   7.112   7.588   0.950  0.2929  0.6603  0.0377
  493MOL0     C66454   6.968   7.561   0.950 -0.5757  0.2958  0.4648
  493MOL0     C66455   6.914   7.475   0.852  0.5200 -0.7376  0.6603
  493MOL0     O66456   6.778   7.454   0.839  0.2996 -0.3976 -0.3659
  493MOL0     C66457   6.735   7.338   0.777 -0.0429 -0.5258  0.2286
  493MOL0     C66458   6.585   7.317   0.802 -0.3359  0.4379 -0.1475
  493MOL0     C66459   6.530   7.197   0.728 -0.0285  0.0071  0.8314
  493MOL0     C66460   6.414   7.137   0.806  0.2867 -0.4990 -0.2349
  493MOL0     C66461   6.305   7.246   0.819 -0.2627 -0.1371  0.9487
  493MOL0     C66462   6.169   7.190   0.865 -0.4809 -0.1352 -1.2236
  493MOL0     C66463   6.074   7.315   0.881 -0.4017 -0.2971  0.3860
  493MOL0     C66464   5.940   7.262   0.940  0.1022 -0.0849 -0.6938
  493MOL0    Cl66465   5.865   7.123   0.847 -0.1150 -0.1433 -0.4424
  493MOL0     C66466   7.003   7.416   0.763 -0.4237 -0.2578  0.7097
  493MOL0     C66467   7.141   7.447   0.760  0.6923  0.2404  0.2882
  493MOL0     O66468   7.389   7.546   1.071 -0.0357  0.1884 -1.1274
  493MOL0     C66469   7.661   7.598   1.029  0.8650  0.3240 -0.1713
  493MOL0     C66470   7.795   7.608   1.000  0.2542  0.3195  0.5768
  493MOL0     N66471   8.040   7.315   0.351  0.3935 -0.3246 -0.4213
  493MOL0     N66472   7.932   7.291   0.297 -0.4065 -0.3246  0.1569
  493MOL0     C66473   6.819   6.919   0.177  0.3757 -1.0577  0.0583
  493MOL0     C66474   6.724   6.817   0.166  0.2279 -0.1482  0.1367
  493MOL0     C66475   6.412   6.527   0.118 -0.2343  0.4280 -0.2594
  493MOL0     C66476   6.387   6.427   0.210 -1.0972 -0.9324 -0.2121
  493MOL0     C66477   6.264   6.379   0.231  0.6787  0.0003  0.1471
  493MOL0     C66478   6.157   6.434   0.153  0.3104 -0.5321 -0.2343
  493MOL0     O66479   6.031   6.396   0.163 -0.2489 -0.4694 -0.8583
  493MOL0     C66480   5.994   6.292   0.252 -0.1541 -0.1738  0.9771
  493MOL0     C66481   5.843   6.301   0.285  0.3018 -0.0571  0.0185
  493MOL0     C66482   5.798   6.435   0.343 -0.1537 -0.1183  0.2163
  493MOL0     C66483   5.647   6.443   0.380 -1.1584  0.2191 -0.4098
  493MOL0     C66484   5.558   6.390   0.271 -0.4903  0.1042  0.0573
  493MOL0     C66485   5.475   6.352   0.192  0.2879 -0.0325 -0.9086
  493MOL0     C66486   6.179   6.536   0.058  1.1588  0.0793 -0.3216
  493MOL0     C66487   6.306   6.590   0.049  0.1120  0.1750 -0.0558
  493MOL0     H66488   6.694   6.803  -0.161  1.1390 -0.3319  0.7351
  493MOL0     H66489   6.867   6.980  -0.152 -0.5898 -3.8688 -2.1692
  493MOL0     H66490   7.097   7.095  -0.105  0.0879  0.1602 -1.6478
  493MOL0     H66491   6.944   7.181  -0.098 -0.6991 -0.4683  0.6085
  493MOL0     H66492   7.097   7.347  -0.037 -0.0578 -0.1326  0.2930
  493MOL0     H66493   7.027   7.293   0.122 -0.3823 -0.4933 -0.5244
  493MOL0     H66494   7.206   7.155   0.166  0.4625 -0.2640 -0.9598
  493MOL0     H66495   7.293   7.201   0.007 -0.3099  1.1559 -0.9135
  493MOL0     H66496   7.248   7.436   0.120 -0.5409 -0.3641 -1.3865
  493MOL0     H66497   7.254   7.342   0.272  3.1958 -0.0890  1.5200
  493MOL0     H66498   7.476   7.240   0.191 -0.7782 -0.6304 -1.5415
  493MOL0     H66499   7.483   7.385   0.082  0.6565 -1.1971 -0.3744
  493MOL0     H66500   7.490   7.537   0.285  0.0746 -0.4594 -1.5465
  493MOL0     H66501   7.431   7.406   0.389  0.8121 -1.6197  0.4648
  493MOL0     H66502   7.654   7.459   0.431  3.0483 -2.2300  0.9809
  493MOL0     H66503   7.643   7.289   0.361  4.9595  0.1022 -1.1277
  493MOL0     H66504   7.732   7.544   0.221  3.0901 -0.0059  2.0825
  493MOL0     H66505   7.716   7.388   0.141 -1.7211  0.2595  0.8653
  493MOL0     H66506   7.886   7.596   0.403  1.9594 -0.2404  3.7980
  493MOL0     H66507   8.247   7.498   0.432  1.3709 -1.8559  2.2965
  493MOL0     H66508   8.134   7.633   0.452  1.0115  0.2618  1.8119
  493MOL0     H66509   8.252   7.520   0.660 -0.4628  1.7476 -1.5095
  493MOL0     H66510   8.188   7.371   0.611  3.6234  1.2727 -1.3323
  493MOL0     H66511   8.066   7.425   0.791  0.0026 -0.7916 -0.7086
  493MOL0     H66512   7.952   7.463   0.673 -0.3662  0.3177  1.6844
  493MOL0     H66513   8.000   7.706   0.672  1.4002  1.4436  0.1648
  493MOL0     H66514   8.146   7.700   0.766 -0.3713 -0.0382  0.2585
  493MOL0     H66515   7.782   7.687   0.667 -1.1071  0.0359 -0.2837
  493MOL0     H66516   7.440   7.698   0.664 -0.0395 -0.4559  0.9534
  493MOL0     H66517   7.588   7.670   0.580 -1.5825 -0.4802 -0.4902
  493MOL0     H66518   7.500   7.534   0.637  2.5866 -2.0943  2.5488
  493MOL0     H66519   7.155   7.669   1.009  2.2058  1.6428 -2.4803
  493MOL0     H66520   6.892   7.604   1.014 -1.3477  2.3306 -1.6532
  493MOL0     H66521   6.748   7.351   0.669 -2.5241 -1.1774 -0.2034
  493MOL0     H66522   6.792   7.259   0.827 -0.3689  1.8763  4.9664
  493MOL0     H66523   6.579   7.306   0.911 -0.7027 -0.1182 -0.2184
  493MOL0     H66524   6.541   7.413   0.774  1.0983  1.3647  0.6521
  493MOL0     H66525   6.607   7.122   0.708  0.8632  1.7308 -3.2276
  493MOL0     H66526   6.505   7.239   0.630 -1.0016  4.3885  2.7198
  493MOL0     H66527   6.367   7.060   0.744 -0.7217  0.7137 -1.0267
  493MOL0     H66528   6.435   7.093   0.904 -1.3552 -0.8665 -0.0092
  493MOL0     H66529   6.293   7.305   0.727 -0.9345 -0.9528  0.4964
  493MOL0     H66530   6.345   7.321   0.888 -2.4309  0.2828  1.8458
  493MOL0     H66531   6.123   7.124   0.791 -2.0238  0.9656 -1.2790
  493MOL0     H66532   6.182   7.147   0.965 -0.3126  3.4626  0.4281
  493MOL0     H66533   6.051   7.360   0.785 -1.6767  0.7409  1.1423
  493MOL0     H66534   6.119   7.380   0.957 -0.4771 -1.3980  1.4145
  493MOL0     H66535   5.865   7.342   0.940 -0.3397 -0.4566  0.8241
  493MOL0     H66536   5.959   7.232   1.044  2.3473  0.8254 -0.7776
  493MOL0     H66537   6.973   7.353   0.680  1.4445 -1.5057  0.9150
  493MOL0     H66538   7.213   7.401   0.693  1.3242  0.6463  0.6698
  493MOL0     H66539   7.621   7.594   1.130 -0.4712  2.8250 -0.5469
  493MOL0     H66540   7.867   7.592   1.079  1.9647  2.5655 -0.3933
  493MOL0     H66541   6.865   6.961   0.266 -0.9103  2.1381 -0.6277
  493MOL0     H66542   6.683   6.771   0.255 -2.5101 -0.0625 -0.9940
  493MOL0     H66543   6.465   6.403   0.281 -1.0505  0.7678  0.3617
  493MOL0     H66544   6.249   6.303   0.307  0.6266  0.2699  0.4081
  493MOL0     H66545   6.030   6.195   0.216 -0.4357  0.3249 -0.6939
  493MOL0     H66546   6.042   6.314   0.348 -2.3989 -1.4076  2.4624
  493MOL0     H66547   5.821   6.224   0.360 -1.8031  1.5193  1.1347
  493MOL0     H66548   5.784   6.283   0.195 -2.2107 -1.4947  1.7892
  493MOL0     H66549   5.812   6.510   0.265  0.2756 -2.4077 -2.0593
  493MOL0     H66550   5.846   6.458   0.438 -0.3959 -0.2865  0.3807
  493MOL0     H66551   5.620   6.547   0.400 -4.2370 -0.3207 -1.0872
  493MOL0     H66552   5.629   6.392   0.475 -4.1419  2.2263  0.2537
  493MOL0     H66553   5.377   6.330   0.153 -0.4576  0.8992  0.3792
  493MOL0     H66554   6.095   6.575   0.002  0.8179  1.8384  1.2989
  493MOL0     H66555   6.340   6.671  -0.015  0.2251 -1.4064 -2.1158
  494MOL0     O66556   5.665   2.940   4.705  0.4404  0.4127  0.3665
  494MOL0     C66557   5.576   2.924   4.797 -0.6302 -0.2683  0.7868
  494MOL0     O66558   5.561   2.804   4.866 -0.4701  0.4355 -0.3752
  494MOL0     C66559   5.642   2.697   4.829 -0.3622  0.5462  0.0370
  494MOL0     C66560   5.581   2.581   4.781  0.5149  1.3285  0.1273
  494MOL0     C66561   5.653   2.476   4.723  0.6455 -0.8857  0.6422
  494MOL0     C66562   5.792   2.467   4.740  0.1051 -1.0812 -0.8809
  494MOL0     O66563   5.867   2.367   4.697 -0.1812 -0.3773 -0.7077
  494MOL0     C66564   5.947   2.387   4.580 -0.0826  0.8113 -0.4286
  494MOL0     C66565   6.083   2.310   4.580  0.2928  0.0831 -0.2991
  494MOL0     C66566   6.170   2.330   4.706  0.5535  0.7284 -0.2048
  494MOL0     C66567   6.281   2.214   4.708 -0.2259 -0.1536  0.6548
  494MOL0     C66568   6.375   2.199   4.579 -0.5383  0.2941  0.1559
  494MOL0     C66569   6.495   2.110   4.596 -0.2724 -0.0485 -0.8642
  494MOL0     C66570   6.535   2.036   4.462 -0.1142 -0.0338 -0.0595
  494MOL0     C66571   6.612   2.132   4.368  1.0901 -0.1528  0.8534
  494MOL0     N66572   6.536   2.146   4.241 -0.9073 -0.5901 -0.3943
  494MOL0     C66573   6.420   2.224   4.220 -0.7552 -0.1157  0.1130
  494MOL0     C66574   6.399   2.219   4.085  0.4737 -0.7056  0.2814
  494MOL0     C66575   6.292   2.306   4.006 -0.2367  1.1632  0.5611
  494MOL0     C66576   6.169   2.309   4.097  0.1512  0.7210 -0.1441
  494MOL0     C66577   6.050   2.350   4.004  0.3470  0.2771 -0.0330
  494MOL0     C66578   5.924   2.372   4.106 -1.1491 -0.3677  0.3028
  494MOL0     O66579   5.836   2.447   4.017  0.4328 -0.6413 -0.3376
  494MOL0     C66580   5.710   2.462   4.067 -0.7816  0.4106 -0.4685
  494MOL0     C66581   5.697   2.542   4.183 -0.0186 -0.5109  0.1981
  494MOL0     C66582   5.576   2.551   4.249  0.3752  0.8549  0.7445
  494MOL0     C66583   5.566   2.661   4.350  0.3960  0.1930 -0.1493
  494MOL0     C66584   5.467   2.466   4.209  0.6314 -0.2263  0.9926
  494MOL0     C66585   5.337   2.449   4.280  0.1919 -0.0248  0.2108
  494MOL0     O66586   5.340   2.484   4.412  0.2030  0.2710  0.0617
  494MOL0     C66587   5.218   2.482   4.485  0.2342 -0.0892 -0.1093
  494MOL0     C66588   5.231   2.461   4.628  0.3009  0.0220  0.3049
  494MOL0     C66589   5.111   2.456   4.706  0.2009  0.2692 -0.9251
  494MOL0     C66590   4.984   2.483   4.655  0.4744 -0.6700  0.5695
  494MOL0     O66591   4.860   2.476   4.734 -0.3950 -1.0093  0.2507
  494MOL0     C66592   4.866   2.528   4.864 -0.8611 -0.3963 -0.6712
  494MOL0     C66593   4.872   2.422   4.971  0.1738  0.0056 -0.2544
  494MOL0     C66594   4.737   2.342   4.985  0.4462  0.3133 -0.4147
  494MOL0     C66595   4.764   2.226   5.076  0.9262  0.1282 -0.6253
  494MOL0     C66596   4.636   2.139   5.087  0.1136  0.0210  0.1700
  494MOL0     C66597   4.607   2.048   4.967  0.0828  0.5423  0.5476
  494MOL0     C66598   4.505   1.943   5.003  0.0568 -0.0562  0.8185
  494MOL0     C66599   4.547   1.802   4.953 -0.0718 -0.3637 -0.4090
  494MOL0    Cl66600   4.410   1.697   5.004 -0.0075 -0.1943  0.1163
  494MOL0     C66601   4.972   2.498   4.516 -0.4031 -0.3276  0.2616
  494MOL0     C66602   5.088   2.502   4.436  0.3629 -0.0976  1.0750
  494MOL0     O66603   5.250   2.373   4.229 -0.1123  0.1260 -0.7678
  494MOL0     C66604   5.479   2.382   4.093 -0.6338 -0.5090  0.0561
  494MOL0     C66605   5.607   2.382   4.027 -0.0556 -0.6611  0.4178
  494MOL0     N66606   6.494   2.144   4.020  0.8495  0.1855  0.0894
  494MOL0     N66607   6.574   2.100   4.115  0.1015 -0.1628 -0.1257
  494MOL0     C66608   5.851   2.581   4.800 -0.4212  0.4621 -0.4142
  494MOL0     C66609   5.783   2.693   4.841  0.6137  0.1567  1.0489
  494MOL0     C66610   5.481   3.037   4.824 -0.8029 -0.1083  0.2066
  494MOL0     C66611   5.464   3.132   4.727 -0.5406 -1.2140 -0.0938
  494MOL0     C66612   5.366   3.229   4.749 -0.3054 -0.4351  0.7323
  494MOL0     C66613   5.290   3.236   4.868 -0.4641 -0.8737  0.0506
  494MOL0     O66614   5.182   3.312   4.880  1.1135  0.3594 -0.5172
  494MOL0     C66615   5.153   3.421   4.798 -0.2795 -0.6552 -0.1777
  494MOL0     C66616   5.092   3.368   4.667 -0.2994 -0.0308  0.0891
  494MOL0     C66617   4.939   3.330   4.683  0.7332  0.2215  0.2045
  494MOL0     C66618   4.877   3.279   4.557  0.0118 -0.8763  0.1913
  494MOL0     C66619   4.728   3.268   4.582 -0.0854  0.7608  0.3562
  494MOL0     C66620   4.604   3.262   4.584  0.9156 -0.3643  0.3563
  494MOL0     C66621   5.321   3.135   4.966 -0.6921 -0.8635  0.5301
  494MOL0     C66622   5.424   3.046   4.946  0.9243 -0.7902  0.2181
  494MOL0     H66623   5.473   2.579   4.773  0.5399 -2.0060 -1.0906
  494MOL0     H66624   5.589   2.399   4.682 -0.6287 -1.3640  3.2735
  494MOL0     H66625   5.886   2.365   4.492 -1.3607  0.1381  0.5918
  494MOL0     H66626   5.978   2.491   4.571 -0.1083  0.6445 -3.1491
  494MOL0     H66627   6.065   2.203   4.566 -0.8231  0.0195  1.3258
  494MOL0     H66628   6.136   2.346   4.492 -1.6792 -3.1601 -3.0345
  494MOL0     H66629   6.210   2.432   4.700 -2.2464  1.8286 -2.2125
  494MOL0     H66630   6.106   2.312   4.793 -0.2763 -0.2589 -1.0037
  494MOL0     H66631   6.349   2.230   4.793 -1.2300 -3.4385  2.1971
  494MOL0     H66632   6.236   2.116   4.720 -2.6719  0.3194 -3.0119
  494MOL0     H66633   6.309   2.155   4.504 -3.6593  1.2477  2.1637
  494MOL0     H66634   6.430   2.288   4.547 -0.5329 -0.8852 -3.6491
  494MOL0     H66635   6.577   2.161   4.648 -0.3115 -0.6234 -0.2230
  494MOL0     H66636   6.458   2.025   4.654 -2.6857  1.1346 -0.5543
  494MOL0     H66637   6.611   1.960   4.486  0.7411  1.1553  1.1501
  494MOL0     H66638   6.459   1.970   4.419 -0.8539 -2.4825  4.3694
  494MOL0     H66639   6.713   2.094   4.352  1.2864  0.5436  0.4303
  494MOL0     H66640   6.623   2.233   4.408 -1.4018  0.2065  0.7911
  494MOL0     H66641   6.363   2.280   4.293 -0.1265  0.7612 -0.0527
  494MOL0     H66642   6.334   2.407   4.003  1.5041  0.5631  2.4745
  494MOL0     H66643   6.275   2.277   3.902 -1.2786 -1.4451  1.3859
  494MOL0     H66644   6.179   2.378   4.182 -0.3320 -0.7866  1.1816
  494MOL0     H66645   6.160   2.211   4.144  1.9143  1.6770  2.4869
  494MOL0     H66646   6.027   2.275   3.928 -2.2222 -0.8862  1.7609
  494MOL0     H66647   6.070   2.448   3.959 -2.6704  2.0561  2.1083
  494MOL0     H66648   5.964   2.440   4.182  1.4206 -1.7509  0.2850
  494MOL0     H66649   5.887   2.278   4.147  0.0940  0.2186  2.9822
  494MOL0     H66650   5.782   2.603   4.214 -0.6893  0.3987  0.2644
  494MOL0     H66651   5.467   2.690   4.385  1.9751  0.4941  4.7744
  494MOL0     H66652   5.614   2.619   4.439 -1.5124 -0.9829  0.3783
  494MOL0     H66653   5.615   2.752   4.314 -1.0512 -0.6057 -4.8299
  494MOL0     H66654   5.334   2.445   4.658  0.5652  0.3919 -0.3911
  494MOL0     H66655   5.119   2.424   4.809  0.3742 -0.0933 -1.0476
  494MOL0     H66656   4.953   2.594   4.867 -0.4574 -0.9040 -1.0979
  494MOL0     H66657   4.778   2.589   4.888  1.1246  1.2932  3.4141
  494MOL0     H66658   4.956   2.354   4.955 -0.4436 -0.6210 -0.9256
  494MOL0     H66659   4.888   2.476   5.065 -1.0050  2.1313 -1.2033
  494MOL0     H66660   4.686   2.310   4.894 -1.9311  1.1829  0.5595
  494MOL0     H66661   4.668   2.417   5.022  0.7070 -0.1032  0.9759
  494MOL0     H66662   4.850   2.177   5.029  0.7066 -1.3611  0.4318
  494MOL0     H66663   4.807   2.269   5.167  0.0709  0.4391 -0.3565
  494MOL0     H66664   4.553   2.199   5.126 -1.3503 -1.5115 -0.4697
  494MOL0     H66665   4.661   2.069   5.167  0.4285  2.0433  1.9353
  494MOL0     H66666   4.578   2.102   4.876 -0.7949 -0.1993  0.3675
  494MOL0     H66667   4.700   1.998   4.938  0.2531 -0.5537  2.7745
  494MOL0     H66668   4.408   1.967   4.957 -0.6057  0.2182  2.3116
  494MOL0     H66669   4.502   1.938   5.112 -1.1550 -0.2904  0.7939
  494MOL0     H66670   4.636   1.784   5.014  0.8951  3.5857 -0.3734
  494MOL0     H66671   4.568   1.789   4.846  1.6798  0.3824 -0.1801
  494MOL0     H66672   4.878   2.511   4.464 -0.1114  1.2520  0.0713
  494MOL0     H66673   5.066   2.518   4.331 -0.7957  0.5667  1.3994
  494MOL0     H66674   5.396   2.320   4.061  0.3504 -2.2185  0.6919
  494MOL0     H66675   5.624   2.315   3.943  0.9647  2.1513 -1.7677
  494MOL0     H66676   5.957   2.591   4.822 -0.9736  0.9250  2.4745
  494MOL0     H66677   5.840   2.771   4.890 -1.0506  1.8144  0.4309
  494MOL0     H66678   5.530   3.142   4.642 -0.1460 -2.5816  0.0202
  494MOL0     H66679   5.359   3.299   4.666 -1.1869  1.0315  1.9735
  494MOL0     H66680   5.076   3.482   4.846 -0.6948 -0.8000 -0.6573
  494MOL0     H66681   5.246   3.472   4.772 -1.0129  0.0440 -1.4752
  494MOL0     H66682   5.142   3.279   4.628 -0.1345  0.7776 -1.5994
  494MOL0     H66683   5.118   3.447   4.596  2.2327 -1.1035 -0.2926
  494MOL0     H66684   4.877   3.417   4.708  1.2527  0.2848  1.3314
  494MOL0     H66685   4.921   3.254   4.759 -1.3476 -0.3457 -0.7592
  494MOL0     H66686   4.914   3.184   4.519  2.5039  0.6888 -1.5973
  494MOL0     H66687   4.888   3.357   4.481 -3.9350  0.4408  0.7288
  494MOL0     H66688   4.497   3.269   4.590  0.8099  2.8571 -2.3603
  494MOL0     H66689   5.275   3.146   5.064 -1.7371  0.8764 -0.0988
  494MOL0     H66690   5.425   2.968   5.021  1.4634 -2.3403 -1.3317
  495MOL0     O66691   2.356   2.206   3.174 -0.1638 -0.2325  0.4000
  495MOL0     C66692   2.420   2.316   3.157  0.0097  0.4067  0.2543
  495MOL0     O66693   2.532   2.354   3.238  0.5905  0.7051 -0.0891
  495MOL0     C66694   2.590   2.283   3.334 -0.5200 -0.3818 -0.1367
  495MOL0     C66695   2.541   2.171   3.400  0.5508  0.5506  0.1685
  495MOL0     C66696   2.624   2.112   3.501  0.1429  0.1862  0.1114
  495MOL0     C66697   2.738   2.173   3.547 -0.0076 -0.6157 -0.5796
  495MOL0     O66698   2.811   2.132   3.659 -0.5474  0.4313 -0.7556
  495MOL0     C66699   2.865   2.005   3.655  0.8401 -0.6172  0.1209
  495MOL0     C66700   2.923   1.959   3.787 -0.5672 -0.9569 -0.3007
  495MOL0     C66701   2.814   1.894   3.878  0.8305  0.9375 -0.6422
  495MOL0     C66702   2.831   1.915   4.021 -0.0340  0.6664  0.0533
  495MOL0     C66703   2.698   1.865   4.098  0.4790  0.4564 -0.1613
  495MOL0     C66704   2.681   1.962   4.218  0.3767  0.4179  0.0847
  495MOL0     C66705   2.571   1.916   4.309  0.0413  0.1286 -0.6467
  495MOL0     C66706   2.519   2.037   4.387  0.9939 -0.5551  0.3211
  495MOL0     N66707   2.381   2.011   4.440 -0.5094  0.8909  0.5495
  495MOL0     C66708   2.362   1.924   4.544  0.2104  0.1254 -0.2327
  495MOL0     C66709   2.234   1.950   4.589 -0.0666 -0.4911 -0.1311
  495MOL0     C66710   2.159   1.868   4.693 -0.0445 -0.3354  0.3359
  495MOL0     C66711   2.007   1.887   4.692  0.0459 -0.0748 -0.0998
  495MOL0     C66712   1.933   2.019   4.749 -0.1798 -0.1988  0.7351
  495MOL0     C66713   1.946   2.047   4.899 -0.3773  0.3595 -0.2814
  495MOL0     O66714   2.085   2.069   4.923  0.2371  1.1597  1.0935
  495MOL0     C66715   2.126   2.090   5.050  0.0103 -0.5857  0.0612
  495MOL0     C66716   2.048   2.076   5.168 -1.2040  0.5203  0.1435
  495MOL0     C66717   2.101   2.108   5.295 -0.5498 -0.0012 -0.3320
  495MOL0     C66718   2.007   2.062   5.412 -0.2276 -0.6707  0.0316
  495MOL0     C66719   2.231   2.158   5.305  0.0765 -0.0244 -0.7885
  495MOL0     C66720   2.304   2.184   5.433 -1.1194  0.5285  0.2689
  495MOL0     O66721   2.435   2.216   5.415 -0.0065  0.1096 -0.1991
  495MOL0     C66722   2.514   2.225   5.530  0.8737  0.7368 -0.0737
  495MOL0     C66723   2.547   2.340   5.597  0.0965 -0.5253  0.1001
  495MOL0     C66724   2.641   2.345   5.697  0.0468 -0.5656  0.0726
  495MOL0     C66725   2.708   2.225   5.727 -0.2965 -0.6071  0.9448
  495MOL0     O66726   2.821   2.220   5.805  0.0341  0.5212  0.3756
  495MOL0     C66727   2.921   2.321   5.795 -0.1681  0.0076 -0.0927
  495MOL0     C66728   3.029   2.310   5.906  0.2594  0.1085  0.5562
  495MOL0     C66729   3.108   2.190   5.901  1.1148  0.8924  0.2957
  495MOL0     C66730   3.179   2.173   6.029 -0.2242  0.9816 -1.2288
  495MOL0     C66731   3.279   2.047   6.038 -0.2465  0.1550  0.6762
  495MOL0     C66732   3.337   2.012   6.170  1.3674 -0.7274 -0.5087
  495MOL0     C66733   3.408   1.880   6.169 -0.7281  0.2155  0.0255
  495MOL0     C66734   3.552   1.901   6.099  0.1172  0.4640  0.1027
  495MOL0    Cl66735   3.658   1.751   6.082 -0.2136 -0.2222  0.1287
  495MOL0     C66736   2.674   2.106   5.663  0.1992  0.1784 -0.1517
  495MOL0     C66737   2.570   2.109   5.576 -0.5459 -0.2832  0.2885
  495MOL0     O66738   2.241   2.190   5.533  0.8989 -0.2515  0.2059
  495MOL0     C66739   2.304   2.182   5.192  0.0099  0.4268 -0.1243
  495MOL0     C66740   2.255   2.149   5.063 -0.4859  0.0588  0.0826
  495MOL0     N66741   2.188   2.057   4.505 -0.4666 -0.7027 -0.2035
  495MOL0     N66742   2.276   2.093   4.425  0.5582  0.3171  0.7540
  495MOL0     C66743   2.791   2.278   3.476  0.0633  0.0360 -0.8285
  495MOL0     C66744   2.721   2.337   3.370 -0.0551  0.0532 -0.5515
  495MOL0     C66745   2.376   2.401   3.043 -0.2198 -0.0339  0.6517
  495MOL0     C66746   2.252   2.388   2.977  0.4691  0.8440  0.2965
  495MOL0     C66747   2.221   2.452   2.856  0.0328  0.6981  0.5451
  495MOL0     C66748   2.299   2.542   2.795  0.5388  0.1653 -0.7119
  495MOL0     O66749   2.276   2.611   2.682  0.7705  0.2637  0.4973
  495MOL0     C66750   2.211   2.551   2.566  0.3265  0.0523 -0.7708
  495MOL0     C66751   2.292   2.581   2.447 -1.2678  0.9205 -0.1449
  495MOL0     C66752   2.232   2.505   2.326  0.7505 -0.5010 -0.5079
  495MOL0     C66753   2.307   2.530   2.202 -1.5535  0.7270  0.7002
  495MOL0     C66754   2.257   2.461   2.086  0.1002 -0.1030  0.4350
  495MOL0     C66755   2.222   2.395   1.993 -0.1019  0.8627 -0.3452
  495MOL0     C66756   2.411   2.571   2.867  0.1106 -1.1815 -0.4213
  495MOL0     C66757   2.455   2.506   2.976  0.5966 -0.1116  0.0632
  495MOL0     H66758   2.446   2.125   3.372  0.8007  1.1424 -1.7611
  495MOL0     H66759   2.593   2.022   3.553  4.0050 -1.9509 -0.8828
  495MOL0     H66760   2.792   1.927   3.633 -0.7124  0.9851 -0.5982
  495MOL0     H66761   2.954   2.009   3.591  2.2075  0.2481  1.9572
  495MOL0     H66762   2.999   1.883   3.766  0.7501  0.2938 -0.2244
  495MOL0     H66763   2.969   2.046   3.835 -4.0429  1.6179 -1.1537
  495MOL0     H66764   2.718   1.932   3.842  1.0744 -0.4862 -2.9583
  495MOL0     H66765   2.801   1.789   3.852 -1.7827  1.6172 -2.4764
  495MOL0     H66766   2.922   1.864   4.051  1.4390  0.9988 -3.4064
  495MOL0     H66767   2.840   2.023   4.039 -3.5443  0.8631  1.6160
  495MOL0     H66768   2.607   1.872   4.038  0.2436 -3.1049 -0.3942
  495MOL0     H66769   2.714   1.764   4.138  0.7784 -0.8280 -3.2666
  495MOL0     H66770   2.777   1.972   4.270  0.5504 -2.5440  0.4760
  495MOL0     H66771   2.651   2.058   4.175 -0.7465  0.5157  1.0346
  495MOL0     H66772   2.488   1.864   4.259 -0.2229 -1.4980  1.3721
  495MOL0     H66773   2.606   1.858   4.395 -0.3720  3.8970  2.3389
  495MOL0     H66774   2.510   2.118   4.314  5.2121 -1.4086 -1.5294
  495MOL0     H66775   2.590   2.068   4.464  1.7075 -1.7414  0.1794
  495MOL0     H66776   2.438   1.852   4.574  4.0134  3.1859 -1.6066
  495MOL0     H66777   2.169   1.762   4.671 -1.1394 -0.0241 -1.9502
  495MOL0     H66778   2.199   1.883   4.794 -3.2392 -0.4648  1.7454
  495MOL0     H66779   1.976   1.799   4.749  1.3142  0.3073  1.2459
  495MOL0     H66780   1.973   1.881   4.588  2.1923  1.9065 -0.9838
  495MOL0     H66781   1.828   2.021   4.722  0.4302  0.9686 -1.9059
  495MOL0     H66782   1.974   2.111   4.706  0.0223 -1.0436 -0.9902
  495MOL0     H66783   1.923   1.958   4.957  0.6517  0.1158 -0.2268
  495MOL0     H66784   1.873   2.121   4.934 -0.5487  0.6688 -1.2479
  495MOL0     H66785   1.948   2.033   5.178 -1.4498 -0.3434 -4.2413
  495MOL0     H66786   2.039   2.072   5.516 -1.5579 -1.1398  0.5007
  495MOL0     H66787   1.914   2.119   5.407  0.3925  0.2919 -0.9822
  495MOL0     H66788   1.992   1.954   5.403  3.5423 -1.6642  2.8465
  495MOL0     H66789   2.491   2.427   5.564  1.0718 -0.6496 -2.0640
  495MOL0     H66790   2.664   2.441   5.741  1.6956 -0.4144 -1.0474
  495MOL0     H66791   2.957   2.322   5.692 -2.1703  2.1828 -0.8716
  495MOL0     H66792   2.875   2.418   5.816 -0.4437  0.0695 -0.9270
  495MOL0     H66793   3.090   2.400   5.898  2.7349 -1.6058 -1.0967
  495MOL0     H66794   2.989   2.317   6.008 -0.9465  1.3644  0.0326
  495MOL0     H66795   3.179   2.188   5.817  0.4055 -2.8448 -0.3940
  495MOL0     H66796   3.048   2.102   5.877  0.6281  1.6677 -1.5495
  495MOL0     H66797   3.241   2.260   6.054  0.0895  0.6910 -0.9877
  495MOL0     H66798   3.104   2.163   6.109 -0.7190  0.2462 -1.7724
  495MOL0     H66799   3.359   2.035   5.965  0.5256  1.4112  1.2731
  495MOL0     H66800   3.209   1.966   6.015  0.0315 -0.1772  0.9792
  495MOL0     H66801   3.413   2.084   6.201  1.4668 -1.9448  2.4615
  495MOL0     H66802   3.264   2.020   6.251 -1.0046 -0.1184 -2.5770
  495MOL0     H66803   3.338   1.807   6.127 -1.5787  1.5037 -0.8562
  495MOL0     H66804   3.423   1.855   6.274  0.7797  0.6943 -0.0496
  495MOL0     H66805   3.616   1.971   6.152 -0.7406  0.8515  0.6533
  495MOL0     H66806   3.541   1.943   5.999  1.4578 -0.0741 -0.2836
  495MOL0     H66807   2.731   2.017   5.686  2.2827  1.2994 -0.7289
  495MOL0     H66808   2.537   2.014   5.535 -1.4583  0.4044 -0.5923
  495MOL0     H66809   2.405   2.221   5.198 -0.6399  2.0136  1.1861
  495MOL0     H66810   2.330   2.169   4.988  0.5204 -1.0022  0.7572
  495MOL0     H66811   2.896   2.303   3.489 -0.1454  1.1548 -1.1971
  495MOL0     H66812   2.761   2.420   3.312 -1.2596  0.6033 -0.6319
  495MOL0     H66813   2.168   2.328   3.013  0.5030  1.5116  1.5490
  495MOL0     H66814   2.133   2.416   2.805  0.0960  0.8014  0.3605
  495MOL0     H66815   2.205   2.443   2.586 -1.7040 -0.1390 -2.2043
  495MOL0     H66816   2.106   2.580   2.560  0.4732  0.5107 -1.0975
  495MOL0     H66817   2.393   2.541   2.462 -1.9244 -0.2783  1.3104
  495MOL0     H66818   2.286   2.687   2.420  3.4459  0.3755 -5.1145
  495MOL0     H66819   2.131   2.539   2.306  0.6101 -1.7416 -2.1283
  495MOL0     H66820   2.223   2.397   2.344 -0.2911 -0.0691  1.8409
  495MOL0     H66821   2.414   2.508   2.209 -1.4004  1.4073  0.5448
  495MOL0     H66822   2.289   2.634   2.174 -0.2406  0.2947 -2.0712
  495MOL0     H66823   2.174   2.340   1.915  0.1481 -1.4036  1.0091
  495MOL0     H66824   2.471   2.651   2.825  1.2668 -1.2173  1.0656
  495MOL0     H66825   2.556   2.531   3.009  1.0415  2.8227 -2.9695
  496MOL0     O66826   0.549   5.435   8.674  0.6192  0.1101  0.0088
  496MOL0     C66827   0.549   5.456   8.551 -0.5440 -0.6487 -0.5762
  496MOL0     O66828   0.457   5.423   8.458 -0.3686 -0.5745  0.2425
  496MOL0     C66829   0.345   5.365   8.496  0.8005 -0.6655  0.5625
  496MOL0     C66830   0.237   5.429   8.555 -0.0014  0.0538  0.0292
  496MOL0     C66831   0.115   5.364   8.581 -0.0019 -1.0478 -0.8640
  496MOL0     C66832   0.105   5.232   8.540  0.3691 -0.4747 -0.1749
  496MOL0     O66833  -0.018   5.170   8.555  0.1594  0.4323 -0.0532
  496MOL0     C66834  -0.045   5.121   8.689 -0.6357  0.3031 -0.2654
  496MOL0     C66835  -0.183   5.065   8.697 -0.1792  0.3592  0.5963
  496MOL0     C66836  -0.207   4.962   8.818 -0.0833 -0.2506  0.2665
  496MOL0     C66837  -0.315   4.864   8.777 -0.4640 -0.1174  0.2789
  496MOL0     C66838  -0.320   4.740   8.863  0.4380 -0.4116 -0.2584
  496MOL0     C66839  -0.453   4.657   8.830 -0.2065  0.5246  0.7272
  496MOL0     C66840  -0.463   4.559   8.943  0.4239  0.0915  0.5367
  496MOL0     C66841  -0.581   4.465   8.931  0.6796  0.7660 -0.4297
  496MOL0     N66842  -0.702   4.538   8.922 -0.4946 -0.0682 -0.4368
  496MOL0     C66843  -0.798   4.545   8.818 -0.9241  0.0621  1.4006
  496MOL0     C66844  -0.914   4.594   8.875 -0.8547 -0.9202  0.1534
  496MOL0     C66845  -1.048   4.612   8.816 -0.6154  0.7995 -0.1472
  496MOL0     C66846  -1.055   4.765   8.778 -0.4107 -0.2465  0.1405
  496MOL0     C66847  -1.181   4.822   8.713  0.2828  0.0368 -0.3451
  496MOL0     C66848  -1.291   4.881   8.802 -0.6993 -0.1500 -0.3001
  496MOL0     O66849  -1.358   5.000   8.746 -0.3959 -0.4777  1.0365
  496MOL0     C66850  -1.458   4.981   8.655 -0.3585  0.2196 -0.0917
  496MOL0     C66851  -1.495   4.856   8.598 -0.5883  0.9132  0.6407
  496MOL0     C66852  -1.600   4.849   8.507  0.4590 -0.3774  0.2749
  496MOL0     C66853  -1.645   4.711   8.484 -0.0294  0.0322  0.9658
  496MOL0     C66854  -1.684   4.951   8.463 -0.1400 -1.1466  0.8441
  496MOL0     C66855  -1.790   4.946   8.360 -0.2962 -0.3745  0.1361
  496MOL0     O66856  -1.877   5.047   8.356 -0.9349 -0.5055 -0.0884
  496MOL0     C66857  -1.972   5.041   8.258 -1.2935  0.2990  0.7509
  496MOL0     C66858  -1.938   5.014   8.121  0.0510  0.7333 -0.1448
  496MOL0     C66859  -2.044   5.010   8.023  0.7284  0.1799 -0.1997
  496MOL0     C66860  -2.182   5.028   8.060  0.0723 -0.9315  1.0841
  496MOL0     O66861  -2.282   5.029   7.972 -0.6159 -0.7473 -0.0717
  496MOL0     C66862  -2.258   5.092   7.847  0.1791 -0.0602 -0.3114
  496MOL0     C66863  -2.392   5.100   7.773  0.9767  0.2879  0.8241
  496MOL0     C66864  -2.370   5.181   7.645  0.6282 -0.0506  0.5627
  496MOL0     C66865  -2.448   5.121   7.529 -0.4197  0.0478 -0.0936
  496MOL0     C66866  -2.464   5.212   7.412  0.1324  0.0437 -0.3316
  496MOL0     C66867  -2.587   5.167   7.332  0.3351 -0.4894  1.1922
  496MOL0     C66868  -2.597   5.225   7.195  0.6989 -0.0865  0.7903
  496MOL0     C66869  -2.723   5.197   7.107 -0.3506 -0.9205 -0.0306
  496MOL0    Cl66870  -2.876   5.208   7.205  0.2610 -0.1148 -0.1409
  496MOL0     C66871  -2.211   5.050   8.194 -0.5335  0.2807  0.1483
  496MOL0     C66872  -2.106   5.047   8.286  0.6792 -0.7829 -0.1859
  496MOL0     O66873  -1.787   4.843   8.285  0.2806 -0.5444  0.5678
  496MOL0     C66874  -1.650   5.075   8.527  0.7857 -0.3163 -0.4349
  496MOL0     C66875  -1.543   5.082   8.618  0.8840 -0.5117  0.4567
  496MOL0     N66876  -0.882   4.622   9.006  0.5835  0.9053 -0.0149
  496MOL0     N66877  -0.755   4.598   9.033  0.1034 -0.2397  0.3006
  496MOL0     C66878   0.211   5.163   8.485 -0.1956 -0.0792 -0.0415
  496MOL0     C66879   0.334   5.229   8.467  0.5835  0.1411  0.3630
  496MOL0     C66880   0.674   5.535   8.492  0.2025  0.5395  0.2433
  496MOL0     C66881   0.656   5.596   8.370 -0.6263  0.4492  0.4904
  496MOL0     C66882   0.760   5.653   8.303 -0.6933  0.3533 -0.8018
  496MOL0     C66883   0.886   5.675   8.371  0.5281 -0.0833  0.2818
  496MOL0     O66884   0.966   5.774   8.318  0.4237 -0.2426  0.6056
  496MOL0     C66885   1.069   5.823   8.404  0.0951 -0.3869  0.3046
  496MOL0     C66886   1.102   5.970   8.365 -0.0810  0.3278  0.1202
  496MOL0     C66887   1.152   5.976   8.221 -0.3915  0.4966  0.0031
  496MOL0     C66888   1.149   6.120   8.176 -0.5317  0.4457 -0.4478
  496MOL0     C66889   1.222   6.202   8.277  0.3739  0.2411  0.3186
  496MOL0     C66890   1.269   6.287   8.348 -0.1784 -0.2205 -0.2737
  496MOL0     C66891   0.902   5.621   8.499 -0.0022 -0.3441 -0.0883
  496MOL0     C66892   0.796   5.548   8.556 -0.6565 -0.4916 -0.0500
  496MOL0     H66893   0.216   5.534   8.571 -1.1038  0.0658 -1.3040
  496MOL0     H66894   0.031   5.424   8.613  0.1887 -0.4927 -1.3814
  496MOL0     H66895   0.028   5.047   8.723 -0.1223  0.8760 -0.1096
  496MOL0     H66896  -0.033   5.200   8.763  1.3354 -1.4031  1.3484
  496MOL0     H66897  -0.242   5.157   8.706  0.7336  1.2109 -1.5390
  496MOL0     H66898  -0.210   5.019   8.602  1.0063  2.2190 -0.6973
  496MOL0     H66899  -0.118   4.900   8.807  0.4514  0.8083 -2.2336
  496MOL0     H66900  -0.225   5.008   8.915  1.2508 -2.2100  1.5097
  496MOL0     H66901  -0.413   4.912   8.788  0.0031  0.9769 -0.2523
  496MOL0     H66902  -0.311   4.835   8.672 -0.7084  0.2480  0.1675
  496MOL0     H66903  -0.226   4.693   8.834  0.8940  0.6249 -0.5322
  496MOL0     H66904  -0.319   4.756   8.971 -1.3291 -3.5507  0.3196
  496MOL0     H66905  -0.542   4.719   8.821  0.1562  0.8271 -1.1645
  496MOL0     H66906  -0.447   4.611   8.731 -1.5206  2.3295 -0.2387
  496MOL0     H66907  -0.383   4.485   8.947 -1.7993 -2.4537  0.7276
  496MOL0     H66908  -0.465   4.614   9.038  0.6112  0.8324  0.1138
  496MOL0     H66909  -0.576   4.415   9.028 -0.0592  1.7735  0.1448
  496MOL0     H66910  -0.565   4.409   8.839 -3.1093 -1.0062 -0.2025
  496MOL0     H66911  -0.787   4.503   8.719  1.9560 -0.1962  1.7441
  496MOL0     H66912  -1.051   4.548   8.727  1.9421 -1.2894  1.1445
  496MOL0     H66913  -1.118   4.583   8.894 -1.5491  0.8141 -0.9575
  496MOL0     H66914  -0.965   4.792   8.723 -0.1871 -1.0253  0.1161
  496MOL0     H66915  -1.049   4.817   8.874  0.0604  2.0988 -1.0802
  496MOL0     H66916  -1.230   4.737   8.665 -2.2664  0.7062  0.8916
  496MOL0     H66917  -1.132   4.893   8.645  1.0613 -2.3746 -2.4733
  496MOL0     H66918  -1.248   4.912   8.898  0.9636 -2.8259 -0.0693
  496MOL0     H66919  -1.362   4.805   8.836  1.3443 -2.3796 -0.7082
  496MOL0     H66920  -1.446   4.765   8.633 -3.3608 -0.2899  1.7248
  496MOL0     H66921  -1.752   4.698   8.467  0.0293  1.3306 -0.6831
  496MOL0     H66922  -1.608   4.689   8.383 -1.5818  3.2804 -0.4388
  496MOL0     H66923  -1.609   4.631   8.549 -0.0224 -2.7432 -2.1748
  496MOL0     H66924  -1.840   4.986   8.084  1.1596  1.8271  1.8156
  496MOL0     H66925  -2.019   4.992   7.919 -0.0010 -1.3540 -0.1488
  496MOL0     H66926  -2.216   5.190   7.872 -0.8954 -0.3152  2.9019
  496MOL0     H66927  -2.195   5.030   7.783 -0.2074 -1.2658  0.4396
  496MOL0     H66928  -2.443   5.005   7.752 -1.5312  1.7660 -0.1861
  496MOL0     H66929  -2.458   5.166   7.829  1.6230 -0.7615  2.9269
  496MOL0     H66930  -2.262   5.184   7.631  0.7745  2.1240  1.7157
  496MOL0     H66931  -2.380   5.288   7.667  1.6698 -0.0243  0.9673
  496MOL0     H66932  -2.388   5.034   7.500  1.5544  1.3891 -0.2287
  496MOL0     H66933  -2.544   5.093   7.571  1.1935  0.2089  4.1863
  496MOL0     H66934  -2.371   5.209   7.355 -0.3126  2.9049 -1.3897
  496MOL0     H66935  -2.488   5.316   7.438  0.4523  0.1083 -0.2935
  496MOL0     H66936  -2.579   5.058   7.322  0.9599 -0.4253  0.9462
  496MOL0     H66937  -2.678   5.195   7.385 -1.1919  1.4750 -2.1264
  496MOL0     H66938  -2.513   5.203   7.129 -0.5928  1.9885 -1.7043
  496MOL0     H66939  -2.590   5.332   7.215  0.6871 -0.0442  0.5703
  496MOL0     H66940  -2.714   5.095   7.070  0.5108 -0.9297  0.1828
  496MOL0     H66941  -2.729   5.258   7.016 -0.4420 -0.6651  0.1457
  496MOL0     H66942  -2.310   5.078   8.228  1.0339  3.1592  2.8558
  496MOL0     H66943  -2.144   5.080   8.381 -0.5380  0.3085 -1.0206
  496MOL0     H66944  -1.696   5.165   8.489  2.3202 -0.2263 -2.2058
  496MOL0     H66945  -1.518   5.179   8.660  2.2865 -0.2503 -0.8725
  496MOL0     H66946   0.211   5.057   8.462  1.5109 -0.2730  0.6800
  496MOL0     H66947   0.417   5.171   8.429 -0.7033 -2.2046  0.9687
  496MOL0     H66948   0.568   5.577   8.309 -0.4829  1.1623  0.0545
  496MOL0     H66949   0.754   5.687   8.200  3.7063 -0.4681 -1.5294
  496MOL0     H66950   1.042   5.834   8.509 -4.1418  2.0432 -0.7817
  496MOL0     H66951   1.156   5.757   8.403  2.4295  2.4802 -1.2608
  496MOL0     H66952   1.176   5.998   8.441  1.0485 -0.0488 -0.8156
  496MOL0     H66953   1.013   6.032   8.378  0.9197  2.4115 -2.1844
  496MOL0     H66954   1.085   5.921   8.154  0.9006 -0.0879 -0.8476
  496MOL0     H66955   1.258   5.952   8.222  0.0310  2.1568 -0.5005
  496MOL0     H66956   1.043   6.147   8.171 -1.2911 -1.5220  2.4094
  496MOL0     H66957   1.196   6.133   8.078 -4.3774  0.4013 -2.4862
  496MOL0     H66958   1.309   6.376   8.394 -3.3214  1.9663 -1.4318
  496MOL0     H66959   0.994   5.640   8.553  0.6343 -1.3773 -0.7644
  496MOL0     H66960   0.801   5.509   8.656  3.1705 -1.3516 -0.4499
  497MOL0     O66961   6.556   7.843   3.782  0.5676 -0.9881  0.3123
  497MOL0     C66962   6.607   7.784   3.686 -0.2358 -0.0891  0.2108
  497MOL0     O66963   6.554   7.702   3.598  0.4345 -0.4941 -0.5284
  497MOL0     C66964   6.430   7.644   3.614  0.2843 -0.7399 -0.0029
  497MOL0     C66965   6.312   7.712   3.570 -0.4757  0.4742  0.5694
  497MOL0     C66966   6.187   7.650   3.586  0.5863 -0.2161  0.0054
  497MOL0     C66967   6.176   7.515   3.636  0.1409  0.0985 -0.0521
  497MOL0     O66968   6.057   7.454   3.670  0.1522 -0.2536 -0.0012
  497MOL0     C66969   5.960   7.461   3.570 -0.4773 -0.5261  0.7959
  497MOL0     C66970   5.848   7.351   3.592  0.6372  0.1894 -0.0243
  497MOL0     C66971   5.721   7.381   3.508 -0.8054  0.1804  1.0708
  497MOL0     C66972   5.630   7.257   3.511  0.2071 -0.0759 -0.0980
  497MOL0     C66973   5.489   7.306   3.459 -0.7616 -0.4404 -0.1529
  497MOL0     C66974   5.391   7.198   3.442  0.0762  0.3596 -0.9157
  497MOL0     C66975   5.258   7.239   3.378  0.3675  0.4553  0.0377
  497MOL0     C66976   5.156   7.122   3.397 -0.2557 -0.7224 -0.5827
  497MOL0     N66977   5.177   7.014   3.297  0.4136  0.4799 -0.0781
  497MOL0     C66978   5.273   6.919   3.305 -0.4111  0.4921 -0.0914
  497MOL0     C66979   5.266   6.853   3.183 -0.4017 -0.3150  0.1470
  497MOL0     C66980   5.341   6.727   3.152 -0.5943 -0.0465 -0.0917
  497MOL0     C66981   5.498   6.730   3.184  0.4763  1.0811  0.4034
  497MOL0     C66982   5.542   6.584   3.164 -0.2489  0.3319  0.4100
  497MOL0     C66983   5.695   6.569   3.177 -0.1808  0.2269 -0.7705
  497MOL0     O66984   5.723   6.427   3.166 -0.3033  0.2632  0.0989
  497MOL0     C66985   5.834   6.411   3.094 -0.0206  0.2141  0.6459
  497MOL0     C66986   5.826   6.405   2.953 -0.4976 -0.7208  0.5396
  497MOL0     C66987   5.930   6.396   2.873 -0.7689  0.7005  0.0037
  497MOL0     C66988   5.911   6.389   2.728  0.9000  0.6177  0.5063
  497MOL0     C66989   6.057   6.388   2.923  0.0764 -0.2146 -0.3105
  497MOL0     C66990   6.183   6.377   2.846 -0.0160 -0.3941 -0.4210
  497MOL0     O66991   6.276   6.471   2.877  0.3912 -0.4650  0.2217
  497MOL0     C66992   6.405   6.470   2.847 -0.4284  0.2670  0.6721
  497MOL0     C66993   6.487   6.503   2.943  0.0705  0.5375 -0.2975
  497MOL0     C66994   6.628   6.493   2.920  0.0727 -0.4927 -0.4641
  497MOL0     C66995   6.679   6.445   2.797  0.0653 -1.5829  0.1003
  497MOL0     O66996   6.807   6.426   2.757 -0.2238 -0.0551 -0.8600
  497MOL0     C66997   6.912   6.448   2.854 -0.4740 -0.1353  0.4562
  497MOL0     C66998   7.044   6.430   2.780 -0.4588 -0.2221 -0.8759
  497MOL0     C66999   7.093   6.286   2.777 -0.1280 -0.6187  0.1706
  497MOL0     C67000   7.174   6.260   2.906 -0.0245  0.7421  0.1443
  497MOL0     C67001   7.211   6.106   2.901 -0.1023 -0.2476 -0.4392
  497MOL0     C67002   7.266   6.051   3.028  0.2226 -0.0194 -0.2821
  497MOL0     C67003   7.304   5.900   3.025  0.4236  1.0168  0.1598
  497MOL0     C67004   7.420   5.866   3.120  0.0735  0.5190 -0.4313
  497MOL0    Cl67005   7.562   5.927   3.032  0.9024 -0.1046  0.0571
  497MOL0     C67006   6.588   6.410   2.700  1.1059 -0.4213 -0.0709
  497MOL0     C67007   6.452   6.432   2.721 -0.6238 -0.9000  0.4002
  497MOL0     O67008   6.205   6.276   2.782 -0.1173  0.4693 -0.5470
  497MOL0     C67009   6.072   6.380   3.068 -0.0380  0.4830  0.4214
  497MOL0     C67010   5.957   6.392   3.150  0.4008 -0.2609 -0.1457
  497MOL0     N67011   5.153   6.905   3.116 -0.3280  0.1265 -0.8254
  497MOL0     N67012   5.099   7.005   3.180  0.6604  0.1583 -0.0028
  497MOL0     C67013   6.292   7.454   3.677  0.5790  0.6065  0.5063
  497MOL0     C67014   6.411   7.519   3.674 -0.0041  0.0978  0.3116
  497MOL0     C67015   6.754   7.807   3.667  0.2892  0.0718 -0.0021
  497MOL0     C67016   6.827   7.702   3.593  0.2830  0.2703  0.7264
  497MOL0     C67017   6.963   7.713   3.572 -0.4030  0.6760  0.2891
  497MOL0     C67018   7.033   7.817   3.631  0.1326 -0.5075  0.2460
  497MOL0     O67019   7.168   7.816   3.607 -0.1388 -0.0269 -0.3831
  497MOL0     C67020   7.242   7.932   3.656 -0.0488  0.1085 -0.2706
  497MOL0     C67021   7.385   7.916   3.632  0.5927  0.1380 -0.5497
  497MOL0     C67022   7.464   7.787   3.690  0.0331 -0.0023 -0.0896
  497MOL0     C67023   7.398   7.640   3.664 -0.0681 -0.3716 -0.0198
  497MOL0     C67024   7.385   7.599   3.527  0.1289  0.1179  0.1654
  497MOL0     C67025   7.405   7.568   3.411  0.4796 -0.7035 -0.3554
  497MOL0     C67026   6.962   7.919   3.711  0.2792  0.2517  0.4017
  497MOL0     C67027   6.824   7.911   3.733  0.3578  0.5680 -0.2263
  497MOL0     H67028   6.330   7.808   3.522  2.2723 -1.8510 -3.6960
  497MOL0     H67029   6.095   7.701   3.559  1.5118  2.0793  0.9184
  497MOL0     H67030   5.908   7.556   3.558 -1.3283 -0.9983  0.6745
  497MOL0     H67031   6.003   7.429   3.475 -3.9509 -2.6530 -0.2224
  497MOL0     H67032   5.886   7.254   3.557 -2.4745 -0.4533 -1.9934
  497MOL0     H67033   5.825   7.343   3.698  0.0833 -0.5028 -0.1895
  497MOL0     H67034   5.671   7.466   3.555  2.0452  1.8613  1.3028
  497MOL0     H67035   5.737   7.398   3.401 -0.2624 -0.3353  1.0633
  497MOL0     H67036   5.665   7.166   3.463  1.7308 -0.1194  1.0224
  497MOL0     H67037   5.629   7.220   3.614  1.1791 -1.1367 -0.4415
  497MOL0     H67038   5.445   7.375   3.531  1.1676 -0.3282  0.9952
  497MOL0     H67039   5.504   7.354   3.361 -3.0866 -2.9513 -1.8831
  497MOL0     H67040   5.438   7.120   3.381  1.2535  0.6119 -0.3741
  497MOL0     H67041   5.376   7.150   3.539  1.1971  0.6495 -0.5850
  497MOL0     H67042   5.226   7.320   3.444 -2.2176 -1.7790  1.7109
  497MOL0     H67043   5.264   7.265   3.272  2.0615 -0.2098 -0.0638
  497MOL0     H67044   5.055   7.163   3.402  0.2100  0.5099 -0.9838
  497MOL0     H67045   5.164   7.074   3.495 -1.6537  1.8866  0.9251
  497MOL0     H67046   5.339   6.891   3.387  0.5626 -0.2988 -1.1245
  497MOL0     H67047   5.295   6.651   3.215 -2.0886  0.3627 -0.6469
  497MOL0     H67048   5.315   6.691   3.052 -1.3360  0.3593 -0.0481
  497MOL0     H67049   5.521   6.760   3.287  0.8667 -1.4257  1.1162
  497MOL0     H67050   5.552   6.786   3.107  0.1589  0.9237  0.0614
  497MOL0     H67051   5.503   6.557   3.066 -1.8950 -0.3929  1.2137
  497MOL0     H67052   5.494   6.520   3.239 -2.0602  1.4963  0.3193
  497MOL0     H67053   5.728   6.605   3.275  1.4971 -0.2136 -1.1414
  497MOL0     H67054   5.751   6.632   3.107  0.8272  1.8938  1.4196
  497MOL0     H67055   5.726   6.410   2.911 -0.7198  0.7645  1.1822
  497MOL0     H67056   5.984   6.450   2.673  1.0757 -1.5237 -1.8197
  497MOL0     H67057   5.915   6.290   2.683 -2.0784  0.6250  0.0752
  497MOL0     H67058   5.809   6.423   2.708  0.1151 -0.8661  1.7700
  497MOL0     H67059   6.456   6.547   3.037  0.3958  3.9425 -1.6397
  497MOL0     H67060   6.680   6.537   3.004 -1.1987 -0.5269  0.3557
  497MOL0     H67061   6.912   6.543   2.908  2.5210 -0.6090  1.4715
  497MOL0     H67062   6.896   6.366   2.926 -4.2686  0.0018  0.0075
  497MOL0     H67063   7.041   6.466   2.677 -0.5313 -1.1476 -1.1981
  497MOL0     H67064   7.122   6.495   2.820 -0.8674 -0.6256  0.6463
  497MOL0     H67065   7.165   6.265   2.698 -2.9567  0.6549 -3.0107
  497MOL0     H67066   7.008   6.217   2.767 -0.6087 -0.9351  4.6376
  497MOL0     H67067   7.260   6.326   2.923  0.5927 -0.6527  3.1407
  497MOL0     H67068   7.111   6.264   2.995  1.7759 -1.5065  1.6526
  497MOL0     H67069   7.273   6.088   2.813 -0.3636  1.0993 -0.9213
  497MOL0     H67070   7.118   6.053   2.877 -0.8355  1.1415 -0.7856
  497MOL0     H67071   7.350   6.117   3.053  0.3564 -1.5014  3.9092
  497MOL0     H67072   7.200   6.065   3.114  1.1712  2.2023  0.1472
  497MOL0     H67073   7.339   5.876   2.924 -2.4252 -0.0319 -0.6704
  497MOL0     H67074   7.216   5.840   3.053  1.3353 -0.5779 -0.2553
  497MOL0     H67075   7.420   5.756   3.120 -3.9263  0.3003 -3.6874
  497MOL0     H67076   7.415   5.917   3.217  0.9050  1.0504 -0.6578
  497MOL0     H67077   6.626   6.382   2.602 -1.0398  0.8660 -1.3433
  497MOL0     H67078   6.382   6.410   2.642  0.6359  1.5982 -1.5439
  497MOL0     H67079   6.175   6.376   3.105  1.0846 -1.3212 -2.5618
  497MOL0     H67080   5.967   6.413   3.256  1.4183  1.9019 -0.6155
  497MOL0     H67081   6.291   7.356   3.722  0.1536  0.2184 -0.3376
  497MOL0     H67082   6.509   7.474   3.691  0.3897  0.6155 -0.5417
  497MOL0     H67083   6.775   7.609   3.572 -1.1137  1.2415 -0.3976
  497MOL0     H67084   7.009   7.632   3.515 -1.0137 -0.4253  1.3330
  497MOL0     H67085   7.207   8.010   3.587 -1.1067 -2.3451 -2.7431
  497MOL0     H67086   7.228   7.948   3.763  4.5281  1.5387  0.3035
  497MOL0     H67087   7.432   8.005   3.674 -0.7830  1.3992 -1.5821
  497MOL0     H67088   7.387   7.920   3.522 -1.9232  1.6228 -0.6103
  497MOL0     H67089   7.485   7.793   3.798  1.4306  4.9825 -0.4297
  497MOL0     H67090   7.568   7.790   3.658  0.2206  1.1738  0.5974
  497MOL0     H67091   7.304   7.621   3.716  0.6494 -0.2557  1.3733
  497MOL0     H67092   7.475   7.580   3.714  2.1497  1.9324 -0.4500
  497MOL0     H67093   7.436   7.556   3.309 -2.5417  0.5314 -1.5575
  497MOL0     H67094   7.011   8.012   3.736  2.2169 -0.2436 -1.2397
  497MOL0     H67095   6.770   7.988   3.787  1.0504  0.7913  0.1551
  498MOL0     O67096   3.480   2.575  10.794 -0.2244  0.2375 -0.0060
  498MOL0     C67097   3.589   2.535  10.748  0.0936 -0.1123 -0.6928
  498MOL0     O67098   3.632   2.405  10.744  0.1035 -0.1072  0.1058
  498MOL0     C67099   3.528   2.311  10.771 -0.2555  0.1667 -0.9896
  498MOL0     C67100   3.545   2.217  10.872 -0.0736 -0.0411 -0.1096
  498MOL0     C67101   3.452   2.110  10.895  0.4880 -0.2097 -0.9740
  498MOL0     C67102   3.336   2.101  10.824 -0.4633  0.1628 -0.1019
  498MOL0     O67103   3.252   2.010  10.868 -0.1992 -0.2495 -0.2184
  498MOL0     C67104   3.146   1.969  10.783 -0.8226  0.1731  0.7232
  498MOL0     C67105   3.072   1.847  10.820 -0.5068  0.4561  0.3515
  498MOL0     C67106   2.981   1.889  10.937  0.0072  0.2666 -0.5752
  498MOL0     C67107   2.895   1.769  10.998 -0.4344 -0.3525 -0.6268
  498MOL0     C67108   2.760   1.741  10.913 -0.2825 -0.7100 -0.4766
  498MOL0     C67109   2.721   1.591  10.961  0.0369 -1.0267  0.0860
  498MOL0     C67110   2.590   1.564  10.889 -0.1282 -0.8720 -0.0561
  498MOL0     C67111   2.535   1.424  10.905 -0.1634  0.2969  0.0341
  498MOL0     N67112   2.409   1.404  10.843  0.6487  0.3583 -0.5857
  498MOL0     C67113   2.294   1.464  10.870  0.5223 -1.0348 -0.0895
  498MOL0     C67114   2.207   1.426  10.772 -1.0019 -0.7577  0.0276
  498MOL0     C67115   2.072   1.477  10.747  0.9331  0.7549  0.1350
  498MOL0     C67116   1.986   1.396  10.650 -0.5896 -0.6325  0.8884
  498MOL0     C67117   1.946   1.253  10.696  0.7217  0.1118 -0.6201
  498MOL0     C67118   1.875   1.176  10.595  0.2214  1.1824  0.0432
  498MOL0     O67119   1.823   1.061  10.666  0.2040  0.7857 -0.4264
  498MOL0     C67120   1.740   0.975  10.600  0.2629  0.5700  0.6965
  498MOL0     C67121   1.741   0.958  10.461  0.9561 -0.0233  0.2681
  498MOL0     C67122   1.650   0.871  10.393 -0.1341  0.4376  0.1876
  498MOL0     C67123   1.664   0.848  10.242 -0.2216 -0.4221 -1.1724
  498MOL0     C67124   1.557   0.797  10.466 -0.3485 -0.5678  0.0604
  498MOL0     C67125   1.431   0.719  10.415 -0.1465  0.2011  0.9450
  498MOL0     O67126   1.370   0.637  10.507  0.3993 -0.3803  0.1785
  498MOL0     C67127   1.264   0.570  10.472  0.6235 -0.1896  0.1481
  498MOL0     C67128   1.151   0.600  10.550  0.3556  0.0608 -0.3299
  498MOL0     C67129   1.031   0.536  10.537  0.0987  0.4706 -0.2764
  498MOL0     C67130   1.020   0.435  10.440  0.9437  0.0819 -0.3003
  498MOL0     O67131   0.900   0.374  10.455 -0.5797  0.0074  0.2862
  498MOL0     C67132   0.854   0.287  10.349 -0.0439  0.0079 -0.1291
  498MOL0     C67133   0.710   0.249  10.364 -0.7653  0.5883 -0.1634
  498MOL0     C67134   0.703   0.128  10.454  1.5732  0.3943  0.4734
  498MOL0     C67135   0.562   0.071  10.482 -0.4386 -0.7481  0.2440
  498MOL0     C67136   0.463   0.173  10.530  0.5163 -0.2963  0.4929
  498MOL0     C67137   0.348   0.107  10.586 -0.5415 -0.1161 -0.4574
  498MOL0     C67138   0.215   0.190  10.598  0.7878 -0.5615  0.8859
  498MOL0     C67139   0.175   0.245  10.459 -0.0224 -0.2997  0.1115
  498MOL0    Cl67140   0.168   0.116  10.333  0.1680  0.5397 -0.0796
  498MOL0     C67141   1.127   0.392  10.369 -0.9056 -0.0590  0.5309
  498MOL0     C67142   1.260   0.460  10.377  0.6350 -0.2293  0.2000
  498MOL0     O67143   1.408   0.708  10.292  0.2181 -0.1133 -0.5556
  498MOL0     C67144   1.557   0.819  10.605 -0.6952 -0.5282  0.2694
  498MOL0     C67145   1.648   0.899  10.671  1.4181  0.7802 -0.7404
  498MOL0     N67146   2.275   1.348  10.690 -0.1264  0.6074 -0.6904
  498MOL0     N67147   2.401   1.335  10.728 -0.4260 -0.0742 -0.5420
  498MOL0     C67148   3.318   2.186  10.717  0.2840  0.9888  0.0668
  498MOL0     C67149   3.409   2.287  10.690 -0.5572  0.6634  0.4634
  498MOL0     C67150   3.677   2.636  10.684  0.0588 -0.2799 -0.7467
  498MOL0     C67151   3.777   2.585  10.598 -0.0767 -0.7173  0.6040
  498MOL0     C67152   3.877   2.673  10.556 -0.5311 -1.1157  0.6143
  498MOL0     C67153   3.885   2.805  10.600 -0.0057 -0.3071 -0.8529
  498MOL0     O67154   3.993   2.873  10.549  0.0056 -0.7822  0.1839
  498MOL0     C67155   4.029   2.990  10.626 -0.0056  0.2256  0.0908
  498MOL0     C67156   4.178   3.032  10.614 -0.2635 -0.4267 -0.7612
  498MOL0     C67157   4.224   3.033  10.466 -0.9091 -0.6919 -0.7989
  498MOL0     C67158   4.361   3.104  10.452  0.2254 -0.2360  0.4217
  498MOL0     C67159   4.436   3.146  10.585  0.3080 -0.3520  0.6169
  498MOL0     C67160   4.493   3.180  10.689  0.5477 -0.6653 -0.1828
  498MOL0     C67161   3.778   2.860  10.677 -0.4206  0.3298  0.4149
  498MOL0     C67162   3.685   2.771  10.725  0.3597 -0.4049  0.1220
  498MOL0     H67163   3.629   2.229  10.940  0.4031  2.1217 -0.9942
  498MOL0     H67164   3.464   2.043  10.980  3.2903  2.3572  0.8713
  498MOL0     H67165   3.082   2.055  10.759 -2.0130 -0.7715  0.4062
  498MOL0     H67166   3.191   1.933  10.690 -3.3939 -0.7478 -0.2615
  498MOL0     H67167   3.018   1.813  10.731 -0.9739  2.3970 -0.1495
  498MOL0     H67168   3.138   1.769  10.859 -1.7835 -0.2326  1.1875
  498MOL0     H67169   3.043   1.944  11.008  0.2753 -0.1423 -0.4911
  498MOL0     H67170   2.904   1.962  10.910 -1.3049 -0.9100 -0.1035
  498MOL0     H67171   2.959   1.681  11.004  1.2516  0.8316 -0.7033
  498MOL0     H67172   2.870   1.799  11.100 -2.3788  1.5763 -1.5636
  498MOL0     H67173   2.685   1.817  10.932 -0.4437 -0.4618 -2.0345
  498MOL0     H67174   2.784   1.745  10.806  0.0667  1.8842 -0.3715
  498MOL0     H67175   2.799   1.519  10.938  1.6438  1.1885 -1.8990
  498MOL0     H67176   2.710   1.601  11.070  1.3671 -0.3384  0.1727
  498MOL0     H67177   2.518   1.627  10.943  2.0548 -0.1064  2.1601
  498MOL0     H67178   2.608   1.584  10.783  0.0426 -2.1132 -0.2680
  498MOL0     H67179   2.514   1.403  11.011 -1.6347  2.7263  0.3036
  498MOL0     H67180   2.598   1.343  10.867  0.5735  0.9199 -0.1013
  498MOL0     H67181   2.276   1.528  10.957  1.2484  0.6302 -1.1141
  498MOL0     H67182   2.023   1.467  10.845 -0.7976  2.5302 -0.4683
  498MOL0     H67183   2.066   1.584  10.726 -2.6934  1.2379  2.5349
  498MOL0     H67184   2.029   1.403  10.550 -1.1323  1.9062  0.7700
  498MOL0     H67185   1.897   1.459  10.641  0.1653  0.5379  1.4705
  498MOL0     H67186   1.888   1.262  10.788 -0.7964 -0.6469 -1.4628
  498MOL0     H67187   2.039   1.195  10.705 -0.7901 -2.7695 -2.1622
  498MOL0     H67188   1.946   1.147  10.516  1.0212  2.1193  0.4001
  498MOL0     H67189   1.791   1.230  10.551  0.3812 -0.5847 -2.7071
  498MOL0     H67190   1.808   1.004  10.389  0.2871 -2.4829 -2.0996
  498MOL0     H67191   1.668   0.739  10.227  1.0976 -0.6429  0.4926
  498MOL0     H67192   1.579   0.893  10.189  1.6655  0.1454 -3.9234
  498MOL0     H67193   1.757   0.893  10.208  0.2984  1.2546  2.0922
  498MOL0     H67194   1.149   0.678  10.625 -1.5482 -0.1107 -0.1512
  498MOL0     H67195   0.950   0.557  10.606  0.1047 -1.0075  0.2123
  498MOL0     H67196   0.863   0.359  10.267  1.7241 -0.8791 -0.7557
  498MOL0     H67197   0.919   0.202  10.331 -1.4767 -0.9499 -1.0629
  498MOL0     H67198   0.648   0.331  10.400 -0.3124  1.1046 -0.5385
  498MOL0     H67199   0.676   0.226  10.263  1.1450  0.8218 -0.8948
  498MOL0     H67200   0.764   0.129  10.544  2.4365 -0.8932 -0.0649
  498MOL0     H67201   0.749   0.047  10.396 -0.8133  1.0937 -2.6612
  498MOL0     H67202   0.516   0.026  10.393 -0.6504  4.8894 -2.9601
  498MOL0     H67203   0.585  -0.009  10.553  1.9437 -0.4732 -0.1414
  498MOL0     H67204   0.425   0.219  10.438 -1.6985  0.6794  1.8267
  498MOL0     H67205   0.504   0.261  10.582 -2.0304  2.2589 -1.4808
  498MOL0     H67206   0.336   0.008  10.541  3.3233 -0.7919 -0.3435
  498MOL0     H67207   0.382   0.090  10.688 -0.1819 -3.0237 -1.0002
  498MOL0     H67208   0.224   0.274  10.668  0.6772  0.3658 -0.1892
  498MOL0     H67209   0.143   0.121  10.643 -1.3358  1.5332  0.8629
  498MOL0     H67210   0.249   0.323  10.437 -0.5291  0.6174  1.5005
  498MOL0     H67211   0.074   0.287  10.459 -1.2199 -2.9465 -1.3592
  498MOL0     H67212   1.119   0.305  10.305 -1.3852 -1.8777  2.9252
  498MOL0     H67213   1.346   0.437  10.315 -0.3897  0.7807 -1.6972
  498MOL0     H67214   1.494   0.748  10.657 -0.4665 -2.0809 -1.4561
  498MOL0     H67215   1.628   0.908  10.777  2.3175  0.0024 -0.4904
  498MOL0     H67216   3.231   2.178  10.652 -0.1355 -1.6647  0.8555
  498MOL0     H67217   3.394   2.342  10.597  0.3604 -4.9550 -3.5444
  498MOL0     H67218   3.786   2.479  10.576 -1.4265 -1.0521  1.5820
  498MOL0     H67219   3.940   2.641  10.474 -5.0251  0.6995 -4.0516
  498MOL0     H67220   3.962   3.075  10.605 -0.4324 -0.4763 -1.5783
  498MOL0     H67221   4.015   2.975  10.733 -0.0062  1.4605  0.2831
  498MOL0     H67222   4.241   2.969  10.676 -0.3902  3.2011  3.5741
  498MOL0     H67223   4.177   3.135  10.651  1.2273 -0.4376 -0.6614
  498MOL0     H67224   4.150   3.084  10.404 -0.3125  0.4133 -0.6300
  498MOL0     H67225   4.236   2.930  10.431 -0.0853 -0.2308 -1.9236
  498MOL0     H67226   4.345   3.199  10.399 -0.4826 -1.0583 -0.8823
  498MOL0     H67227   4.420   3.051  10.377  0.9174  0.3169  0.5613
  498MOL0     H67228   4.561   3.198  10.769 -0.0943  0.9732  0.0210
  498MOL0     H67229   3.773   2.962  10.713  1.3946 -0.0687  1.9602
  498MOL0     H67230   3.616   2.806  10.801 -2.0053 -0.1367 -2.0102
  499MOL0     O67231   4.562   2.637   1.267  0.2349 -0.1559 -0.5493
  499MOL0     C67232   4.498   2.563   1.345  0.5617  0.0609  0.5191
  499MOL0     O67233   4.552   2.463   1.427  0.9986 -0.0072 -0.1827
  499MOL0     C67234   4.675   2.413   1.427 -0.7347  0.5030 -0.6604
  499MOL0     C67235   4.703   2.341   1.545  0.2952 -1.0662  0.3423
  499MOL0     C67236   4.830   2.289   1.561  0.3242 -0.7910 -0.4079
  499MOL0     C67237   4.926   2.304   1.456  0.6465  1.0702 -0.0336
  499MOL0     O67238   5.049   2.249   1.479  0.9889 -0.3823  0.1143
  499MOL0     C67239   5.149   2.345   1.488  0.1685 -0.9209  0.5410
  499MOL0     C67240   5.279   2.272   1.528  0.8586 -0.5252 -0.3619
  499MOL0     C67241   5.293   2.249   1.683  0.4011  0.5506  0.3418
  499MOL0     C67242   5.403   2.148   1.723  0.0993 -0.1854  0.3486
  499MOL0     C67243   5.553   2.191   1.711  0.9911  0.9387  0.4408
  499MOL0     C67244   5.644   2.105   1.795  0.0312 -0.1899  0.4091
  499MOL0     C67245   5.600   1.968   1.831  0.3156 -0.3067  0.3097
  499MOL0     C67246   5.710   1.886   1.904  1.1996 -0.0992  0.7021
  499MOL0     N67247   5.651   1.753   1.905 -0.3644  0.5265  0.2677
  499MOL0     C67248   5.685   1.665   1.804  0.4886 -0.0197  0.2174
  499MOL0     C67249   5.649   1.545   1.853  0.4143  0.3434  0.7779
  499MOL0     C67250   5.657   1.423   1.769 -0.1174  0.4077 -0.9122
  499MOL0     C67251   5.528   1.406   1.694 -0.8683  0.2883 -0.1297
  499MOL0     C67252   5.423   1.322   1.754  0.6866 -0.8146 -0.0701
  499MOL0     C67253   5.305   1.286   1.649 -0.7834  0.0843  0.1168
  499MOL0     O67254   5.367   1.239   1.529  0.7068  0.7622  0.3656
  499MOL0     C67255   5.395   1.108   1.523  0.7615  0.7984 -0.1836
  499MOL0     C67256   5.467   1.067   1.406  0.2808  0.4886 -0.1870
  499MOL0     C67257   5.512   0.935   1.387  0.0369  0.0779  0.0965
  499MOL0     C67258   5.592   0.911   1.261 -0.6328  0.0153 -0.1353
  499MOL0     C67259   5.485   0.838   1.483 -0.1469 -0.6175  0.8676
  499MOL0     C67260   5.502   0.692   1.471  0.4756 -0.4605 -0.0447
  499MOL0     O67261   5.531   0.634   1.587  0.6574 -0.3212  0.5544
  499MOL0     C67262   5.572   0.504   1.584  0.3732  0.1771  0.6208
  499MOL0     C67263   5.702   0.476   1.562  0.2662 -0.0316 -1.1056
  499MOL0     C67264   5.749   0.344   1.556 -0.1367 -0.0293 -0.5030
  499MOL0     C67265   5.664   0.233   1.575 -0.2398 -0.1901  0.4873
  499MOL0     O67266   5.700   0.098   1.565  0.2984  0.5854  0.0968
  499MOL0     C67267   5.827   0.053   1.512  1.0681  0.2900 -0.3500
  499MOL0     C67268   5.860  -0.086   1.579  0.2352 -0.5404  0.2299
  499MOL0     C67269   5.990  -0.139   1.515 -0.0977  0.3510  0.3957
  499MOL0     C67270   6.068  -0.227   1.606 -0.0461  0.5942  0.4607
  499MOL0     C67271   5.997  -0.366   1.599  0.1668  0.8038 -0.0936
  499MOL0     C67272   6.040  -0.458   1.713 -0.0430 -0.1134 -0.4862
  499MOL0     C67273   5.983  -0.419   1.856 -0.0268  0.0242 -0.8614
  499MOL0     C67274   5.824  -0.409   1.880 -0.0844 -0.0317 -0.6680
  499MOL0    Cl67275   5.811  -0.361   2.053  0.1754  0.1322  0.0145
  499MOL0     C67276   5.536   0.268   1.604 -0.5735 -0.3166 -0.5782
  499MOL0     C67277   5.483   0.400   1.612 -1.0838 -0.1326 -0.8208
  499MOL0     O67278   5.489   0.642   1.361 -1.2187  0.2812  0.1540
  499MOL0     C67279   5.419   0.875   1.600  0.3705  0.1539  0.3889
  499MOL0     C67280   5.371   1.009   1.618  0.3859 -0.4700 -0.1926
  499MOL0     N67281   5.592   1.561   1.979 -0.3999 -0.2632  0.0169
  499MOL0     N67282   5.605   1.684   2.016  0.8441 -0.6187  0.9743
  499MOL0     C67283   4.887   2.368   1.340 -0.6836  0.9913  0.0611
  499MOL0     C67284   4.764   2.423   1.325  0.0238 -0.8538  0.7256
  499MOL0     C67285   4.356   2.592   1.366 -0.7705  0.4577 -0.5068
  499MOL0     C67286   4.289   2.519   1.464 -0.6836  1.2984  1.7253
  499MOL0     C67287   4.157   2.534   1.473  0.2477 -0.0575  0.0777
  499MOL0     C67288   4.085   2.621   1.391  0.0013  0.4471  0.7740
  499MOL0     O67289   3.950   2.613   1.379 -0.6333  0.0568  0.4775
  499MOL0     C67290   3.887   2.623   1.508 -0.4153  0.1113 -0.1329
  499MOL0     C67291   3.748   2.680   1.500 -0.0291  1.1315  0.0137
  499MOL0     C67292   3.750   2.827   1.465  0.0364  0.0242  0.0994
  499MOL0     C67293   3.746   2.872   1.312 -0.4966 -0.1716  0.0080
  499MOL0     C67294   3.632   2.817   1.235  0.0230  0.4397  0.2353
  499MOL0     C67295   3.544   2.768   1.170  0.2048 -0.0966 -0.7876
  499MOL0     C67296   4.156   2.696   1.298  0.4878 -1.4206  0.2699
  499MOL0     C67297   4.291   2.677   1.272 -0.0999 -1.2119 -0.0005
  499MOL0     H67298   4.628   2.337   1.623 -0.9932 -1.5972 -0.8823
  499MOL0     H67299   4.884   2.237   1.640  1.2370 -1.4361 -1.4176
  499MOL0     H67300   5.168   2.377   1.386 -0.5712 -0.8401  0.4262
  499MOL0     H67301   5.134   2.432   1.552  0.6890 -1.9141  2.0797
  499MOL0     H67302   5.278   2.178   1.473  0.1183 -1.0864  0.5831
  499MOL0     H67303   5.365   2.321   1.482 -0.4890 -1.1893 -3.8739
  499MOL0     H67304   5.310   2.342   1.736  1.1893  0.6794 -0.1188
  499MOL0     H67305   5.198   2.199   1.703  1.9737 -1.9709  2.1815
  499MOL0     H67306   5.367   2.123   1.823  0.0831  0.0708  0.4064
  499MOL0     H67307   5.383   2.054   1.670 -0.7943  0.2292 -0.0673
  499MOL0     H67308   5.581   2.191   1.605 -2.4548  1.0741 -0.6010
  499MOL0     H67309   5.569   2.292   1.749  1.1163  1.3901 -0.7636
  499MOL0     H67310   5.742   2.115   1.749 -1.3846  1.8851 -2.4674
  499MOL0     H67311   5.646   2.161   1.889  0.0625 -0.2624  0.4515
  499MOL0     H67312   5.522   1.975   1.908  2.9475 -2.3924  3.4256
  499MOL0     H67313   5.568   1.915   1.741  0.3253 -0.1481  0.2115
  499MOL0     H67314   5.733   1.924   2.003 -0.3980  3.1269 -0.0559
  499MOL0     H67315   5.796   1.888   1.836  0.7345 -2.0522 -0.0196
  499MOL0     H67316   5.715   1.680   1.701 -0.6236  0.9532  0.0121
  499MOL0     H67317   5.746   1.440   1.707  0.5152 -0.9000 -0.3964
  499MOL0     H67318   5.679   1.330   1.822  2.8134 -0.3128 -3.1106
  499MOL0     H67319   5.557   1.349   1.606  3.1313 -1.5085  2.0850
  499MOL0     H67320   5.489   1.504   1.664 -0.4882  1.1236  1.9759
  499MOL0     H67321   5.371   1.364   1.841 -0.7581 -0.1350 -1.2249
  499MOL0     H67322   5.456   1.227   1.797 -0.3402 -0.6723  1.0909
  499MOL0     H67323   5.251   1.377   1.622 -0.3047  0.2699 -0.2486
  499MOL0     H67324   5.231   1.226   1.702 -1.1241  2.5315  2.6309
  499MOL0     H67325   5.481   1.141   1.328  2.7246 -1.8890 -2.1927
  499MOL0     H67326   5.661   0.993   1.237 -0.1024  0.8105  3.6049
  499MOL0     H67327   5.653   0.821   1.277  1.8684  1.5170 -0.5737
  499MOL0     H67328   5.530   0.886   1.174  1.1902 -0.1869 -1.4638
  499MOL0     H67329   5.782   0.547   1.544  0.2120  0.1681 -0.5840
  499MOL0     H67330   5.853   0.329   1.526 -0.2187 -4.2838  0.6910
  499MOL0     H67331   5.821   0.052   1.403 -2.5732 -2.4032 -0.3084
  499MOL0     H67332   5.909   0.124   1.526  0.1974  1.1963  0.2994
  499MOL0     H67333   5.863  -0.079   1.688  0.2461  1.0650  0.1587
  499MOL0     H67334   5.778  -0.150   1.548 -1.0671  1.3619 -0.4343
  499MOL0     H67335   6.058  -0.056   1.491  2.6223 -0.4121  4.4647
  499MOL0     H67336   5.980  -0.201   1.425  2.9848 -0.5217  0.5182
  499MOL0     H67337   6.170  -0.231   1.566 -0.1212  1.1423  0.2107
  499MOL0     H67338   6.067  -0.188   1.708 -1.0307  0.1471  0.6366
  499MOL0     H67339   6.031  -0.417   1.508 -0.4248  1.2668 -0.5837
  499MOL0     H67340   5.891  -0.354   1.577 -0.0622  1.2144  1.1438
  499MOL0     H67341   6.001  -0.558   1.692 -1.4497  0.3219 -0.0467
  499MOL0     H67342   6.144  -0.490   1.722 -0.0239 -0.3092 -1.3375
  499MOL0     H67343   6.026  -0.325   1.891 -1.3419 -0.9730  4.3115
  499MOL0     H67344   6.019  -0.491   1.930 -1.6293  1.9594  1.9876
  499MOL0     H67345   5.766  -0.501   1.863 -2.1074  1.1894 -0.7780
  499MOL0     H67346   5.770  -0.339   1.815  0.5190  3.6643  2.4484
  499MOL0     H67347   5.468   0.184   1.613  0.3904 -0.8836  2.5242
  499MOL0     H67348   5.380   0.428   1.628 -1.6584 -1.6176 -1.7754
  499MOL0     H67349   5.394   0.802   1.676 -1.3542 -0.3297 -0.5951
  499MOL0     H67350   5.315   1.026   1.709  1.8167  0.6963  0.5113
  499MOL0     H67351   4.959   2.365   1.259 -0.9588 -4.1723 -0.3061
  499MOL0     H67352   4.737   2.467   1.229 -1.6196 -1.4061  0.8965
  499MOL0     H67353   4.345   2.456   1.532 -0.3075  1.4895  1.5938
  499MOL0     H67354   4.101   2.474   1.545  0.5365 -1.4238 -0.7849
  499MOL0     H67355   3.873   2.519   1.538 -2.6661  0.0675 -1.1526
  499MOL0     H67356   3.946   2.671   1.587 -1.8467  0.2220  0.9107
  499MOL0     H67357   3.696   2.682   1.597 -1.7282 -2.3058 -0.6453
  499MOL0     H67358   3.695   2.620   1.425  2.5326  0.8020 -1.6300
  499MOL0     H67359   3.839   2.858   1.521 -0.9632  0.1661  1.6724
  499MOL0     H67360   3.667   2.874   1.519  1.4231 -0.4870  2.8372
  499MOL0     H67361   3.842   2.857   1.262 -0.9143  1.0522 -1.2023
  499MOL0     H67362   3.737   2.981   1.315  1.1081 -0.0150  2.0652
  499MOL0     H67363   3.469   2.707   1.122  0.8636 -0.1366 -1.7895
  499MOL0     H67364   4.106   2.763   1.228  4.3119  1.6887  0.1946
  499MOL0     H67365   4.339   2.736   1.194 -0.1280 -0.6603  0.3912
  500MOL0     O67366   7.196   8.091   7.151  0.5779  0.2203 -0.6968
  500MOL0     C67367   7.202   8.205   7.194 -0.2427 -0.5958  0.8708
  500MOL0     O67368   7.122   8.304   7.150 -0.4317 -0.7064  0.1253
  500MOL0     C67369   7.003   8.295   7.082 -0.2765  0.1821  0.1060
  500MOL0     C67370   6.967   8.401   7.001  0.2425  0.5486 -0.0799
  500MOL0     C67371   6.838   8.400   6.942  0.0937  0.2421  0.1064
  500MOL0     C67372   6.741   8.291   6.959 -0.6903 -0.6865  0.0679
  500MOL0     O67373   6.617   8.279   6.905  0.4270  0.8340  0.0242
  500MOL0     C67374   6.573   8.366   6.803 -0.9140  0.8180 -0.1703
  500MOL0     C67375   6.423   8.327   6.782  0.0799  0.0110 -0.4625
  500MOL0     C67376   6.334   8.400   6.890 -0.1364 -0.7346 -0.1011
  500MOL0     C67377   6.194   8.341   6.896  0.3958  0.3718  0.1855
  500MOL0     C67378   6.101   8.383   6.784  0.4197 -0.7254 -0.7312
  500MOL0     C67379   5.962   8.337   6.806  0.4304 -0.5015  0.0731
  500MOL0     C67380   5.873   8.403   6.702  0.5987  0.1725  0.1927
  500MOL0     C67381   5.867   8.321   6.570  0.2195 -0.6563 -0.6457
  500MOL0     N67382   5.745   8.349   6.492  0.1789 -0.3766  0.6026
  500MOL0     C67383   5.732   8.427   6.380  0.0567 -0.2383  0.6934
  500MOL0     C67384   5.601   8.409   6.354  0.1943 -0.5890 -0.0787
  500MOL0     C67385   5.526   8.499   6.258  0.3693  0.6547 -0.0783
  500MOL0     C67386   5.383   8.520   6.304 -0.6313 -0.2649 -0.3313
  500MOL0     C67387   5.304   8.584   6.190 -0.3141 -0.0808  0.5737
  500MOL0     C67388   5.159   8.616   6.230  0.6173 -0.2165 -0.0250
  500MOL0     O67389   5.089   8.661   6.115  0.9011 -0.2994 -0.2217
  500MOL0     C67390   4.950   8.678   6.132 -0.8844  0.2384  0.0050
  500MOL0     C67391   4.885   8.790   6.197  0.6575 -0.1647  0.0924
  500MOL0     C67392   4.738   8.815   6.193 -0.2733 -0.0953  0.4747
  500MOL0     C67393   4.689   8.931   6.269  0.2600  0.1830  0.1336
  500MOL0     C67394   4.663   8.723   6.122 -0.5275  0.5542  1.7150
  500MOL0     C67395   4.510   8.743   6.093  0.1086  0.0448 -0.0345
  500MOL0     O67396   4.454   8.864   6.128  0.3341 -0.2681  0.1324
  500MOL0     C67397   4.316   8.892   6.138 -0.7610 -0.7031 -0.4592
  500MOL0     C67398   4.207   8.807   6.137  0.0162  0.2016  0.0558
  500MOL0     C67399   4.080   8.860   6.163 -0.4824  0.2988  0.1586
  500MOL0     C67400   4.060   8.995   6.196 -0.0465  1.0159 -0.0322
  500MOL0     O67401   3.943   9.045   6.246  0.9385 -0.0851 -0.5267
  500MOL0     C67402   3.861   8.965   6.328  0.0820 -0.6032  0.6071
  500MOL0     C67403   3.751   9.060   6.386 -0.3305 -0.3039  0.2845
  500MOL0     C67404   3.816   9.166   6.485 -0.2401 -0.0747  0.4002
  500MOL0     C67405   3.712   9.209   6.586  0.0987 -0.0288  0.4412
  500MOL0     C67406   3.757   9.332   6.656 -0.3277  0.5885 -1.3944
  500MOL0     C67407   3.665   9.385   6.763  1.0874 -0.2858 -0.1315
  500MOL0     C67408   3.706   9.519   6.829 -0.2357 -0.3141 -0.6248
  500MOL0     C67409   3.600   9.595   6.903  0.5971  0.3901 -0.3118
  500MOL0    Cl67410   3.542   9.504   7.045  0.3543  0.1675  0.3887
  500MOL0     C67411   4.171   9.078   6.200  0.5279  1.0463 -0.0922
  500MOL0     C67412   4.293   9.021   6.181  0.7366  0.1590 -0.6154
  500MOL0     O67413   4.444   8.643   6.054 -0.3098 -0.3031  0.0123
  500MOL0     C67414   4.726   8.602   6.076 -0.8012 -0.1131 -0.1588
  500MOL0     C67415   4.864   8.581   6.078  0.8053  0.0194  0.6458
  500MOL0     N67416   5.537   8.333   6.451  0.1865 -0.1869  0.3266
  500MOL0     N67417   5.631   8.292   6.539  0.7936 -1.0291  0.6146
  500MOL0     C67418   6.791   8.192   7.037  1.4276  0.5019  0.1777
  500MOL0     C67419   6.912   8.190   7.105  0.9339 -0.6118 -0.1580
  500MOL0     C67420   7.318   8.246   7.281  0.5751 -0.3345 -0.6961
  500MOL0     C67421   7.438   8.172   7.269  0.2034 -0.7857 -0.3880
  500MOL0     C67422   7.565   8.214   7.305  0.4036 -0.5326  0.6307
  500MOL0     C67423   7.575   8.347   7.348  0.6055 -0.0477 -0.1332
  500MOL0     O67424   7.691   8.417   7.365 -0.0865  0.8147 -0.2506
  500MOL0     C67425   7.810   8.339   7.367  0.4592  0.1269  0.3803
  500MOL0     C67426   7.860   8.302   7.227 -0.1457 -0.0676  0.5455
  500MOL0     C67427   8.007   8.243   7.251 -0.5979 -1.6669  0.1908
  500MOL0     C67428   8.019   8.108   7.183  0.3489  0.9729  1.0988
  500MOL0     C67429   8.152   8.044   7.198 -0.1344  1.0185  0.3119
  500MOL0     C67430   8.258   7.984   7.204 -0.3161  0.4268 -0.4126
  500MOL0     C67431   7.456   8.419   7.368  0.4820  0.3075  0.1767
  500MOL0     C67432   7.330   8.371   7.337 -0.2166 -0.1721 -0.0050
  500MOL0     H67433   7.039   8.482   6.988  1.4460 -0.6835 -1.6185
  500MOL0     H67434   6.809   8.484   6.880  0.0430 -0.4211 -0.7829
  500MOL0     H67435   6.577   8.472   6.829 -2.2123  0.9486 -0.4105
  500MOL0     H67436   6.626   8.348   6.709 -1.7673 -4.0337  0.0103
  500MOL0     H67437   6.401   8.369   6.684 -2.4250 -1.2732 -0.5129
  500MOL0     H67438   6.409   8.218   6.781  0.8315 -0.1274 -2.9403
  500MOL0     H67439   6.381   8.382   6.987 -0.2120  1.5332  0.4137
  500MOL0     H67440   6.333   8.506   6.860  0.4236 -1.0516 -1.3054
  500MOL0     H67441   6.196   8.232   6.886  0.3670  0.2363  1.5149
  500MOL0     H67442   6.144   8.363   6.990 -1.0720  1.9185 -0.8925
  500MOL0     H67443   6.096   8.492   6.791 -0.6647 -0.7100 -1.6117
  500MOL0     H67444   6.138   8.360   6.684 -0.7466 -2.4532 -0.8078
  500MOL0     H67445   5.952   8.228   6.802  0.1372 -0.4434 -1.8271
  500MOL0     H67446   5.933   8.377   6.903 -0.8207 -2.8133  0.7150
  500MOL0     H67447   5.771   8.405   6.742  0.3323 -1.8770 -0.2733
  500MOL0     H67448   5.920   8.496   6.670  2.0478 -1.5191 -3.0856
  500MOL0     H67449   5.866   8.216   6.601  2.8376 -0.0745  1.8228
  500MOL0     H67450   5.957   8.350   6.515 -0.3055  0.8546 -0.7492
  500MOL0     H67451   5.810   8.490   6.339  0.4161  1.1775  3.3599
  500MOL0     H67452   5.576   8.596   6.245  2.3643 -0.0033  1.8836
  500MOL0     H67453   5.526   8.437   6.168 -2.6788  0.0531  0.2390
  500MOL0     H67454   5.378   8.576   6.397 -0.3757 -2.3235  1.0020
  500MOL0     H67455   5.346   8.421   6.333  1.4288 -0.1643  3.1685
  500MOL0     H67456   5.293   8.516   6.104 -1.0220  3.3272 -2.2641
  500MOL0     H67457   5.360   8.666   6.146  0.0022 -0.4708  0.2374
  500MOL0     H67458   5.154   8.688   6.313 -1.9693  1.5094 -1.5591
  500MOL0     H67459   5.109   8.530   6.275 -1.6518 -0.2260 -2.3702
  500MOL0     H67460   4.958   8.861   6.234  0.5788  0.7014 -1.3476
  500MOL0     H67461   4.765   8.967   6.339 -0.1403 -3.8621  2.9265
  500MOL0     H67462   4.664   8.999   6.186  0.0361 -0.3723 -0.2608
  500MOL0     H67463   4.606   8.906   6.335 -0.2179  1.1869 -0.0607
  500MOL0     H67464   4.222   8.700   6.124  2.6529  0.5344 -0.1898
  500MOL0     H67465   4.000   8.788   6.183  1.8297 -2.1976  1.1038
  500MOL0     H67466   3.822   8.886   6.264 -1.5101 -1.8669  2.9913
  500MOL0     H67467   3.924   8.911   6.399 -0.5936 -4.6083 -1.5651
  500MOL0     H67468   3.696   9.111   6.307  1.9009 -0.4593 -1.4509
  500MOL0     H67469   3.682   8.998   6.444  2.6759 -0.2755  4.3537
  500MOL0     H67470   3.851   9.251   6.427  2.0703 -1.5556 -0.5341
  500MOL0     H67471   3.906   9.123   6.532  0.2317  2.2944  1.8003
  500MOL0     H67472   3.609   9.216   6.549 -0.0401 -1.2354  0.5551
  500MOL0     H67473   3.695   9.123   6.652 -0.7055  1.0535  1.7132
  500MOL0     H67474   3.769   9.412   6.582 -1.7075  1.9707 -0.2127
  500MOL0     H67475   3.846   9.310   6.715  0.0501  3.5999 -0.6781
  500MOL0     H67476   3.572   9.403   6.708  2.0135  1.1863 -1.2779
  500MOL0     H67477   3.639   9.305   6.833  2.1852  0.3344  1.0183
  500MOL0     H67478   3.743   9.593   6.758  0.3519 -0.2579 -0.2689
  500MOL0     H67479   3.793   9.492   6.891 -1.3615  1.5458  1.9522
  500MOL0     H67480   3.514   9.613   6.838 -1.3845 -1.2989  1.6857
  500MOL0     H67481   3.642   9.692   6.932 -2.7717  2.5123 -1.8716
  500MOL0     H67482   4.170   9.182   6.231 -2.2745  0.9845  0.3238
  500MOL0     H67483   4.375   9.091   6.192  0.6565  0.5918 -2.4217
  500MOL0     H67484   4.676   8.534   6.008  1.3680 -0.1276 -1.8543
  500MOL0     H67485   4.889   8.496   6.015 -2.2840 -0.7094  0.2508
  500MOL0     H67486   6.724   8.111   7.063  0.6887  1.1388  0.2828
  500MOL0     H67487   6.947   8.113   7.173  3.8449  0.8620  0.1467
  500MOL0     H67488   7.439   8.071   7.229 -0.7390 -0.7441 -0.5457
  500MOL0     H67489   7.647   8.145   7.291  2.0390  1.8843 -3.1134
  500MOL0     H67490   7.883   8.404   7.416 -0.0995  0.2996  1.0040
  500MOL0     H67491   7.804   8.254   7.435 -0.2516  0.3983  0.6666
  500MOL0     H67492   7.862   8.382   7.153  1.4947 -1.4951 -1.0586
  500MOL0     H67493   7.800   8.226   7.175  2.4718 -0.7386 -1.7389
  500MOL0     H67494   8.015   8.221   7.358 -1.6131 -2.7679  0.0570
  500MOL0     H67495   8.087   8.309   7.217 -0.0449 -2.4944 -0.1315
  500MOL0     H67496   8.018   8.103   7.073 -2.1661 -2.0499  1.1229
  500MOL0     H67497   7.944   8.036   7.215  1.6424 -0.3444  1.2527
  500MOL0     H67498   8.346   7.924   7.218 -0.5899 -0.0350 -0.6340
  500MOL0     H67499   7.474   8.524   7.389  0.6778  0.3127 -0.0123
  500MOL0     H67500   7.243   8.435   7.349  0.4831  1.6061 -3.1873
  501MOL0     O67501  11.307   8.547   2.944 -0.2109  0.0185  0.2903
  501MOL0     C67502  11.222   8.551   2.848 -1.0218  0.5091 -0.6090
  501MOL0     O67503  11.095   8.545   2.872 -0.6679 -0.4073 -0.0991
  501MOL0     C67504  11.059   8.527   3.001 -0.9687  0.2116 -0.7942
  501MOL0     C67505  11.000   8.404   3.045  0.1149  0.2309 -0.4951
  501MOL0     C67506  10.945   8.399   3.180 -0.5289  0.9780 -0.4407
  501MOL0     C67507  10.962   8.512   3.265 -0.7274  0.1565 -0.3659
  501MOL0     O67508  10.928   8.511   3.398  0.4785 -0.1049 -0.2461
  501MOL0     C67509  11.021   8.489   3.497 -0.6858  0.2923  0.7842
  501MOL0     C67510  10.996   8.584   3.617 -0.2322 -0.2693  0.2296
  501MOL0     C67511  10.855   8.566   3.676  0.0835  0.2848  0.0673
  501MOL0     C67512  10.835   8.431   3.746  0.2501  0.5018  0.3315
  501MOL0     C67513  10.716   8.410   3.838  0.2029  0.3006  0.2033
  501MOL0     C67514  10.590   8.431   3.768 -0.4097 -1.1054  0.2419
  501MOL0     C67515  10.469   8.411   3.864  0.1526  0.1737 -0.5294
  501MOL0     C67516  10.335   8.414   3.781  0.0738  0.0405  0.2830
  501MOL0     N67517  10.299   8.282   3.732 -0.7099  0.6282  0.1930
  501MOL0     C67518  10.179   8.261   3.668 -0.2392 -0.0282 -0.4535
  501MOL0     C67519  10.155   8.124   3.672  0.6505  0.8260 -0.9152
  501MOL0     C67520  10.033   8.044   3.643  0.3246  0.5839  0.4212
  501MOL0     C67521   9.925   8.133   3.577 -0.2447 -0.4014  0.2136
  501MOL0     C67522   9.796   8.060   3.557  0.0958 -0.7373  1.1763
  501MOL0     C67523   9.676   8.146   3.503  0.4378  0.5330  0.6267
  501MOL0     O67524   9.723   8.248   3.415 -0.5556  0.0769 -0.3972
  501MOL0     C67525   9.632   8.319   3.341  0.2216  0.6726  0.0032
  501MOL0     C67526   9.690   8.386   3.233 -0.2674  0.0893 -0.4795
  501MOL0     C67527   9.622   8.488   3.163 -0.2513 -0.4578  0.5380
  501MOL0     C67528   9.705   8.542   3.041  0.0374  0.1198 -1.1113
  501MOL0     C67529   9.475   8.494   3.172 -0.3618 -0.1135 -0.3433
  501MOL0     C67530   9.382   8.566   3.076 -0.0669  1.0464 -0.1795
  501MOL0     O67531   9.256   8.583   3.127 -0.0105 -0.5795  0.2836
  501MOL0     C67532   9.155   8.638   3.049 -0.6132  0.1780  0.6729
  501MOL0     C67533   9.172   8.766   2.997 -2.1561  0.1553  0.9209
  501MOL0     C67534   9.060   8.828   2.930  0.2172 -0.1942 -0.7220
  501MOL0     C67535   8.948   8.756   2.902  0.3404 -0.2252 -0.7041
  501MOL0     O67536   8.849   8.823   2.829  0.1350 -0.4859  0.9286
  501MOL0     C67537   8.776   8.755   2.726  0.0640 -0.5048 -1.1760
  501MOL0     C67538   8.631   8.740   2.765  0.2226  0.2046  0.3034
  501MOL0     C67539   8.600   8.664   2.892  0.2825 -0.0383 -0.5806
  501MOL0     C67540   8.458   8.645   2.923  0.2407 -0.9209 -0.9902
  501MOL0     C67541   8.368   8.565   2.832  0.1577  1.1468 -0.1900
  501MOL0     C67542   8.399   8.415   2.825 -0.1463 -0.1121 -0.5627
  501MOL0     C67543   8.301   8.349   2.722 -0.4388  1.1442  0.1611
  501MOL0     C67544   8.345   8.208   2.687  0.1345  0.6476 -0.7459
  501MOL0    Cl67545   8.330   8.103   2.845 -0.1236 -0.1940 -0.1256
  501MOL0     C67546   8.936   8.629   2.957 -0.5596  0.0075 -0.0476
  501MOL0     C67547   9.039   8.570   3.019 -0.0471 -0.0138  0.0166
  501MOL0     O67548   9.415   8.574   2.959 -0.3359  0.3092 -0.2181
  501MOL0     C67549   9.422   8.419   3.287 -0.4851  0.2358  1.1516
  501MOL0     C67550   9.501   8.348   3.369  0.2597  0.6527  0.8075
  501MOL0     N67551  10.267   8.067   3.729 -0.3927 -0.2090  0.2667
  501MOL0     N67552  10.356   8.158   3.769 -0.0180 -0.9274 -0.5442
  501MOL0     C67553  11.033   8.626   3.224 -0.2848  1.5467  0.4481
  501MOL0     C67554  11.081   8.631   3.090  0.1089  0.1071  0.1990
  501MOL0     C67555  11.274   8.577   2.709  0.8873 -0.3910  0.1231
  501MOL0     C67556  11.182   8.611   2.604  0.6864 -0.0852 -0.5546
  501MOL0     C67557  11.237   8.636   2.479  0.4015  1.0200  0.3339
  501MOL0     C67558  11.372   8.644   2.452  0.6400 -0.1888 -0.7641
  501MOL0     O67559  11.397   8.686   2.321  1.1583  0.6133 -0.5262
  501MOL0     C67560  11.524   8.720   2.280 -0.1879 -0.0660 -0.4605
  501MOL0     C67561  11.507   8.772   2.136  0.2505  0.8002 -0.4685
  501MOL0     C67562  11.411   8.692   2.048 -0.0384  0.7714  0.5627
  501MOL0     C67563  11.476   8.555   2.005  0.2493 -0.8550 -0.2163
  501MOL0     C67564  11.598   8.579   1.918 -0.6178 -0.3409 -0.9581
  501MOL0     C67565  11.700   8.600   1.865  0.6525 -0.3242 -0.7219
  501MOL0     C67566  11.460   8.630   2.561 -0.4968  0.1878 -0.1565
  501MOL0     C67567  11.410   8.598   2.684 -0.6922  0.3029  0.7883
  501MOL0     H67568  11.003   8.319   2.978 -1.8164 -0.0706 -0.2598
  501MOL0     H67569  10.893   8.311   3.215 -0.7850  1.0053 -0.7493
  501MOL0     H67570  11.022   8.388   3.540  2.2488  0.2447  0.8296
  501MOL0     H67571  11.120   8.508   3.454 -0.9903  0.8547  0.3188
  501MOL0     H67572  11.074   8.565   3.691  0.6901  2.3882  0.0193
  501MOL0     H67573  11.009   8.684   3.574 -1.1045 -0.8882 -1.5883
  501MOL0     H67574  10.837   8.650   3.744  0.8848 -0.3183  1.0596
  501MOL0     H67575  10.790   8.562   3.588  1.3287 -1.7472 -0.8341
  501MOL0     H67576  10.817   8.363   3.661  0.1661  0.8269  0.0879
  501MOL0     H67577  10.929   8.396   3.788  0.8537 -0.8311 -1.9188
  501MOL0     H67578  10.734   8.322   3.901  2.2181  1.9108  2.0378
  501MOL0     H67579  10.719   8.482   3.921 -0.0666 -0.7960  1.2036
  501MOL0     H67580  10.591   8.531   3.724  3.0642 -1.4663 -0.7843
  501MOL0     H67581  10.591   8.361   3.684 -4.9193  0.5241 -1.4974
  501MOL0     H67582  10.470   8.317   3.920 -0.7736 -0.1673 -1.0634
  501MOL0     H67583  10.456   8.491   3.938 -1.3716  1.1512 -1.8009
  501MOL0     H67584  10.347   8.470   3.688  1.0430  0.7831  0.8338
  501MOL0     H67585  10.251   8.463   3.831  0.1181 -1.0788  1.5275
  501MOL0     H67586  10.119   8.343   3.628 -2.2798 -0.9131  0.6855
  501MOL0     H67587  10.065   7.968   3.571 -0.3226 -2.6176  3.1916
  501MOL0     H67588   9.994   7.992   3.732  0.5579 -1.2771 -0.5127
  501MOL0     H67589   9.964   8.175   3.483  2.9334  0.2472  1.6927
  501MOL0     H67590   9.908   8.225   3.632 -0.3795  0.2529 -0.8919
  501MOL0     H67591   9.750   8.006   3.640 -2.2389 -2.4208 -1.0195
  501MOL0     H67592   9.812   7.982   3.481 -0.5587 -0.2049  0.4724
  501MOL0     H67593   9.612   8.176   3.587  1.3577 -1.5598  2.1851
  501MOL0     H67594   9.619   8.075   3.443  1.4204 -1.1602  1.5942
  501MOL0     H67595   9.791   8.353   3.208 -0.0808 -1.3291  1.8404
  501MOL0     H67596   9.661   8.505   2.948 -2.8996  1.6138 -0.4423
  501MOL0     H67597   9.695   8.648   3.017 -0.6380 -0.1160 -1.9045
  501MOL0     H67598   9.811   8.514   3.048  0.2650  1.0827 -0.6199
  501MOL0     H67599   9.258   8.827   3.023 -1.9987  0.5437 -0.4350
  501MOL0     H67600   9.070   8.933   2.904  0.4377 -0.3923 -1.4471
  501MOL0     H67601   8.782   8.811   2.633 -2.3164 -0.1101 -1.1390
  501MOL0     H67602   8.820   8.657   2.703  1.8608 -0.0557  0.1159
  501MOL0     H67603   8.595   8.841   2.787 -2.0600  0.2664 -3.0591
  501MOL0     H67604   8.569   8.697   2.686 -1.7602  1.2009  1.2422
  501MOL0     H67605   8.636   8.714   2.982  0.9417  1.0605 -1.4292
  501MOL0     H67606   8.642   8.564   2.884  0.9430 -0.1533  2.9262
  501MOL0     H67607   8.448   8.602   3.023 -0.0341 -3.6336 -2.0962
  501MOL0     H67608   8.409   8.743   2.918 -0.1782 -0.7720  3.1081
  501MOL0     H67609   8.375   8.600   2.729 -1.7904  0.6051 -0.5484
  501MOL0     H67610   8.266   8.569   2.871  0.0632 -0.6226 -0.1751
  501MOL0     H67611   8.505   8.402   2.801  0.2191 -0.3288  1.0830
  501MOL0     H67612   8.374   8.373   2.923 -0.2627  4.2640  1.5439
  501MOL0     H67613   8.316   8.410   2.633  3.9797  0.8133  0.4633
  501MOL0     H67614   8.199   8.349   2.762 -1.2514 -0.7737 -1.7239
  501MOL0     H67615   8.445   8.194   2.645  0.3832  1.0927 -0.3142
  501MOL0     H67616   8.294   8.154   2.607  1.7378 -2.9945  0.4467
  501MOL0     H67617   8.853   8.560   2.946  1.5848 -2.5834 -0.8783
  501MOL0     H67618   9.026   8.476   3.072 -0.6774  0.8164  1.3641
  501MOL0     H67619   9.316   8.414   3.311 -0.6458 -0.7614  0.3150
  501MOL0     H67620   9.452   8.305   3.456  3.6810 -1.3554  1.9500
  501MOL0     H67621  11.069   8.705   3.289  2.2119  1.5428 -0.7997
  501MOL0     H67622  11.114   8.727   3.052 -0.5256 -0.2621 -1.3354
  501MOL0     H67623  11.076   8.619   2.624  0.1671  1.0074 -3.2388
  501MOL0     H67624  11.169   8.642   2.394  0.7846 -0.3621 -0.1063
  501MOL0     H67625  11.568   8.798   2.342  0.3434  1.0915 -2.2062
  501MOL0     H67626  11.595   8.637   2.282  0.4031  0.4563  0.8965
  501MOL0     H67627  11.607   8.775   2.091  0.9678 -1.4668  0.8095
  501MOL0     H67628  11.459   8.870   2.144 -0.2962  0.4002  2.5143
  501MOL0     H67629  11.391   8.753   1.959  2.3108  0.1053 -0.5007
  501MOL0     H67630  11.313   8.662   2.087 -0.5351 -0.8631 -1.6933
  501MOL0     H67631  11.405   8.502   1.941  0.3672 -1.4361  0.1216
  501MOL0     H67632  11.480   8.487   2.090 -0.4246  0.4352  0.8870
  501MOL0     H67633  11.797   8.615   1.823  0.1433 -1.9445 -2.6218
  501MOL0     H67634  11.567   8.635   2.547 -0.3610  1.6636  1.2104
  501MOL0     H67635  11.491   8.583   2.755 -1.0629  0.6075  1.2891
  502MOL0     O67636   9.089   2.019   8.672 -0.1159  0.1689  0.2318
  502MOL0     C67637   9.125   2.132   8.626 -1.2004  0.5261 -0.0181
  502MOL0     O67638   9.040   2.238   8.607  0.5578 -0.6565  0.4790
  502MOL0     C67639   8.918   2.251   8.663 -0.5282  0.5841 -0.7813
  502MOL0     C67640   8.894   2.193   8.795  0.2054 -0.6950  0.0877
  502MOL0     C67641   8.770   2.177   8.848 -0.9597 -0.5481 -1.6275
  502MOL0     C67642   8.656   2.227   8.779  0.0615 -0.5219  0.0997
  502MOL0     O67643   8.528   2.230   8.825 -0.4150  0.3780  0.2444
  502MOL0     C67644   8.510   2.293   8.946  0.4760  0.7703  0.0716
  502MOL0     C67645   8.415   2.211   9.026  0.9491 -0.6522 -0.0172
  502MOL0     C67646   8.266   2.236   8.991  0.1645 -0.4727  0.0531
  502MOL0     C67647   8.217   2.210   8.846  0.6487 -1.1257 -0.3573
  502MOL0     C67648   8.070   2.266   8.850  1.2580 -0.1915 -1.1357
  502MOL0     C67649   7.995   2.268   8.719  0.1639 -0.0804 -0.3114
  502MOL0     C67650   7.877   2.370   8.724  0.6133 -0.0350  0.3277
  502MOL0     C67651   7.778   2.347   8.835  0.5642  0.4431  0.3735
  502MOL0     N67652   7.704   2.223   8.813 -0.2850  0.7747  0.1509
  502MOL0     C67653   7.745   2.101   8.866  1.4627  0.4093  0.8586
  502MOL0     C67654   7.627   2.019   8.858  0.3555  0.4234 -0.5452
  502MOL0     C67655   7.617   1.869   8.903  1.0321 -0.3177 -1.0071
  502MOL0     C67656   7.556   1.794   8.783  0.7157  0.2033 -0.1388
  502MOL0     C67657   7.494   1.663   8.838 -0.4628  0.4081 -0.8494
  502MOL0     C67658   7.555   1.538   8.781 -0.2441 -0.7778 -0.6016
  502MOL0     O67659   7.694   1.547   8.817  0.0296 -0.2186 -0.1673
  502MOL0     C67660   7.784   1.459   8.762 -0.3233  0.4207  0.0084
  502MOL0     C67661   7.760   1.372   8.656 -1.4792 -0.1934  0.1881
  502MOL0     C67662   7.867   1.313   8.591  0.5256 -0.1091 -0.2959
  502MOL0     C67663   7.825   1.240   8.467  0.3156  0.7619 -0.1557
  502MOL0     C67664   8.000   1.310   8.634  0.3916 -0.7778 -0.7777
  502MOL0     C67665   8.109   1.244   8.571 -0.0388  0.0337  0.2812
  502MOL0     O67666   8.237   1.297   8.599  0.6839  0.6765 -0.7893
  502MOL0     C67667   8.354   1.229   8.556 -0.5815 -0.2971 -0.5905
  502MOL0     C67668   8.451   1.299   8.486  0.0390 -0.8708 -0.0864
  502MOL0     C67669   8.573   1.232   8.445  0.2742 -0.5840 -0.3077
  502MOL0     C67670   8.581   1.098   8.474  0.4270 -0.6483 -0.1096
  502MOL0     O67671   8.692   1.030   8.427  0.1054  0.4004  0.3408
  502MOL0     C67672   8.723   0.895   8.478 -0.0841 -0.0172  0.6555
  502MOL0     C67673   8.878   0.875   8.481 -0.4854  0.8860 -0.1305
  502MOL0     C67674   8.929   0.759   8.570  0.2165  0.1871 -0.4997
  502MOL0     C67675   9.054   0.695   8.517 -0.3032  0.5927 -0.4190
  502MOL0     C67676   9.049   0.639   8.370 -0.3356 -0.2744 -0.6969
  502MOL0     C67677   9.187   0.574   8.341 -0.0145 -0.2453 -0.1560
  502MOL0     C67678   9.299   0.676   8.338  0.2912 -0.1387  0.1914
  502MOL0     C67679   9.441   0.607   8.329 -0.1138 -0.0781  0.0123
  502MOL0    Cl67680   9.439   0.486   8.192  0.2580  0.1672 -0.0190
  502MOL0     C67681   8.475   1.035   8.543 -0.6845  1.2798  0.4965
  502MOL0     C67682   8.368   1.092   8.590 -0.4706  0.8698  0.3782
  502MOL0     O67683   8.090   1.151   8.501  0.0549  0.0814 -0.0752
  502MOL0     C67684   8.021   1.398   8.751 -0.4587 -0.3158 -1.0831
  502MOL0     C67685   7.921   1.473   8.810 -0.0483 -0.4689 -0.7213
  502MOL0     N67686   7.535   2.092   8.787  0.3175  0.5403  0.4647
  502MOL0     N67687   7.582   2.209   8.761 -0.7448  0.7376  1.0013
  502MOL0     C67688   8.681   2.285   8.652  0.2785  0.5746  0.1227
  502MOL0     C67689   8.811   2.296   8.591  0.4797 -0.8147  0.6936
  502MOL0     C67690   9.264   2.139   8.563  0.5586 -0.0176  0.2504
  502MOL0     C67691   9.341   2.025   8.570 -0.7596 -0.1920  0.0287
  502MOL0     C67692   9.477   2.034   8.525  1.2028  0.8081 -0.5221
  502MOL0     C67693   9.527   2.136   8.449 -0.5622  0.8555 -0.4701
  502MOL0     O67694   9.654   2.128   8.387  0.0077 -0.0342  0.5541
  502MOL0     C67695   9.710   2.240   8.309  0.6092 -0.5035  0.4903
  502MOL0     C67696   9.778   2.344   8.405 -0.7702  0.1343  0.3212
  502MOL0     C67697   9.904   2.271   8.462  1.0290  0.4211 -0.3046
  502MOL0     C67698   9.960   2.358   8.568 -0.2091 -0.2551  0.2382
  502MOL0     C67699  10.081   2.313   8.641 -1.1238 -0.1681  0.1674
  502MOL0     C67700  10.169   2.284   8.719 -0.2045  0.4124 -0.5849
  502MOL0     C67701   9.435   2.247   8.439  0.3409  0.0610 -0.6767
  502MOL0     C67702   9.307   2.253   8.495  0.0020  0.0053 -0.5788
  502MOL0     H67703   8.975   2.154   8.856  0.0942  1.4004  1.6871
  502MOL0     H67704   8.753   2.127   8.943 -0.7931  0.9278 -0.7941
  502MOL0     H67705   8.601   2.294   9.006 -0.3287  2.3802  1.3578
  502MOL0     H67706   8.491   2.399   8.924  1.7028  1.1039  0.5557
  502MOL0     H67707   8.439   2.105   9.009  3.3019 -0.0355 -0.9428
  502MOL0     H67708   8.435   2.244   9.128  0.6913 -1.4488  0.3043
  502MOL0     H67709   8.219   2.166   9.061  2.3300 -1.0081  1.0637
  502MOL0     H67710   8.244   2.341   9.013  2.6562 -0.1022  1.1591
  502MOL0     H67711   8.284   2.258   8.774 -0.3951 -2.1748 -2.1354
  502MOL0     H67712   8.220   2.102   8.829 -1.6391 -1.6679  2.0804
  502MOL0     H67713   8.010   2.204   8.916  1.0274  2.2749  1.1573
  502MOL0     H67714   8.079   2.368   8.888 -1.6608  0.2194 -1.3252
  502MOL0     H67715   8.062   2.287   8.635 -0.2810  0.1956 -0.6062
  502MOL0     H67716   7.967   2.167   8.690 -1.2436 -0.1210  1.0833
  502MOL0     H67717   7.922   2.470   8.724  0.6387  0.0140 -1.9068
  502MOL0     H67718   7.824   2.370   8.628 -0.0227 -0.2093  0.6824
  502MOL0     H67719   7.712   2.434   8.846  0.2315 -0.1080  3.7600
  502MOL0     H67720   7.835   2.334   8.928 -0.8310  1.0920  1.3516
  502MOL0     H67721   7.840   2.074   8.910  0.7233 -2.3114  0.9685
  502MOL0     H67722   7.718   1.831   8.920  0.3571 -1.3973  0.8649
  502MOL0     H67723   7.550   1.871   8.990 -0.5524  2.6751 -2.1620
  502MOL0     H67724   7.641   1.764   8.721  1.0270  0.9272 -0.0769
  502MOL0     H67725   7.481   1.850   8.727  0.3037 -1.0638 -0.8967
  502MOL0     H67726   7.385   1.660   8.826 -0.5103 -0.8570 -0.2714
  502MOL0     H67727   7.499   1.667   8.947 -0.1882  1.2968 -0.8891
  502MOL0     H67728   7.544   1.548   8.672 -0.1177  2.4595 -0.4249
  502MOL0     H67729   7.499   1.451   8.814 -1.8247  0.8810  1.3357
  502MOL0     H67730   7.662   1.359   8.612 -1.7692 -1.4863  1.1571
  502MOL0     H67731   7.898   1.247   8.386  1.0477  1.8533  0.5638
  502MOL0     H67732   7.837   1.133   8.486 -0.5269  0.8605  1.0678
  502MOL0     H67733   7.720   1.263   8.444 -0.3062  2.0369  3.3156
  502MOL0     H67734   8.442   1.406   8.470  2.0292 -0.0258  3.4076
  502MOL0     H67735   8.647   1.281   8.383 -0.8504 -0.3585 -1.5378
  502MOL0     H67736   8.689   0.886   8.581 -2.1944 -0.7873 -0.0583
  502MOL0     H67737   8.681   0.819   8.412  1.3412  1.3204 -1.9751
  502MOL0     H67738   8.914   0.848   8.381  1.8915  0.9549  0.6391
  502MOL0     H67739   8.931   0.961   8.524 -0.4275  1.2483 -0.9143
  502MOL0     H67740   8.863   0.673   8.558  0.9105 -0.3103 -0.7686
  502MOL0     H67741   8.922   0.783   8.677 -2.2450 -0.9556 -0.3384
  502MOL0     H67742   9.132   0.767   8.544 -0.4678  0.2281  1.1240
  502MOL0     H67743   9.069   0.615   8.590 -0.3099  2.3291  1.5768
  502MOL0     H67744   9.041   0.730   8.309  1.4018  1.0043  0.8739
  502MOL0     H67745   8.965   0.573   8.350 -0.0068 -1.0584  0.4125
  502MOL0     H67746   9.213   0.499   8.417  0.5453  1.8371  1.8183
  502MOL0     H67747   9.181   0.519   8.247 -0.3135 -0.8323  0.1969
  502MOL0     H67748   9.305   0.743   8.425  0.5871  1.6220 -1.1323
  502MOL0     H67749   9.274   0.747   8.259 -0.0157  1.7348  1.8923
  502MOL0     H67750   9.475   0.573   8.427  0.6245  0.4773 -0.0458
  502MOL0     H67751   9.525   0.675   8.310  1.0791 -1.3082  0.7071
  502MOL0     H67752   8.488   0.927   8.546  0.5938  1.3795 -0.5163
  502MOL0     H67753   8.300   1.036   8.654  1.7117 -0.5044  1.6038
  502MOL0     H67754   8.123   1.403   8.787  0.0463  1.4709 -2.5986
  502MOL0     H67755   7.940   1.523   8.905  0.7733 -1.2555 -0.4493
  502MOL0     H67756   8.592   2.317   8.599  0.7671  0.3272 -0.8875
  502MOL0     H67757   8.835   2.347   8.499  4.6172 -1.6054  1.1621
  502MOL0     H67758   9.313   1.930   8.615 -0.9825  0.4986  1.4106
  502MOL0     H67759   9.540   1.947   8.539  1.0315  0.6263 -0.8506
  502MOL0     H67760   9.781   2.203   8.235  1.9272  0.2348  1.3448
  502MOL0     H67761   9.634   2.294   8.252  1.1626  1.1486  1.2420
  502MOL0     H67762   9.703   2.372   8.479 -2.1251  1.5591 -1.5062
  502MOL0     H67763   9.789   2.436   8.347 -0.9618  0.2508  0.4680
  502MOL0     H67764   9.973   2.264   8.378  0.8784  1.4045 -0.5306
  502MOL0     H67765   9.883   2.173   8.506 -0.0090  0.2172 -1.2128
  502MOL0     H67766   9.877   2.371   8.638  1.5858  0.5388  2.3492
  502MOL0     H67767   9.988   2.457   8.532  3.7695 -1.2842 -0.0273
  502MOL0     H67768  10.244   2.261   8.792 -1.0972 -1.0471 -0.0943
  502MOL0     H67769   9.474   2.342   8.402 -2.3914  0.8070 -1.8904
  502MOL0     H67770   9.244   2.339   8.474 -1.0454  0.0876  2.4551
  503MOL0     O67771   2.821   3.025   5.754  0.4383 -0.3535  1.2354
  503MOL0     C67772   2.925   3.022   5.686 -0.3034  0.0943 -0.1841
  503MOL0     O67773   2.934   3.019   5.555  0.9426 -0.5748 -0.5409
  503MOL0     C67774   2.816   3.041   5.486 -1.6241 -0.3256 -0.3659
  503MOL0     C67775   2.712   2.951   5.494  1.0264 -1.0925 -0.9412
  503MOL0     C67776   2.590   2.988   5.426 -0.2742  0.2922 -0.2736
  503MOL0     C67777   2.582   3.091   5.339 -0.2534 -0.6634  1.4995
  503MOL0     O67778   2.460   3.130   5.271  0.6683 -0.0820 -0.2147
  503MOL0     C67779   2.382   3.012   5.229  0.3652  0.2441  0.4106
  503MOL0     C67780   2.267   3.076   5.149  0.1899  0.3382  0.2530
  503MOL0     C67781   2.193   2.977   5.065  0.1237 -0.1722 -0.3882
  503MOL0     C67782   2.123   3.056   4.951  0.8967  0.6050 -0.0712
  503MOL0     C67783   2.046   2.951   4.872 -0.8535  0.6221 -0.1011
  503MOL0     C67784   1.969   3.004   4.746 -0.8069 -0.5925 -0.2294
  503MOL0     C67785   1.947   2.887   4.647 -0.3132 -1.4524 -0.7118
  503MOL0     C67786   1.887   2.934   4.513  0.4715 -0.0400  0.0032
  503MOL0     N67787   1.856   2.823   4.421 -0.6207 -0.4777  0.8898
  503MOL0     C67788   1.931   2.783   4.306  0.4871 -0.5051 -0.1789
  503MOL0     C67789   1.855   2.694   4.238 -0.5995 -0.0214 -0.2679
  503MOL0     C67790   1.882   2.674   4.095 -0.6194 -0.1404  0.1547
  503MOL0     C67791   1.805   2.776   4.007  0.0287 -0.5179 -0.1380
  503MOL0     C67792   1.866   2.777   3.869 -0.1717  0.7282 -0.4268
  503MOL0     C67793   1.800   2.863   3.771  0.2200 -0.6529 -0.7867
  503MOL0     O67794   1.656   2.839   3.763  0.6456  0.1159 -0.3899
  503MOL0     C67795   1.582   2.898   3.664  0.2114 -0.1285  0.0905
  503MOL0     C67796   1.633   2.978   3.555 -0.2823 -0.4139 -0.6250
  503MOL0     C67797   1.548   3.039   3.459 -0.2050  0.4231 -0.7744
  503MOL0     C67798   1.621   3.097   3.344  0.5250  0.7795 -0.1569
  503MOL0     C67799   1.406   3.006   3.458 -0.2071 -0.2099  0.5027
  503MOL0     C67800   1.308   3.063   3.353  0.0709 -0.1162  0.0496
  503MOL0     O67801   1.337   3.180   3.295  0.1426 -0.1262  0.0654
  503MOL0     C67802   1.274   3.234   3.189  0.1358 -0.9443  1.0795
  503MOL0     C67803   1.148   3.279   3.199  0.9424 -0.4721 -0.0353
  503MOL0     C67804   1.084   3.338   3.088 -0.1114 -0.8190  0.0222
  503MOL0     C67805   1.143   3.344   2.962  0.2014 -0.2534  0.5318
  503MOL0     O67806   1.062   3.390   2.853 -0.2823 -0.1808 -0.7097
  503MOL0     C67807   0.920   3.377   2.863 -0.2790 -0.3347  0.9344
  503MOL0     C67808   0.869   3.399   2.722 -0.1695  0.8101  0.1192
  503MOL0     C67809   0.736   3.309   2.700  0.7252  0.3711  0.7362
  503MOL0     C67810   0.684   3.336   2.558  0.1987 -0.1197 -0.0481
  503MOL0     C67811   0.750   3.239   2.462  0.5215 -0.0942  0.1798
  503MOL0     C67812   0.678   3.233   2.327 -0.7676  0.1081  1.3044
  503MOL0     C67813   0.745   3.129   2.235 -0.6737 -0.9506 -0.0440
  503MOL0     C67814   0.681   3.120   2.096  0.2445  0.5206 -0.5511
  503MOL0    Cl67815   0.533   3.037   2.120 -0.0395 -0.1788  0.0815
  503MOL0     C67816   1.278   3.319   2.953  0.1289 -0.3693 -0.4140
  503MOL0     C67817   1.345   3.262   3.069  0.1352 -0.9154 -1.1685
  503MOL0     O67818   1.206   2.997   3.338  0.2173  1.2470  0.5237
  503MOL0     C67819   1.353   2.926   3.562  0.1543 -0.3415  0.3999
  503MOL0     C67820   1.439   2.870   3.662  0.3371 -0.6827  0.1214
  503MOL0     N67821   1.733   2.682   4.302 -0.0501  0.2483  0.4183
  503MOL0     N67822   1.742   2.751   4.409 -0.2505 -0.5569 -0.2805
  503MOL0     C67823   2.688   3.183   5.336  0.1492 -0.6000 -0.0327
  503MOL0     C67824   2.811   3.151   5.399  0.0050 -0.2424  0.7141
  503MOL0     C67825   3.053   3.020   5.776 -0.3217  0.9063  0.3789
  503MOL0     C67826   3.178   3.031   5.708 -0.4472  0.8467  1.1686
  503MOL0     C67827   3.296   3.014   5.772  0.7761 -0.0106  0.4776
  503MOL0     C67828   3.293   3.005   5.914 -0.3797 -0.3777  0.4863
  503MOL0     O67829   3.406   2.990   5.995 -0.5708 -0.2248  0.1220
  503MOL0     C67830   3.533   2.985   5.933 -0.4283  0.2387 -0.2406
  503MOL0     C67831   3.618   3.010   6.052 -0.8649  0.1719  1.3416
  503MOL0     C67832   3.764   3.015   6.005 -0.2938  0.0278  0.5708
  503MOL0     C67833   3.856   3.008   6.128 -0.1982  0.4808 -0.0718
  503MOL0     C67834   3.998   3.006   6.097 -0.2192  0.2151  0.5151
  503MOL0     C67835   4.120   3.031   6.060  0.7260 -0.2466  0.3936
  503MOL0     C67836   3.173   3.014   5.981 -0.3383  0.3758 -0.0394
  503MOL0     C67837   3.048   3.015   5.917  0.1476 -0.7587 -0.1349
  503MOL0     H67838   2.725   2.858   5.548 -1.2735 -0.1138  1.5535
  503MOL0     H67839   2.504   2.922   5.432 -0.5168  0.6809  0.8567
  503MOL0     H67840   2.449   2.952   5.166 -0.6400  0.6373 -1.0793
  503MOL0     H67841   2.338   2.941   5.299  0.4925 -2.2481 -1.8612
  503MOL0     H67842   2.202   3.130   5.219 -1.2387  0.2218 -0.9287
  503MOL0     H67843   2.318   3.141   5.077 -1.4710  1.5163  0.0678
  503MOL0     H67844   2.261   2.897   5.033 -1.0392 -0.4330 -2.3489
  503MOL0     H67845   2.114   2.927   5.122  1.9210 -1.3611  1.1982
  503MOL0     H67846   2.046   3.123   4.991 -0.3494 -0.2354 -0.9768
  503MOL0     H67847   2.194   3.095   4.877  1.0175 -0.1418 -0.3552
  503MOL0     H67848   2.114   2.869   4.848 -2.6273 -1.4863  1.6062
  503MOL0     H67849   1.978   2.898   4.940  2.8526 -1.3968  2.3476
  503MOL0     H67850   1.868   3.030   4.779  0.0041  0.2150  1.7984
  503MOL0     H67851   2.028   3.086   4.703 -1.6859  0.0852 -0.1723
  503MOL0     H67852   2.044   2.842   4.626 -0.5843 -2.0174 -0.7565
  503MOL0     H67853   1.876   2.816   4.691 -0.5398 -0.4897  0.5333
  503MOL0     H67854   1.944   3.015   4.466 -2.2860  2.5392  0.7967
  503MOL0     H67855   1.794   2.984   4.540  0.3581 -0.8166  1.1263
  503MOL0     H67856   2.032   2.812   4.278 -0.3343  1.0408 -1.7363
  503MOL0     H67857   1.990   2.657   4.080 -0.5371  1.3057 -1.1867
  503MOL0     H67858   1.840   2.582   4.053 -0.6633  0.4091 -1.0511
  503MOL0     H67859   1.810   2.880   4.042 -1.4486 -0.0293 -1.2729
  503MOL0     H67860   1.698   2.754   4.013  0.2303 -1.0396  3.2544
  503MOL0     H67861   1.879   2.680   3.820  2.4572  0.3502  0.8266
  503MOL0     H67862   1.971   2.805   3.883  0.6833 -1.6151 -1.8115
  503MOL0     H67863   1.846   2.846   3.673  0.7915 -0.0809 -0.6223
  503MOL0     H67864   1.814   2.969   3.793 -2.9392 -0.1769 -0.5832
  503MOL0     H67865   1.740   2.988   3.541  0.6347 -4.0018  2.2739
  503MOL0     H67866   1.644   3.202   3.365 -0.6635  1.5002 -2.1851
  503MOL0     H67867   1.716   3.044   3.340  0.3887  0.3907  1.1569
  503MOL0     H67868   1.565   3.085   3.251 -3.4732  2.9750  1.7164
  503MOL0     H67869   1.099   3.263   3.294  2.0561 -0.8075  0.5054
  503MOL0     H67870   0.984   3.377   3.105  1.1447  2.4262  0.7041
  503MOL0     H67871   0.898   3.272   2.886 -1.2088 -0.2818  0.3230
  503MOL0     H67872   0.889   3.455   2.933  0.9497  1.4726 -0.4373
  503MOL0     H67873   0.852   3.507   2.715 -1.7344  0.4965 -1.3320
  503MOL0     H67874   0.927   3.369   2.635  0.8112 -0.0060  1.0181
  503MOL0     H67875   0.657   3.338   2.769  0.9881  1.1266  0.7260
  503MOL0     H67876   0.758   3.203   2.716  0.7988  0.2624 -0.0159
  503MOL0     H67877   0.577   3.319   2.543  0.9645 -2.7449 -4.5886
  503MOL0     H67878   0.715   3.437   2.530 -0.5603  0.3822  0.8546
  503MOL0     H67879   0.753   3.141   2.509  1.2066 -0.5937 -0.8495
  503MOL0     H67880   0.857   3.256   2.446  0.1809  0.6956 -1.6088
  503MOL0     H67881   0.572   3.229   2.353 -0.2762  0.2162  3.5527
  503MOL0     H67882   0.689   3.336   2.290 -1.6090  0.3434  1.6818
  503MOL0     H67883   0.737   3.033   2.286  1.4270 -0.9477  0.3771
  503MOL0     H67884   0.848   3.163   2.220 -1.7873  1.6368 -2.9207
  503MOL0     H67885   0.736   3.063   2.021 -1.7020 -3.6695  0.9133
  503MOL0     H67886   0.662   3.220   2.054 -0.2534  0.3025 -0.8457
  503MOL0     H67887   1.334   3.345   2.864 -0.6171  3.3959  0.0224
  503MOL0     H67888   1.446   3.222   3.069  0.5080 -0.2778  2.3752
  503MOL0     H67889   1.246   2.905   3.568 -0.8610  3.7386 -0.7419
  503MOL0     H67890   1.402   2.808   3.742  0.2658 -0.7694  0.0218
  503MOL0     H67891   2.684   3.268   5.269  1.8686 -0.6252 -0.1947
  503MOL0     H67892   2.885   3.231   5.397 -3.2312  2.9977 -0.4828
  503MOL0     H67893   3.187   3.039   5.600  1.7680 -2.1534  1.0186
  503MOL0     H67894   3.385   3.018   5.710 -0.0930  3.4403 -0.7444
  503MOL0     H67895   3.557   2.894   5.877 -1.4081  1.0998 -2.1878
  503MOL0     H67896   3.544   3.066   5.860 -0.7633  1.2280  0.7654
  503MOL0     H67897   3.609   2.930   6.127 -0.5045 -2.1653 -0.9749
  503MOL0     H67898   3.591   3.108   6.093  0.2507  1.8129 -1.5872
  503MOL0     H67899   3.785   3.108   5.951  0.8058 -0.8156 -0.5177
  503MOL0     H67900   3.790   2.929   5.943 -0.8817 -0.0384  0.4114
  503MOL0     H67901   3.828   2.923   6.191  1.0807  0.5140  0.5693
  503MOL0     H67902   3.846   3.096   6.193  2.0172  1.3552 -0.8300
  503MOL0     H67903   4.225   3.048   6.046  0.4006  2.0390  0.3889
  503MOL0     H67904   3.172   3.004   6.089 -1.9899 -0.7421 -0.1249
  503MOL0     H67905   2.957   3.012   5.977 -0.5501  0.7422 -1.0553
  504MOL0     O67906   2.116   5.004  10.059 -0.1226  0.2264  0.1221
  504MOL0     C67907   2.096   5.029  10.175  0.4616  0.6888 -0.5323
  504MOL0     O67908   2.007   5.117  10.222 -0.1812 -0.1023 -0.1779
  504MOL0     C67909   1.909   5.176  10.146 -0.5323 -1.0789  0.2729
  504MOL0     C67910   1.864   5.139  10.016  0.5285  0.5031  0.2672
  504MOL0     C67911   1.759   5.216   9.949  0.0128  0.9192 -0.7094
  504MOL0     C67912   1.724   5.335  10.009  0.1010 -0.2880  0.3003
  504MOL0     O67913   1.633   5.409   9.927 -0.2475 -0.3521  0.1223
  504MOL0     C67914   1.618   5.542   9.959  0.8788  0.4336  0.2878
  504MOL0     C67915   1.524   5.617   9.859  0.4535 -0.3760  0.4283
  504MOL0     C67916   1.447   5.726   9.935 -0.1749  0.6132 -0.9634
  504MOL0     C67917   1.366   5.821   9.831 -0.8370  0.0466  0.1911
  504MOL0     C67918   1.250   5.909   9.891 -0.4828  1.2608  0.3208
  504MOL0     C67919   1.168   5.962   9.776 -0.3524  0.3095 -1.1181
  504MOL0     C67920   1.096   6.095   9.797 -0.3653  0.5733  0.4521
  504MOL0     C67921   1.003   6.077   9.919  0.5589 -0.6588  0.5246
  504MOL0     N67922   0.907   6.193   9.934  0.0219  0.0067  0.0242
  504MOL0     C67923   0.929   6.328   9.910  0.6538  0.3665  0.3726
  504MOL0     C67924   0.804   6.380   9.923  0.3727  0.1370  0.5714
  504MOL0     C67925   0.772   6.531   9.891 -0.8976 -1.3337  0.2425
  504MOL0     C67926   0.847   6.624   9.987 -0.3189  0.2219  0.9093
  504MOL0     C67927   0.863   6.768   9.929 -0.4982 -0.3803  0.4238
  504MOL0     C67928   0.931   6.860  10.029  0.1760 -0.0830  0.2911
  504MOL0     O67929   0.950   6.996   9.977 -0.5159  0.3170  0.1031
  504MOL0     C67930   1.060   7.032   9.906 -0.0420 -0.8029 -1.0459
  504MOL0     C67931   1.163   6.939   9.876  0.4787 -0.0561 -0.3553
  504MOL0     C67932   1.283   6.975   9.815 -1.2227  0.6983 -0.0851
  504MOL0     C67933   1.385   6.870   9.754 -0.0660  0.6638  0.0442
  504MOL0     C67934   1.310   7.112   9.803  0.2568 -0.4564  0.2716
  504MOL0     C67935   1.436   7.167   9.753  0.2901  0.7562  0.0427
  504MOL0     O67936   1.432   7.290   9.694 -1.0297 -0.4791 -0.1279
  504MOL0     C67937   1.540   7.335   9.609  0.3199  1.2244 -1.1511
  504MOL0     C67938   1.578   7.468   9.606  0.1022  0.3492  0.2928
  504MOL0     C67939   1.674   7.500   9.518 -0.0019 -0.2435 -0.1547
  504MOL0     C67940   1.752   7.408   9.440  1.5617  0.6348  0.3852
  504MOL0     O67941   1.864   7.441   9.369  0.1183 -0.7571 -0.3557
  504MOL0     C67942   1.893   7.375   9.251 -0.9028 -0.0012 -0.0669
  504MOL0     C67943   2.004   7.450   9.179 -0.5750  0.7652 -0.2411
  504MOL0     C67944   2.142   7.433   9.255  0.3987  0.1751  0.2495
  504MOL0     C67945   2.228   7.540   9.201  0.1891 -0.3438 -0.0500
  504MOL0     C67946   2.350   7.558   9.284  0.8152  0.7829  0.3451
  504MOL0     C67947   2.457   7.641   9.209  0.1965 -0.2916 -1.0471
  504MOL0     C67948   2.580   7.643   9.302 -0.9820 -0.0322  0.7065
  504MOL0     C67949   2.576   7.733   9.422  0.2786 -0.6778 -0.2897
  504MOL0    Cl67950   2.580   7.901   9.376 -0.1682  0.7740  0.6452
  504MOL0     C67951   1.708   7.279   9.451  0.3930 -0.2705  0.7222
  504MOL0     C67952   1.603   7.240   9.529 -0.6760 -0.3982 -0.6403
  504MOL0     O67953   1.541   7.118   9.786 -0.2077  0.1458 -0.4404
  504MOL0     C67954   1.205   7.201   9.822  0.4953 -0.2001 -0.8382
  504MOL0     C67955   1.087   7.166   9.877  0.3049  0.2753 -0.3964
  504MOL0     N67956   0.713   6.286   9.952 -0.7267  0.4426 -0.6903
  504MOL0     N67957   0.776   6.175   9.964  0.5162  0.1767  0.0195
  504MOL0     C67958   1.765   5.365  10.139  1.3937  0.2491  0.2735
  504MOL0     C67959   1.863   5.286  10.204 -0.1860 -0.0155 -0.1863
  504MOL0     C67960   2.142   4.926  10.275  0.3625 -0.1518  0.4640
  504MOL0     C67961   2.111   4.941  10.410  0.2360  0.0389 -0.1409
  504MOL0     C67962   2.143   4.834  10.502  0.1180 -0.2373  0.6788
  504MOL0     C67963   2.204   4.716  10.454  0.6813 -0.3063  0.3397
  504MOL0     O67964   2.245   4.620  10.544  0.5177  0.4153  0.0514
  504MOL0     C67965   2.191   4.487  10.515  0.5200 -0.1737  0.6741
  504MOL0     C67966   2.033   4.473  10.492  0.0911  0.0859  0.4792
  504MOL0     C67967   1.992   4.326  10.465  0.0062  0.0913  0.5769
  504MOL0     C67968   1.880   4.331  10.363 -0.8573  0.3033 -0.8493
  504MOL0     C67969   1.915   4.385  10.232  0.3432 -0.7075 -0.0701
  504MOL0     C67970   1.933   4.455  10.133 -0.0338  0.7189 -0.1048
  504MOL0     C67971   2.235   4.703  10.311  0.6710  0.2637  0.0908
  504MOL0     C67972   2.202   4.804  10.226 -0.1812 -0.6283  0.2392
  504MOL0     H67973   1.913   5.059   9.962  1.0382  1.0818 -0.1500
  504MOL0     H67974   1.732   5.177   9.851 -0.7047 -3.1056  0.8833
  504MOL0     H67975   1.566   5.546  10.055 -1.2362 -1.3398 -0.6858
  504MOL0     H67976   1.720   5.579   9.957  0.3647  1.8559 -0.7021
  504MOL0     H67977   1.584   5.661   9.779  2.8070 -5.0007 -0.7249
  504MOL0     H67978   1.451   5.550   9.813  1.3320 -1.6057  0.7897
  504MOL0     H67979   1.384   5.684  10.013  1.7718  0.5864  0.6543
  504MOL0     H67980   1.507   5.799   9.990  0.5991  0.9605 -2.2109
  504MOL0     H67981   1.438   5.886   9.782 -1.2308  0.5670  0.2970
  504MOL0     H67982   1.332   5.760   9.746 -1.8887  1.3763 -0.3676
  504MOL0     H67983   1.196   5.845   9.961  3.4781 -1.5160  1.2216
  504MOL0     H67984   1.292   5.988   9.953  1.9839 -0.3702  0.9002
  504MOL0     H67985   1.236   5.978   9.692 -1.2000 -3.0208 -2.5522
  504MOL0     H67986   1.095   5.886   9.750 -0.9886 -0.7344  2.9985
  504MOL0     H67987   1.166   6.176   9.819  0.7173 -0.5782  1.3530
  504MOL0     H67988   1.040   6.114   9.705 -1.1544  2.7172  1.2966
  504MOL0     H67989   1.061   6.053  10.009 -2.2538 -2.2206  2.0640
  504MOL0     H67990   0.944   5.989   9.889  2.5552 -1.9775  0.2525
  504MOL0     H67991   1.013   6.382   9.869 -1.5307  1.8456 -2.5977
  504MOL0     H67992   0.804   6.541   9.787  3.3057 -2.3949  1.2484
  504MOL0     H67993   0.664   6.544   9.902 -0.4651  4.0229  0.4500
  504MOL0     H67994   0.942   6.573  10.006 -2.0110 -2.8652  1.8090
  504MOL0     H67995   0.793   6.624  10.082  0.3378 -0.0237  1.2865
  504MOL0     H67996   0.765   6.808   9.902  0.4219  0.7195 -1.4728
  504MOL0     H67997   0.916   6.767   9.834 -0.4538  5.4084  0.0341
  504MOL0     H67998   1.025   6.818  10.067 -0.5314 -2.8513 -0.8180
  504MOL0     H67999   0.861   6.845  10.112 -2.0014  1.5568 -1.1675
  504MOL0     H68000   1.147   6.833   9.891 -0.1729 -0.1496 -1.5868
  504MOL0     H68001   1.378   6.877   9.645  0.7849  1.8808  0.0483
  504MOL0     H68002   1.490   6.894   9.773 -0.2450  1.8074 -0.3019
  504MOL0     H68003   1.369   6.767   9.786 -2.0347  0.7631 -0.5044
  504MOL0     H68004   1.519   7.541   9.661 -2.6213  0.7683 -2.8665
  504MOL0     H68005   1.711   7.602   9.513 -0.2953  0.2392  3.8522
  504MOL0     H68006   1.920   7.276   9.291  0.5174  0.6190  0.5803
  504MOL0     H68007   1.803   7.378   9.189 -0.2435 -1.8539 -1.2176
  504MOL0     H68008   2.018   7.409   9.079 -1.2304  0.8174 -0.3577
  504MOL0     H68009   1.974   7.555   9.170  1.5587  1.5156  0.8107
  504MOL0     H68010   2.183   7.332   9.238  0.4573 -0.1725  2.2835
  504MOL0     H68011   2.129   7.448   9.362  2.2030 -2.4272  0.9249
  504MOL0     H68012   2.252   7.530   9.095  2.1040 -0.5211  0.3619
  504MOL0     H68013   2.178   7.637   9.214 -2.8218 -1.5985 -1.2720
  504MOL0     H68014   2.381   7.455   9.306 -1.6804  0.1557  1.1478
  504MOL0     H68015   2.335   7.616   9.375  0.0395  2.3193 -0.7098
  504MOL0     H68016   2.485   7.606   9.109 -0.0200 -1.4606 -0.7205
  504MOL0     H68017   2.406   7.738   9.211 -0.5525 -0.6582  0.9214
  504MOL0     H68018   2.659   7.685   9.238 -2.8978  1.4124 -0.8212
  504MOL0     H68019   2.616   7.544   9.331  2.2902  0.9090  0.3378
  504MOL0     H68020   2.661   7.718   9.489  1.5719  0.3556 -1.6283
  504MOL0     H68021   2.487   7.719   9.483 -0.5902  3.0964 -0.4859
  504MOL0     H68022   1.759   7.199   9.398  2.6583  0.5184  1.5936
  504MOL0     H68023   1.578   7.134   9.536  0.6032 -0.6618  0.1770
  504MOL0     H68024   1.221   7.306   9.798 -2.9603  0.9488  1.0884
  504MOL0     H68025   1.009   7.240   9.890 -0.9290 -1.2720  1.6034
  504MOL0     H68026   1.724   5.451  10.190  1.3547  0.1927  0.3374
  504MOL0     H68027   1.885   5.306  10.309 -1.3191 -1.4020  0.3413
  504MOL0     H68028   2.056   5.029  10.442 -0.8018 -0.5420 -0.3004
  504MOL0     H68029   2.125   4.848  10.608 -1.5383 -2.0522  0.6864
  504MOL0     H68030   2.237   4.436  10.430  0.2996 -1.3210  1.2254
  504MOL0     H68031   2.217   4.428  10.603  1.9885  3.7429  3.1517
  504MOL0     H68032   2.001   4.536  10.408 -1.7034 -0.3626  0.7887
  504MOL0     H68033   1.974   4.513  10.574 -0.8172 -1.4032  0.5880
  504MOL0     H68034   1.957   4.272  10.554 -1.4289  1.1185  0.6654
  504MOL0     H68035   2.077   4.275  10.417 -0.1168  0.5854 -0.1769
  504MOL0     H68036   1.796   4.386  10.408 -0.3581  0.4701 -0.1148
  504MOL0     H68037   1.854   4.227  10.338  0.8770  0.2366 -2.5884
  504MOL0     H68038   1.942   4.525  10.052 -3.5775  1.1725 -0.2499
  504MOL0     H68039   2.288   4.615  10.276  1.2249  0.4784  0.3852
  504MOL0     H68040   2.219   4.790  10.119  3.6684  0.2734  0.5907
  505MOL0     O68041   7.324   8.164   9.654 -0.0621 -0.2414  0.1056
  505MOL0     C68042   7.297   8.218   9.764  0.0399 -0.0213 -0.2233
  505MOL0     O68043   7.174   8.225   9.817  1.1341 -0.6402  0.5672
  505MOL0     C68044   7.067   8.191   9.733  0.1029  0.9722  0.4486
  505MOL0     C68045   7.051   8.214   9.593  0.9749  0.4365 -0.0243
  505MOL0     C68046   6.939   8.158   9.522 -0.1513 -0.1657 -0.1758
  505MOL0     C68047   6.855   8.069   9.584  0.1805 -0.5613 -0.2465
  505MOL0     O68048   6.742   8.032   9.517  0.5799  0.9820  0.0724
  505MOL0     C68049   6.652   8.143   9.482  0.2587 -0.2449  0.1959
  505MOL0     C68050   6.543   8.091   9.389  0.4433  0.6044 -0.7119
  505MOL0     C68051   6.485   7.956   9.437 -0.7133  0.2350  0.6856
  505MOL0     C68052   6.392   7.912   9.323  0.3134 -0.5720 -0.7607
  505MOL0     C68053   6.319   7.791   9.375  0.3702  0.3248 -0.1295
  505MOL0     C68054   6.407   7.655   9.391  0.2410 -1.1379  1.1745
  505MOL0     C68055   6.512   7.645   9.277  0.9960  0.4695  0.3542
  505MOL0     C68056   6.554   7.499   9.247  1.2148 -0.1041  0.8360
  505MOL0     N68057   6.654   7.470   9.142 -0.3229 -0.2373  0.3537
  505MOL0     C68058   6.791   7.463   9.161  0.3385  0.1254  0.1504
  505MOL0     C68059   6.841   7.419   9.044  0.8478  1.0581 -0.0663
  505MOL0     C68060   6.986   7.400   9.024  0.1361  0.0846  0.4011
  505MOL0     C68061   7.012   7.461   8.890  0.3714  0.3427  0.0639
  505MOL0     C68062   7.152   7.410   8.855  0.1168  0.4179  0.4610
  505MOL0     C68063   7.175   7.429   8.696  0.1825  0.5364 -0.1928
  505MOL0     O68064   7.288   7.358   8.650 -0.2387  0.1059  0.3127
  505MOL0     C68065   7.263   7.236   8.593  0.1476  0.0983  0.3448
  505MOL0     C68066   7.148   7.160   8.587  0.9639  0.9895  0.6119
  505MOL0     C68067   7.137   7.037   8.528 -0.1548 -0.0148  0.1174
  505MOL0     C68068   6.999   6.978   8.517 -0.3411  0.0530  0.9155
  505MOL0     C68069   7.259   6.980   8.466 -0.2091 -0.0476  0.4910
  505MOL0     C68070   7.261   6.864   8.376 -0.0225 -0.5118  0.4885
  505MOL0     O68071   7.154   6.877   8.293  0.2274  0.2041  0.3153
  505MOL0     C68072   7.130   6.796   8.185 -0.9707  0.4653  0.1864
  505MOL0     C68073   7.220   6.710   8.122  0.1843 -1.3711  0.5132
  505MOL0     C68074   7.187   6.636   8.009  0.2124  0.4466 -0.3427
  505MOL0     C68075   7.055   6.651   7.956  0.6158 -0.7451 -0.1765
  505MOL0     O68076   7.009   6.575   7.844  0.3619  0.5188 -0.6257
  505MOL0     C68077   6.890   6.502   7.872  0.1845  0.5214  0.6321
  505MOL0     C68078   6.866   6.397   7.772  0.1347  0.5308  0.1094
  505MOL0     C68079   6.979   6.295   7.771  0.6782  0.1358  0.3666
  505MOL0     C68080   6.941   6.198   7.885 -0.9458 -0.9129 -1.1591
  505MOL0     C68081   7.059   6.092   7.883  0.1473 -0.5895  0.0247
  505MOL0     C68082   7.033   5.987   7.989 -0.2837  0.4652  0.2222
  505MOL0     C68083   7.145   5.879   7.969  0.4966 -0.2251  0.5402
  505MOL0     C68084   7.149   5.766   8.075 -0.5347 -0.7711  1.0473
  505MOL0    Cl68085   7.000   5.692   8.113  0.1677 -0.0239  0.1777
  505MOL0     C68086   6.972   6.747   8.025  0.2811  0.7493  0.4994
  505MOL0     C68087   7.006   6.817   8.140  0.4860 -0.9627  0.0910
  505MOL0     O68088   7.355   6.794   8.370 -0.6747  0.3469 -0.1459
  505MOL0     C68089   7.378   7.054   8.479  0.6130 -0.0122 -0.3136
  505MOL0     C68090   7.374   7.177   8.544  0.2980  0.2122  0.0092
  505MOL0     N68091   6.732   7.387   8.962  0.8443 -0.7097  0.4428
  505MOL0     N68092   6.625   7.424   9.016 -0.7952  0.0279  0.2023
  505MOL0     C68093   6.877   8.037   9.721  0.0562 -0.1057 -0.8672
  505MOL0     C68094   6.979   8.102   9.793  0.0592  1.0160  0.4925
  505MOL0     C68095   7.405   8.273   9.837  0.9376 -0.4555 -0.1461
  505MOL0     C68096   7.536   8.259   9.800  0.3369  0.1885  0.2529
  505MOL0     C68097   7.643   8.312   9.884  0.5125 -0.1511  0.2284
  505MOL0     C68098   7.615   8.380  10.000  0.4484 -0.1552  0.7780
  505MOL0     O68099   7.713   8.421  10.087 -0.3171 -0.2296  1.0202
  505MOL0     C68100   7.766   8.551  10.051  0.5692 -0.3414  0.3697
  505MOL0     C68101   7.895   8.597  10.134 -0.7413  0.4675 -0.8407
  505MOL0     C68102   7.918   8.745  10.117 -0.4937 -0.1906  0.2384
  505MOL0     C68103   8.054   8.773  10.178 -0.7209 -0.3088  1.0610
  505MOL0     C68104   8.086   8.917  10.183  0.0222  0.1511  0.3308
  505MOL0     C68105   8.114   9.029  10.161 -0.1211 -0.5897  0.3290
  505MOL0     C68106   7.483   8.393  10.040  0.1265  0.0884  0.5656
  505MOL0     C68107   7.380   8.343   9.960 -0.2867  0.0486  0.8592
  505MOL0     H68108   7.114   8.290   9.548 -0.8426  0.6457 -2.4181
  505MOL0     H68109   6.922   8.195   9.421 -0.5556  2.0180  0.6484
  505MOL0     H68110   6.593   8.170   9.570 -1.6959  0.7056 -1.3232
  505MOL0     H68111   6.701   8.230   9.439 -1.3242  0.1968 -0.8151
  505MOL0     H68112   6.467   8.168   9.375 -0.7800 -0.0047  1.8902
  505MOL0     H68113   6.592   8.083   9.292 -0.5397  1.4033 -1.3005
  505MOL0     H68114   6.566   7.883   9.443 -0.3475  0.7567  3.4992
  505MOL0     H68115   6.442   7.952   9.537  0.6814  0.9160  1.3450
  505MOL0     H68116   6.332   7.998   9.293 -0.7318 -2.3398 -4.3256
  505MOL0     H68117   6.448   7.881   9.234  1.0712 -0.6358 -0.2666
  505MOL0     H68118   6.278   7.820   9.472  3.3426  2.2768  0.7002
  505MOL0     H68119   6.240   7.766   9.303  0.1461  1.6567 -0.3816
  505MOL0     H68120   6.453   7.656   9.490  2.9460  2.8921  0.1328
  505MOL0     H68121   6.341   7.570   9.376  1.5269 -2.1133  0.8917
  505MOL0     H68122   6.470   7.684   9.184  1.9218 -0.9257 -0.7048
  505MOL0     H68123   6.604   7.691   9.314  2.2739 -1.8326  0.2691
  505MOL0     H68124   6.468   7.437   9.223  1.1870  1.1167 -2.7944
  505MOL0     H68125   6.594   7.460   9.341 -0.5070 -2.0198  0.8370
  505MOL0     H68126   6.836   7.494   9.254 -0.6817  0.0489  0.6823
  505MOL0     H68127   7.050   7.449   9.098 -2.0507  2.4128  0.8750
  505MOL0     H68128   7.007   7.294   9.008  0.8353  0.3665 -0.6231
  505MOL0     H68129   7.015   7.571   8.887  3.6530  0.4453  2.2203
  505MOL0     H68130   6.937   7.425   8.819  1.7696 -1.4032 -0.6030
  505MOL0     H68131   7.165   7.303   8.875 -0.4400  0.1427 -0.6039
  505MOL0     H68132   7.239   7.462   8.896 -0.0763 -0.0262  1.4740
  505MOL0     H68133   7.187   7.536   8.676  0.2415  0.4537 -0.5976
  505MOL0     H68134   7.085   7.398   8.642 -0.7881  1.0464  1.0688
  505MOL0     H68135   7.057   7.201   8.630 -2.0885 -2.0774 -2.3188
  505MOL0     H68136   6.999   6.883   8.572 -0.4658  1.2532  3.1206
  505MOL0     H68137   6.928   7.041   8.572  0.6476  0.3617  1.8829
  505MOL0     H68138   6.967   6.978   8.413  4.3982  2.2425 -0.8293
  505MOL0     H68139   7.314   6.696   8.175  1.0235 -2.2222 -1.1143
  505MOL0     H68140   7.245   6.556   7.964 -1.3399  0.1923 -2.0099
  505MOL0     H68141   6.902   6.455   7.971  2.7677 -0.6880 -0.1630
  505MOL0     H68142   6.804   6.569   7.876  0.3363  0.7730 -0.3014
  505MOL0     H68143   6.765   6.356   7.782  0.6533 -1.4913 -2.1223
  505MOL0     H68144   6.870   6.432   7.668  0.4912 -4.2351 -1.7592
  505MOL0     H68145   7.078   6.341   7.774  1.7195 -2.0290  1.7098
  505MOL0     H68146   6.976   6.246   7.673 -1.6932  2.1210 -0.6510
  505MOL0     H68147   6.930   6.246   7.982 -2.5418  0.5337 -1.9938
  505MOL0     H68148   6.850   6.137   7.882  0.7438 -3.8056  1.3565
  505MOL0     H68149   7.151   6.149   7.897 -0.2024  0.2917 -1.1628
  505MOL0     H68150   7.058   6.041   7.786  2.0544 -1.8596  0.6072
  505MOL0     H68151   7.043   6.041   8.084  3.1560  1.9295 -0.8125
  505MOL0     H68152   6.936   5.937   7.980 -0.5854  0.7232  1.7419
  505MOL0     H68153   7.246   5.920   7.955 -0.2252  0.9009 -1.8511
  505MOL0     H68154   7.130   5.823   7.877  2.8871 -1.1291  0.6322
  505MOL0     H68155   7.197   5.787   8.171 -0.0363 -2.7879  1.2961
  505MOL0     H68156   7.214   5.690   8.031 -0.8947 -0.5433  0.1099
  505MOL0     H68157   6.874   6.767   7.984  1.2540  1.9884 -1.3739
  505MOL0     H68158   6.939   6.882   8.195  3.5051  1.1927  1.5346
  505MOL0     H68159   7.471   7.015   8.437 -1.4456 -1.6184 -3.8497
  505MOL0     H68160   7.472   7.225   8.542  0.4108 -0.0198 -0.8243
  505MOL0     H68161   6.816   7.964   9.772 -0.3569  0.4057 -0.6172
  505MOL0     H68162   6.996   8.071   9.895 -2.6146  0.4392  0.8257
  505MOL0     H68163   7.558   8.193   9.717  1.6722  1.2024 -0.2372
  505MOL0     H68164   7.749   8.313   9.858  0.8341 -0.2255  1.4747
  505MOL0     H68165   7.782   8.558   9.943 -1.3323  0.3405  0.1028
  505MOL0     H68166   7.685   8.622  10.070 -2.4455 -2.7781 -2.3036
  505MOL0     H68167   7.965   8.522  10.096 -1.7515 -0.7381 -0.3807
  505MOL0     H68168   7.876   8.574  10.239 -4.0853  2.6326 -0.8232
  505MOL0     H68169   7.842   8.800  10.172 -0.6009  0.5151 -0.5982
  505MOL0     H68170   7.921   8.767  10.010 -0.7183  0.8807  0.4456
  505MOL0     H68171   8.138   8.718  10.135 -0.0633 -0.0865  2.0305
  505MOL0     H68172   8.046   8.750  10.284  0.4845  1.7663  1.6842
  505MOL0     H68173   8.129   9.133  10.140 -1.7238 -0.4545 -0.2657
  505MOL0     H68174   7.457   8.438  10.135  0.6258 -1.1970  1.3402
  505MOL0     H68175   7.279   8.346  10.001  0.3682 -1.4735  2.7471
  506MOL0     O68176   1.089  10.238   7.509 -0.5150 -0.3547  0.5878
  506MOL0     C68177   1.090  10.166   7.413 -0.5586 -0.2693 -0.5317
  506MOL0     O68178   0.987  10.082   7.379 -0.2076  0.1348 -0.1747
  506MOL0     C68179   0.865  10.092   7.433 -0.3110 -0.2498 -0.5991
  506MOL0     C68180   0.805   9.965   7.450 -0.0662 -0.3177 -0.5661
  506MOL0     C68181   0.667   9.955   7.500 -0.8194 -0.2343 -0.0339
  506MOL0     C68182   0.595  10.076   7.517  0.1790  0.0298  0.1177
  506MOL0     O68183   0.458  10.054   7.538 -0.5416 -0.1889 -0.3746
  506MOL0     C68184   0.367  10.158   7.587  0.3731  0.7594  0.3087
  506MOL0     C68185   0.212  10.116   7.599 -1.0751 -0.6526  1.7667
  506MOL0     C68186   0.115  10.231   7.633  0.3022  0.4641  1.1841
  506MOL0     C68187  -0.026  10.173   7.649  0.3614 -0.8457 -0.1386
  506MOL0     C68188  -0.116  10.294   7.633  0.1822 -0.5540  0.5054
  506MOL0     C68189  -0.266  10.268   7.681 -0.4449 -0.2269  0.2756
  506MOL0     C68190  -0.363  10.393   7.691 -0.0338  0.9767 -0.2960
  506MOL0     C68191  -0.353  10.481   7.568 -0.0507  0.3587  0.2286
  506MOL0     N68192  -0.436  10.435   7.454 -0.4327 -0.2825  0.1913
  506MOL0     C68193  -0.419  10.319   7.372 -0.3317  0.1909  0.2787
  506MOL0     C68194  -0.523  10.333   7.280  0.8010  0.2979 -0.2730
  506MOL0     C68195  -0.563  10.219   7.191  0.1344 -0.2930  1.4776
  506MOL0     C68196  -0.481  10.218   7.061 -0.8205 -0.0401  0.9197
  506MOL0     C68197  -0.432  10.352   7.009 -0.8762 -0.2281  0.9197
  506MOL0     C68198  -0.368  10.350   6.864 -0.9964 -1.2876 -0.6813
  506MOL0     O68199  -0.235  10.319   6.881  0.2070  0.4422  0.0998
  506MOL0     C68200  -0.160  10.290   6.772 -0.4501 -0.1455 -0.4322
  506MOL0     C68201  -0.041  10.237   6.805 -0.0561 -0.1060 -0.1513
  506MOL0     C68202   0.055  10.194   6.712  0.1422 -0.6428  0.0547
  506MOL0     C68203   0.178  10.123   6.755  0.4872 -0.6245 -0.8120
  506MOL0     C68204   0.018  10.214   6.568 -0.4792  0.3834  0.8655
  506MOL0     C68205   0.102  10.172   6.442 -0.4384  0.2533  0.5989
  506MOL0     O68206   0.232  10.168   6.461 -0.1559  0.1973  0.2359
  506MOL0     C68207   0.322  10.148   6.355 -0.3046 -0.1514 -0.5681
  506MOL0     C68208   0.436  10.226   6.376  0.3938  0.5222  0.2955
  506MOL0     C68209   0.535  10.240   6.277  0.0011  0.6845 -0.7586
  506MOL0     C68210   0.523  10.163   6.159 -0.5963  0.3173 -0.2272
  506MOL0     O68211   0.614  10.176   6.060 -0.0540 -0.3947  0.5351
  506MOL0     C68212   0.613  10.311   6.002  0.4889  0.2844 -0.0446
  506MOL0     C68213   0.618  10.307   5.847 -0.2303 -0.3263 -0.8773
  506MOL0     C68214   0.508  10.201   5.802  0.8632 -0.0990  0.1650
  506MOL0     C68215   0.452  10.249   5.665  0.2045  0.5899 -0.5672
  506MOL0     C68216   0.380  10.139   5.597  0.9047  0.7379  0.3902
  506MOL0     C68217   0.311  10.197   5.475  0.4577 -0.0800 -0.7254
  506MOL0     C68218   0.270  10.102   5.367 -0.5156 -0.3934 -0.5807
  506MOL0     C68219   0.179  10.169   5.264 -0.2581  0.2569 -0.2053
  506MOL0    Cl68220   0.229  10.327   5.196 -0.1922  0.2567  0.3169
  506MOL0     C68221   0.426  10.059   6.148 -0.7307 -0.5670 -0.1382
  506MOL0     C68222   0.327  10.055   6.247 -0.5968 -0.3360  0.1448
  506MOL0     O68223   0.042  10.165   6.333 -0.0336  0.5480  0.2042
  506MOL0     C68224  -0.106  10.262   6.538  1.0003 -1.0689 -0.1698
  506MOL0     C68225  -0.198  10.302   6.637 -0.4156 -0.4338  0.3105
  506MOL0     N68226  -0.608  10.436   7.310 -0.2380 -0.1791  0.4820
  506MOL0     N68227  -0.552  10.498   7.408 -0.0805 -0.2553  0.6840
  506MOL0     C68228   0.658  10.199   7.509  0.9089 -0.5003  0.0161
  506MOL0     C68229   0.796  10.212   7.470  0.6548 -0.2546 -0.3819
  506MOL0     C68230   1.208  10.136   7.331  0.3448 -0.6182  0.0923
  506MOL0     C68231   1.336  10.164   7.371  0.3256 -0.1773  0.7038
  506MOL0     C68232   1.440  10.121   7.291  0.9241 -0.2205 -0.9207
  506MOL0     C68233   1.420  10.075   7.163  1.4360  1.2633 -0.0415
  506MOL0     O68234   1.531  10.049   7.087  0.0747 -0.1466 -0.1973
  506MOL0     C68235   1.541   9.920   7.011 -0.0028 -0.4802  0.2632
  506MOL0     C68236   1.685   9.864   7.009  0.1537  0.1518  0.0170
  506MOL0     C68237   1.795   9.961   6.969 -0.7141  0.5976 -0.5606
  506MOL0     C68238   1.779  10.023   6.836 -0.0207  0.1366  0.2845
  506MOL0     C68239   1.685  10.137   6.829  0.6567  0.6558  0.5638
  506MOL0     C68240   1.629  10.240   6.830 -0.3331 -0.2461  0.0481
  506MOL0     C68241   1.289  10.047   7.124 -0.2600  0.7263 -0.5215
  506MOL0     C68242   1.186  10.077   7.206 -0.4671 -0.1824  0.3347
  506MOL0     H68243   0.872   9.880   7.438 -1.7019 -1.7826  0.3332
  506MOL0     H68244   0.615   9.861   7.517 -0.6265 -0.5219 -0.9434
  506MOL0     H68245   0.403  10.195   7.684  1.7556  3.7310 -1.2148
  506MOL0     H68246   0.349  10.244   7.522 -2.7079  1.9831  2.5293
  506MOL0     H68247   0.186  10.094   7.495 -2.1708 -1.9792  2.2912
  506MOL0     H68248   0.203  10.025   7.658 -2.2796 -0.9868  1.0961
  506MOL0     H68249   0.149  10.270   7.729  0.1967 -0.4926  1.6173
  506MOL0     H68250   0.117  10.308   7.555 -1.6243  1.2736  1.8697
  506MOL0     H68251  -0.057  10.097   7.577 -2.6640 -0.1739  0.3141
  506MOL0     H68252  -0.036  10.120   7.744  1.0086 -0.0338  0.3914
  506MOL0     H68253  -0.095  10.391   7.679 -3.8699  0.2575  1.0697
  506MOL0     H68254  -0.142  10.309   7.528 -1.2388 -0.7582  0.8033
  506MOL0     H68255  -0.307  10.203   7.603 -1.7278  2.2068 -1.1823
  506MOL0     H68256  -0.259  10.221   7.780  0.2888 -1.0486 -0.1517
  506MOL0     H68257  -0.468  10.365   7.702  0.3177  0.4290  2.3973
  506MOL0     H68258  -0.338  10.460   7.775 -0.1236  0.0483  0.4812
  506MOL0     H68259  -0.249  10.487   7.535 -0.1283 -0.8588 -0.2558
  506MOL0     H68260  -0.384  10.581   7.602 -0.1132 -0.2115  1.9362
  506MOL0     H68261  -0.336  10.250   7.377  1.6724  2.2411 -1.8296
  506MOL0     H68262  -0.547  10.128   7.248  2.3134 -0.4506  0.6947
  506MOL0     H68263  -0.667  10.236   7.160  1.0924  2.2899 -0.8269
  506MOL0     H68264  -0.523  10.164   6.975  3.1320 -2.0333 -0.0278
  506MOL0     H68265  -0.390  10.164   7.088  0.4138  0.8509 -1.1489
  506MOL0     H68266  -0.356  10.396   7.074  1.6130 -0.4735 -1.6381
  506MOL0     H68267  -0.515  10.424   7.010  0.3658  1.3956 -1.9506
  506MOL0     H68268  -0.373  10.448   6.818  1.7524 -0.2296  1.0465
  506MOL0     H68269  -0.418  10.283   6.794 -3.6352 -0.4295  0.2543
  506MOL0     H68270  -0.028  10.225   6.913  2.4552 -2.1568 -0.5851
  506MOL0     H68271   0.178  10.102   6.863 -0.1549  1.5142 -0.3384
  506MOL0     H68272   0.212  10.042   6.691  2.1078  0.3186 -1.2031
  506MOL0     H68273   0.248  10.207   6.753 -0.8954  0.5968 -3.1981
  506MOL0     H68274   0.428  10.291   6.463  0.2892  1.3365 -0.3142
  506MOL0     H68275   0.615  10.313   6.282  1.9071 -1.3385  0.8221
  506MOL0     H68276   0.516  10.355   6.029  0.4139  0.3769 -0.4579
  506MOL0     H68277   0.699  10.370   6.037  0.2068  1.7536 -1.6889
  506MOL0     H68278   0.603  10.410   5.813  0.6761  1.0250  2.3816
  506MOL0     H68279   0.716  10.272   5.813 -0.5081 -1.4177 -0.5873
  506MOL0     H68280   0.425  10.191   5.873  1.9934 -2.2953  1.2846
  506MOL0     H68281   0.559  10.105   5.791  1.1907  0.3521 -3.5600
  506MOL0     H68282   0.385  10.333   5.685 -1.1502 -0.7724  0.9005
  506MOL0     H68283   0.530  10.274   5.592  1.6557 -1.5182  0.1701
  506MOL0     H68284   0.301  10.093   5.658  1.5660  0.0605  0.7456
  506MOL0     H68285   0.442  10.056   5.561  0.6315  0.1248  1.2849
  506MOL0     H68286   0.224  10.255   5.507  1.4288  1.0959 -0.1492
  506MOL0     H68287   0.381  10.265   5.427  0.5231 -0.6315 -1.4413
  506MOL0     H68288   0.209  10.018   5.400  0.3226 -1.4334 -1.5975
  506MOL0     H68289   0.362  10.056   5.328  1.4421  1.7315  1.2242
  506MOL0     H68290   0.085  10.195   5.313  0.0351  2.4921 -0.7428
  506MOL0     H68291   0.168  10.089   5.190  3.2945 -0.3054 -0.3206
  506MOL0     H68292   0.424   9.993   6.063  0.3863  0.4502 -0.9991
  506MOL0     H68293   0.253   9.976   6.240  0.3943 -1.2077 -0.6897
  506MOL0     H68294  -0.145  10.274   6.438 -1.6958  0.2121  0.9113
  506MOL0     H68295  -0.297  10.340   6.611  1.5256  3.8229 -1.7984
  506MOL0     H68296   0.611  10.291   7.542  0.6942 -0.8699  0.7486
  506MOL0     H68297   0.844  10.310   7.474 -0.6247  0.3587  1.8957
  506MOL0     H68298   1.345  10.199   7.474 -0.3613  0.6204  0.4963
  506MOL0     H68299   1.541  10.141   7.325 -0.3283  2.6001  1.6677
  506MOL0     H68300   1.473   9.851   7.060  0.5410 -0.1977  1.4594
  506MOL0     H68301   1.516   9.942   6.906  1.1440 -0.7456 -0.0799
  506MOL0     H68302   1.686   9.779   6.940  0.5002 -0.3307  0.5957
  506MOL0     H68303   1.703   9.819   7.108 -0.3181 -1.9279 -0.7814
  506MOL0     H68304   1.884   9.899   6.971 -0.6437  0.7011 -0.4524
  506MOL0     H68305   1.807  10.037   7.047  3.2131 -1.1950  0.8232
  506MOL0     H68306   1.745   9.947   6.764  0.4394 -0.0778  0.2886
  506MOL0     H68307   1.878  10.058   6.804 -0.1065 -0.1828 -0.3692
  506MOL0     H68308   1.578  10.334   6.837 -0.4545 -0.3094  0.0054
  506MOL0     H68309   1.275   9.998   7.028  2.7707  1.2700 -1.3450
  506MOL0     H68310   1.088  10.061   7.162 -0.7693 -2.1424  1.5708
  507MOL0     O68311   6.655   1.434   5.594 -0.4218  0.1371  0.2138
  507MOL0     C68312   6.700   1.403   5.483  0.8490  0.1206  0.1014
  507MOL0     O68313   6.631   1.341   5.376  0.2754  0.8114  0.0247
  507MOL0     C68314   6.491   1.323   5.380 -0.4522 -0.3166 -0.5740
  507MOL0     C68315   6.451   1.189   5.398 -0.5394 -0.1037  0.4581
  507MOL0     C68316   6.318   1.161   5.373 -1.1724 -0.0556 -0.1945
  507MOL0     C68317   6.231   1.268   5.350  0.1530 -0.5596  0.4974
  507MOL0     O68318   6.096   1.240   5.324  0.1470 -0.2195 -0.2055
  507MOL0     C68319   6.020   1.307   5.220 -0.8957  0.2484  0.8525
  507MOL0     C68320   5.877   1.253   5.214  0.5081  0.6499  0.7016
  507MOL0     C68321   5.793   1.308   5.106  0.3294 -0.1925  0.2679
  507MOL0     C68322   5.849   1.270   4.967 -0.3498  0.1008 -0.1169
  507MOL0     C68323   5.763   1.309   4.845 -0.1502  1.3402  0.5156
  507MOL0     C68324   5.622   1.230   4.846 -0.9660 -0.1058 -0.5154
  507MOL0     C68325   5.657   1.093   4.788  0.2101  0.5295  0.0104
  507MOL0     C68326   5.529   1.004   4.780 -0.5771 -0.2218 -0.6019
  507MOL0     N68327   5.417   1.062   4.707  0.5099  0.2286  0.1929
  507MOL0     C68328   5.316   1.133   4.769  0.3359  0.0001  0.6634
  507MOL0     C68329   5.219   1.130   4.673  0.6404  0.0097  0.4457
  507MOL0     C68330   5.087   1.193   4.685 -0.0607 -0.4089 -0.4222
  507MOL0     C68331   5.071   1.311   4.588  0.1200  0.3418  0.7641
  507MOL0     C68332   5.076   1.285   4.432 -1.0463  0.2728 -0.3502
  507MOL0     C68333   4.969   1.176   4.390  0.2145 -0.4138  0.2785
  507MOL0     O68334   4.847   1.210   4.454  1.1446 -0.1562 -0.6705
  507MOL0     C68335   4.753   1.111   4.461 -0.1539 -0.1289 -0.5172
  507MOL0     C68336   4.752   0.993   4.386 -0.0329 -0.1583  0.0543
  507MOL0     C68337   4.653   0.892   4.396  0.2740  0.2301 -0.2920
  507MOL0     C68338   4.638   0.770   4.296  0.1503  0.3801 -0.1830
  507MOL0     C68339   4.544   0.919   4.478 -1.1107  0.2461 -0.4257
  507MOL0     C68340   4.415   0.837   4.484 -0.3811  0.6583 -0.5229
  507MOL0     O68341   4.304   0.904   4.500  0.7365 -0.3176 -0.0906
  507MOL0     C68342   4.192   0.837   4.538  0.7794  0.1693  0.2606
  507MOL0     C68343   4.186   0.781   4.665  0.1350 -0.1103  0.0850
  507MOL0     C68344   4.077   0.700   4.709 -0.0161 -0.0420  0.3150
  507MOL0     C68345   3.964   0.692   4.638 -0.2050 -0.5652  0.6918
  507MOL0     O68346   3.861   0.619   4.694  0.2099 -0.1150  0.2993
  507MOL0     C68347   3.727   0.606   4.642  0.1129  0.9713 -0.1180
  507MOL0     C68348   3.655   0.490   4.715  0.3697 -0.0948 -1.0138
  507MOL0     C68349   3.593   0.531   4.854 -0.6059 -0.4260  0.3537
  507MOL0     C68350   3.480   0.628   4.844 -0.4536  0.4421 -0.4903
  507MOL0     C68351   3.390   0.610   4.969 -0.8734 -0.2735  0.7051
  507MOL0     C68352   3.278   0.501   4.948  0.9992 -0.1013  0.1926
  507MOL0     C68353   3.193   0.506   5.069 -0.1180  0.5775  0.7820
  507MOL0     C68354   3.096   0.391   5.075 -0.5794 -0.0875  0.3264
  507MOL0    Cl68355   2.945   0.419   4.986 -0.4628  0.6446  0.1205
  507MOL0     C68356   3.973   0.743   4.506  0.2059  0.7079 -0.2693
  507MOL0     C68357   4.085   0.823   4.459  0.3260  0.2695 -0.3045
  507MOL0     O68358   4.425   0.709   4.483  0.2868 -0.3180 -0.3508
  507MOL0     C68359   4.546   1.039   4.559  0.4127 -0.2054  1.2265
  507MOL0     C68360   4.647   1.130   4.554  0.6449  0.6452 -0.8412
  507MOL0     N68361   5.263   1.058   4.566 -0.0802 -0.5916  0.2407
  507MOL0     N68362   5.387   1.027   4.581 -0.2628  0.2930  1.6471
  507MOL0     C68363   6.271   1.405   5.338  0.4089  1.0595  0.1724
  507MOL0     C68364   6.404   1.428   5.347 -0.2856  0.2034  0.0488
  507MOL0     C68365   6.838   1.439   5.463  0.0083 -0.5632  1.1035
  507MOL0     C68366   6.917   1.512   5.548  0.1548 -0.4128  0.6057
  507MOL0     C68367   7.056   1.535   5.518  0.2965 -0.6232 -0.2881
  507MOL0     C68368   7.108   1.490   5.396  0.2163 -1.2279  0.2583
  507MOL0     O68369   7.238   1.514   5.361 -1.2910 -0.6236 -0.5406
  507MOL0     C68370   7.340   1.552   5.454 -0.5432  0.2258  0.9688
  507MOL0     C68371   7.380   1.452   5.560  0.3246  0.6324 -0.7215
  507MOL0     C68372   7.432   1.309   5.533 -0.1585 -0.3106  0.3105
  507MOL0     C68373   7.329   1.234   5.440  0.9892 -0.6402  0.7074
  507MOL0     C68374   7.356   1.092   5.427 -0.4910  0.7752  0.7580
  507MOL0     C68375   7.393   0.980   5.456  0.0258 -0.0219  1.0045
  507MOL0     C68376   7.031   1.434   5.301 -0.1475  0.5451  0.2244
  507MOL0     C68377   6.898   1.392   5.342 -0.6479 -0.8531  0.0264
  507MOL0     H68378   6.530   1.115   5.412  0.9234  0.9180 -1.7750
  507MOL0     H68379   6.291   1.056   5.362  1.6461 -0.7522 -1.2441
  507MOL0     H68380   6.012   1.410   5.255  0.5464  0.6056  0.1762
  507MOL0     H68381   6.075   1.286   5.128 -1.2482 -4.6618  1.5027
  507MOL0     H68382   5.885   1.145   5.206 -1.8151  0.5701 -2.2346
  507MOL0     H68383   5.825   1.275   5.308 -1.5633 -0.7797 -0.0518
  507MOL0     H68384   5.694   1.261   5.110 -0.9957  2.3271 -0.8035
  507MOL0     H68385   5.776   1.416   5.111  1.0519 -0.1016  0.8458
  507MOL0     H68386   5.933   1.338   4.947 -0.3455  0.0837 -0.1575
  507MOL0     H68387   5.883   1.167   4.961  2.4596  0.9693 -0.5008
  507MOL0     H68388   5.737   1.415   4.851 -2.2705  0.8321  0.9769
  507MOL0     H68389   5.810   1.292   4.747  0.3265  2.6612  0.4874
  507MOL0     H68390   5.567   1.221   4.941  0.0669 -1.0431  0.0114
  507MOL0     H68391   5.550   1.287   4.787 -3.0324 -2.0732 -0.0510
  507MOL0     H68392   5.693   1.099   4.685 -0.5434 -1.0734 -0.3853
  507MOL0     H68393   5.727   1.041   4.854  1.6391  0.9054 -1.1443
  507MOL0     H68394   5.495   0.992   4.883 -0.8556  2.9324 -0.2299
  507MOL0     H68395   5.560   0.908   4.739 -0.1320 -0.8063  0.9937
  507MOL0     H68396   5.310   1.190   4.861  0.5891  1.8292 -0.3991
  507MOL0     H68397   5.017   1.112   4.664 -2.9642  1.2789  1.9171
  507MOL0     H68398   5.059   1.223   4.787 -1.3265 -1.9116 -0.2801
  507MOL0     H68399   5.144   1.390   4.610  1.3082 -0.4635 -0.1638
  507MOL0     H68400   4.969   1.343   4.613 -1.0405 -1.6187 -1.1548
  507MOL0     H68401   5.179   1.259   4.406  0.1003  2.7143  1.4031
  507MOL0     H68402   5.063   1.380   4.380  2.8624  2.4842  2.2037
  507MOL0     H68403   5.011   1.082   4.425  0.0552 -0.4418  0.3951
  507MOL0     H68404   4.955   1.172   4.282 -0.4353 -0.8335  0.3773
  507MOL0     H68405   4.826   0.967   4.310 -1.1112 -1.4628 -0.6020
  507MOL0     H68406   4.654   0.677   4.351  0.1840  0.5553  0.1084
  507MOL0     H68407   4.539   0.767   4.249 -0.0338  1.2693  0.1270
  507MOL0     H68408   4.716   0.779   4.220  1.2366 -1.8844  0.5622
  507MOL0     H68409   4.276   0.779   4.725 -2.9224  1.4023  5.3834
  507MOL0     H68410   4.100   0.654   4.805  1.9826 -0.2610 -0.2413
  507MOL0     H68411   3.661   0.692   4.650  1.5321  1.8991  2.8983
  507MOL0     H68412   3.728   0.580   4.535 -2.5381  3.0466 -0.7485
  507MOL0     H68413   3.580   0.452   4.646  1.2690  0.3173 -2.2674
  507MOL0     H68414   3.717   0.401   4.727  0.2565 -0.1063 -0.5182
  507MOL0     H68415   3.673   0.562   4.923  1.2485  0.1228 -1.9115
  507MOL0     H68416   3.556   0.436   4.892 -1.6689  0.2671  1.1104
  507MOL0     H68417   3.518   0.730   4.831  1.5432 -0.0295  1.0795
  507MOL0     H68418   3.419   0.613   4.755 -0.6317  1.8632 -0.6291
  507MOL0     H68419   3.344   0.705   4.997 -0.7785  0.2439 -0.8329
  507MOL0     H68420   3.457   0.582   5.051  1.0895 -1.1548 -1.0997
  507MOL0     H68421   3.211   0.542   4.871 -0.5827  0.0303  1.5956
  507MOL0     H68422   3.303   0.401   4.913 -0.5860 -0.5271  0.2113
  507MOL0     H68423   3.135   0.598   5.052  1.8215  1.6853 -0.2889
  507MOL0     H68424   3.253   0.499   5.160 -0.8671  0.9229  1.3096
  507MOL0     H68425   3.092   0.361   5.180 -2.0415 -1.8514 -0.1837
  507MOL0     H68426   3.136   0.296   5.040 -0.9271 -0.5185  1.0898
  507MOL0     H68427   3.884   0.735   4.443 -0.0278 -1.5298  0.2658
  507MOL0     H68428   4.082   0.864   4.358  0.6911  0.3990 -0.2657
  507MOL0     H68429   4.462   1.059   4.625 -0.6557 -2.2780  0.5911
  507MOL0     H68430   4.644   1.220   4.613 -0.4283  0.0281  0.0826
  507MOL0     H68431   6.203   1.486   5.312 -0.0227  0.2117 -1.4327
  507MOL0     H68432   6.435   1.530   5.324  2.2671 -0.4624  0.3160
  507MOL0     H68433   6.877   1.549   5.642  0.4205  1.2949  0.0816
  507MOL0     H68434   7.110   1.597   5.589 -2.7374 -0.5795  2.1943
  507MOL0     H68435   7.431   1.580   5.401 -1.2507 -0.5200 -0.7076
  507MOL0     H68436   7.314   1.652   5.490  1.4014  1.2434 -0.2745
  507MOL0     H68437   7.291   1.437   5.622  0.5933  1.7927 -0.0157
  507MOL0     H68438   7.457   1.506   5.617 -1.4693  0.0713  2.5159
  507MOL0     H68439   7.433   1.260   5.631 -1.0591  1.0067  1.0122
  507MOL0     H68440   7.519   1.325   5.468 -0.7577  1.1514 -0.1673
  507MOL0     H68441   7.324   1.280   5.340 -0.3781 -0.8156  0.6748
  507MOL0     H68442   7.228   1.239   5.482  0.8613  4.0673  0.3475
  507MOL0     H68443   7.410   0.876   5.474 -0.9189 -0.2782  0.4780
  507MOL0     H68444   7.068   1.400   5.204 -0.0065  4.6347 -1.3505
  507MOL0     H68445   6.849   1.319   5.279 -0.1426  0.9953 -2.6870
  508MOL0     O68446   0.284   9.107   6.115 -0.2947 -0.2021 -0.8932
  508MOL0     C68447   0.386   9.060   6.061  0.4529 -0.7094  0.1784
  508MOL0     O68448   0.433   9.117   5.948  0.0039  0.0536 -0.5158
  508MOL0     C68449   0.363   9.220   5.888 -0.3296 -0.1619  1.0891
  508MOL0     C68450   0.423   9.341   5.877 -0.6754 -0.6783  0.1040
  508MOL0     C68451   0.353   9.449   5.818 -0.2992  0.4140  0.4464
  508MOL0     C68452   0.216   9.432   5.773 -0.5461 -0.3466  0.4464
  508MOL0     O68453   0.151   9.547   5.723  0.4282  0.7847 -0.3531
  508MOL0     C68454   0.020   9.517   5.660  0.4502  0.0629  0.2428
  508MOL0     C68455  -0.039   9.638   5.591 -1.0887  0.5329  0.1103
  508MOL0     C68456  -0.184   9.604   5.545 -0.0342  0.5115 -0.2380
  508MOL0     C68457  -0.249   9.735   5.493 -0.1545 -0.8916  0.5100
  508MOL0     C68458  -0.404   9.716   5.464 -0.1309  0.0394 -0.7890
  508MOL0     C68459  -0.434   9.633   5.348  0.3008  0.3428 -0.0079
  508MOL0     C68460  -0.441   9.727   5.228 -0.1020 -0.0476  0.5722
  508MOL0     C68461  -0.473   9.645   5.109 -0.0093  0.1360 -0.5940
  508MOL0     N68462  -0.606   9.599   5.103  0.3767 -0.2770 -0.3387
  508MOL0     C68463  -0.649   9.470   5.129  0.3364 -0.0789 -0.3255
  508MOL0     C68464  -0.777   9.462   5.070 -0.7516 -0.2378  0.2458
  508MOL0     C68465  -0.860   9.338   5.054  1.5461  0.5818 -0.9138
  508MOL0     C68466  -0.879   9.250   5.181 -0.5010 -0.6086  0.4581
  508MOL0     C68467  -0.949   9.330   5.288 -0.7103  0.3036 -0.0557
  508MOL0     C68468  -1.005   9.239   5.400  0.0882  0.5288  0.1316
  508MOL0     O68469  -1.138   9.258   5.453 -0.3866 -0.1381  0.0444
  508MOL0     C68470  -1.242   9.165   5.434  0.2246 -0.6265  0.8970
  508MOL0     C68471  -1.337   9.153   5.533 -0.2062  0.0866 -0.6087
  508MOL0     C68472  -1.430   9.058   5.533  0.0165 -0.8115 -0.1623
  508MOL0     C68473  -1.507   9.040   5.667 -1.0063  1.5990 -0.6329
  508MOL0     C68474  -1.454   8.984   5.410  0.6097 -0.1011  0.3691
  508MOL0     C68475  -1.563   8.875   5.391  0.4595 -0.7474 -0.8999
  508MOL0     O68476  -1.571   8.819   5.267  0.1225  0.2762  0.1294
  508MOL0     C68477  -1.675   8.757   5.217  1.0954  0.1775 -0.0685
  508MOL0     C68478  -1.788   8.709   5.290 -0.6161  0.9553  0.8700
  508MOL0     C68479  -1.891   8.634   5.225  0.4098  0.7792  0.0752
  508MOL0     C68480  -1.874   8.610   5.081  0.5791 -0.0798 -0.6493
  508MOL0     O68481  -1.963   8.546   5.003  0.5258 -0.6320  0.2339
  508MOL0     C68482  -2.078   8.483   5.056  0.0190 -0.2119  0.0729
  508MOL0     C68483  -2.192   8.587   5.082  0.3492 -0.6728 -0.1027
  508MOL0     C68484  -2.310   8.531   5.153  0.1457 -0.6900  0.0476
  508MOL0     C68485  -2.304   8.505   5.294 -0.6365 -0.2174 -0.1033
  508MOL0     C68486  -2.441   8.480   5.346  0.2756  0.5875 -0.2248
  508MOL0     C68487  -2.449   8.465   5.509 -0.5376 -0.2987  1.1938
  508MOL0     C68488  -2.597   8.460   5.562 -0.2664 -0.6757  0.6736
  508MOL0     C68489  -2.595   8.457   5.717 -0.2590 -0.3235  0.6544
  508MOL0    Cl68490  -2.564   8.626   5.761 -0.0294  0.1664 -0.2654
  508MOL0     C68491  -1.751   8.660   5.015  0.1572  0.8498 -0.3674
  508MOL0     C68492  -1.655   8.732   5.083 -0.8488 -0.8650  0.0221
  508MOL0     O68493  -1.654   8.879   5.471  0.1784  0.6638  0.1927
  508MOL0     C68494  -1.365   9.021   5.298 -0.4478 -0.4307 -0.6940
  508MOL0     C68495  -1.260   9.108   5.308  0.7759  0.8103 -0.6167
  508MOL0     N68496  -0.798   9.585   5.013  0.2080 -0.6591  0.0227
  508MOL0     N68497  -0.696   9.664   5.031  0.1051 -0.4740 -0.3939
  508MOL0     C68498   0.153   9.306   5.789 -0.5181 -0.8759 -0.5165
  508MOL0     C68499   0.230   9.205   5.851 -0.4513 -0.1892  0.2493
  508MOL0     C68500   0.465   8.956   6.128 -0.3816  0.0945  0.5782
  508MOL0     C68501   0.420   8.889   6.240 -0.6318 -0.4346 -0.4606
  508MOL0     C68502   0.488   8.774   6.287  0.4351  0.5554  0.0526
  508MOL0     C68503   0.600   8.725   6.225  0.0880 -0.3610 -0.7570
  508MOL0     O68504   0.656   8.615   6.285  0.5782 -0.5043  0.6769
  508MOL0     C68505   0.799   8.603   6.263  0.7245  0.1126 -0.6084
  508MOL0     C68506   0.868   8.479   6.326  0.1167  0.1676 -0.8687
  508MOL0     C68507   1.021   8.477   6.291 -0.4969  0.3082  0.1709
  508MOL0     C68508   1.081   8.339   6.301  0.5049 -0.9354 -0.3986
  508MOL0     C68509   1.051   8.264   6.423 -0.5028  0.5283 -0.9252
  508MOL0     C68510   1.025   8.184   6.510 -0.3151  0.4698  0.5761
  508MOL0     C68511   0.651   8.800   6.110  0.4144  0.0548 -0.0148
  508MOL0     C68512   0.585   8.917   6.069  0.8912 -0.1840 -0.4997
  508MOL0     H68513   0.525   9.357   5.912 -0.4515 -2.5104  0.4279
  508MOL0     H68514   0.397   9.549   5.814  1.1935 -0.1324  2.0211
  508MOL0     H68515   0.031   9.441   5.582  1.0695  1.4234 -1.0388
  508MOL0     H68516  -0.053   9.482   5.733 -0.1302 -2.3145 -1.3480
  508MOL0     H68517  -0.041   9.719   5.665 -2.0184 -1.3595  2.2735
  508MOL0     H68518   0.015   9.679   5.505 -0.7036  0.8632  0.5035
  508MOL0     H68519  -0.183   9.534   5.461 -0.1084 -0.4136  0.5182
  508MOL0     H68520  -0.246   9.556   5.620 -2.5380  0.1756 -2.3708
  508MOL0     H68521  -0.235   9.810   5.572 -0.4317 -1.1442  0.7970
  508MOL0     H68522  -0.183   9.768   5.411  0.7725 -0.8194  1.2633
  508MOL0     H68523  -0.446   9.667   5.552  0.7186  2.2936  0.9746
  508MOL0     H68524  -0.461   9.809   5.452  1.4221  0.9221 -1.6446
  508MOL0     H68525  -0.355   9.559   5.332  2.4323  1.8042  2.7598
  508MOL0     H68526  -0.532   9.586   5.354 -0.9875  2.9335  0.5751
  508MOL0     H68527  -0.515   9.807   5.244 -2.0477 -1.2528 -1.7861
  508MOL0     H68528  -0.338   9.764   5.225  0.7248 -1.9623  2.3471
  508MOL0     H68529  -0.403   9.564   5.089 -0.0410  0.2010 -0.9804
  508MOL0     H68530  -0.461   9.717   5.026 -0.2714 -1.8042 -2.3962
  508MOL0     H68531  -0.590   9.390   5.174  0.7204  1.4747  2.1104
  508MOL0     H68532  -0.960   9.377   5.031  0.1579 -1.3214  1.3526
  508MOL0     H68533  -0.825   9.285   4.965 -1.0397  2.8936 -3.5149
  508MOL0     H68534  -0.780   9.213   5.211  1.0219  3.4262  1.0392
  508MOL0     H68535  -0.951   9.171   5.158  0.9943 -1.1651 -2.7327
  508MOL0     H68536  -1.038   9.370   5.239 -0.3065  1.8688  0.4439
  508MOL0     H68537  -0.875   9.394   5.337 -0.7688 -0.3532  0.9170
  508MOL0     H68538  -0.936   9.252   5.483  0.9902 -1.3881 -0.2638
  508MOL0     H68539  -1.008   9.132   5.374 -1.1380 -0.0812  2.5124
  508MOL0     H68540  -1.310   9.214   5.618  1.5516  0.0909 -1.1304
  508MOL0     H68541  -1.489   8.950   5.727 -2.3236  2.8584  1.8214
  508MOL0     H68542  -1.474   9.117   5.738  2.0736  0.4970 -0.7193
  508MOL0     H68543  -1.615   9.034   5.650 -1.0370  0.0235 -0.1026
  508MOL0     H68544  -1.787   8.713   5.399 -0.3799 -2.5237  1.0969
  508MOL0     H68545  -1.962   8.583   5.289  1.8275 -0.4108  0.7658
  508MOL0     H68546  -2.116   8.404   4.991 -0.5670 -1.1170  1.4566
  508MOL0     H68547  -2.061   8.422   5.145  0.7792  1.8055  1.3965
  508MOL0     H68548  -2.156   8.675   5.136 -0.8651  0.5874 -1.2670
  508MOL0     H68549  -2.229   8.619   4.985 -1.6003 -1.5756  0.2943
  508MOL0     H68550  -2.333   8.435   5.105  1.5782 -1.2862  0.5007
  508MOL0     H68551  -2.392   8.599   5.126 -1.3751 -2.6394 -0.4734
  508MOL0     H68552  -2.240   8.420   5.323 -0.2800  0.7704  2.2361
  508MOL0     H68553  -2.265   8.596   5.341  1.5621 -0.0805 -2.0221
  508MOL0     H68554  -2.476   8.380   5.319 -0.2907 -0.3426  3.3828
  508MOL0     H68555  -2.511   8.555   5.308  0.4041  1.2378  0.7728
  508MOL0     H68556  -2.393   8.378   5.544 -0.0108  0.6463  2.8282
  508MOL0     H68557  -2.402   8.558   5.544  2.4115 -1.5633  0.8428
  508MOL0     H68558  -2.649   8.381   5.508 -1.7105  2.1690 -2.4861
  508MOL0     H68559  -2.652   8.549   5.528  1.0242 -0.4094 -0.8369
  508MOL0     H68560  -2.523   8.385   5.757 -2.2708 -2.7271  0.2221
  508MOL0     H68561  -2.692   8.422   5.754  0.0243 -1.8484  0.0467
  508MOL0     H68562  -1.740   8.628   4.911 -0.6461 -0.2295 -0.1381
  508MOL0     H68563  -1.558   8.759   5.041 -0.2034  1.9561  2.9366
  508MOL0     H68564  -1.377   8.978   5.199  0.5086  3.1383 -2.5224
  508MOL0     H68565  -1.192   9.124   5.224  0.6342 -4.1120 -2.0287
  508MOL0     H68566   0.049   9.292   5.763 -0.9755  1.4474 -0.0607
  508MOL0     H68567   0.195   9.103   5.864  0.8296 -0.7075 -0.3081
  508MOL0     H68568   0.328   8.907   6.294  0.2218 -0.1283  0.9429
  508MOL0     H68569   0.442   8.719   6.368 -2.2851 -1.2711 -2.4838
  508MOL0     H68570   0.811   8.615   6.155 -2.2481 -1.0803 -1.1526
  508MOL0     H68571   0.845   8.691   6.310 -3.6340  1.7973  1.0880
  508MOL0     H68572   0.822   8.397   6.269  1.8746  0.1843 -2.3760
  508MOL0     H68573   0.847   8.478   6.433  0.2502 -1.0987 -0.8387
  508MOL0     H68574   1.075   8.538   6.364  1.1497  2.3963 -2.5700
  508MOL0     H68575   1.029   8.522   6.191 -1.9365  0.7131  0.2069
  508MOL0     H68576   1.190   8.349   6.291  0.8995 -2.4666  1.6394
  508MOL0     H68577   1.043   8.283   6.215  0.2163 -1.1299 -0.1446
  508MOL0     H68578   1.028   8.105   6.583 -0.0275  0.2483  0.3282
  508MOL0     H68579   0.742   8.781   6.054  1.5960  1.3895  1.3747
  508MOL0     H68580   0.631   8.973   5.987  0.5946  1.1159  0.1925
  509MOL0     O68581  11.025   7.593  10.392 -0.0636  0.6355 -0.0634
  509MOL0     C68582  11.074   7.485  10.372  0.5347  0.4241 -0.3032
  509MOL0     O68583  11.057   7.383  10.457 -0.0793 -0.2091  0.2199
  509MOL0     C68584  10.965   7.407  10.556  0.5431 -0.4545  0.3107
  509MOL0     C68585  10.843   7.341  10.555 -1.1800  0.1907 -0.6280
  509MOL0     C68586  10.742   7.369  10.651 -0.7653  0.7509  0.1662
  509MOL0     C68587  10.782   7.451  10.761 -0.6544 -0.0668  0.3347
  509MOL0     O68588  10.701   7.462  10.870  0.0391  0.0668 -1.1627
  509MOL0     C68589  10.568   7.520  10.862 -0.0748 -0.0128 -0.1247
  509MOL0     C68590  10.564   7.666  10.798 -0.9727  0.0137 -0.1683
  509MOL0     C68591  10.426   7.724  10.812 -0.3699  0.4111 -0.1159
  509MOL0     C68592  10.413   7.804  10.943  0.0143  0.3455  0.0892
  509MOL0     C68593  10.276   7.883  10.946  0.5673  0.6456 -0.0452
  509MOL0     C68594  10.134   7.797  10.962  0.1585 -0.2046 -0.2006
  509MOL0     C68595  10.125   7.718  11.089  0.2739  0.1829 -0.8728
  509MOL0     C68596  10.160   7.791  11.221  0.2309  0.2049 -1.0756
  509MOL0     N68597  10.075   7.740  11.332  0.3333  0.0282 -0.3393
  509MOL0     C68598  10.058   7.612  11.385 -0.3384  0.5997  0.9152
  509MOL0     C68599   9.976   7.622  11.490 -0.4724  0.0987 -0.4133
  509MOL0     C68600   9.926   7.510  11.589  0.2461 -0.2881  0.4929
  509MOL0     C68601  10.017   7.423  11.681 -0.1990  0.0440  0.1986
  509MOL0     C68602   9.949   7.285  11.714 -0.0441 -0.1567 -0.6212
  509MOL0     C68603  10.027   7.203  11.815 -0.7815 -1.0156 -0.5610
  509MOL0     O68604  10.152   7.163  11.759 -0.0488 -0.3418 -0.2436
  509MOL0     C68605  10.182   7.057  11.675 -0.4700 -0.6371  1.5162
  509MOL0     C68606  10.306   7.058  11.623 -0.0289 -1.1953 -0.8372
  509MOL0     C68607  10.353   6.966  11.532  0.2053 -0.3000  0.1863
  509MOL0     C68608  10.494   6.963  11.479  0.9733  0.0595  0.2435
  509MOL0     C68609  10.263   6.864  11.488 -0.5518 -0.2258 -0.4337
  509MOL0     C68610  10.297   6.765  11.383 -0.3004 -0.1685 -1.1959
  509MOL0     O68611  10.335   6.640  11.428 -0.1422 -0.5493  0.0358
  509MOL0     C68612  10.334   6.536  11.342  0.4374 -0.0468  0.2565
  509MOL0     C68613  10.450   6.455  11.331  1.3449  0.7750 -0.1983
  509MOL0     C68614  10.450   6.339  11.252 -0.4715  0.7491 -0.0683
  509MOL0     C68615  10.338   6.287  11.192  0.5504 -0.0604 -0.2642
  509MOL0     O68616  10.344   6.172  11.122 -0.0405 -0.3443 -0.2721
  509MOL0     C68617  10.238   6.073  11.135 -0.0018  0.2518 -0.9281
  509MOL0     C68618  10.279   5.979  11.255  0.0768  0.8505 -0.3296
  509MOL0     C68619  10.197   5.848  11.260  0.0314  0.0465  0.5309
  509MOL0     C68620  10.089   5.850  11.369  0.0166  0.2391 -0.4225
  509MOL0     C68621  10.091   5.726  11.455 -0.6134  0.4591 -1.0224
  509MOL0     C68622   9.974   5.725  11.558 -0.8525 -0.2988  0.0816
  509MOL0     C68623   9.836   5.719  11.498 -0.5584 -0.1116  0.8394
  509MOL0     C68624   9.817   5.603  11.401  1.2357  0.6782  0.5223
  509MOL0    Cl68625   9.880   5.443  11.466 -0.1267  0.1647  0.0207
  509MOL0     C68626  10.217   6.365  11.201  0.3331  0.0036  0.2133
  509MOL0     C68627  10.218   6.494  11.261  0.2692 -0.1248 -0.3308
  509MOL0     O68628  10.272   6.794  11.267  0.1296  0.0888  0.1714
  509MOL0     C68629  10.132   6.872  11.529  0.6047  0.0728 -0.4237
  509MOL0     C68630  10.089   6.965  11.623 -0.6280  0.4663 -0.6011
  509MOL0     N68631   9.963   7.764  11.516  0.6870  0.9260 -0.1781
  509MOL0     N68632  10.009   7.830  11.415  0.1738 -0.0784  0.0765
  509MOL0     C68633  10.909   7.510  10.772 -0.8427 -0.0808  0.4440
  509MOL0     C68634  10.998   7.492  10.660  0.0355 -0.1149 -0.4354
  509MOL0     C68635  11.156   7.462  10.250 -0.6137 -0.5280 -0.5702
  509MOL0     C68636  11.177   7.568  10.161  0.6096  0.4647  0.6167
  509MOL0     C68637  11.259   7.544  10.053 -0.7378 -0.0283 -0.0566
  509MOL0     C68638  11.335   7.426  10.041  0.5058  0.0631 -0.5180
  509MOL0     O68639  11.410   7.404   9.932 -0.8171  0.5277  0.6519
  509MOL0     C68640  11.536   7.338   9.970  0.3240 -0.0382 -0.6807
  509MOL0     C68641  11.658   7.401   9.903  0.4951  0.3528  0.1596
  509MOL0     C68642  11.678   7.338   9.759 -0.4150 -0.2242 -0.0436
  509MOL0     C68643  11.791   7.410   9.684  0.3283 -0.4560 -0.5777
  509MOL0     C68644  11.912   7.325   9.695 -0.1416 -0.2548  0.4609
  509MOL0     C68645  12.005   7.252   9.690 -0.7149  0.6484 -0.3535
  509MOL0     C68646  11.284   7.315  10.114  0.7843 -0.6494 -0.0432
  509MOL0     C68647  11.210   7.337  10.230  0.7710  0.6747  0.1901
  509MOL0     H68648  10.802   7.275  10.479 -5.0874  1.5951  0.0207
  509MOL0     H68649  10.644   7.321  10.654  0.2743 -1.4376  1.8836
  509MOL0     H68650  10.501   7.459  10.801 -0.9418  2.2607 -1.6129
  509MOL0     H68651  10.541   7.533  10.967 -0.3637  1.2693 -0.3393
  509MOL0     H68652  10.630   7.734  10.852  1.0553 -0.4664 -1.9248
  509MOL0     H68653  10.587   7.668  10.692 -2.0362 -1.1254 -0.4458
  509MOL0     H68654  10.414   7.798  10.733  2.4293 -0.0859 -1.1038
  509MOL0     H68655  10.350   7.652  10.778 -0.6008  1.7305 -2.5651
  509MOL0     H68656  10.426   7.738  11.029 -0.7603 -0.3532 -0.3106
  509MOL0     H68657  10.482   7.888  10.945 -1.5167  1.6565  3.2702
  509MOL0     H68658  10.281   7.953  11.030  2.9124  0.2546  0.2268
  509MOL0     H68659  10.276   7.939  10.852  2.0977  2.3169  0.8762
  509MOL0     H68660  10.042   7.856  10.962 -2.6916 -4.1445  1.5337
  509MOL0     H68661  10.122   7.723  10.882 -3.2755 -0.0315 -0.0097
  509MOL0     H68662  10.020   7.687  11.099  0.6491 -0.3030  3.0672
  509MOL0     H68663  10.185   7.629  11.072  0.9941  0.5937 -0.5375
  509MOL0     H68664  10.146   7.899  11.218  1.0550  0.3530 -0.1617
  509MOL0     H68665  10.264   7.774  11.251  0.6879  1.1870 -2.0381
  509MOL0     H68666  10.100   7.520  11.345  0.2812  1.2363  0.0645
  509MOL0     H68667   9.848   7.549  11.655  2.4359  1.8650  1.9822
  509MOL0     H68668   9.872   7.443  11.521  0.1437 -1.4933  1.7259
  509MOL0     H68669  10.049   7.470  11.774  0.1233  0.5578 -0.1689
  509MOL0     H68670  10.113   7.407  11.631 -0.7616  0.0486 -0.9238
  509MOL0     H68671   9.935   7.227  11.622 -0.6801  0.9599 -1.2542
  509MOL0     H68672   9.851   7.302  11.761 -1.5778 -3.0277 -2.4838
  509MOL0     H68673   9.969   7.117  11.851  1.3565 -0.8177  4.0928
  509MOL0     H68674  10.049   7.270  11.898  2.6998 -0.1866 -1.9567
  509MOL0     H68675  10.375   7.137  11.652 -0.8648 -1.4696  2.2966
  509MOL0     H68676  10.560   7.033  11.531  0.8611  1.6158 -1.6019
  509MOL0     H68677  10.546   6.867  11.485 -0.1830 -0.8948 -2.9026
  509MOL0     H68678  10.498   6.990  11.373  0.0236 -1.2614 -0.1564
  509MOL0     H68679  10.537   6.485  11.389 -0.2283  1.9734  1.6267
  509MOL0     H68680  10.537   6.277  11.235 -0.4087  0.1051  2.3498
  509MOL0     H68681  10.144   6.120  11.162  0.1990 -0.4369  1.1634
  509MOL0     H68682  10.243   6.024  11.037 -1.5086  0.1306 -0.9678
  509MOL0     H68683  10.382   5.951  11.231  1.3475  2.5450  2.5104
  509MOL0     H68684  10.280   6.037  11.348  0.9622 -0.2116  0.3530
  509MOL0     H68685  10.256   5.759  11.281 -0.8645 -0.9998 -1.1738
  509MOL0     H68686  10.153   5.824  11.163 -0.4082  3.3499 -0.2240
  509MOL0     H68687  10.093   5.937  11.435  1.3654  0.3566 -0.6299
  509MOL0     H68688   9.997   5.856  11.309  1.8776 -3.4926 -4.1542
  509MOL0     H68689  10.182   5.724  11.516 -1.2702 -0.8419 -0.0410
  509MOL0     H68690  10.084   5.630  11.405 -2.1816  0.0735 -0.1421
  509MOL0     H68691   9.976   5.639  11.626 -0.7763 -0.4282 -0.0829
  509MOL0     H68692   9.988   5.808  11.628 -1.3422  1.2661 -1.6031
  509MOL0     H68693   9.806   5.804  11.437 -1.1272  0.6989  2.2013
  509MOL0     H68694   9.767   5.708  11.582  0.9218  1.4566  2.3340
  509MOL0     H68695   9.871   5.625  11.308  2.3210  1.5368  1.3392
  509MOL0     H68696   9.710   5.602  11.378  1.0448  1.6148  1.3024
  509MOL0     H68697  10.126   6.325  11.157  0.2259 -0.5340  0.9061
  509MOL0     H68698  10.128   6.555  11.260  1.4786  1.7778  0.6005
  509MOL0     H68699  10.061   6.806  11.481  0.5781  0.8740 -1.5276
  509MOL0     H68700   9.987   6.974  11.659 -0.1079 -0.1256  1.0927
  509MOL0     H68701  10.929   7.576  10.856  1.1202  0.6749 -0.5659
  509MOL0     H68702  11.092   7.547  10.664  1.6752 -2.7842  1.0366
  509MOL0     H68703  11.121   7.661  10.156  2.3020  1.5322  0.8290
  509MOL0     H68704  11.266   7.610   9.967 -2.4550 -0.8415 -0.8632
  509MOL0     H68705  11.553   7.355  10.077 -0.1442 -0.4530 -0.5350
  509MOL0     H68706  11.528   7.232   9.945 -2.9841  0.3333 -1.6647
  509MOL0     H68707  11.750   7.370   9.955  0.7736 -0.3642 -0.7377
  509MOL0     H68708  11.651   7.510   9.894 -2.0504  0.0723 -5.3893
  509MOL0     H68709  11.589   7.362   9.700  1.3394  1.3655 -2.2520
  509MOL0     H68710  11.693   7.231   9.776  0.2151  0.1127  1.6782
  509MOL0     H68711  11.794   7.514   9.718 -0.1048 -0.3289 -0.9237
  509MOL0     H68712  11.752   7.422   9.583 -4.6238  0.8204  1.2300
  509MOL0     H68713  12.070   7.167   9.682 -1.8576 -0.2059 -0.8902
  509MOL0     H68714  11.330   7.217  10.100  1.4319 -0.7286  2.2160
  509MOL0     H68715  11.187   7.256  10.298 -0.4089 -0.6173 -1.6635
  510MOL0     O68716   0.460   2.139   4.770 -0.0472  0.1550 -0.6713
  510MOL0     C68717   0.519   2.116   4.666 -0.2245  0.1607 -0.1114
  510MOL0     O68718   0.495   2.184   4.547  0.1464  0.4115  0.1707
  510MOL0     C68719   0.417   2.298   4.555  0.1744  0.3311  0.3678
  510MOL0     C68720   0.468   2.427   4.534  0.2691  1.2450  0.3683
  510MOL0     C68721   0.386   2.534   4.545 -0.1468 -0.9990  0.2550
  510MOL0     C68722   0.245   2.523   4.561 -0.1243 -0.3215 -0.1006
  510MOL0     O68723   0.170   2.630   4.585  0.6138  0.0023 -0.8056
  510MOL0     C68724   0.151   2.716   4.467  0.9108 -0.3368  0.5771
  510MOL0     C68725   0.031   2.660   4.391 -0.0814  0.0735  0.1987
  510MOL0     C68726  -0.107   2.630   4.462 -0.2660 -0.9173 -0.4034
  510MOL0     C68727  -0.224   2.609   4.366  0.9143  0.7483 -0.1951
  510MOL0     C68728  -0.352   2.602   4.447 -0.2607  0.3685  0.7783
  510MOL0     C68729  -0.349   2.509   4.572  0.8336 -0.3722 -0.1907
  510MOL0     C68730  -0.490   2.504   4.640  0.0040  0.5269  1.0127
  510MOL0     C68731  -0.485   2.458   4.784 -0.1943  0.6348  0.3457
  510MOL0     N68732  -0.611   2.463   4.853  0.2177 -0.8598 -0.0959
  510MOL0     C68733  -0.734   2.439   4.797 -0.2053  0.1260 -0.8882
  510MOL0     C68734  -0.819   2.465   4.898  0.7320 -0.9197  0.0293
  510MOL0     C68735  -0.961   2.422   4.897 -0.4601 -0.1190  1.3076
  510MOL0     C68736  -1.033   2.469   4.765 -1.2372 -0.2384 -0.4875
  510MOL0     C68737  -1.172   2.477   4.789  0.8511 -0.3970 -1.0393
  510MOL0     C68738  -1.240   2.562   4.674  0.3754 -0.5905  0.0845
  510MOL0     O68739  -1.289   2.696   4.721  0.4373 -0.4241 -0.5941
  510MOL0     C68740  -1.403   2.719   4.793 -0.0490  0.1366 -0.1058
  510MOL0     C68741  -1.494   2.618   4.815  0.5673 -0.4952 -0.6076
  510MOL0     C68742  -1.620   2.641   4.872  0.6729 -0.2844 -0.7521
  510MOL0     C68743  -1.717   2.525   4.895  0.1375  0.7707 -0.5202
  510MOL0     C68744  -1.653   2.777   4.914 -0.5805 -0.1641 -0.2747
  510MOL0     C68745  -1.776   2.830   4.986 -1.1543  0.1413 -0.0951
  510MOL0     O68746  -1.803   2.962   4.971 -0.3284 -0.0198 -0.0781
  510MOL0     C68747  -1.894   3.014   5.061  0.2632  0.0352 -0.0945
  510MOL0     C68748  -2.031   2.971   5.053 -1.2168  0.5311  0.2154
  510MOL0     C68749  -2.123   3.016   5.143  0.2671  0.1832  0.2309
  510MOL0     C68750  -2.089   3.102   5.252  0.4902  0.4299 -0.3093
  510MOL0     O68751  -2.175   3.133   5.362  0.5465  0.5087  0.2994
  510MOL0     C68752  -2.318   3.096   5.365 -0.0066  0.0847 -0.0462
  510MOL0     C68753  -2.410   3.177   5.260  0.2004  0.9553  0.0468
  510MOL0     C68754  -2.547   3.112   5.253  0.3562  0.5549 -0.3776
  510MOL0     C68755  -2.637   3.189   5.169 -0.6704 -0.5697  0.1743
  510MOL0     C68756  -2.780   3.136   5.163  0.1377  0.8317  1.0551
  510MOL0     C68757  -2.875   3.219   5.078  0.6275 -0.2862  0.4150
  510MOL0     C68758  -3.006   3.141   5.035  0.1653  0.4069  0.0927
  510MOL0     C68759  -3.079   3.231   4.935  0.7254 -0.2639  0.4706
  510MOL0    Cl68760  -3.253   3.179   4.916  0.0079  0.2777  0.7829
  510MOL0     C68761  -1.957   3.146   5.267  0.4507  0.1734  0.9499
  510MOL0     C68762  -1.858   3.100   5.172 -1.4350  0.2191  0.3185
  510MOL0     O68763  -1.846   2.753   5.046  0.3173  0.2131  0.8870
  510MOL0     C68764  -1.550   2.875   4.892  0.4662  0.6167  0.2374
  510MOL0     C68765  -1.436   2.846   4.832 -0.7833  1.2615  0.6275
  510MOL0     N68766  -0.748   2.511   5.014  0.1532 -0.1948  0.6174
  510MOL0     N68767  -0.624   2.509   4.982  0.5559 -0.4030  0.2989
  510MOL0     C68768   0.190   2.394   4.582  0.1178 -0.5804  0.1087
  510MOL0     C68769   0.281   2.285   4.588  0.7292 -0.2978  0.4451
  510MOL0     C68770   0.622   2.013   4.661  0.0071  0.3126 -0.6102
  510MOL0     C68771   0.630   1.910   4.762 -0.3838 -0.1251  0.5392
  510MOL0     C68772   0.739   1.824   4.756 -1.2156  0.0927  0.4309
  510MOL0     C68773   0.832   1.827   4.639  0.2112 -0.1001 -0.7102
  510MOL0     O68774   0.936   1.742   4.619  0.9498 -0.1305  0.9742
  510MOL0     C68775   0.962   1.642   4.721 -0.1620 -0.4068 -0.0280
  510MOL0     C68776   1.080   1.556   4.671  0.3918  0.0310  0.1139
  510MOL0     C68777   1.121   1.437   4.763 -0.4228  0.0006 -0.6224
  510MOL0     C68778   1.187   1.471   4.894  0.3797  0.3005  0.0490
  510MOL0     C68779   1.320   1.535   4.871 -0.2133  0.3783 -0.7488
  510MOL0     C68780   1.432   1.578   4.864  0.1022  0.0927  0.7808
  510MOL0     C68781   0.824   1.933   4.553  0.4455 -0.4283  0.3298
  510MOL0     C68782   0.717   2.019   4.562  0.0921  0.5702 -0.1617
  510MOL0     H68783   0.570   2.435   4.498 -0.0870 -1.7407 -1.6585
  510MOL0     H68784   0.419   2.637   4.539  0.0275 -1.0165  0.8895
  510MOL0     H68785   0.120   2.817   4.498 -1.0220 -0.8745  0.5522
  510MOL0     H68786   0.242   2.715   4.407  0.3158 -0.4665 -0.3472
  510MOL0     H68787   0.004   2.708   4.296 -3.7593  0.6198  1.3455
  510MOL0     H68788   0.060   2.561   4.353 -0.2041 -0.8321  2.3209
  510MOL0     H68789  -0.095   2.538   4.520 -0.6316 -2.2587 -2.3405
  510MOL0     H68790  -0.129   2.717   4.525 -1.6363  0.1691 -2.2432
  510MOL0     H68791  -0.238   2.681   4.285  0.0049  0.2808 -0.4723
  510MOL0     H68792  -0.207   2.512   4.318 -3.3821  0.0935 -0.7426
  510MOL0     H68793  -0.378   2.701   4.488 -2.6268 -0.0163  0.3815
  510MOL0     H68794  -0.440   2.572   4.389  1.2942  0.2961 -1.6910
  510MOL0     H68795  -0.319   2.411   4.533  1.4002 -0.2936  0.0388
  510MOL0     H68796  -0.279   2.543   4.650  0.0914 -1.9546  1.2160
  510MOL0     H68797  -0.535   2.603   4.631  0.0853  0.5623  0.9990
  510MOL0     H68798  -0.553   2.434   4.585  0.4056  2.2209 -1.7575
  510MOL0     H68799  -0.410   2.527   4.825 -1.1173  2.1587 -0.4605
  510MOL0     H68800  -0.447   2.355   4.790  1.0429  1.0968  1.0246
  510MOL0     H68801  -0.756   2.399   4.698  0.1163  3.2099 -2.3259
  510MOL0     H68802  -0.961   2.312   4.898 -2.7117 -0.2516 -0.9708
  510MOL0     H68803  -0.999   2.458   4.993 -0.9224 -3.2025  2.3947
  510MOL0     H68804  -1.001   2.402   4.685  1.8140 -0.0375  0.4491
  510MOL0     H68805  -1.000   2.572   4.748 -0.1335 -0.2330  1.4807
  510MOL0     H68806  -1.192   2.530   4.883 -1.1826 -0.8056 -1.1788
  510MOL0     H68807  -1.215   2.376   4.786 -1.8728  0.6873 -1.9760
  510MOL0     H68808  -1.323   2.520   4.617  0.1326  0.7990 -0.6164
  510MOL0     H68809  -1.165   2.574   4.596  0.6178  1.3416  0.5684
  510MOL0     H68810  -1.462   2.519   4.784  3.4565 -0.2029  1.0876
  510MOL0     H68811  -1.819   2.544   4.860 -0.5900 -2.6472 -0.6425
  510MOL0     H68812  -1.680   2.438   4.839  0.9016  3.0981 -3.9278
  510MOL0     H68813  -1.719   2.511   5.004  2.4563 -1.3228 -0.6308
  510MOL0     H68814  -2.052   2.904   4.970 -0.7697  0.5621  0.0745
  510MOL0     H68815  -2.223   2.978   5.127  1.0404 -1.2925 -1.4667
  510MOL0     H68816  -2.340   2.989   5.370 -0.4669  0.2188  0.9624
  510MOL0     H68817  -2.350   3.127   5.465 -0.6574 -0.2292 -0.1486
  510MOL0     H68818  -2.424   3.283   5.283  0.8316  1.2975 -1.0610
  510MOL0     H68819  -2.366   3.185   5.160 -1.5468 -0.7928 -0.9337
  510MOL0     H68820  -2.590   3.116   5.353 -0.2139  1.9247 -0.6512
  510MOL0     H68821  -2.541   3.010   5.214 -1.1084  0.3578 -0.1209
  510MOL0     H68822  -2.634   3.286   5.219 -2.0716  1.1978 -2.8203
  510MOL0     H68823  -2.594   3.227   5.076  0.8566  2.4149  1.9638
  510MOL0     H68824  -2.827   3.111   5.258 -1.3215  0.8004  0.3531
  510MOL0     H68825  -2.782   3.041   5.108 -0.0988  1.1399  0.5196
  510MOL0     H68826  -2.904   3.306   5.139  3.2028  0.3761  0.8078
  510MOL0     H68827  -2.843   3.266   4.984 -2.8610  0.7595 -0.4100
  510MOL0     H68828  -3.068   3.116   5.122 -2.7340  2.9914 -1.0488
  510MOL0     H68829  -2.966   3.055   4.981 -0.8618  0.4893 -0.8442
  510MOL0     H68830  -3.037   3.256   4.837 -0.6120  1.6466  0.3330
  510MOL0     H68831  -3.094   3.330   4.980  3.3982  1.1748 -1.4517
  510MOL0     H68832  -1.929   3.206   5.354 -1.4289  0.7625  1.1969
  510MOL0     H68833  -1.752   3.122   5.180 -1.1392 -1.7420  3.6613
  510MOL0     H68834  -1.570   2.980   4.910  0.2008  0.7660 -0.8831
  510MOL0     H68835  -1.360   2.918   4.802 -0.4426  0.1314 -1.4056
  510MOL0     H68836   0.082   2.392   4.593 -0.1815 -0.9911 -2.2914
  510MOL0     H68837   0.235   2.190   4.612  0.2926 -0.4186 -0.7797
  510MOL0     H68838   0.555   1.895   4.840 -0.8538  0.7000  0.2646
  510MOL0     H68839   0.753   1.745   4.828 -1.1513  0.9946  1.4292
  510MOL0     H68840   1.001   1.702   4.804  0.7621  1.3388 -1.6418
  510MOL0     H68841   0.875   1.579   4.744 -0.3340 -0.6372 -1.2539
  510MOL0     H68842   1.170   1.613   4.646  2.6892 -2.1800  2.7973
  510MOL0     H68843   1.046   1.508   4.579  0.6701 -0.1585  0.1127
  510MOL0     H68844   1.184   1.369   4.705 -0.6660  3.0609 -5.0314
  510MOL0     H68845   1.037   1.372   4.786  0.7499 -0.7012  2.0647
  510MOL0     H68846   1.189   1.387   4.964  0.0345  0.9536  0.8680
  510MOL0     H68847   1.131   1.548   4.947  2.5765  1.7388  0.4400
  510MOL0     H68848   1.528   1.625   4.857 -0.5581  1.4735  0.5261
  510MOL0     H68849   0.884   1.953   4.465  0.1240 -1.3242 -0.1101
  510MOL0     H68850   0.715   2.096   4.485  0.6832 -0.7273 -1.5254
  511MOL0     O68851  10.041   0.442   2.432  0.4027  0.2211 -1.0614
  511MOL0     C68852  10.104   0.343   2.425 -0.4126  0.7988 -0.8363
  511MOL0     O68853  10.051   0.220   2.429  0.2454 -0.0696  0.1474
  511MOL0     C68854   9.916   0.186   2.446 -0.5549  0.3058  0.6092
  511MOL0     C68855   9.824   0.265   2.510 -0.0661  0.5460  0.1350
  511MOL0     C68856   9.685   0.230   2.512 -0.0722 -0.5797  0.2505
  511MOL0     C68857   9.635   0.121   2.446 -0.4252 -0.1017 -0.2920
  511MOL0     O68858   9.503   0.096   2.446  0.6100 -0.9209  0.1737
  511MOL0     C68859   9.415   0.192   2.481 -0.0745  0.2683 -0.1946
  511MOL0     C68860   9.271   0.132   2.448 -0.6122 -0.4503  0.9184
  511MOL0     C68861   9.149   0.212   2.498  0.2684  0.4824 -0.3678
  511MOL0     C68862   9.021   0.130   2.528  0.0971 -0.2105  0.1015
  511MOL0     C68863   8.961   0.071   2.396 -0.0113 -0.3292  1.1212
  511MOL0     C68864   8.855  -0.024   2.438  0.4331 -0.4215 -0.6337
  511MOL0     C68865   8.723   0.047   2.488  0.1437 -0.8935  0.4571
  511MOL0     C68866   8.596  -0.031   2.473  0.7683  0.2136 -0.7481
  511MOL0     N68867   8.593  -0.116   2.594  0.6075  0.1586  0.5607
  511MOL0     C68868   8.615  -0.251   2.591  0.4132  0.2744 -0.2071
  511MOL0     C68869   8.605  -0.296   2.714 -0.2376  0.4983  0.6189
  511MOL0     C68870   8.618  -0.429   2.778  0.0079  0.5153 -0.0258
  511MOL0     C68871   8.495  -0.517   2.752 -0.0323 -0.0489 -1.1984
  511MOL0     C68872   8.374  -0.477   2.835  1.3570  0.6509  1.1533
  511MOL0     C68873   8.246  -0.545   2.768  0.6328  0.4420  0.4383
  511MOL0     O68874   8.133  -0.460   2.809 -0.3685  0.1184 -0.0745
  511MOL0     C68875   8.006  -0.480   2.774 -0.4835  0.1290 -0.0521
  511MOL0     C68876   7.954  -0.584   2.686  0.3353  0.5761 -0.7218
  511MOL0     C68877   7.813  -0.585   2.660 -1.1886  0.2932 -0.0433
  511MOL0     C68878   7.766  -0.684   2.561 -0.4622  0.7125  1.2154
  511MOL0     C68879   7.732  -0.478   2.715 -0.9187 -0.4975 -0.1975
  511MOL0     C68880   7.584  -0.471   2.696 -0.4721  0.3159  0.2880
  511MOL0     O68881   7.539  -0.347   2.728  0.0671  0.0179 -0.1796
  511MOL0     C68882   7.418  -0.307   2.678  0.4387 -0.6915 -0.6078
  511MOL0     C68883   7.422  -0.207   2.592  0.8465 -0.4928  0.3331
  511MOL0     C68884   7.303  -0.156   2.535 -0.6953 -0.1516 -0.2745
  511MOL0     C68885   7.183  -0.209   2.572  0.1054 -0.4818 -0.2739
  511MOL0     O68886   7.059  -0.152   2.528 -0.3300  0.0659  0.2100
  511MOL0     C68887   7.050  -0.103   2.395 -0.9122 -0.1193  0.1677
  511MOL0     C68888   6.903  -0.105   2.342 -0.1007  0.2336 -0.6123
  511MOL0     C68889   6.900  -0.060   2.193  0.1031  0.1132  0.6684
  511MOL0     C68890   6.757  -0.060   2.124 -0.7280 -0.2102 -0.6446
  511MOL0     C68891   6.786  -0.008   1.983 -0.4321  0.5451  0.4567
  511MOL0     C68892   6.658  -0.038   1.887 -0.5121 -0.3841  0.0782
  511MOL0     C68893   6.613  -0.183   1.882 -0.4114 -0.3878  0.9363
  511MOL0     C68894   6.560  -0.223   1.750  0.2828  0.3464 -0.7465
  511MOL0    Cl68895   6.410  -0.135   1.721  0.0565 -0.0008  0.0409
  511MOL0     C68896   7.184  -0.301   2.683  0.5423 -1.4831  0.1824
  511MOL0     C68897   7.302  -0.354   2.729  0.6822 -0.5877  0.0770
  511MOL0     O68898   7.514  -0.564   2.653 -0.5882 -0.5339  0.4172
  511MOL0     C68899   7.790  -0.380   2.803 -0.0158  0.4452 -0.4715
  511MOL0     C68900   7.929  -0.380   2.824 -0.8204 -1.0763 -0.2154
  511MOL0     N68901   8.566  -0.189   2.795  0.0148  0.4377 -0.6232
  511MOL0     N68902   8.562  -0.085   2.720  0.2170 -0.2660  0.9242
  511MOL0     C68903   9.731   0.038   2.377 -0.0736 -0.0281  0.2356
  511MOL0     C68904   9.868   0.077   2.376  0.6520  0.8517  0.0772
  511MOL0     C68905  10.254   0.353   2.426  0.2880  0.2592  0.6302
  511MOL0     C68906  10.327   0.225   2.416  1.1095 -0.4189 -0.3405
  511MOL0     C68907  10.464   0.228   2.423 -0.0992  0.1322  0.3191
  511MOL0     C68908  10.538   0.341   2.453  0.0761 -0.7783 -0.0943
  511MOL0     O68909  10.680   0.328   2.454 -0.2596 -0.5345  0.7337
  511MOL0     C68910  10.764   0.446   2.451  0.7814 -0.0542 -1.0135
  511MOL0     C68911  10.903   0.386   2.420  0.6115 -0.0439 -0.2928
  511MOL0     C68912  11.020   0.486   2.428 -0.1467 -0.1137 -0.1711
  511MOL0     C68913  11.154   0.427   2.382 -0.0953 -0.7193  0.0965
  511MOL0     C68914  11.164   0.347   2.258  0.5306 -0.3912  0.2100
  511MOL0     C68915  11.179   0.258   2.174  0.0143  0.0951 -0.3126
  511MOL0     C68916  10.466   0.470   2.461  0.7948  0.4181  0.4583
  511MOL0     C68917  10.327   0.475   2.451  0.2658  0.0400  0.0180
  511MOL0     H68918   9.857   0.359   2.551  3.0833  0.2996 -1.5107
  511MOL0     H68919   9.618   0.299   2.563 -1.3498 -0.5917 -1.3150
  511MOL0     H68920   9.428   0.215   2.587  0.3462 -2.3529  0.3988
  511MOL0     H68921   9.427   0.282   2.420  2.6915  1.2282  1.5955
  511MOL0     H68922   9.264   0.107   2.341 -0.3972 -1.7675  1.1966
  511MOL0     H68923   9.276   0.049   2.518  2.0800  1.2645  2.9609
  511MOL0     H68924   9.181   0.250   2.596  0.7692 -0.1048 -0.2954
  511MOL0     H68925   9.125   0.293   2.429 -0.8059 -0.3969 -1.0540
  511MOL0     H68926   9.046   0.053   2.602  0.5766 -0.4815 -0.3385
  511MOL0     H68927   8.948   0.202   2.566 -0.0497 -1.1321  1.6679
  511MOL0     H68928   8.921   0.148   2.329  0.1353 -0.9761  0.2744
  511MOL0     H68929   9.044   0.028   2.339 -0.7988  0.1420 -0.4363
  511MOL0     H68930   8.835  -0.074   2.342  1.9773 -0.3377 -1.0182
  511MOL0     H68931   8.880  -0.109   2.502  0.7983  0.3474  0.2550
  511MOL0     H68932   8.731   0.068   2.595 -0.6588 -3.2821  1.0464
  511MOL0     H68933   8.714   0.141   2.434  0.4122 -0.7326  0.6903
  511MOL0     H68934   8.602  -0.096   2.385  0.0036 -0.2152 -0.4800
  511MOL0     H68935   8.520   0.047   2.461  0.2116 -0.4826 -1.8916
  511MOL0     H68936   8.639  -0.314   2.506  1.1270 -1.1475  0.9920
  511MOL0     H68937   8.701  -0.474   2.724 -0.4625  0.4275 -0.6921
  511MOL0     H68938   8.634  -0.415   2.885 -1.0502  1.7435  0.0032
  511MOL0     H68939   8.519  -0.621   2.776  0.4876 -0.3578 -2.8906
  511MOL0     H68940   8.479  -0.504   2.645 -2.2914 -1.2084 -1.0502
  511MOL0     H68941   8.353  -0.370   2.826  0.9307  0.5207  0.5552
  511MOL0     H68942   8.393  -0.510   2.937  3.0946 -2.2322  0.0014
  511MOL0     H68943   8.242  -0.652   2.793  0.2135 -0.8780 -4.3198
  511MOL0     H68944   8.253  -0.561   2.660 -0.2783  0.0929  0.4162
  511MOL0     H68945   8.022  -0.653   2.638  0.1215  0.6330 -1.1050
  511MOL0     H68946   7.693  -0.633   2.498 -0.4765  1.9146  2.1633
  511MOL0     H68947   7.844  -0.730   2.501 -0.1426  1.3513  1.1368
  511MOL0     H68948   7.705  -0.761   2.610  1.3553 -2.4610 -1.1305
  511MOL0     H68949   7.515  -0.158   2.565  0.6837 -0.3753 -0.0171
  511MOL0     H68950   7.303  -0.077   2.460  1.5814 -2.0212 -2.3951
  511MOL0     H68951   7.090  -0.001   2.404  6.0689 -1.9014 -3.2250
  511MOL0     H68952   7.110  -0.151   2.317 -1.7553 -1.6254  0.4175
  511MOL0     H68953   6.868  -0.208   2.353  0.7155  0.1572  1.9287
  511MOL0     H68954   6.837  -0.046   2.407  0.1739  0.0870 -0.1999
  511MOL0     H68955   6.956  -0.134   2.135  0.7725  1.3715 -0.3274
  511MOL0     H68956   6.941   0.041   2.184 -1.6941  0.6845 -2.3282
  511MOL0     H68957   6.694  -0.149   2.133 -2.9896  1.2815 -1.1118
  511MOL0     H68958   6.697   0.017   2.173 -1.1664  1.0769 -3.0419
  511MOL0     H68959   6.868  -0.064   1.937 -2.8802 -1.4702 -1.7874
  511MOL0     H68960   6.810   0.095   2.012  1.4293  0.0451  0.8241
  511MOL0     H68961   6.582   0.032   1.922  0.5858 -0.4743  2.9197
  511MOL0     H68962   6.680   0.002   1.788 -1.5613 -0.6618 -0.2812
  511MOL0     H68963   6.528  -0.187   1.951 -1.5945  1.4318 -0.3353
  511MOL0     H68964   6.688  -0.248   1.927 -0.1916  0.3946  1.7295
  511MOL0     H68965   6.532  -0.329   1.747  0.0781  0.3858 -4.2497
  511MOL0     H68966   6.643  -0.218   1.678 -0.0586 -3.1320 -1.6002
  511MOL0     H68967   7.085  -0.331   2.717 -0.7117 -1.0310 -2.8060
  511MOL0     H68968   7.290  -0.436   2.798  1.4372 -0.5437  0.2745
  511MOL0     H68969   7.730  -0.305   2.854 -1.2413 -1.7417  1.5659
  511MOL0     H68970   7.971  -0.298   2.881  2.3106 -0.1032 -3.5183
  511MOL0     H68971   9.695  -0.051   2.328  1.7569  1.0102 -3.3302
  511MOL0     H68972   9.935   0.041   2.298  0.3485 -0.2393  0.3007
  511MOL0     H68973  10.278   0.129   2.404  0.5689 -0.3126  0.9458
  511MOL0     H68974  10.523   0.138   2.409  1.1568  0.9053  0.4631
  511MOL0     H68975  10.730   0.508   2.368 -1.7292  0.2233  0.1244
  511MOL0     H68976  10.755   0.486   2.552 -2.1693 -2.1711 -0.2969
  511MOL0     H68977  10.905   0.347   2.318  0.3861 -0.4002 -0.1654
  511MOL0     H68978  10.924   0.295   2.478  0.1748  1.3477  2.1820
  511MOL0     H68979  11.035   0.535   2.525 -0.4707 -1.0266  0.3622
  511MOL0     H68980  10.997   0.565   2.357 -0.6228 -0.8773 -0.8800
  511MOL0     H68981  11.188   0.358   2.459 -3.2527 -1.9107  0.5876
  511MOL0     H68982  11.229   0.506   2.379 -1.6638  0.8006 -0.9076
  511MOL0     H68983  11.204   0.171   2.117  1.5751 -0.8031  1.6325
  511MOL0     H68984  10.520   0.563   2.475  2.4187 -0.2080 -1.2848
  511MOL0     H68985  10.274   0.569   2.459 -1.6585 -0.7015 -2.5415
  512MOL0     O68986   5.822   4.936   4.527  0.1049  0.1988 -0.2919
  512MOL0     C68987   5.842   4.914   4.638  0.5634 -0.5130 -0.5337
  512MOL0     O68988   5.747   4.886   4.737  0.2789 -0.0847 -0.2973
  512MOL0     C68989   5.620   4.906   4.698  0.7818 -0.3736  0.7488
  512MOL0     C68990   5.556   5.025   4.731 -0.2125  0.0507 -0.0812
  512MOL0     C68991   5.429   5.050   4.682 -0.7517 -0.0078  0.1292
  512MOL0     C68992   5.366   4.965   4.589 -0.5941  0.5336 -1.1305
  512MOL0     O68993   5.248   5.006   4.549  0.5356  0.3290 -0.6576
  512MOL0     C68994   5.197   4.995   4.417  0.6445 -0.5276 -0.4828
  512MOL0     C68995   5.066   4.920   4.421 -0.4481  0.3684 -0.6949
  512MOL0     C68996   4.950   4.972   4.505 -0.0754 -0.5384 -0.4532
  512MOL0     C68997   4.942   4.906   4.646  0.5133 -0.2867  0.3485
  512MOL0     C68998   4.820   4.955   4.728  0.1327  0.5474 -0.2049
  512MOL0     C68999   4.725   4.842   4.718 -0.0472  0.0455  0.4064
  512MOL0     C69000   4.582   4.880   4.758 -0.3549 -0.3435 -0.6803
  512MOL0     C69001   4.518   4.960   4.650  0.0950 -0.3917  0.9078
  512MOL0     N69002   4.381   4.995   4.679  0.0673 -0.5940 -0.4486
  512MOL0     C69003   4.328   5.055   4.788 -0.2201 -0.4524 -0.5632
  512MOL0     C69004   4.197   5.069   4.764  0.2817  1.1157 -0.0325
  512MOL0     C69005   4.105   5.135   4.863  0.0141  0.1449 -0.0937
  512MOL0     C69006   4.089   5.286   4.844 -0.0465 -0.1888  0.1534
  512MOL0     C69007   4.011   5.318   4.709 -0.8735 -0.5557 -0.4469
  512MOL0     C69008   3.940   5.449   4.717  0.5700  0.7324  0.4801
  512MOL0     O69009   3.929   5.516   4.592 -0.1414 -0.5479 -0.5833
  512MOL0     C69010   3.848   5.463   4.490 -0.2632 -0.6473  0.4030
  512MOL0     C69011   3.843   5.544   4.376 -0.6743  0.1652 -0.1834
  512MOL0     C69012   3.771   5.509   4.263 -0.0196  0.5555 -0.5231
  512MOL0     C69013   3.771   5.605   4.150 -0.5132 -0.1392 -0.4119
  512MOL0     C69014   3.690   5.389   4.266 -0.9514  0.3318 -0.6283
  512MOL0     C69015   3.603   5.343   4.149 -0.3005  0.4471 -0.0441
  512MOL0     O69016   3.532   5.231   4.174 -0.7731 -0.5395 -0.0514
  512MOL0     C69017   3.422   5.200   4.089 -0.1591  0.9645 -0.1214
  512MOL0     C69018   3.444   5.089   4.002  1.1125 -0.4864  0.7735
  512MOL0     C69019   3.341   5.050   3.924  1.7641 -0.0647 -0.2001
  512MOL0     C69020   3.212   5.101   3.936 -0.4469 -0.5279 -0.6414
  512MOL0     O69021   3.115   5.048   3.861 -0.1810  0.1007 -0.4819
  512MOL0     C69022   3.007   5.129   3.808 -0.8525  0.5794 -0.4781
  512MOL0     C69023   2.908   5.028   3.756  0.0542 -0.5628 -1.0208
  512MOL0     C69024   2.782   5.109   3.704  0.3105 -0.3754 -0.2741
  512MOL0     C69025   2.654   5.021   3.687 -1.0296  0.3862  0.7298
  512MOL0     C69026   2.547   5.109   3.617 -0.6204 -0.2872 -0.5666
  512MOL0     C69027   2.431   5.021   3.576 -0.1403 -0.0357  0.4732
  512MOL0     C69028   2.315   5.116   3.538 -0.2100 -0.1881 -0.1704
  512MOL0     C69029   2.234   5.167   3.663 -0.3642  0.2346  0.3400
  512MOL0    Cl69030   2.080   5.246   3.613 -0.4111  0.1280 -0.3343
  512MOL0     C69031   3.186   5.201   4.030 -0.2213 -0.6119 -0.4993
  512MOL0     C69032   3.291   5.261   4.100 -0.8092 -0.2364 -0.5742
  512MOL0     O69033   3.610   5.399   4.036  0.0803 -0.0809 -0.1471
  512MOL0     C69034   3.682   5.320   4.394 -0.4087  0.1310  0.2977
  512MOL0     C69035   3.759   5.357   4.503  0.1527 -0.2196  0.0530
  512MOL0     N69036   4.163   5.011   4.646  0.3194  0.7666  0.4482
  512MOL0     N69037   4.272   4.967   4.598 -0.1173 -0.8298  0.1195
  512MOL0     C69038   5.434   4.848   4.553  0.6036 -0.0045  0.1456
  512MOL0     C69039   5.559   4.826   4.606  0.6998 -0.0805  0.1926
  512MOL0     C69040   5.989   4.906   4.673  0.9104  0.1796  0.3924
  512MOL0     C69041   6.083   4.968   4.591 -0.3655  0.9767  0.9427
  512MOL0     C69042   6.220   4.942   4.608  0.4277 -0.3975 -0.4046
  512MOL0     C69043   6.266   4.877   4.723 -0.8592 -0.4762  0.7166
  512MOL0     O69044   6.400   4.862   4.736  0.2645 -0.0462 -0.0002
  512MOL0     C69045   6.455   4.765   4.823 -0.2133 -0.4190  0.4816
  512MOL0     C69046   6.607   4.740   4.818  0.5355 -0.2017 -0.1618
  512MOL0     C69047   6.694   4.869   4.832 -0.3063  0.0375  0.0401
  512MOL0     C69048   6.846   4.838   4.814  0.2212 -0.1662  0.0952
  512MOL0     C69049   6.944   4.937   4.840  0.0267  0.3294 -0.2063
  512MOL0     C69050   7.025   5.023   4.884 -0.0807  0.8477  0.3124
  512MOL0     C69051   6.170   4.821   4.808  0.0247  0.3868 -0.1698
  512MOL0     C69052   6.031   4.845   4.785 -0.4475  0.8786  0.3453
  512MOL0     H69053   5.604   5.096   4.798  0.6472  1.6882 -2.3015
  512MOL0     H69054   5.366   5.125   4.729 -2.7048 -1.4236 -0.0934
  512MOL0     H69055   5.170   5.090   4.371 -0.5531 -0.2222  0.7889
  512MOL0     H69056   5.268   4.939   4.355  1.9516 -1.0601  1.4130
  512MOL0     H69057   5.029   4.899   4.321  0.4308 -0.6811 -0.8056
  512MOL0     H69058   5.101   4.828   4.468  1.9084  1.6206  0.1535
  512MOL0     H69059   4.960   5.078   4.530 -1.1346 -1.1258  2.9267
  512MOL0     H69060   4.858   4.968   4.446 -0.1155  2.9607 -0.8402
  512MOL0     H69061   4.942   4.798   4.627  2.5148  0.1025 -2.2889
  512MOL0     H69062   5.026   4.943   4.705  0.7674 -0.2583 -0.0332
  512MOL0     H69063   4.853   4.971   4.831  1.2559  1.9012 -0.7399
  512MOL0     H69064   4.783   5.053   4.697  1.7150  1.6893  1.3216
  512MOL0     H69065   4.709   4.807   4.616 -0.2310  4.2855 -1.2142
  512MOL0     H69066   4.752   4.754   4.777 -1.9275  0.1801  1.5898
  512MOL0     H69067   4.532   4.784   4.772  2.3542 -1.7584  0.0399
  512MOL0     H69068   4.584   4.940   4.849  1.8397 -1.4317  0.0614
  512MOL0     H69069   4.521   4.911   4.552 -0.7311 -0.5065  0.9349
  512MOL0     H69070   4.573   5.055   4.646 -0.4712 -0.0923 -0.4166
  512MOL0     H69071   4.376   5.085   4.880 -1.7592 -0.0926  0.1458
  512MOL0     H69072   4.002   5.099   4.857 -0.5483  0.4830  4.3157
  512MOL0     H69073   4.137   5.105   4.963  2.4431 -1.5066 -1.2962
  512MOL0     H69074   4.183   5.342   4.841 -1.1881  1.8493  0.1590
  512MOL0     H69075   4.036   5.322   4.932  2.7170  1.2001  1.3579
  512MOL0     H69076   3.947   5.240   4.668 -0.6943 -1.5767  1.1103
  512MOL0     H69077   4.079   5.321   4.623 -1.6237 -3.2201 -1.2206
  512MOL0     H69078   4.001   5.514   4.780 -1.9233  2.8295  0.8568
  512MOL0     H69079   3.845   5.439   4.770 -1.1106 -0.9503 -2.5757
  512MOL0     H69080   3.892   5.641   4.371  0.7466 -0.5291 -0.2224
  512MOL0     H69081   3.804   5.554   4.058  2.1658  1.1762 -0.2778
  512MOL0     H69082   3.679   5.661   4.139 -0.3832  0.7373  2.2949
  512MOL0     H69083   3.839   5.689   4.168 -2.5962  0.7998  4.5475
  512MOL0     H69084   3.540   5.039   3.992  1.6350  0.8632 -3.2859
  512MOL0     H69085   3.357   4.963   3.861 -0.5476 -0.7753  0.1087
  512MOL0     H69086   2.965   5.188   3.890  1.5373  0.8854  0.6198
  512MOL0     H69087   3.040   5.200   3.732 -1.5475  1.9626  0.4635
  512MOL0     H69088   2.962   4.982   3.673  0.0228 -0.4447 -1.1072
  512MOL0     H69089   2.879   4.952   3.829  2.0574  0.6905  1.2139
  512MOL0     H69090   2.801   5.159   3.609  1.1869  0.2078  0.1977
  512MOL0     H69091   2.754   5.187   3.774  1.9857  1.9082 -2.0018
  512MOL0     H69092   2.684   4.928   3.638  0.3629  0.4030  1.4933
  512MOL0     H69093   2.604   4.978   3.775 -2.7969  0.8805  0.0204
  512MOL0     H69094   2.589   5.149   3.524  0.4859 -1.0569 -0.4132
  512MOL0     H69095   2.520   5.192   3.683 -0.4358 -0.8136  0.1716
  512MOL0     H69096   2.467   4.956   3.495  0.3879  2.1912 -1.1877
  512MOL0     H69097   2.396   4.973   3.668 -3.4934  3.8708  1.5605
  512MOL0     H69098   2.244   5.062   3.475 -1.7667  1.6646 -0.1121
  512MOL0     H69099   2.350   5.204   3.483  2.7939 -0.2114  1.5326
  512MOL0     H69100   2.291   5.228   3.734  2.8689 -1.3342 -0.7000
  512MOL0     H69101   2.219   5.073   3.717  1.6550 -0.8500 -0.8511
  512MOL0     H69102   3.093   5.252   4.053 -0.1768 -1.3335  1.5105
  512MOL0     H69103   3.281   5.340   4.173 -0.2559 -1.9293  1.4598
  512MOL0     H69104   3.623   5.230   4.402  1.1148 -1.0291 -0.8242
  512MOL0     H69105   3.744   5.309   4.599 -0.1717  2.1486  1.2493
  512MOL0     H69106   5.388   4.778   4.484  2.1817 -2.4149  1.4055
  512MOL0     H69107   5.609   4.736   4.572  0.3751  0.3158 -1.4231
  512MOL0     H69108   6.055   5.014   4.497  0.9254 -0.5360 -0.2424
  512MOL0     H69109   6.292   4.981   4.537  0.4733 -1.1152 -0.7670
  512MOL0     H69110   6.438   4.809   4.922 -1.7099  2.7334 -1.0113
  512MOL0     H69111   6.401   4.673   4.797  0.8773 -0.9652  0.0864
  512MOL0     H69112   6.634   4.701   4.720 -1.8792 -2.3772 -0.0716
  512MOL0     H69113   6.640   4.669   4.894 -2.8236 -1.0679  0.6495
  512MOL0     H69114   6.703   4.912   4.933  0.2781  1.1703 -0.4803
  512MOL0     H69115   6.661   4.940   4.756 -0.4885  0.0235  0.1044
  512MOL0     H69116   6.849   4.822   4.706  3.3507  1.3936 -0.1327
  512MOL0     H69117   6.869   4.742   4.861  0.7857 -0.5656 -0.9824
  512MOL0     H69118   7.096   5.097   4.916  0.5093  1.4731 -2.2020
  512MOL0     H69119   6.195   4.772   4.902  0.7988  0.1040 -0.5139
  512MOL0     H69120   5.957   4.816   4.859 -0.7862 -0.4780 -0.4846
  513MOL0     O69121   0.304   7.100  10.248  0.4773  0.2236  0.4704
  513MOL0     C69122   0.274   6.985  10.214 -0.7432 -0.6009  0.9078
  513MOL0     O69123   0.175   6.909  10.268 -0.6310 -1.2404 -0.2424
  513MOL0     C69124   0.083   6.955  10.356  0.9873 -1.0509  0.1979
  513MOL0     C69125   0.020   6.862  10.437  0.2966  0.9709 -0.3458
  513MOL0     C69126  -0.051   6.896  10.551  0.0009 -0.2670  0.0887
  513MOL0     C69127  -0.087   7.029  10.570 -0.3317 -0.1643 -0.1124
  513MOL0     O69128  -0.178   7.055  10.675 -1.0372  1.0969 -0.2357
  513MOL0     C69129  -0.245   7.177  10.677 -0.3043  0.0041  0.0463
  513MOL0     C69130  -0.278   7.187  10.828  0.3434  0.7065 -1.2294
  513MOL0     C69131  -0.373   7.069  10.886  0.0255 -0.3305  0.9729
  513MOL0     C69132  -0.404   7.088  11.033 -0.4691  0.1796  0.8953
  513MOL0     C69133  -0.527   7.186  11.053 -0.2688 -0.1335  0.0704
  513MOL0     C69134  -0.582   7.192  11.197  0.2128 -0.8151  0.2835
  513MOL0     C69135  -0.714   7.263  11.233 -1.0380  0.3533  0.1433
  513MOL0     C69136  -0.826   7.229  11.134  0.3998 -0.0205  0.0873
  513MOL0     N69137  -0.960   7.268  11.180  0.6169  0.1048  0.2897
  513MOL0     C69138  -1.062   7.181  11.224 -0.1431  0.2122  1.0033
  513MOL0     C69139  -1.158   7.256  11.274  0.0280 -0.0673 -0.2399
  513MOL0     C69140  -1.291   7.211  11.341  0.6812 -0.0145 -0.1750
  513MOL0     C69141  -1.411   7.228  11.246  0.8074  0.0196 -0.0904
  513MOL0     C69142  -1.553   7.166  11.293  0.1626  0.1245  0.4895
  513MOL0     C69143  -1.538   7.011  11.318  0.1145 -0.0404  0.0876
  513MOL0     O69144  -1.509   6.925  11.207  0.0611  0.1564 -0.7890
  513MOL0     C69145  -1.547   6.793  11.222 -0.3788  0.4507  0.0840
  513MOL0     C69146  -1.570   6.734  11.344 -1.0429 -0.1653 -0.1306
  513MOL0     C69147  -1.579   6.593  11.352 -0.0824 -0.3890 -0.3881
  513MOL0     C69148  -1.624   6.540  11.488 -0.6012  0.6036 -1.0468
  513MOL0     C69149  -1.556   6.505  11.241  0.0764 -0.4503 -0.1869
  513MOL0     C69150  -1.553   6.352  11.227 -0.0565 -0.1152  0.1065
  513MOL0     O69151  -1.571   6.286  11.106  0.7879 -0.2954  0.5222
  513MOL0     C69152  -1.585   6.153  11.121  0.4393 -0.2158 -0.0499
  513MOL0     C69153  -1.493   6.071  11.061 -0.6906  0.3162 -0.4439
  513MOL0     C69154  -1.506   5.930  11.056  0.3209 -0.2045 -0.2185
  513MOL0     C69155  -1.611   5.871  11.123 -0.3530 -0.2137  0.5866
  513MOL0     O69156  -1.634   5.737  11.131  0.0442  0.0397  0.8841
  513MOL0     C69157  -1.580   5.654  11.028  0.4191 -0.5941 -0.6583
  513MOL0     C69158  -1.667   5.509  11.022 -0.2700 -0.7187 -0.2086
  513MOL0     C69159  -1.826   5.538  11.002  0.7564 -0.8314 -0.2893
  513MOL0     C69160  -1.905   5.405  11.008  0.5349  0.7274 -0.3264
  513MOL0     C69161  -2.051   5.416  10.979  0.0353 -0.2896  0.0749
  513MOL0     C69162  -2.132   5.282  10.965  0.0944 -1.4119  0.2514
  513MOL0     C69163  -2.273   5.303  10.915 -0.7290  0.5948  0.7386
  513MOL0     C69164  -2.318   5.163  10.869  0.0815 -0.0343 -0.6931
  513MOL0    Cl69165  -2.232   5.110  10.721  0.3462 -0.4657 -0.5000
  513MOL0     C69166  -1.702   5.955  11.196 -0.7496  0.5712  0.2143
  513MOL0     C69167  -1.690   6.090  11.188 -0.4667 -0.3198 -0.1448
  513MOL0     O69168  -1.524   6.294  11.328  0.1223  0.2381 -0.8592
  513MOL0     C69169  -1.538   6.571  11.121 -0.6917 -0.0509 -0.0392
  513MOL0     C69170  -1.532   6.713  11.109 -0.4726 -0.3826 -0.4879
  513MOL0     N69171  -1.106   7.385  11.270  0.3707  0.2434  0.4259
  513MOL0     N69172  -0.991   7.395  11.213  0.9744  0.3047 -0.3575
  513MOL0     C69173  -0.042   7.127  10.478 -0.2880  0.1278  0.4820
  513MOL0     C69174   0.036   7.089  10.367 -0.5333 -0.0046 -0.8546
  513MOL0     C69175   0.350   6.922  10.104 -0.1959  0.1230  0.2426
  513MOL0     C69176   0.421   7.003  10.010 -0.8082  0.3703  0.2521
  513MOL0     C69177   0.475   6.941   9.897 -0.1058  0.1260  0.9020
  513MOL0     C69178   0.457   6.802   9.873  0.1710  0.0190 -0.0050
  513MOL0     O69179   0.502   6.730   9.766  0.0683  0.5607 -0.4376
  513MOL0     C69180   0.429   6.757   9.649 -0.2657 -0.2065 -0.5316
  513MOL0     C69181   0.535   6.813   9.552 -0.1692  0.0329  0.1919
  513MOL0     C69182   0.645   6.705   9.521  0.4216  0.5228 -0.0774
  513MOL0     C69183   0.784   6.749   9.515  0.1508 -0.1231  0.9115
  513MOL0     C69184   0.801   6.826   9.385 -0.3892  0.5953 -0.1206
  513MOL0     C69185   0.826   6.883   9.284  0.2856 -0.9539 -0.9061
  513MOL0     C69186   0.393   6.723   9.968  0.2986 -0.4550 -0.2996
  513MOL0     C69187   0.345   6.781  10.086  0.0597  0.3091  0.0055
  513MOL0     H69188   0.052   6.758  10.444  0.3113  0.8923 -1.4550
  513MOL0     H69189  -0.103   6.822  10.611 -0.5490  2.2838  2.9947
  513MOL0     H69190  -0.180   7.264  10.670  1.6126 -1.2804  1.1615
  513MOL0     H69191  -0.331   7.171  10.608  1.1597 -1.0870 -1.7898
  513MOL0     H69192  -0.175   7.188  10.863 -0.1058  2.0397  0.1513
  513MOL0     H69193  -0.339   7.274  10.856  2.6065  0.8448  4.4420
  513MOL0     H69194  -0.464   7.078  10.827 -0.1112 -0.2910  1.1897
  513MOL0     H69195  -0.334   6.968  10.870 -0.6502 -0.6281  1.1642
  513MOL0     H69196  -0.425   6.993  11.083  1.2865 -0.8912 -0.2828
  513MOL0     H69197  -0.321   7.135  11.087 -0.9203  1.0981  0.8100
  513MOL0     H69198  -0.514   7.292  11.027 -1.7990  0.3584  1.1432
  513MOL0     H69199  -0.606   7.147  10.988  1.5186 -1.4050 -1.4311
  513MOL0     H69200  -0.595   7.092  11.241 -1.3131 -0.3881  0.9005
  513MOL0     H69201  -0.508   7.244  11.259 -1.6929  2.6265 -0.0498
  513MOL0     H69202  -0.750   7.217  11.325 -1.8038 -0.0453 -0.3454
  513MOL0     H69203  -0.704   7.370  11.254  0.4855 -0.4514  4.7939
  513MOL0     H69204  -0.819   7.120  11.126  0.7347 -0.2996  3.0703
  513MOL0     H69205  -0.821   7.285  11.040  1.2104  4.0415  2.3180
  513MOL0     H69206  -1.073   7.073  11.211  2.1883  0.2947 -3.5740
  513MOL0     H69207  -1.285   7.107  11.373  2.0759  0.4612  1.2340
  513MOL0     H69208  -1.307   7.262  11.437  1.3329 -1.3594  0.6651
  513MOL0     H69209  -1.385   7.177  11.153  2.0574 -3.7842  2.1005
  513MOL0     H69210  -1.428   7.335  11.226 -1.6676 -0.0826  1.1736
  513MOL0     H69211  -1.622   7.176  11.209  3.1668  2.3340 -1.9829
  513MOL0     H69212  -1.598   7.210  11.382 -3.5578 -0.0933 -1.1200
  513MOL0     H69213  -1.637   6.986  11.358  0.8072 -0.0235  1.8757
  513MOL0     H69214  -1.473   6.993  11.403  0.0888 -1.0232 -0.0941
  513MOL0     H69215  -1.578   6.783  11.441  2.3754  0.5836 -0.1074
  513MOL0     H69216  -1.561   6.569  11.571 -1.1298  1.7878 -1.0411
  513MOL0     H69217  -1.730   6.566  11.496 -0.8469 -0.0959 -1.7929
  513MOL0     H69218  -1.619   6.431  11.494 -3.0357  0.5115  0.6075
  513MOL0     H69219  -1.413   6.108  10.998  0.3256  0.3093  0.8015
  513MOL0     H69220  -1.428   5.862  11.022  0.8400 -1.4470  3.1262
  513MOL0     H69221  -1.595   5.710  10.935 -0.3250  0.4328  0.0562
  513MOL0     H69222  -1.474   5.634  11.047  0.8721  2.7021  0.9638
  513MOL0     H69223  -1.629   5.440  10.947  0.7982  0.6052 -0.9234
  513MOL0     H69224  -1.654   5.473  11.125  1.0550  0.3949  0.0352
  513MOL0     H69225  -1.837   5.572  10.899  2.2950  2.0414  0.3814
  513MOL0     H69226  -1.860   5.612  11.076  1.9334 -0.1623 -0.3848
  513MOL0     H69227  -1.869   5.334  10.934  0.8409  2.4841 -1.9324
  513MOL0     H69228  -1.878   5.358  11.103  1.8735 -1.0380 -1.5157
  513MOL0     H69229  -2.050   5.474  10.887 -2.0889 -0.2983 -0.0073
  513MOL0     H69230  -2.095   5.491  11.046  2.2548  2.7550 -1.6494
  513MOL0     H69231  -2.072   5.224  10.894 -0.4073 -1.5569 -0.0603
  513MOL0     H69232  -2.117   5.241  11.066 -0.8170  1.9260  1.8832
  513MOL0     H69233  -2.279   5.372  10.830  0.4592  0.3118  0.4157
  513MOL0     H69234  -2.343   5.338  10.992 -2.1231  0.0207 -0.2246
  513MOL0     H69235  -2.425   5.174  10.850  0.0399  0.9989  0.0343
  513MOL0     H69236  -2.315   5.090  10.951 -1.8275  1.5819  0.9104
  513MOL0     H69237  -1.776   5.906  11.257  0.6255 -3.6510 -1.1838
  513MOL0     H69238  -1.764   6.152  11.238 -0.1323 -0.6802  0.8357
  513MOL0     H69239  -1.512   6.506  11.038  0.5065 -0.8505  0.9232
  513MOL0     H69240  -1.526   6.763  11.013  1.6748  5.0442  1.9979
  513MOL0     H69241  -0.071   7.232  10.477 -0.6552  0.0278 -0.0089
  513MOL0     H69242   0.086   7.166  10.310  1.0929 -0.1625  0.2806
  513MOL0     H69243   0.438   7.109  10.019 -1.8790  0.7148 -1.3187
  513MOL0     H69244   0.523   7.000   9.820 -1.2867  0.1780  0.1688
  513MOL0     H69245   0.386   6.662   9.619  2.3799 -1.6777  0.0066
  513MOL0     H69246   0.350   6.833   9.658 -0.6491 -0.6984  0.3304
  513MOL0     H69247   0.577   6.896   9.610 -3.2771  0.7527  1.6370
  513MOL0     H69248   0.499   6.841   9.453  2.5946  1.5199 -0.5032
  513MOL0     H69249   0.618   6.667   9.422 -1.5692  1.5571  0.0138
  513MOL0     H69250   0.633   6.623   9.592 -3.2059 -0.1671 -1.2502
  513MOL0     H69251   0.846   6.659   9.516 -2.4575 -2.0892  2.5338
  513MOL0     H69252   0.799   6.806   9.607 -1.8479 -1.5256  2.2114
  513MOL0     H69253   0.864   6.943   9.204  2.3575 -0.4558  0.3630
  513MOL0     H69254   0.391   6.615   9.965 -0.8286 -0.4264 -1.3033
  513MOL0     H69255   0.311   6.711  10.162  3.1226 -1.3417  0.0076
  514MOL0     O69256   0.903   2.374   6.822  0.1444 -0.7618 -0.3603
  514MOL0     C69257   0.893   2.498   6.839  0.5878 -0.3152 -0.0460
  514MOL0     O69258   0.802   2.580   6.782  0.7578  0.6042  0.9903
  514MOL0     C69259   0.709   2.538   6.693 -0.3970  0.0111 -0.4259
  514MOL0     C69260   0.721   2.431   6.597  0.3609  0.4466  0.2177
  514MOL0     C69261   0.622   2.404   6.501 -0.1404  0.0784  0.2489
  514MOL0     C69262   0.500   2.468   6.517  1.0220 -0.9891  0.2530
  514MOL0     O69263   0.385   2.452   6.442 -0.7943  0.3633  0.4184
  514MOL0     C69264   0.400   2.398   6.310 -0.2912 -0.0831  0.3588
  514MOL0     C69265   0.274   2.415   6.224 -0.0910  1.1146  0.2020
  514MOL0     C69266   0.241   2.558   6.192 -0.3012  0.1532  0.3255
  514MOL0     C69267   0.114   2.563   6.115 -0.4828  0.5274  0.3325
  514MOL0     C69268   0.072   2.711   6.118 -0.2268  0.1497  0.2411
  514MOL0     C69269  -0.063   2.722   6.054  0.1920  0.4113  0.2368
  514MOL0     C69270  -0.074   2.767   5.909 -0.7483  0.9911  0.2236
  514MOL0     C69271  -0.084   2.648   5.808 -0.3533  0.4333 -0.1814
  514MOL0     N69272   0.032   2.566   5.776  0.6350 -0.0695  0.8541
  514MOL0     C69273   0.147   2.614   5.716 -0.0282  0.1089 -0.2553
  514MOL0     C69274   0.233   2.506   5.720 -0.3394  0.4541  0.2362
  514MOL0     C69275   0.375   2.496   5.683  0.9656 -0.1518  0.1583
  514MOL0     C69276   0.473   2.570   5.787 -0.1711  1.1181  0.0900
  514MOL0     C69277   0.624   2.557   5.761  0.6503 -0.2098  0.0832
  514MOL0     C69278   0.670   2.406   5.779 -0.2774 -0.5023 -0.9931
  514MOL0     O69279   0.669   2.355   5.915  0.6511  0.3772 -0.1677
  514MOL0     C69280   0.774   2.381   6.003  0.5740  0.5101  0.3314
  514MOL0     C69281   0.880   2.465   5.979 -0.8363  0.1854  0.3722
  514MOL0     C69282   0.987   2.488   6.069  0.0830  0.4234 -0.5576
  514MOL0     C69283   1.082   2.595   6.026  0.3849  0.9432  0.0348
  514MOL0     C69284   0.990   2.411   6.190  0.8660  0.1106  0.3120
  514MOL0     C69285   1.099   2.429   6.291  0.3312  0.3820 -0.4015
  514MOL0     O69286   1.091   2.349   6.401 -1.1489  0.8156  0.3672
  514MOL0     C69287   1.194   2.374   6.489  0.8757 -0.6948  0.2435
  514MOL0     C69288   1.327   2.343   6.455  0.4306 -0.1404  0.5680
  514MOL0     C69289   1.435   2.363   6.545  0.4363 -0.1815 -0.5764
  514MOL0     C69290   1.407   2.423   6.675  0.7217 -0.0682  0.6210
  514MOL0     O69291   1.504   2.453   6.761 -0.0235  0.3577 -0.7629
  514MOL0     C69292   1.477   2.521   6.880  0.2575 -0.5191  0.6994
  514MOL0     C69293   1.610   2.552   6.944 -0.2186 -0.5381 -0.0305
  514MOL0     C69294   1.673   2.420   6.989  0.0377  0.7365  0.7066
  514MOL0     C69295   1.795   2.463   7.075 -0.1222 -0.1279 -0.1279
  514MOL0     C69296   1.844   2.340   7.149  0.1230 -0.2625  0.1124
  514MOL0     C69297   1.989   2.358   7.217  0.3507  1.5883 -0.2323
  514MOL0     C69298   2.037   2.220   7.264  0.6018 -0.4242  0.4139
  514MOL0     C69299   2.168   2.204   7.326 -0.8605  0.0909  0.8871
  514MOL0    Cl69300   2.282   2.252   7.204 -0.0982 -0.2988  0.7500
  514MOL0     C69301   1.282   2.464   6.696 -0.3708  0.0777 -0.2449
  514MOL0     C69302   1.175   2.431   6.615 -0.3079  0.4596  0.5582
  514MOL0     O69303   1.181   2.521   6.278 -1.1272 -0.2440  0.1471
  514MOL0     C69304   0.884   2.319   6.210  0.3422 -0.5276  0.6038
  514MOL0     C69305   0.773   2.306   6.120 -1.5193  0.4933 -0.0009
  514MOL0     N69306   0.161   2.405   5.790 -0.4243  0.7536  0.0413
  514MOL0     N69307   0.040   2.436   5.809 -0.4461  1.3595 -0.6390
  514MOL0     C69308   0.479   2.561   6.621  0.0938 -0.0475 -1.0582
  514MOL0     C69309   0.581   2.591   6.707 -0.7958 -0.4375  0.1121
  514MOL0     C69310   0.989   2.561   6.940 -0.6036 -0.6592  0.2110
  514MOL0     C69311   1.050   2.477   7.037 -0.3324 -0.4990  0.6413
  514MOL0     C69312   1.147   2.531   7.118  0.4192 -0.7277 -0.3215
  514MOL0     C69313   1.192   2.665   7.103  1.3181 -0.2326  0.3190
  514MOL0     O69314   1.298   2.706   7.181  0.4017  0.2129  0.3532
  514MOL0     C69315   1.305   2.847   7.218 -0.5886 -0.6376  0.2123
  514MOL0     C69316   1.351   2.856   7.372  0.3256 -0.2581 -0.1532
  514MOL0     C69317   1.457   2.752   7.412 -0.0224 -0.8535  0.1955
  514MOL0     C69318   1.584   2.755   7.332 -0.5767 -0.5524  0.7137
  514MOL0     C69319   1.648   2.889   7.328 -0.0168 -0.1545 -0.2854
  514MOL0     C69320   1.698   3.003   7.337 -0.5146  0.3130  0.5602
  514MOL0     C69321   1.122   2.747   7.014  0.4214 -0.3418 -0.0600
  514MOL0     C69322   1.026   2.697   6.931  1.1509 -0.4782 -0.4376
  514MOL0     H69323   0.815   2.376   6.598  0.1799  0.1085 -0.8739
  514MOL0     H69324   0.631   2.332   6.421  1.3145 -1.9369  2.1198
  514MOL0     H69325   0.485   2.447   6.261  2.1905 -4.0080  0.3292
  514MOL0     H69326   0.429   2.293   6.316  0.0147  0.0625  2.5189
  514MOL0     H69327   0.290   2.350   6.138  1.4227  3.1304 -1.1456
  514MOL0     H69328   0.188   2.372   6.276  1.8994 -2.4739  0.8379
  514MOL0     H69329   0.219   2.614   6.283 -2.9605 -0.7508  0.3105
  514MOL0     H69330   0.321   2.598   6.130  2.2558  0.3292  3.4722
  514MOL0     H69331   0.137   2.529   6.013 -1.2630 -0.0380  0.3376
  514MOL0     H69332   0.034   2.505   6.162  0.7331 -0.8140  0.8136
  514MOL0     H69333   0.073   2.757   6.218  1.4171  0.2906  0.1863
  514MOL0     H69334   0.141   2.761   6.050  0.7651 -2.7032 -0.9844
  514MOL0     H69335  -0.115   2.626   6.051  0.5906  0.2335 -1.2494
  514MOL0     H69336  -0.115   2.790   6.123  0.7968 -0.0662  1.1810
  514MOL0     H69337  -0.158   2.835   5.894 -0.3794  1.0836 -1.7038
  514MOL0     H69338   0.019   2.814   5.877 -0.2558 -2.0145 -3.4355
  514MOL0     H69339  -0.120   2.692   5.714 -2.0902 -0.7490 -0.1185
  514MOL0     H69340  -0.167   2.580   5.830 -1.1838  0.8139 -1.9774
  514MOL0     H69341   0.173   2.712   5.680  1.1182  0.2933  0.9767
  514MOL0     H69342   0.400   2.390   5.672  1.7461  0.0001  0.4314
  514MOL0     H69343   0.375   2.554   5.590  0.3744 -0.0770  0.1988
  514MOL0     H69344   0.454   2.525   5.885  1.8975 -0.6707 -0.2554
  514MOL0     H69345   0.441   2.674   5.794 -3.5929  0.1281  1.6213
  514MOL0     H69346   0.669   2.613   5.843  0.7126  2.6955 -1.8080
  514MOL0     H69347   0.657   2.606   5.669  0.1223 -2.6287 -1.5053
  514MOL0     H69348   0.774   2.406   5.744  0.0385  1.4465 -0.2074
  514MOL0     H69349   0.610   2.345   5.711 -2.8297  0.3280  0.4024
  514MOL0     H69350   0.873   2.525   5.890 -0.8666 -1.2677 -0.6406
  514MOL0     H69351   1.184   2.555   6.035 -0.1546 -0.2990  1.0153
  514MOL0     H69352   1.082   2.610   5.918  3.5532 -0.4126 -0.2607
  514MOL0     H69353   1.082   2.687   6.086  1.3935  0.4794  0.7792
  514MOL0     H69354   1.354   2.303   6.358  0.4146 -0.5876  0.7429
  514MOL0     H69355   1.529   2.333   6.502  0.4252  1.1277 -1.5649
  514MOL0     H69356   1.429   2.615   6.852  2.3107  0.9676  1.8200
  514MOL0     H69357   1.412   2.466   6.948 -0.1266 -1.7873 -0.6393
  514MOL0     H69358   1.669   2.598   6.864  0.0460 -0.9263 -0.0592
  514MOL0     H69359   1.593   2.621   7.027 -0.5516 -0.5764 -0.0683
  514MOL0     H69360   1.710   2.363   6.903  1.1311 -0.0058  1.6279
  514MOL0     H69361   1.603   2.371   7.057 -1.9305  1.2552 -0.8518
  514MOL0     H69362   1.866   2.504   7.003  1.9831  0.5433  2.1984
  514MOL0     H69363   1.765   2.536   7.151  2.1867  0.8525 -0.0693
  514MOL0     H69364   1.866   2.269   7.068  0.4829 -2.2984  1.9117
  514MOL0     H69365   1.776   2.299   7.223  1.8036  1.4693  2.7863
  514MOL0     H69366   2.061   2.407   7.152  1.8931 -0.7769 -0.4207
  514MOL0     H69367   1.972   2.419   7.307  0.7126 -0.5631  1.3786
  514MOL0     H69368   2.027   2.154   7.177 -2.3276  1.0217 -0.5125
  514MOL0     H69369   1.959   2.187   7.332 -1.3301  0.9853 -0.9813
  514MOL0     H69370   2.182   2.103   7.365 -0.1759 -0.8119 -1.4938
  514MOL0     H69371   2.186   2.267   7.414 -0.1852  1.4921 -0.2179
  514MOL0     H69372   1.249   2.502   6.793  1.2052 -2.5409  1.4513
  514MOL0     H69373   1.072   2.447   6.644 -1.1342 -1.1970 -1.2572
  514MOL0     H69374   0.895   2.264   6.303 -2.2853  1.9833  2.5842
  514MOL0     H69375   0.690   2.240   6.145  0.6561 -1.7275  1.8375
  514MOL0     H69376   0.379   2.602   6.631 -0.1206 -0.6961 -0.4023
  514MOL0     H69377   0.575   2.670   6.781 -0.3479  1.5188 -1.8170
  514MOL0     H69378   1.031   2.372   7.057 -0.7158 -0.5941 -0.1990
  514MOL0     H69379   1.194   2.476   7.198  1.9874 -1.0870 -1.4442
  514MOL0     H69380   1.382   2.904   7.165  2.0708 -1.2542  3.1862
  514MOL0     H69381   1.208   2.898   7.210  0.6172  1.5175 -2.2209
  514MOL0     H69382   1.258   2.853   7.430 -0.3825 -0.2499 -1.2486
  514MOL0     H69383   1.392   2.956   7.384  0.1626 -0.4775  3.0797
  514MOL0     H69384   1.409   2.657   7.388  2.1684 -1.1650 -3.8124
  514MOL0     H69385   1.482   2.774   7.516 -2.3098  2.1224  0.2725
  514MOL0     H69386   1.565   2.726   7.229  0.7456 -3.0836  1.1350
  514MOL0     H69387   1.649   2.676   7.370  2.8060  1.9326  0.5170
  514MOL0     H69388   1.737   3.099   7.361  0.0669  1.2988 -3.6426
  514MOL0     H69389   1.148   2.852   7.006 -0.9966  0.0280 -0.1461
  514MOL0     H69390   0.974   2.753   6.854 -0.4380 -2.9787 -1.3028
  515MOL0     O69391   0.239   1.856   9.479  0.5809  0.6470 -0.0096
  515MOL0     C69392   0.349   1.885   9.426  0.2213 -0.3165 -0.1122
  515MOL0     O69393   0.358   1.969   9.326  0.1616 -1.0288 -0.1234
  515MOL0     C69394   0.254   2.016   9.250  0.8904  0.0734  0.6537
  515MOL0     C69395   0.133   1.944   9.224 -0.0996 -0.5125 -0.8846
  515MOL0     C69396   0.033   2.003   9.140  0.5079 -0.6070  0.3233
  515MOL0     C69397   0.051   2.128   9.083  1.2973  0.6184 -0.5724
  515MOL0     O69398  -0.046   2.163   8.992  0.0897 -0.5654 -0.2302
  515MOL0     C69399  -0.065   2.308   8.967 -0.6237 -0.3075 -0.2966
  515MOL0     C69400  -0.223   2.326   8.934 -0.3486 -0.0079  0.1752
  515MOL0     C69401  -0.250   2.484   8.957  0.2709 -0.3182 -0.2649
  515MOL0     C69402  -0.391   2.527   8.902  0.2640 -0.7555 -0.4525
  515MOL0     C69403  -0.391   2.585   8.759  0.8352  1.1629  0.4421
  515MOL0     C69404  -0.532   2.629   8.721  0.1623 -0.1102  0.2130
  515MOL0     C69405  -0.518   2.717   8.595 -0.7500  0.8631 -1.2822
  515MOL0     C69406  -0.461   2.860   8.610  0.2013  0.0204 -0.2437
  515MOL0     N69407  -0.405   2.924   8.492 -0.0822 -0.4368  0.0101
  515MOL0     C69408  -0.274   2.903   8.453  0.8681 -0.5070  0.6114
  515MOL0     C69409  -0.272   2.989   8.353  0.3232  0.1349 -0.3070
  515MOL0     C69410  -0.138   3.025   8.270  0.1925 -0.4709 -0.4673
  515MOL0     C69411  -0.146   2.960   8.126  0.7004 -0.3213  0.8628
  515MOL0     C69412  -0.034   2.993   8.030 -0.3734  0.2988  0.4626
  515MOL0     C69413  -0.005   3.149   8.026  0.7702  0.5680  0.1193
  515MOL0     O69414   0.101   3.172   7.930 -0.3862 -0.7389  0.8784
  515MOL0     C69415   0.141   3.302   7.918 -0.1072 -0.5040 -0.1284
  515MOL0     C69416   0.253   3.318   7.845 -0.4972 -0.5425  0.9080
  515MOL0     C69417   0.299   3.446   7.801  1.0012 -0.1577 -0.1634
  515MOL0     C69418   0.404   3.440   7.693 -0.1316 -0.2538 -0.5392
  515MOL0     C69419   0.232   3.562   7.841  0.1960  0.8546  0.7130
  515MOL0     C69420   0.268   3.706   7.809 -0.7048 -0.8692  0.4026
  515MOL0     O69421   0.390   3.739   7.749 -0.3719 -0.3573  0.2270
  515MOL0     C69422   0.429   3.871   7.741 -0.2446  0.3923  0.5552
  515MOL0     C69423   0.341   3.981   7.703  0.0157  0.3301 -0.2933
  515MOL0     C69424   0.383   4.109   7.695  0.9478 -1.1888 -0.0405
  515MOL0     C69425   0.518   4.134   7.714  0.4219 -0.5300 -0.0404
  515MOL0     O69426   0.570   4.261   7.712  0.5709  0.4518 -0.0662
  515MOL0     C69427   0.509   4.362   7.633  0.3100  0.2044 -0.4948
  515MOL0     C69428   0.612   4.468   7.600 -0.5878 -0.0246  0.0888
  515MOL0     C69429   0.636   4.566   7.713 -1.2600 -0.1459  0.1903
  515MOL0     C69430   0.702   4.504   7.837  0.5562 -0.2590 -0.6276
  515MOL0     C69431   0.838   4.429   7.825 -0.0335  1.0609 -0.2093
  515MOL0     C69432   0.959   4.510   7.773 -0.3579 -0.1715  0.7525
  515MOL0     C69433   1.014   4.598   7.879  0.1570 -0.1660  0.1887
  515MOL0     C69434   1.160   4.635   7.856  1.0354  0.1815  0.0794
  515MOL0    Cl69435   1.168   4.711   7.700  0.3178  0.0709 -0.1390
  515MOL0     C69436   0.610   4.036   7.735 -0.2017  0.7311  0.3063
  515MOL0     C69437   0.562   3.907   7.757  0.3316 -0.4152 -0.1600
  515MOL0     O69438   0.193   3.791   7.864 -0.5703 -0.4047  0.5982
  515MOL0     C69439   0.123   3.536   7.928  0.4186 -0.3273  1.4502
  515MOL0     C69440   0.080   3.413   7.975 -0.4017  0.8154 -0.2925
  515MOL0     N69441  -0.384   3.065   8.336  0.6589 -0.5355 -0.4014
  515MOL0     N69442  -0.475   3.013   8.418 -0.2905 -0.3136  0.0880
  515MOL0     C69443   0.169   2.199   9.109 -0.0012 -0.0726  0.2549
  515MOL0     C69444   0.272   2.142   9.192 -0.1517 -0.1872 -0.1182
  515MOL0     C69445   0.475   1.838   9.489 -0.5535 -0.4882  0.4622
  515MOL0     C69446   0.599   1.861   9.418  0.3745 -0.2465  1.4606
  515MOL0     C69447   0.721   1.796   9.448  0.2517 -0.5429 -0.2523
  515MOL0     C69448   0.725   1.717   9.564 -0.1933  0.9583  0.0918
  515MOL0     O69449   0.838   1.653   9.602  0.9967 -0.0988 -0.7212
  515MOL0     C69450   0.933   1.601   9.510  0.2957  0.0642  0.0106
  515MOL0     C69451   1.019   1.491   9.579 -0.0646  0.1632 -0.0476
  515MOL0     C69452   1.113   1.427   9.473 -0.1596  0.0879  0.2524
  515MOL0     C69453   1.214   1.528   9.405  0.1557  0.0676 -0.5522
  515MOL0     C69454   1.335   1.462   9.368 -0.3626  0.7126 -0.2258
  515MOL0     C69455   1.434   1.398   9.355 -0.8476 -0.1436 -0.6749
  515MOL0     C69456   0.609   1.701   9.647 -0.4761  0.1572  0.7299
  515MOL0     C69457   0.480   1.756   9.606 -0.2640 -0.0078  0.1094
  515MOL0     H69458   0.109   1.847   9.265 -0.0498  0.1799  0.8448
  515MOL0     H69459  -0.059   1.949   9.119  0.7707 -0.9012 -0.0920
  515MOL0     H69460  -0.030   2.363   9.055 -0.0117 -2.6676  1.0084
  515MOL0     H69461  -0.017   2.339   8.873  0.1959 -0.6820 -0.0113
  515MOL0     H69462  -0.227   2.289   8.831  2.7381  1.0113 -0.4135
  515MOL0     H69463  -0.273   2.275   9.016  0.6661  2.7014  2.6341
  515MOL0     H69464  -0.237   2.517   9.060  3.4298 -2.3257  0.1434
  515MOL0     H69465  -0.170   2.535   8.903  0.8428 -0.5330  0.3534
  515MOL0     H69466  -0.457   2.440   8.902 -0.0997 -0.4901  0.4337
  515MOL0     H69467  -0.432   2.599   8.974  2.4347 -1.8516  2.0498
  515MOL0     H69468  -0.323   2.671   8.758  2.8287 -0.3602  0.2075
  515MOL0     H69469  -0.359   2.512   8.685 -3.1858  1.4181 -1.8480
  515MOL0     H69470  -0.595   2.541   8.706 -0.2682  0.2273  0.0483
  515MOL0     H69471  -0.578   2.699   8.791  0.1851 -0.0606  0.1777
  515MOL0     H69472  -0.453   2.664   8.525 -0.4879  0.1239 -0.5044
  515MOL0     H69473  -0.616   2.737   8.551 -1.3807 -2.4982 -1.7153
  515MOL0     H69474  -0.372   2.858   8.674 -0.6888  2.0976  1.1626
  515MOL0     H69475  -0.538   2.928   8.647 -0.5780 -0.2818 -1.2751
  515MOL0     H69476  -0.191   2.848   8.497  2.2554  0.3772 -0.8085
  515MOL0     H69477  -0.119   3.132   8.265  3.8126 -0.5874  4.0008
  515MOL0     H69478  -0.050   2.978   8.316  0.3430  1.4439  1.3225
  515MOL0     H69479  -0.240   2.975   8.073  0.5414 -2.7354  0.3425
  515MOL0     H69480  -0.149   2.854   8.155 -1.1543 -0.9490 -1.3144
  515MOL0     H69481  -0.048   2.956   7.928 -2.2004 -0.4125  0.9305
  515MOL0     H69482   0.039   2.939   8.090 -3.2263 -1.0162  2.9888
  515MOL0     H69483   0.018   3.189   8.125  0.2178  0.5628  0.2526
  515MOL0     H69484  -0.097   3.199   7.993 -0.3333 -1.8031 -0.5490
  515MOL0     H69485   0.298   3.227   7.807  0.6741  0.0688  0.7940
  515MOL0     H69486   0.473   3.525   7.688 -0.1445 -0.3332 -3.3813
  515MOL0     H69487   0.457   3.344   7.689 -2.6972 -1.7107 -2.4450
  515MOL0     H69488   0.344   3.447   7.602  0.1904 -2.5277 -0.9711
  515MOL0     H69489   0.232   3.974   7.698 -0.1187  2.0430 -0.6785
  515MOL0     H69490   0.315   4.190   7.671  3.7847  1.0196 -1.2400
  515MOL0     H69491   0.470   4.320   7.539  0.8876  0.7242 -0.9733
  515MOL0     H69492   0.426   4.412   7.686 -0.2573 -1.0276 -0.1914
  515MOL0     H69493   0.702   4.413   7.570  1.2714  1.7468  2.0358
  515MOL0     H69494   0.576   4.522   7.512 -0.3213 -0.0850 -0.0580
  515MOL0     H69495   0.540   4.615   7.732 -0.8506  1.3381 -1.3123
  515MOL0     H69496   0.698   4.644   7.668 -0.0301 -2.0555 -1.6424
  515MOL0     H69497   0.702   4.575   7.920  1.4963  0.6878 -1.4029
  515MOL0     H69498   0.632   4.426   7.867  1.3620 -0.4848  0.7309
  515MOL0     H69499   0.816   4.345   7.759 -0.3935  3.0093 -2.6940
  515MOL0     H69500   0.866   4.392   7.925  0.6120  1.9307 -0.0575
  515MOL0     H69501   1.036   4.445   7.731 -1.6211 -0.1858 -1.6952
  515MOL0     H69502   0.915   4.576   7.697  1.9523 -0.6275 -1.0788
  515MOL0     H69503   1.001   4.558   7.980  0.4537 -1.3166 -0.2146
  515MOL0     H69504   0.960   4.693   7.873 -0.4830 -0.5222  0.2186
  515MOL0     H69505   1.219   4.544   7.863 -0.5057 -0.9531 -1.0407
  515MOL0     H69506   1.198   4.699   7.936 -0.5513  3.2846 -1.4585
  515MOL0     H69507   0.717   4.053   7.734  0.0197 -0.5755 -0.3711
  515MOL0     H69508   0.635   3.830   7.780 -0.0289 -0.8976 -0.6073
  515MOL0     H69509   0.062   3.624   7.950  1.3988  0.8125 -0.1654
  515MOL0     H69510  -0.014   3.406   8.029  0.4008 -0.7324  1.0130
  515MOL0     H69511   0.191   2.297   9.068 -1.4905 -0.5409 -1.7833
  515MOL0     H69512   0.364   2.193   9.218 -1.2313  0.6239  2.4586
  515MOL0     H69513   0.594   1.901   9.317 -0.0279 -2.3302  0.5983
  515MOL0     H69514   0.803   1.805   9.377  0.4252 -1.2189 -0.1491
  515MOL0     H69515   0.877   1.557   9.427 -0.0611 -2.1817  1.3514
  515MOL0     H69516   0.994   1.684   9.473 -0.2699  0.2117 -0.6111
  515MOL0     H69517   0.957   1.409   9.615  0.1773 -0.0113 -0.0263
  515MOL0     H69518   1.081   1.528   9.661  0.5154  0.7311 -0.7173
  515MOL0     H69519   1.049   1.388   9.394 -0.5860  0.6745  0.3035
  515MOL0     H69520   1.163   1.344   9.523 -1.0991  0.0866  1.2468
  515MOL0     H69521   1.235   1.616   9.467 -2.7372 -0.2158  0.9921
  515MOL0     H69522   1.170   1.569   9.313  1.7944  0.8264 -1.0319
  515MOL0     H69523   1.518   1.331   9.355 -0.9248 -0.2620  0.5539
  515MOL0     H69524   0.611   1.639   9.736  0.0463  2.3193  2.3014
  515MOL0     H69525   0.393   1.726   9.663 -1.1507  1.3241 -0.4802
  516MOL0     O69526   8.103   5.049   4.882  0.6787  0.3862 -0.0651
  516MOL0     C69527   8.199   5.120   4.911 -0.6489 -0.1182  0.5106
  516MOL0     O69528   8.189   5.243   4.974  0.3386  0.1662 -0.0202
  516MOL0     C69529   8.069   5.280   5.045 -0.1907 -0.3723  0.2604
  516MOL0     C69530   8.046   5.421   5.057 -0.8324 -0.0388  0.1733
  516MOL0     C69531   7.937   5.473   5.129  0.8127  0.0428  0.5445
  516MOL0     C69532   7.847   5.386   5.192 -0.9829  0.0234 -0.8785
  516MOL0     O69533   7.747   5.441   5.253  0.2772 -0.6191 -1.1890
  516MOL0     C69534   7.622   5.366   5.257  0.1465 -0.3248 -0.3400
  516MOL0     C69535   7.555   5.416   5.388 -0.2589  0.2446  0.3190
  516MOL0     C69536   7.440   5.325   5.409 -0.1793  0.8367 -0.1638
  516MOL0     C69537   7.363   5.365   5.537  0.4447 -0.9124 -0.5954
  516MOL0     C69538   7.251   5.263   5.543  0.0552  0.4868 -0.4758
  516MOL0     C69539   7.177   5.291   5.678  0.2655  0.5664  0.1660
  516MOL0     C69540   7.046   5.216   5.689 -0.5832  0.1675 -0.4324
  516MOL0     C69541   6.985   5.238   5.827  0.2579  0.4284 -0.9466
  516MOL0     N69542   6.857   5.160   5.827 -0.6717  0.4410  0.5749
  516MOL0     C69543   6.741   5.230   5.845  0.0860 -0.3869 -0.0592
  516MOL0     C69544   6.638   5.145   5.814 -0.2639  0.6451  0.0549
  516MOL0     C69545   6.490   5.171   5.812  0.4406 -0.1860  0.0235
  516MOL0     C69546   6.444   5.319   5.797 -0.5992  1.3262 -0.4167
  516MOL0     C69547   6.294   5.326   5.822  0.0302 -0.9188 -0.3621
  516MOL0     C69548   6.224   5.453   5.775 -0.1542 -0.1305 -0.0366
  516MOL0     O69549   6.094   5.449   5.832  0.0238 -0.0946  0.4162
  516MOL0     C69550   6.001   5.533   5.780 -0.5408 -0.4844  0.4381
  516MOL0     C69551   6.028   5.663   5.735 -0.3888  0.0853 -0.1022
  516MOL0     C69552   5.935   5.752   5.686 -0.6247 -0.2725 -0.3642
  516MOL0     C69553   5.988   5.887   5.644 -0.8127 -0.2358 -0.2640
  516MOL0     C69554   5.800   5.705   5.683 -0.5528 -0.7576 -0.5435
  516MOL0     C69555   5.693   5.781   5.628  0.2563  0.8042  0.3163
  516MOL0     O69556   5.567   5.760   5.675  0.0015  0.2842  0.3819
  516MOL0     C69557   5.456   5.820   5.629  0.1765  0.5092  0.5088
  516MOL0     C69558   5.437   5.946   5.572 -0.3039  0.3259  0.8848
  516MOL0     C69559   5.308   5.993   5.547 -0.0945 -0.3161  1.2441
  516MOL0     C69560   5.197   5.911   5.572 -0.6229  1.1576 -0.2263
  516MOL0     O69561   5.074   5.961   5.535 -0.1303  0.1485 -0.4805
  516MOL0     C69562   4.962   5.900   5.597 -0.5238 -0.8966 -0.7282
  516MOL0     C69563   4.846   5.993   5.605  0.6999 -0.4166  0.1100
  516MOL0     C69564   4.774   6.041   5.472 -0.3899 -0.8372  0.9018
  516MOL0     C69565   4.646   6.111   5.486 -0.5878 -1.0856 -0.8790
  516MOL0     C69566   4.613   6.181   5.349 -0.6366  0.3340 -0.3402
  516MOL0     C69567   4.518   6.298   5.387  0.5552  0.2408 -0.2033
  516MOL0     C69568   4.536   6.410   5.286  0.1822 -0.1194 -0.3469
  516MOL0     C69569   4.406   6.485   5.254  0.1945  0.2038 -0.4721
  516MOL0    Cl69570   4.346   6.572   5.410  0.4724  0.1012 -0.0077
  516MOL0     C69571   5.210   5.783   5.620 -0.4846  0.2340 -0.0356
  516MOL0     C69572   5.343   5.734   5.642  0.2821 -0.7464 -0.4528
  516MOL0     O69573   5.715   5.840   5.523 -0.1728 -0.2341  0.2431
  516MOL0     C69574   5.776   5.581   5.730  0.2294 -0.2911  0.1813
  516MOL0     C69575   5.870   5.498   5.781 -0.1393 -0.3090  0.5826
  516MOL0     N69576   6.701   5.019   5.781 -0.0736 -0.2192 -0.8790
  516MOL0     N69577   6.832   5.034   5.791 -1.3628  0.4735  1.0196
  516MOL0     C69578   7.867   5.246   5.174  0.0525  0.6434  0.0822
  516MOL0     C69579   7.975   5.191   5.100 -0.4859 -0.5160  0.3183
  516MOL0     C69580   8.332   5.063   4.876  0.2661 -0.2382  0.1848
  516MOL0     C69581   8.438   5.159   4.867  0.4002  0.0026  0.1658
  516MOL0     C69582   8.564   5.112   4.833  0.1651  1.0270  0.1315
  516MOL0     C69583   8.589   4.976   4.803 -0.4990 -0.5670  0.6348
  516MOL0     O69584   8.713   4.947   4.753 -0.0842  0.7888 -0.0630
  516MOL0     C69585   8.747   4.809   4.711 -0.4799  0.2178  0.1489
  516MOL0     C69586   8.878   4.798   4.631 -0.1338  0.3485  0.3414
  516MOL0     C69587   9.004   4.794   4.725  0.9820  0.7106  0.4815
  516MOL0     C69588   9.132   4.788   4.639 -0.1306  0.2369  0.4394
  516MOL0     C69589   9.255   4.801   4.720 -0.2634  0.3809  0.0269
  516MOL0     C69590   9.360   4.813   4.787 -0.3822 -0.8508  0.0945
  516MOL0     C69591   8.486   4.884   4.812 -0.4589 -0.1595  0.3382
  516MOL0     C69592   8.354   4.926   4.846  0.1958  0.5821 -0.2371
  516MOL0     H69593   8.094   5.501   5.002  0.0731  0.2713  1.3767
  516MOL0     H69594   7.913   5.579   5.140  1.1530  0.4908 -2.2571
  516MOL0     H69595   7.568   5.405   5.170  1.6498 -0.6358 -1.4605
  516MOL0     H69596   7.625   5.257   5.260  0.9345 -0.2934  0.4810
  516MOL0     H69597   7.622   5.399   5.473 -0.5911 -1.2247  0.3167
  516MOL0     H69598   7.526   5.521   5.378  2.5302  1.0644  0.0255
  516MOL0     H69599   7.363   5.328   5.332 -0.8670 -2.6388  0.1989
  516MOL0     H69600   7.471   5.220   5.414 -2.1458  0.2795  1.3563
  516MOL0     H69601   7.421   5.363   5.629 -0.0640 -0.4434 -0.2599
  516MOL0     H69602   7.334   5.470   5.529  2.4187 -0.4370 -2.9737
  516MOL0     H69603   7.180   5.262   5.460 -1.5521 -3.5025  0.7339
  516MOL0     H69604   7.296   5.164   5.545 -2.7622 -0.9240 -1.9484
  516MOL0     H69605   7.239   5.284   5.768  0.8758 -0.8640 -0.3363
  516MOL0     H69606   7.151   5.397   5.679 -1.7671  0.1037  1.1389
  516MOL0     H69607   6.974   5.246   5.612 -2.8280  1.9670  2.1564
  516MOL0     H69608   7.066   5.111   5.668  0.1901  0.4907 -1.4011
  516MOL0     H69609   6.965   5.343   5.847 -2.1164 -0.1401  0.0266
  516MOL0     H69610   7.058   5.194   5.895 -0.0516  0.1412 -0.7929
  516MOL0     H69611   6.728   5.332   5.881 -0.7201 -0.5551  0.1505
  516MOL0     H69612   6.449   5.105   5.735 -0.5903  0.4352  0.0217
  516MOL0     H69613   6.455   5.135   5.910  0.7025  0.5985  0.4102
  516MOL0     H69614   6.462   5.348   5.693 -0.3641  0.1504 -0.7203
  516MOL0     H69615   6.504   5.384   5.861 -0.4470  0.1525  0.6803
  516MOL0     H69616   6.274   5.322   5.929  1.8560 -0.2557  0.0307
  516MOL0     H69617   6.238   5.245   5.773 -2.8657  1.4391 -1.2314
  516MOL0     H69618   6.223   5.447   5.666  0.3434 -1.9363  0.0255
  516MOL0     H69619   6.285   5.535   5.813  1.1793 -1.6096  1.1419
  516MOL0     H69620   6.131   5.698   5.738 -0.7602  1.1917  1.8229
  516MOL0     H69621   5.913   5.965   5.662  1.5170  1.3294  4.0848
  516MOL0     H69622   6.082   5.916   5.693 -0.1229  1.0192 -2.2071
  516MOL0     H69623   6.018   5.890   5.539  0.1515  1.4328  0.0302
  516MOL0     H69624   5.527   6.005   5.555 -1.0839  1.5110  0.7343
  516MOL0     H69625   5.287   6.087   5.498 -4.9649 -1.6561  0.2754
  516MOL0     H69626   4.947   5.805   5.544  3.7298 -1.7359 -0.7331
  516MOL0     H69627   4.980   5.883   5.704 -0.7161  2.1949 -0.1228
  516MOL0     H69628   4.775   5.949   5.675  2.2855  3.3992  4.6725
  516MOL0     H69629   4.882   6.085   5.653  1.2490  1.2595 -3.1804
  516MOL0     H69630   4.765   5.958   5.402  1.7519 -0.5401  0.2157
  516MOL0     H69631   4.836   6.100   5.405 -1.8703 -1.8882 -1.5008
  516MOL0     H69632   4.570   6.036   5.510 -1.5244  0.0707 -0.1094
  516MOL0     H69633   4.655   6.188   5.563 -0.3468  1.6558 -3.4878
  516MOL0     H69634   4.577   6.105   5.279  1.5267  0.7271 -1.9853
  516MOL0     H69635   4.709   6.223   5.319  0.7609 -2.2331  0.2674
  516MOL0     H69636   4.414   6.267   5.377  1.0124 -1.0306 -1.4544
  516MOL0     H69637   4.534   6.333   5.489  4.0971 -0.1862 -0.4896
  516MOL0     H69638   4.583   6.375   5.194 -1.7883  0.1037 -1.5018
  516MOL0     H69639   4.600   6.480   5.340 -1.5626  0.9247  0.4686
  516MOL0     H69640   4.331   6.421   5.206 -0.4395  2.0917 -2.1088
  516MOL0     H69641   4.428   6.564   5.182  1.7865  0.5929  0.4083
  516MOL0     H69642   5.121   5.722   5.625 -1.0201  1.0382  0.8349
  516MOL0     H69643   5.355   5.636   5.688  2.5200  0.5596  2.0012
  516MOL0     H69644   5.675   5.542   5.715  1.2188 -3.1223  0.1728
  516MOL0     H69645   5.842   5.400   5.819 -0.9614  0.5088  2.1519
  516MOL0     H69646   7.799   5.169   5.208 -2.0729  2.2763 -0.2037
  516MOL0     H69647   7.971   5.084   5.084  0.5749 -0.5565  0.2607
  516MOL0     H69648   8.408   5.257   4.904  0.8296  0.4620 -0.6729
  516MOL0     H69649   8.654   5.172   4.837  1.0501 -0.1406 -1.2686
  516MOL0     H69650   8.766   4.748   4.799  0.9576  0.0887 -0.2293
  516MOL0     H69651   8.666   4.773   4.647 -1.9136  3.2933  0.0369
  516MOL0     H69652   8.887   4.876   4.554 -1.1784  2.0731  1.8805
  516MOL0     H69653   8.870   4.703   4.577  0.7838 -0.0554  0.9074
  516MOL0     H69654   9.012   4.700   4.780  0.7893 -0.2234 -1.0274
  516MOL0     H69655   9.010   4.876   4.797 -1.3700  0.4601  1.0590
  516MOL0     H69656   9.137   4.871   4.568 -2.4294  0.9219  1.0244
  516MOL0     H69657   9.125   4.692   4.587 -3.4388  2.0703 -2.9108
  516MOL0     H69658   9.442   4.807   4.855  0.4019  2.5144 -0.4154
  516MOL0     H69659   8.498   4.780   4.785 -0.1220 -0.0884  0.2141
  516MOL0     H69660   8.271   4.858   4.863 -0.8350  2.3074  2.2436
  517MOL0     O69661   7.223   7.773  10.206  0.4286  0.0570 -0.0202
  517MOL0     C69662   7.189   7.889  10.195 -0.8771  0.1595 -0.3157
  517MOL0     O69663   7.078   7.930  10.140  0.4525  0.7090 -0.0207
  517MOL0     C69664   6.987   7.848  10.077  0.5653  1.8782  0.0058
  517MOL0     C69665   6.854   7.881  10.086  0.2536 -0.3084  1.0225
  517MOL0     C69666   6.750   7.803  10.031 -0.7449 -0.3247  0.1853
  517MOL0     C69667   6.778   7.687   9.961  0.1628  0.4085  0.5453
  517MOL0     O69668   6.676   7.608   9.907  0.1577 -0.3405  0.0828
  517MOL0     C69669   6.708   7.513   9.815 -0.0771  0.3378  1.1905
  517MOL0     C69670   6.588   7.484   9.724 -0.5532  0.0078  0.7728
  517MOL0     C69671   6.593   7.348   9.643  0.2980  0.1644 -0.2317
  517MOL0     C69672   6.619   7.220   9.720 -0.3190  0.6176  0.8761
  517MOL0     C69673   6.643   7.085   9.639 -0.4878  0.3809 -0.7893
  517MOL0     C69674   6.505   7.025   9.603  0.5390 -0.0982 -0.3312
  517MOL0     C69675   6.532   6.899   9.512 -0.4246  0.8120 -0.7414
  517MOL0     C69676   6.594   6.775   9.583 -0.6049 -0.1726 -0.5351
  517MOL0     N69677   6.597   6.656   9.500  0.0814  0.2711  0.5361
  517MOL0     C69678   6.576   6.528   9.553 -0.2028  0.3273  0.9420
  517MOL0     C69679   6.590   6.446   9.441  0.3817  0.0067  0.3600
  517MOL0     C69680   6.583   6.299   9.437 -0.0251 -0.3470 -0.2932
  517MOL0     C69681   6.457   6.239   9.498  0.0109 -0.8092 -1.6382
  517MOL0     C69682   6.421   6.111   9.428 -0.0221  0.5613 -0.0654
  517MOL0     C69683   6.307   6.037   9.497 -0.6164  0.1517  0.2775
  517MOL0     O69684   6.180   6.102   9.491  0.3041  0.5234  0.2504
  517MOL0     C69685   6.073   6.037   9.540 -0.1147  0.1950 -0.4002
  517MOL0     C69686   6.077   5.922   9.626 -0.0908 -0.4397  0.2564
  517MOL0     C69687   5.961   5.867   9.680  0.1363 -0.4452 -0.3362
  517MOL0     C69688   5.975   5.754   9.774  0.0991 -0.4946 -0.5238
  517MOL0     C69689   5.837   5.935   9.647  0.7306  0.0172 -0.3879
  517MOL0     C69690   5.707   5.901   9.710  0.2432  0.6796  0.4440
  517MOL0     O69691   5.604   5.984   9.671 -0.4331 -0.2658 -0.9365
  517MOL0     C69692   5.491   5.980   9.752  0.4348 -0.2857 -1.1405
  517MOL0     C69693   5.375   5.920   9.713 -0.0235  0.3552 -0.2391
  517MOL0     C69694   5.264   5.926   9.792 -0.1167 -0.6439  0.5388
  517MOL0     C69695   5.266   5.983   9.918  0.3545  0.2353 -0.6745
  517MOL0     O69696   5.143   5.991   9.979  0.3498  0.3117 -0.2794
  517MOL0     C69697   5.094   6.125  10.015 -0.1985  0.4097 -1.2065
  517MOL0     C69698   4.976   6.134  10.107 -0.0677  0.0321  0.5047
  517MOL0     C69699   4.920   6.277  10.111  0.0859 -0.2657  0.2054
  517MOL0     C69700   4.796   6.278  10.199 -0.0330 -0.4915  0.0307
  517MOL0     C69701   4.733   6.420  10.213  0.5937  0.1880  0.5412
  517MOL0     C69702   4.634   6.445  10.320 -0.5784  0.1084  0.0879
  517MOL0     C69703   4.494   6.368  10.319 -0.2143  0.5258  0.1190
  517MOL0     C69704   4.413   6.403  10.448  0.3995 -0.5153  0.2903
  517MOL0    Cl69705   4.375   6.578  10.428  0.3140  0.2877 -0.0724
  517MOL0     C69706   5.379   6.045   9.961 -0.0869 -0.2544 -0.7392
  517MOL0     C69707   5.499   6.043   9.879  0.1416 -0.3686  0.3905
  517MOL0     O69708   5.700   5.810   9.789  0.7037  0.4646 -0.0750
  517MOL0     C69709   5.840   6.041   9.560 -0.5544 -0.3131 -0.5394
  517MOL0     C69710   5.957   6.095   9.520 -0.0331 -0.8566 -0.3662
  517MOL0     N69711   6.614   6.535   9.326  0.1501  0.0963  0.2093
  517MOL0     N69712   6.618   6.655   9.370  0.4311 -0.1576  0.0208
  517MOL0     C69713   6.915   7.650   9.947  0.1113  0.7083 -0.6237
  517MOL0     C69714   7.017   7.729  10.002  0.1098  0.1532 -0.3555
  517MOL0     C69715   7.277   7.984  10.259 -0.0738 -0.2026 -0.0977
  517MOL0     C69716   7.382   7.935  10.348 -0.1414 -0.4277  0.1527
  517MOL0     C69717   7.478   8.023  10.398  0.3593 -0.0302 -0.3624
  517MOL0     C69718   7.449   8.159  10.387 -0.2039 -0.5158  0.1903
  517MOL0     O69719   7.537   8.255  10.433  0.6116 -0.1743 -0.5055
  517MOL0     C69720   7.663   8.272  10.358  0.7195  0.3923  0.4900
  517MOL0     C69721   7.785   8.246  10.440 -1.2109 -0.4172 -0.8589
  517MOL0     C69722   7.833   8.098  10.458  0.4128  0.4047  0.7467
  517MOL0     C69723   7.873   8.029  10.330 -0.7199  0.0978  0.3297
  517MOL0     C69724   7.968   8.109  10.238  0.1975 -0.4409 -0.4781
  517MOL0     C69725   8.007   8.177  10.153 -0.6459  0.0137  0.3939
  517MOL0     C69726   7.336   8.207  10.325 -0.0848 -0.0451 -0.2815
  517MOL0     C69727   7.254   8.123  10.257  0.0125 -0.4443 -0.4399
  517MOL0     H69728   6.812   7.967  10.138  0.7780 -0.3463  1.5137
  517MOL0     H69729   6.646   7.836  10.030 -1.6304 -2.9001  0.4642
  517MOL0     H69730   6.784   7.543   9.742 -1.9707 -0.0173 -1.0730
  517MOL0     H69731   6.747   7.433   9.878  3.4520 -0.2742 -1.4139
  517MOL0     H69732   6.500   7.498   9.786 -0.8976 -1.4787  0.6492
  517MOL0     H69733   6.591   7.564   9.649 -0.6799 -0.7685 -0.0812
  517MOL0     H69734   6.510   7.328   9.574 -0.7786 -0.1787  1.1110
  517MOL0     H69735   6.683   7.349   9.581  1.0950 -2.0749  0.7635
  517MOL0     H69736   6.704   7.241   9.785  0.0135 -0.9408  0.9820
  517MOL0     H69737   6.533   7.204   9.785  0.8552 -2.5848  1.8277
  517MOL0     H69738   6.707   7.110   9.554 -2.1116  1.0839 -1.8489
  517MOL0     H69739   6.710   7.013   9.687  2.5867  1.2837 -3.3987
  517MOL0     H69740   6.447   7.004   9.693  1.3131  0.6654  0.3648
  517MOL0     H69741   6.448   7.096   9.541 -0.6122 -1.9653 -1.5186
  517MOL0     H69742   6.435   6.863   9.474  0.8013 -2.0730 -1.4457
  517MOL0     H69743   6.593   6.920   9.424  3.1385 -0.6018  1.2098
  517MOL0     H69744   6.542   6.771   9.680  0.2540  1.7295  0.0642
  517MOL0     H69745   6.701   6.792   9.599 -0.8338 -0.2609  1.4580
  517MOL0     H69746   6.575   6.491   9.655 -0.9152 -0.9790  0.4832
  517MOL0     H69747   6.603   6.257   9.338  0.3154 -2.7771  0.7210
  517MOL0     H69748   6.662   6.255   9.499 -2.4151 -3.3572  0.9057
  517MOL0     H69749   6.369   6.304   9.484  1.7267  1.7652 -1.1681
  517MOL0     H69750   6.478   6.227   9.605  0.2610 -0.3302 -1.6296
  517MOL0     H69751   6.509   6.046   9.428 -1.8102 -2.0318 -1.0095
  517MOL0     H69752   6.390   6.127   9.324  4.2160  2.0402 -1.2903
  517MOL0     H69753   6.339   6.024   9.601 -0.4255 -0.8248  0.0990
  517MOL0     H69754   6.298   5.939   9.451  0.5148 -0.4101  1.1934
  517MOL0     H69755   6.172   5.872   9.643  0.1552  0.2334  0.9477
  517MOL0     H69756   5.950   5.660   9.725 -5.1611  1.2150 -1.7658
  517MOL0     H69757   6.074   5.765   9.818  0.4065 -1.7193 -0.8721
  517MOL0     H69758   5.918   5.770   9.866  1.5928  0.6634  0.2486
  517MOL0     H69759   5.369   5.862   9.621  3.1276  0.1794 -0.4181
  517MOL0     H69760   5.165   5.888   9.769 -0.5232 -2.3002  4.2522
  517MOL0     H69761   5.175   6.187  10.054 -0.6173  1.0394 -1.3293
  517MOL0     H69762   5.055   6.172   9.924 -2.6084 -1.3310 -1.1729
  517MOL0     H69763   4.905   6.063  10.064  0.8571 -1.0684  0.7231
  517MOL0     H69764   5.008   6.094  10.204  2.0154 -1.1469 -0.6008
  517MOL0     H69765   4.892   6.314  10.012  1.9491 -1.1538 -0.6928
  517MOL0     H69766   4.990   6.352  10.150  1.8533 -1.6628 -0.2020
  517MOL0     H69767   4.725   6.208  10.153  0.1858 -0.2059 -0.7716
  517MOL0     H69768   4.825   6.234  10.295  0.9330  1.4762  0.7006
  517MOL0     H69769   4.687   6.452  10.119 -0.0322  0.9470  1.0959
  517MOL0     H69770   4.814   6.486  10.245  2.3663 -0.3431 -2.4385
  517MOL0     H69771   4.681   6.425  10.416  0.6013  0.3085 -0.4373
  517MOL0     H69772   4.613   6.553  10.313 -0.8067  0.2780  2.5404
  517MOL0     H69773   4.513   6.260  10.323  0.3126  0.5912 -0.3666
  517MOL0     H69774   4.443   6.391  10.225 -3.5300 -0.1598  1.6064
  517MOL0     H69775   4.478   6.392  10.535 -0.6380  2.4193  1.5556
  517MOL0     H69776   4.326   6.338  10.450 -0.4479  0.5893  0.2003
  517MOL0     H69777   5.382   6.100  10.054  1.4641 -1.8201  0.1971
  517MOL0     H69778   5.581   6.100   9.921 -0.2757  1.0956 -0.7378
  517MOL0     H69779   5.744   6.090   9.547 -1.2549 -1.4666  0.0996
  517MOL0     H69780   5.943   6.177   9.451 -2.0269 -0.8430 -0.0310
  517MOL0     H69781   6.944   7.555   9.903  0.5556  1.6013 -2.3604
  517MOL0     H69782   7.113   7.677  10.007 -0.3517 -0.9713 -2.3955
  517MOL0     H69783   7.405   7.829  10.359 -2.3454 -1.0454 -0.7573
  517MOL0     H69784   7.556   7.984  10.463  0.9797 -1.0013 -1.6470
  517MOL0     H69785   7.660   8.209  10.269 -0.2012  0.3240  0.5692
  517MOL0     H69786   7.661   8.374  10.318  1.4833  0.7152  1.2378
  517MOL0     H69787   7.751   8.293  10.532 -0.8515  2.3876 -2.0654
  517MOL0     H69788   7.870   8.306  10.408  0.6448 -2.3357  0.1799
  517MOL0     H69789   7.743   8.052  10.500  1.2487 -1.8221  0.2587
  517MOL0     H69790   7.921   8.082  10.521  1.4168  2.2931 -0.0836
  517MOL0     H69791   7.783   8.000  10.274  1.7220  0.7942 -4.4641
  517MOL0     H69792   7.915   7.932  10.358  1.5697  0.4902 -1.4358
  517MOL0     H69793   8.053   8.223  10.068 -0.1150  0.2908  0.8271
  517MOL0     H69794   7.311   8.312  10.317  2.4413  0.6431 -0.0870
  517MOL0     H69795   7.164   8.168  10.216  0.4219  2.3332  1.3957
  518MOL0     O69796   8.387   5.517   7.577 -0.1725  0.3997 -0.1096
  518MOL0     C69797   8.480   5.534   7.494  0.1348 -0.1247 -0.1978
  518MOL0     O69798   8.476   5.557   7.357  0.4955 -0.9425 -0.3166
  518MOL0     C69799   8.360   5.563   7.290  0.9287 -0.5575 -0.8653
  518MOL0     C69800   8.249   5.473   7.305  0.1590  0.1954 -0.4233
  518MOL0     C69801   8.143   5.481   7.211  1.3522  0.0433  0.5161
  518MOL0     C69802   8.130   5.585   7.116  0.0623  0.0161  0.0814
  518MOL0     O69803   8.017   5.575   7.033  0.4910  0.7781 -0.6856
  518MOL0     C69804   7.988   5.677   6.943  0.0247 -1.0420 -0.2340
  518MOL0     C69805   7.851   5.657   6.905  1.1267 -0.1370 -0.0030
  518MOL0     C69806   7.763   5.678   7.031  0.4859  1.4815  0.1037
  518MOL0     C69807   7.630   5.749   7.009  0.2709 -0.8120 -0.4807
  518MOL0     C69808   7.629   5.898   7.056  0.7117 -0.3459 -1.1465
  518MOL0     C69809   7.503   5.966   6.997  0.1639  0.5648 -0.1151
  518MOL0     C69810   7.481   6.095   7.069 -0.1636  0.7490 -0.2006
  518MOL0     C69811   7.334   6.134   7.037 -1.0253  0.1157 -1.0393
  518MOL0     N69812   7.244   6.048   7.117  0.3638 -0.3226 -0.0872
  518MOL0     C69813   7.248   6.001   7.254  0.3490 -0.4798 -0.1060
  518MOL0     C69814   7.144   5.916   7.269 -0.3909 -0.2316 -0.4386
  518MOL0     C69815   7.109   5.838   7.387 -0.7462  0.2456  0.0725
  518MOL0     C69816   7.169   5.698   7.386 -0.8685 -1.4004 -0.0447
  518MOL0     C69817   7.077   5.599   7.319 -0.5460  0.3437  0.6772
  518MOL0     C69818   7.138   5.463   7.302  0.8336  0.4503  0.2503
  518MOL0     O69819   7.175   5.408   7.428  0.0171 -0.4439  0.1830
  518MOL0     C69820   7.301   5.371   7.448 -1.2286  0.1642  0.3799
  518MOL0     C69821   7.414   5.421   7.378 -0.3631  0.1949 -0.0309
  518MOL0     C69822   7.544   5.371   7.402 -0.7607  0.4758  0.3936
  518MOL0     C69823   7.660   5.435   7.323 -0.1811 -0.5324 -0.2700
  518MOL0     C69824   7.560   5.263   7.499  0.2633 -0.1677  0.3620
  518MOL0     C69825   7.687   5.186   7.508 -0.8953 -0.7031 -0.0133
  518MOL0     O69826   7.804   5.250   7.498 -0.0378  0.0423 -0.1375
  518MOL0     C69827   7.916   5.175   7.505  0.0503  0.0785  0.1562
  518MOL0     C69828   7.983   5.160   7.625 -0.7029  0.7468 -1.4616
  518MOL0     C69829   8.099   5.082   7.636 -1.5952  0.1869 -0.4155
  518MOL0     C69830   8.163   5.036   7.527 -1.1080  0.6662  0.7218
  518MOL0     O69831   8.289   4.991   7.538 -0.7837 -0.3277 -0.5518
  518MOL0     C69832   8.356   4.952   7.427 -0.3978  1.1225  0.3751
  518MOL0     C69833   8.503   4.914   7.456 -0.1908 -0.4401  0.2403
  518MOL0     C69834   8.519   4.870   7.603  0.2905  0.1724 -0.4526
  518MOL0     C69835   8.656   4.810   7.631 -0.4647 -0.8248 -0.4770
  518MOL0     C69836   8.702   4.830   7.777 -0.5506 -0.5964 -0.8350
  518MOL0     C69837   8.838   4.747   7.788  0.0955  0.0526 -0.8321
  518MOL0     C69838   8.888   4.730   7.929  0.1261  0.5126  0.4933
  518MOL0     C69839   9.025   4.660   7.937 -0.5416 -0.4797  0.5332
  518MOL0    Cl69840   9.018   4.491   7.868 -0.0375  0.0062 -0.3913
  518MOL0     C69841   8.095   5.055   7.397 -0.8421  0.3072  0.0032
  518MOL0     C69842   7.973   5.126   7.388  0.7378  0.4725  0.5597
  518MOL0     O69843   7.675   5.061   7.515  0.3997  0.1119 -0.0666
  518MOL0     C69844   7.451   5.218   7.563  0.3347  0.4775  0.3024
  518MOL0     C69845   7.325   5.268   7.542 -0.0337  0.4131 -0.4656
  518MOL0     N69846   7.070   5.925   7.152  0.8343  0.7102 -0.1710
  518MOL0     N69847   7.133   5.990   7.061  0.4252 -0.1849 -0.1510
  518MOL0     C69848   8.241   5.669   7.108  0.2393 -0.6798 -0.3344
  518MOL0     C69849   8.353   5.655   7.188 -0.3177 -0.1141 -0.0424
  518MOL0     C69850   8.611   5.528   7.554  0.1151  0.1877 -0.9827
  518MOL0     C69851   8.718   5.601   7.499  1.4179 -0.3988 -0.1339
  518MOL0     C69852   8.844   5.599   7.555 -0.6387 -0.3485 -0.8492
  518MOL0     C69853   8.868   5.520   7.674  0.8592  0.1010  0.6245
  518MOL0     O69854   8.982   5.527   7.756  0.1705 -0.0117  0.3581
  518MOL0     C69855   9.095   5.608   7.708  0.1633  0.6015 -0.8789
  518MOL0     C69856   9.223   5.572   7.784  0.6926 -0.7141 -0.6249
  518MOL0     C69857   9.283   5.451   7.714  0.4402  0.1147 -0.7720
  518MOL0     C69858   9.399   5.408   7.791 -0.2445  0.2897  0.3239
  518MOL0     C69859   9.456   5.287   7.734  0.1259  0.8477 -0.0017
  518MOL0     C69860   9.492   5.174   7.700 -0.1334 -0.3055 -0.3060
  518MOL0     C69861   8.762   5.450   7.723 -0.1675 -0.4737 -0.3636
  518MOL0     C69862   8.633   5.451   7.669 -0.3359  0.0857  0.6325
  518MOL0     H69863   8.246   5.414   7.397  2.2031  3.9345  2.3348
  518MOL0     H69864   8.056   5.416   7.216  0.1217  1.6130  0.2927
  518MOL0     H69865   7.996   5.773   6.994  2.5729 -0.9721 -0.6429
  518MOL0     H69866   8.065   5.681   6.865  0.9605 -1.9907  0.6143
  518MOL0     H69867   7.832   5.737   6.834  0.5358  0.9381  1.3158
  518MOL0     H69868   7.845   5.561   6.853  2.7832 -0.7521  0.8848
  518MOL0     H69869   7.742   5.580   7.074  2.5272 -0.0951 -2.2063
  518MOL0     H69870   7.814   5.738   7.107  0.5507  1.6995 -0.1090
  518MOL0     H69871   7.594   5.732   6.908 -2.2302 -2.7645  0.6418
  518MOL0     H69872   7.549   5.696   7.059 -0.7302 -0.6168 -1.8440
  518MOL0     H69873   7.622   5.906   7.165 -0.3369 -1.4171 -1.1197
  518MOL0     H69874   7.719   5.953   7.027 -1.5765  3.2380 -2.0356
  518MOL0     H69875   7.526   5.987   6.892  2.1078 -0.8821 -0.0250
  518MOL0     H69876   7.421   5.894   6.988 -0.5908  1.3473  0.2587
  518MOL0     H69877   7.501   6.088   7.176 -0.9245  3.2650  0.1738
  518MOL0     H69878   7.547   6.171   7.028  0.9251  0.1575  0.4094
  518MOL0     H69879   7.307   6.136   6.931 -1.1248 -1.7258 -1.0861
  518MOL0     H69880   7.318   6.237   7.068  1.9668  0.8557 -1.5999
  518MOL0     H69881   7.325   6.027   7.327 -0.4375  2.9645 -0.3468
  518MOL0     H69882   7.147   5.896   7.472 -0.7513 -0.7173  0.7493
  518MOL0     H69883   7.000   5.832   7.385 -0.6884 -0.7475 -0.5655
  518MOL0     H69884   7.190   5.665   7.488  0.5781 -2.5137 -0.6612
  518MOL0     H69885   7.266   5.694   7.334  0.0698  0.3671  1.4698
  518MOL0     H69886   7.046   5.633   7.220 -1.3976  1.8025  1.4144
  518MOL0     H69887   6.995   5.607   7.392  1.7857 -0.7519  3.6365
  518MOL0     H69888   7.220   5.449   7.231  1.0765  1.9659  0.2050
  518MOL0     H69889   7.061   5.401   7.254  1.5111 -1.8746  1.9539
  518MOL0     H69890   7.405   5.492   7.297 -3.7784 -1.1646 -1.0042
  518MOL0     H69891   7.728   5.360   7.283  2.1360  0.4871  1.4878
  518MOL0     H69892   7.627   5.497   7.239 -0.3270  1.9514  1.5073
  518MOL0     H69893   7.720   5.501   7.386  0.7626 -1.1067 -0.5495
  518MOL0     H69894   7.949   5.214   7.712 -3.0653  0.6242 -2.2363
  518MOL0     H69895   8.150   5.084   7.731  1.6121  0.1737 -1.9857
  518MOL0     H69896   8.306   4.867   7.379 -0.4056  1.7263 -0.7129
  518MOL0     H69897   8.357   5.026   7.347  1.1309  0.5739 -0.1476
  518MOL0     H69898   8.537   4.830   7.395 -1.0273 -1.7197  1.4665
  518MOL0     H69899   8.566   4.997   7.423  0.1016 -1.7333 -2.8155
  518MOL0     H69900   8.446   4.804   7.650  1.2439  0.8818  2.1898
  518MOL0     H69901   8.516   4.960   7.666 -0.5039 -1.9416  2.7716
  518MOL0     H69902   8.658   4.705   7.601  2.2158 -0.5868 -1.3457
  518MOL0     H69903   8.725   4.856   7.560 -0.0175 -1.4028 -0.4243
  518MOL0     H69904   8.635   4.786   7.852  0.5603 -3.8512 -1.6135
  518MOL0     H69905   8.718   4.937   7.794 -1.2545 -0.5877 -0.1532
  518MOL0     H69906   8.811   4.644   7.764  0.0209  0.0429 -0.7095
  518MOL0     H69907   8.911   4.785   7.716  2.5955 -0.7426  1.1618
  518MOL0     H69908   8.813   4.688   7.996 -1.7487  0.1887 -1.6664
  518MOL0     H69909   8.906   4.835   7.955  0.3172  0.9006 -1.1018
  518MOL0     H69910   9.060   4.668   8.041 -3.9806  0.6853  1.7285
  518MOL0     H69911   9.098   4.719   7.881  0.6052 -1.9204  0.4372
  518MOL0     H69912   8.138   5.012   7.307  0.6610 -0.3571  0.9856
  518MOL0     H69913   7.921   5.132   7.293 -0.8194 -3.0892  1.0012
  518MOL0     H69914   7.451   5.137   7.634  1.4281 -1.9381 -2.2902
  518MOL0     H69915   7.237   5.220   7.584  0.8898  0.1760  1.2966
  518MOL0     H69916   8.255   5.753   7.041 -0.0620 -1.4353 -1.3902
  518MOL0     H69917   8.429   5.730   7.168 -1.7021  1.6142  0.7763
  518MOL0     H69918   8.691   5.651   7.406  0.3413 -0.9754 -0.1467
  518MOL0     H69919   8.929   5.653   7.515  0.3331 -0.6711  0.6883
  518MOL0     H69920   9.107   5.598   7.599  0.0267 -2.5672 -0.6959
  518MOL0     H69921   9.066   5.712   7.719  0.0030  0.6676 -1.8518
  518MOL0     H69922   9.208   5.542   7.887  2.6473 -0.0775 -0.1158
  518MOL0     H69923   9.289   5.659   7.775  1.4140 -1.3818 -2.2249
  518MOL0     H69924   9.312   5.469   7.610  1.4153 -0.0290 -0.5325
  518MOL0     H69925   9.204   5.375   7.710 -0.2628  0.8514 -1.2828
  518MOL0     H69926   9.358   5.385   7.891 -1.2797  1.1289  0.1137
  518MOL0     H69927   9.474   5.487   7.797 -0.2178  0.5118 -2.2048
  518MOL0     H69928   9.513   5.076   7.663 -1.1206 -2.1484  3.4989
  518MOL0     H69929   8.775   5.386   7.809 -3.8026 -2.8920 -1.4153
  518MOL0     H69930   8.559   5.386   7.715 -0.4402  0.7302  1.3887
  519MOL0     O69931   3.155   6.496   1.212 -0.4171  0.4299  0.5089
  519MOL0     C69932   3.250   6.469   1.289  0.3716 -0.1408  0.4365
  519MOL0     O69933   3.241   6.474   1.432  0.2869  0.0663  0.0858
  519MOL0     C69934   3.115   6.467   1.483  0.3414 -0.9471  0.3812
  519MOL0     C69935   3.025   6.566   1.450 -0.1693 -0.1901 -0.2670
  519MOL0     C69936   2.902   6.562   1.514 -0.6425 -0.0461  0.3042
  519MOL0     C69937   2.871   6.461   1.603 -0.3848 -0.3658 -0.3024
  519MOL0     O69938   2.757   6.450   1.672  0.8996 -0.1661  0.4885
  519MOL0     C69939   2.648   6.528   1.621  0.2500 -0.7781  0.0823
  519MOL0     C69940   2.524   6.472   1.696 -0.4405  0.6478  0.1502
  519MOL0     C69941   2.404   6.541   1.633 -0.1733  0.3143  0.2387
  519MOL0     C69942   2.270   6.474   1.677 -0.7133  0.3724  0.4723
  519MOL0     C69943   2.156   6.554   1.606  0.3102 -0.0002  0.0963
  519MOL0     C69944   2.052   6.601   1.712 -0.5602 -0.2518  0.2950
  519MOL0     C69945   1.959   6.702   1.647  0.4839 -0.2513 -0.2377
  519MOL0     C69946   1.827   6.725   1.730 -0.9406  0.5048  0.6387
  519MOL0     N69947   1.733   6.604   1.725  0.4912  0.0664  0.8905
  519MOL0     C69948   1.599   6.608   1.703 -0.5867 -0.9069  0.0724
  519MOL0     C69949   1.552   6.487   1.734 -0.2187  0.0995  0.6237
  519MOL0     C69950   1.408   6.431   1.713  0.5151 -0.1745  0.3182
  519MOL0     C69951   1.297   6.462   1.814 -0.4035  0.5515 -0.1789
  519MOL0     C69952   1.336   6.416   1.954 -0.0825  0.2728 -0.6154
  519MOL0     C69953   1.403   6.523   2.039  0.0841  0.1004  0.1292
  519MOL0     O69954   1.397   6.485   2.171 -0.3328  0.1968 -0.3328
  519MOL0     C69955   1.284   6.513   2.249 -0.3148  0.6947  1.2754
  519MOL0     C69956   1.212   6.630   2.232 -0.0415  0.8940 -1.0695
  519MOL0     C69957   1.103   6.660   2.320  0.5061  0.2073 -1.4706
  519MOL0     C69958   1.023   6.789   2.294 -0.1569 -0.1356  0.7462
  519MOL0     C69959   1.069   6.577   2.435 -0.5040 -0.3268 -0.0311
  519MOL0     C69960   0.954   6.608   2.537  0.9679  0.4009  0.1335
  519MOL0     O69961   0.872   6.496   2.563 -0.6170 -0.8825  0.6909
  519MOL0     C69962   0.743   6.512   2.599 -0.1185  0.8343 -0.7350
  519MOL0     C69963   0.676   6.402   2.650  1.2669  0.4668 -0.7633
  519MOL0     C69964   0.536   6.409   2.679  0.9733  0.7069  0.1917
  519MOL0     C69965   0.464   6.532   2.656 -0.9861  0.4229 -1.2613
  519MOL0     O69966   0.329   6.548   2.679  0.4203  0.1188 -0.5579
  519MOL0     C69967   0.242   6.455   2.744 -0.2968 -0.1886 -0.3245
  519MOL0     C69968   0.140   6.530   2.817  0.1156  0.2203  0.0232
  519MOL0     C69969   0.197   6.627   2.919  0.2030  0.2902  0.1827
  519MOL0     C69970   0.097   6.635   3.031  0.6509 -0.0708  0.8028
  519MOL0     C69971   0.088   6.769   3.109  0.4697  0.1393  0.5581
  519MOL0     C69972  -0.045   6.793   3.169  0.4178 -0.3265  0.2794
  519MOL0     C69973  -0.106   6.667   3.228 -0.6132 -0.4744  0.0549
  519MOL0     C69974  -0.219   6.690   3.325  0.1920 -0.2659 -0.1272
  519MOL0    Cl69975  -0.336   6.813   3.263 -0.2805 -0.0003  0.1367
  519MOL0     C69976   0.534   6.638   2.610 -0.4552 -0.1587 -0.9751
  519MOL0     C69977   0.673   6.637   2.573 -0.2749  0.0120 -0.5482
  519MOL0     O69978   0.936   6.716   2.590  0.1274 -0.2228  0.2339
  519MOL0     C69979   1.148   6.458   2.445  0.0941 -0.3072  0.5706
  519MOL0     C69980   1.248   6.425   2.353 -1.5486  0.6257  0.5215
  519MOL0     N69981   1.658   6.421   1.792 -0.9839  0.6707 -0.3158
  519MOL0     N69982   1.767   6.489   1.787 -0.0933  0.5235 -1.1555
  519MOL0     C69983   2.964   6.362   1.641 -0.6253  0.5523 -0.1207
  519MOL0     C69984   3.086   6.360   1.577 -0.4555 -0.4584  0.1587
  519MOL0     C69985   3.382   6.456   1.223  0.2645  0.9424 -0.8535
  519MOL0     C69986   3.398   6.422   1.086 -1.0298  0.6303  0.1026
  519MOL0     C69987   3.530   6.393   1.029 -0.1991 -0.1947 -0.0902
  519MOL0     C69988   3.645   6.411   1.110  0.2585 -0.8752 -0.3280
  519MOL0     O69989   3.761   6.401   1.035  0.1698  0.0804 -0.2819
  519MOL0     C69990   3.884   6.425   1.102  0.4414 -0.1707  0.2732
  519MOL0     C69991   3.990   6.462   0.995 -0.4040 -0.9434  0.1751
  519MOL0     C69992   4.132   6.468   1.057  0.4079 -0.4094  0.2257
  519MOL0     C69993   4.224   6.507   0.943 -0.2683  0.4662  0.4982
  519MOL0     C69994   4.364   6.510   0.978  1.5324  0.4881 -1.0965
  519MOL0     C69995   4.480   6.512   0.990 -0.6315  0.3916 -0.0152
  519MOL0     C69996   3.624   6.448   1.249  0.1321 -0.1581  0.4845
  519MOL0     C69997   3.500   6.472   1.304 -0.0600 -0.3851  0.7535
  519MOL0     H69998   3.049   6.646   1.381 -0.5127 -0.4003 -0.6296
  519MOL0     H69999   2.833   6.640   1.483  0.0305  0.5101  0.1822
  519MOL0     H70000   2.648   6.634   1.647 -0.4951 -0.5934 -0.6483
  519MOL0     H70001   2.628   6.519   1.514  0.7316 -0.1244 -0.0656
  519MOL0     H70002   2.518   6.365   1.675 -2.8129  0.7592 -0.0093
  519MOL0     H70003   2.530   6.479   1.805  2.3652 -1.3072  0.2311
  519MOL0     H70004   2.409   6.648   1.651 -0.4117  0.1805  1.1232
  519MOL0     H70005   2.411   6.532   1.524 -2.2097  0.7494  0.0354
  519MOL0     H70006   2.268   6.371   1.640  2.1048  1.3417 -2.9581
  519MOL0     H70007   2.276   6.467   1.786  0.2975 -2.0852  0.3235
  519MOL0     H70008   2.201   6.646   1.568  0.8461 -0.8733 -1.5109
  519MOL0     H70009   2.111   6.509   1.517  2.9505 -0.0219 -1.3441
  519MOL0     H70010   2.004   6.512   1.755  1.4856 -1.7742 -0.3920
  519MOL0     H70011   2.099   6.642   1.802  1.0492  1.4192 -1.2277
  519MOL0     H70012   1.998   6.805   1.640  1.1798 -0.4070  1.0189
  519MOL0     H70013   1.944   6.675   1.542  1.5577 -0.8712 -0.2406
  519MOL0     H70014   1.773   6.805   1.678 -4.3470 -2.2506 -0.4425
  519MOL0     H70015   1.850   6.760   1.831 -0.3267  0.0487  0.6631
  519MOL0     H70016   1.544   6.692   1.664 -0.7476  0.1939  2.5051
  519MOL0     H70017   1.369   6.480   1.623 -0.5153  1.3700  1.5521
  519MOL0     H70018   1.413   6.323   1.697  3.5047  0.1512 -1.6863
  519MOL0     H70019   1.202   6.412   1.794 -1.8329  2.1227  2.3032
  519MOL0     H70020   1.275   6.568   1.802 -0.0659  1.0088  2.5977
  519MOL0     H70021   1.398   6.327   1.970 -0.2661  0.3520  0.6895
  519MOL0     H70022   1.242   6.392   2.004  0.6886  0.9288  1.2623
  519MOL0     H70023   1.363   6.621   2.014  1.9621  0.2090 -2.8841
  519MOL0     H70024   1.507   6.541   2.010  0.0912 -0.1077  0.0201
  519MOL0     H70025   1.231   6.710   2.161  0.3673  2.9183  1.1596
  519MOL0     H70026   0.920   6.782   2.330 -0.3525  0.7476  0.3920
  519MOL0     H70027   1.072   6.868   2.352  0.1043 -0.4111  0.9037
  519MOL0     H70028   1.022   6.813   2.187  3.4453 -0.9596  0.3978
  519MOL0     H70029   0.708   6.300   2.672 -1.2074 -0.5115 -1.4603
  519MOL0     H70030   0.483   6.331   2.734 -3.1653  1.0625 -2.8429
  519MOL0     H70031   0.193   6.389   2.672  1.3385 -0.6465 -1.0708
  519MOL0     H70032   0.294   6.386   2.811  1.2845 -0.5986 -1.8934
  519MOL0     H70033   0.078   6.584   2.745  0.7305 -0.1550 -0.8014
  519MOL0     H70034   0.083   6.460   2.878 -0.2788  1.2218  0.8376
  519MOL0     H70035   0.226   6.715   2.861  4.8913 -1.5828 -0.7084
  519MOL0     H70036   0.284   6.587   2.971 -1.6287 -3.0595  0.9357
  519MOL0     H70037   0.003   6.596   2.990  2.1308 -6.2398  2.2619
  519MOL0     H70038   0.127   6.551   3.095  4.4772 -0.4612 -1.2132
  519MOL0     H70039   0.114   6.852   3.043  0.2939 -1.0968 -1.1382
  519MOL0     H70040   0.160   6.769   3.192  0.3997 -1.2078  0.6445
  519MOL0     H70041  -0.020   6.862   3.250  0.9955  0.5085 -0.5951
  519MOL0     H70042  -0.109   6.850   3.101  1.1360  0.0413 -0.1072
  519MOL0     H70043  -0.037   6.599   3.280 -1.2191  0.0025  1.5068
  519MOL0     H70044  -0.151   6.612   3.144 -0.7783 -2.4035  1.3424
  519MOL0     H70045  -0.174   6.723   3.419 -0.8763 -1.6607  0.9409
  519MOL0     H70046  -0.283   6.601   3.325 -1.2852  0.6618 -3.0331
  519MOL0     H70047   0.479   6.728   2.583 -0.0620 -0.5004 -3.1284
  519MOL0     H70048   0.713   6.729   2.532 -1.3867  0.8476  0.1594
  519MOL0     H70049   1.122   6.393   2.529 -2.2358 -1.3136 -0.8393
  519MOL0     H70050   1.308   6.335   2.364 -1.2947  1.0842  3.6451
  519MOL0     H70051   2.933   6.284   1.710  0.5081  0.4153  0.2448
  519MOL0     H70052   3.164   6.287   1.593  0.8842  0.8815 -0.0837
  519MOL0     H70053   3.316   6.405   1.017  2.3149 -3.2210 -3.3965
  519MOL0     H70054   3.540   6.370   0.924  0.5325  1.3111 -0.3768
  519MOL0     H70055   3.868   6.507   1.172  1.3536  1.6172 -1.4971
  519MOL0     H70056   3.914   6.335   1.157 -1.0622 -0.7205  0.2389
  519MOL0     H70057   3.977   6.550   0.931  1.2733 -0.4718  0.4542
  519MOL0     H70058   3.984   6.383   0.920 -0.3580 -1.1244  0.3593
  519MOL0     H70059   4.165   6.373   1.101  0.4678 -0.7031 -0.4335
  519MOL0     H70060   4.129   6.547   1.132  1.5079  1.1364 -1.3044
  519MOL0     H70061   4.207   6.605   0.898  2.2901  1.7139  2.0057
  519MOL0     H70062   4.216   6.433   0.863 -2.8464  0.7484  0.4108
  519MOL0     H70063   4.585   6.518   1.009 -0.7472 -0.4139  1.0285
  519MOL0     H70064   3.701   6.454   1.325 -0.8018 -0.2869  1.4744
  519MOL0     H70065   3.484   6.493   1.409 -2.7436 -1.9412  0.7470
  520MOL0     O70066   6.549   2.706   3.743 -0.0999 -0.0207 -0.6758
  520MOL0     C70067   6.536   2.592   3.776 -0.3048  0.1492 -0.1001
  520MOL0     O70068   6.424   2.519   3.773  1.0074 -0.0347  0.2061
  520MOL0     C70069   6.299   2.574   3.749 -0.0963 -0.6914 -0.8102
  520MOL0     C70070   6.258   2.706   3.785 -0.1847  0.7551  0.1191
  520MOL0     C70071   6.132   2.758   3.768 -0.0090  0.6835 -0.9038
  520MOL0     C70072   6.039   2.671   3.724  0.3485 -0.4301 -0.5443
  520MOL0     O70073   5.911   2.734   3.703 -1.2199 -0.0140  0.2344
  520MOL0     C70074   5.804   2.661   3.637 -0.2826  0.2647 -0.1998
  520MOL0     C70075   5.669   2.738   3.622 -0.7879 -0.2312 -0.1661
  520MOL0     C70076   5.667   2.851   3.527  1.0831 -0.5883 -0.9713
  520MOL0     C70077   5.523   2.925   3.517 -0.2976  0.0680  0.6466
  520MOL0     C70078   5.534   3.034   3.401  0.4326  0.2454 -0.2998
  520MOL0     C70079   5.613   3.158   3.453  0.0085  0.5044  0.0233
  520MOL0     C70080   5.633   3.252   3.329 -0.7361 -0.8125 -0.2974
  520MOL0     C70081   5.786   3.276   3.319 -0.2594  0.1810  0.6334
  520MOL0     N70082   5.868   3.155   3.277  0.3395  0.3761 -0.1399
  520MOL0     C70083   5.872   3.094   3.152  0.8120  0.6819 -0.0654
  520MOL0     C70084   5.953   2.985   3.173 -0.5699 -0.7015  0.0150
  520MOL0     C70085   6.013   2.897   3.070  0.4096 -0.7757 -0.1499
  520MOL0     C70086   5.918   2.793   3.008  0.3420 -0.2489  0.0534
  520MOL0     C70087   5.871   2.698   3.107 -0.7534  0.8184  0.1133
  520MOL0     C70088   5.810   2.565   3.038  0.2595 -0.1114  0.0939
  520MOL0     O70089   5.829   2.450   3.122  0.9818 -0.4463 -0.3716
  520MOL0     C70090   5.753   2.432   3.233 -0.4697  0.0425  0.1602
  520MOL0     C70091   5.806   2.355   3.331  0.2060  0.7961 -0.7168
  520MOL0     C70092   5.740   2.336   3.459  0.4773 -0.7697  0.4806
  520MOL0     C70093   5.799   2.245   3.565 -0.2106 -0.0659 -0.9682
  520MOL0     C70094   5.608   2.399   3.470 -0.6205  0.0734 -0.2324
  520MOL0     C70095   5.519   2.388   3.590  0.1522 -0.8766 -0.2309
  520MOL0     O70096   5.402   2.447   3.585  0.1901 -0.1491 -0.3736
  520MOL0     C70097   5.292   2.413   3.664 -0.0866 -0.1799  0.7491
  520MOL0     C70098   5.298   2.423   3.800 -0.4135 -0.1602 -0.3842
  520MOL0     C70099   5.190   2.402   3.887  0.7118 -0.7536  0.5995
  520MOL0     C70100   5.072   2.345   3.828 -0.4863  0.1122 -0.4573
  520MOL0     O70101   4.968   2.297   3.893  0.1140  0.4217 -0.1470
  520MOL0     C70102   5.006   2.228   4.019  0.2710  0.5348 -0.2490
  520MOL0     C70103   4.883   2.158   4.070 -1.1229 -0.0690 -0.7636
  520MOL0     C70104   4.895   2.119   4.218 -0.4989  0.0709 -0.7294
  520MOL0     C70105   4.772   2.056   4.289  0.6131 -0.5864 -1.0938
  520MOL0     C70106   4.820   1.987   4.416 -0.3166  0.6963  0.2097
  520MOL0     C70107   4.717   1.880   4.468  0.1037  0.3315 -0.3586
  520MOL0     C70108   4.576   1.932   4.513  0.3645 -0.4076 -0.2815
  520MOL0     C70109   4.457   1.861   4.440 -0.0755 -0.0347  0.5171
  520MOL0    Cl70110   4.295   1.858   4.533  0.8085 -0.4129  0.3472
  520MOL0     C70111   5.063   2.332   3.687  0.3925 -0.1364  0.3155
  520MOL0     C70112   5.176   2.366   3.601  0.6233 -0.5364 -0.6662
  520MOL0     O70113   5.566   2.337   3.691 -0.3523 -0.3692 -0.0229
  520MOL0     C70114   5.557   2.470   3.364  0.9682  0.0823  0.2930
  520MOL0     C70115   5.625   2.482   3.249 -0.4937  0.3263 -0.0196
  520MOL0     N70116   5.975   2.970   3.304 -0.2011 -0.1389  0.1095
  520MOL0     N70117   5.925   3.073   3.362 -0.1546  0.4169  0.2454
  520MOL0     C70118   6.069   2.539   3.700 -0.4210  0.3630  0.7310
  520MOL0     C70119   6.197   2.491   3.710  0.4123  0.5660 -0.5874
  520MOL0     C70120   6.664   2.522   3.799 -0.3275  0.4830 -0.2713
  520MOL0     C70121   6.684   2.385   3.821  0.1540 -0.8707  0.1242
  520MOL0     C70122   6.804   2.311   3.835  0.0866 -0.1021  0.1374
  520MOL0     C70123   6.917   2.388   3.833 -1.0620 -0.1372  0.0572
  520MOL0     O70124   7.040   2.327   3.852 -0.4546  0.6402 -0.1814
  520MOL0     C70125   7.120   2.380   3.957 -0.4546  0.3006  0.0477
  520MOL0     C70126   7.260   2.413   3.910 -0.4526 -0.1256 -0.3707
  520MOL0     C70127   7.368   2.455   4.016  0.0211  0.3299  0.2961
  520MOL0     C70128   7.511   2.444   3.965 -1.2201 -0.3187  0.5290
  520MOL0     C70129   7.615   2.471   4.058 -0.4574 -0.5338 -0.0408
  520MOL0     C70130   7.693   2.480   4.150 -0.0256 -0.0076  0.3073
  520MOL0     C70131   6.908   2.526   3.812 -0.3406 -0.1842 -0.2785
  520MOL0     C70132   6.788   2.590   3.802 -0.1184  0.3261  0.2491
  520MOL0     H70133   6.345   2.757   3.825  2.0231 -3.2052  0.9042
  520MOL0     H70134   6.104   2.861   3.791  1.5111  0.7324  0.9187
  520MOL0     H70135   5.836   2.615   3.544 -0.6242 -3.4033  1.2991
  520MOL0     H70136   5.786   2.575   3.702  0.6786 -0.8908 -1.4277
  520MOL0     H70137   5.595   2.662   3.595  2.4429 -2.7009 -2.9469
  520MOL0     H70138   5.638   2.780   3.719  0.4847 -0.2880  0.2833
  520MOL0     H70139   5.745   2.923   3.552  1.8439 -1.2094 -1.5069
  520MOL0     H70140   5.690   2.823   3.424  2.7658  0.4567 -0.9096
  520MOL0     H70141   5.448   2.851   3.489  0.2651  0.0882 -1.0532
  520MOL0     H70142   5.487   2.982   3.603 -0.4032  1.0650 -0.0415
  520MOL0     H70143   5.594   2.987   3.323 -0.5930 -1.9351  0.1535
  520MOL0     H70144   5.432   3.057   3.370  0.0663 -1.9629 -0.8514
  520MOL0     H70145   5.567   3.207   3.539 -0.2560  0.3699 -0.0416
  520MOL0     H70146   5.706   3.121   3.496  0.2037 -0.5073 -1.1926
  520MOL0     H70147   5.603   3.218   3.230  0.2964  0.7211 -1.1829
  520MOL0     H70148   5.583   3.348   3.342 -1.2454 -1.0377 -0.5864
  520MOL0     H70149   5.828   3.314   3.412 -2.6201  2.1873  1.0130
  520MOL0     H70150   5.794   3.352   3.240 -1.0563  0.1556  0.5157
  520MOL0     H70151   5.831   3.128   3.058  1.6448 -0.0312 -0.7055
  520MOL0     H70152   6.046   2.957   2.985 -2.1432 -0.1362 -0.7450
  520MOL0     H70153   6.100   2.841   3.108  1.6078  1.1034  0.0380
  520MOL0     H70154   5.967   2.750   2.920 -2.1064  2.2512 -2.7855
  520MOL0     H70155   5.826   2.842   2.973 -0.6740 -0.5884  2.0889
  520MOL0     H70156   5.809   2.747   3.182  0.7510  1.1185  1.2012
  520MOL0     H70157   5.965   2.661   3.149 -1.2604 -2.3426 -1.2670
  520MOL0     H70158   5.871   2.537   2.952 -1.1199  1.2305 -1.4130
  520MOL0     H70159   5.708   2.563   2.998  0.5175 -0.8951 -0.5591
  520MOL0     H70160   5.902   2.306   3.323 -0.8203 -1.2419 -1.3510
  520MOL0     H70161   5.728   2.164   3.583  0.3384 -0.5427 -0.9149
  520MOL0     H70162   5.892   2.201   3.529 -0.2751 -1.1847  0.1739
  520MOL0     H70163   5.821   2.302   3.656 -0.3750 -1.9062  0.2778
  520MOL0     H70164   5.386   2.460   3.851 -0.9662  1.0650 -0.2792
  520MOL0     H70165   5.194   2.430   3.992 -0.8841  2.8380 -0.1487
  520MOL0     H70166   5.091   2.162   4.002  1.2065  2.2216 -2.7245
  520MOL0     H70167   5.034   2.303   4.093 -2.1462  0.5282  0.7612
  520MOL0     H70168   4.813   2.242   4.061 -0.0797  0.7677 -1.4497
  520MOL0     H70169   4.844   2.080   4.004 -2.5256 -0.6104  0.6423
  520MOL0     H70170   4.917   2.207   4.279 -1.7615  1.7885 -2.6474
  520MOL0     H70171   4.982   2.054   4.233  0.9055  1.6239 -1.8605
  520MOL0     H70172   4.690   2.126   4.309 -0.5753 -2.2404  0.0238
  520MOL0     H70173   4.733   1.976   4.225  0.0408 -1.5878  0.4537
  520MOL0     H70174   4.840   2.058   4.495 -2.0182  0.3035  1.0516
  520MOL0     H70175   4.916   1.938   4.401  0.4431  0.5715  4.3504
  520MOL0     H70176   4.696   1.818   4.381  0.3319  0.4321 -0.4883
  520MOL0     H70177   4.766   1.813   4.539 -1.8413  0.6292  1.3405
  520MOL0     H70178   4.557   2.039   4.501  0.2144 -0.4579 -0.4799
  520MOL0     H70179   4.572   1.899   4.618 -1.3834 -3.5145 -1.2068
  520MOL0     H70180   4.480   1.755   4.423 -0.7946 -1.0855  4.8704
  520MOL0     H70181   4.436   1.893   4.338 -1.4790 -2.2238  0.0588
  520MOL0     H70182   4.968   2.300   3.646  0.1932 -3.2409  2.8023
  520MOL0     H70183   5.162   2.357   3.494 -0.6870  0.8014 -0.6312
  520MOL0     H70184   5.462   2.523   3.362  0.6463 -0.4595  0.8078
  520MOL0     H70185   5.586   2.524   3.157  2.2872 -0.6881 -1.7863
  520MOL0     H70186   5.993   2.466   3.670  0.0370  0.4561 -0.7219
  520MOL0     H70187   6.216   2.389   3.681 -1.5371  0.1231 -0.3940
  520MOL0     H70188   6.598   2.319   3.818  3.4297 -5.5915 -1.6182
  520MOL0     H70189   6.807   2.203   3.833  1.3330 -0.1299 -2.8292
  520MOL0     H70190   7.082   2.474   3.999 -3.1243 -1.4317  1.8930
  520MOL0     H70191   7.125   2.312   4.043 -2.5699 -2.3215 -1.7388
  520MOL0     H70192   7.255   2.498   3.841  2.4584 -0.3309 -0.9376
  520MOL0     H70193   7.296   2.325   3.857  3.1880  0.7717  0.3388
  520MOL0     H70194   7.365   2.388   4.103 -1.8202  0.0089  0.0239
  520MOL0     H70195   7.351   2.558   4.049  0.2381  0.7483 -0.8667
  520MOL0     H70196   7.522   2.516   3.883  1.8758 -1.8478 -0.5463
  520MOL0     H70197   7.525   2.345   3.921  0.5070  1.2269 -2.7528
  520MOL0     H70198   7.758   2.497   4.234  0.6372 -2.3898  0.3504
  520MOL0     H70199   7.003   2.579   3.810 -0.0102 -0.6754 -3.6063
  520MOL0     H70200   6.796   2.697   3.786  1.4693  0.0832 -0.8952
  521MOL0     O70201   0.934  11.279   5.470 -0.3153  0.6245 -0.3716
  521MOL0     C70202   0.934  11.159   5.507  0.5662  0.4473  1.4148
  521MOL0     O70203   0.950  11.060   5.421 -0.1434  0.5853 -0.3532
  521MOL0     C70204   0.938  11.083   5.287 -0.7358  0.4357  1.1301
  521MOL0     C70205   1.040  11.152   5.218 -0.6202 -0.2170 -0.7071
  521MOL0     C70206   1.031  11.158   5.078 -0.4352  0.5859 -0.0939
  521MOL0     C70207   0.927  11.101   5.010 -0.7871  0.2526 -0.0638
  521MOL0     O70208   0.912  11.121   4.881 -0.4840 -0.1562 -0.2062
  521MOL0     C70209   0.886  11.015   4.789  0.9226 -0.0205 -0.7530
  521MOL0     C70210   0.833  11.087   4.658  0.0809 -0.1742 -0.3502
  521MOL0     C70211   0.702  11.166   4.691 -0.5296 -0.4574  0.8059
  521MOL0     C70212   0.685  11.280   4.585 -0.3150  0.2146  1.1288
  521MOL0     C70213   0.547  11.331   4.607  0.2177 -0.3996  0.5907
  521MOL0     C70214   0.505  11.434   4.499  0.6283  0.0033  0.5319
  521MOL0     C70215   0.362  11.494   4.529 -0.1820 -0.1661  0.2106
  521MOL0     C70216   0.325  11.626   4.457 -0.4889 -1.0588  0.7794
  521MOL0     N70217   0.194  11.683   4.495  0.3009  0.6201  0.0075
  521MOL0     C70218   0.137  11.704   4.621 -0.5409  0.7253  0.4074
  521MOL0     C70219   0.004  11.734   4.593  0.9285  0.2959 -1.0091
  521MOL0     C70220  -0.100  11.776   4.703 -0.6082  0.0548  1.3750
  521MOL0     C70221  -0.258  11.738   4.685  0.2189  0.5051  0.7043
  521MOL0     C70222  -0.336  11.830   4.780 -0.1415 -0.2382  0.3244
  521MOL0     C70223  -0.295  11.818   4.929 -0.0260  0.4061  0.3815
  521MOL0     O70224  -0.180  11.891   4.960  0.5347  0.0274  0.1306
  521MOL0     C70225  -0.121  11.855   5.081 -0.3659  0.0535 -0.2931
  521MOL0     C70226   0.009  11.875   5.101  0.8881  0.5582 -0.1367
  521MOL0     C70227   0.076  11.851   5.221  0.1028 -0.9060 -1.2789
  521MOL0     C70228   0.228  11.863   5.227 -0.6092  0.2764 -0.0509
  521MOL0     C70229   0.012  11.799   5.333  0.1653  0.9419  0.1085
  521MOL0     C70230   0.061  11.758   5.460  0.4092  0.1774 -0.1913
  521MOL0     O70231  -0.001  11.652   5.517  0.2895 -0.4470 -0.2379
  521MOL0     C70232   0.050  11.602   5.640  1.0426  0.7683  0.4506
  521MOL0     C70233   0.077  11.681   5.756  0.5955 -0.7590  0.1524
  521MOL0     C70234   0.130  11.633   5.874  0.5016  0.7962 -0.4453
  521MOL0     C70235   0.160  11.495   5.886 -0.3728 -0.7433  0.6974
  521MOL0     O70236   0.217  11.447   5.997 -0.1434 -0.2127 -0.1117
  521MOL0     C70237   0.198  11.310   6.031  0.8806 -0.0467 -0.6199
  521MOL0     C70238   0.198  11.301   6.190  1.2035 -0.3362  0.3077
  521MOL0     C70239   0.073  11.373   6.244 -0.1006  0.1067  0.3316
  521MOL0     C70240   0.083  11.528   6.275  0.2198  0.1325 -0.2141
  521MOL0     C70241  -0.053  11.573   6.345  0.3134 -0.8507  0.2488
  521MOL0     C70242  -0.037  11.615   6.501 -0.0457  0.6580  0.3723
  521MOL0     C70243  -0.151  11.693   6.559 -1.2935 -0.2867 -1.1186
  521MOL0     C70244  -0.154  11.686   6.716  0.5304 -0.8878 -0.3962
  521MOL0    Cl70245  -0.160  11.530   6.771  0.3255  0.4176 -0.5115
  521MOL0     C70246   0.141  11.413   5.776 -0.3578 -0.5180  0.7256
  521MOL0     C70247   0.086  11.464   5.653  0.2847  0.3959 -0.5538
  521MOL0     O70248   0.147  11.818   5.516 -0.7143  0.2818 -0.6524
  521MOL0     C70249  -0.122  11.769   5.309 -0.3677  0.1880 -0.5746
  521MOL0     C70250  -0.190  11.799   5.192 -1.1771 -0.6047 -0.1316
  521MOL0     N70251  -0.012  11.739   4.455 -0.1181 -0.1656  0.2118
  521MOL0     N70252   0.098  11.697   4.400  0.0402 -0.0463  0.3218
  521MOL0     C70253   0.824  11.043   5.081  0.7982 -0.5571 -0.3650
  521MOL0     C70254   0.827  11.025   5.220  0.1450  0.2562  0.1467
  521MOL0     C70255   0.942  11.134   5.649 -0.6666  0.7992  0.7142
  521MOL0     C70256   0.959  11.240   5.750 -0.0164 -0.6976  1.0138
  521MOL0     C70257   0.948  11.217   5.883  0.7235  0.4326  0.4520
  521MOL0     C70258   0.920  11.090   5.926 -0.1460 -0.0492 -0.6640
  521MOL0     O70259   0.904  11.064   6.059 -0.4149 -0.1957  0.8389
  521MOL0     C70260   0.878  11.171   6.151 -0.4186  0.0070 -0.1771
  521MOL0     C70261   0.820  11.119   6.288  0.8531  0.0123  0.3094
  521MOL0     C70262   0.769  11.232   6.384  0.0370 -0.2135  0.3450
  521MOL0     C70263   0.733  11.178   6.528 -0.1537  0.1634 -1.2756
  521MOL0     C70264   0.636  11.267   6.600 -0.5143  0.2784 -0.2779
  521MOL0     C70265   0.566  11.329   6.677  0.0217 -0.1396 -1.6338
  521MOL0     C70266   0.916  10.982   5.839 -0.5731  0.2654  0.3050
  521MOL0     C70267   0.922  10.997   5.698 -0.2543  0.0090  0.7761
  521MOL0     H70268   1.131  11.188   5.266 -1.8973 -0.3552  2.0053
  521MOL0     H70269   1.103  11.213   5.018 -1.4617  1.5813 -0.4515
  521MOL0     H70270   0.968  10.943   4.775  0.4053 -0.7106 -0.3084
  521MOL0     H70271   0.806  10.956   4.833 -0.1195  1.1576 -1.0251
  521MOL0     H70272   0.911  11.152   4.618 -0.4590  1.4410  1.1007
  521MOL0     H70273   0.804  11.012   4.583  2.3865  0.2093 -1.6966
  521MOL0     H70274   0.622  11.094   4.674  0.4862 -1.1724 -1.3611
  521MOL0     H70275   0.704  11.216   4.788  0.2018  1.5093 -0.1454
  521MOL0     H70276   0.757  11.362   4.585  0.5287 -0.4894  0.0474
  521MOL0     H70277   0.688  11.236   4.485 -0.0458  1.0166  0.7724
  521MOL0     H70278   0.474  11.250   4.601 -0.2039 -0.1276  1.7174
  521MOL0     H70279   0.544  11.381   4.705 -1.3585  1.2681 -0.2458
  521MOL0     H70280   0.586  11.508   4.492  1.2476 -0.4676  2.0857
  521MOL0     H70281   0.505  11.376   4.407  0.4020 -2.0297  1.7513
  521MOL0     H70282   0.286  11.418   4.507 -0.1392  0.0900 -0.8728
  521MOL0     H70283   0.346  11.519   4.634 -1.0224 -0.3087  0.1268
  521MOL0     H70284   0.326  11.588   4.355 -1.4189  0.0147  0.3522
  521MOL0     H70285   0.400  11.706   4.467 -1.2518  0.2651 -2.7207
  521MOL0     H70286   0.184  11.703   4.719  0.7794 -2.8797 -0.1360
  521MOL0     H70287  -0.065  11.721   4.791  2.6380  1.9243  1.4021
  521MOL0     H70288  -0.089  11.884   4.720 -0.4028  0.1321  0.7760
  521MOL0     H70289  -0.284  11.632   4.693  1.4988  0.2670  2.1465
  521MOL0     H70290  -0.280  11.780   4.587  1.7894  0.9869  0.5332
  521MOL0     H70291  -0.442  11.804   4.772 -0.2849  0.2758  0.5038
  521MOL0     H70292  -0.328  11.935   4.748 -2.4214 -0.7012 -2.0603
  521MOL0     H70293  -0.258  11.717   4.949 -2.6560 -0.7954 -0.3904
  521MOL0     H70294  -0.385  11.831   4.990  0.9774 -0.5740  2.1694
  521MOL0     H70295   0.066  11.919   5.019  2.1943 -1.1986 -0.2396
  521MOL0     H70296   0.265  11.811   5.138  0.3666  2.1383 -0.7866
  521MOL0     H70297   0.267  11.965   5.228  3.4182 -1.0808  0.3565
  521MOL0     H70298   0.269  11.810   5.314 -1.0920 -2.6019 -1.4368
  521MOL0     H70299   0.054  11.787   5.756 -2.7420 -1.3757  1.1619
  521MOL0     H70300   0.142  11.706   5.954  0.2216  1.0603 -0.6425
  521MOL0     H70301   0.101  11.280   5.991  0.4857  0.9700 -0.4621
  521MOL0     H70302   0.272  11.243   5.987  1.7729  1.3575 -1.3497
  521MOL0     H70303   0.195  11.195   6.218 -3.4302  0.1422  2.6056
  521MOL0     H70304   0.291  11.345   6.226  0.0293  1.1810  1.6481
  521MOL0     H70305   0.040  11.323   6.336  2.2079  1.5513  2.0442
  521MOL0     H70306  -0.001  11.353   6.166  1.7684  0.5783 -1.6540
  521MOL0     H70307   0.165  11.547   6.346 -0.0217 -0.4943  0.2382
  521MOL0     H70308   0.098  11.593   6.188 -1.5213  1.3540  0.3383
  521MOL0     H70309  -0.133  11.501   6.322 -1.1263  0.0397  2.1773
  521MOL0     H70310  -0.086  11.665   6.296  0.5826 -0.7128  0.3307
  521MOL0     H70311  -0.018  11.522   6.555  2.6300 -0.7972 -2.7382
  521MOL0     H70312   0.051  11.679   6.508  0.6698 -0.3333  0.6522
  521MOL0     H70313  -0.242  11.651   6.517 -0.7691 -2.6454 -0.0467
  521MOL0     H70314  -0.141  11.798   6.530  1.5357 -1.1007 -3.6987
  521MOL0     H70315  -0.240  11.741   6.756  0.2632 -2.4455  1.3541
  521MOL0     H70316  -0.068  11.734   6.763 -1.3579  1.0304  1.3129
  521MOL0     H70317   0.178  11.311   5.771 -3.0604 -1.5676 -3.7166
  521MOL0     H70318   0.078  11.401   5.565 -0.7557 -1.0028  0.4941
  521MOL0     H70319  -0.175  11.710   5.384  0.4990 -1.5579 -1.2837
  521MOL0     H70320  -0.297  11.786   5.185 -2.0940  2.7648  3.7240
  521MOL0     H70321   0.741  11.016   5.017  1.1523  0.7341 -1.4035
  521MOL0     H70322   0.743  10.973   5.265 -0.4812  2.1021  1.2322
  521MOL0     H70323   0.975  11.342   5.716  0.2148 -1.5730 -1.7581
  521MOL0     H70324   0.965  11.305   5.944  2.3684  1.6845 -1.6807
  521MOL0     H70325   0.968  11.229   6.171 -1.2364  0.1591  3.8902
  521MOL0     H70326   0.800  11.236   6.108 -0.3439  0.5328  0.4649
  521MOL0     H70327   0.893  11.050   6.332  2.3816  1.0165 -0.5643
  521MOL0     H70328   0.731  11.059   6.270  0.9537 -0.3906  1.0777
  521MOL0     H70329   0.675  11.270   6.344  0.5153 -2.1072 -2.9050
  521MOL0     H70330   0.845  11.311   6.386  1.1581 -1.2759  1.7709
  521MOL0     H70331   0.828  11.151   6.574  0.4675 -0.6862 -2.9394
  521MOL0     H70332   0.689  11.078   6.524  0.0119  0.0790 -1.0195
  521MOL0     H70333   0.502  11.374   6.751  0.4399 -0.5216 -1.0347
  521MOL0     H70334   0.897  10.884   5.882 -0.5886 -0.4303 -1.2199
  521MOL0     H70335   0.906  10.916   5.628 -0.7009  1.2885 -0.6499
  522MOL0     O70336   0.500   5.034   7.171  0.0306 -0.7246  0.0350
  522MOL0     C70337   0.436   5.106   7.098  0.1688 -0.1548 -0.3172
  522MOL0     O70338   0.447   5.241   7.086  0.7778  0.0372 -0.1222
  522MOL0     C70339   0.566   5.294   7.138  0.0152  0.3448  0.1381
  522MOL0     C70340   0.684   5.276   7.069  0.6709  0.8120  0.6769
  522MOL0     C70341   0.800   5.345   7.101 -0.4095  0.1480 -1.0726
  522MOL0     C70342   0.802   5.444   7.206  0.5786  0.4025  0.3634
  522MOL0     O70343   0.912   5.516   7.229 -0.9213 -0.2367 -0.2358
  522MOL0     C70344   0.919   5.567   7.368  0.5476 -1.1151  0.7699
  522MOL0     C70345   1.056   5.622   7.401 -0.7352 -0.3616  0.5789
  522MOL0     C70346   1.155   5.509   7.400 -0.2217 -0.0993 -0.0435
  522MOL0     C70347   1.296   5.567   7.371  0.0498  0.8850  0.2077
  522MOL0     C70348   1.346   5.638   7.485  0.0027 -0.2928  0.2380
  522MOL0     C70349   1.501   5.675   7.451  0.2150 -0.1137 -0.3315
  522MOL0     C70350   1.567   5.769   7.556 -0.0905  0.3237  0.3297
  522MOL0     C70351   1.703   5.817   7.503  0.2535  0.9653  0.1820
  522MOL0     N70352   1.790   5.697   7.486  0.1010  0.1313 -0.2569
  522MOL0     C70353   1.854   5.640   7.595  0.7564  0.0895  0.0767
  522MOL0     C70354   1.960   5.569   7.540 -0.7657 -0.9865  0.4490
  522MOL0     C70355   2.047   5.478   7.621 -0.0076 -0.6405 -0.2760
  522MOL0     C70356   2.066   5.334   7.567  1.0930 -0.9234  0.4347
  522MOL0     C70357   2.179   5.247   7.635 -0.1436 -1.4112  0.8197
  522MOL0     C70358   2.147   5.233   7.781  0.5166  0.0243  0.0733
  522MOL0     O70359   2.008   5.195   7.805 -0.5002 -0.6781  0.1347
  522MOL0     C70360   1.992   5.065   7.835 -0.6993  0.3971  1.0098
  522MOL0     C70361   2.074   4.961   7.805 -0.8003 -0.1001  0.4090
  522MOL0     C70362   2.053   4.831   7.853 -0.4484 -0.5004  0.9719
  522MOL0     C70363   2.177   4.737   7.823 -1.3394  0.1533  0.1212
  522MOL0     C70364   1.938   4.799   7.922 -0.5138  0.1898 -0.8704
  522MOL0     C70365   1.911   4.660   7.981 -0.5594 -0.4572  0.3914
  522MOL0     O70366   1.808   4.632   8.077  0.3899  0.4706  0.7037
  522MOL0     C70367   1.784   4.505   8.113  0.0331  0.1766  1.0860
  522MOL0     C70368   1.762   4.401   8.012  0.6042 -0.2334 -0.8875
  522MOL0     C70369   1.753   4.263   8.044 -0.9323  0.6617 -0.1158
  522MOL0     C70370   1.770   4.224   8.181  0.3372  0.3348 -0.5538
  522MOL0     O70371   1.740   4.090   8.212  0.0381 -0.1894  0.2189
  522MOL0     C70372   1.728   4.049   8.347  0.3711 -0.3024 -0.7795
  522MOL0     C70373   1.755   3.903   8.354 -0.9121  0.0940  0.0162
  522MOL0     C70374   1.765   3.862   8.503  0.2948 -0.1746 -0.1385
  522MOL0     C70375   1.823   3.719   8.505 -0.2526  1.2595  0.8178
  522MOL0     C70376   1.888   3.672   8.639  0.8606  0.0907  1.1701
  522MOL0     C70377   1.934   3.527   8.621  0.8755 -0.4956  0.0582
  522MOL0     C70378   2.020   3.467   8.733  0.2737 -0.4871 -0.1949
  522MOL0     C70379   2.041   3.309   8.730 -0.5938  0.3445 -0.7787
  522MOL0    Cl70380   1.899   3.215   8.773  0.1846  0.1317 -0.0676
  522MOL0     C70381   1.788   4.319   8.279  0.2393 -0.1191 -0.0975
  522MOL0     C70382   1.792   4.460   8.243  0.3645 -0.2008 -0.5415
  522MOL0     O70383   1.990   4.575   7.948  0.4047  0.6386  0.1267
  522MOL0     C70384   1.841   4.903   7.932 -0.1316  0.7771 -0.5173
  522MOL0     C70385   1.873   5.034   7.886 -0.2270 -0.4925 -0.3384
  522MOL0     N70386   1.960   5.594   7.402  0.3810 -0.2840  0.2587
  522MOL0     N70387   1.854   5.658   7.371  0.9311  0.6455 -0.7498
  522MOL0     C70388   0.675   5.463   7.265 -0.0261  0.2720 -0.0502
  522MOL0     C70389   0.560   5.385   7.241 -0.2511  0.3969  0.6797
  522MOL0     C70390   0.317   5.041   7.022  0.6756  0.0684  0.3616
  522MOL0     C70391   0.315   4.901   7.025 -0.0915  0.5786 -0.3998
  522MOL0     C70392   0.211   4.824   6.968 -0.1864  0.1077 -1.0434
  522MOL0     C70393   0.109   4.892   6.905 -0.0302  0.2986 -0.0495
  522MOL0     O70394   0.012   4.841   6.845  0.1814  0.8500  0.7053
  522MOL0     C70395   0.035   4.713   6.786  1.0246  0.6428  0.5864
  522MOL0     C70396  -0.017   4.612   6.893 -0.2430  0.3368  0.7044
  522MOL0     C70397  -0.142   4.527   6.847 -0.5727 -0.2596 -0.3499
  522MOL0     C70398  -0.156   4.389   6.930 -0.4894  0.3096  0.7994
  522MOL0     C70399  -0.203   4.422   7.066  0.4221 -0.3176 -0.0139
  522MOL0     C70400  -0.248   4.461   7.172  0.0534  0.0590  0.8137
  522MOL0     C70401   0.107   5.030   6.909 -0.3117 -0.6115  0.3984
  522MOL0     C70402   0.207   5.105   6.964  0.0406 -0.9635  0.4299
  522MOL0     H70403   0.679   5.225   6.973 -1.4277  2.3239 -0.0777
  522MOL0     H70404   0.891   5.327   7.043  0.6639 -1.6689  1.0305
  522MOL0     H70405   0.843   5.645   7.378  0.0199 -1.4458 -0.5807
  522MOL0     H70406   0.904   5.491   7.446  1.1886 -0.5859  1.4279
  522MOL0     H70407   1.086   5.705   7.336  3.8799  0.3632  3.2103
  522MOL0     H70408   1.059   5.671   7.499  4.9474 -0.6615  0.8656
  522MOL0     H70409   1.148   5.452   7.493 -1.0905 -0.7411 -0.4847
  522MOL0     H70410   1.129   5.442   7.317 -0.1530 -1.7285  1.2026
  522MOL0     H70411   1.365   5.485   7.352  0.4313  1.0051  1.0323
  522MOL0     H70412   1.312   5.627   7.281 -0.3922 -0.0859 -0.5373
  522MOL0     H70413   1.288   5.729   7.505 -0.5096 -0.8015  1.1008
  522MOL0     H70414   1.346   5.571   7.572 -1.9898 -1.1478 -0.3692
  522MOL0     H70415   1.559   5.585   7.430  2.0950  1.6070 -3.0754
  522MOL0     H70416   1.512   5.742   7.365  0.5136  3.0521  1.9693
  522MOL0     H70417   1.502   5.857   7.558 -0.3652  0.1164  3.0808
  522MOL0     H70418   1.577   5.719   7.653 -2.3669 -1.8477 -0.4249
  522MOL0     H70419   1.748   5.882   7.579 -1.4359 -2.1344  4.1863
  522MOL0     H70420   1.689   5.863   7.405 -1.5510  2.3945  1.0514
  522MOL0     H70421   1.818   5.627   7.697 -0.5446  1.7666 -0.1355
  522MOL0     H70422   2.145   5.528   7.627 -0.4069  0.1729 -0.3937
  522MOL0     H70423   2.005   5.484   7.722  2.9402  1.7300  0.9620
  522MOL0     H70424   2.098   5.336   7.462 -1.6731 -5.0158 -0.7694
  522MOL0     H70425   1.968   5.285   7.572  0.1947  0.9022  2.6215
  522MOL0     H70426   2.275   5.293   7.609 -0.8767 -1.3838 -2.2828
  522MOL0     H70427   2.175   5.151   7.582 -2.3640  0.5423 -3.0394
  522MOL0     H70428   2.152   5.328   7.836  1.4058  0.3973 -0.6173
  522MOL0     H70429   2.218   5.163   7.827  0.4368 -2.0103 -2.6887
  522MOL0     H70430   2.166   4.978   7.751 -0.1392  0.7905  1.7606
  522MOL0     H70431   2.211   4.709   7.923  0.5629 -0.1334 -0.5754
  522MOL0     H70432   2.151   4.650   7.763  1.5654  0.2678 -1.5033
  522MOL0     H70433   2.259   4.795   7.779  0.1204 -1.2615  0.8880
  522MOL0     H70434   1.762   4.433   7.908  3.5105 -0.8597 -1.1611
  522MOL0     H70435   1.727   4.187   7.970 -0.0884  3.9680 -4.1851
  522MOL0     H70436   1.804   4.100   8.408 -0.4464  0.9611 -0.7899
  522MOL0     H70437   1.629   4.068   8.389  0.9884 -0.1830  0.7204
  522MOL0     H70438   1.679   3.838   8.310 -0.6937 -1.2217  1.4789
  522MOL0     H70439   1.849   3.872   8.306 -1.9938 -1.5490 -1.1468
  522MOL0     H70440   1.669   3.845   8.554 -0.2330  0.2113 -0.9892
  522MOL0     H70441   1.832   3.930   8.555  1.6639 -1.0105 -0.7608
  522MOL0     H70442   1.750   3.645   8.471 -0.0529  0.0723  2.8030
  522MOL0     H70443   1.908   3.724   8.436 -3.0829 -0.6441 -3.2481
  522MOL0     H70444   1.818   3.685   8.722  0.6214  1.3115  0.8093
  522MOL0     H70445   1.974   3.734   8.668 -0.7058  2.3407  1.3158
  522MOL0     H70446   1.842   3.470   8.608 -0.0093  0.8429  0.2415
  522MOL0     H70447   1.988   3.517   8.526  0.0919 -1.7687 -0.2770
  522MOL0     H70448   1.991   3.497   8.834 -2.9837  0.8197 -1.3792
  522MOL0     H70449   2.111   3.526   8.724 -1.6411  2.5749 -0.8255
  522MOL0     H70450   2.127   3.281   8.793 -1.0096 -1.2009 -0.8479
  522MOL0     H70451   2.071   3.283   8.628  0.3254  0.1290 -0.4672
  522MOL0     H70452   1.808   4.288   8.381  0.9991 -1.3117 -0.5907
  522MOL0     H70453   1.818   4.539   8.313  0.2158  0.7168 -1.4908
  522MOL0     H70454   1.750   4.873   7.983  1.2571 -2.5678  0.2494
  522MOL0     H70455   1.814   5.121   7.915  2.3025  1.0732  0.4247
  522MOL0     H70456   0.659   5.535   7.345 -3.2216 -0.7182  0.3483
  522MOL0     H70457   0.460   5.398   7.280 -1.2002 -2.2920 -0.6215
  522MOL0     H70458   0.401   4.851   7.069 -0.5160 -0.6303 -0.8682
  522MOL0     H70459   0.218   4.716   6.967  2.5496  0.2101 -0.6822
  522MOL0     H70460  -0.035   4.705   6.702 -1.0318  1.4243  2.1341
  522MOL0     H70461   0.135   4.686   6.751  0.7562 -0.2177  0.4598
  522MOL0     H70462  -0.030   4.665   6.987  2.7894  0.0000  1.4292
  522MOL0     H70463   0.061   4.537   6.908 -0.5257  0.3894  2.7305
  522MOL0     H70464  -0.146   4.515   6.738 -1.0921  0.6710 -0.4430
  522MOL0     H70465  -0.228   4.588   6.874 -0.7845 -1.2005  1.2626
  522MOL0     H70466  -0.053   4.352   6.930 -0.1516  1.2272  0.7953
  522MOL0     H70467  -0.225   4.316   6.887  0.1516 -0.1449  0.5091
  522MOL0     H70468  -0.307   4.481   7.259  0.0215 -0.2152  0.8566
  522MOL0     H70469   0.031   5.096   6.869  2.0371  2.9821  1.4188
  522MOL0     H70470   0.189   5.210   6.986 -1.3296 -1.1996  0.5206
  523MOL0     O70471   6.804  10.493   5.777 -0.2193 -0.4542 -0.1978
  523MOL0     C70472   6.864  10.548   5.869 -0.0150  0.4155  0.0515
  523MOL0     O70473   6.817  10.563   5.996  0.5696  0.2780  0.2823
  523MOL0     C70474   6.698  10.504   6.031  0.7890  0.3012  0.4710
  523MOL0     C70475   6.577  10.577   6.056 -0.5757 -0.2834 -0.7172
  523MOL0     C70476   6.462  10.511   6.087 -0.3135 -0.4644  0.7264
  523MOL0     C70477   6.465  10.370   6.112  0.1552 -0.9194  0.2091
  523MOL0     O70478   6.362  10.303   6.174  0.0248 -0.3621  0.5533
  523MOL0     C70479   6.246  10.380   6.212  0.5576  0.8654  0.0641
  523MOL0     C70480   6.135  10.275   6.237  0.3619 -0.2918  0.1451
  523MOL0     C70481   6.011  10.327   6.310  0.0566 -0.4834 -0.4441
  523MOL0     C70482   6.022  10.325   6.464  0.1406  0.2253 -0.2561
  523MOL0     C70483   5.877  10.367   6.517 -0.2424  0.9804  0.6120
  523MOL0     C70484   5.769  10.257   6.507  0.6220  0.7863  0.3177
  523MOL0     C70485   5.622  10.300   6.529  0.2754 -0.7415  0.0101
  523MOL0     C70486   5.516  10.186   6.525  0.3003 -0.3761 -0.2824
  523MOL0     N70487   5.403  10.257   6.586  0.1898 -0.0055 -0.4919
  523MOL0     C70488   5.304  10.329   6.526  0.0690  0.6279 -0.8468
  523MOL0     C70489   5.215  10.375   6.623 -0.3707 -1.0467 -0.1012
  523MOL0     C70490   5.090  10.455   6.614  0.0253 -0.4349 -0.2954
  523MOL0     C70491   5.091  10.569   6.716 -0.0144  0.4595 -0.7937
  523MOL0     C70492   5.044  10.525   6.859  0.2646 -0.4702 -0.0824
  523MOL0     C70493   4.925  10.423   6.868  0.2018 -0.2125 -0.0284
  523MOL0     O70494   4.804  10.471   6.787 -0.6700 -0.0681  0.0271
  523MOL0     C70495   4.683  10.425   6.824 -0.6273 -0.4380 -0.1091
  523MOL0     C70496   4.585  10.505   6.766  0.0661 -0.0137 -0.7023
  523MOL0     C70497   4.449  10.472   6.781  0.4560 -0.2704 -0.7620
  523MOL0     C70498   4.353  10.561   6.723  0.9185 -0.8324 -0.4710
  523MOL0     C70499   4.416  10.355   6.846  0.2803  0.7368  0.3435
  523MOL0     C70500   4.275  10.313   6.872  0.7986  0.3706 -0.4931
  523MOL0     O70501   4.253  10.180   6.862 -0.3402  0.2700 -0.1934
  523MOL0     C70502   4.128  10.125   6.877  0.1223  0.7461 -0.0374
  523MOL0     C70503   4.078  10.032   6.784 -0.6491 -0.1148  0.4646
  523MOL0     C70504   3.951   9.984   6.778  0.6048 -0.4970  0.3703
  523MOL0     C70505   3.856  10.030   6.877  0.0668  0.2861 -0.0817
  523MOL0     O70506   3.720   9.998   6.869  0.5753 -0.7200  0.5303
  523MOL0     C70507   3.646  10.009   6.741 -0.3946 -0.7622 -0.1804
  523MOL0     C70508   3.620  10.148   6.676  0.5195 -0.2641  1.3050
  523MOL0     C70509   3.514  10.138   6.572  0.7931  0.1245  0.2119
  523MOL0     C70510   3.554  10.048   6.454 -0.4668  0.0910  0.5737
  523MOL0     C70511   3.650  10.111   6.342 -0.5887 -1.0355 -0.5131
  523MOL0     C70512   3.677  10.003   6.249 -0.3675  0.1199  0.2305
  523MOL0     C70513   3.762  10.065   6.125  0.0233  0.1801 -0.2482
  523MOL0     C70514   3.803   9.946   6.039  0.2321  0.0032 -0.0918
  523MOL0    Cl70515   3.669   9.861   5.945  0.1602  0.0606  0.1789
  523MOL0     C70516   3.905  10.118   6.978 -0.5113 -0.2287 -0.5123
  523MOL0     C70517   4.031  10.174   6.964 -0.2398  0.8015 -0.0341
  523MOL0     O70518   4.192  10.401   6.894 -0.2905  0.7055 -0.4016
  523MOL0     C70519   4.519  10.274   6.899  0.5382  0.3750 -0.4147
  523MOL0     C70520   4.654  10.301   6.887 -0.2139  0.1542 -0.7835
  523MOL0     N70521   5.283  10.340   6.739 -0.2808 -0.2765 -0.2259
  523MOL0     N70522   5.392  10.273   6.722 -0.0556 -0.7597  0.2590
  523MOL0     C70523   6.578  10.297   6.087  0.1922  0.2898  0.3891
  523MOL0     C70524   6.699  10.360   6.040 -0.3383  0.5178 -0.4757
  523MOL0     C70525   7.007  10.568   5.853  0.0391 -0.1475  0.0535
  523MOL0     C70526   7.084  10.629   5.957  0.5110 -0.9252 -0.2991
  523MOL0     C70527   7.225  10.650   5.924  0.6837  0.0487  0.2996
  523MOL0     C70528   7.286  10.617   5.810 -0.2031  0.7822  0.0276
  523MOL0     O70529   7.426  10.618   5.793  0.0302 -0.1053  0.3128
  523MOL0     C70530   7.504  10.537   5.702 -0.1033 -0.1573  0.2968
  523MOL0     C70531   7.506  10.388   5.735 -0.7606 -0.1713 -0.5289
  523MOL0     C70532   7.522  10.361   5.885 -0.1632 -0.4349 -0.1813
  523MOL0     C70533   7.661  10.398   5.940 -0.5992 -0.9271  0.9012
  523MOL0     C70534   7.680  10.364   6.083  1.1668  0.2228 -0.4725
  523MOL0     C70535   7.704  10.340   6.203  0.4745  0.2644  0.4025
  523MOL0     C70536   7.208  10.553   5.712  0.0389 -0.1513 -0.9633
  523MOL0     C70537   7.071  10.539   5.733 -0.1606 -0.0314 -0.7344
  523MOL0     H70538   6.601  10.682   6.040  1.4298 -0.6833 -0.5130
  523MOL0     H70539   6.374  10.575   6.090 -0.6551 -0.3695 -4.0646
  523MOL0     H70540   6.261  10.434   6.306 -1.9161 -0.2452  1.2005
  523MOL0     H70541   6.219  10.450   6.133  1.5112  0.4511 -0.6366
  523MOL0     H70542   6.102  10.235   6.140  2.5696  0.3344 -0.9261
  523MOL0     H70543   6.182  10.192   6.290 -2.5902 -3.3797 -1.6489
  523MOL0     H70544   5.983  10.424   6.269 -1.2180 -0.5698  0.1844
  523MOL0     H70545   5.926  10.266   6.279  0.4650 -2.1095  1.3984
  523MOL0     H70546   6.068  10.233   6.501 -0.1033  0.9986  2.1711
  523MOL0     H70547   6.092  10.401   6.502 -0.5057  1.5970 -1.6894
  523MOL0     H70548   5.882  10.403   6.620  0.9328  0.4690  0.7553
  523MOL0     H70549   5.825  10.443   6.458  0.3269 -1.6604 -3.7494
  523MOL0     H70550   5.788  10.206   6.412  3.5173  2.3189 -0.0297
  523MOL0     H70551   5.795  10.179   6.580  1.2966 -0.9356 -1.6775
  523MOL0     H70552   5.620  10.348   6.627 -0.4696 -2.0264  0.6472
  523MOL0     H70553   5.605  10.383   6.460 -1.5586  1.4761  2.8688
  523MOL0     H70554   5.537  10.098   6.587 -1.2994 -0.9201 -0.4618
  523MOL0     H70555   5.498  10.141   6.427  2.2332 -2.3519  0.1791
  523MOL0     H70556   5.296  10.339   6.418  0.5491 -2.1166 -1.1946
  523MOL0     H70557   5.089  10.508   6.518  1.0014  0.2009  0.0244
  523MOL0     H70558   5.003  10.389   6.614 -0.0040 -0.6730  3.9370
  523MOL0     H70559   5.021  10.649   6.689  0.6910  1.4060  0.1058
  523MOL0     H70560   5.189  10.617   6.719  0.9818 -1.4995  1.9563
  523MOL0     H70561   5.032  10.614   6.921  2.3260  0.9360 -1.5575
  523MOL0     H70562   5.124  10.461   6.895 -0.2456 -0.9334  0.2442
  523MOL0     H70563   4.898  10.404   6.972  1.8900 -0.1461  0.4466
  523MOL0     H70564   4.961  10.329   6.826  3.1037 -0.3152  2.4041
  523MOL0     H70565   4.623  10.594   6.716  1.6733  0.0612  0.5719
  523MOL0     H70566   4.290  10.600   6.804  1.2510 -0.3271 -0.4511
  523MOL0     H70567   4.407  10.637   6.665  0.7379  0.3351  0.8260
  523MOL0     H70568   4.284  10.505   6.660  1.1805  1.7159 -3.2445
  523MOL0     H70569   4.146   9.987   6.712  0.4049  1.7030  0.2678
  523MOL0     H70570   3.922   9.930   6.688  0.9842 -0.5724  0.2915
  523MOL0     H70571   3.707   9.947   6.674  1.4523 -1.9606  2.4561
  523MOL0     H70572   3.552   9.955   6.753 -0.3122 -0.8455  0.0924
  523MOL0     H70573   3.591  10.228   6.745 -2.4074 -0.3409  0.2769
  523MOL0     H70574   3.713  10.182   6.628 -1.2323  1.4782 -1.0812
  523MOL0     H70575   3.497  10.239   6.535  2.1867  0.2598 -0.0976
  523MOL0     H70576   3.425  10.097   6.621  0.7340  0.1141  0.0956
  523MOL0     H70577   3.606   9.961   6.494  2.7163  1.3729 -0.4802
  523MOL0     H70578   3.455  10.028   6.413 -0.8559  2.2717  0.3149
  523MOL0     H70579   3.740  10.143   6.395  1.2912 -3.7440 -1.8704
  523MOL0     H70580   3.612  10.200   6.290  1.4523  1.2049  1.5785
  523MOL0     H70581   3.724   9.918   6.299  0.4696  0.5385  0.1838
  523MOL0     H70582   3.586   9.962   6.205  0.7464 -3.4701  0.9749
  523MOL0     H70583   3.855  10.114   6.155  0.9493 -0.3825 -2.1203
  523MOL0     H70584   3.691  10.118   6.060  2.0352  1.3363 -1.6015
  523MOL0     H70585   3.848   9.869   6.102 -0.2452 -1.0740 -1.0250
  523MOL0     H70586   3.880   9.981   5.969 -1.9543 -1.0092 -3.2195
  523MOL0     H70587   3.848  10.149   7.064 -0.3040  0.0320 -0.4688
  523MOL0     H70588   4.069  10.240   7.042 -1.5798  0.4098  0.9936
  523MOL0     H70589   4.485  10.184   6.950 -1.6023  1.3390 -0.0247
  523MOL0     H70590   4.737  10.251   6.934 -1.1088  0.5411  1.3319
  523MOL0     H70591   6.585  10.189   6.101 -0.8391  0.5385  3.8305
  523MOL0     H70592   6.787  10.308   6.003  0.9919  2.4894 -0.2600
  523MOL0     H70593   7.033  10.655   6.049 -0.5184 -1.0700 -0.8133
  523MOL0     H70594   7.287  10.687   6.005  0.5578 -2.0124  1.3978
  523MOL0     H70595   7.475  10.553   5.598  1.0018  1.4961  0.2057
  523MOL0     H70596   7.608  10.566   5.720 -0.3865 -0.8836  4.0803
  523MOL0     H70597   7.594  10.340   5.690  1.1084 -0.7566  3.3191
  523MOL0     H70598   7.417  10.341   5.692 -0.5701  0.0527 -1.1696
  523MOL0     H70599   7.501  10.256   5.905 -0.6930 -0.0771  1.3130
  523MOL0     H70600   7.443  10.413   5.940 -1.7523 -0.4714 -2.2925
  523MOL0     H70601   7.656  10.507   5.936 -0.2233 -0.6876  4.0954
  523MOL0     H70602   7.749  10.364   5.884  0.8460 -0.4338  2.7807
  523MOL0     H70603   7.725  10.320   6.306 -2.4674 -0.0830  1.0170
  523MOL0     H70604   7.247  10.511   5.620  2.2400  0.2646 -0.2620
  523MOL0     H70605   7.016  10.494   5.651  2.0175 -1.9272 -1.2410
  524MOL0     O70606   5.357   3.258   1.102  0.3024 -0.2705  0.2214
  524MOL0     C70607   5.401   3.151   1.149 -0.0014 -0.4972  0.4932
  524MOL0     O70608   5.327   3.043   1.167  0.2664 -0.2669  0.0419
  524MOL0     C70609   5.198   3.034   1.122 -1.2313 -0.1062 -0.0688
  524MOL0     C70610   5.118   2.974   1.221  0.2590 -0.1531 -0.3362
  524MOL0     C70611   4.989   2.944   1.182  0.6088 -0.0254 -0.1402
  524MOL0     C70612   4.932   2.987   1.060  0.7349 -0.8140  0.3300
  524MOL0     O70613   4.802   2.951   1.019 -0.6559  0.1773  0.7830
  524MOL0     C70614   4.706   2.919   1.122 -0.2583 -0.0845  0.6899
  524MOL0     C70615   4.565   2.911   1.061 -0.3661  0.0078 -0.0051
  524MOL0     C70616   4.518   3.050   1.013  0.7433  0.1245  0.3624
  524MOL0     C70617   4.375   3.033   0.969 -0.0357 -0.3825  0.0439
  524MOL0     C70618   4.366   2.987   0.825  0.2021  0.1893 -0.7342
  524MOL0     C70619   4.232   2.990   0.763  0.4498  0.1779 -0.6529
  524MOL0     C70620   4.157   2.851   0.758 -0.2042  0.0930 -0.3558
  524MOL0     C70621   4.213   2.742   0.652 -0.5539 -0.3681 -0.1783
  524MOL0     N70622   4.182   2.771   0.514 -0.7693  0.0662  0.0129
  524MOL0     C70623   4.257   2.854   0.433  0.3181 -0.3162  0.2673
  524MOL0     C70624   4.176   2.860   0.324  0.1693 -0.0322 -0.4703
  524MOL0     C70625   4.227   2.923   0.199  0.4891 -0.7224  0.0515
  524MOL0     C70626   4.316   2.827   0.129  0.1728  0.4195 -0.0594
  524MOL0     C70627   4.337   2.883  -0.020 -0.2208 -1.0367 -1.0810
  524MOL0     C70628   4.416   2.790  -0.117 -0.4231  0.5778  0.6152
  524MOL0     O70629   4.542   2.749  -0.062  0.4030 -0.5366 -0.6849
  524MOL0     C70630   4.652   2.816  -0.091 -0.2748  0.0025 -0.0937
  524MOL0     C70631   4.769   2.740  -0.087  0.5392 -0.3609 -0.4408
  524MOL0     C70632   4.891   2.797  -0.124 -0.6839  0.1719 -0.4526
  524MOL0     C70633   5.002   2.700  -0.134 -0.9411 -0.5871  0.2086
  524MOL0     C70634   4.903   2.929  -0.156 -0.3063 -0.0489  0.3892
  524MOL0     C70635   5.022   3.017  -0.150  0.7121  0.6477 -0.2446
  524MOL0     O70636   5.122   2.990  -0.052 -0.1098 -0.0196  0.4974
  524MOL0     C70637   5.194   3.106  -0.023  0.0089  0.6757  0.3134
  524MOL0     C70638   5.134   3.199   0.071 -0.7608  0.2321  0.3108
  524MOL0     C70639   5.194   3.324   0.089  0.7414  0.5661  0.1215
  524MOL0     C70640   5.320   3.346   0.033  0.9076  0.3494  0.3722
  524MOL0     O70641   5.391   3.458   0.048  1.0538  0.1160  0.1778
  524MOL0     C70642   5.517   3.443   0.124 -0.4725 -0.2463 -0.1357
  524MOL0     C70643   5.516   3.530   0.253  0.0237 -0.1402  0.2479
  524MOL0     C70644   5.415   3.474   0.357  0.1834  0.3712 -0.1623
  524MOL0     C70645   5.399   3.571   0.482 -0.6591  0.2152 -0.0188
  524MOL0     C70646   5.532   3.611   0.561  0.6539  0.2861  0.1906
  524MOL0     C70647   5.625   3.490   0.592 -0.2933  1.1920 -0.9543
  524MOL0     C70648   5.588   3.387   0.709 -0.4436 -0.5140  0.3613
  524MOL0     C70649   5.534   3.465   0.836  0.4634  0.5116  0.9304
  524MOL0    Cl70650   5.651   3.597   0.894  0.0982  0.4096 -0.4201
  524MOL0     C70651   5.374   3.254  -0.057  0.5485  0.5591  0.2869
  524MOL0     C70652   5.314   3.127  -0.081  0.1917  0.4534  0.2707
  524MOL0     O70653   5.024   3.105  -0.237 -0.4658 -0.5254  0.3349
  524MOL0     C70654   4.790   3.009  -0.159  0.1867  0.0319 -0.3980
  524MOL0     C70655   4.665   2.954  -0.115 -0.5973 -0.0280  0.7896
  524MOL0     N70656   4.051   2.802   0.348 -0.0242 -0.3756 -0.8838
  524MOL0     N70657   4.059   2.755   0.463  0.3824 -0.0700  0.4357
  524MOL0     C70658   5.017   3.045   0.962  1.0019 -0.0336 -0.4871
  524MOL0     C70659   5.147   3.068   0.996  0.4680 -0.2797 -0.1909
  524MOL0     C70660   5.548   3.142   1.174  0.1231  0.4700 -0.5089
  524MOL0     C70661   5.618   3.257   1.214  0.7084  0.6058  0.2668
  524MOL0     C70662   5.757   3.245   1.244 -0.2989 -0.4859 -0.0808
  524MOL0     C70663   5.825   3.130   1.251  0.7521  0.7520 -0.9711
  524MOL0     O70664   5.956   3.137   1.302 -0.0348 -0.4444  0.1290
  524MOL0     C70665   6.043   3.022   1.313 -0.0476 -1.1835 -0.2187
  524MOL0     C70666   6.146   3.054   1.429  0.1156 -0.3395  0.9414
  524MOL0     C70667   6.256   3.147   1.382  0.4546  0.4467  0.0363
  524MOL0     C70668   6.302   3.242   1.491 -0.5841  0.9970 -0.1709
  524MOL0     C70669   6.194   3.331   1.537 -0.8670 -0.3252 -0.0704
  524MOL0     C70670   6.096   3.398   1.568 -0.5389  0.6690 -0.1291
  524MOL0     C70671   5.748   3.011   1.223 -0.3238 -1.1322  0.2981
  524MOL0     C70672   5.608   3.018   1.186 -0.5043  0.8424  0.1780
  524MOL0     H70673   5.160   2.934   1.313  0.5247 -0.2040 -0.4781
  524MOL0     H70674   4.928   2.893   1.255  2.8694 -2.5441  0.1384
  524MOL0     H70675   4.734   2.820   1.157  4.2160  1.0643  1.0554
  524MOL0     H70676   4.716   2.989   1.206  0.8743  1.4704 -0.6578
  524MOL0     H70677   4.574   2.829   0.990  0.1054 -0.7236  0.8783
  524MOL0     H70678   4.504   2.884   1.147 -0.4505  1.9503  0.5994
  524MOL0     H70679   4.530   3.116   1.099  2.0000 -0.5827  0.7463
  524MOL0     H70680   4.567   3.107   0.934  0.6994  0.6430  0.7079
  524MOL0     H70681   4.311   2.964   1.025 -0.0100 -2.3806 -2.2062
  524MOL0     H70682   4.335   3.134   0.984 -1.5468 -1.0391  0.5547
  524MOL0     H70683   4.427   3.054   0.764  0.2127 -1.3042 -2.4441
  524MOL0     H70684   4.400   2.883   0.819 -0.3937 -0.1235  0.8804
  524MOL0     H70685   4.174   3.050   0.834  1.4958 -1.0818  1.3980
  524MOL0     H70686   4.232   3.043   0.667  3.1986  1.5063 -0.0373
  524MOL0     H70687   4.151   2.805   0.857 -0.0754 -1.0063 -0.8450
  524MOL0     H70688   4.051   2.870   0.743 -0.4791 -0.1875  1.0356
  524MOL0     H70689   4.182   2.641   0.680 -0.9650 -0.2297 -0.1386
  524MOL0     H70690   4.322   2.751   0.659 -0.3796 -1.4756 -1.1759
  524MOL0     H70691   4.351   2.899   0.464 -0.8339 -0.2886  4.3286
  524MOL0     H70692   4.147   2.954   0.132  2.2098 -1.4774 -2.5147
  524MOL0     H70693   4.291   3.011   0.217 -2.7596  1.2652  3.4327
  524MOL0     H70694   4.273   2.727   0.117 -1.1052  1.1475 -2.1814
  524MOL0     H70695   4.412   2.828   0.180  0.5115 -0.6366 -0.6533
  524MOL0     H70696   4.393   2.976  -0.018  0.6247 -1.5285 -1.2303
  524MOL0     H70697   4.238   2.914  -0.056 -0.4515  0.0317  0.4120
  524MOL0     H70698   4.426   2.842  -0.213 -3.2911  1.2138  0.5651
  524MOL0     H70699   4.357   2.702  -0.145  1.2028 -0.7752  1.2713
  524MOL0     H70700   4.771   2.634  -0.064  0.0414  0.2537  2.8966
  524MOL0     H70701   5.067   2.712  -0.047 -0.1987  2.5949 -0.6562
  524MOL0     H70702   4.972   2.595  -0.129  2.2340 -1.5203  1.9968
  524MOL0     H70703   5.064   2.736  -0.216 -1.2326  0.3220  0.3764
  524MOL0     H70704   5.043   3.168   0.122 -0.1752  1.5228  2.2230
  524MOL0     H70705   5.137   3.396   0.147 -0.4196  2.6035 -3.2395
  524MOL0     H70706   5.535   3.338   0.147  0.5746 -0.7395 -2.7552
  524MOL0     H70707   5.601   3.477   0.063  0.5284 -0.5641  1.0467
  524MOL0     H70708   5.614   3.535   0.300 -0.0948  0.1793  0.4634
  524MOL0     H70709   5.480   3.629   0.225 -3.5660 -1.8875 -2.1164
  524MOL0     H70710   5.443   3.373   0.388 -3.9604 -0.6998  0.7758
  524MOL0     H70711   5.318   3.464   0.307 -0.4254  4.1764  0.0089
  524MOL0     H70712   5.351   3.661   0.443 -2.2135 -1.2499 -1.6998
  524MOL0     H70713   5.332   3.517   0.549 -0.5606  0.9040  0.6493
  524MOL0     H70714   5.502   3.665   0.651  3.1593  0.4161  1.0194
  524MOL0     H70715   5.596   3.677   0.502  1.7110 -0.3677  0.5927
  524MOL0     H70716   5.636   3.429   0.502 -2.2516 -0.2847 -0.2632
  524MOL0     H70717   5.720   3.532   0.628 -0.3693 -0.5185  1.5345
  524MOL0     H70718   5.680   3.336   0.738  0.2622 -0.2236 -1.2155
  524MOL0     H70719   5.515   3.311   0.679  0.1564 -1.5279  1.3851
  524MOL0     H70720   5.511   3.393   0.916 -1.3467 -1.2680 -1.0519
  524MOL0     H70721   5.438   3.507   0.805  0.8025  0.4507 -0.2319
  524MOL0     H70722   5.469   3.280  -0.104  1.8628 -1.0287  1.9148
  524MOL0     H70723   5.336   3.048  -0.153  2.2270  0.2189  1.0962
  524MOL0     H70724   4.799   3.117  -0.171 -2.4492  0.7200  2.4529
  524MOL0     H70725   4.578   3.018  -0.119  0.0206  0.8390  0.9912
  524MOL0     H70726   4.971   3.085   0.873 -0.7303 -0.1037  0.3344
  524MOL0     H70727   5.208   3.133   0.934 -3.3951  5.6235  1.3496
  524MOL0     H70728   5.581   3.359   1.209  1.2880  0.7750 -1.0483
  524MOL0     H70729   5.811   3.339   1.251 -0.1543 -0.5258 -0.6250
  524MOL0     H70730   5.986   2.934   1.345 -0.0337 -0.3571  2.3540
  524MOL0     H70731   6.100   3.003   1.222  1.7341  0.0115  0.5861
  524MOL0     H70732   6.184   2.955   1.458  0.3445 -0.3943  0.4658
  524MOL0     H70733   6.096   3.095   1.517 -1.6028  0.7187 -0.4587
  524MOL0     H70734   6.225   3.200   1.291  1.7733  3.0654  0.9948
  524MOL0     H70735   6.342   3.093   1.342  3.7928  3.9191  1.9065
  524MOL0     H70736   6.389   3.298   1.457 -0.9582  0.8077 -1.4894
  524MOL0     H70737   6.327   3.172   1.571  2.6144  2.8534  0.6263
  524MOL0     H70738   6.022   3.475   1.568  1.1905  2.4688  2.0640
  524MOL0     H70739   5.801   2.918   1.240 -1.1799 -1.7788 -0.4497
  524MOL0     H70740   5.547   2.929   1.182 -0.3954  0.5199  3.0977
  525MOL0     O70741   5.458   4.925   3.576 -0.0615 -0.2047  0.3451
  525MOL0     C70742   5.550   4.858   3.522  0.1172 -0.1039 -1.1305
  525MOL0     O70743   5.544   4.809   3.397  0.0191  0.6349 -0.2140
  525MOL0     C70744   5.433   4.827   3.321  0.1747 -0.9740  0.0545
  525MOL0     C70745   5.406   4.956   3.254 -0.5558  0.4860 -0.0514
  525MOL0     C70746   5.291   4.973   3.185  0.0846  0.2986 -0.3069
  525MOL0     C70747   5.191   4.870   3.183 -0.1749  0.1210 -0.1025
  525MOL0     O70748   5.069   4.900   3.118  0.6838  0.3253  0.1359
  525MOL0     C70749   4.940   4.868   3.183  0.1927 -0.7435  0.2789
  525MOL0     C70750   4.829   4.925   3.092 -0.0572 -1.1145  0.2198
  525MOL0     C70751   4.692   4.881   3.148  0.5579 -0.3732  0.4695
  525MOL0     C70752   4.577   4.941   3.067 -0.2377 -0.2425 -0.4757
  525MOL0     C70753   4.446   4.854   3.091  0.5161 -0.5363 -0.8133
  525MOL0     C70754   4.314   4.900   3.036  0.0889  0.1328 -0.0349
  525MOL0     C70755   4.206   4.791   3.034  0.3432  0.2790  0.2777
  525MOL0     C70756   4.079   4.837   2.967  1.1839 -0.4759 -0.5032
  525MOL0     N70757   3.951   4.781   3.015  0.8309 -0.1702  0.1880
  525MOL0     C70758   3.881   4.822   3.116 -0.3791 -0.4122 -0.2177
  525MOL0     C70759   3.759   4.775   3.098  0.1840  0.9196 -0.1686
  525MOL0     C70760   3.643   4.789   3.182  0.6936  0.1565  0.1037
  525MOL0     C70761   3.517   4.803   3.090 -0.2234  1.1883 -0.5516
  525MOL0     C70762   3.396   4.832   3.179 -0.1907  0.8933 -0.5085
  525MOL0     C70763   3.259   4.825   3.100  0.3191  0.3014  0.3314
  525MOL0     O70764   3.148   4.828   3.190  0.3084  0.1867 -0.1664
  525MOL0     C70765   3.020   4.836   3.144  0.3861 -0.3879 -0.0810
  525MOL0     C70766   2.923   4.872   3.232 -0.1463  0.3027 -0.4457
  525MOL0     C70767   2.789   4.882   3.196  0.5194  0.3590  0.2998
  525MOL0     C70768   2.690   4.931   3.303  0.4400 -0.5561 -1.2909
  525MOL0     C70769   2.745   4.858   3.068  0.9331 -0.5688 -0.8360
  525MOL0     C70770   2.606   4.884   3.016 -0.1698  0.0929  0.3339
  525MOL0     O70771   2.603   4.946   2.889 -0.8544  0.5418 -0.3478
  525MOL0     C70772   2.489   4.941   2.821 -0.6019  1.1039 -0.0217
  525MOL0     C70773   2.392   5.034   2.842  0.5594 -0.2811  0.2032
  525MOL0     C70774   2.268   5.014   2.782  0.7261  0.2566 -0.0793
  525MOL0     C70775   2.235   4.903   2.705 -0.0568 -0.1026 -0.4652
  525MOL0     O70776   2.114   4.879   2.654 -0.4093  0.4437  0.0973
  525MOL0     C70777   2.056   4.749   2.695 -0.0724 -0.3424  0.4999
  525MOL0     C70778   1.905   4.748   2.653 -0.3465 -0.5713 -0.5292
  525MOL0     C70779   1.829   4.852   2.734  0.3826  0.2616  0.1445
  525MOL0     C70780   1.697   4.863   2.661  0.5223  0.1301 -0.4450
  525MOL0     C70781   1.608   4.741   2.664  0.8661 -0.0738  0.2230
  525MOL0     C70782   1.455   4.762   2.692  0.4867 -0.6718 -0.2973
  525MOL0     C70783   1.387   4.833   2.580 -0.7497 -0.8298  0.6234
  525MOL0     C70784   1.233   4.835   2.584 -0.5262  0.6974 -0.2112
  525MOL0    Cl70785   1.157   4.898   2.432  0.0812  0.0347  0.5363
  525MOL0     C70786   2.346   4.818   2.676 -0.2441  0.0880 -0.3555
  525MOL0     C70787   2.473   4.830   2.736 -0.8967 -0.1385 -0.7850
  525MOL0     O70788   2.507   4.838   3.070  0.7048  0.2596 -0.0089
  525MOL0     C70789   2.843   4.818   2.980 -0.0698  0.0367  0.1512
  525MOL0     C70790   2.977   4.809   3.020  0.3270 -0.2560  0.5207
  525MOL0     N70791   3.757   4.694   2.981  0.1529  0.3025  0.4037
  525MOL0     N70792   3.871   4.699   2.933 -0.7576 -0.0656  0.5253
  525MOL0     C70793   5.217   4.747   3.247  0.1986  0.3051  0.0924
  525MOL0     C70794   5.338   4.732   3.315  0.3632  1.0619  0.3397
  525MOL0     C70795   5.678   4.832   3.599  0.2574 -0.2126 -0.2275
  525MOL0     C70796   5.771   4.742   3.549  0.2308  0.0789 -0.2606
  525MOL0     C70797   5.885   4.710   3.623  0.1896 -0.2462  0.2721
  525MOL0     C70798   5.909   4.763   3.751  0.1855  1.4558  0.7373
  525MOL0     O70799   6.011   4.711   3.817  0.2501 -0.0151 -0.2148
  525MOL0     C70800   6.078   4.799   3.915  0.1776  0.4056  0.5640
  525MOL0     C70801   6.221   4.753   3.926 -0.1687 -0.5813 -0.3256
  525MOL0     C70802   6.304   4.776   3.804  0.7257 -0.4523 -0.4226
  525MOL0     C70803   6.452   4.778   3.817 -0.2091  0.3084  0.9329
  525MOL0     C70804   6.514   4.663   3.880 -0.0066 -0.2988  1.5346
  525MOL0     C70805   6.558   4.564   3.931 -0.9974 -0.3389  0.1847
  525MOL0     C70806   5.811   4.843   3.814 -0.3516 -0.0266  0.6580
  525MOL0     C70807   5.693   4.877   3.733  0.1000 -0.4148 -0.4052
  525MOL0     H70808   5.489   5.026   3.256  0.5464 -0.6067  4.1540
  525MOL0     H70809   5.279   5.072   3.143 -0.9163  0.4244  0.2413
  525MOL0     H70810   4.930   4.759   3.193 -0.0301 -0.7133  0.3825
  525MOL0     H70811   4.922   4.909   3.283 -2.8798 -0.2116 -0.3821
  525MOL0     H70812   4.832   5.034   3.100 -0.6102 -1.2293  2.9481
  525MOL0     H70813   4.830   4.889   2.988  0.0299 -0.2710 -0.0830
  525MOL0     H70814   4.682   4.774   3.132 -1.1936 -0.0353 -1.0517
  525MOL0     H70815   4.689   4.900   3.256 -1.4955 -0.7049  0.5182
  525MOL0     H70816   4.566   5.039   3.113  3.1256  0.3558 -0.7044
  525MOL0     H70817   4.596   4.956   2.961 -2.0109 -1.5365 -1.0208
  525MOL0     H70818   4.463   4.757   3.044  2.4694  1.5027 -4.8305
  525MOL0     H70819   4.427   4.839   3.198 -0.1651  2.2229 -0.4807
  525MOL0     H70820   4.289   4.983   3.102 -0.2196 -0.3264  0.4399
  525MOL0     H70821   4.319   4.957   2.943  0.2546  0.7413  0.3413
  525MOL0     H70822   4.239   4.700   2.982  0.2830  1.0238 -1.1049
  525MOL0     H70823   4.177   4.772   3.138 -3.1542  0.4130 -0.5697
  525MOL0     H70824   4.072   4.813   2.861  0.0566 -3.7199  0.1895
  525MOL0     H70825   4.065   4.945   2.985 -2.3218 -0.7729 -0.6661
  525MOL0     H70826   3.922   4.888   3.192  2.1326 -1.6509 -0.3725
  525MOL0     H70827   3.635   4.710   3.256 -0.8383 -1.1658 -1.3838
  525MOL0     H70828   3.659   4.882   3.237  1.7480 -0.8112  1.4744
  525MOL0     H70829   3.516   4.709   3.033  0.3391 -0.1532  1.5054
  525MOL0     H70830   3.525   4.890   3.025  3.0873  1.2401 -0.2703
  525MOL0     H70831   3.403   4.936   3.211 -0.2984  0.5515  0.6668
  525MOL0     H70832   3.388   4.763   3.263  0.5929 -0.8660 -1.8062
  525MOL0     H70833   3.266   4.732   3.042  2.7419  1.1999 -0.9345
  525MOL0     H70834   3.257   4.908   3.029  2.2217  1.1399  1.1928
  525MOL0     H70835   2.940   4.898   3.336 -1.0544 -1.9149  0.3090
  525MOL0     H70836   2.624   4.996   3.246  1.3474  2.2872  0.7147
  525MOL0     H70837   2.630   4.846   3.338  1.2221 -0.6214 -0.0656
  525MOL0     H70838   2.725   4.998   3.381 -0.4676 -2.4671  0.8877
  525MOL0     H70839   2.427   5.110   2.912  0.6448 -0.7960  0.7281
  525MOL0     H70840   2.192   5.082   2.820  1.5411 -0.5056  3.2466
  525MOL0     H70841   2.107   4.667   2.644  0.3011  0.3435 -0.2485
  525MOL0     H70842   2.062   4.741   2.804  0.7395  1.7851  0.6494
  525MOL0     H70843   1.898   4.773   2.547  1.0897  1.4958 -0.1985
  525MOL0     H70844   1.870   4.644   2.649  2.0315 -1.4105 -4.2023
  525MOL0     H70845   1.880   4.949   2.734 -0.8325  0.9875 -2.5428
  525MOL0     H70846   1.801   4.815   2.833 -2.0445 -0.6298 -0.8020
  525MOL0     H70847   1.652   4.943   2.719 -0.7431  0.1558 -1.4032
  525MOL0     H70848   1.704   4.905   2.560 -0.9617 -0.9379 -1.0351
  525MOL0     H70849   1.628   4.677   2.750 -1.6475  0.1732  1.0837
  525MOL0     H70850   1.624   4.678   2.577  0.5932  3.6088 -2.7801
  525MOL0     H70851   1.400   4.668   2.708 -1.3437  0.5030  0.6034
  525MOL0     H70852   1.431   4.817   2.783  0.9883  1.2233 -1.2630
  525MOL0     H70853   1.422   4.789   2.486 -1.4710 -0.5890  0.2311
  525MOL0     H70854   1.419   4.938   2.579 -1.2321 -0.6676 -0.7676
  525MOL0     H70855   1.198   4.900   2.664 -0.1572  2.1921 -1.2221
  525MOL0     H70856   1.197   4.735   2.612  0.1845 -0.0309 -1.7794
  525MOL0     H70857   2.330   4.739   2.604 -1.5700  0.6919 -0.7503
  525MOL0     H70858   2.559   4.764   2.732 -0.3797  0.5013 -0.2165
  525MOL0     H70859   2.797   4.792   2.886  0.8246 -2.8894  0.4360
  525MOL0     H70860   3.039   4.778   2.936  0.7275 -0.0709  0.7442
  525MOL0     H70861   5.144   4.667   3.242 -0.1349  0.6255 -0.1783
  525MOL0     H70862   5.358   4.639   3.366 -2.7079 -1.0870 -2.0393
  525MOL0     H70863   5.750   4.699   3.451 -0.3777  2.3913 -1.2224
  525MOL0     H70864   5.948   4.636   3.576 -2.2111 -0.9175 -2.1336
  525MOL0     H70865   6.070   4.904   3.883 -2.2075  0.2625  0.4881
  525MOL0     H70866   6.027   4.799   4.012  2.6455  2.9855  2.0379
  525MOL0     H70867   6.218   4.645   3.945 -1.8350 -0.5484 -0.3002
  525MOL0     H70868   6.280   4.802   4.004  1.6074 -2.1160 -0.6201
  525MOL0     H70869   6.292   4.880   3.770  2.2294 -0.6738 -1.7350
  525MOL0     H70870   6.258   4.714   3.727 -1.5191  1.1986 -0.5281
  525MOL0     H70871   6.493   4.861   3.877  1.5235 -0.0445  0.2833
  525MOL0     H70872   6.497   4.794   3.718 -0.3783  1.1552  0.9795
  525MOL0     H70873   6.590   4.470   3.970  2.1696  0.4851 -0.1734
  525MOL0     H70874   5.825   4.893   3.910 -0.0826  0.3122  0.4452
  525MOL0     H70875   5.634   4.958   3.775  0.6230 -0.5656  0.6626
  526MOL0     O70876  10.411   6.658   1.885 -0.1218 -0.0165  0.0354
  526MOL0     C70877  10.371   6.757   1.946 -0.1807 -0.0028 -0.0761
  526MOL0     O70878  10.457   6.849   2.010  0.1777 -0.1758  0.8112
  526MOL0     C70879  10.594   6.853   1.988 -0.4126 -0.0226  0.1860
  526MOL0     C70880  10.666   6.931   2.078 -0.2042  0.1822 -0.5837
  526MOL0     C70881  10.805   6.958   2.053  0.1198  0.0949  0.2318
  526MOL0     C70882  10.878   6.883   1.964  0.2667 -0.6625  0.5211
  526MOL0     O70883  11.002   6.924   1.925 -0.2735 -0.5095 -0.4681
  526MOL0     C70884  11.081   6.859   1.824  0.1317 -0.0936 -0.4523
  526MOL0     C70885  11.228   6.868   1.850  0.1542 -0.1450 -0.2060
  526MOL0     C70886  11.289   7.003   1.810  0.3351  0.0900  1.3531
  526MOL0     C70887  11.442   6.997   1.830 -0.0829  0.7399 -0.1225
  526MOL0     C70888  11.503   7.122   1.772  0.5686  0.3633 -0.3015
  526MOL0     C70889  11.661   7.123   1.778  0.7486 -0.2440  0.2518
  526MOL0     C70890  11.727   7.091   1.923 -0.3188  0.5441 -0.0078
  526MOL0     C70891  11.727   7.212   2.017  0.0043  0.2605 -0.0756
  526MOL0     N70892  11.822   7.187   2.118 -0.3347 -0.0847 -0.5085
  526MOL0     C70893  11.805   7.097   2.216  0.0493 -0.8858 -0.9183
  526MOL0     C70894  11.900   7.138   2.307  0.4382 -0.8632 -0.1024
  526MOL0     C70895  11.926   7.070   2.438 -0.1181 -0.2674 -0.2570
  526MOL0     C70896  11.813   7.109   2.541 -0.1025  0.7815 -0.8879
  526MOL0     C70897  11.833   7.048   2.681  0.1216  0.2014  0.1975
  526MOL0     C70898  11.699   7.053   2.761 -0.1701  0.0922  1.0008
  526MOL0     O70899  11.603   6.962   2.705  0.6900  0.1942  0.2413
  526MOL0     C70900  11.472   6.970   2.748 -0.2510  0.3390 -0.7810
  526MOL0     C70901  11.388   6.863   2.716 -0.0399 -1.5995 -0.0998
  526MOL0     C70902  11.255   6.855   2.748 -0.2130 -0.0633  0.8798
  526MOL0     C70903  11.185   6.733   2.713 -0.8187  0.5485  1.0659
  526MOL0     C70904  11.206   6.964   2.825 -0.0904 -0.4704  0.1308
  526MOL0     C70905  11.058   6.971   2.864 -0.1746  0.3966  0.4778
  526MOL0     O70906  10.999   7.096   2.849  0.8981  0.6873 -0.3888
  526MOL0     C70907  10.871   7.111   2.889  0.1654 -0.1614  0.3399
  526MOL0     C70908  10.831   7.157   3.013 -0.7133 -0.6350 -0.0924
  526MOL0     C70909  10.695   7.177   3.036 -0.1875  0.1708  0.9928
  526MOL0     C70910  10.598   7.155   2.932 -0.9341 -0.3346  0.5008
  526MOL0     O70911  10.473   7.179   2.972  0.1141  0.1964 -0.5276
  526MOL0     C70912  10.369   7.163   2.872 -0.2859  0.1371  0.1911
  526MOL0     C70913  10.311   7.018   2.867 -0.0309 -0.5722  0.0759
  526MOL0     C70914  10.176   7.009   2.799  0.3567 -0.0468 -0.3567
  526MOL0     C70915  10.059   7.068   2.870 -0.1685 -0.0408  1.2565
  526MOL0     C70916   9.926   7.028   2.794  0.0095 -0.0578 -0.2058
  526MOL0     C70917   9.807   7.088   2.866 -1.0851  0.6575 -0.2851
  526MOL0     C70918   9.685   7.074   2.788  0.0677 -0.1363  0.3297
  526MOL0     C70919   9.577   7.163   2.839  0.1737  0.9615  0.4087
  526MOL0    Cl70920   9.427   7.127   2.754  0.3713  0.0458 -0.2208
  526MOL0     C70921  10.640   7.098   2.813 -0.8382 -0.1683  0.8821
  526MOL0     C70922  10.779   7.071   2.795 -0.4802 -0.0654 -0.1795
  526MOL0     O70923  11.003   6.866   2.907 -0.5817 -0.6917  0.5313
  526MOL0     C70924  11.283   7.077   2.866 -0.0966  0.4151  0.8320
  526MOL0     C70925  11.415   7.083   2.812  0.2735  0.3287 -0.0304
  526MOL0     N70926  11.975   7.242   2.267  0.5536  0.1162 -0.3047
  526MOL0     N70927  11.929   7.269   2.148  0.4537 -0.5400 -0.1974
  526MOL0     C70928  10.803   6.786   1.898 -0.3943 -0.1000  0.7542
  526MOL0     C70929  10.666   6.777   1.895  0.0383  0.0515  0.6951
  526MOL0     C70930  10.223   6.782   1.952 -0.2725 -0.4058  0.2692
  526MOL0     C70931  10.169   6.911   1.993 -0.1219  0.1004 -0.1546
  526MOL0     C70932  10.036   6.928   2.008 -0.5444  1.3961 -1.2523
  526MOL0     C70933   9.947   6.821   1.984 -0.3167  0.9156 -0.6537
  526MOL0     O70934   9.811   6.820   2.000 -0.0144  0.1107 -1.1273
  526MOL0     C70935   9.761   6.939   2.061 -0.1395  0.2077 -0.2936
  526MOL0     C70936   9.616   6.916   2.099  0.4652  0.4938 -0.3831
  526MOL0     C70937   9.522   6.922   1.977 -1.1931  0.4270 -0.0121
  526MOL0     C70938   9.533   7.039   1.884 -0.5952 -0.1775 -0.6516
  526MOL0     C70939   9.475   7.153   1.953  0.2454 -0.6406 -0.3361
  526MOL0     C70940   9.442   7.258   2.008 -0.3387 -0.2135 -0.3717
  526MOL0     C70941  10.001   6.704   1.941 -0.2058  0.3610  0.1977
  526MOL0     C70942  10.133   6.677   1.915  0.0666 -0.5161 -0.1499
  526MOL0     H70943  10.609   6.998   2.141 -0.2721 -1.4392  1.1730
  526MOL0     H70944  10.853   7.034   2.113 -0.2817 -0.0867  0.7938
  526MOL0     H70945  11.066   6.751   1.829 -0.6332 -0.0063 -0.8469
  526MOL0     H70946  11.050   6.899   1.727  1.4372 -0.3308 -0.9878
  526MOL0     H70947  11.253   6.842   1.953 -3.8386 -3.1085  0.2246
  526MOL0     H70948  11.271   6.786   1.792  0.9294  0.2723 -0.2445
  526MOL0     H70949  11.264   7.016   1.705 -1.3592  0.2451  1.7491
  526MOL0     H70950  11.259   7.090   1.870  0.7290 -0.0648  1.7854
  526MOL0     H70951  11.450   6.979   1.938 -0.2148 -4.1974 -0.6911
  526MOL0     H70952  11.481   6.910   1.776 -0.8144 -1.6316  2.8775
  526MOL0     H70953  11.473   7.137   1.668  2.2426  0.8305 -0.7610
  526MOL0     H70954  11.480   7.212   1.831 -0.5961 -0.7721  1.0283
  526MOL0     H70955  11.704   7.049   1.709  1.0445  0.2081 -0.0555
  526MOL0     H70956  11.687   7.225   1.748 -2.9921  0.8574  0.3128
  526MOL0     H70957  11.666   7.007   1.959 -0.3647 -0.9957 -3.3593
  526MOL0     H70958  11.832   7.062   1.912 -0.1823  0.8000  0.5964
  526MOL0     H70959  11.623   7.227   2.049 -0.3046  0.5437 -1.1840
  526MOL0     H70960  11.749   7.304   1.963 -1.8560  0.2983 -0.8381
  526MOL0     H70961  11.730   7.020   2.231  1.0564 -1.6980  0.1507
  526MOL0     H70962  11.928   6.961   2.428 -2.6741 -0.3767 -0.1798
  526MOL0     H70963  12.025   7.102   2.472 -1.0191 -1.3121  3.9506
  526MOL0     H70964  11.714   7.090   2.497 -0.6798  2.6119 -0.4749
  526MOL0     H70965  11.821   7.216   2.561  4.4164  0.1981  1.7840
  526MOL0     H70966  11.908   7.101   2.742  0.9243 -0.5242 -0.1504
  526MOL0     H70967  11.853   6.941   2.674 -0.5417  0.2002 -2.9663
  526MOL0     H70968  11.664   7.156   2.748 -2.3592 -0.7789 -0.7951
  526MOL0     H70969  11.709   7.034   2.868 -0.4466  1.7525  1.3485
  526MOL0     H70970  11.436   6.790   2.651  2.0905  1.8441 -2.7787
  526MOL0     H70971  11.078   6.744   2.699 -0.6675  0.6769 -0.0305
  526MOL0     H70972  11.224   6.696   2.618 -2.3044 -0.0541  0.6791
  526MOL0     H70973  11.208   6.655   2.787  1.5975  0.1523 -0.0086
  526MOL0     H70974  10.902   7.211   3.075 -0.2018  2.3642 -2.9918
  526MOL0     H70975  10.657   7.227   3.125 -1.9904 -0.2590  0.5060
  526MOL0     H70976  10.291   7.236   2.894 -0.1741  1.9976 -4.4597
  526MOL0     H70977  10.394   7.199   2.772  0.7621  0.2603  0.4835
  526MOL0     H70978  10.381   6.948   2.820  1.0014 -0.1702  1.0010
  526MOL0     H70979  10.300   6.985   2.970  0.6915 -0.7447  0.1048
  526MOL0     H70980  10.160   6.902   2.783 -0.8806 -0.1552  1.3779
  526MOL0     H70981  10.198   7.040   2.696  1.0528  0.9818  0.0935
  526MOL0     H70982  10.062   7.023   2.969  0.0227  0.1980  1.3586
  526MOL0     H70983  10.071   7.175   2.889  1.9797 -0.0243  0.0896
  526MOL0     H70984   9.925   6.921   2.772  3.4191  0.0477 -1.5361
  526MOL0     H70985   9.930   7.085   2.701 -1.9660  0.7121  0.1391
  526MOL0     H70986   9.804   7.045   2.966  2.0408  2.6029  0.7990
  526MOL0     H70987   9.824   7.193   2.891 -1.5910  1.2315 -2.1667
  526MOL0     H70988   9.663   6.967   2.796  1.0986 -0.1944  3.3941
  526MOL0     H70989   9.700   7.110   2.686  1.6584 -0.7611  0.3287
  526MOL0     H70990   9.600   7.268   2.818 -4.0023  2.0378  0.4235
  526MOL0     H70991   9.560   7.154   2.946 -2.2590  0.6342  0.0317
  526MOL0     H70992  10.573   7.069   2.733  0.2095 -1.0571  0.3013
  526MOL0     H70993  10.813   7.023   2.704 -0.5796  0.5134 -0.5275
  526MOL0     H70994  11.229   7.158   2.916 -2.7166  0.5820 -1.9577
  526MOL0     H70995  11.467   7.178   2.818  1.8131 -0.5419  1.1857
  526MOL0     H70996  10.850   6.721   1.824 -2.1576 -3.0817  2.0278
  526MOL0     H70997  10.620   6.702   1.831 -0.6843  1.2811 -0.2934
  526MOL0     H70998  10.231   6.990   2.035 -0.3824  1.3724 -2.0498
  526MOL0     H70999   9.994   7.022   2.042 -3.1284  0.0324 -0.4019
  526MOL0     H71000   9.818   6.948   2.154  1.4150 -1.9505 -0.9398
  526MOL0     H71001   9.783   7.026   1.998 -3.2978 -1.3171 -3.9517
  526MOL0     H71002   9.581   6.992   2.170 -4.0840 -0.7425 -0.9829
  526MOL0     H71003   9.606   6.815   2.141 -1.8200  2.0488  3.2368
  526MOL0     H71004   9.423   6.915   2.022 -2.1195  1.8180 -1.7379
  526MOL0     H71005   9.544   6.827   1.928 -1.9723 -0.4759  1.3245
  526MOL0     H71006   9.487   7.019   1.787 -2.2429  0.6327 -0.0725
  526MOL0     H71007   9.636   7.067   1.859 -0.6685 -0.2747 -1.0573
  526MOL0     H71008   9.415   7.352   2.052  0.3080  0.3085 -1.0571
  526MOL0     H71009   9.936   6.623   1.908  3.7854 -2.7736 -0.7495
  526MOL0     H71010  10.171   6.578   1.890 -0.9671 -1.0963  0.5043
  527MOL0     O71011   6.785  10.573  10.694  0.2637  0.0091 -0.2086
  527MOL0     C71012   6.774  10.505  10.794  0.4508 -0.6861  0.9809
  527MOL0     O71013   6.678  10.509  10.885  0.0857  0.0788 -0.2281
  527MOL0     C71014   6.556  10.566  10.861 -0.4239 -0.5134 -0.3522
  527MOL0     C71015   6.478  10.636  10.958  0.2223 -0.0952  1.1790
  527MOL0     C71016   6.353  10.696  10.931  0.9659  0.3414  0.6545
  527MOL0     C71017   6.293  10.688  10.808  0.3715 -0.6290 -0.8760
  527MOL0     O71018   6.174  10.757  10.777 -0.7129 -0.9020 -0.4614
  527MOL0     C71019   6.133  10.748  10.637 -0.4931  0.4581 -0.5162
  527MOL0     C71020   6.020  10.830  10.610  0.4877 -0.1895  0.2908
  527MOL0     C71021   5.927  10.755  10.500  0.5649 -0.1387  0.1310
  527MOL0     C71022   5.793  10.833  10.476 -0.4556  0.4201  0.4215
  527MOL0     C71023   5.689  10.835  10.587  0.0771  1.1591  0.2125
  527MOL0     C71024   5.628  10.698  10.599  0.0847  0.1852 -0.8700
  527MOL0     C71025   5.512  10.688  10.702 -0.1604  0.9766  0.6354
  527MOL0     C71026   5.463  10.544  10.697  1.1261  0.5917 -0.7474
  527MOL0     N71027   5.389  10.501  10.576  0.3591  0.2701  0.3555
  527MOL0     C71028   5.270  10.554  10.525 -0.1327 -0.3431 -0.1774
  527MOL0     C71029   5.247  10.479  10.415  0.3964  0.2551 -1.1918
  527MOL0     C71030   5.115  10.483  10.346 -0.1278  0.1857  0.7437
  527MOL0     C71031   5.118  10.460  10.192  0.3862  0.3860 -0.1372
  527MOL0     C71032   5.177  10.316  10.153 -0.2603 -0.5094 -0.2135
  527MOL0     C71033   5.108  10.195  10.217  0.3384 -0.1085  0.4322
  527MOL0     O71034   4.963  10.208  10.212  0.4617 -0.4466 -0.4525
  527MOL0     C71035   4.886  10.198  10.102  0.2111 -0.2281 -0.7312
  527MOL0     C71036   4.748  10.232  10.119 -0.0604 -0.5935 -0.0399
  527MOL0     C71037   4.663  10.233  10.005  0.4820  0.5799  0.6149
  527MOL0     C71038   4.513  10.255  10.032 -0.2087  0.9978 -0.6201
  527MOL0     C71039   4.709  10.201   9.877  0.4147  0.3953  0.8232
  527MOL0     C71040   4.629  10.224   9.753 -0.3368 -0.4067 -0.1937
  527MOL0     O71041   4.528  10.322   9.755 -0.4865  0.4686 -0.4025
  527MOL0     C71042   4.450  10.344   9.646 -0.3133  0.0684 -0.0597
  527MOL0     C71043   4.424  10.471   9.605  0.1894 -1.1094  0.0255
  527MOL0     C71044   4.340  10.495   9.496 -0.5166 -0.2699  0.1656
  527MOL0     C71045   4.280  10.389   9.422 -0.7491 -0.4968 -0.3024
  527MOL0     O71046   4.205  10.406   9.310  0.1022 -0.5218 -0.0582
  527MOL0     C71047   4.086  10.485   9.341 -0.0068  0.6817  0.7844
  527MOL0     C71048   4.006  10.490   9.221  0.6630 -0.4953 -0.6664
  527MOL0     C71049   3.903  10.610   9.229 -0.7395  0.2212  0.1779
  527MOL0     C71050   3.787  10.600   9.121  0.2607 -0.3556  0.8558
  527MOL0     C71051   3.675  10.706   9.140  0.0931 -0.0411  0.5814
  527MOL0     C71052   3.605  10.718   9.279  1.0989  1.0002 -0.0167
  527MOL0     C71053   3.508  10.595   9.292  0.1626  0.3607  0.2657
  527MOL0     C71054   3.401  10.581   9.188  0.2333  0.8699  0.4485
  527MOL0    Cl71055   3.298  10.436   9.235 -0.1741  0.0605  0.0976
  527MOL0     C71056   4.313  10.263   9.466  0.1744 -0.6546 -0.3295
  527MOL0     C71057   4.390  10.240   9.578 -0.3858 -0.4498 -0.2503
  527MOL0     O71058   4.668  10.168   9.649 -0.0684  0.3887  0.0991
  527MOL0     C71059   4.844  10.167   9.861 -0.4191  0.3666  0.0819
  527MOL0     C71060   4.935  10.167   9.974 -0.5338 -0.5534  0.2480
  527MOL0     N71061   5.355  10.394  10.390 -0.1481  0.0459 -0.2337
  527MOL0     N71062   5.439  10.407  10.481  0.0251  0.1134 -0.4436
  527MOL0     C71063   6.356  10.594  10.720  0.0093  0.0401  0.6428
  527MOL0     C71064   6.488  10.535  10.745 -1.1749  0.1755 -0.0470
  527MOL0     C71065   6.891  10.424  10.835  0.1705  0.6049  0.1558
  527MOL0     C71066   6.892  10.366  10.966  0.3000  0.2536  0.1883
  527MOL0     C71067   6.998  10.288  11.022 -0.0373 -0.0297 -0.0623
  527MOL0     C71068   7.106  10.265  10.940 -0.2715 -0.5049  1.0860
  527MOL0     O71069   7.210  10.190  10.978 -0.0482  0.5215  0.2974
  527MOL0     C71070   7.254  10.229  11.108 -0.1640 -0.3186 -0.2391
  527MOL0     C71071   7.393  10.186  11.126 -1.1794 -0.5170  0.2788
  527MOL0     C71072   7.509  10.269  11.067 -0.1781 -0.1591 -0.4768
  527MOL0     C71073   7.648  10.236  11.130 -0.3618  0.4986  0.2863
  527MOL0     C71074   7.671  10.317  11.252 -1.1169 -0.5374 -0.2806
  527MOL0     C71075   7.692  10.389  11.348  0.0075  0.5261 -0.2855
  527MOL0     C71076   7.113  10.310  10.812  0.4541 -0.3656  1.2054
  527MOL0     C71077   7.003  10.401  10.765 -0.7918 -0.1074  0.3848
  527MOL0     H71078   6.525  10.644  11.055 -0.1740 -0.0830  1.3718
  527MOL0     H71079   6.295  10.758  10.998 -1.7304  0.7108 -1.8186
  527MOL0     H71080   6.221  10.785  10.583  1.6007 -0.4862  2.0720
  527MOL0     H71081   6.122  10.645  10.601 -0.2742  1.4159 -3.6639
  527MOL0     H71082   5.955  10.847  10.697  1.3732  0.9962  0.7442
  527MOL0     H71083   6.055  10.925  10.571  0.7550 -0.0429  0.8707
  527MOL0     H71084   5.981  10.743  10.406 -2.6571  2.6860 -2.3379
  527MOL0     H71085   5.902  10.654  10.536 -2.2505 -0.8573 -3.2875
  527MOL0     H71086   5.824  10.937  10.460 -1.7546  0.4021 -2.9524
  527MOL0     H71087   5.744  10.801  10.384  0.3733  2.7226 -0.9177
  527MOL0     H71088   5.729  10.852  10.688 -1.2493 -0.2626  1.0192
  527MOL0     H71089   5.621  10.917  10.566  0.1663  1.2012  0.0898
  527MOL0     H71090   5.590  10.660  10.504 -2.8073 -1.6192  0.8420
  527MOL0     H71091   5.701  10.627  10.639 -1.0420  0.6441  2.3195
  527MOL0     H71092   5.557  10.715  10.799  0.8768 -0.1432  0.4789
  527MOL0     H71093   5.432  10.759  10.678  0.4683  2.4414  2.5543
  527MOL0     H71094   5.401  10.531  10.786  0.5337 -1.9101 -1.4270
  527MOL0     H71095   5.548  10.476  10.714  0.4787  0.6258  3.8844
  527MOL0     H71096   5.202  10.630  10.561  1.1543 -0.7845  3.5756
  527MOL0     H71097   5.037  10.418  10.387 -3.2544  2.4496 -1.2058
  527MOL0     H71098   5.082  10.586  10.359  1.0397  0.4830  1.4572
  527MOL0     H71099   5.193  10.530  10.154  1.5431  0.8024  2.6199
  527MOL0     H71100   5.018  10.487  10.159  0.3008  0.6264  0.3031
  527MOL0     H71101   5.283  10.315  10.177  0.1237  2.5502 -1.3000
  527MOL0     H71102   5.167  10.303  10.044  2.1285 -1.2637 -0.3838
  527MOL0     H71103   5.134  10.189  10.323  0.4784 -1.7547  0.3299
  527MOL0     H71104   5.137  10.105  10.162  0.0240  0.0564 -0.0144
  527MOL0     H71105   4.710  10.265  10.215  0.9928  3.4511 -0.8264
  527MOL0     H71106   4.475  10.344   9.982  1.2050  2.7190  1.1925
  527MOL0     H71107   4.450  10.168  10.014 -1.4589  0.8913  3.4010
  527MOL0     H71108   4.503  10.275  10.139  1.9773 -1.3319  0.1274
  527MOL0     H71109   4.465  10.559   9.654 -0.3631  0.5395 -2.3131
  527MOL0     H71110   4.313  10.592   9.457  1.8223  0.3880  0.0328
  527MOL0     H71111   4.025  10.451   9.425 -0.4346 -0.0296  0.2058
  527MOL0     H71112   4.119  10.584   9.371 -3.9765  1.3266  3.8569
  527MOL0     H71113   4.077  10.519   9.144 -0.6397  6.5547  0.0880
  527MOL0     H71114   3.966  10.389   9.204  3.0276 -1.2495 -2.1559
  527MOL0     H71115   3.962  10.701   9.211  0.2162  0.1972  2.8028
  527MOL0     H71116   3.852  10.623   9.325 -0.0388  1.0522  0.4448
  527MOL0     H71117   3.842  10.607   9.026 -1.5234  0.8414 -0.1425
  527MOL0     H71118   3.734  10.505   9.123  0.2088 -0.3891 -0.7023
  527MOL0     H71119   3.607  10.709   9.054  1.2393  0.7308 -0.3334
  527MOL0     H71120   3.721  10.805   9.133 -2.0439  0.9920  0.1097
  527MOL0     H71121   3.663  10.715   9.372 -1.6818 -0.8382  1.8423
  527MOL0     H71122   3.565  10.819   9.288  2.5220  1.6394 -0.5324
  527MOL0     H71123   3.448  10.598   9.383  1.3429 -3.2771  1.3323
  527MOL0     H71124   3.569  10.505   9.296  0.3187  0.5040  1.1174
  527MOL0     H71125   3.457  10.563   9.096 -2.1347  0.2521 -0.9425
  527MOL0     H71126   3.344  10.673   9.173 -2.1844 -0.5560  0.4023
  527MOL0     H71127   4.271  10.173   9.422 -2.0370 -0.0747  0.4706
  527MOL0     H71128   4.404  10.139   9.613 -1.6033 -0.8530 -0.8856
  527MOL0     H71129   4.892  10.164   9.764  2.8592 -0.9452  1.5857
  527MOL0     H71130   5.039  10.138   9.961 -1.2013 -2.7633 -0.4797
  527MOL0     H71131   6.313  10.574  10.622  1.8047  1.9173 -0.6315
  527MOL0     H71132   6.543  10.471  10.677 -2.3661 -2.2014  1.1164
  527MOL0     H71133   6.815  10.374  11.042 -1.3585  0.0569 -1.4163
  527MOL0     H71134   6.985  10.243  11.119  0.8218 -0.3011 -0.0633
  527MOL0     H71135   7.262  10.338  11.116 -0.2526 -0.3977  1.0646
  527MOL0     H71136   7.186  10.206  11.189  1.3009  4.2049  2.6349
  527MOL0     H71137   7.401  10.086  11.082  0.3058 -0.2513 -0.1111
  527MOL0     H71138   7.410  10.183  11.233  1.0100 -2.8973 -0.0519
  527MOL0     H71139   7.482  10.375  11.074 -1.9803 -0.5344 -1.2829
  527MOL0     H71140   7.519  10.240  10.962  3.3319  3.8784 -1.5325
  527MOL0     H71141   7.724  10.251  11.054 -1.1565 -1.9382 -1.1112
  527MOL0     H71142   7.662  10.129  11.149  0.3679  0.6766  0.7948
  527MOL0     H71143   7.711  10.442  11.439 -3.3617  0.9872  0.2688
  527MOL0     H71144   7.208  10.291  10.763 -0.3603 -0.5755 -0.3587
  527MOL0     H71145   7.005  10.453  10.670 -0.9397  1.7289  1.3432
  528MOL0     O71146  10.093   9.376   4.512  0.1247 -0.4553  0.3729
  528MOL0     C71147  10.156   9.422   4.602 -0.7545  0.3214  0.6984
  528MOL0     O71148  10.109   9.468   4.721  0.0005 -0.6365 -0.9459
  528MOL0     C71149   9.972   9.465   4.753 -0.1834  0.0466 -0.1947
  528MOL0     C71150   9.885   9.356   4.720  0.1018  0.1878  0.3098
  528MOL0     C71151   9.756   9.358   4.751 -0.4657  0.8574 -0.6292
  528MOL0     C71152   9.698   9.466   4.819  0.5463  0.0550  0.5465
  528MOL0     O71153   9.562   9.490   4.830 -0.0921  0.0042 -0.9256
  528MOL0     C71154   9.465   9.394   4.798 -0.7498 -0.0095 -0.3195
  528MOL0     C71155   9.317   9.457   4.802  0.0304 -0.6771 -1.5181
  528MOL0     C71156   9.265   9.510   4.946  0.5165  0.4901  0.5654
  528MOL0     C71157   9.136   9.592   4.931 -0.0091 -0.4987 -0.2884
  528MOL0     C71158   9.108   9.660   5.063 -0.5407 -0.6316  0.1630
  528MOL0     C71159   8.988   9.751   5.071  0.3561 -0.0097 -0.0967
  528MOL0     C71160   8.940   9.791   5.206  0.3200 -0.5905  0.2915
  528MOL0     C71161   8.848   9.685   5.269 -0.1306 -0.8012  0.1856
  528MOL0     N71162   8.804   9.742   5.403  0.0431 -0.0779  0.0988
  528MOL0     C71163   8.818   9.691   5.527 -1.0666 -0.3990  0.6035
  528MOL0     C71164   8.759   9.775   5.606  0.1568 -0.5205 -0.3591
  528MOL0     C71165   8.748   9.767   5.758  0.5514 -0.9522  0.2307
  528MOL0     C71166   8.757   9.911   5.823  0.2589  0.3122 -0.1236
  528MOL0     C71167   8.738   9.919   5.977  0.2722  0.0218  0.5354
  528MOL0     C71168   8.602   9.869   6.030 -0.4476  0.9168  0.2782
  528MOL0     O71169   8.605   9.875   6.171 -0.0139  0.8860 -0.2170
  528MOL0     C71170   8.573   9.994   6.230 -0.3126  0.2281 -0.2300
  528MOL0     C71171   8.556   9.992   6.371 -0.0749  0.7160  0.3866
  528MOL0     C71172   8.519  10.104   6.446  0.0964 -0.6904 -0.3839
  528MOL0     C71173   8.505  10.076   6.595 -0.3997 -0.3649  0.7991
  528MOL0     C71174   8.500  10.221   6.375  0.1200 -0.0358  1.2278
  528MOL0     C71175   8.454  10.348   6.437  0.0987 -0.0903  0.5040
  528MOL0     O71176   8.463  10.467   6.369 -0.7920  0.0016  1.3874
  528MOL0     C71177   8.435  10.584   6.425  0.4249  0.2845  0.1535
  528MOL0     C71178   8.319  10.656   6.411 -0.0395 -0.0566  0.5716
  528MOL0     C71179   8.304  10.783   6.476  0.2027 -0.4454  0.2559
  528MOL0     C71180   8.408  10.824   6.561  0.3679 -0.3671 -0.8004
  528MOL0     O71181   8.397  10.941   6.635 -0.1850  0.4742  0.0949
  528MOL0     C71182   8.272  10.993   6.682  0.2286  0.1603  0.3197
  528MOL0     C71183   8.215  11.093   6.587 -0.1099 -0.4899  0.8787
  528MOL0     C71184   8.063  11.126   6.620 -0.4484 -0.2150  0.0176
  528MOL0     C71185   8.013  11.218   6.504 -0.0042 -0.5836 -0.9791
  528MOL0     C71186   7.881  11.286   6.538 -0.1337  1.0344  0.2560
  528MOL0     C71187   7.760  11.208   6.486  0.1547  0.3870  0.5731
  528MOL0     C71188   7.615  11.253   6.515  0.0842 -0.8061 -0.1696
  528MOL0     C71189   7.584  11.383   6.442 -0.9217 -0.0641  0.4102
  528MOL0    Cl71190   7.399  11.405   6.425  0.2773  0.4025 -0.0775
  528MOL0     C71191   8.527  10.755   6.571  0.5276 -0.3890  0.1726
  528MOL0     C71192   8.545  10.636   6.501 -1.2822  0.0603  0.6926
  528MOL0     O71193   8.392  10.335   6.549 -0.7925 -0.2798  0.3899
  528MOL0     C71194   8.508  10.221   6.237 -0.5432 -0.6105 -0.5163
  528MOL0     C71195   8.551  10.108   6.167 -0.0149 -0.7501 -0.4004
  528MOL0     N71196   8.695   9.873   5.534  0.2949  0.1985  0.5168
  528MOL0     N71197   8.731   9.863   5.417 -0.1908  0.1641  0.3812
  528MOL0     C71198   9.780   9.577   4.842 -0.1790 -0.2577 -0.7271
  528MOL0     C71199   9.911   9.578   4.809 -0.5050  0.3192 -0.4784
  528MOL0     C71200  10.300   9.407   4.592 -0.1270 -0.5019 -0.2192
  528MOL0     C71201  10.359   9.334   4.485 -0.2523 -0.9020 -0.3944
  528MOL0     C71202  10.499   9.329   4.476  0.1049  0.4947 -0.4623
  528MOL0     C71203  10.576   9.383   4.578  0.4384  0.0228 -0.4601
  528MOL0     O71204  10.712   9.362   4.565 -0.3758 -0.3352  0.1760
  528MOL0     C71205  10.791   9.445   4.646 -0.2828 -0.3755 -0.0918
  528MOL0     C71206  10.941   9.413   4.637 -0.1417  0.2400  0.6308
  528MOL0     C71207  11.009   9.491   4.759 -0.1147 -0.3894  0.5194
  528MOL0     C71208  11.165   9.465   4.763  0.2716 -0.4819 -0.0349
  528MOL0     C71209  11.214   9.333   4.735  0.2413 -0.7211 -0.2288
  528MOL0     C71210  11.250   9.225   4.716 -0.4064 -0.6153 -0.8921
  528MOL0     C71211  10.515   9.447   4.689 -0.2861 -0.5214  0.4744
  528MOL0     C71212  10.374   9.457   4.700  0.0151  0.0998 -0.2214
  528MOL0     H71213   9.918   9.271   4.662 -4.4758 -2.5501  1.2548
  528MOL0     H71214   9.691   9.271   4.744  0.7120 -0.1095  0.1237
  528MOL0     H71215   9.480   9.351   4.698  2.5064  0.1398 -0.0077
  528MOL0     H71216   9.477   9.327   4.883 -1.4468  1.6101  1.0982
  528MOL0     H71217   9.314   9.545   4.737  0.9929 -0.2787 -1.0405
  528MOL0     H71218   9.243   9.381   4.777 -0.5471 -0.2049 -1.2930
  528MOL0     H71219   9.235   9.425   5.007 -0.8002 -1.6288 -2.7147
  528MOL0     H71220   9.348   9.561   4.997  2.9822 -1.8731 -0.8354
  528MOL0     H71221   9.155   9.669   4.855  2.3604 -0.6845  0.0248
  528MOL0     H71222   9.050   9.529   4.907 -0.3523 -1.0837  2.2100
  528MOL0     H71223   9.097   9.577   5.133  2.2488 -2.0014 -0.8776
  528MOL0     H71224   9.190   9.726   5.094 -2.4903  1.9796  0.0774
  528MOL0     H71225   9.009   9.838   5.009  0.1684  0.0561 -0.0666
  528MOL0     H71226   8.911   9.695   5.018  2.5459 -1.2508 -2.1479
  528MOL0     H71227   9.026   9.802   5.273 -0.3349 -1.0135  1.2281
  528MOL0     H71228   8.886   9.886   5.200 -1.3554 -1.2858  2.6530
  528MOL0     H71229   8.894   9.586   5.281 -0.5540 -1.1415 -0.8991
  528MOL0     H71230   8.760   9.676   5.205  0.7014  2.4727 -1.6781
  528MOL0     H71231   8.867   9.597   5.552 -1.1730  0.0547  2.6826
  528MOL0     H71232   8.654   9.714   5.774 -1.0487  0.8826 -2.2584
  528MOL0     H71233   8.827   9.699   5.792  1.7898  0.1991 -0.2380
  528MOL0     H71234   8.680   9.974   5.777 -0.2903 -0.4012 -0.1987
  528MOL0     H71235   8.853   9.957   5.797  0.4220  0.2462  0.3450
  528MOL0     H71236   8.747  10.022   6.010 -0.0043  0.5762 -1.0314
  528MOL0     H71237   8.816   9.861   6.026  2.0284  2.4627  0.7895
  528MOL0     H71238   8.588   9.772   5.981  0.5770  0.2829  1.1880
  528MOL0     H71239   8.523   9.937   5.997  0.0950  1.9826  1.1175
  528MOL0     H71240   8.565   9.893   6.413  1.1609 -0.1010 -1.6586
  528MOL0     H71241   8.398  10.055   6.608 -0.0945 -0.9938  2.5092
  528MOL0     H71242   8.566   9.990   6.621  0.6445  0.0176 -0.2838
  528MOL0     H71243   8.535  10.160   6.659 -0.8301 -1.9815  3.2699
  528MOL0     H71244   8.246  10.613   6.343 -1.0036  1.3642  0.6529
  528MOL0     H71245   8.219  10.845   6.449  0.3110  0.1774  1.3162
  528MOL0     H71246   8.189  10.922   6.688 -0.7717  1.3128  0.6895
  528MOL0     H71247   8.285  11.047   6.776 -0.0364  2.2266 -0.7701
  528MOL0     H71248   8.273  11.185   6.585  2.0580 -1.7746 -1.4696
  528MOL0     H71249   8.219  11.045   6.489 -0.0303 -4.1654  2.4746
  528MOL0     H71250   8.052  11.171   6.719  1.5930 -2.8312  1.5611
  528MOL0     H71251   8.017  11.030   6.596  1.8966 -1.5941  0.6801
  528MOL0     H71252   8.089  11.296   6.494  0.2989 -0.8774 -0.9953
  528MOL0     H71253   8.003  11.159   6.412 -1.0794 -1.9020 -0.0518
  528MOL0     H71254   7.869  11.387   6.498  0.1525  1.1327  0.4147
  528MOL0     H71255   7.864  11.304   6.645 -1.9399  1.0223 -0.0088
  528MOL0     H71256   7.771  11.197   6.377 -2.8758  1.0137  0.1097
  528MOL0     H71257   7.769  11.113   6.539  2.6984  0.8430  1.0865
  528MOL0     H71258   7.592  11.268   6.621  0.1822 -2.7215  0.1719
  528MOL0     H71259   7.556  11.170   6.476  0.8244 -1.4626  0.0630
  528MOL0     H71260   7.634  11.403   6.347 -0.2674  0.8647  0.9343
  528MOL0     H71261   7.616  11.458   6.515  0.8902 -1.2659  0.9038
  528MOL0     H71262   8.602  10.793   6.639  0.9778 -1.8009  0.5141
  528MOL0     H71263   8.633  10.576   6.522 -0.4868  1.6179  2.0287
  528MOL0     H71264   8.476  10.314   6.191  1.3446  0.6530  0.5897
  528MOL0     H71265   8.560  10.131   6.062  0.2846  0.0576 -0.2023
  528MOL0     H71266   9.737   9.663   4.892  3.3522  1.6954 -0.7563
  528MOL0     H71267   9.965   9.670   4.830 -1.1825  0.2315  2.0391
  528MOL0     H71268  10.299   9.298   4.403  0.5226 -1.7169 -0.6145
  528MOL0     H71269  10.555   9.277   4.399  3.8718  2.8458  0.4138
  528MOL0     H71270  10.793   9.548   4.608  1.3142  0.1944  1.4152
  528MOL0     H71271  10.760   9.443   4.751 -1.9993  0.1130 -0.5580
  528MOL0     H71272  10.987   9.438   4.541 -0.8800 -1.6568 -0.2640
  528MOL0     H71273  10.965   9.308   4.655 -1.3030 -0.0813  0.3506
  528MOL0     H71274  10.965   9.453   4.852 -3.2014  1.0628 -0.2116
  528MOL0     H71275  10.996   9.598   4.744  2.2941  0.1742  1.9203
  528MOL0     H71276  11.201   9.493   4.863 -1.4974 -0.1751  0.5565
  528MOL0     H71277  11.213   9.539   4.699  1.9653 -0.4232  1.2091
  528MOL0     H71278  11.273   9.121   4.717 -3.4859 -1.7590  5.7828
  528MOL0     H71279  10.567   9.486   4.776  0.6470 -1.8320  0.5322
  528MOL0     H71280  10.329   9.502   4.788  0.3498  4.0058 -1.8302
  529MOL0     O71281   1.274   6.934   0.587 -0.6418 -0.2716  0.0953
  529MOL0     C71282   1.230   7.040   0.633  0.4417  0.1085  0.3679
  529MOL0     O71283   1.309   7.139   0.683  0.5766 -0.0278 -0.3081
  529MOL0     C71284   1.444   7.118   0.667  0.1444 -0.4916  0.0451
  529MOL0     C71285   1.505   7.110   0.538 -0.8374 -0.0412  0.0143
  529MOL0     C71286   1.644   7.086   0.527 -1.0375 -0.6796 -0.4247
  529MOL0     C71287   1.728   7.067   0.636  0.0641 -0.4632 -0.2264
  529MOL0     O71288   1.854   7.033   0.627 -0.0987  0.7278 -0.3669
  529MOL0     C71289   1.923   6.945   0.717 -0.4214  0.8655  0.2563
  529MOL0     C71290   2.077   6.989   0.723  0.1863  0.0351  0.1364
  529MOL0     C71291   2.078   7.143   0.731 -0.3701  1.0106  0.0404
  529MOL0     C71292   2.229   7.183   0.764  0.1106  0.1134 -0.9323
  529MOL0     C71293   2.245   7.325   0.798  0.1382 -0.4321  0.9226
  529MOL0     C71294   2.380   7.361   0.871  0.5248  0.4160 -0.1313
  529MOL0     C71295   2.380   7.511   0.894 -0.1924 -0.5398  0.4130
  529MOL0     C71296   2.502   7.563   0.963 -0.1279  0.4708 -0.9043
  529MOL0     N71297   2.628   7.521   0.911 -0.1662  0.1843  0.6250
  529MOL0     C71298   2.702   7.413   0.958 -0.2145 -0.3324 -0.8172
  529MOL0     C71299   2.825   7.423   0.897  0.5724  0.0145  0.4895
  529MOL0     C71300   2.942   7.330   0.919 -0.4642  0.8635 -0.1064
  529MOL0     C71301   2.976   7.326   1.077  0.3021  0.0370 -0.1834
  529MOL0     C71302   3.028   7.193   1.116 -0.3459 -0.2782 -0.8084
  529MOL0     C71303   3.111   7.194   1.237 -0.7548 -1.3393  0.1714
  529MOL0     O71304   3.140   7.062   1.275 -0.0495  0.3083  0.0121
  529MOL0     C71305   3.247   7.052   1.366  0.6678 -0.5881  0.2223
  529MOL0     C71306   3.272   6.921   1.410  0.2097  0.0528 -0.1001
  529MOL0     C71307   3.383   6.891   1.491  0.2773 -0.0594 -0.3121
  529MOL0     C71308   3.418   6.745   1.509 -0.1448 -0.3525 -0.0461
  529MOL0     C71309   3.460   6.996   1.538 -0.1276  1.1115 -0.0317
  529MOL0     C71310   3.557   6.971   1.639  0.3111 -1.1011 -0.0224
  529MOL0     O71311   3.668   7.035   1.617 -0.1767  0.2452 -0.0732
  529MOL0     C71312   3.788   6.995   1.677  0.2057 -0.0405 -0.4340
  529MOL0     C71313   3.821   6.864   1.716 -0.4042  0.2712 -0.4400
  529MOL0     C71314   3.950   6.841   1.767  0.3877 -0.1672  0.2780
  529MOL0     C71315   4.043   6.942   1.778  0.4404  0.1531 -0.0382
  529MOL0     O71316   4.176   6.927   1.808 -0.6710  0.0881 -0.8393
  529MOL0     C71317   4.212   6.814   1.892  0.0775 -0.2893  0.5403
  529MOL0     C71318   4.342   6.838   1.956 -0.7268 -0.9496  0.9742
  529MOL0     C71319   4.371   6.727   2.062  0.0551 -0.6647  0.2139
  529MOL0     C71320   4.503   6.731   2.132  0.2700 -0.0371 -1.3435
  529MOL0     C71321   4.615   6.671   2.047 -0.0040  0.5946  1.2250
  529MOL0     C71322   4.752   6.654   2.120  0.7832  0.0341  0.4852
  529MOL0     C71323   4.839   6.572   2.040 -0.5782 -0.2607  0.2515
  529MOL0     C71324   4.991   6.584   2.080  0.8469  0.2183  0.2065
  529MOL0    Cl71325   5.102   6.467   1.991  0.3561  0.3227  0.1301
  529MOL0     C71326   4.011   7.078   1.746 -0.7796 -0.9120  0.3292
  529MOL0     C71327   3.882   7.100   1.699  0.3422 -0.3332  0.7960
  529MOL0     O71328   3.535   6.891   1.734  0.0129  0.4690 -0.0844
  529MOL0     C71329   3.443   7.121   1.496 -0.0262 -0.0131 -0.2837
  529MOL0     C71330   3.340   7.152   1.407  0.5936  0.5154 -0.6837
  529MOL0     N71331   2.820   7.529   0.815  0.3134 -0.1193  0.3940
  529MOL0     N71332   2.704   7.592   0.826 -0.1534  0.2239  0.4336
  529MOL0     C71333   1.676   7.097   0.760  0.3260  0.8365  0.5060
  529MOL0     C71334   1.533   7.112   0.777  0.0309 -0.4710 -0.4494
  529MOL0     C71335   1.085   7.057   0.644  0.1560  0.1759  0.3109
  529MOL0     C71336   1.037   7.160   0.727  0.3813  0.5267  0.0996
  529MOL0     C71337   0.902   7.177   0.746  0.8212  0.1731  0.4981
  529MOL0     C71338   0.808   7.089   0.682  0.3451  0.9295  0.4499
  529MOL0     O71339   0.685   7.074   0.731 -0.0568  0.3337 -0.3839
  529MOL0     C71340   0.583   7.110   0.649 -0.3330 -0.1346 -0.9506
  529MOL0     C71341   0.456   7.023   0.686  0.1088 -0.2195 -0.0333
  529MOL0     C71342   0.348   7.034   0.579 -0.0652 -0.6685 -0.6742
  529MOL0     C71343   0.263   6.905   0.567 -0.4442  0.1455  0.7436
  529MOL0     C71344   0.179   6.877   0.681  0.5364 -0.7523  0.4707
  529MOL0     C71345   0.106   6.867   0.779  0.1040  0.1946 -0.0420
  529MOL0     C71346   0.865   6.979   0.600 -0.2195 -0.6019 -0.4529
  529MOL0     C71347   1.003   6.970   0.577  0.3746  0.2921  0.0850
  529MOL0     H71348   1.445   7.132   0.451  1.6338 -0.6070 -1.9278
  529MOL0     H71349   1.695   7.097   0.432  0.7356 -0.7408  0.4753
  529MOL0     H71350   1.900   6.944   0.824  0.3090 -2.4665  0.5052
  529MOL0     H71351   1.906   6.840   0.692 -1.8187  1.0112  0.4959
  529MOL0     H71352   2.129   6.952   0.811  1.5940  0.8235 -0.3389
  529MOL0     H71353   2.132   6.949   0.637 -0.2817  1.0309 -0.6489
  529MOL0     H71354   2.044   7.186   0.637  0.7954  2.4533  0.2491
  529MOL0     H71355   2.016   7.180   0.813 -1.0359  1.9810 -0.8733
  529MOL0     H71356   2.263   7.136   0.857  1.4481  1.5775 -0.6499
  529MOL0     H71357   2.292   7.159   0.678  2.8757 -1.5979  1.3986
  529MOL0     H71358   2.245   7.380   0.704  2.8366 -2.4599 -0.4068
  529MOL0     H71359   2.152   7.348   0.850 -0.8903  0.2649 -1.1474
  529MOL0     H71360   2.395   7.311   0.967  1.5402 -1.4569 -1.2114
  529MOL0     H71361   2.472   7.326   0.824  0.2578 -2.5372  1.3053
  529MOL0     H71362   2.368   7.563   0.799 -1.2674 -1.0439  0.2591
  529MOL0     H71363   2.291   7.546   0.948 -0.3258  0.9699 -0.7247
  529MOL0     H71364   2.498   7.537   1.069 -3.5661  0.7549 -0.8378
  529MOL0     H71365   2.506   7.672   0.973 -0.1964  0.3112  1.5227
  529MOL0     H71366   2.672   7.327   1.018 -0.1051 -0.4886 -0.9842
  529MOL0     H71367   2.913   7.228   0.893 -1.0414 -0.0965  3.7406
  529MOL0     H71368   3.024   7.360   0.853  0.2289  0.0755  0.3829
  529MOL0     H71369   2.888   7.350   1.137 -0.2499 -1.9968 -0.0946
  529MOL0     H71370   3.066   7.386   1.091  0.9851 -0.4475 -2.2128
  529MOL0     H71371   3.072   7.149   1.027 -4.0115 -0.8379 -2.5515
  529MOL0     H71372   2.941   7.129   1.136  0.6451 -1.0765  1.3194
  529MOL0     H71373   3.077   7.259   1.319  0.0479  0.5132 -0.8863
  529MOL0     H71374   3.206   7.241   1.205 -2.4310  1.7783 -0.7106
  529MOL0     H71375   3.213   6.833   1.386  1.3704 -1.0217  0.8262
  529MOL0     H71376   3.426   6.708   1.612 -3.2881  2.0348  1.2363
  529MOL0     H71377   3.353   6.686   1.443 -2.1020  0.2865  1.2115
  529MOL0     H71378   3.522   6.742   1.476 -0.3743  1.9541 -1.1438
  529MOL0     H71379   3.745   6.788   1.701 -1.3721  1.5402 -2.4913
  529MOL0     H71380   3.977   6.739   1.795 -2.3346 -1.2449 -0.7432
  529MOL0     H71381   4.134   6.784   1.963 -2.2438 -1.0495 -2.1643
  529MOL0     H71382   4.225   6.732   1.821 -0.0257  0.5449 -0.4693
  529MOL0     H71383   4.426   6.849   1.887 -1.2973  0.9831  0.5238
  529MOL0     H71384   4.343   6.939   1.998  0.3031 -0.3421 -0.4471
  529MOL0     H71385   4.368   6.640   1.995 -0.2081 -2.5339  2.5479
  529MOL0     H71386   4.291   6.702   2.133  0.4344 -1.5512  0.3364
  529MOL0     H71387   4.529   6.830   2.171 -2.1778 -0.9791  3.3251
  529MOL0     H71388   4.506   6.675   2.225  1.1857  1.3790 -0.4809
  529MOL0     H71389   4.611   6.741   1.962 -2.0142  0.6539  1.3074
  529MOL0     H71390   4.581   6.575   2.007 -1.5284  2.1425 -1.6055
  529MOL0     H71391   4.791   6.755   2.138 -1.1817  0.8339  0.5126
  529MOL0     H71392   4.738   6.606   2.217 -0.3580  0.0748  0.3571
  529MOL0     H71393   4.835   6.602   1.934 -1.4055 -2.7256 -0.4826
  529MOL0     H71394   4.809   6.467   2.042  3.7051 -1.6923  2.2292
  529MOL0     H71395   4.996   6.565   2.187 -2.5091  3.1992  1.0851
  529MOL0     H71396   5.023   6.687   2.061  1.0299  0.6590  2.5971
  529MOL0     H71397   4.089   7.147   1.773 -0.9456 -0.7685  0.4474
  529MOL0     H71398   3.838   7.197   1.683 -2.4574 -1.4539  1.1135
  529MOL0     H71399   3.509   7.195   1.540  0.1082 -0.8253  0.9512
  529MOL0     H71400   3.309   7.253   1.383  0.9097  0.1532 -2.8090
  529MOL0     H71401   1.741   7.109   0.846  0.7269 -0.9280  0.4892
  529MOL0     H71402   1.484   7.118   0.873  0.4266  0.1007 -0.2794
  529MOL0     H71403   1.106   7.223   0.782  3.4015 -0.7030 -2.0537
  529MOL0     H71404   0.866   7.251   0.817 -1.3733  2.3662 -2.6703
  529MOL0     H71405   0.557   7.215   0.661 -2.0904 -0.8243  2.7184
  529MOL0     H71406   0.607   7.079   0.547  3.1410 -0.0582 -0.2733
  529MOL0     H71407   0.416   7.053   0.783 -0.2789 -2.8743  0.7218
  529MOL0     H71408   0.482   6.917   0.679 -0.9110 -0.3877 -2.0458
  529MOL0     H71409   0.386   7.063   0.481  2.8138 -4.1253 -0.7987
  529MOL0     H71410   0.272   7.109   0.602 -0.2481 -0.5704 -1.5580
  529MOL0     H71411   0.322   6.817   0.538  1.5492  1.5943  0.2336
  529MOL0     H71412   0.190   6.917   0.487 -0.8130  2.6943  1.3831
  529MOL0     H71413   0.053   6.849   0.870 -0.5069  3.6423  0.4085
  529MOL0     H71414   0.794   6.906   0.562  0.5399 -2.8400  2.1096
  529MOL0     H71415   1.028   6.883   0.517  2.0131  0.0986  0.9674
  530MOL0     O71416   5.499   9.021   6.205  0.3889 -0.1686  0.5645
  530MOL0     C71417   5.546   9.059   6.098 -0.7545 -0.4408  0.3996
  530MOL0     O71418   5.486   9.089   5.990 -0.4635 -0.8140  0.0730
  530MOL0     C71419   5.350   9.092   5.966  0.3715  0.4515 -0.6650
  530MOL0     C71420   5.306   9.170   5.863 -0.0766 -0.4315  0.4439
  530MOL0     C71421   5.171   9.173   5.825  0.7259 -0.0703  0.2096
  530MOL0     C71422   5.074   9.093   5.883  0.0200 -0.7564 -0.6230
  530MOL0     O71423   4.945   9.107   5.838 -0.1650  0.1789 -0.4355
  530MOL0     C71424   4.850   9.046   5.928  0.8846  0.5034 -0.6649
  530MOL0     C71425   4.702   9.091   5.910  0.7744 -0.1177  0.1182
  530MOL0     C71426   4.670   9.225   5.975  0.1386  0.0565  0.4978
  530MOL0     C71427   4.530   9.264   5.933  0.0525 -0.2299 -0.3665
  530MOL0     C71428   4.486   9.389   6.015 -0.2953  0.1229  0.3883
  530MOL0     C71429   4.378   9.462   5.939 -0.0298 -0.5234  0.8376
  530MOL0     C71430   4.429   9.559   5.829 -0.9164  0.1495  0.7753
  530MOL0     C71431   4.312   9.623   5.750 -0.1829 -0.7203  0.7737
  530MOL0     N71432   4.253   9.745   5.806 -0.1348  0.0336 -0.4849
  530MOL0     C71433   4.287   9.875   5.782 -0.1590 -0.1275 -0.1791
  530MOL0     C71434   4.197   9.956   5.836  0.3527 -0.5101  0.4386
  530MOL0     C71435   4.193  10.114   5.834  0.1634  0.5862  0.2679
  530MOL0     C71436   4.263  10.179   5.715 -0.4329  0.1138 -0.4383
  530MOL0     C71437   4.199  10.136   5.578 -0.0384 -0.6849  0.8778
  530MOL0     C71438   4.239  10.239   5.472 -0.2314  0.6141 -0.1292
  530MOL0     O71439   4.159  10.218   5.349  0.0770  0.0851  0.3361
  530MOL0     C71440   4.211  10.157   5.237  0.4538 -0.0285 -0.1758
  530MOL0     C71441   4.147  10.181   5.115  0.5849  0.0233  0.1283
  530MOL0     C71442   4.176  10.108   5.002 -0.3063  0.1102  0.1824
  530MOL0     C71443   4.089  10.125   4.889 -0.4365  0.2083  0.4196
  530MOL0     C71444   4.280  10.006   5.004 -0.0848 -0.5900 -0.0332
  530MOL0     C71445   4.301   9.908   4.886  0.1335 -0.3324 -0.7073
  530MOL0     O71446   4.429   9.894   4.854  0.5131 -0.3427 -0.6701
  530MOL0     C71447   4.470   9.830   4.743  0.0916 -0.4021  0.5415
  530MOL0     C71448   4.580   9.739   4.763  0.3442  0.4795 -0.4695
  530MOL0     C71449   4.650   9.682   4.653  0.0194  0.3766  0.0257
  530MOL0     C71450   4.608   9.711   4.526 -0.3774 -0.0185  0.1691
  530MOL0     O71451   4.661   9.662   4.408 -0.2312 -0.0817 -0.5469
  530MOL0     C71452   4.751   9.554   4.411 -0.2061  0.0416 -0.3084
  530MOL0     C71453   4.798   9.543   4.263 -0.2986 -0.1644 -1.1744
  530MOL0     C71454   4.864   9.409   4.233 -0.6367 -0.2350  0.0682
  530MOL0     C71455   4.913   9.400   4.086 -0.3403  0.8310 -0.7282
  530MOL0     C71456   4.946   9.260   4.044 -0.2270 -0.0543  0.8610
  530MOL0     C71457   4.994   9.226   3.906 -0.9274  0.0548  1.2333
  530MOL0     C71458   5.077   9.341   3.848 -0.9877  0.2082  0.7388
  530MOL0     C71459   5.135   9.302   3.713  0.3125  0.0440 -0.0152
  530MOL0    Cl71460   5.284   9.198   3.731  0.0776  0.1689 -0.2175
  530MOL0     C71461   4.497   9.796   4.508  0.6550  0.1284 -0.0512
  530MOL0     C71462   4.424   9.853   4.608 -0.0488  0.0710 -0.6685
  530MOL0     O71463   4.207   9.846   4.848 -0.2568 -0.0424  0.2728
  530MOL0     C71464   4.357   9.994   5.121  0.0974 -0.6189 -0.8318
  530MOL0     C71465   4.321  10.067   5.234  0.0360  0.5853 -0.1787
  530MOL0     N71466   4.103   9.876   5.894  0.1948 -0.1419  0.3099
  530MOL0     N71467   4.136   9.749   5.875 -1.0531  0.0422 -0.4198
  530MOL0     C71468   5.124   9.008   5.985 -0.0875  0.1434  0.9222
  530MOL0     C71469   5.249   9.010   6.033  0.4498 -0.2772  0.4918
  530MOL0     C71470   5.694   9.045   6.093 -0.3346 -0.1020 -0.2425
  530MOL0     C71471   5.766   9.084   5.979  0.0619  0.3727 -0.2280
  530MOL0     C71472   5.907   9.054   5.972 -0.9322 -0.5539  0.3538
  530MOL0     C71473   5.979   8.985   6.077 -0.0951  0.3057  0.2672
  530MOL0     O71474   6.116   8.972   6.071 -0.1348 -0.2849  0.0068
  530MOL0     C71475   6.185   8.942   6.201  0.6916  0.2653  0.2708
  530MOL0     C71476   6.331   8.943   6.181  0.6032 -0.0207 -0.7950
  530MOL0     C71477   6.379   8.820   6.119  0.6167  0.0742 -0.4084
  530MOL0     C71478   6.528   8.838   6.095 -0.1624 -0.4081  0.0277
  530MOL0     C71479   6.584   8.730   6.017 -0.5155  0.3584 -0.1300
  530MOL0     C71480   6.638   8.647   5.942 -1.0000  0.0184  0.1333
  530MOL0     C71481   5.904   8.952   6.190  0.2392 -0.2419  0.3501
  530MOL0     C71482   5.766   8.981   6.202  0.2383  0.4898  0.0938
  530MOL0     H71483   5.378   9.231   5.810 -1.9207  0.9380 -0.5980
  530MOL0     H71484   5.150   9.236   5.739  0.6522  2.1266  1.7648
  530MOL0     H71485   4.850   8.937   5.921 -1.6293  0.3945 -0.0565
  530MOL0     H71486   4.876   9.067   6.032  1.8234 -1.1717 -0.5331
  530MOL0     H71487   4.683   9.105   5.803 -1.8812 -0.1514  0.5099
  530MOL0     H71488   4.631   9.018   5.949  0.0638 -2.2731 -4.5688
  530MOL0     H71489   4.686   9.225   6.084 -1.2428  2.5282  0.7644
  530MOL0     H71490   4.740   9.298   5.932 -1.5307  1.4043 -0.0309
  530MOL0     H71491   4.537   9.292   5.827  0.3163 -0.2248 -0.3472
  530MOL0     H71492   4.460   9.182   5.947 -0.2056  0.1588  0.7510
  530MOL0     H71493   4.430   9.350   6.101  1.3914 -1.2284  0.9552
  530MOL0     H71494   4.564   9.447   6.066  0.2752 -0.4633  0.2073
  530MOL0     H71495   4.299   9.392   5.908 -1.2760  1.1876 -0.0041
  530MOL0     H71496   4.326   9.528   6.010 -1.0230 -0.0418 -0.3130
  530MOL0     H71497   4.504   9.626   5.871  0.0113 -1.8680  2.5531
  530MOL0     H71498   4.490   9.494   5.765 -3.0450 -0.8069 -0.3896
  530MOL0     H71499   4.223   9.560   5.741  2.1171 -4.1690  0.3666
  530MOL0     H71500   4.351   9.652   5.652 -1.1177 -1.4360  0.1717
  530MOL0     H71501   4.383   9.904   5.742  0.9870 -1.6658  1.3060
  530MOL0     H71502   4.088  10.142   5.846 -0.7615 -1.3249 -2.5556
  530MOL0     H71503   4.248  10.144   5.924  2.7247  0.8506 -1.3039
  530MOL0     H71504   4.369  10.152   5.717 -0.3498  0.3429  2.9618
  530MOL0     H71505   4.239  10.283   5.739 -0.5840 -0.7304  3.9080
  530MOL0     H71506   4.094  10.107   5.576 -0.0426 -0.7353  1.5007
  530MOL0     H71507   4.255  10.051   5.539  2.6596  1.0545  0.7143
  530MOL0     H71508   4.347  10.235   5.461 -0.1593  0.1483  0.6807
  530MOL0     H71509   4.200  10.332   5.513  0.4241  0.4506  0.8800
  530MOL0     H71510   4.064  10.251   5.115 -0.4269 -1.0895 -1.5294
  530MOL0     H71511   4.026  10.036   4.880 -0.1765  0.1511 -1.1234
  530MOL0     H71512   4.038  10.222   4.892  0.5824  0.8481 -1.5372
  530MOL0     H71513   4.150  10.136   4.799 -2.6148  2.3210 -0.9097
  530MOL0     H71514   4.621   9.712   4.860 -1.8532 -0.6965  0.1814
  530MOL0     H71515   4.728   9.609   4.669 -0.7211 -0.4691 -0.1078
  530MOL0     H71516   4.841   9.564   4.472  1.7947  0.4316 -3.1138
  530MOL0     H71517   4.690   9.467   4.438  0.8335 -0.5241  0.2604
  530MOL0     H71518   4.708   9.531   4.203 -1.4439  1.4279  0.1395
  530MOL0     H71519   4.861   9.628   4.238 -1.5210  0.7784 -1.1433
  530MOL0     H71520   4.800   9.325   4.261  0.2315 -0.2375  2.2018
  530MOL0     H71521   4.950   9.395   4.298  1.4367 -0.9483 -2.6270
  530MOL0     H71522   4.838   9.442   4.019 -1.4156  1.0764  0.5639
  530MOL0     H71523   5.003   9.462   4.092  1.1380 -1.3317  1.3804
  530MOL0     H71524   4.849   9.213   4.060 -0.0140  0.3200  3.9404
  530MOL0     H71525   5.015   9.231   4.123 -1.3515  1.0307  2.3180
  530MOL0     H71526   5.043   9.128   3.910 -0.7365  0.1820  2.3472
  530MOL0     H71527   4.910   9.220   3.837  1.2611 -0.4932 -1.5829
  530MOL0     H71528   5.163   9.359   3.913 -0.9208  0.4172  0.5919
  530MOL0     H71529   5.019   9.433   3.847 -0.0686  0.8724  2.9546
  530MOL0     H71530   5.177   9.398   3.681 -1.0512  0.6655 -0.0151
  530MOL0     H71531   5.066   9.270   3.635  1.4349  0.3362 -1.1624
  530MOL0     H71532   4.475   9.812   4.402  1.4284 -0.5960 -0.3371
  530MOL0     H71533   4.339   9.916   4.587  0.2088 -0.1076 -2.3384
  530MOL0     H71534   4.430   9.914   5.130 -0.6595 -1.2785 -0.3482
  530MOL0     H71535   4.365  10.048   5.331 -0.4333  2.1755  0.3818
  530MOL0     H71536   5.064   8.929   6.028  0.4212 -0.8391 -0.1103
  530MOL0     H71537   5.274   8.937   6.110 -1.9505  0.5329  2.1687
  530MOL0     H71538   5.704   9.142   5.911 -2.7467 -1.5717  0.4987
  530MOL0     H71539   5.960   9.102   5.891  1.7834 -4.1104 -0.2328
  530MOL0     H71540   6.152   9.014   6.276 -0.1846 -0.2971  0.4377
  530MOL0     H71541   6.156   8.845   6.243  0.5014 -1.6118 -3.7228
  530MOL0     H71542   6.362   8.969   6.283  0.1946  0.3924 -0.7708
  530MOL0     H71543   6.355   9.019   6.106  1.1265  0.6632  0.0350
  530MOL0     H71544   6.336   8.806   6.019  1.3412 -2.3453 -0.4473
  530MOL0     H71545   6.360   8.746   6.198 -1.1127  1.6793  0.7793
  530MOL0     H71546   6.586   8.863   6.184  0.2713  1.1293 -0.6554
  530MOL0     H71547   6.548   8.926   6.033  2.5452 -0.6978  0.3517
  530MOL0     H71548   6.673   8.589   5.859  0.2323  2.1889 -0.9456
  530MOL0     H71549   5.951   8.901   6.274  2.7580 -0.3171 -1.0151
  530MOL0     H71550   5.711   8.969   6.295  0.4138  0.9782  0.2627
  531MOL0     O71551   9.722  11.162   4.359 -0.5500 -0.5545 -0.7338
  531MOL0     C71552   9.624  11.242   4.361 -1.5563 -0.8071 -0.2104
  531MOL0     O71553   9.495  11.206   4.329  0.1017  0.6091  0.0439
  531MOL0     C71554   9.481  11.085   4.262  0.3864 -0.2609 -0.5201
  531MOL0     C71555   9.364  11.025   4.303 -0.2656  0.6479  0.5865
  531MOL0     C71556   9.319  10.907   4.242  0.2363 -0.6945 -0.1797
  531MOL0     C71557   9.391  10.851   4.138 -0.2200  0.9793 -0.0755
  531MOL0     O71558   9.330  10.735   4.083  0.7446 -0.3391 -0.0449
  531MOL0     C71559   9.402  10.658   3.976  0.1185 -0.0510  0.0769
  531MOL0     C71560   9.323  10.539   3.921 -0.2830  0.0881  0.8866
  531MOL0     C71561   9.300  10.418   4.023 -1.1360  0.6834  0.2271
  531MOL0     C71562   9.212  10.312   3.969 -0.3256 -0.7263  0.3249
  531MOL0     C71563   9.209  10.206   4.070 -1.1497  0.1654 -0.7733
  531MOL0     C71564   9.081  10.211   4.158 -1.3447 -0.5542  0.6882
  531MOL0     C71565   9.090  10.095   4.256 -0.5043 -0.6170  0.4911
  531MOL0     C71566   8.950  10.066   4.304  1.4760  0.3742  0.0525
  531MOL0     N71567   8.880  10.170   4.380 -0.0925  0.1029  0.6148
  531MOL0     C71568   8.919  10.243   4.484 -0.4499 -0.5827  0.2011
  531MOL0     C71569   8.819  10.322   4.515 -0.2950 -0.6755  0.3743
  531MOL0     C71570   8.812  10.435   4.615 -0.2292 -0.0017 -1.1225
  531MOL0     C71571   8.894  10.427   4.737  0.7031 -0.4764 -0.4480
  531MOL0     C71572   8.847  10.520   4.846 -0.1229 -0.2657 -0.6081
  531MOL0     C71573   8.710  10.487   4.915 -0.1911  0.4592  0.9323
  531MOL0     O71574   8.688  10.577   5.023  0.2763  0.3703  0.8567
  531MOL0     C71575   8.575  10.591   5.096  0.1132  0.1927  0.3342
  531MOL0     C71576   8.585  10.635   5.233 -0.0087  0.0875  0.0130
  531MOL0     C71577   8.471  10.663   5.315  0.1189  0.1142  0.2546
  531MOL0     C71578   8.495  10.724   5.449 -0.5841 -0.2620 -0.0292
  531MOL0     C71579   8.348  10.637   5.264 -0.6847  0.4508  0.0732
  531MOL0     C71580   8.222  10.631   5.336 -0.1961 -0.9399 -0.2625
  531MOL0     O71581   8.147  10.516   5.339 -0.0501 -0.0586  0.9548
  531MOL0     C71582   8.212  10.396   5.308 -0.5338 -0.7196 -0.0371
  531MOL0     C71583   8.140  10.314   5.221 -0.0732 -0.2198  0.4182
  531MOL0     C71584   8.189  10.185   5.196 -0.0859  0.6998  0.7389
  531MOL0     C71585   8.309  10.142   5.249 -0.5224  0.2501  0.8625
  531MOL0     O71586   8.350  10.016   5.213 -0.0131  0.4735 -0.4394
  531MOL0     C71587   8.495   9.990   5.219 -0.7068 -0.2159 -0.0117
  531MOL0     C71588   8.578  10.085   5.131  1.0345 -0.2485  0.1551
  531MOL0     C71589   8.534  10.076   4.977 -0.0591 -0.5334  0.1156
  531MOL0     C71590   8.544   9.930   4.914 -0.0839 -0.0728  0.8290
  531MOL0     C71591   8.677   9.886   4.876 -1.1321 -1.0560 -0.8016
  531MOL0     C71592   8.729   9.944   4.740  0.1051 -0.0416  0.6141
  531MOL0     C71593   8.875   9.909   4.708 -0.8781  1.4970 -0.6173
  531MOL0     C71594   8.905   9.763   4.709  0.1037  1.0827 -0.0160
  531MOL0    Cl71595   9.041   9.730   4.597  0.0654 -0.1128 -0.3515
  531MOL0     C71596   8.375  10.223   5.338 -0.3301  0.0165  0.0481
  531MOL0     C71597   8.324  10.344   5.372 -0.9323  0.0341  0.8014
  531MOL0     O71598   8.177  10.738   5.372  0.2904  0.7072  0.1182
  531MOL0     C71599   8.338  10.609   5.124  0.0679 -0.1327  0.4210
  531MOL0     C71600   8.450  10.584   5.035  0.5699 -0.6018 -0.2581
  531MOL0     N71601   8.724  10.307   4.422 -0.3544  0.2403 -0.0008
  531MOL0     N71602   8.759  10.209   4.341  0.5198 -1.3449 -0.0366
  531MOL0     C71603   9.511  10.903   4.101 -0.4896  0.4906 -0.7981
  531MOL0     C71604   9.550  11.026   4.154 -0.2727  0.0098 -0.2375
  531MOL0     C71605   9.655  11.378   4.406  1.0042 -0.3232 -0.1363
  531MOL0     C71606   9.787  11.423   4.435  0.2079  0.3033 -0.4866
  531MOL0     C71607   9.821  11.555   4.485  0.4419  0.7520  0.2739
  531MOL0     C71608   9.714  11.651   4.492 -0.8538 -0.2741 -0.9506
  531MOL0     O71609   9.741  11.782   4.544 -0.1726 -0.1296 -0.2962
  531MOL0     C71610   9.619  11.855   4.585 -0.0661  0.6236 -0.9614
  531MOL0     C71611   9.649  11.977   4.670 -0.2802  1.2521 -0.4398
  531MOL0     C71612   9.703  12.087   4.578 -0.4371 -0.3519  0.0322
  531MOL0     C71613   9.857  12.085   4.570 -0.0332  0.5278 -0.5169
  531MOL0     C71614   9.913  12.109   4.701  0.4376 -0.0129 -0.8206
  531MOL0     C71615   9.952  12.139   4.812  0.0082  0.4084  0.8768
  531MOL0     C71616   9.573  11.608   4.463 -0.4350 -0.5045  1.6907
  531MOL0     C71617   9.552  11.475   4.423 -0.2454 -0.1466  0.5427
  531MOL0     H71618   9.303  11.062   4.385  1.0803 -1.2610  2.5499
  531MOL0     H71619   9.230  10.860   4.280  0.0133 -1.0521 -1.1387
  531MOL0     H71620   9.426  10.724   3.892  2.3603  0.8040  1.3156
  531MOL0     H71621   9.499  10.622   4.011 -0.2509 -0.2501  0.9156
  531MOL0     H71622   9.233  10.587   3.883  1.7637  1.7174 -2.2986
  531MOL0     H71623   9.381  10.504   3.835  1.4220 -1.8387  2.7009
  531MOL0     H71624   9.393  10.370   4.055 -1.2617  1.1638  1.3577
  531MOL0     H71625   9.266  10.465   4.116  2.1983  1.8006  1.0210
  531MOL0     H71626   9.114  10.351   3.940  0.3095 -1.1813 -2.7700
  531MOL0     H71627   9.250  10.267   3.877  0.5229 -0.7505  0.6761
  531MOL0     H71628   9.223  10.112   4.017  1.2479 -0.3913  0.6886
  531MOL0     H71629   9.293  10.205   4.140 -2.9158 -0.8348  1.4635
  531MOL0     H71630   9.082  10.307   4.210  2.6914  0.0786 -0.2347
  531MOL0     H71631   8.996  10.205   4.090  0.7164  3.1897 -2.6505
  531MOL0     H71632   9.133  10.010   4.203  0.2892 -0.4776  0.8954
  531MOL0     H71633   9.158  10.121   4.338 -2.0318 -2.7704  2.5564
  531MOL0     H71634   8.965   9.980   4.370 -0.0555  0.2539  0.2686
  531MOL0     H71635   8.882  10.040   4.222 -1.6573  3.9645  1.2834
  531MOL0     H71636   9.016  10.247   4.534 -0.6916  2.1220  0.6221
  531MOL0     H71637   8.839  10.527   4.563  2.3367  0.0774  0.1825
  531MOL0     H71638   8.707  10.442   4.644  0.1379  1.5136 -0.0254
  531MOL0     H71639   9.003  10.439   4.732  0.7635 -1.4219 -3.5046
  531MOL0     H71640   8.886  10.323   4.771 -4.1005 -0.7078 -1.4927
  531MOL0     H71641   8.857  10.617   4.796  0.9846 -0.3939 -0.6710
  531MOL0     H71642   8.930  10.522   4.917 -2.3334 -0.0463  2.1276
  531MOL0     H71643   8.709  10.382   4.948 -1.1225  0.5741  1.2964
  531MOL0     H71644   8.627  10.481   4.844  0.7432 -3.7647 -0.1207
  531MOL0     H71645   8.680  10.650   5.284  0.6629 -4.5916  0.5264
  531MOL0     H71646   8.590  10.694   5.492  0.2179 -0.5488 -1.9174
  531MOL0     H71647   8.497  10.833   5.443  1.5499 -0.2378  0.3559
  531MOL0     H71648   8.422  10.681   5.518 -0.9942  1.8191  0.9286
  531MOL0     H71649   8.048  10.344   5.172  1.4569 -0.3067 -2.7911
  531MOL0     H71650   8.130  10.119   5.132 -1.8842  1.8052  1.1802
  531MOL0     H71651   8.529   9.996   5.323  4.7852 -1.6508 -1.4505
  531MOL0     H71652   8.523   9.887   5.197  3.2311  0.9174 -1.0400
  531MOL0     H71653   8.566  10.189   5.162 -1.0264 -0.2444 -0.5020
  531MOL0     H71654   8.682  10.066   5.157  0.8979 -0.4425  0.5655
  531MOL0     H71655   8.609  10.136   4.924  0.3072 -0.5439  0.6231
  531MOL0     H71656   8.433  10.115   4.962  0.5183  0.7831 -0.5129
  531MOL0     H71657   8.510   9.855   4.986 -1.1113 -1.5178 -1.0795
  531MOL0     H71658   8.468   9.915   4.837 -2.0636 -2.3523  3.0227
  531MOL0     H71659   8.682   9.777   4.875  1.6435 -1.0088 -1.6443
  531MOL0     H71660   8.746   9.923   4.952 -0.8214 -1.0395 -1.0885
  531MOL0     H71661   8.666   9.908   4.658 -0.3759 -0.9105  1.3478
  531MOL0     H71662   8.719  10.053   4.734  2.5002  0.2135  0.1340
  531MOL0     H71663   8.944   9.963   4.774  1.6379 -0.2006 -1.6919
  531MOL0     H71664   8.886   9.945   4.605 -0.9080  1.9325 -0.4712
  531MOL0     H71665   8.816   9.720   4.663  0.9027  0.5653 -1.1290
  531MOL0     H71666   8.914   9.728   4.812 -0.7354  0.2226 -0.2215
  531MOL0     H71667   8.463  10.188   5.392 -0.4451  0.5279  0.5838
  531MOL0     H71668   8.380  10.401   5.446 -0.0843 -3.0374  2.7069
  531MOL0     H71669   8.243  10.604   5.071  0.4923  2.3298 -0.7094
  531MOL0     H71670   8.445  10.556   4.931  1.7468 -0.1264 -0.4511
  531MOL0     H71671   9.591  10.853   4.046  1.0993  0.1132  1.7034
  531MOL0     H71672   9.644  11.062   4.114  0.1134 -0.8086 -0.0878
  531MOL0     H71673   9.869  11.353   4.449 -0.1425 -0.5214 -2.3598
  531MOL0     H71674   9.924  11.586   4.500 -0.5799  4.7070  0.4560
  531MOL0     H71675   9.549  11.873   4.504 -1.6465 -1.9580 -0.2806
  531MOL0     H71676   9.569  11.780   4.647  1.5541 -1.1330 -1.6439
  531MOL0     H71677   9.714  11.954   4.755  2.0631  2.4591 -1.8078
  531MOL0     H71678   9.554  11.993   4.721  0.4785 -1.4216  2.0820
  531MOL0     H71679   9.662  12.182   4.612 -1.0841 -0.2874 -0.8939
  531MOL0     H71680   9.653  12.070   4.482 -0.5445 -1.1346  0.2233
  531MOL0     H71681   9.892  12.168   4.509  1.0103  1.4724  1.2658
  531MOL0     H71682   9.901  11.989   4.539  1.4450  0.6956  0.8913
  531MOL0     H71683   9.988  12.153   4.911 -0.2186  2.2115  0.7362
  531MOL0     H71684   9.496  11.684   4.456  1.0912  1.0085 -2.8352
  531MOL0     H71685   9.449  11.447   4.401 -1.6723  2.0739  3.5546
  532MOL0     O71686   6.215   0.655   3.050  0.2347  0.7200 -0.0770
  532MOL0     C71687   6.167   0.691   2.943  1.0940 -0.8407 -0.2515
  532MOL0     O71688   6.036   0.732   2.917 -0.2821 -0.2537 -0.5747
  532MOL0     C71689   5.938   0.683   3.005 -0.4569  1.5240 -0.4245
  532MOL0     C71690   5.869   0.769   3.079 -0.1204  0.1396 -0.0909
  532MOL0     C71691   5.756   0.731   3.154  0.1766  0.2854  0.9341
  532MOL0     C71692   5.715   0.593   3.150  0.2730 -0.5676 -0.8496
  532MOL0     O71693   5.600   0.564   3.219  0.0819 -0.4488 -0.6701
  532MOL0     C71694   5.550   0.431   3.200  0.8651  0.1783  0.6602
  532MOL0     C71695   5.412   0.424   3.274  0.9306 -0.1869 -0.2326
  532MOL0     C71696   5.343   0.276   3.246  0.6880  0.6037  0.3300
  532MOL0     C71697   5.198   0.278   3.284  0.6090  0.3868 -0.2925
  532MOL0     C71698   5.127   0.142   3.276 -0.1242  0.1609  0.2589
  532MOL0     C71699   5.000   0.141   3.351  0.7613 -0.0664 -0.3737
  532MOL0     C71700   4.899   0.063   3.263 -0.3241 -0.2400  1.0076
  532MOL0     C71701   4.769   0.007   3.330 -0.0852  0.2826  0.6130
  532MOL0     N71702   4.673  -0.041   3.224  0.4880  0.3727 -0.2598
  532MOL0     C71703   4.577   0.043   3.164  0.2171 -0.0699 -0.2749
  532MOL0     C71704   4.531  -0.029   3.055  0.5839  0.3290  0.7838
  532MOL0     C71705   4.415  -0.006   2.974 -0.2863  0.2276  0.6212
  532MOL0     C71706   4.283  -0.038   3.055  0.4363 -0.0504 -0.5172
  532MOL0     C71707   4.158  -0.067   2.968  0.5388  0.4793  0.0754
  532MOL0     C71708   4.033  -0.012   3.027  0.2609 -0.1104 -0.6067
  532MOL0     O71709   3.937  -0.032   2.929  0.5445  0.5178  0.6527
  532MOL0     C71710   3.811   0.022   2.948 -0.2844  0.1654  0.0837
  532MOL0     C71711   3.768   0.087   3.067  0.0764 -0.5917  0.0456
  532MOL0     C71712   3.626   0.109   3.084  0.3378 -0.3499 -0.4028
  532MOL0     C71713   3.586   0.161   3.230 -0.1672 -0.0373 -0.6989
  532MOL0     C71714   3.535   0.101   2.971 -0.2618  0.5657 -0.6918
  532MOL0     C71715   3.395   0.139   2.983 -0.6762  0.1072  0.5642
  532MOL0     O71716   3.313   0.089   2.879 -0.1567  0.2168  0.0450
  532MOL0     C71717   3.184   0.126   2.877 -0.1320 -0.4577 -0.6935
  532MOL0     C71718   3.084   0.092   2.978 -0.4380 -0.2670 -0.7956
  532MOL0     C71719   2.959   0.126   2.949  0.5358  1.0313 -0.3382
  532MOL0     C71720   2.916   0.195   2.837  0.2190 -0.3058  0.9510
  532MOL0     O71721   2.788   0.227   2.800 -0.8514  0.3710  0.6624
  532MOL0     C71722   2.687   0.168   2.885 -0.2131 -0.4894  0.3184
  532MOL0     C71723   2.547   0.172   2.826  0.1530  0.6680 -0.1798
  532MOL0     C71724   2.534   0.126   2.682  0.1767  0.1647 -0.2764
  532MOL0     C71725   2.400   0.115   2.630  0.2915 -0.4022  0.0772
  532MOL0     C71726   2.394   0.059   2.488 -0.5586  0.2448 -0.1685
  532MOL0     C71727   2.256   0.101   2.420  0.3846 -0.7831 -0.1809
  532MOL0     C71728   2.142   0.013   2.467 -0.1058 -0.4381  0.2893
  532MOL0     C71729   2.012   0.003   2.382  0.1251 -0.4227 -0.9528
  532MOL0    Cl71730   1.900   0.131   2.441  0.6550  0.1779  0.1700
  532MOL0     C71731   3.016   0.212   2.733 -0.0115  0.0168 -1.1472
  532MOL0     C71732   3.148   0.182   2.759 -0.4829  0.1393 -1.2670
  532MOL0     O71733   3.362   0.197   3.083 -0.8982 -0.6426  0.2017
  532MOL0     C71734   3.593   0.067   2.845 -0.2939 -1.0293  0.2395
  532MOL0     C71735   3.723   0.016   2.842  0.7071 -0.3413  0.2862
  532MOL0     N71736   4.603  -0.143   3.043  0.4273  0.7491  0.2400
  532MOL0     N71737   4.696  -0.146   3.137 -0.5258 -0.6677 -0.9601
  532MOL0     C71738   5.808   0.500   3.095 -0.0145 -0.6548  0.0085
  532MOL0     C71739   5.921   0.544   3.025  0.4310  1.2769  0.9130
  532MOL0     C71740   6.260   0.717   2.826 -0.3480  0.1758 -1.0515
  532MOL0     C71741   6.405   0.715   2.840  0.2684 -0.2544  0.1099
  532MOL0     C71742   6.497   0.735   2.734 -0.0857  0.4104 -0.1031
  532MOL0     C71743   6.449   0.758   2.598  1.2482 -0.7392 -0.5857
  532MOL0     O71744   6.524   0.784   2.486 -0.2268  0.3791  0.0089
  532MOL0     C71745   6.667   0.762   2.495 -0.5714 -0.4749  0.5330
  532MOL0     C71746   6.729   0.786   2.355  0.4198 -0.6157 -0.6869
  532MOL0     C71747   6.885   0.766   2.364 -0.3011  0.4895  0.6380
  532MOL0     C71748   6.957   0.790   2.232  0.0518  0.5451 -0.2281
  532MOL0     C71749   7.101   0.784   2.242 -0.5934 -0.4957 -0.1602
  532MOL0     C71750   7.227   0.768   2.246  0.0678  0.6362  0.0175
  532MOL0     C71751   6.311   0.760   2.579  0.1573  0.1044 -0.3054
  532MOL0     C71752   6.219   0.743   2.690  0.5324 -1.0845 -0.1820
  532MOL0     H71753   5.875   0.878   3.077 -0.3503  0.1678  0.6896
  532MOL0     H71754   5.696   0.803   3.207 -0.3464 -0.1939  1.0021
  532MOL0     H71755   5.536   0.417   3.093 -0.6326 -0.8245  0.9643
  532MOL0     H71756   5.621   0.354   3.234  3.0876  1.6495 -0.4083
  532MOL0     H71757   5.431   0.440   3.381  0.2384  1.4043 -0.3232
  532MOL0     H71758   5.345   0.494   3.224  0.1616  0.5767  1.7485
  532MOL0     H71759   5.348   0.246   3.141 -0.7115  1.2361  0.0542
  532MOL0     H71760   5.393   0.205   3.312 -0.3916  1.5693  2.2739
  532MOL0     H71761   5.180   0.327   3.380 -1.6624  0.3618 -0.6519
  532MOL0     H71762   5.144   0.341   3.212 -1.9381 -2.8705 -1.4685
  532MOL0     H71763   5.109   0.111   3.173  1.1079 -2.2531  0.6917
  532MOL0     H71764   5.192   0.070   3.327 -2.1797 -0.9727  1.3902
  532MOL0     H71765   5.010   0.077   3.440  1.9653  0.2448 -0.2677
  532MOL0     H71766   4.954   0.240   3.353 -1.8572 -1.1923 -0.0288
  532MOL0     H71767   4.867   0.126   3.179  2.1093  2.0687  1.6658
  532MOL0     H71768   4.948  -0.027   3.226 -1.6224  0.0362 -1.6248
  532MOL0     H71769   4.731   0.073   3.408 -0.5581 -0.7913  1.3206
  532MOL0     H71770   4.804  -0.081   3.385  1.9587  1.5129  1.4179
  532MOL0     H71771   4.518   0.123   3.207 -1.8397  0.2429 -3.3873
  532MOL0     H71772   4.412   0.096   2.934 -3.1348 -0.6541 -1.8190
  532MOL0     H71773   4.425  -0.063   2.881  0.2932  0.3264  0.6239
  532MOL0     H71774   4.268   0.053   3.115 -1.6508 -0.4099 -0.4172
  532MOL0     H71775   4.300  -0.118   3.128  0.4318 -0.1486 -0.6236
  532MOL0     H71776   4.134  -0.170   2.941  0.5927 -0.3341  2.8875
  532MOL0     H71777   4.182  -0.010   2.878 -4.6881  1.0123 -1.3037
  532MOL0     H71778   4.057   0.094   3.046  2.5231 -0.7758  0.6542
  532MOL0     H71779   4.011  -0.062   3.121  3.5207  1.6001  1.2572
  532MOL0     H71780   3.834   0.093   3.154  2.7103 -0.5237 -1.8462
  532MOL0     H71781   3.543   0.262   3.230  0.2922  0.3096  2.9951
  532MOL0     H71782   3.511   0.097   3.278  0.7747 -1.0055 -0.4735
  532MOL0     H71783   3.668   0.156   3.301 -0.9038 -0.3663  0.1547
  532MOL0     H71784   3.121   0.032   3.060  2.4171  0.5277 -1.3723
  532MOL0     H71785   2.889   0.091   3.025  0.5863  1.0075 -0.3023
  532MOL0     H71786   2.707   0.064   2.911 -1.9596 -0.8924  0.2131
  532MOL0     H71787   2.687   0.231   2.974 -0.4686  1.2915 -0.8858
  532MOL0     H71788   2.479   0.105   2.880  0.1400 -0.5496 -1.6544
  532MOL0     H71789   2.515   0.276   2.839  1.2134  1.1092 -0.9770
  532MOL0     H71790   2.578   0.029   2.662 -1.5708 -0.6486 -0.3481
  532MOL0     H71791   2.588   0.200   2.623 -1.8141  0.6299 -1.6466
  532MOL0     H71792   2.338   0.050   2.692  0.0880 -0.9118 -0.6401
  532MOL0     H71793   2.368   0.219   2.645 -1.9986 -1.2026  1.3114
  532MOL0     H71794   2.400  -0.050   2.489  1.0723  0.2806 -1.7041
  532MOL0     H71795   2.478   0.100   2.432 -0.5815 -1.0228 -1.1817
  532MOL0     H71796   2.251   0.206   2.452  2.5778 -0.1331 -1.6970
  532MOL0     H71797   2.260   0.100   2.311  2.5776  1.1622 -0.2061
  532MOL0     H71798   2.119   0.062   2.563  1.9597 -0.2763  0.7542
  532MOL0     H71799   2.184  -0.086   2.488  1.5391  0.5559  2.0587
  532MOL0     H71800   1.957  -0.088   2.410 -1.9630  0.7793 -0.9321
  532MOL0     H71801   2.026   0.007   2.274 -1.0449 -1.7091 -1.1851
  532MOL0     H71802   2.985   0.259   2.640 -2.2603  0.1705 -0.3733
  532MOL0     H71803   3.224   0.202   2.684  0.1331 -1.7227 -1.1897
  532MOL0     H71804   3.549   0.072   2.746  2.6336 -1.4971 -1.2084
  532MOL0     H71805   3.770  -0.000   2.746 -0.8529  0.6025 -0.6852
  532MOL0     H71806   5.794   0.392   3.097 -1.1201 -0.5312 -0.4906
  532MOL0     H71807   5.980   0.473   2.968  2.1691  0.4688  3.5403
  532MOL0     H71808   6.434   0.694   2.942 -3.7785  0.6535  1.6009
  532MOL0     H71809   6.602   0.737   2.762 -0.4162 -1.3424  1.4989
  532MOL0     H71810   6.710   0.825   2.573  2.1332 -0.3657 -0.9208
  532MOL0     H71811   6.689   0.659   2.523  0.6150 -0.4794 -0.3420
  532MOL0     H71812   6.718   0.889   2.318  0.7754 -0.1663  0.4098
  532MOL0     H71813   6.690   0.716   2.280 -2.1260  0.3860 -0.3832
  532MOL0     H71814   6.910   0.663   2.391  1.3052 -0.0415 -2.3823
  532MOL0     H71815   6.936   0.819   2.445  1.5047 -1.9502  1.2475
  532MOL0     H71816   6.924   0.883   2.185  2.2954  0.5450 -2.0037
  532MOL0     H71817   6.916   0.710   2.170 -1.2576  2.3682 -1.8377
  532MOL0     H71818   7.333   0.754   2.240 -0.0838 -1.6320  1.4383
  532MOL0     H71819   6.266   0.758   2.481  0.0626  1.8488 -0.3180
  532MOL0     H71820   6.117   0.763   2.659  1.0682 -0.8395 -1.9193
  533MOL0     O71821   8.483   0.689   3.043 -0.1032  0.4462 -0.3802
  533MOL0     C71822   8.447   0.805   3.024 -0.2959 -0.6546 -0.6347
  533MOL0     O71823   8.327   0.835   2.974  0.1003 -0.0215 -0.3883
  533MOL0     C71824   8.218   0.755   2.960 -0.6583 -1.3418  0.0480
  533MOL0     C71825   8.223   0.627   2.900 -0.6430 -0.9364  0.0171
  533MOL0     C71826   8.111   0.542   2.903  0.0710  0.6813 -0.4812
  533MOL0     C71827   7.991   0.588   2.962  0.2494  0.9252 -0.0506
  533MOL0     O71828   7.885   0.499   2.966  0.5892 -1.0510 -0.7270
  533MOL0     C71829   7.818   0.500   3.091 -0.3170 -0.4919  0.1224
  533MOL0     C71830   7.719   0.385   3.088  0.4106  0.2929 -0.2668
  533MOL0     C71831   7.662   0.369   3.221 -1.0698  0.2483 -0.4516
  533MOL0     C71832   7.551   0.259   3.209 -0.0506 -0.1303 -0.4109
  533MOL0     C71833   7.489   0.254   3.351  0.5299 -0.3295 -0.0804
  533MOL0     C71834   7.381   0.151   3.357 -0.1715  0.2703  0.1065
  533MOL0     C71835   7.262   0.166   3.258 -0.2236  0.1097  0.8139
  533MOL0     C71836   7.195   0.302   3.243  0.1038 -0.6450  0.8116
  533MOL0     N71837   7.116   0.354   3.359  0.8424 -0.1969  0.0364
  533MOL0     C71838   6.984   0.338   3.366  0.3205 -0.4141 -0.1027
  533MOL0     C71839   6.940   0.372   3.488  0.2559 -0.4980 -0.5138
  533MOL0     C71840   6.799   0.404   3.536 -0.0415 -0.3459  0.0523
  533MOL0     C71841   6.724   0.292   3.599 -0.3857  0.0790  0.4343
  533MOL0     C71842   6.590   0.343   3.643  0.3989  0.1156  0.5704
  533MOL0     C71843   6.494   0.225   3.661  0.9754  0.1669 -0.4033
  533MOL0     O71844   6.380   0.295   3.710  0.6414 -0.3288 -0.1371
  533MOL0     C71845   6.284   0.220   3.768  0.0973  0.5177 -0.1471
  533MOL0     C71846   6.278   0.080   3.773 -0.2354 -0.4236  0.0780
  533MOL0     C71847   6.171   0.019   3.840 -0.3217 -0.1348 -0.0532
  533MOL0     C71848   6.185  -0.128   3.835 -0.0564 -0.8016 -1.0658
  533MOL0     C71849   6.057   0.087   3.907 -0.1460  0.0060 -0.1543
  533MOL0     C71850   5.951   0.022   3.990  0.7268 -0.1576  0.4866
  533MOL0     O71851   5.923  -0.108   3.962  0.6116  0.3721 -0.5457
  533MOL0     C71852   5.827  -0.173   4.030  1.3877 -0.7001 -0.6345
  533MOL0     C71853   5.724  -0.228   3.947  0.3578  0.1412 -0.0141
  533MOL0     C71854   5.611  -0.278   4.006  0.1040  0.1681 -0.6098
  533MOL0     C71855   5.609  -0.286   4.152  0.6983 -0.4299 -0.2677
  533MOL0     O71856   5.498  -0.342   4.211 -0.6470 -0.2302  0.6349
  533MOL0     C71857   5.460  -0.290   4.341 -1.0709  0.4207  0.7000
  533MOL0     C71858   5.327  -0.354   4.374  0.3283 -0.2011 -0.5876
  533MOL0     C71859   5.354  -0.498   4.428  0.1620 -1.2516  0.6528
  533MOL0     C71860   5.232  -0.558   4.501  1.4909 -0.3969  0.3130
  533MOL0     C71861   5.108  -0.565   4.409  0.1404  0.3262 -0.6533
  533MOL0     C71862   4.976  -0.595   4.484 -0.1737 -0.3576 -0.2773
  533MOL0     C71863   4.860  -0.573   4.385  0.5793  1.1766 -1.3340
  533MOL0     C71864   4.722  -0.613   4.436 -0.4036  0.1402 -0.3690
  533MOL0    Cl71865   4.614  -0.611   4.296 -0.2206 -0.1557  0.0312
  533MOL0     C71866   5.713  -0.236   4.231 -0.3395  0.1261 -0.2635
  533MOL0     C71867   5.820  -0.167   4.172 -0.7497 -0.3897 -0.4003
  533MOL0     O71868   5.883   0.095   4.067  0.3376 -0.2741  0.1814
  533MOL0     C71869   6.060   0.224   3.882  0.2806  0.2487 -0.0917
  533MOL0     C71870   6.171   0.286   3.825 -0.9618 -1.0467 -0.3813
  533MOL0     N71871   7.054   0.405   3.561  1.0495  0.7176 -0.3430
  533MOL0     N71872   7.161   0.380   3.484 -0.2831 -0.8993  0.8506
  533MOL0     C71873   7.986   0.716   3.018 -0.5368 -0.3313  0.7454
  533MOL0     C71874   8.097   0.798   3.013  0.3972 -0.0134 -0.1778
  533MOL0     C71875   8.548   0.916   3.022  0.2896  0.2155 -0.4627
  533MOL0     C71876   8.682   0.878   3.026  0.0920 -0.6746 -0.1504
  533MOL0     C71877   8.785   0.972   2.995 -0.4928  0.4028 -0.2227
  533MOL0     C71878   8.758   1.101   2.968  0.2843 -0.0476 -0.3229
  533MOL0     O71879   8.866   1.174   2.938 -0.0949  0.3410 -0.6744
  533MOL0     C71880   8.845   1.277   2.832  0.5611 -0.9139 -0.3634
  533MOL0     C71881   8.775   1.214   2.704 -0.8132 -0.0063 -0.4193
  533MOL0     C71882   8.839   1.091   2.646 -1.1243  0.2627 -0.8085
  533MOL0     C71883   8.995   1.082   2.652  0.0119 -0.1131  0.7454
  533MOL0     C71884   9.056   1.184   2.572 -0.0492 -0.0002 -0.5539
  533MOL0     C71885   9.104   1.254   2.485  0.3290 -0.1677  0.1467
  533MOL0     C71886   8.621   1.141   2.968  0.0782  0.3667  0.8189
  533MOL0     C71887   8.520   1.051   3.000 -0.3842  0.2647 -0.4203
  533MOL0     H71888   8.316   0.588   2.859 -0.6986 -0.2746 -0.7428
  533MOL0     H71889   8.104   0.443   2.858 -1.2858  0.9531 -0.9212
  533MOL0     H71890   7.885   0.501   3.177  0.6168  2.4346 -0.5155
  533MOL0     H71891   7.753   0.587   3.103  0.4661  0.2729 -0.9775
  533MOL0     H71892   7.645   0.385   3.007 -1.1389  0.9585  1.0751
  533MOL0     H71893   7.777   0.294   3.077  0.2534  0.5273 -4.1442
  533MOL0     H71894   7.736   0.339   3.296 -1.0292 -0.6184 -0.8214
  533MOL0     H71895   7.616   0.462   3.256  2.2132  1.5405  0.7295
  533MOL0     H71896   7.476   0.293   3.137 -0.9265  1.7745  1.2831
  533MOL0     H71897   7.599   0.165   3.180  0.2863 -0.3746  0.8658
  533MOL0     H71898   7.565   0.231   3.427 -0.5608  0.2591  1.2405
  533MOL0     H71899   7.450   0.352   3.383  2.4072  0.7157 -0.8120
  533MOL0     H71900   7.415   0.049   3.341 -1.4379  0.0816 -1.7830
  533MOL0     H71901   7.340   0.163   3.458 -1.5422 -2.2342 -0.0790
  533MOL0     H71902   7.300   0.143   3.159  1.1947  2.0096  0.8649
  533MOL0     H71903   7.183   0.091   3.274  0.3034 -0.1698  2.2810
  533MOL0     H71904   7.124   0.281   3.163 -0.8410  0.4995  1.3243
  533MOL0     H71905   7.259   0.388   3.223 -0.2165 -0.2267  1.5378
  533MOL0     H71906   6.925   0.303   3.282 -2.4546  0.3388  1.3984
  533MOL0     H71907   6.818   0.483   3.609  0.7476  0.6174 -1.1476
  533MOL0     H71908   6.740   0.451   3.457 -0.5841 -0.6861  0.2557
  533MOL0     H71909   6.785   0.249   3.679  3.0281  0.2849 -1.8713
  533MOL0     H71910   6.721   0.213   3.523 -0.5193 -0.7178  1.2497
  533MOL0     H71911   6.549   0.411   3.568  3.6066  2.1960  0.5222
  533MOL0     H71912   6.597   0.399   3.736 -1.5821 -1.4283  1.7238
  533MOL0     H71913   6.523   0.158   3.742 -2.4290 -0.8240  0.1489
  533MOL0     H71914   6.484   0.169   3.567 -1.4986  0.4574 -0.3738
  533MOL0     H71915   6.353   0.014   3.729  0.6715  1.3415 -1.1572
  533MOL0     H71916   6.273  -0.164   3.782  1.6271 -0.3119  1.2279
  533MOL0     H71917   6.200  -0.155   3.940  1.6612 -1.6630 -1.5051
  533MOL0     H71918   6.100  -0.186   3.798  0.1084 -0.4657 -2.0137
  533MOL0     H71919   5.737  -0.229   3.839  2.4768  1.2881  0.1800
  533MOL0     H71920   5.546  -0.328   3.936  1.2615  0.7602 -2.1822
  533MOL0     H71921   5.536  -0.309   4.418  2.4864  3.2065 -1.7375
  533MOL0     H71922   5.438  -0.183   4.335 -4.5269 -0.2230  0.0516
  533MOL0     H71923   5.283  -0.296   4.456 -0.2387 -0.1433 -0.9297
  533MOL0     H71924   5.274  -0.353   4.278  0.6980 -2.6863 -0.8891
  533MOL0     H71925   5.432  -0.473   4.500 -0.4512  2.6645  0.1758
  533MOL0     H71926   5.386  -0.555   4.340  0.3360  1.7811 -1.3879
  533MOL0     H71927   5.254  -0.663   4.522  0.0599 -0.2714  2.9646
  533MOL0     H71928   5.212  -0.502   4.593  0.0674  1.5966 -1.1196
  533MOL0     H71929   5.120  -0.645   4.335  0.9322 -1.2652  1.1165
  533MOL0     H71930   5.105  -0.471   4.353  1.9286  1.3012  0.8014
  533MOL0     H71931   4.970  -0.696   4.527  3.2066  0.6808  3.2097
  533MOL0     H71932   4.962  -0.528   4.569 -3.3736  0.1330 -1.0517
  533MOL0     H71933   4.885  -0.637   4.300  2.4621  1.3293 -0.9293
  533MOL0     H71934   4.862  -0.467   4.361  3.9263  2.1760  2.3305
  533MOL0     H71935   4.695  -0.543   4.515 -0.0396 -0.3756  0.2230
  533MOL0     H71936   4.714  -0.715   4.473  1.2116 -0.4232 -1.4697
  533MOL0     H71937   5.723  -0.253   4.338 -2.1337 -1.1779 -0.2565
  533MOL0     H71938   5.899  -0.130   4.236 -3.0805  0.9353  1.9465
  533MOL0     H71939   5.972   0.277   3.915 -0.5436 -2.0172  1.5882
  533MOL0     H71940   6.153   0.392   3.809  1.8098 -0.5616 -0.8043
  533MOL0     H71941   7.894   0.762   3.053  1.2274  0.9557  4.1563
  533MOL0     H71942   8.099   0.893   3.065  3.1379  0.9653 -1.8653
  533MOL0     H71943   8.711   0.779   3.062 -1.2409 -0.6340  1.0744
  533MOL0     H71944   8.888   0.943   3.014 -0.8956 -0.5773  0.5287
  533MOL0     H71945   8.791   1.359   2.880 -1.3112 -2.2020 -0.1876
  533MOL0     H71946   8.938   1.327   2.804  0.2623  1.2888  2.1434
  533MOL0     H71947   8.786   1.284   2.621  3.0744 -0.9460 -0.8676
  533MOL0     H71948   8.669   1.200   2.729 -0.2723  0.4635  2.4618
  533MOL0     H71949   8.805   1.092   2.542  0.3020  1.9124 -1.3101
  533MOL0     H71950   8.806   1.002   2.700 -2.1462  1.9012  1.4564
  533MOL0     H71951   9.025   0.984   2.616  3.9135  1.7819 -1.8237
  533MOL0     H71952   9.037   1.085   2.753 -2.8843 -0.4778  2.0825
  533MOL0     H71953   9.154   1.304   2.405  3.4642 -0.5585  1.6974
  533MOL0     H71954   8.577   1.239   2.952 -0.9900 -0.4289 -1.5022
  533MOL0     H71955   8.420   1.093   3.007 -1.4501 -2.3312  1.6576
  534MOL0     O71956   7.647   4.143   4.807 -0.4481 -0.0553 -0.0047
  534MOL0     C71957   7.668   4.143   4.931 -0.4830 -0.7152 -0.2735
  534MOL0     O71958   7.677   4.259   5.005  0.0434 -1.0956 -0.9878
  534MOL0     C71959   7.605   4.371   4.961  0.0479  0.0267  0.0789
  534MOL0     C71960   7.653   4.501   4.977  0.0554  1.0759 -0.0586
  534MOL0     C71961   7.575   4.609   4.954 -0.1987 -0.0581 -0.1202
  534MOL0     C71962   7.439   4.595   4.929  0.5452  0.2820  0.3746
  534MOL0     O71963   7.374   4.712   4.912  0.4256 -0.4370 -0.3181
  534MOL0     C71964   7.230   4.712   4.917 -0.2224  0.5922 -0.3465
  534MOL0     C71965   7.157   4.720   5.053  0.1822 -0.4686  0.7563
  534MOL0     C71966   7.177   4.588   5.130 -0.0104  0.4398  0.1160
  534MOL0     C71967   7.091   4.592   5.253  0.9524 -0.2239  0.1610
  534MOL0     C71968   6.942   4.560   5.242  0.3146  1.0390 -0.0829
  534MOL0     C71969   6.856   4.587   5.369  0.3566  0.8311 -0.2280
  534MOL0     C71970   6.705   4.552   5.350  0.9876 -0.9425 -0.1348
  534MOL0     C71971   6.618   4.654   5.264 -0.7231  0.4942 -0.2424
  534MOL0     N71972   6.484   4.591   5.239 -0.2419  0.9907  0.2194
  534MOL0     C71973   6.401   4.554   5.345 -0.8933 -0.4637  0.2503
  534MOL0     C71974   6.285   4.507   5.296  0.5129  0.3216  0.9307
  534MOL0     C71975   6.156   4.487   5.369 -0.1006 -0.1404  0.0147
  534MOL0     C71976   6.090   4.619   5.406 -0.0495 -0.3005  0.5421
  534MOL0     C71977   5.934   4.604   5.413 -0.9415  0.2850  1.3258
  534MOL0     C71978   5.861   4.719   5.476  0.7784 -0.3631 -0.0935
  534MOL0     O71979   5.750   4.665   5.550 -0.3635 -0.9028  0.8641
  534MOL0     C71980   5.634   4.651   5.473 -0.4398  0.8492 -0.3225
  534MOL0     C71981   5.534   4.588   5.540 -0.4651 -1.1090 -0.6630
  534MOL0     C71982   5.403   4.558   5.484  0.7631  0.1023 -1.1448
  534MOL0     C71983   5.306   4.467   5.561  0.3362  0.3614 -0.3247
  534MOL0     C71984   5.387   4.606   5.352 -0.6281  0.3168  0.3244
  534MOL0     C71985   5.262   4.573   5.276 -0.1621  0.3650 -0.2919
  534MOL0     O71986   5.274   4.540   5.142  0.0333  0.4660 -0.0943
  534MOL0     C71987   5.160   4.543   5.066  0.8190  1.2319  0.3779
  534MOL0     C71988   5.087   4.419   5.064  0.4989  0.2139 -0.6164
  534MOL0     C71989   4.977   4.411   4.976  0.4098 -0.0970 -0.5296
  534MOL0     C71990   4.930   4.517   4.902  0.4720 -0.2462  0.1284
  534MOL0     O71991   4.841   4.508   4.788  0.0058 -0.6169 -0.5556
  534MOL0     C71992   4.801   4.384   4.736  0.0649  0.1178 -1.4323
  534MOL0     C71993   4.717   4.389   4.604  0.0393  0.6007  0.8122
  534MOL0     C71994   4.563   4.379   4.622 -0.3645 -0.2853  0.5096
  534MOL0     C71995   4.501   4.515   4.674  0.2916  0.4665  0.4300
  534MOL0     C71996   4.350   4.519   4.663  0.3547 -0.4602 -0.1642
  534MOL0     C71997   4.299   4.524   4.522  0.4545 -0.5245  0.8248
  534MOL0     C71998   4.157   4.575   4.539 -1.0171 -0.8953  0.1297
  534MOL0     C71999   4.075   4.581   4.413  0.1733 -0.3497 -0.1586
  534MOL0    Cl72000   4.139   4.691   4.292  0.1764 -0.1343 -0.1063
  534MOL0     C72001   5.001   4.637   4.910 -0.0033 -0.0586 -0.1144
  534MOL0     C72002   5.118   4.653   4.984  0.0102 -0.1417 -1.2676
  534MOL0     O72003   5.155   4.584   5.336 -0.1149 -0.2141  1.1346
  534MOL0     C72004   5.502   4.642   5.276 -0.2645 -0.1122 -0.0983
  534MOL0     C72005   5.626   4.676   5.338  0.2594  0.2830  0.2316
  534MOL0     N72006   6.305   4.516   5.153  0.7324  0.3019 -1.7791
  534MOL0     N72007   6.418   4.563   5.123  0.2485  0.0334  0.5566
  534MOL0     C72008   7.386   4.466   4.914  0.7011 -0.9820  0.6674
  534MOL0     C72009   7.469   4.355   4.928  0.8537  0.4743  0.4853
  534MOL0     C72010   7.661   4.019   5.007 -0.2428  0.1753  0.3694
  534MOL0     C72011   7.619   3.899   4.944 -0.3036 -0.6319 -0.3763
  534MOL0     C72012   7.606   3.787   5.018  0.0538 -0.9076 -0.5153
  534MOL0     C72013   7.649   3.791   5.153  0.1943 -0.2346 -0.0275
  534MOL0     O72014   7.648   3.673   5.232  0.1098 -0.5071  1.0520
  534MOL0     C72015   7.773   3.602   5.231  0.2293 -0.0168  0.0554
  534MOL0     C72016   7.740   3.476   5.309  0.3719  0.2587  0.0613
  534MOL0     C72017   7.869   3.400   5.330 -0.5455  0.0428  0.5093
  534MOL0     C72018   7.847   3.272   5.410  0.6276 -1.0083 -0.3523
  534MOL0     C72019   7.918   3.276   5.539  0.4431  0.3822 -0.2334
  534MOL0     C72020   8.001   3.265   5.629  0.0811 -0.2647 -0.4505
  534MOL0     C72021   7.709   3.902   5.212 -0.1142  0.0084 -0.1455
  534MOL0     C72022   7.712   4.011   5.135  0.4783 -0.5195  1.1725
  534MOL0     H72023   7.755   4.518   5.010  1.0020  1.4137 -2.8891
  534MOL0     H72024   7.611   4.712   4.953  0.1259 -0.1073  2.0282
  534MOL0     H72025   7.205   4.802   4.859 -0.2209  0.6362 -0.2786
  534MOL0     H72026   7.197   4.625   4.858 -0.7129  0.0470  0.7071
  534MOL0     H72027   7.188   4.803   5.118 -0.7361 -0.1197  0.7703
  534MOL0     H72028   7.049   4.737   5.040  0.4461  0.5230 -0.2786
  534MOL0     H72029   7.154   4.499   5.072  4.3454  0.6066 -2.2651
  534MOL0     H72030   7.283   4.578   5.154  0.3204 -0.7215 -1.6836
  534MOL0     H72031   7.140   4.530   5.329  1.1441 -1.4762 -0.9436
  534MOL0     H72032   7.092   4.693   5.294 -0.2611  0.6457 -1.7824
  534MOL0     H72033   6.898   4.608   5.154 -0.3399 -1.7278 -1.3817
  534MOL0     H72034   6.937   4.456   5.211  1.2386  2.0581 -4.1857
  534MOL0     H72035   6.893   4.511   5.439  0.0484 -0.1123 -1.0625
  534MOL0     H72036   6.871   4.689   5.406  0.3144  0.7181  0.1048
  534MOL0     H72037   6.697   4.447   5.323  2.9053 -0.6355 -2.1701
  534MOL0     H72038   6.662   4.563   5.450  2.4056 -0.6656  0.4644
  534MOL0     H72039   6.672   4.672   5.170 -0.8672 -1.5228 -0.7581
  534MOL0     H72040   6.614   4.750   5.316 -0.0851 -1.3338  3.5521
  534MOL0     H72041   6.429   4.581   5.446  1.0021  0.4346 -0.4829
  534MOL0     H72042   6.089   4.434   5.299  1.3571  0.0077 -1.5604
  534MOL0     H72043   6.167   4.426   5.459 -1.4380  0.5567  0.6846
  534MOL0     H72044   6.115   4.694   5.331  1.0874 -1.2599 -0.0746
  534MOL0     H72045   6.133   4.645   5.504 -0.9348 -0.6831  1.0466
  534MOL0     H72046   5.916   4.508   5.463 -1.6856  0.9805  2.4249
  534MOL0     H72047   5.902   4.603   5.308  2.2809  2.9961  0.1638
  534MOL0     H72048   5.835   4.794   5.401 -0.3286  0.6692  1.2756
  534MOL0     H72049   5.925   4.768   5.550  2.2232 -1.9231 -0.2536
  534MOL0     H72050   5.545   4.578   5.648 -1.0080 -2.7959 -0.7306
  534MOL0     H72051   5.252   4.408   5.487  3.7802 -2.4383 -0.8985
  534MOL0     H72052   5.371   4.399   5.618  1.3595  2.7348  1.5005
  534MOL0     H72053   5.240   4.510   5.638 -1.0390 -3.2850  0.7402
  534MOL0     H72054   5.120   4.333   5.122  0.4533 -0.6803 -1.8978
  534MOL0     H72055   4.918   4.319   4.975 -0.1818  0.2649 -2.1694
  534MOL0     H72056   4.895   4.333   4.715  0.4654 -0.3278  1.0982
  534MOL0     H72057   4.735   4.333   4.807 -0.7228  0.2017 -2.0839
  534MOL0     H72058   4.748   4.474   4.543  1.4440  0.0124  0.6779
  534MOL0     H72059   4.743   4.301   4.544 -1.9191 -0.4164  1.3370
  534MOL0     H72060   4.528   4.303   4.692 -1.8687 -0.2175 -0.1449
  534MOL0     H72061   4.520   4.343   4.528 -0.6245 -0.0177  0.5246
  534MOL0     H72062   4.533   4.530   4.777 -0.8283  1.2352  0.6756
  534MOL0     H72063   4.543   4.600   4.619 -0.5458  0.1427 -0.7583
  534MOL0     H72064   4.311   4.599   4.727  2.1143 -0.0499  0.4319
  534MOL0     H72065   4.311   4.426   4.706  0.9826 -0.6987 -0.1073
  534MOL0     H72066   4.365   4.589   4.464 -3.2570 -0.1290 -3.5326
  534MOL0     H72067   4.296   4.425   4.476 -0.1610  0.3383 -1.0990
  534MOL0     H72068   4.154   4.674   4.586  0.1406 -0.4462 -0.6746
  534MOL0     H72069   4.111   4.505   4.609 -0.2269 -0.1105  1.4596
  534MOL0     H72070   3.976   4.617   4.441  0.5223 -0.5721  1.5014
  534MOL0     H72071   4.072   4.477   4.379  1.9670 -0.0235 -1.5024
  534MOL0     H72072   4.969   4.709   4.835 -1.9264  0.5260  1.2084
  534MOL0     H72073   5.189   4.733   4.963 -0.6729 -0.0607 -3.5231
  534MOL0     H72074   5.495   4.633   5.168  0.7222 -2.0384 -0.0430
  534MOL0     H72075   5.706   4.716   5.275  2.2925 -0.6957  2.0563
  534MOL0     H72076   7.286   4.438   4.881  0.5879  0.0896  0.0277
  534MOL0     H72077   7.431   4.254   4.922  3.6870 -0.6341 -0.3793
  534MOL0     H72078   7.575   3.901   4.844 -2.5581  2.4834  0.5091
  534MOL0     H72079   7.566   3.701   4.964 -1.6074 -2.3656  2.8039
  534MOL0     H72080   7.810   3.581   5.130 -0.4088  2.0539 -0.6476
  534MOL0     H72081   7.846   3.660   5.289 -0.3546  0.4128  0.3741
  534MOL0     H72082   7.658   3.415   5.268 -0.5743  0.7067  1.2101
  534MOL0     H72083   7.726   3.514   5.410  6.0902 -2.5333  2.2971
  534MOL0     H72084   7.934   3.465   5.389  1.0049  1.2109 -2.3011
  534MOL0     H72085   7.918   3.375   5.235  1.9707 -0.1943  1.7822
  534MOL0     H72086   7.888   3.188   5.353  0.7299  0.1543 -2.0864
  534MOL0     H72087   7.740   3.254   5.428  0.5313  1.4272  2.2121
  534MOL0     H72088   8.062   3.246   5.716  1.2403 -4.3106 -1.9508
  534MOL0     H72089   7.761   3.885   5.305  2.1110 -0.8926 -1.4551
  534MOL0     H72090   7.763   4.099   5.171  0.0559 -1.3695  4.1021
  535MOL0     O72091   0.562  10.577   6.622  0.7687  0.5999  0.0578
  535MOL0     C72092   0.549  10.457   6.649  0.8582 -0.2627  0.0947
  535MOL0     O72093   0.430  10.386   6.688 -0.2365  0.7882  0.2250
  535MOL0     C72094   0.318  10.456   6.706  1.1625 -0.2233  0.3106
  535MOL0     C72095   0.280  10.502   6.839  0.4942  0.9520  0.1287
  535MOL0     C72096   0.157  10.574   6.851 -0.1197  0.0716 -0.0296
  535MOL0     C72097   0.078  10.588   6.735  0.3500 -0.4486 -0.0367
  535MOL0     O72098  -0.038  10.665   6.735  0.1218  0.1256 -0.1914
  535MOL0     C72099  -0.087  10.712   6.861 -0.4591 -0.6944 -0.6651
  535MOL0     C72100  -0.204  10.811   6.846  0.4848 -0.1353  0.1713
  535MOL0     C72101  -0.253  10.880   6.969 -0.0509  0.2110  0.6163
  535MOL0     C72102  -0.314  10.778   7.059 -0.6680 -0.6485  0.0166
  535MOL0     C72103  -0.460  10.823   7.093 -0.5563  0.1847 -0.2057
  535MOL0     C72104  -0.560  10.825   6.972  0.1642  0.1627  0.5571
  535MOL0     C72105  -0.702  10.827   7.019  0.4526  0.4718 -0.4797
  535MOL0     C72106  -0.760  10.687   7.059  0.1609  0.6375 -0.5176
  535MOL0     N72107  -0.895  10.700   7.115  0.4005 -0.3550  0.4487
  535MOL0     C72108  -0.928  10.659   7.236  0.6330 -0.1618  0.1118
  535MOL0     C72109  -1.055  10.714   7.253  0.1503 -1.4260 -0.0695
  535MOL0     C72110  -1.138  10.723   7.379 -0.9898  0.6839  0.1819
  535MOL0     C72111  -1.240  10.615   7.401  0.6767 -0.2504 -0.9171
  535MOL0     C72112  -1.354  10.636   7.304  0.2689 -0.4927 -0.6028
  535MOL0     C72113  -1.478  10.557   7.337  0.2477 -0.5213 -0.2973
  535MOL0     O72114  -1.454  10.412   7.329  0.4416 -0.3788 -0.3735
  535MOL0     C72115  -1.551  10.335   7.395  0.1482  1.0493  0.0616
  535MOL0     C72116  -1.549  10.201   7.366  0.4378  1.0221  0.6159
  535MOL0     C72117  -1.633  10.100   7.426  0.1116  0.1690  0.2151
  535MOL0     C72118  -1.614   9.953   7.373  1.5604 -0.0536  0.4771
  535MOL0     C72119  -1.724  10.140   7.523 -0.1936 -0.5528 -1.3287
  535MOL0     C72120  -1.832  10.056   7.571 -0.4636  1.2637 -0.3960
  535MOL0     O72121  -1.959  10.103   7.560  0.3156 -0.0719 -0.2021
  535MOL0     C72122  -2.059  10.015   7.569  0.7254  0.5648 -1.0781
  535MOL0     C72123  -2.112  10.000   7.698  0.4293  0.2928 -0.3603
  535MOL0     C72124  -2.229   9.921   7.719 -1.1364  0.2121  0.2093
  535MOL0     C72125  -2.296   9.864   7.608  0.0758  0.8163  0.5637
  535MOL0     O72126  -2.389   9.764   7.615 -0.2828 -0.2928  0.0306
  535MOL0     C72127  -2.453   9.714   7.740 -0.4236 -0.6133  0.7162
  535MOL0     C72128  -2.545   9.599   7.713 -0.6302  0.1272 -0.1227
  535MOL0     C72129  -2.640   9.542   7.824  0.4640 -0.7293 -0.3960
  535MOL0     C72130  -2.775   9.608   7.819  0.4408 -1.7391  0.4414
  535MOL0     C72131  -2.878   9.562   7.921  0.1120  0.7999 -0.9768
  535MOL0     C72132  -2.837   9.563   8.074  0.1072  0.2658 -0.2279
  535MOL0     C72133  -2.949   9.637   8.155 -0.5305 -0.4990  0.2024
  535MOL0     C72134  -2.961   9.581   8.301  0.5909 -0.1981 -0.7517
  535MOL0    Cl72135  -2.803   9.553   8.384  0.6484  0.0425  0.2794
  535MOL0     C72136  -2.243   9.882   7.477  1.2462  0.1512 -0.5863
  535MOL0     C72137  -2.120   9.956   7.455  0.3709  0.3620 -0.1240
  535MOL0     O72138  -1.792   9.955   7.624 -0.1851 -0.2968  0.0835
  535MOL0     C72139  -1.732  10.277   7.561 -0.6271  0.0384  0.0420
  535MOL0     C72140  -1.648  10.370   7.494 -0.3207  0.3663 -0.1231
  535MOL0     N72141  -1.093  10.774   7.134  0.0103  0.4268  0.5427
  535MOL0     N72142  -0.997  10.772   7.054 -0.0131 -0.4884  0.0142
  535MOL0     C72143   0.126  10.551   6.605  0.9310 -0.8177  0.1472
  535MOL0     C72144   0.242  10.485   6.589  0.3085  0.1612 -0.3207
  535MOL0     C72145   0.673  10.381   6.643  0.7332 -0.7962 -0.5063
  535MOL0     C72146   0.666  10.255   6.702 -0.1872  0.6057 -0.7267
  535MOL0     C72147   0.787  10.170   6.705  0.1068 -0.2149 -0.1153
  535MOL0     C72148   0.900  10.211   6.640  0.5736  0.2482  0.2138
  535MOL0     O72149   1.017  10.131   6.639 -0.2656 -0.2639 -0.5426
  535MOL0     C72150   1.034   9.997   6.692 -0.1685 -0.1975 -0.8481
  535MOL0     C72151   1.155   9.931   6.622  0.2475 -0.2128 -0.0793
  535MOL0     C72152   1.275  10.021   6.592 -0.8867  0.1084  0.1336
  535MOL0     C72153   1.395   9.943   6.527  0.6221 -0.0761 -0.5069
  535MOL0     C72154   1.514  10.035   6.518  0.3763 -0.0590 -0.2216
  535MOL0     C72155   1.610  10.101   6.486 -0.2973  0.0650 -0.6678
  535MOL0     C72156   0.903  10.340   6.588 -0.2324 -0.3388  0.1273
  535MOL0     C72157   0.792  10.426   6.591  0.2238 -0.6672  0.2309
  535MOL0     H72158   0.350  10.489   6.921 -0.8303 -1.5731  0.9535
  535MOL0     H72159   0.124  10.599   6.951 -2.5935 -1.3219 -0.4161
  535MOL0     H72160  -0.109  10.617   6.909 -2.0828 -0.2721 -0.5221
  535MOL0     H72161  -0.013  10.765   6.922 -0.7864 -1.3141  0.2774
  535MOL0     H72162  -0.175  10.885   6.770  3.5107 -0.8876  0.4556
  535MOL0     H72163  -0.286  10.758   6.797  2.0893 -0.8163 -1.9403
  535MOL0     H72164  -0.171  10.942   7.006  0.3476 -0.1587  0.3577
  535MOL0     H72165  -0.322  10.953   6.925  3.3695  1.4824 -3.3081
  535MOL0     H72166  -0.308  10.681   7.008  3.6723 -0.3807 -0.3917
  535MOL0     H72167  -0.251  10.766   7.148  1.0990  0.9863 -0.9316
  535MOL0     H72168  -0.496  10.770   7.182  2.8141 -2.0885  0.0027
  535MOL0     H72169  -0.452  10.924   7.135 -2.8210  0.6747 -0.8346
  535MOL0     H72170  -0.543  10.912   6.909  1.9538  0.5266  1.5085
  535MOL0     H72171  -0.534  10.745   6.902  1.7977 -0.5802  1.9372
  535MOL0     H72172  -0.713  10.891   7.106 -0.4808 -0.9677  0.5033
  535MOL0     H72173  -0.769  10.866   6.942  0.2723 -2.0658 -1.7158
  535MOL0     H72174  -0.690  10.650   7.134 -1.0096  0.8536  0.7380
  535MOL0     H72175  -0.777  10.621   6.974  1.9744  0.9903 -1.1869
  535MOL0     H72176  -0.866  10.609   7.309  1.2580  2.5113  1.5517
  535MOL0     H72177  -1.063  10.707   7.457 -2.2682  0.6702  1.4405
  535MOL0     H72178  -1.179  10.824   7.387 -0.0908  1.2196 -1.3138
  535MOL0     H72179  -1.277  10.620   7.504 -1.4429  0.0328 -1.6432
  535MOL0     H72180  -1.194  10.516   7.399  2.1534  0.3258  1.1589
  535MOL0     H72181  -1.321  10.605   7.204 -1.1759 -0.7522 -1.0269
  535MOL0     H72182  -1.365  10.744   7.292  1.8719 -0.1993  0.2533
  535MOL0     H72183  -1.559  10.591   7.271  0.9837  0.8651 -0.5337
  535MOL0     H72184  -1.524  10.597   7.428 -4.7016 -3.0728 -1.3120
  535MOL0     H72185  -1.472  10.176   7.294  0.0788  0.0063  0.5742
  535MOL0     H72186  -1.638   9.867   7.436 -2.6075  0.0985 -0.6326
  535MOL0     H72187  -1.691   9.943   7.297  1.8132 -0.3331  0.2537
  535MOL0     H72188  -1.519   9.937   7.320  1.9639  0.0641  1.1447
  535MOL0     H72189  -2.067  10.052   7.782 -0.6335  0.7902 -0.0866
  535MOL0     H72190  -2.262   9.902   7.820 -1.9154 -1.8892 -0.3965
  535MOL0     H72191  -2.375   9.685   7.811  0.7330 -2.4041 -1.1756
  535MOL0     H72192  -2.511   9.800   7.778  0.2377 -0.2507  0.9219
  535MOL0     H72193  -2.609   9.639   7.634  0.1348  2.9515  0.5709
  535MOL0     H72194  -2.493   9.510   7.676 -0.6906 -0.0686  0.2530
  535MOL0     H72195  -2.612   9.550   7.929 -1.8434  0.4339  0.1890
  535MOL0     H72196  -2.646   9.433   7.818  2.9756 -0.9462 -0.2076
  535MOL0     H72197  -2.764   9.713   7.851 -0.3540 -1.8920  1.2341
  535MOL0     H72198  -2.810   9.619   7.716  0.5885  0.1907  0.5569
  535MOL0     H72199  -2.899   9.459   7.888  0.8657  0.2532  0.1677
  535MOL0     H72200  -2.963   9.628   7.902 -1.2225  0.3816  2.6919
  535MOL0     H72201  -2.828   9.457   8.099  2.5395 -0.1440 -2.4107
  535MOL0     H72202  -2.739   9.607   8.096 -0.4204  1.6410 -0.5286
  535MOL0     H72203  -3.048   9.658   8.112 -1.9593 -0.9585  3.0610
  535MOL0     H72204  -2.909   9.738   8.173  2.6130 -1.0322 -2.6575
  535MOL0     H72205  -3.004   9.481   8.298  1.8539 -0.7788 -0.3857
  535MOL0     H72206  -3.020   9.645   8.367 -0.4698  1.3407 -3.0443
  535MOL0     H72207  -2.293   9.828   7.398  0.5876 -3.1166  1.8332
  535MOL0     H72208  -2.064   9.966   7.363 -0.2168  0.2455 -0.4979
  535MOL0     H72209  -1.803  10.302   7.639 -0.2758  0.5612  0.2000
  535MOL0     H72210  -1.673  10.474   7.516 -1.7102  0.9102 -3.6194
  535MOL0     H72211   0.071  10.580   6.516  1.8561  1.6843  0.3134
  535MOL0     H72212   0.264  10.460   6.486 -1.6975  1.2689 -1.0685
  535MOL0     H72213   0.580  10.210   6.751 -1.4224  2.1019 -1.4392
  535MOL0     H72214   0.777  10.075   6.757 -0.9495 -0.1048 -0.1101
  535MOL0     H72215   1.053  10.014   6.798 -0.0121 -3.5355 -0.2253
  535MOL0     H72216   0.946   9.935   6.675 -0.1457 -0.4777  0.0293
  535MOL0     H72217   1.116   9.906   6.523  1.3508 -3.7397  0.2242
  535MOL0     H72218   1.178   9.833   6.667  0.1602  0.1628  0.8164
  535MOL0     H72219   1.311  10.060   6.687  0.1580  1.2582 -0.6994
  535MOL0     H72220   1.252  10.094   6.514  2.0182  0.7027 -0.2826
  535MOL0     H72221   1.365   9.923   6.424 -1.9875 -0.0608  0.1928
  535MOL0     H72222   1.418   9.852   6.582 -0.4593 -0.2543 -0.3320
  535MOL0     H72223   1.699  10.160   6.481 -1.8017  2.6692  0.8335
  535MOL0     H72224   0.989  10.388   6.542  1.7919 -3.6067  0.1458
  535MOL0     H72225   0.802  10.529   6.558  3.8601 -1.1686 -0.7567
  536MOL0     O72226   4.309   6.261  10.979  0.5513  0.0964  0.7335
  536MOL0     C72227   4.302   6.243  10.853  0.1029  0.2381 -0.0542
  536MOL0     O72228   4.201   6.291  10.765 -1.1317 -0.1768 -0.0401
  536MOL0     C72229   4.108   6.376  10.811 -0.2668 -0.4269 -0.1565
  536MOL0     C72230   4.028   6.355  10.925  0.8811  0.1356  0.6122
  536MOL0     C72231   3.926   6.444  10.945  0.0545 -0.2775 -0.4939
  536MOL0     C72232   3.889   6.556  10.872 -0.0799 -0.0069  0.0878
  536MOL0     O72233   3.792   6.650  10.910  0.4703  0.6873 -0.0561
  536MOL0     C72234   3.669   6.612  10.980  0.0594 -0.3485 -1.1850
  536MOL0     C72235   3.582   6.726  11.011 -0.4750 -0.3180 -0.4719
  536MOL0     C72236   3.633   6.816  11.120 -0.3526  0.1362  0.0785
  536MOL0     C72237   3.725   6.921  11.061 -0.0561 -0.0406  0.0069
  536MOL0     C72238   3.742   7.039  11.169 -0.1745  0.2502  0.8209
  536MOL0     C72239   3.601   7.112  11.204 -0.7765  0.2186 -0.1624
  536MOL0     C72240   3.611   7.268  11.202  0.2912  0.2529 -1.2489
  536MOL0     C72241   3.645   7.335  11.068 -0.5282 -0.1236 -0.1464
  536MOL0     N72242   3.537   7.314  10.960  0.1052  0.0307 -0.1994
  536MOL0     C72243   3.425   7.400  10.950 -0.1455  0.3385 -0.4182
  536MOL0     C72244   3.357   7.352  10.844 -0.7448  0.1216  0.2702
  536MOL0     C72245   3.216   7.390  10.804 -0.1907 -0.3595 -0.0860
  536MOL0     C72246   3.149   7.318  10.688  0.3264  0.2875  0.1334
  536MOL0     C72247   3.190   7.358  10.546 -0.0782 -0.1438 -0.1585
  536MOL0     C72248   3.131   7.267  10.448  0.8607 -0.1430  0.1567
  536MOL0     O72249   2.994   7.309  10.427 -0.2729  0.9979 -0.3966
  536MOL0     C72250   2.898   7.213  10.401 -0.3065  0.3189 -0.1909
  536MOL0     C72251   2.929   7.098  10.329  0.3494  0.1029  0.0710
  536MOL0     C72252   2.835   7.001  10.306  0.5006  0.4642 -0.4381
  536MOL0     C72253   2.864   6.874  10.248 -0.2374  0.9460  0.0675
  536MOL0     C72254   2.700   7.018  10.355  0.4966 -0.6103 -0.7497
  536MOL0     C72255   2.594   6.917  10.340  0.3746 -0.1825  0.0477
  536MOL0     O72256   2.527   6.901  10.223  0.2568  0.2817  0.0029
  536MOL0     C72257   2.446   6.788  10.219 -0.5660  1.2911  0.5393
  536MOL0     C72258   2.496   6.665  10.190 -0.4165  0.0457  0.9002
  536MOL0     C72259   2.415   6.558  10.178  0.1593 -0.5444 -0.1122
  536MOL0     C72260   2.282   6.562  10.203 -0.3176 -0.5158 -0.3113
  536MOL0     O72261   2.216   6.443  10.185 -0.0464 -0.0436 -0.2664
  536MOL0     C72262   2.070   6.442  10.197  0.3663  0.0687  0.0483
  536MOL0     C72263   2.026   6.298  10.208  0.0955  0.2635 -0.1979
  536MOL0     C72264   1.885   6.278  10.249  0.0966 -0.9470 -0.5358
  536MOL0     C72265   1.777   6.357  10.170  1.3192  0.1890  0.1830
  536MOL0     C72266   1.650   6.372  10.262  0.4052 -1.7424 -0.2527
  536MOL0     C72267   1.518   6.364  10.166  0.6063  0.3074  0.3277
  536MOL0     C72268   1.388   6.396  10.242  0.1532 -0.6609  0.6335
  536MOL0     C72269   1.282   6.477  10.159 -0.2064 -0.4581 -0.0566
  536MOL0    Cl72270   1.255   6.381  10.016  0.3813 -0.3003  0.0865
  536MOL0     C72271   2.234   6.685  10.245  0.2482 -0.2534  1.1957
  536MOL0     C72272   2.319   6.805  10.241  0.6101  0.3962 -0.3837
  536MOL0     O72273   2.560   6.855  10.443  0.4693 -0.3990 -0.6012
  536MOL0     C72274   2.667   7.140  10.416  0.6420  0.4467 -0.0688
  536MOL0     C72275   2.769   7.232  10.451 -0.3435 -0.5570 -0.3233
  536MOL0     N72276   3.421   7.238  10.800 -0.4982  0.5537 -0.3416
  536MOL0     N72277   3.531   7.217  10.866  0.1698 -0.4767  0.4687
  536MOL0     C72278   3.979   6.576  10.767  0.1031  0.0966 -0.1671
  536MOL0     C72279   4.081   6.492  10.734  0.0389 -0.1409  0.2282
  536MOL0     C72280   4.417   6.165  10.794 -0.5470  0.7190  0.6869
  536MOL0     C72281   4.422   6.119  10.661  0.2988 -0.1020 -0.7577
  536MOL0     C72282   4.529   6.052  10.615 -0.4285 -0.1271 -1.1547
  536MOL0     C72283   4.637   6.027  10.697 -0.5394 -1.0821 -0.5700
  536MOL0     O72284   4.758   5.970  10.658  0.4369  0.3247  0.4010
  536MOL0     C72285   4.775   5.964  10.509  0.0769  0.5940 -0.6038
  536MOL0     C72286   4.901   5.885  10.491  0.3504  1.0205  0.0786
  536MOL0     C72287   4.894   5.737  10.543 -0.5428 -0.5057  0.5712
  536MOL0     C72288   5.011   5.647  10.496 -0.5180 -0.2174  0.1601
  536MOL0     C72289   4.990   5.507  10.526  0.4452  0.5717  0.1048
  536MOL0     C72290   4.976   5.384  10.549  0.7126 -0.6426  0.4590
  536MOL0     C72291   4.635   6.065  10.828 -0.2919  0.6064 -0.0165
  536MOL0     C72292   4.525   6.135  10.875  0.4258  0.4695 -0.1376
  536MOL0     H72293   4.036   6.270  10.992  3.3447 -0.2686 -0.0950
  536MOL0     H72294   3.869   6.406  11.030 -0.1137 -0.1906 -0.5657
  536MOL0     H72295   3.616   6.538  10.919  0.6832 -1.0115 -0.9419
  536MOL0     H72296   3.690   6.555  11.071 -0.1889 -0.0199 -0.9228
  536MOL0     H72297   3.576   6.779  10.916 -1.3169 -3.8872 -2.6274
  536MOL0     H72298   3.479   6.693  11.033 -0.8408  1.1757  0.1913
  536MOL0     H72299   3.553   6.859  11.181 -1.8887 -3.3404  0.7586
  536MOL0     H72300   3.687   6.759  11.196 -3.0360 -0.2077  1.8401
  536MOL0     H72301   3.819   6.883  11.021  0.4937 -0.2297  1.4351
  536MOL0     H72302   3.678   6.984  10.984  1.0583  1.4147  0.4601
  536MOL0     H72303   3.793   7.009  11.260 -2.4820  1.8710  2.7779
  536MOL0     H72304   3.812   7.113  11.132  1.5892 -1.6493  0.1590
  536MOL0     H72305   3.519   7.080  11.138 -1.1068  1.8424 -0.5924
  536MOL0     H72306   3.572   7.073  11.302  1.2796  0.4827  0.5908
  536MOL0     H72307   3.521   7.309  11.249 -0.2855 -1.0162 -1.1976
  536MOL0     H72308   3.694   7.296  11.267 -0.0514 -1.2727 -0.0859
  536MOL0     H72309   3.738   7.291  11.030 -0.4152 -0.0743  0.0737
  536MOL0     H72310   3.668   7.439  11.093 -1.4478  0.5229 -1.8277
  536MOL0     H72311   3.400   7.488  11.008 -3.2717 -0.5835 -0.1584
  536MOL0     H72312   3.151   7.359  10.886  1.0894  1.2969  1.6486
  536MOL0     H72313   3.212   7.498  10.783  1.7330 -0.4225 -0.9568
  536MOL0     H72314   3.041   7.335  10.699  0.3618  1.1340 -0.7399
  536MOL0     H72315   3.162   7.210  10.693 -0.1455  0.2771  1.8398
  536MOL0     H72316   3.299   7.363  10.550  0.1048 -2.3363 -0.5924
  536MOL0     H72317   3.140   7.450  10.517  1.8389  1.7492  2.1743
  536MOL0     H72318   3.127   7.165  10.487 -1.8630  0.8393  2.8157
  536MOL0     H72319   3.181   7.281  10.352 -2.0131  2.6147 -1.1099
  536MOL0     H72320   3.027   7.072  10.292  0.0934  0.3174 -0.7676
  536MOL0     H72321   2.819   6.790  10.301 -3.2485  1.3305 -1.6490
  536MOL0     H72322   2.850   6.856  10.141 -2.0308 -0.9700  0.5733
  536MOL0     H72323   2.972   6.869  10.264 -0.0516  2.5212 -0.4502
  536MOL0     H72324   2.602   6.651  10.177 -0.4068  1.3739 -0.8173
  536MOL0     H72325   2.460   6.462  10.156  2.8308  0.9178 -1.6617
  536MOL0     H72326   2.052   6.492  10.293  3.0432  1.5202 -0.0950
  536MOL0     H72327   2.031   6.496  10.110  3.6158  1.4021 -0.7374
  536MOL0     H72328   2.046   6.260  10.107  2.0728  3.1626 -1.0371
  536MOL0     H72329   2.094   6.240  10.270  0.5281  0.9921  0.0222
  536MOL0     H72330   1.883   6.306  10.355  0.6089 -0.7798 -0.5713
  536MOL0     H72331   1.864   6.170  10.250 -0.1341 -0.9468  2.3483
  536MOL0     H72332   1.800   6.453  10.124 -2.7657  3.6071  4.2799
  536MOL0     H72333   1.753   6.288  10.088  0.4065 -0.1780  0.7385
  536MOL0     H72334   1.653   6.469  10.312  0.4773 -1.6680 -0.4014
  536MOL0     H72335   1.640   6.292  10.337 -0.5904  0.2464  1.8612
  536MOL0     H72336   1.543   6.442  10.094  3.4563 -0.2728  0.5576
  536MOL0     H72337   1.505   6.263  10.125  0.0085 -0.2159  1.7657
  536MOL0     H72338   1.418   6.453  10.330 -0.2309 -0.4374  0.6233
  536MOL0     H72339   1.334   6.305  10.269 -2.0540 -0.8174 -3.4613
  536MOL0     H72340   1.323   6.574  10.128 -2.2510  0.6755  0.5484
  536MOL0     H72341   1.189   6.487  10.217  0.2915  0.2764  0.6532
  536MOL0     H72342   2.130   6.693  10.273  0.0879 -0.2690  0.6244
  536MOL0     H72343   2.277   6.900  10.271 -1.4313 -0.0098 -1.7431
  536MOL0     H72344   2.562   7.157  10.436  0.0451 -3.8306  1.4903
  536MOL0     H72345   2.751   7.330  10.493 -0.2573  0.5631 -2.7577
  536MOL0     H72346   3.953   6.665  10.710  0.3812 -0.7375 -1.6423
  536MOL0     H72347   4.132   6.513  10.640 -0.4943  1.3497  0.2494
  536MOL0     H72348   4.338   6.140  10.595  1.8390 -1.8880 -3.4446
  536MOL0     H72349   4.533   6.014  10.513  3.5021 -0.1173 -1.1478
  536MOL0     H72350   4.696   5.907  10.459 -0.3778  0.1262  0.6194
  536MOL0     H72351   4.783   6.068  10.474 -2.1198  2.5081  3.7894
  536MOL0     H72352   4.985   5.938  10.537  2.7435 -0.1147 -2.6984
  536MOL0     H72353   4.920   5.883  10.384  1.2926 -0.8066  0.2398
  536MOL0     H72354   4.801   5.698  10.501  0.1388  0.2386 -1.7426
  536MOL0     H72355   4.883   5.730  10.652 -1.3106 -0.2414  0.5148
  536MOL0     H72356   5.088   5.665  10.571 -1.1984 -2.6479  1.5331
  536MOL0     H72357   5.056   5.666  10.398  0.2680  1.4571  0.7901
  536MOL0     H72358   4.976   5.277  10.560 -2.9526 -0.7326  0.8531
  536MOL0     H72359   4.726   6.050  10.886  0.1846  0.3155 -0.8249
  536MOL0     H72360   4.525   6.168  10.978  0.0424 -1.4076  0.5014
  537MOL0     O72361   3.278   5.305   2.565  0.3392  0.0864  0.8611
  537MOL0     C72362   3.311   5.205   2.627  0.4915  0.9759  0.5186
  537MOL0     O72363   3.227   5.090   2.630  0.0263  0.6482 -0.1516
  537MOL0     C72364   3.106   5.105   2.568  0.9629 -0.1351  0.0320
  537MOL0     C72365   3.079   5.168   2.441  0.5381  0.1466  0.5099
  537MOL0     C72366   2.955   5.172   2.388  0.2389 -1.1728 -0.3422
  537MOL0     C72367   2.849   5.124   2.465  0.6158 -0.4816 -0.2723
  537MOL0     O72368   2.731   5.137   2.399  0.1496  0.5149 -0.2927
  537MOL0     C72369   2.614   5.164   2.478 -0.2613 -0.4201  0.6280
  537MOL0     C72370   2.496   5.182   2.386  0.8057  0.6266  0.5081
  537MOL0     C72371   2.358   5.183   2.449 -0.2124  0.3603 -0.0635
  537MOL0     C72372   2.250   5.152   2.355 -0.6471  0.7607 -0.5935
  537MOL0     C72373   2.121   5.160   2.439  0.6991 -0.5396  0.3372
  537MOL0     C72374   2.031   5.290   2.424 -0.2847 -0.8723  0.5169
  537MOL0     C72375   1.936   5.316   2.537  0.5955  0.2105 -0.2198
  537MOL0     C72376   1.835   5.200   2.562  0.3432 -0.4387 -0.6546
  537MOL0     N72377   1.747   5.173   2.448  0.2355  0.8020 -0.0917
  537MOL0     C72378   1.641   5.251   2.430 -0.8015 -0.8463 -0.0385
  537MOL0     C72379   1.575   5.210   2.324 -0.3270  0.2164  0.4327
  537MOL0     C72380   1.440   5.266   2.271 -1.0105 -1.4026 -0.0875
  537MOL0     C72381   1.349   5.294   2.391  0.3295  0.5957  0.6903
  537MOL0     C72382   1.200   5.319   2.359 -0.3417  0.5934  0.0125
  537MOL0     C72383   1.108   5.320   2.480  1.0923  0.9429  0.5148
  537MOL0     O72384   1.152   5.408   2.586  1.1476 -0.8884 -0.0231
  537MOL0     C72385   1.051   5.492   2.628 -0.0598 -0.6293 -0.0185
  537MOL0     C72386   0.912   5.460   2.638  0.7116 -0.0572 -0.2454
  537MOL0     C72387   0.812   5.552   2.689  0.1370  0.4760  0.4000
  537MOL0     C72388   0.667   5.500   2.699  0.4412  0.0770 -0.4701
  537MOL0     C72389   0.856   5.679   2.739  0.3614 -0.0395  0.7358
  537MOL0     C72390   0.775   5.779   2.799  0.1448 -1.2118 -0.2814
  537MOL0     O72391   0.803   5.911   2.769  0.9147 -0.6018  0.2523
  537MOL0     C72392   0.712   6.003   2.826 -0.4157  0.6719 -0.2859
  537MOL0     C72393   0.576   5.991   2.806  0.0727 -0.3080  0.2461
  537MOL0     C72394   0.492   6.064   2.888  0.9096 -0.0018  0.4020
  537MOL0     C72395   0.546   6.150   2.989 -0.4880 -0.3675 -0.3280
  537MOL0     O72396   0.454   6.228   3.052 -1.0818  0.2927 -0.8335
  537MOL0     C72397   0.500   6.340   3.116  0.0604 -0.0043 -0.3330
  537MOL0     C72398   0.386   6.417   3.183 -0.8852 -0.2353 -0.1256
  537MOL0     C72399   0.324   6.339   3.300  0.3611 -0.2495 -0.4413
  537MOL0     C72400   0.232   6.428   3.392 -1.4720 -1.1343 -0.0707
  537MOL0     C72401   0.165   6.346   3.505  0.0921  0.4901  0.3523
  537MOL0     C72402   0.066   6.444   3.574 -0.0536 -0.6248  0.2664
  537MOL0     C72403  -0.027   6.372   3.669  0.0290 -0.3132 -0.8648
  537MOL0     C72404  -0.108   6.466   3.761 -0.1851  1.3355  0.4739
  537MOL0    Cl72405  -0.210   6.354   3.843  0.1951  0.2318  0.7347
  537MOL0     C72406   0.681   6.152   3.012 -0.1799  0.4723 -0.0337
  537MOL0     C72407   0.759   6.078   2.927  0.4123  0.3359 -0.3600
  537MOL0     O72408   0.697   5.742   2.889  0.4297  0.3768  0.4295
  537MOL0     C72409   0.991   5.716   2.704 -0.1920 -0.1206 -0.5926
  537MOL0     C72410   1.086   5.626   2.648 -0.1312 -0.1457  0.1289
  537MOL0     N72411   1.661   5.119   2.265 -0.6195 -0.3269 -0.0293
  537MOL0     N72412   1.767   5.094   2.341 -0.4750 -0.1094  0.4294
  537MOL0     C72413   2.867   5.051   2.583  0.2812 -0.4723  0.0892
  537MOL0     C72414   2.998   5.044   2.635 -1.1830 -0.0389 -0.3552
  537MOL0     C72415   3.449   5.192   2.694  0.1322 -0.8074 -0.9132
  537MOL0     C72416   3.492   5.080   2.756  0.4010  0.0736 -0.4333
  537MOL0     C72417   3.605   5.084   2.840 -0.0345  0.8853 -0.4707
  537MOL0     C72418   3.684   5.202   2.862  0.4131 -1.6916 -0.1139
  537MOL0     O72419   3.793   5.209   2.946 -0.6974 -0.1382  0.0042
  537MOL0     C72420   3.751   5.231   3.073  0.4153  0.6963 -0.0262
  537MOL0     C72421   3.798   5.379   3.102 -0.6287 -0.0941 -0.1714
  537MOL0     C72422   3.763   5.402   3.251  0.3572  0.3347 -0.5723
  537MOL0     C72423   3.814   5.540   3.291  0.0900 -0.3822  0.3162
  537MOL0     C72424   3.800   5.545   3.438 -0.1172 -0.4393  0.2303
  537MOL0     C72425   3.779   5.557   3.558  0.1115  0.1198 -0.5940
  537MOL0     C72426   3.644   5.313   2.789 -0.0239  0.2889  0.1407
  537MOL0     C72427   3.530   5.310   2.709  0.0468  0.9261  0.6089
  537MOL0     H72428   3.164   5.189   2.377 -0.4052  2.3291 -0.1330
  537MOL0     H72429   2.932   5.203   2.287  0.5128 -3.0224 -1.0064
  537MOL0     H72430   2.599   5.082   2.548 -1.8219 -1.7556 -1.1549
  537MOL0     H72431   2.620   5.256   2.538  0.4781  1.2902 -1.8794
  537MOL0     H72432   2.509   5.271   2.323  1.7153  0.4341  0.4079
  537MOL0     H72433   2.513   5.100   2.315  0.3731  2.4753 -1.8584
  537MOL0     H72434   2.356   5.105   2.525 -0.6846 -0.2077 -0.6541
  537MOL0     H72435   2.340   5.282   2.493  2.3661  1.2920 -0.8824
  537MOL0     H72436   2.251   5.227   2.275 -0.8477 -2.3210 -3.7285
  537MOL0     H72437   2.267   5.055   2.308  1.5507  0.8772 -0.1547
  537MOL0     H72438   2.062   5.074   2.407 -0.6257  0.4028  0.1887
  537MOL0     H72439   2.150   5.158   2.545  0.4649  2.4904  0.5281
  537MOL0     H72440   2.100   5.374   2.425 -0.3316 -0.8366  0.8781
  537MOL0     H72441   1.975   5.270   2.332 -1.6732  1.3742  0.7967
  537MOL0     H72442   2.005   5.310   2.621  2.5188 -2.7949 -1.8341
  537MOL0     H72443   1.891   5.412   2.507  0.9453  0.5843  0.4306
  537MOL0     H72444   1.763   5.221   2.642  2.4963 -0.3292  1.3798
  537MOL0     H72445   1.890   5.113   2.601 -1.2873  0.0027  3.1301
  537MOL0     H72446   1.600   5.331   2.492 -4.0664 -1.7090 -0.8757
  537MOL0     H72447   1.459   5.354   2.209 -1.3692 -0.7548  0.6951
  537MOL0     H72448   1.385   5.193   2.212  0.8129 -2.4709 -0.5338
  537MOL0     H72449   1.380   5.387   2.438  0.4338 -0.0702  1.9858
  537MOL0     H72450   1.358   5.210   2.461  1.7304 -0.3467 -0.5459
  537MOL0     H72451   1.172   5.241   2.289  2.6404 -0.8628  0.2805
  537MOL0     H72452   1.196   5.415   2.306 -1.1171 -2.0987 -5.4536
  537MOL0     H72453   1.106   5.218   2.521 -2.9498  0.6937  0.0676
  537MOL0     H72454   1.005   5.330   2.446  0.4878 -2.3742  1.0702
  537MOL0     H72455   0.879   5.360   2.611 -0.9044  0.4531 -0.2857
  537MOL0     H72456   0.619   5.537   2.790  3.0980 -0.3025  1.1682
  537MOL0     H72457   0.606   5.546   2.620  0.0639  0.7740  0.2026
  537MOL0     H72458   0.668   5.392   2.685 -1.8805  0.1017 -1.3922
  537MOL0     H72459   0.540   5.923   2.729 -0.3120  1.0707 -0.8429
  537MOL0     H72460   0.384   6.055   2.878  0.9483 -1.6391  1.1802
  537MOL0     H72461   0.574   6.320   3.194  0.1825 -3.3218 -1.1543
  537MOL0     H72462   0.545   6.412   3.048  0.5491  0.4452  0.4538
  537MOL0     H72463   0.433   6.509   3.219  2.1777 -0.4355 -3.1365
  537MOL0     H72464   0.309   6.424   3.106  0.6985 -0.4527 -1.7857
  537MOL0     H72465   0.401   6.289   3.359  0.9688  1.3566  0.1935
  537MOL0     H72466   0.270   6.253   3.262  0.9493 -2.0024  2.4089
  537MOL0     H72467   0.294   6.508   3.433 -1.0712 -0.5473 -1.7593
  537MOL0     H72468   0.155   6.467   3.325  0.2546 -0.0607 -1.5055
  537MOL0     H72469   0.241   6.299   3.568 -0.1091 -1.0178 -0.4759
  537MOL0     H72470   0.109   6.266   3.455  0.4224  1.3165 -1.4020
  537MOL0     H72471   0.130   6.519   3.620 -0.8833  2.1746 -2.7896
  537MOL0     H72472   0.004   6.485   3.493 -0.1431 -1.5175 -0.1369
  537MOL0     H72473   0.023   6.307   3.741 -1.3225  2.2003  2.6721
  537MOL0     H72474  -0.104   6.323   3.609 -1.7888  0.2501  0.8942
  537MOL0     H72475  -0.167   6.545   3.714 -0.4360 -0.2432 -2.0144
  537MOL0     H72476  -0.033   6.502   3.832  0.1491 -0.1738  0.9391
  537MOL0     H72477   0.729   6.214   3.087  0.8824  0.3508 -0.5922
  537MOL0     H72478   0.865   6.071   2.948  0.2657 -1.8700 -0.0652
  537MOL0     H72479   1.033   5.816   2.714 -3.4859  1.5926 -2.0781
  537MOL0     H72480   1.188   5.653   2.623 -0.6418 -0.1040 -2.1416
  537MOL0     H72481   2.788   5.000   2.639  0.5192 -1.2471 -0.2752
  537MOL0     H72482   3.013   4.987   2.726 -0.5973 -0.4319 -0.6945
  537MOL0     H72483   3.439   4.987   2.737 -2.5596  1.2845  1.3286
  537MOL0     H72484   3.638   4.994   2.889 -2.1730  0.8192  0.9983
  537MOL0     H72485   3.644   5.234   3.095  0.1104  2.0633 -1.5047
  537MOL0     H72486   3.791   5.165   3.150 -0.3577  2.5152  2.0321
  537MOL0     H72487   3.745   5.451   3.038  2.1460  0.7700 -1.6352
  537MOL0     H72488   3.904   5.389   3.080 -0.9370  1.6300 -1.0619
  537MOL0     H72489   3.812   5.316   3.299 -2.1297 -0.7996  0.0740
  537MOL0     H72490   3.656   5.400   3.274  0.5103 -0.3783  0.1524
  537MOL0     H72491   3.749   5.611   3.239 -0.0120  1.1484  2.4139
  537MOL0     H72492   3.919   5.554   3.264 -0.4369  1.5787 -0.9558
  537MOL0     H72493   3.749   5.574   3.660  0.5551  2.9327 -0.8527
  537MOL0     H72494   3.698   5.405   2.808 -0.9926  0.4860  2.2500
  537MOL0     H72495   3.483   5.393   2.657  2.6475  1.4312 -1.1397
  538MOL0     O72496   5.733   5.767   1.356 -0.7204  0.0265  0.3888
  538MOL0     C72497   5.789   5.746   1.461 -0.9412 -0.3153 -0.2128
  538MOL0     O72498   5.745   5.654   1.547 -0.0541 -0.0366 -0.3899
  538MOL0     C72499   5.614   5.612   1.538  0.6265 -0.3644  0.0895
  538MOL0     C72500   5.574   5.493   1.484 -0.2278 -0.3046  0.6803
  538MOL0     C72501   5.440   5.451   1.480  0.8675  0.8529 -0.4899
  538MOL0     C72502   5.347   5.525   1.557 -0.2956  0.2402 -0.5123
  538MOL0     O72503   5.211   5.491   1.568 -0.1495 -0.2243  0.2167
  538MOL0     C72504   5.197   5.383   1.664 -0.6931  0.9720  0.0743
  538MOL0     C72505   5.044   5.340   1.639  0.8249  0.0393 -0.7804
  538MOL0     C72506   4.940   5.399   1.742  0.5775 -0.8006 -0.4191
  538MOL0     C72507   4.923   5.556   1.726 -0.1370 -0.4283 -0.0757
  538MOL0     C72508   4.796   5.599   1.806 -0.4477  0.0967 -0.1909
  538MOL0     C72509   4.814   5.590   1.960  0.1896 -0.2662  0.1639
  538MOL0     C72510   4.682   5.628   2.023  0.3928 -0.6789  0.8337
  538MOL0     C72511   4.700   5.624   2.178 -0.2829  0.8792 -0.5175
  538MOL0     N72512   4.577   5.661   2.256  0.6916 -0.4356  0.2422
  538MOL0     C72513   4.518   5.785   2.230  0.2540  0.5760  0.4161
  538MOL0     C72514   4.404   5.782   2.312 -0.2306 -0.6206 -0.0742
  538MOL0     C72515   4.319   5.901   2.358 -0.4249  0.4667  0.5459
  538MOL0     C72516   4.180   5.855   2.389  0.2352  0.3198 -0.6103
  538MOL0     C72517   4.115   5.943   2.492 -0.5175  0.1952 -0.0104
  538MOL0     C72518   3.962   5.932   2.471  0.2476  0.4919  0.6590
  538MOL0     O72519   3.922   6.010   2.356 -0.5809 -0.4945 -0.4024
  538MOL0     C72520   3.791   6.022   2.325 -0.3088 -0.3029  0.4439
  538MOL0     C72521   3.758   6.105   2.221  0.5612  1.0968  0.0280
  538MOL0     C72522   3.625   6.142   2.187  0.1842 -0.5421 -0.9808
  538MOL0     C72523   3.607   6.245   2.081 -0.6880  0.3091  0.5714
  538MOL0     C72524   3.520   6.086   2.262  0.1083 -0.2972  0.4586
  538MOL0     C72525   3.379   6.123   2.245  0.2572 -0.7120  0.5512
  538MOL0     O72526   3.299   6.058   2.321  0.6625 -0.3637  0.5214
  538MOL0     C72527   3.175   6.111   2.352  0.3400  0.6951  0.3522
  538MOL0     C72528   3.070   6.017   2.358  0.7330  0.1452  0.8928
  538MOL0     C72529   2.936   6.049   2.369  0.0030  0.3471  0.3340
  538MOL0     C72530   2.897   6.178   2.397  0.5347  0.3510 -0.2571
  538MOL0     O72531   2.767   6.208   2.405  0.5266  0.4472  0.3511
  538MOL0     C72532   2.699   6.323   2.471  0.1390 -0.8535  0.2186
  538MOL0     C72533   2.560   6.262   2.497  0.5486 -0.1973  0.1144
  538MOL0     C72534   2.469   6.273   2.379  0.2142 -0.2319  0.1740
  538MOL0     C72535   2.409   6.412   2.354 -0.8075 -0.0240  0.0072
  538MOL0     C72536   2.316   6.413   2.230  0.6685 -0.7284  0.4399
  538MOL0     C72537   2.261   6.554   2.190  0.2777 -0.1014  0.3985
  538MOL0     C72538   2.364   6.634   2.109  0.0429  0.0753  0.0529
  538MOL0     C72539   2.332   6.784   2.110 -0.5763  1.3810 -0.9172
  538MOL0    Cl72540   2.174   6.806   2.011  0.2439 -0.0795  0.0862
  538MOL0     C72541   3.004   6.274   2.401  1.0644  0.8682 -0.8263
  538MOL0     C72542   3.140   6.245   2.376 -1.0684  0.6358  0.2282
  538MOL0     O72543   3.348   6.229   2.186 -0.8799  0.4016  0.3820
  538MOL0     C72544   3.551   5.981   2.352  0.4466  0.2903  0.0821
  538MOL0     C72545   3.684   5.963   2.395  0.7836  0.1275  0.8885
  538MOL0     N72546   4.408   5.658   2.383  0.5965 -0.7264 -0.2246
  538MOL0     N72547   4.504   5.591   2.341  0.5396 -0.1441  0.3323
  538MOL0     C72548   5.390   5.640   1.628 -0.4844 -0.0738  0.8416
  538MOL0     C72549   5.519   5.682   1.611 -0.5916  0.0644 -0.4866
  538MOL0     C72550   5.906   5.826   1.504 -0.2737  0.2423  0.3078
  538MOL0     C72551   5.968   5.908   1.404 -0.2574  0.3587 -0.2481
  538MOL0     C72552   6.095   5.954   1.424 -0.1952 -0.2860 -0.2464
  538MOL0     C72553   6.160   5.949   1.553  0.7206  0.8240  0.4740
  538MOL0     O72554   6.285   5.989   1.590 -0.0650  0.6116 -0.1598
  538MOL0     C72555   6.379   6.011   1.487 -0.0749 -0.2243 -0.1047
  538MOL0     C72556   6.374   6.159   1.427  0.5966 -0.6314 -0.4148
  538MOL0     C72557   6.516   6.227   1.438  0.3702  0.7432 -1.2721
  538MOL0     C72558   6.537   6.364   1.378 -0.5029  0.7970  0.0875
  538MOL0     C72559   6.435   6.458   1.428 -0.3093 -0.6647 -0.1450
  538MOL0     C72560   6.354   6.530   1.485  0.3419  0.1806 -0.2246
  538MOL0     C72561   6.085   5.891   1.653 -0.1389  0.0976 -0.3555
  538MOL0     C72562   5.965   5.820   1.631  0.2136  0.4007  0.2865
  538MOL0     H72563   5.655   5.436   1.438 -1.0954 -1.6249  0.7250
  538MOL0     H72564   5.423   5.357   1.429 -2.4393 -0.9364  3.4186
  538MOL0     H72565   5.271   5.306   1.641 -2.5105 -1.4888  1.8636
  538MOL0     H72566   5.217   5.420   1.765 -1.9929 -0.3438  0.8533
  538MOL0     H72567   5.007   5.367   1.540 -1.8750  0.3225  0.2167
  538MOL0     H72568   5.022   5.233   1.631 -3.3218  0.7513 -1.3383
  538MOL0     H72569   4.836   5.364   1.739 -0.7311  2.4130  1.5685
  538MOL0     H72570   4.970   5.370   1.843 -0.8005 -2.3776 -0.4230
  538MOL0     H72571   5.013   5.612   1.754  0.4401 -0.4979 -1.7109
  538MOL0     H72572   4.913   5.561   1.617  1.9145  0.8961 -0.2547
  538MOL0     H72573   4.756   5.696   1.772 -1.1091 -0.1634 -0.1834
  538MOL0     H72574   4.713   5.537   1.771 -0.8474  1.3466 -1.5823
  538MOL0     H72575   4.842   5.490   1.992  2.0455  0.5459  1.3030
  538MOL0     H72576   4.891   5.653   2.007  0.0172  0.9384 -1.0822
  538MOL0     H72577   4.659   5.729   1.989  1.8388 -0.2477  1.0451
  538MOL0     H72578   4.604   5.563   1.982  0.9802 -0.0466 -1.4651
  538MOL0     H72579   4.780   5.693   2.206 -0.7687  0.7859  1.2292
  538MOL0     H72580   4.735   5.526   2.213 -0.7097  1.7239  2.5545
  538MOL0     H72581   4.557   5.864   2.167  0.7987 -0.6879 -0.8924
  538MOL0     H72582   4.358   5.940   2.452 -1.5447  0.4208  1.0411
  538MOL0     H72583   4.336   5.968   2.273 -2.6359  0.2266 -0.1342
  538MOL0     H72584   4.170   5.751   2.420 -3.4014  0.4086 -1.1511
  538MOL0     H72585   4.128   5.869   2.294 -1.0835 -1.2633 -0.1642
  538MOL0     H72586   4.146   6.047   2.480 -0.3510  0.0845 -0.5504
  538MOL0     H72587   4.146   5.906   2.590  3.8530 -3.5987 -2.4403
  538MOL0     H72588   3.925   5.968   2.567 -1.2551 -3.1102  1.5968
  538MOL0     H72589   3.922   5.830   2.465  0.4632  0.2707  2.3758
  538MOL0     H72590   3.841   6.159   2.176 -0.5662  0.3561 -3.1515
  538MOL0     H72591   3.562   6.340   2.110 -1.2351  0.7247 -1.5343
  538MOL0     H72592   3.704   6.265   2.034  0.5355 -4.5958  0.4342
  538MOL0     H72593   3.550   6.198   2.001  3.4036 -2.5376 -1.0412
  538MOL0     H72594   3.085   5.909   2.351  0.3431  0.0227  1.7532
  538MOL0     H72595   2.857   5.977   2.349  0.3842  0.6129 -2.5333
  538MOL0     H72596   2.760   6.360   2.554 -0.3025 -0.7192  0.4852
  538MOL0     H72597   2.693   6.400   2.393 -2.3394 -2.2123 -1.0457
  538MOL0     H72598   2.561   6.154   2.515  2.4512 -0.4062 -0.9778
  538MOL0     H72599   2.511   6.310   2.583 -0.0684  2.0111 -1.3941
  538MOL0     H72600   2.383   6.209   2.396  0.9270 -1.0788  0.6358
  538MOL0     H72601   2.522   6.257   2.284 -0.0956  1.0899 -0.2547
  538MOL0     H72602   2.350   6.452   2.437 -0.2649  1.6583 -0.3870
  538MOL0     H72603   2.488   6.485   2.339 -1.9351  0.6827 -3.4765
  538MOL0     H72604   2.232   6.344   2.236  1.7145 -2.3515 -2.0114
  538MOL0     H72605   2.375   6.379   2.145  0.5032  1.8380 -0.8025
  538MOL0     H72606   2.164   6.545   2.140  0.3211  0.2216  0.2544
  538MOL0     H72607   2.247   6.613   2.281 -2.8338  0.3572 -0.2554
  538MOL0     H72608   2.358   6.606   2.003 -0.3472  3.0901 -0.8190
  538MOL0     H72609   2.462   6.608   2.149 -1.0708 -0.9109  2.3755
  538MOL0     H72610   2.418   6.838   2.071  0.5250 -0.0712 -0.6034
  538MOL0     H72611   2.323   6.814   2.215 -1.8460  2.4136 -1.3037
  538MOL0     H72612   3.004   6.375   2.441 -0.0877  0.6535 -0.2311
  538MOL0     H72613   3.224   6.313   2.383 -0.1745 -0.2724 -1.0844
  538MOL0     H72614   3.469   5.921   2.391  1.1293 -2.0087 -1.8576
  538MOL0     H72615   3.698   5.895   2.479  3.0792 -1.1417 -0.4188
  538MOL0     H72616   5.311   5.693   1.679 -0.5986 -1.6134  2.3540
  538MOL0     H72617   5.554   5.776   1.652 -1.5462 -0.0655  0.6797
  538MOL0     H72618   5.938   5.900   1.301  0.1335 -0.8230 -0.2885
  538MOL0     H72619   6.141   5.990   1.332 -3.0897  4.0836 -0.2551
  538MOL0     H72620   6.482   6.008   1.524  0.4109 -2.2529 -1.4651
  538MOL0     H72621   6.366   5.940   1.405  1.5700 -1.4214  0.6174
  538MOL0     H72622   6.304   6.219   1.487 -0.3988 -0.5812 -1.5879
  538MOL0     H72623   6.334   6.150   1.326  1.7689 -2.4948 -0.7479
  538MOL0     H72624   6.579   6.148   1.396 -0.1697  0.0762 -0.8504
  538MOL0     H72625   6.554   6.219   1.540 -2.5598 -6.0822 -0.1612
  538MOL0     H72626   6.516   6.360   1.271  1.3561  1.4414 -0.3459
  538MOL0     H72627   6.634   6.414   1.391 -0.5251  1.0271 -0.5841
  538MOL0     H72628   6.282   6.592   1.534  0.5069  0.0295  0.2059
  538MOL0     H72629   6.125   5.883   1.754 -0.2506 -0.8218 -0.3780
  538MOL0     H72630   5.925   5.748   1.701  3.2473  0.0596  1.8012
  539MOL0     O72631   0.670  10.843   5.480  0.0285 -0.3629  0.9140
  539MOL0     C72632   0.583  10.762   5.505 -0.0574  0.8836  0.6190
  539MOL0     O72633   0.598  10.663   5.599 -0.3416  0.1975 -0.1515
  539MOL0     C72634   0.719  10.634   5.638 -0.0404  0.6379 -0.2282
  539MOL0     C72635   0.762  10.651   5.770 -0.4078 -0.0573  0.3381
  539MOL0     C72636   0.891  10.606   5.805  0.0280  0.2385 -0.1902
  539MOL0     C72637   0.987  10.563   5.711 -0.9309 -0.0909  0.4149
  539MOL0     O72638   1.123  10.557   5.755  0.4459 -0.1650 -0.1892
  539MOL0     C72639   1.217  10.459   5.709 -0.8161 -0.7332  0.1070
  539MOL0     C72640   1.163  10.323   5.739 -0.4154  1.2380  0.4273
  539MOL0     C72641   1.150  10.307   5.887 -0.1254  0.3433 -1.1229
  539MOL0     C72642   1.119  10.162   5.921 -0.1322 -0.0001  0.2591
  539MOL0     C72643   1.074  10.149   6.072  0.3768  0.8291  0.4235
  539MOL0     C72644   0.985  10.029   6.088  0.0721 -0.8307 -0.3428
  539MOL0     C72645   0.906  10.023   6.228 -0.2933 -0.3014 -0.8057
  539MOL0     C72646   0.857   9.879   6.250 -0.0301 -0.7124 -0.4857
  539MOL0     N72647   0.817   9.867   6.394  0.0457  0.4766  0.4714
  539MOL0     C72648   0.706   9.928   6.441 -0.3531  0.1473  0.1773
  539MOL0     C72649   0.684   9.875   6.561  0.7443 -0.6922 -0.5570
  539MOL0     C72650   0.562   9.902   6.631 -0.0777  0.2033 -0.3333
  539MOL0     C72651   0.499   9.776   6.687 -0.7992 -0.2796 -0.0962
  539MOL0     C72652   0.433   9.690   6.580  0.0096  0.3349 -0.1215
  539MOL0     C72653   0.304   9.759   6.525 -0.1314 -0.0977  0.6130
  539MOL0     O72654   0.206   9.800   6.626 -0.1090  0.8110 -0.0495
  539MOL0     C72655   0.082   9.830   6.590 -0.9687 -0.4067  0.7389
  539MOL0     C72656  -0.008   9.870   6.679  0.3622 -1.2249 -0.1835
  539MOL0     C72657  -0.141   9.901   6.651 -0.1461 -0.7474 -0.2994
  539MOL0     C72658  -0.233   9.920   6.768  0.8989 -0.3294 -0.9565
  539MOL0     C72659  -0.188   9.913   6.519 -0.0664  0.1063 -0.0531
  539MOL0     C72660  -0.322   9.944   6.478 -0.2066  0.2854  0.5572
  539MOL0     O72661  -0.353   9.886   6.361  0.3124 -0.6138  0.0772
  539MOL0     C72662  -0.480   9.913   6.317  0.0638  0.0001  0.0416
  539MOL0     C72663  -0.605   9.883   6.375  0.6318  0.4799 -0.1427
  539MOL0     C72664  -0.720   9.937   6.318 -0.2364 -0.0500  0.6056
  539MOL0     C72665  -0.717  10.001   6.190 -0.1403  1.0102 -0.4637
  539MOL0     O72666  -0.828  10.059   6.132  0.0142  0.1510 -0.0754
  539MOL0     C72667  -0.960  10.031   6.189 -0.2881  0.5284 -0.9777
  539MOL0     C72668  -1.059  10.110   6.112  0.3855  0.5102 -1.3077
  539MOL0     C72669  -1.201  10.117   6.162 -0.0623  1.0376  0.2825
  539MOL0     C72670  -1.288  10.198   6.059 -0.3040 -1.0932  0.7142
  539MOL0     C72671  -1.439  10.187   6.075  0.3067  0.5063 -0.2196
  539MOL0     C72672  -1.478  10.215   6.225 -0.1435  0.5526 -1.3308
  539MOL0     C72673  -1.630  10.197   6.250 -0.7586 -0.1116  0.3678
  539MOL0     C72674  -1.678  10.246   6.382 -0.5016 -0.8095 -0.1639
  539MOL0    Cl72675  -1.676  10.102   6.497 -0.2934 -0.0660 -0.0535
  539MOL0     C72676  -0.598  10.008   6.116  0.1520  0.5669 -1.1299
  539MOL0     C72677  -0.487   9.974   6.186 -0.3734 -0.3080 -0.8546
  539MOL0     O72678  -0.376  10.037   6.534  0.7623  0.1956  0.2582
  539MOL0     C72679  -0.094   9.873   6.420  0.4617  0.3553 -0.3106
  539MOL0     C72680   0.034   9.829   6.456  0.8853 -0.2696  0.2877
  539MOL0     N72681   0.787   9.780   6.584 -0.0738 -0.7080  0.0950
  539MOL0     N72682   0.861   9.777   6.482 -0.6601  0.3880 -0.1127
  539MOL0     C72683   0.953  10.568   5.576 -1.0855 -0.2238  0.0565
  539MOL0     C72684   0.820  10.597   5.546  0.2230  0.1130  1.2220
  539MOL0     C72685   0.469  10.748   5.411  0.1166 -1.0140  0.3216
  539MOL0     C72686   0.445  10.845   5.317 -0.1908 -0.1187  0.2215
  539MOL0     C72687   0.349  10.827   5.220 -0.0041  0.5265  0.3016
  539MOL0     C72688   0.256  10.732   5.241  0.4519  1.3884 -0.2791
  539MOL0     O72689   0.153  10.723   5.144 -0.2464  0.0744  0.0399
  539MOL0     C72690   0.040  10.643   5.175 -0.5501  0.7966  0.8916
  539MOL0     C72691  -0.065  10.652   5.059 -1.1367  0.9872 -0.6123
  539MOL0     C72692  -0.125  10.792   5.054  0.0721  0.6531  0.1761
  539MOL0     C72693  -0.210  10.828   5.173 -0.7703  0.6467  0.5228
  539MOL0     C72694  -0.320  10.730   5.183 -0.2511 -0.3833 -0.2602
  539MOL0     C72695  -0.413  10.652   5.180 -1.4570  0.3793 -1.0537
  539MOL0     C72696   0.265  10.635   5.342  0.0496  0.1392  0.4472
  539MOL0     C72697   0.379  10.645   5.424  0.8518  0.6290  0.5276
  539MOL0     H72698   0.701  10.681   5.855  0.6038 -1.6818  1.6813
  539MOL0     H72699   0.912  10.606   5.912 -0.2871 -2.8762 -0.0290
  539MOL0     H72700   1.225  10.478   5.601  0.7265  3.4807  0.7691
  539MOL0     H72701   1.314  10.485   5.752 -0.4130 -1.6893 -0.2089
  539MOL0     H72702   1.065  10.313   5.691 -0.2724 -0.4403  0.4124
  539MOL0     H72703   1.240  10.259   5.694 -0.4707  2.1839 -1.0990
  539MOL0     H72704   1.243  10.335   5.938  1.2310 -0.7575 -2.8520
  539MOL0     H72705   1.067  10.372   5.917  0.5658  0.9943 -0.5886
  539MOL0     H72706   1.035  10.122   5.864  1.8004 -5.5042  0.7396
  539MOL0     H72707   1.210  10.104   5.910  0.0178 -0.2090  2.1596
  539MOL0     H72708   1.168  10.139   6.126  2.9036  0.7476 -3.5774
  539MOL0     H72709   1.016  10.240   6.089 -0.1886  1.2114 -2.9038
  539MOL0     H72710   0.915  10.035   6.005 -0.2859  0.9077  0.0379
  539MOL0     H72711   1.043   9.938   6.072  0.0588 -0.6971 -1.1616
  539MOL0     H72712   0.990  10.039   6.297  2.1050  1.6136 -3.8876
  539MOL0     H72713   0.836  10.107   6.235  3.1081  2.6125  2.4979
  539MOL0     H72714   0.942   9.812   6.233 -1.4921 -3.0834  1.0071
  539MOL0     H72715   0.777   9.862   6.177  0.3968 -1.4131 -0.8003
  539MOL0     H72716   0.631   9.979   6.381 -1.6190 -4.4645 -2.6921
  539MOL0     H72717   0.586   9.971   6.712 -0.7195 -0.4927  0.4631
  539MOL0     H72718   0.504   9.972   6.569 -0.1771  0.9305  0.5546
  539MOL0     H72719   0.441   9.812   6.772  2.1212 -0.4059  2.1392
  539MOL0     H72720   0.583   9.724   6.735  1.2283  2.5348 -0.3755
  539MOL0     H72721   0.399   9.591   6.610 -1.2999  0.6074 -0.6256
  539MOL0     H72722   0.501   9.677   6.496 -1.0553 -4.5002 -0.5061
  539MOL0     H72723   0.258   9.685   6.459 -0.5511 -2.2367  3.1646
  539MOL0     H72724   0.343   9.838   6.460 -0.8160  1.1848  1.7176
  539MOL0     H72725   0.017   9.865   6.785 -2.7286  0.7610  0.7864
  539MOL0     H72726  -0.189   9.888   6.863 -3.4609 -0.7679  1.1295
  539MOL0     H72727  -0.255  10.026   6.778  1.4240 -0.2397 -0.7012
  539MOL0     H72728  -0.326   9.865   6.752  0.8319 -0.6405  0.4140
  539MOL0     H72729  -0.615   9.843   6.476 -2.6185  0.6903 -0.2877
  539MOL0     H72730  -0.819   9.914   6.357 -1.1168 -1.7557 -2.3096
  539MOL0     H72731  -0.979   9.924   6.175 -2.1147  0.5811  0.6543
  539MOL0     H72732  -0.971  10.050   6.296  0.9015 -2.8614 -0.1216
  539MOL0     H72733  -1.017  10.211   6.103  0.1069  0.7256 -0.3604
  539MOL0     H72734  -1.070  10.063   6.014 -0.4512  2.0020 -1.9625
  539MOL0     H72735  -1.199  10.153   6.266  1.7710 -1.5514  1.2615
  539MOL0     H72736  -1.240  10.015   6.159 -2.4714  1.9024  0.0111
  539MOL0     H72737  -1.260  10.304   6.056  1.2609 -1.4724 -2.5971
  539MOL0     H72738  -1.267  10.165   5.957  1.6487 -3.9495  1.9193
  539MOL0     H72739  -1.471  10.083   6.061  1.7111  0.1474 -0.8897
  539MOL0     H72740  -1.493  10.251   6.005 -2.1155 -0.3964  0.7214
  539MOL0     H72741  -1.429  10.151   6.298 -3.3199 -2.4851 -1.6311
  539MOL0     H72742  -1.441  10.314   6.254  2.5801 -0.6447 -0.3746
  539MOL0     H72743  -1.660  10.092   6.247 -1.4175  0.0191  1.4947
  539MOL0     H72744  -1.679  10.250   6.169  3.1597 -0.4962 -2.5260
  539MOL0     H72745  -1.770  10.297   6.356  0.3317  0.1939 -1.2560
  539MOL0     H72746  -1.603  10.319   6.416  2.4405 -3.0593 -1.3452
  539MOL0     H72747  -0.597  10.056   6.018 -1.1633  2.9394 -0.0719
  539MOL0     H72748  -0.400   9.988   6.123 -0.5638  2.6442 -0.5929
  539MOL0     H72749  -0.118   9.864   6.315  0.6186 -1.0574 -0.2418
  539MOL0     H72750   0.101   9.806   6.373  1.1432  0.8333  0.1733
  539MOL0     H72751   1.020  10.558   5.492 -1.8710 -2.8485 -0.3586
  539MOL0     H72752   0.799  10.608   5.440 -0.2844 -1.0789  1.1863
  539MOL0     H72753   0.502  10.935   5.299  0.1283 -0.7066 -1.9954
  539MOL0     H72754   0.337  10.893   5.135 -2.3714 -2.4789 -1.9551
  539MOL0     H72755   0.074  10.540   5.192 -0.5865  1.2316  4.2928
  539MOL0     H72756  -0.003  10.687   5.266 -0.1462  1.2557  0.8610
  539MOL0     H72757  -0.148  10.583   5.076 -1.3948  0.9930 -1.7565
  539MOL0     H72758  -0.030  10.632   4.957 -2.0703  0.5095 -0.8545
  539MOL0     H72759  -0.185  10.789   4.963 -0.7294 -2.0459  0.7314
  539MOL0     H72760  -0.048  10.870   5.045  0.6736  0.2274  1.4840
  539MOL0     H72761  -0.254  10.927   5.156  0.8885  1.4550  0.7448
  539MOL0     H72762  -0.161  10.829   5.270  0.4312 -0.0111 -0.0595
  539MOL0     H72763  -0.492  10.580   5.181 -0.7024 -0.4718 -0.9156
  539MOL0     H72764   0.192  10.558   5.363  2.1343 -1.8924  0.5730
  539MOL0     H72765   0.405  10.567   5.495  1.9716 -0.9283 -1.5128
  540MOL0     O72766   3.247   4.791   5.672 -0.3218  0.2534 -0.4019
  540MOL0     C72767   3.295   4.686   5.625 -0.5795 -0.1936  0.6873
  540MOL0     O72768   3.224   4.579   5.570 -0.0365 -0.3476 -0.0658
  540MOL0     C72769   3.084   4.590   5.565  0.2512 -0.0699  0.1032
  540MOL0     C72770   3.019   4.463   5.560 -0.2578  1.1354  0.6923
  540MOL0     C72771   2.876   4.438   5.566 -0.2782 -0.6149  0.1496
  540MOL0     C72772   2.796   4.551   5.569  0.2858 -0.5392 -0.3823
  540MOL0     O72773   2.662   4.528   5.580  0.0121  0.1886 -0.6657
  540MOL0     C72774   2.565   4.620   5.530 -0.4661  0.1264 -0.6616
  540MOL0     C72775   2.433   4.549   5.510  0.0719 -0.2948 -0.0802
  540MOL0     C72776   2.368   4.521   5.643  1.3687 -0.2772 -0.3495
  540MOL0     C72777   2.302   4.384   5.636 -0.2866 -1.1079 -0.5158
  540MOL0     C72778   2.211   4.362   5.752 -0.0512  0.4679 -0.6175
  540MOL0     C72779   2.113   4.241   5.736 -0.9962 -0.1993  0.6878
  540MOL0     C72780   1.997   4.251   5.835  0.2759  0.4314 -0.5670
  540MOL0     C72781   1.884   4.143   5.822 -0.6454  0.2141  0.3826
  540MOL0     N72782   1.927   4.006   5.860 -0.2203 -0.2128  0.9133
  540MOL0     C72783   1.928   3.942   5.982  0.1393 -0.5712  0.6342
  540MOL0     C72784   1.983   3.823   5.962 -0.2621  0.6870 -0.0654
  540MOL0     C72785   1.998   3.728   6.071 -0.0912  0.3710 -0.5492
  540MOL0     C72786   1.869   3.718   6.160  0.3073  0.2979 -0.0883
  540MOL0     C72787   1.770   3.611   6.128  0.4773  0.5144  0.0534
  540MOL0     C72788   1.731   3.609   5.979  0.1362 -0.3514  0.3763
  540MOL0     O72789   1.654   3.731   5.957  0.6364  0.0838 -0.7914
  540MOL0     C72790   1.656   3.804   5.833 -0.6475  0.2624 -0.0418
  540MOL0     C72791   1.571   3.912   5.823 -0.3882  0.0527 -0.0929
  540MOL0     C72792   1.533   3.977   5.700 -0.8904 -0.5396  0.4729
  540MOL0     C72793   1.435   4.090   5.699  0.5396 -0.9822 -0.1042
  540MOL0     C72794   1.585   3.929   5.577 -0.6893  0.1119 -0.4033
  540MOL0     C72795   1.547   3.982   5.444 -0.8362  0.3613 -0.3522
  540MOL0     O72796   1.534   4.114   5.414  0.6645  0.2708 -0.1185
  540MOL0     C72797   1.483   4.147   5.287 -0.3005 -0.2279  0.1648
  540MOL0     C72798   1.352   4.161   5.258  0.1959 -0.6535 -0.0865
  540MOL0     C72799   1.307   4.190   5.133 -1.3295 -0.8672  0.2630
  540MOL0     C72800   1.395   4.214   5.026 -1.3056  0.1908  0.7116
  540MOL0     O72801   1.349   4.245   4.896 -0.6207  0.4839 -0.6273
  540MOL0     C72802   1.217   4.234   4.847  0.1205 -0.1170 -0.0264
  540MOL0     C72803   1.217   4.303   4.710  0.3557 -0.3167  0.3743
  540MOL0     C72804   1.105   4.287   4.612 -0.7346  0.9644  1.0438
  540MOL0     C72805   1.003   4.391   4.631 -0.4257 -0.0167 -0.5457
  540MOL0     C72806   0.861   4.362   4.577 -0.3692 -0.0259 -0.5351
  540MOL0     C72807   0.748   4.449   4.650  0.4386 -0.0219 -0.3272
  540MOL0     C72808   0.609   4.411   4.603  1.0505 -0.4406 -0.1823
  540MOL0     C72809   0.505   4.445   4.717 -0.2184  0.7681 -0.1265
  540MOL0    Cl72810   0.333   4.449   4.637 -0.0935 -0.0502 -0.5618
  540MOL0     C72811   1.538   4.216   5.055  0.9521  0.1756  0.2321
  540MOL0     C72812   1.583   4.170   5.180 -0.4456  0.1888 -0.1770
  540MOL0     O72813   1.524   3.891   5.369 -0.5699 -0.0244  0.3366
  540MOL0     C72814   1.691   3.830   5.590  0.4461  0.5753  0.6447
  540MOL0     C72815   1.712   3.763   5.710 -0.8409  0.1758  0.3464
  540MOL0     N72816   2.024   3.816   5.829  0.3114 -0.4979  0.3088
  540MOL0     N72817   1.983   3.927   5.766 -0.5798  0.1630  0.7236
  540MOL0     C72818   2.853   4.682   5.562  0.5400 -0.6395 -0.0308
  540MOL0     C72819   2.991   4.703   5.553 -0.2454  0.0961 -0.0164
  540MOL0     C72820   3.441   4.661   5.624  0.0875 -0.9035  0.2444
  540MOL0     C72821   3.494   4.534   5.598  0.0873 -0.1308  0.2893
  540MOL0     C72822   3.637   4.517   5.585  0.3590 -1.3783 -0.5005
  540MOL0     C72823   3.719   4.634   5.581  0.0249  0.5021 -0.4235
  540MOL0     O72824   3.854   4.620   5.585  0.0482 -0.4593  0.2408
  540MOL0     C72825   3.915   4.670   5.463 -0.1302 -0.3924 -0.7200
  540MOL0     C72826   3.934   4.568   5.357  0.6164 -0.4584 -0.2051
  540MOL0     C72827   3.951   4.628   5.221  0.5098  0.2725 -0.3065
  540MOL0     C72828   3.989   4.531   5.111  0.3346 -0.0290 -0.0044
  540MOL0     C72829   3.993   4.599   4.977 -0.4244  0.9925  0.2767
  540MOL0     C72830   3.991   4.661   4.875  0.6285 -0.0884  0.5925
  540MOL0     C72831   3.666   4.757   5.604 -0.2908  0.4081  1.0622
  540MOL0     C72832   3.526   4.772   5.629 -0.0083  0.6398 -0.0768
  540MOL0     H72833   3.089   4.380   5.561  0.8116  1.6123 -4.6044
  540MOL0     H72834   2.835   4.338   5.572  0.2043 -0.8985 -1.0394
  540MOL0     H72835   2.548   4.701   5.601  1.3035 -0.0754  0.0139
  540MOL0     H72836   2.590   4.665   5.433 -0.1364  1.7992  0.1498
  540MOL0     H72837   2.366   4.603   5.441 -0.2929 -1.2819 -0.5202
  540MOL0     H72838   2.460   4.458   5.457 -2.8420 -1.0577 -0.4426
  540MOL0     H72839   2.447   4.529   5.718  2.6431  0.5840 -1.7215
  540MOL0     H72840   2.293   4.596   5.668  3.3792  1.6151  0.2833
  540MOL0     H72841   2.240   4.382   5.546 -2.5133  2.3953  0.7800
  540MOL0     H72842   2.380   4.308   5.623 -0.6244 -1.1895 -2.4995
  540MOL0     H72843   2.270   4.368   5.844  1.0004 -1.6654 -1.0841
  540MOL0     H72844   2.146   4.450   5.754 -2.1557 -0.9987  2.2944
  540MOL0     H72845   2.067   4.222   5.638 -2.4386 -0.7318  1.4358
  540MOL0     H72846   2.169   4.149   5.755  1.0271  1.0437  0.9881
  540MOL0     H72847   2.038   4.258   5.936  5.0097  1.6560 -2.3323
  540MOL0     H72848   1.943   4.346   5.831 -2.8238 -1.1406  0.3040
  540MOL0     H72849   1.857   4.125   5.718 -0.3666 -3.2399  0.7702
  540MOL0     H72850   1.797   4.174   5.881 -3.2783 -1.3686 -2.3655
  540MOL0     H72851   1.889   3.983   6.074 -1.6510  1.3517 -0.8726
  540MOL0     H72852   2.021   3.632   6.023 -0.4279  1.3360 -2.7873
  540MOL0     H72853   2.073   3.757   6.145 -1.9574 -1.4390  2.2305
  540MOL0     H72854   1.820   3.816   6.151  3.4858  2.0081 -0.3190
  540MOL0     H72855   1.904   3.724   6.264  1.3094  0.3276 -0.4178
  540MOL0     H72856   1.685   3.644   6.189 -0.0617 -0.9442  0.1242
  540MOL0     H72857   1.805   3.512   6.157 -1.2449 -0.2829 -0.4676
  540MOL0     H72858   1.667   3.524   5.955 -0.8720  1.0132 -2.2525
  540MOL0     H72859   1.812   3.599   5.906 -0.6020  3.1486 -1.1375
  540MOL0     H72860   1.510   3.923   5.912 -3.3595 -1.9234 -1.7205
  540MOL0     H72861   1.448   4.138   5.797 -0.7325 -0.8442  0.0199
  540MOL0     H72862   1.453   4.169   5.625  1.1631 -0.3313  0.7230
  540MOL0     H72863   1.337   4.042   5.696 -1.4029  2.5067  1.4174
  540MOL0     H72864   1.284   4.136   5.339 -0.7311  0.9819 -0.3086
  540MOL0     H72865   1.200   4.178   5.122 -1.2919 -0.4194 -0.7175
  540MOL0     H72866   1.187   4.130   4.837  1.7907 -0.4978 -1.4218
  540MOL0     H72867   1.145   4.289   4.909 -3.4037 -1.6606 -2.3784
  540MOL0     H72868   1.223   4.410   4.733 -2.2097 -0.1017  0.3326
  540MOL0     H72869   1.304   4.277   4.649  0.6988  1.2229  0.1691
  540MOL0     H72870   1.062   4.187   4.617 -0.6872  0.7416 -1.5130
  540MOL0     H72871   1.151   4.295   4.513 -1.2924 -1.1967  0.5669
  540MOL0     H72872   0.982   4.401   4.738 -0.7981  0.3089 -0.6466
  540MOL0     H72873   1.038   4.489   4.596 -1.9962  0.5100 -0.7096
  540MOL0     H72874   0.840   4.255   4.582 -0.1890 -0.0120  0.9147
  540MOL0     H72875   0.862   4.388   4.471 -1.0299 -2.0300 -1.0791
  540MOL0     H72876   0.752   4.435   4.758 -0.9088 -1.1603 -0.3890
  540MOL0     H72877   0.771   4.556   4.642  1.5157  0.0767  2.9653
  540MOL0     H72878   0.605   4.307   4.571  0.2160 -1.7875  3.7063
  540MOL0     H72879   0.583   4.486   4.528 -1.0851 -0.0278  0.8960
  540MOL0     H72880   0.525   4.539   4.767  1.0361 -0.4103  1.6981
  540MOL0     H72881   0.512   4.361   4.786 -1.4019  0.1924 -0.6641
  540MOL0     H72882   1.597   4.257   4.973 -0.1498  4.1151  1.1690
  540MOL0     H72883   1.689   4.158   5.198  0.1940  2.4279 -2.0233
  540MOL0     H72884   1.746   3.799   5.502 -0.0827  0.8514  0.2094
  540MOL0     H72885   1.795   3.693   5.709 -0.0670  1.0472  1.6578
  540MOL0     H72886   2.781   4.762   5.571  0.6081 -0.5311 -0.4560
  540MOL0     H72887   3.031   4.803   5.542  1.1368 -0.1405  2.2173
  540MOL0     H72888   3.431   4.449   5.575 -0.1756  0.2900 -0.6177
  540MOL0     H72889   3.691   4.424   5.585  0.2105 -1.5502  2.1639
  540MOL0     H72890   3.866   4.745   5.401  0.4202  0.0751 -0.5964
  540MOL0     H72891   4.013   4.705   5.494 -0.5354  0.6611 -0.5945
  540MOL0     H72892   3.847   4.502   5.359 -0.6863  1.1906  1.4991
  540MOL0     H72893   4.029   4.519   5.379  1.3217 -0.1372 -2.2790
  540MOL0     H72894   4.011   4.718   5.231 -2.2197  2.3271 -1.0989
  540MOL0     H72895   3.855   4.664   5.183  0.8558  1.7073  0.1319
  540MOL0     H72896   3.911   4.455   5.113 -1.0830  1.3878 -0.1127
  540MOL0     H72897   4.083   4.478   5.129  0.8767  0.5215 -1.0735
  540MOL0     H72898   3.978   4.717   4.784  2.9027  1.8942  1.3994
  540MOL0     H72899   3.732   4.842   5.596  0.5392 -0.2010  1.2084
  540MOL0     H72900   3.494   4.875   5.641  1.8240  1.3205 -0.5724
  541MOL0     O72901   2.811   5.093   7.160  0.2453  0.5551  0.0144
  541MOL0     C72902   2.906   5.036   7.098  0.3925  0.2258  0.1937
  541MOL0     O72903   2.888   4.940   6.997 -0.0347 -0.7779 -0.8184
  541MOL0     C72904   2.765   4.887   6.978 -0.1880 -0.5010  0.2399
  541MOL0     C72905   2.712   4.787   7.065 -0.4809 -0.1043 -0.1491
  541MOL0     C72906   2.575   4.744   7.052 -0.7012  0.5919 -0.0591
  541MOL0     C72907   2.499   4.807   6.949 -0.0771 -0.6582 -0.7824
  541MOL0     O72908   2.373   4.749   6.938 -0.1959  0.5576 -0.2045
  541MOL0     C72909   2.283   4.808   6.849  0.2081  0.5425  0.5464
  541MOL0     C72910   2.147   4.751   6.902 -0.6748  0.2102 -0.0564
  541MOL0     C72911   2.130   4.805   7.047 -0.6709 -1.0141 -0.0791
  541MOL0     C72912   1.994   4.772   7.118  0.0875 -0.4443  0.0415
  541MOL0     C72913   1.952   4.635   7.073  0.1783  0.0500 -0.2428
  541MOL0     C72914   1.841   4.604   7.175  0.3994 -0.5539 -0.7625
  541MOL0     C72915   1.791   4.457   7.154  0.0084 -0.2223  0.5264
  541MOL0     C72916   1.662   4.428   7.242  0.0647  0.2166  1.1630
  541MOL0     N72917   1.581   4.324   7.184 -0.1139  0.0201 -0.0408
  541MOL0     C72918   1.563   4.213   7.255  0.0237  0.8727 -0.0903
  541MOL0     C72919   1.463   4.149   7.202  0.5938  0.5158  0.0769
  541MOL0     C72920   1.398   4.026   7.258  0.2102 -0.0172  0.0660
  541MOL0     C72921   1.482   3.897   7.216 -0.3739 -0.4542  1.1370
  541MOL0     C72922   1.462   3.784   7.327 -0.1164 -0.9342  0.6747
  541MOL0     C72923   1.333   3.698   7.313 -0.2522  0.0475  0.0881
  541MOL0     O72924   1.217   3.738   7.386  0.1525 -0.5061  0.1722
  541MOL0     C72925   1.103   3.656   7.374  0.3231 -0.8988  0.6874
  541MOL0     C72926   1.019   3.658   7.482  0.2624 -0.5220  0.3173
  541MOL0     C72927   0.893   3.588   7.479 -0.2049 -0.1824  0.7749
  541MOL0     C72928   0.816   3.616   7.595  0.0915 -0.6049  1.1518
  541MOL0     C72929   0.858   3.511   7.370 -0.4421  0.3144 -1.2127
  541MOL0     C72930   0.725   3.443   7.352 -0.6910 -0.2200 -0.0628
  541MOL0     O72931   0.710   3.382   7.231 -0.2980  0.2490  0.1356
  541MOL0     C72932   0.616   3.291   7.200 -0.1204 -0.1492 -0.6351
  541MOL0     C72933   0.485   3.295   7.228  0.7075  0.6152 -0.1059
  541MOL0     C72934   0.394   3.209   7.163 -0.4899 -0.7929  0.0991
  541MOL0     C72935   0.442   3.096   7.093 -0.4896 -0.2701 -0.8991
  541MOL0     O72936   0.350   3.003   7.059 -0.0445  0.4459 -0.3985
  541MOL0     C72937   0.399   2.881   6.998  0.5643  0.4643  1.1390
  541MOL0     C72938   0.269   2.793   6.983 -0.8433  0.2317 -0.3269
  541MOL0     C72939   0.161   2.852   6.882 -0.2825  0.5389 -0.6104
  541MOL0     C72940   0.028   2.774   6.896  0.4671  0.8950 -0.2616
  541MOL0     C72941  -0.067   2.832   6.994  0.9150 -0.6785  0.2277
  541MOL0     C72942  -0.180   2.742   7.027  0.0171 -0.2765  0.8058
  541MOL0     C72943  -0.252   2.680   6.907  0.0843 -0.1639 -0.1537
  541MOL0     C72944  -0.394   2.620   6.951 -0.1430  0.4677  0.0631
  541MOL0    Cl72945  -0.489   2.749   7.013  0.1267 -0.0774 -0.1300
  541MOL0     C72946   0.582   3.095   7.061 -0.7549  0.5384 -0.3250
  541MOL0     C72947   0.666   3.193   7.118 -0.4005  0.6038  0.4976
  541MOL0     O72948   0.641   3.449   7.445  0.2754  0.1049 -0.2779
  541MOL0     C72949   0.952   3.508   7.260  0.4881 -0.7009 -0.4584
  541MOL0     C72950   1.070   3.575   7.266 -0.5581 -0.0030 -0.1517
  541MOL0     N72951   1.442   4.215   7.079  1.1033 -0.5220  0.2030
  541MOL0     N72952   1.513   4.315   7.065 -0.2723 -0.0428  0.1093
  541MOL0     C72953   2.551   4.914   6.867 -0.3166  0.3395 -0.9375
  541MOL0     C72954   2.685   4.952   6.882 -0.0438 -0.1129  0.1697
  541MOL0     C72955   3.044   5.076   7.133 -0.3442 -0.2485  0.6560
  541MOL0     C72956   3.153   5.029   7.059  0.2298  0.4182  0.0529
  541MOL0     C72957   3.287   5.070   7.084  0.3890  0.0496  0.4616
  541MOL0     C72958   3.317   5.156   7.188  0.6511 -0.0787  0.0449
  541MOL0     O72959   3.447   5.193   7.228  0.8571 -0.3934  0.4941
  541MOL0     C72960   3.561   5.129   7.166 -0.1398 -0.4137  0.7590
  541MOL0     C72961   3.575   4.979   7.196 -0.2853  0.1472 -0.4805
  541MOL0     C72962   3.554   4.953   7.349 -0.1440 -0.8300  0.3998
  541MOL0     C72963   3.546   4.812   7.383 -0.3513  1.3444  0.0922
  541MOL0     C72964   3.675   4.745   7.342 -0.2921  0.0231 -0.5426
  541MOL0     C72965   3.774   4.679   7.335 -0.1957  0.7776  0.5746
  541MOL0     C72966   3.208   5.209   7.256  0.3351  1.2350 -0.5032
  541MOL0     C72967   3.073   5.168   7.228 -0.2833  0.5490 -0.4283
  541MOL0     H72968   2.766   4.740   7.147 -0.3366 -0.0018 -0.1862
  541MOL0     H72969   2.541   4.662   7.114  2.4946 -0.0050  1.0811
  541MOL0     H72970   2.272   4.917   6.856  0.2832  0.7195 -1.4337
  541MOL0     H72971   2.292   4.783   6.743 -0.2882  0.0779  0.6106
  541MOL0     H72972   2.060   4.787   6.848 -0.3233 -1.9883 -2.2941
  541MOL0     H72973   2.141   4.642   6.893  0.0378  0.2654 -1.3999
  541MOL0     H72974   2.206   4.774   7.119 -0.6736 -0.0130  0.3794
  541MOL0     H72975   2.153   4.912   7.045  0.9674 -1.3003  1.4172
  541MOL0     H72976   2.031   4.773   7.220  0.8863  0.1454 -0.2417
  541MOL0     H72977   1.913   4.843   7.096 -0.3681 -1.6675 -2.6770
  541MOL0     H72978   1.922   4.618   6.969  0.6634 -1.7246 -0.1229
  541MOL0     H72979   2.034   4.564   7.085  0.4410 -0.2882 -3.2708
  541MOL0     H72980   1.868   4.619   7.280 -1.4495  0.5414 -0.3936
  541MOL0     H72981   1.752   4.667   7.160 -0.9381 -1.2521  3.0974
  541MOL0     H72982   1.763   4.451   7.048 -1.1151 -2.8893  0.8938
  541MOL0     H72983   1.870   4.384   7.176 -0.2019 -1.2416 -1.7882
  541MOL0     H72984   1.591   4.512   7.247  1.0595  1.1265  0.3793
  541MOL0     H72985   1.695   4.404   7.344 -3.7771 -2.0562  2.0947
  541MOL0     H72986   1.603   4.193   7.354 -4.4453  3.8705  2.6964
  541MOL0     H72987   1.401   4.035   7.367 -1.7786  0.3882  0.1191
  541MOL0     H72988   1.293   4.013   7.228  1.1723 -0.2048 -3.6956
  541MOL0     H72989   1.587   3.928   7.212 -0.7658  0.8359  0.0311
  541MOL0     H72990   1.482   3.852   7.116 -0.6003  0.8344  0.5328
  541MOL0     H72991   1.471   3.824   7.429 -0.5923  0.5908  0.1412
  541MOL0     H72992   1.548   3.717   7.322  1.7831  1.4618 -3.1328
  541MOL0     H72993   1.363   3.595   7.335  1.6686  0.3982 -0.7245
  541MOL0     H72994   1.327   3.691   7.204 -3.9303  1.0365  0.0952
  541MOL0     H72995   1.039   3.716   7.571 -1.9033  1.8581 -0.6367
  541MOL0     H72996   0.765   3.535   7.647  0.8100 -1.2615  0.8474
  541MOL0     H72997   0.869   3.675   7.671 -0.6789  1.5066  0.1434
  541MOL0     H72998   0.741   3.689   7.562  0.2985 -0.7398  0.3799
  541MOL0     H72999   0.449   3.361   7.307 -0.0349  0.2667 -0.1431
  541MOL0     H73000   0.287   3.208   7.181 -0.3992  2.4215  1.4694
  541MOL0     H73001   0.433   2.893   6.895 -1.5038  3.3209  0.6752
  541MOL0     H73002   0.471   2.828   7.061  0.1542 -0.6689  0.6944
  541MOL0     H73003   0.305   2.696   6.947 -1.2608 -0.2719  0.5574
  541MOL0     H73004   0.229   2.774   7.083 -1.2179  0.7608 -0.3750
  541MOL0     H73005   0.202   2.842   6.781 -1.6622 -3.5108 -0.9437
  541MOL0     H73006   0.143   2.957   6.905 -0.1721  0.4279 -0.0107
  541MOL0     H73007  -0.027   2.767   6.802 -1.7132 -2.2510  1.0515
  541MOL0     H73008   0.042   2.672   6.935  0.3707  0.8793 -0.2693
  541MOL0     H73009  -0.118   2.920   6.955  0.0676 -1.5170 -0.5888
  541MOL0     H73010  -0.014   2.860   7.086  1.0083 -2.7501  0.8516
  541MOL0     H73011  -0.150   2.657   7.090 -1.4658 -1.3100  0.1705
  541MOL0     H73012  -0.243   2.796   7.098  1.9144  2.4943  0.5447
  541MOL0     H73013  -0.195   2.597   6.865 -0.7940 -0.8008 -0.1069
  541MOL0     H73014  -0.267   2.763   6.837  1.9896  0.7086  0.4181
  541MOL0     H73015  -0.381   2.542   7.027  0.2675  1.0483  0.5987
  541MOL0     H73016  -0.444   2.576   6.864  0.7356  0.8703 -0.6591
  541MOL0     H73017   0.620   3.019   6.993 -1.1136 -0.0481  0.1133
  541MOL0     H73018   0.771   3.192   7.091 -0.7182  3.1574 -1.2073
  541MOL0     H73019   0.925   3.459   7.167 -1.0553  0.4498 -0.6515
  541MOL0     H73020   1.134   3.575   7.179  0.0342  2.0081  0.2358
  541MOL0     H73021   2.478   4.959   6.802 -2.3167  3.1123  2.8240
  541MOL0     H73022   2.743   5.025   6.826  1.1015 -0.4201  0.9368
  541MOL0     H73023   3.147   4.948   6.988  2.1968  0.7809 -0.5921
  541MOL0     H73024   3.360   5.023   7.018 -0.1898 -0.6023  0.2762
  541MOL0     H73025   3.554   5.157   7.061 -0.1626 -2.6120  0.1253
  541MOL0     H73026   3.646   5.182   7.210 -0.8471 -0.0356  1.6992
  541MOL0     H73027   3.677   4.948   7.171  0.2568 -1.1161  2.7716
  541MOL0     H73028   3.508   4.919   7.134 -0.4592 -0.0102 -0.1455
  541MOL0     H73029   3.465   5.003   7.388 -0.4600 -0.5566 -0.6447
  541MOL0     H73030   3.643   4.990   7.402  0.7775 -2.6542  0.2106
  541MOL0     H73031   3.464   4.767   7.327  1.7675 -0.9258 -1.3749
  541MOL0     H73032   3.532   4.806   7.491  3.2441  2.4858  0.7387
  541MOL0     H73033   3.863   4.625   7.310 -1.9444 -2.8507  1.5064
  541MOL0     H73034   3.235   5.276   7.337  1.3833 -0.3352  0.5068
  541MOL0     H73035   3.000   5.211   7.296  2.4296  1.4270  2.1413
  542MOL0     O73036   1.297   9.562   4.857 -0.0010  0.5232  0.3920
  542MOL0     C73037   1.199   9.634   4.858  0.1363 -0.5293  0.4254
  542MOL0     O73038   1.191   9.744   4.944  0.6033  0.3978 -0.2931
  542MOL0     C73039   1.278   9.786   5.045 -0.3597  0.6171 -0.0367
  542MOL0     C73040   1.296   9.916   5.066  0.3816 -0.3596 -0.2094
  542MOL0     C73041   1.364   9.956   5.182  0.5420  0.3124 -0.3337
  542MOL0     C73042   1.416   9.866   5.277  0.3347  0.4794  0.6047
  542MOL0     O73043   1.471   9.905   5.396  0.4405 -0.6148  0.4604
  542MOL0     C73044   1.422  10.022   5.464  0.6924 -0.8463  0.3411
  542MOL0     C73045   1.488  10.052   5.603 -0.0674  0.0824 -0.2087
  542MOL0     C73046   1.638  10.100   5.581 -0.5901  0.4372  0.3065
  542MOL0     C73047   1.736   9.982   5.579 -0.5980 -0.0942  0.8610
  542MOL0     C73048   1.873  10.020   5.622  0.2861 -0.2045  0.4391
  542MOL0     C73049   1.932  10.135   5.537 -0.7552 -0.1966 -0.0074
  542MOL0     C73050   2.067  10.181   5.599 -0.6941 -0.6262  0.2018
  542MOL0     C73051   2.121  10.303   5.512 -0.3017  0.3105 -0.2713
  542MOL0     N73052   2.226  10.391   5.565 -1.1226 -0.2623 -0.8517
  542MOL0     C73053   2.322  10.355   5.659  0.0210  0.0108  0.4452
  542MOL0     C73054   2.409  10.460   5.679 -0.1843 -0.3459  0.3815
  542MOL0     C73055   2.529  10.473   5.771 -0.1467  1.2937  0.8289
  542MOL0     C73056   2.521  10.573   5.892 -0.7839 -0.1515  1.1571
  542MOL0     C73057   2.389  10.575   5.967  0.6603  0.3181  0.3915
  542MOL0     C73058   2.372  10.461   6.073 -0.0285  0.2447  0.9713
  542MOL0     O73059   2.333  10.333   6.015 -0.7003 -0.3089 -0.2456
  542MOL0     C73060   2.198  10.295   6.033 -0.7674 -0.3072 -0.2596
  542MOL0     C73061   2.180  10.185   6.122 -0.5183  0.4115 -0.1592
  542MOL0     C73062   2.050  10.147   6.158  0.2166  0.6619 -0.0155
  542MOL0     C73063   2.041  10.052   6.274  0.6098  1.6120  0.1655
  542MOL0     C73064   1.937  10.203   6.086 -0.5956 -0.6415  0.1955
  542MOL0     C73065   1.794  10.166   6.129  0.2876  0.6438  0.8057
  542MOL0     O73066   1.692  10.212   6.054  0.7246  0.2436 -0.1826
  542MOL0     C73067   1.579  10.129   6.058  0.8967 -0.1352 -0.5283
  542MOL0     C73068   1.485  10.132   6.171  0.3732 -0.3292  0.6913
  542MOL0     C73069   1.390  10.024   6.174  0.0214  0.5887 -0.4693
  542MOL0     C73070   1.390   9.927   6.070 -0.1459  0.2934  0.4416
  542MOL0     O73071   1.302   9.823   6.085  0.9232  0.3006  0.6227
  542MOL0     C73072   1.276   9.751   5.972 -0.1181  0.2198 -0.2015
  542MOL0     C73073   1.179   9.644   6.007 -0.6957  0.7169 -1.0989
  542MOL0     C73074   1.078   9.592   5.904 -0.4446 -0.8539 -0.1198
  542MOL0     C73075   0.967   9.700   5.884  0.2963  0.9282  0.0683
  542MOL0     C73076   0.851   9.638   5.799 -0.3873 -0.0555  1.0118
  542MOL0     C73077   0.746   9.746   5.772 -0.2530 -0.0064  0.4918
  542MOL0     C73078   0.631   9.680   5.702 -0.2215 -0.8158  0.2326
  542MOL0     C73079   0.508   9.767   5.673 -1.3637  0.4128  0.5537
  542MOL0    Cl73080   0.423   9.816   5.819  0.1089  0.0482  0.5601
  542MOL0     C73081   1.481   9.933   5.966  0.4869  0.1472  0.0746
  542MOL0     C73082   1.566  10.042   5.949  0.0452  0.2908 -0.0281
  542MOL0     O73083   1.772  10.105   6.233  0.3340  0.6004 -0.1380
  542MOL0     C73084   1.957  10.299   5.994 -0.2250  0.1437 -0.4199
  542MOL0     C73085   2.088  10.347   5.974 -0.2991  0.2967  0.4107
  542MOL0     N73086   2.355  10.564   5.604 -0.1220  0.0217 -0.0571
  542MOL0     N73087   2.261  10.520   5.527  0.6919 -0.1775 -0.1019
  542MOL0     C73088   1.402   9.728   5.251  0.3119 -0.3557 -1.2074
  542MOL0     C73089   1.339   9.686   5.134 -0.0381 -0.4845 -0.3620
  542MOL0     C73090   1.091   9.622   4.756  0.0916  0.8451 -0.3118
  542MOL0     C73091   0.965   9.690   4.772 -0.1925  0.5784 -0.4918
  542MOL0     C73092   0.866   9.655   4.675 -0.1330 -1.1292 -0.4078
  542MOL0     C73093   0.890   9.566   4.569  1.3687 -0.5448 -0.6892
  542MOL0     O73094   0.799   9.522   4.478 -0.3874 -0.2962  0.4926
  542MOL0     C73095   0.668   9.583   4.468 -0.3619 -0.5096  0.1629
  542MOL0     C73096   0.588   9.510   4.363  0.0322  0.1345  0.2699
  542MOL0     C73097   0.543   9.372   4.402  0.3936  0.1929 -0.9675
  542MOL0     C73098   0.498   9.268   4.287 -0.1062 -0.4216  0.1039
  542MOL0     C73099   0.408   9.167   4.340  0.1545 -0.6363  0.8034
  542MOL0     C73100   0.319   9.084   4.373 -0.4670 -1.4144  0.7312
  542MOL0     C73101   1.005   9.490   4.572 -0.2132 -0.4087  0.8109
  542MOL0     C73102   1.106   9.522   4.658  0.4493 -0.0049 -0.4440
  542MOL0     H73103   1.257   9.988   4.995 -2.3616 -2.0917 -0.6257
  542MOL0     H73104   1.383  10.061   5.204  1.1976  0.0592  0.3358
  542MOL0     H73105   1.439  10.111   5.403 -2.0153  0.5502  1.4449
  542MOL0     H73106   1.314  10.012   5.471  0.7860 -3.6432 -0.8708
  542MOL0     H73107   1.435  10.137   5.647 -0.6770  0.7673 -2.1355
  542MOL0     H73108   1.480   9.963   5.666  1.0917 -1.2545 -1.8759
  542MOL0     H73109   1.643  10.149   5.483 -1.7049 -2.1273 -1.1348
  542MOL0     H73110   1.666  10.159   5.669 -0.7288 -0.4694  0.9741
  542MOL0     H73111   1.703   9.904   5.647  0.6716 -0.8998  0.6019
  542MOL0     H73112   1.734   9.941   5.478 -0.3364 -0.5151  1.0254
  542MOL0     H73113   1.865  10.051   5.726  0.0461 -0.5227  0.5182
  542MOL0     H73114   1.942   9.935   5.625 -0.8935 -1.1724  1.4756
  542MOL0     H73115   1.937  10.096   5.435 -2.0086  0.2349 -0.2638
  542MOL0     H73116   1.866  10.222   5.532  0.7897  0.9514 -1.4275
  542MOL0     H73117   2.051  10.226   5.698  2.3768 -0.3095  0.6401
  542MOL0     H73118   2.142  10.102   5.603  1.0636  0.8438 -1.9039
  542MOL0     H73119   2.036  10.356   5.468 -3.1386 -2.9036  0.8786
  542MOL0     H73120   2.175  10.250   5.432 -2.4531 -2.1361 -0.2515
  542MOL0     H73121   2.307  10.263   5.713 -3.9239 -2.1428 -3.6535
  542MOL0     H73122   2.546  10.373   5.812 -0.1631  1.6350  1.6821
  542MOL0     H73123   2.613  10.495   5.704  1.0147 -2.5612  0.7462
  542MOL0     H73124   2.525  10.672   5.846  0.7684 -1.5428 -1.9503
  542MOL0     H73125   2.601  10.571   5.967 -0.3140  1.4250  0.7347
  542MOL0     H73126   2.299  10.588   5.906  1.1544  1.4220 -0.1357
  542MOL0     H73127   2.385  10.672   6.017  2.1018  0.2556  0.6560
  542MOL0     H73128   2.312  10.509   6.150  1.0404 -0.6473  2.4036
  542MOL0     H73129   2.467  10.449   6.125  0.7104  0.1625 -0.3642
  542MOL0     H73130   2.264  10.140   6.174 -1.0077 -0.8632 -0.4440
  542MOL0     H73131   2.132  10.000   6.305  0.7286  2.4813  1.3301
  542MOL0     H73132   2.000  10.103   6.362  1.1690  1.9056  0.2560
  542MOL0     H73133   1.964   9.978   6.247  0.7207  1.8349 -0.8157
  542MOL0     H73134   1.482  10.216   6.240 -3.6553  2.5179 -2.4156
  542MOL0     H73135   1.314  10.010   6.250 -0.1255 -0.1497 -0.7433
  542MOL0     H73136   1.242   9.805   5.883 -0.7918 -3.9317 -2.8019
  542MOL0     H73137   1.360   9.690   5.936 -0.7847 -0.0964 -1.2883
  542MOL0     H73138   1.223   9.554   6.051 -1.5749  0.7030 -0.1929
  542MOL0     H73139   1.118   9.690   6.086  0.3981  3.6836 -1.8456
  542MOL0     H73140   1.029   9.496   5.924 -1.7266 -0.3970 -0.9746
  542MOL0     H73141   1.126   9.581   5.806  0.5603  1.7304  0.0082
  542MOL0     H73142   0.920   9.735   5.977 -3.0536 -1.2917 -0.5901
  542MOL0     H73143   1.024   9.783   5.842  1.3392  0.6458  0.9067
  542MOL0     H73144   0.802   9.560   5.858 -2.6250 -1.9776 -2.9891
  542MOL0     H73145   0.896   9.591   5.712 -2.1701 -0.5806  0.3337
  542MOL0     H73146   0.712   9.799   5.862 -0.9034 -2.5313  1.8263
  542MOL0     H73147   0.795   9.814   5.702 -0.7874  1.9124  1.8871
  542MOL0     H73148   0.592   9.599   5.764  1.5400 -1.7485  0.1753
  542MOL0     H73149   0.660   9.618   5.617 -1.3772 -3.3595  1.5780
  542MOL0     H73150   0.445   9.713   5.601  0.9449 -0.2748 -1.0770
  542MOL0     H73151   0.551   9.851   5.617 -0.2441 -0.8731 -0.5955
  542MOL0     H73152   1.497   9.872   5.877 -1.4219  0.3992 -0.4940
  542MOL0     H73153   1.641  10.048   5.871  0.1137 -2.8194 -0.3489
  542MOL0     H73154   1.871  10.348   5.951 -0.9433 -0.2482  0.5467
  542MOL0     H73155   2.105  10.432   5.909  1.7973  1.4724  2.3250
  542MOL0     H73156   1.439   9.671   5.336 -1.3455  1.8240  1.1238
  542MOL0     H73157   1.322   9.579   5.129  2.3769 -1.0179  0.9723
  542MOL0     H73158   0.962   9.758   4.856  1.4989  0.8305 -0.6030
  542MOL0     H73159   0.772   9.705   4.696  0.1946 -0.1947 -1.0923
  542MOL0     H73160   0.608   9.573   4.559  1.4971  2.6081  1.9274
  542MOL0     H73161   0.689   9.686   4.436 -1.1651 -0.3043  0.2703
  542MOL0     H73162   0.660   9.497   4.282  0.6971 -2.6741  1.2214
  542MOL0     H73163   0.513   9.581   4.326 -0.0304  0.1227  0.3741
  542MOL0     H73164   0.456   9.395   4.464  0.6043 -0.1089 -0.5602
  542MOL0     H73165   0.631   9.331   4.451 -0.1021 -0.9893 -1.0197
  542MOL0     H73166   0.592   9.231   4.246  0.1568  0.3145  0.0344
  542MOL0     H73167   0.453   9.308   4.196  2.3849  0.8397 -0.6733
  542MOL0     H73168   0.249   9.005   4.386 -1.0916 -0.8762  0.7186
  542MOL0     H73169   1.014   9.407   4.502 -1.2333  1.6291 -1.9240
  542MOL0     H73170   1.194   9.459   4.651 -0.4139 -1.4619  1.0128
  543MOL0     O73171   4.783   8.716   9.132  0.4218 -0.1506 -0.5082
  543MOL0     C73172   4.693   8.733   9.047  0.7502 -0.2997 -0.4221
  543MOL0     O73173   4.707   8.737   8.909  0.3523  0.1128 -0.4876
  543MOL0     C73174   4.830   8.745   8.849 -0.9889 -0.3767  0.7322
  543MOL0     C73175   4.867   8.685   8.733 -0.0512 -0.1544  0.5561
  543MOL0     C73176   4.975   8.724   8.659 -0.0940  0.3014 -0.1741
  543MOL0     C73177   5.054   8.834   8.697  0.2148 -0.4670 -0.0254
  543MOL0     O73178   5.152   8.881   8.615 -0.1197 -0.3835  0.0319
  543MOL0     C73179   5.288   8.873   8.647 -0.6725 -1.0658 -0.3557
  543MOL0     C73180   5.371   8.849   8.522  0.1249 -0.1154 -0.2190
  543MOL0     C73181   5.330   8.716   8.442 -0.5118  0.5865 -0.2227
  543MOL0     C73182   5.347   8.589   8.534  0.2246 -0.3808  0.0266
  543MOL0     C73183   5.358   8.460   8.455  0.3584  0.0849  0.7869
  543MOL0     C73184   5.244   8.426   8.359  0.0100  0.4047  0.3769
  543MOL0     C73185   5.282   8.320   8.255  0.1894  0.4247 -0.6901
  543MOL0     C73186   5.340   8.192   8.316 -0.7766  0.3416 -0.5005
  543MOL0     N73187   5.266   8.113   8.412 -0.2070  0.5776  0.4137
  543MOL0     C73188   5.297   8.101   8.548  0.5010 -0.2413  1.1129
  543MOL0     C73189   5.205   8.009   8.595 -0.0476 -0.6462  0.6967
  543MOL0     C73190   5.201   7.966   8.728 -0.2530  0.0702  0.0047
  543MOL0     C73191   5.338   7.904   8.779  0.6094 -0.2297  0.4477
  543MOL0     C73192   5.388   7.785   8.682  0.1263  0.5645 -0.6031
  543MOL0     C73193   5.301   7.658   8.666 -1.3000  0.0189 -0.5464
  543MOL0     O73194   5.239   7.604   8.784 -0.3118  0.6564  0.7036
  543MOL0     C73195   5.108   7.566   8.783  0.0477 -0.3564 -0.0878
  543MOL0     C73196   5.078   7.494   8.898  0.6585 -0.2845  0.1105
  543MOL0     C73197   4.948   7.437   8.915 -0.4855  0.2176 -0.7388
  543MOL0     C73198   4.908   7.365   9.040  0.4282  0.2624 -0.3853
  543MOL0     C73199   4.852   7.450   8.805 -0.2274  0.5245 -0.4050
  543MOL0     C73200   4.708   7.395   8.811  0.7380  1.1432 -0.5405
  543MOL0     O73201   4.660   7.330   8.698 -0.4304  0.1381  0.0577
  543MOL0     C73202   4.531   7.288   8.698  0.7942  0.5285 -1.2727
  543MOL0     C73203   4.436   7.350   8.611  0.1969 -1.0618 -0.4809
  543MOL0     C73204   4.304   7.306   8.616 -0.0098  0.5913  0.2332
  543MOL0     C73205   4.257   7.197   8.692 -0.7174 -0.8321 -0.6044
  543MOL0     O73206   4.128   7.141   8.677  0.1215 -1.1074 -1.0730
  543MOL0     C73207   4.014   7.225   8.639  0.3199 -0.3265  0.2437
  543MOL0     C73208   3.880   7.154   8.669  0.0212 -0.6346 -0.4020
  543MOL0     C73209   3.854   7.118   8.818 -0.1774 -0.6330  0.0126
  543MOL0     C73210   3.840   7.232   8.919  0.7188 -0.5614 -0.7883
  543MOL0     C73211   3.802   7.185   9.059 -0.0036 -0.1007  0.3053
  543MOL0     C73212   3.759   7.287   9.161 -0.6658  0.2829 -0.1812
  543MOL0     C73213   3.689   7.413   9.123  0.5791  0.2233  0.1024
  543MOL0     C73214   3.650   7.493   9.239  0.7402 -1.0167 -0.2387
  543MOL0    Cl73215   3.783   7.557   9.324  0.2740 -0.0304  0.1132
  543MOL0     C73216   4.355   7.140   8.781 -0.3551 -0.8423 -0.0429
  543MOL0     C73217   4.486   7.186   8.786  0.3660 -0.6314  0.2081
  543MOL0     O73218   4.638   7.421   8.904  0.7172  0.4326 -0.1904
  543MOL0     C73219   4.880   7.523   8.685  0.6497 -0.1045  0.0402
  543MOL0     C73220   5.011   7.577   8.681  0.1833 -0.8878 -0.7987
  543MOL0     N73221   5.133   7.956   8.489  0.4363  0.6193  0.0844
  543MOL0     N73222   5.163   8.024   8.385 -0.5829 -0.1165  0.9520
  543MOL0     C73223   5.026   8.904   8.816 -0.5921 -0.2244  0.1984
  543MOL0     C73224   4.917   8.849   8.893 -0.6732 -0.4318 -0.0136
  543MOL0     C73225   4.560   8.745   9.105  0.5450  0.8577 -0.0276
  543MOL0     C73226   4.456   8.780   9.019  0.3190 -0.3730 -0.5844
  543MOL0     C73227   4.322   8.803   9.069  0.1517 -0.7391 -0.4518
  543MOL0     C73228   4.297   8.777   9.204 -1.4704  0.4043 -0.6738
  543MOL0     O73229   4.161   8.775   9.236  0.3608 -0.4253  0.2832
  543MOL0     C73230   4.113   8.738   9.369  0.9869  0.0627  0.0921
  543MOL0     C73231   3.972   8.793   9.396  0.3348  1.0685 -0.1143
  543MOL0     C73232   3.952   8.943   9.388  0.5358  0.3023 -0.9404
  543MOL0     C73233   3.820   8.984   9.448 -0.0120  0.3879 -0.0263
  543MOL0     C73234   3.812   8.945   9.591 -0.6615 -0.6344 -1.7257
  543MOL0     C73235   3.812   8.911   9.704  0.0203  0.5123  0.6992
  543MOL0     C73236   4.403   8.742   9.294 -0.1679  0.9596  1.2423
  543MOL0     C73237   4.535   8.726   9.247  0.7257  1.0443  0.6880
  543MOL0     H73238   4.799   8.612   8.692 -1.2722  1.3640 -0.2576
  543MOL0     H73239   5.001   8.687   8.560 -1.9824 -0.5543 -0.3915
  543MOL0     H73240   5.320   8.963   8.700  0.0640 -1.2291 -0.5099
  543MOL0     H73241   5.300   8.791   8.718 -1.1467 -1.2146 -0.4389
  543MOL0     H73242   5.362   8.937   8.457  7.0043  0.5240 -1.1122
  543MOL0     H73243   5.474   8.844   8.560 -0.9223  2.7192  3.6175
  543MOL0     H73244   5.222   8.719   8.422 -0.9602 -2.7873  0.9242
  543MOL0     H73245   5.396   8.712   8.355 -0.0050 -0.3832  0.1945
  543MOL0     H73246   5.434   8.600   8.599  1.2585  0.8529 -1.4742
  543MOL0     H73247   5.266   8.578   8.606  0.9739  1.0215  1.1183
  543MOL0     H73248   5.454   8.461   8.403  0.6387  0.5206  1.3008
  543MOL0     H73249   5.359   8.375   8.523 -0.7288  0.6333  1.5293
  543MOL0     H73250   5.154   8.396   8.414 -0.9566  1.2634 -0.6956
  543MOL0     H73251   5.218   8.512   8.297 -0.0127  1.3057  1.5786
  543MOL0     H73252   5.193   8.293   8.198 -0.1457 -1.1173  0.4825
  543MOL0     H73253   5.359   8.356   8.187  0.4947  0.9148 -0.0971
  543MOL0     H73254   5.436   8.222   8.359  0.8094  0.7904 -3.9853
  543MOL0     H73255   5.361   8.123   8.234  0.8790  2.4146 -1.9465
  543MOL0     H73256   5.374   8.147   8.609  1.0997  0.5550 -0.2222
  543MOL0     H73257   5.176   8.039   8.805  0.8225  3.5437 -2.7018
  543MOL0     H73258   5.136   7.877   8.726  0.2225 -0.7027  4.8666
  543MOL0     H73259   5.326   7.868   8.882 -0.7517 -2.1205 -0.3087
  543MOL0     H73260   5.416   7.981   8.781  0.1294  0.3809 -1.8055
  543MOL0     H73261   5.487   7.749   8.711 -0.0624 -1.0171 -1.8053
  543MOL0     H73262   5.405   7.830   8.584  1.1793  1.3449 -0.0760
  543MOL0     H73263   5.372   7.585   8.625 -0.2122  1.7988 -1.9568
  543MOL0     H73264   5.224   7.681   8.592  1.2350 -2.5756 -4.4091
  543MOL0     H73265   5.150   7.480   8.978  0.5853 -3.4271 -0.2357
  543MOL0     H73266   4.832   7.421   9.095 -0.6246  3.0788 -4.2326
  543MOL0     H73267   4.869   7.265   9.020  2.4136 -1.2823  2.7653
  543MOL0     H73268   5.000   7.340   9.094  0.6459 -0.2257 -0.9628
  543MOL0     H73269   4.472   7.422   8.538  0.8080  1.0365  1.7518
  543MOL0     H73270   4.238   7.347   8.540  0.2169  1.0888  0.3011
  543MOL0     H73271   4.027   7.313   8.703  1.6425  0.8019 -1.4812
  543MOL0     H73272   4.009   7.260   8.536 -2.2641  0.7430  0.6689
  543MOL0     H73273   3.798   7.216   8.630 -2.2106 -0.9921  3.2009
  543MOL0     H73274   3.879   7.058   8.616  0.7935  1.6576 -5.1034
  543MOL0     H73275   3.945   7.065   8.849  1.4947  2.1606  0.1467
  543MOL0     H73276   3.774   7.043   8.826 -0.0482 -0.8891 -0.9187
  543MOL0     H73277   3.936   7.284   8.928 -0.0881  0.8341  0.0194
  543MOL0     H73278   3.777   7.309   8.874  0.9640 -1.1104 -2.1171
  543MOL0     H73279   3.894   7.135   9.090 -0.7019 -0.3976  1.9966
  543MOL0     H73280   3.732   7.101   9.054 -0.3430  0.2175 -0.4997
  543MOL0     H73281   3.709   7.234   9.242  2.9239 -1.1060  1.3492
  543MOL0     H73282   3.846   7.334   9.208 -0.6607  0.3415 -0.2480
  543MOL0     H73283   3.596   7.384   9.073 -0.6593  1.4365  1.5993
  543MOL0     H73284   3.744   7.475   9.052 -0.7256  0.1277 -1.0264
  543MOL0     H73285   3.594   7.435   9.313  0.8335 -0.2984  0.3965
  543MOL0     H73286   3.589   7.573   9.196  2.2769 -0.6265 -1.8145
  543MOL0     H73287   4.331   7.067   8.858  1.2536  0.2350  1.5717
  543MOL0     H73288   4.550   7.135   8.858  1.8779 -0.7808 -1.1841
  543MOL0     H73289   4.810   7.534   8.603  2.5748  1.0489 -1.5361
  543MOL0     H73290   5.036   7.629   8.589 -0.5909 -1.8008 -1.5500
  543MOL0     H73291   5.091   8.984   8.851  0.2139 -1.4561  1.5996
  543MOL0     H73292   4.892   8.898   8.987  0.9072 -1.2383  0.8704
  543MOL0     H73293   4.467   8.781   8.911 -2.8382 -1.0865 -1.0125
  543MOL0     H73294   4.246   8.820   8.993  1.2712 -4.3353 -2.6270
  543MOL0     H73295   4.117   8.630   9.381  0.1811 -0.1665 -1.4797
  543MOL0     H73296   4.176   8.790   9.442  0.9282 -1.2302  1.0874
  543MOL0     H73297   3.954   8.753   9.496  3.3644 -0.5267 -0.1030
  543MOL0     H73298   3.905   8.744   9.324  0.7776 -0.2939  0.3733
  543MOL0     H73299   3.960   8.966   9.282  0.2144 -0.8533 -1.2295
  543MOL0     H73300   4.030   8.999   9.441  0.4121  0.5207 -0.9867
  543MOL0     H73301   3.748   8.929   9.387  0.7841  1.6558 -2.1917
  543MOL0     H73302   3.806   9.092   9.437  0.1470  0.4244  0.1326
  543MOL0     H73303   3.828   8.884   9.806  1.0731 -0.2791  0.3483
  543MOL0     H73304   4.376   8.714   9.395 -4.5402  2.1860  0.6199
  543MOL0     H73305   4.617   8.720   9.318  2.3439  2.6392 -0.9289
  544MOL0     O73306   3.788   8.138   7.606  0.3554  0.6398  0.0158
  544MOL0     C73307   3.701   8.141   7.693  0.4660 -0.2307 -0.1832
  544MOL0     O73308   3.656   8.027   7.757  0.5939 -1.0176 -0.8892
  544MOL0     C73309   3.695   7.899   7.723 -0.0205 -0.7272  0.2379
  544MOL0     C73310   3.831   7.867   7.696  0.1172 -0.3450  0.8568
  544MOL0     C73311   3.871   7.743   7.646  0.3411 -0.1994  0.2334
  544MOL0     C73312   3.774   7.635   7.639 -0.1094  0.8815 -0.4382
  544MOL0     O73313   3.827   7.507   7.607 -0.3209 -0.5881 -0.5170
  544MOL0     C73314   3.747   7.425   7.516  0.0800  1.0026 -0.2754
  544MOL0     C73315   3.709   7.492   7.384  0.1392  0.5917 -0.4096
  544MOL0     C73316   3.820   7.543   7.295 -0.1770 -0.8240  0.3202
  544MOL0     C73317   3.917   7.426   7.256  0.1097  0.1802 -0.3454
  544MOL0     C73318   4.029   7.455   7.157  0.1233  0.2002  0.1822
  544MOL0     C73319   4.109   7.573   7.206 -0.7186  0.1908 -0.2623
  544MOL0     C73320   4.238   7.581   7.126  0.6189 -0.5934 -0.3547
  544MOL0     C73321   4.318   7.696   7.186 -0.5394  0.3715 -0.7065
  544MOL0     N73322   4.446   7.711   7.118 -1.2197 -0.5779 -0.0698
  544MOL0     C73323   4.539   7.615   7.082  0.2528 -1.1314  0.5769
  544MOL0     C73324   4.644   7.685   7.032 -0.4673 -0.3704  0.1769
  544MOL0     C73325   4.772   7.618   6.979  0.6883  0.3988 -0.1122
  544MOL0     C73326   4.830   7.701   6.866 -0.3988 -0.1373 -0.5652
  544MOL0     C73327   4.966   7.638   6.822  0.8678 -0.3096  0.3641
  544MOL0     C73328   5.036   7.701   6.710 -0.9303 -0.8849 -0.1989
  544MOL0     O73329   5.064   7.834   6.760  0.0866 -0.0711  0.4294
  544MOL0     C73330   5.026   7.932   6.681  1.5007  0.6028 -0.1254
  544MOL0     C73331   5.097   8.051   6.701 -0.2451  0.3066 -0.2491
  544MOL0     C73332   5.069   8.173   6.642  0.2823 -0.3270  0.1433
  544MOL0     C73333   5.151   8.306   6.679 -0.0758 -0.6625  0.6975
  544MOL0     C73334   4.958   8.182   6.556  0.6014  0.8824 -0.0111
  544MOL0     C73335   4.902   8.304   6.490 -0.6387 -0.5659 -0.0834
  544MOL0     O73336   4.887   8.412   6.566  0.7261 -0.3314  0.1513
  544MOL0     C73337   4.782   8.500   6.541 -0.0910 -0.5016 -0.5039
  544MOL0     C73338   4.649   8.468   6.490 -0.4532 -0.3786 -0.6625
  544MOL0     C73339   4.550   8.562   6.482  0.6687  0.3571 -0.2070
  544MOL0     C73340   4.568   8.690   6.525  0.0100 -0.1455 -1.3825
  544MOL0     O73341   4.478   8.796   6.520  0.0005 -0.3311  0.1871
  544MOL0     C73342   4.332   8.771   6.498  0.0247 -0.3687  0.0332
  544MOL0     C73343   4.255   8.897   6.530 -0.8857 -0.0786  0.5405
  544MOL0     C73344   4.256   8.937   6.673  0.0881  0.1681 -0.0483
  544MOL0     C73345   4.180   9.067   6.686  0.1475 -0.1349  0.2082
  544MOL0     C73346   4.204   9.136   6.828  0.2042 -0.7029  0.4260
  544MOL0     C73347   4.216   9.289   6.804 -0.3306 -0.6147 -0.1221
  544MOL0     C73348   4.265   9.359   6.936  0.6280  1.0018 -0.9070
  544MOL0     C73349   4.281   9.509   6.929  0.0889 -0.3027  0.0819
  544MOL0    Cl73350   4.417   9.553   6.811 -0.0592 -0.1671 -0.2030
  544MOL0     C73351   4.692   8.722   6.584  0.0644  0.1929 -0.5594
  544MOL0     C73352   4.800   8.628   6.590 -0.5504  0.4972  0.0919
  544MOL0     O73353   4.868   8.284   6.376  0.0551 -0.1011 -0.1311
  544MOL0     C73354   4.900   8.056   6.516  0.4544 -0.3215 -0.2496
  544MOL0     C73355   4.924   7.936   6.581 -0.0177 -0.2666 -0.0604
  544MOL0     N73356   4.624   7.814   7.051  0.7809 -0.2957 -0.8743
  544MOL0     N73357   4.506   7.833   7.102 -0.5661  0.6577 -0.0670
  544MOL0     C73358   3.644   7.667   7.674 -1.2024  0.4418 -0.5723
  544MOL0     C73359   3.601   7.793   7.707  0.6755 -0.6980  0.0372
  544MOL0     C73360   3.662   8.278   7.745  0.2079  0.1125  0.0663
  544MOL0     C73361   3.711   8.395   7.702  1.1462 -0.2629  0.5342
  544MOL0     C73362   3.683   8.524   7.745  0.5306  0.1393 -0.9608
  544MOL0     C73363   3.592   8.536   7.853 -0.6143  0.5304  0.2379
  544MOL0     O73364   3.559   8.656   7.915 -0.9629  0.1639 -0.0900
  544MOL0     C73365   3.616   8.779   7.854 -0.3582 -0.2716 -0.1005
  544MOL0     C73366   3.753   8.805   7.910 -1.0383 -0.1368 -0.1731
  544MOL0     C73367   3.811   8.943   7.892 -0.7416 -0.5345 -0.5001
  544MOL0     C73368   3.731   9.053   7.955 -0.2168 -0.0840  0.3851
  544MOL0     C73369   3.770   9.046   8.096 -0.6104  0.2175 -0.1633
  544MOL0     C73370   3.814   9.047   8.208 -0.0357  0.3385 -0.0225
  544MOL0     C73371   3.538   8.416   7.906  0.4835  0.6919 -0.0218
  544MOL0     C73372   3.578   8.289   7.857 -0.0574 -0.2672  0.7250
  544MOL0     H73373   3.900   7.947   7.719 -1.1954  0.5711  1.7317
  544MOL0     H73374   3.968   7.705   7.616 -1.0050 -2.9159 -1.0836
  544MOL0     H73375   3.816   7.342   7.501 -0.1008  1.1492 -2.1417
  544MOL0     H73376   3.657   7.379   7.560  0.7629  1.1998  1.4211
  544MOL0     H73377   3.640   7.426   7.332 -0.2634  0.6415  0.0465
  544MOL0     H73378   3.637   7.572   7.407 -2.3784 -0.8815 -2.6424
  544MOL0     H73379   3.776   7.593   7.209  0.1879 -0.1238  0.5286
  544MOL0     H73380   3.871   7.623   7.350  1.7911 -1.1371 -0.9322
  544MOL0     H73381   3.971   7.387   7.343 -0.2414 -1.3784 -0.7959
  544MOL0     H73382   3.855   7.346   7.217  0.7084  0.7028 -2.4778
  544MOL0     H73383   4.095   7.368   7.154 -0.9206 -0.6250 -3.3291
  544MOL0     H73384   3.992   7.466   7.054 -0.9582 -1.0339  0.4102
  544MOL0     H73385   4.045   7.662   7.212 -0.8087  0.1422 -0.4875
  544MOL0     H73386   4.134   7.550   7.310  2.1117  0.4800 -0.7885
  544MOL0     H73387   4.300   7.494   7.151  0.5517 -1.3701 -2.6398
  544MOL0     H73388   4.226   7.593   7.018  0.3357 -2.2595 -0.5380
  544MOL0     H73389   4.341   7.680   7.292  0.6919  0.5296 -0.9411
  544MOL0     H73390   4.261   7.788   7.170 -0.5541  0.2861 -1.1614
  544MOL0     H73391   4.535   7.511   7.112 -1.0768 -0.5458  2.6082
  544MOL0     H73392   4.842   7.612   7.062 -1.7552  1.8245  2.2105
  544MOL0     H73393   4.741   7.517   6.949 -0.4018  1.3614 -2.5222
  544MOL0     H73394   4.848   7.805   6.895  0.9742 -0.7203  0.7909
  544MOL0     H73395   4.757   7.703   6.784 -0.4414 -0.0985 -0.5265
  544MOL0     H73396   4.932   7.539   6.790 -0.5369  0.0927  0.5467
  544MOL0     H73397   5.037   7.616   6.903  0.2507  1.3564  1.3970
  544MOL0     H73398   4.965   7.700   6.626  1.5596  1.7649 -2.5914
  544MOL0     H73399   5.133   7.659   6.681 -0.0607  0.3868  0.7875
  544MOL0     H73400   5.175   8.050   6.777 -1.8548  0.2685  1.4652
  544MOL0     H73401   5.257   8.280   6.673 -0.5378 -2.4391 -1.1009
  544MOL0     H73402   5.138   8.392   6.613 -1.1095  0.4724  2.3118
  544MOL0     H73403   5.126   8.339   6.780 -2.7957  0.2762 -0.1916
  544MOL0     H73404   4.631   8.365   6.460 -0.9759 -0.9080  1.3002
  544MOL0     H73405   4.464   8.526   6.427  0.2141 -1.6826  1.7273
  544MOL0     H73406   4.307   8.742   6.396 -0.4055  1.3357 -0.3892
  544MOL0     H73407   4.287   8.693   6.559 -1.7169  1.6096  1.4422
  544MOL0     H73408   4.295   8.978   6.469  1.2157 -1.2774  0.2546
  544MOL0     H73409   4.151   8.877   6.500 -1.4607  3.2837 -0.0356
  544MOL0     H73410   4.360   8.952   6.705 -0.0760 -0.3996  0.7686
  544MOL0     H73411   4.198   8.867   6.733  0.3505  1.7705  2.2166
  544MOL0     H73412   4.211   9.148   6.619 -1.8743  2.1858  1.9105
  544MOL0     H73413   4.074   9.047   6.667  0.4388  0.1243 -1.9515
  544MOL0     H73414   4.297   9.099   6.874  0.6331 -0.1128  0.0391
  544MOL0     H73415   4.122   9.110   6.897 -0.2108  2.1461  1.1240
  544MOL0     H73416   4.291   9.303   6.726 -1.1518 -0.3829 -0.8783
  544MOL0     H73417   4.117   9.328   6.777  0.0552 -0.4299 -1.2866
  544MOL0     H73418   4.357   9.307   6.964  0.6787  2.3117  1.5507
  544MOL0     H73419   4.194   9.335   7.015  3.2453 -1.8206  0.8176
  544MOL0     H73420   4.307   9.559   7.024  0.4638  1.5922 -0.9665
  544MOL0     H73421   4.195   9.559   6.886  0.0226 -1.2766 -0.9395
  544MOL0     H73422   4.706   8.819   6.631  2.2329  0.7590 -2.1778
  544MOL0     H73423   4.890   8.668   6.635 -0.4968 -0.7729  1.1631
  544MOL0     H73424   4.822   8.059   6.440  1.3126 -2.1257 -1.2487
  544MOL0     H73425   4.864   7.849   6.557  0.7712 -2.1074  3.8849
  544MOL0     H73426   3.573   7.587   7.655  0.0545 -0.6160 -0.9638
  544MOL0     H73427   3.496   7.814   7.724  1.4724  2.4006  1.8075
  544MOL0     H73428   3.787   8.391   7.623  1.0981 -0.1245  0.4811
  544MOL0     H73429   3.739   8.605   7.699  2.5028 -0.0913  0.8509
  544MOL0     H73430   3.602   8.766   7.747  2.5377 -0.4493 -0.5390
  544MOL0     H73431   3.549   8.858   7.887 -1.1059 -1.8406  2.4109
  544MOL0     H73432   3.825   8.734   7.868  0.3185  0.1105  1.6067
  544MOL0     H73433   3.756   8.787   8.017  0.7649  0.3256 -0.1190
  544MOL0     H73434   3.801   8.969   7.786  1.8726  3.1522 -0.0193
  544MOL0     H73435   3.916   8.944   7.921 -0.5170 -2.2586 -1.0963
  544MOL0     H73436   3.627   9.041   7.924 -0.4166  1.6342  0.3273
  544MOL0     H73437   3.768   9.152   7.929  1.1876 -1.4251 -3.4111
  544MOL0     H73438   3.858   9.040   8.306  1.1268  0.4521 -0.5183
  544MOL0     H73439   3.467   8.424   7.988 -0.8314  2.0092 -1.2458
  544MOL0     H73440   3.542   8.194   7.896 -0.0304 -0.7444 -0.3702
  545MOL0     O73441   9.349   7.295   9.510 -0.1561 -0.1668 -1.2399
  545MOL0     C73442   9.413   7.224   9.437  0.1634 -0.3037  0.3045
  545MOL0     O73443   9.543   7.249   9.404 -0.4073 -0.6868 -0.3294
  545MOL0     C73444   9.597   7.365   9.449  0.1565 -0.3457  0.1628
  545MOL0     C73445   9.688   7.355   9.549 -0.2256  0.2410 -0.0467
  545MOL0     C73446   9.758   7.466   9.592 -0.2770  0.1101  0.3388
  545MOL0     C73447   9.736   7.595   9.536  0.0769  0.3593 -0.5194
  545MOL0     O73448   9.780   7.719   9.576  0.5523 -0.3029 -0.3397
  545MOL0     C73449   9.843   7.711   9.705  0.5221  0.0815  0.1551
  545MOL0     C73450   9.834   7.849   9.754  0.5542  0.6656  0.5600
  545MOL0     C73451   9.854   7.860   9.900 -0.4343 -0.4062 -0.3219
  545MOL0     C73452   9.793   7.981   9.956 -0.0228  0.2857 -1.4509
  545MOL0     C73453   9.826   8.001  10.101  0.6671  0.1846  0.3741
  545MOL0     C73454   9.785   8.147  10.156  0.4462  0.5139  0.4877
  545MOL0     C73455   9.811   8.157  10.309  0.8708 -0.1576 -0.1305
  545MOL0     C73456   9.724   8.259  10.367  0.9722 -0.5898 -0.8639
  545MOL0     N73457   9.732   8.394  10.317  0.6637  0.2340  0.4512
  545MOL0     C73458   9.785   8.504  10.376  0.2489  0.5883  0.1214
  545MOL0     C73459   9.740   8.613  10.305  0.6569  0.1214 -0.6339
  545MOL0     C73460   9.762   8.757  10.343  0.1939 -0.4672  0.4150
  545MOL0     C73461   9.861   8.837  10.247  0.7229 -0.4000  0.0022
  545MOL0     C73462  10.005   8.828  10.291 -0.0854  0.3464 -0.6564
  545MOL0     C73463  10.107   8.899  10.199  0.3001  0.4568 -0.0565
  545MOL0     O73464  10.233   8.890  10.274 -0.0737  0.9785  0.6816
  545MOL0     C73465  10.296   9.001  10.334 -0.0416 -0.3580 -0.6368
  545MOL0     C73466  10.244   9.128  10.352  1.0972 -0.7644  0.2662
  545MOL0     C73467  10.310   9.230  10.423 -0.2846  0.0329 -0.2353
  545MOL0     C73468  10.243   9.364  10.431 -0.8397  0.2760  0.6819
  545MOL0     C73469  10.432   9.207  10.484 -0.0221  0.5872 -0.4233
  545MOL0     C73470  10.514   9.296  10.571  0.2591 -1.2758  0.6813
  545MOL0     O73471  10.625   9.241  10.614  0.3641 -0.1425 -0.0584
  545MOL0     C73472  10.741   9.307  10.650 -0.4805  0.6105  0.5528
  545MOL0     C73473  10.832   9.221  10.717  0.1310 -0.5035  0.1104
  545MOL0     C73474  10.954   9.271  10.767  0.1915 -0.4054 -0.4177
  545MOL0     C73475  10.994   9.405  10.739 -1.0420 -0.4554  0.2358
  545MOL0     O73476  11.120   9.461  10.773 -0.0453 -0.2106  0.3272
  545MOL0     C73477  11.215   9.379  10.840  0.1538  0.0007 -0.2469
  545MOL0     C73478  11.322   9.454  10.923 -0.4675  0.5802 -1.0623
  545MOL0     C73479  11.409   9.526  10.811  0.4492  0.0131  0.1957
  545MOL0     C73480  11.505   9.432  10.725  0.5016  0.6346  0.1714
  545MOL0     C73481  11.615   9.507  10.647  0.7160 -0.3922  0.2476
  545MOL0     C73482  11.573   9.622  10.556 -0.0352  0.0582  0.1930
  545MOL0     C73483  11.692   9.665  10.479 -0.0183 -0.7718  0.1335
  545MOL0     C73484  11.667   9.772  10.368 -0.1472  1.3283 -0.5677
  545MOL0    Cl73485  11.650   9.934  10.441 -0.3939  0.0713  0.0155
  545MOL0     C73486  10.898   9.493  10.685  0.8160  0.7512  0.6015
  545MOL0     C73487  10.769   9.446  10.642  0.4333 -0.3084  1.0655
  545MOL0     O73488  10.474   9.404  10.598 -0.5316 -1.2306 -0.2148
  545MOL0     C73489  10.484   9.067  10.472  0.2759 -0.7826  1.0843
  545MOL0     C73490  10.422   8.974  10.392  0.6976  0.7221 -0.3629
  545MOL0     N73491   9.670   8.569  10.202  0.2764  0.2565 -0.1662
  545MOL0     N73492   9.662   8.437  10.204 -0.0456  0.0916 -0.4201
  545MOL0     C73493   9.647   7.605   9.433  0.0365  0.7296 -0.8380
  545MOL0     C73494   9.577   7.490   9.393 -0.5208  1.0374  1.2965
  545MOL0     C73495   9.353   7.096   9.388 -0.4775  0.8852 -0.0835
  545MOL0     C73496   9.417   7.021   9.288 -0.3771 -0.1323 -0.7790
  545MOL0     C73497   9.359   6.890   9.246 -0.5397  0.5546 -0.5949
  545MOL0     C73498   9.247   6.834   9.314 -0.7879 -1.1717  0.4833
  545MOL0     O73499   9.192   6.711   9.293 -0.0472 -0.4346  0.3730
  545MOL0     C73500   9.259   6.612   9.213 -0.1468  0.5873  0.3065
  545MOL0     C73501   9.395   6.561   9.275 -0.3965  1.0190  0.2965
  545MOL0     C73502   9.473   6.450   9.192  0.0210 -1.2338 -0.4410
  545MOL0     C73503   9.479   6.474   9.041 -0.4498  0.4761 -0.2916
  545MOL0     C73504   9.571   6.588   9.027  0.8237 -0.7024 -0.0996
  545MOL0     C73505   9.638   6.701   8.995 -0.2830  0.6829  0.2729
  545MOL0     C73506   9.184   6.923   9.404  0.9576  0.2740 -0.4282
  545MOL0     C73507   9.232   7.046   9.438 -0.4898 -0.6581  0.2302
  545MOL0     H73508   9.710   7.261   9.597  3.3040  0.5209 -0.8806
  545MOL0     H73509   9.817   7.445   9.680 -0.1159  0.5032  0.3275
  545MOL0     H73510   9.782   7.642   9.764 -0.1284  1.9712  1.7819
  545MOL0     H73511   9.945   7.672   9.703  0.7277  0.6232 -0.9191
  545MOL0     H73512   9.910   7.904   9.696 -1.0072  0.8614 -1.4476
  545MOL0     H73513   9.737   7.890   9.725 -0.0864 -1.0232  0.2301
  545MOL0     H73514   9.811   7.771   9.946 -2.3655 -0.6677 -2.4369
  545MOL0     H73515   9.959   7.864   9.930 -0.5318  1.3201 -0.1029
  545MOL0     H73516   9.835   8.069   9.907 -0.5181  2.0492  1.0875
  545MOL0     H73517   9.685   7.971   9.945 -0.7216 -0.1328  3.4403
  545MOL0     H73518   9.781   7.927  10.167  1.4896  0.5539  1.3828
  545MOL0     H73519   9.935   7.992  10.111  0.8672  2.3354  0.5481
  545MOL0     H73520   9.851   8.224  10.114  2.7169 -1.2815  0.5406
  545MOL0     H73521   9.683   8.165  10.122  0.5029 -1.9748 -1.2310
  545MOL0     H73522   9.786   8.063  10.358  1.2658 -0.1893  0.0089
  545MOL0     H73523   9.913   8.195  10.322  1.0891 -0.6355 -0.4270
  545MOL0     H73524   9.745   8.256  10.474 -0.2065 -0.2929 -0.6144
  545MOL0     H73525   9.624   8.220  10.347  1.2186 -1.1871 -0.9504
  545MOL0     H73526   9.841   8.513  10.469  0.7945 -0.9720 -0.0184
  545MOL0     H73527   9.662   8.802  10.340  1.0636  1.7176  2.0451
  545MOL0     H73528   9.808   8.776  10.440  0.1427  2.2330 -0.0214
  545MOL0     H73529   9.827   8.941  10.243 -2.1445 -1.2869 -1.3488
  545MOL0     H73530   9.855   8.789  10.149  1.2384 -4.0171  1.5929
  545MOL0     H73531  10.035   8.723  10.297 -1.8609 -0.4486 -3.5706
  545MOL0     H73532  10.003   8.884  10.385 -0.6476  0.8812 -0.9806
  545MOL0     H73533  10.067   9.001  10.195 -3.5133 -0.9243 -1.0305
  545MOL0     H73534  10.104   8.862  10.096 -2.6237  5.4621 -2.1266
  545MOL0     H73535  10.142   9.153  10.324  1.1934  0.0598  0.6131
  545MOL0     H73536  10.302   9.435  10.373 -1.1718 -2.6372 -3.6850
  545MOL0     H73537  10.144   9.355  10.386 -0.1646  1.1352 -1.0770
  545MOL0     H73538  10.237   9.407  10.531  1.9016 -0.3095  1.2106
  545MOL0     H73539  10.820   9.114  10.733  0.7212 -0.1882  3.3620
  545MOL0     H73540  11.028   9.207  10.815 -2.3205 -1.1883  2.8329
  545MOL0     H73541  11.168   9.313  10.913  1.2946  0.1384  0.6510
  545MOL0     H73542  11.273   9.318  10.770  0.8606 -0.1506  0.4559
  545MOL0     H73543  11.287   9.529  10.995 -0.0777  0.9215 -1.2185
  545MOL0     H73544  11.369   9.378  10.985 -1.1202  0.0627 -1.1924
  545MOL0     H73545  11.467   9.608  10.854 -0.7277  0.0994  1.6878
  545MOL0     H73546  11.341   9.571  10.738 -0.5853 -4.2966 -1.7699
  545MOL0     H73547  11.542   9.344  10.779 -0.6205 -1.7160 -2.6201
  545MOL0     H73548  11.449   9.390  10.641  3.8583  1.5501 -2.7667
  545MOL0     H73549  11.664   9.434  10.581  0.6742  1.5618 -2.0961
  545MOL0     H73550  11.697   9.540  10.712  1.0155 -1.9951  0.7453
  545MOL0     H73551  11.498   9.578  10.489 -0.6390  0.7595  0.3882
  545MOL0     H73552  11.525   9.700  10.616 -1.0538 -0.0635 -0.4466
  545MOL0     H73553  11.729   9.575  10.430  0.1861 -0.4793 -0.2569
  545MOL0     H73554  11.768   9.704  10.547 -2.9010  0.4002  2.9662
  545MOL0     H73555  11.573   9.741  10.321  1.3751 -2.3568 -1.5432
  545MOL0     H73556  11.749   9.764  10.297 -1.1007 -3.5297 -1.4801
  545MOL0     H73557  10.920   9.599  10.691  1.4390  0.5576  2.5222
  545MOL0     H73558  10.704   9.509  10.582 -1.0080 -4.6758 -2.5361
  545MOL0     H73559  10.585   9.032  10.490  0.7276 -0.8438 -1.2305
  545MOL0     H73560  10.462   8.873  10.393  3.0232  1.5200  2.4648
  545MOL0     H73561   9.620   7.696   9.380  0.8690  2.0202  0.8577
  545MOL0     H73562   9.518   7.498   9.303  0.7224  0.9661  0.4523
  545MOL0     H73563   9.495   7.066   9.227  3.0583 -0.8457  2.6425
  545MOL0     H73564   9.406   6.824   9.173  0.5233 -1.5685  1.8678
  545MOL0     H73565   9.191   6.527   9.207 -0.1214  0.4870  1.3144
  545MOL0     H73566   9.267   6.655   9.113  0.4120  0.2370  0.1983
  545MOL0     H73567   9.378   6.522   9.376  1.0600  0.0579  0.1859
  545MOL0     H73568   9.463   6.647   9.283 -2.5903  2.8313  0.5596
  545MOL0     H73569   9.421   6.357   9.218 -2.0769  1.0522  5.0931
  545MOL0     H73570   9.576   6.441   9.227  0.1513 -1.7655 -0.9434
  545MOL0     H73571   9.377   6.502   9.011 -0.1760  1.7143 -0.1376
  545MOL0     H73572   9.518   6.392   8.980  0.3092  0.8896 -0.3711
  545MOL0     H73573   9.705   6.780   8.966  2.8082 -2.2542 -1.2250
  545MOL0     H73574   9.108   6.886   9.471  1.9897 -0.3172  0.4452
  545MOL0     H73575   9.175   7.103   9.511 -0.0927  1.1526 -0.8116
  546MOL0     O73576   7.640   8.637   6.164 -0.9125  0.3395 -0.0170
  546MOL0     C73577   7.544   8.693   6.130  0.2754 -0.0767  0.3067
  546MOL0     O73578   7.533   8.822   6.075 -0.4587 -0.7539  0.3032
  546MOL0     C73579   7.646   8.881   6.033  0.0384  0.0815  1.2273
  546MOL0     C73580   7.661   9.014   6.065 -0.7781 -0.2008  0.0442
  546MOL0     C73581   7.768   9.093   6.012 -0.4769  1.3756 -0.4949
  546MOL0     C73582   7.862   9.026   5.928  0.9040  0.1633  0.1946
  546MOL0     O73583   7.953   9.108   5.875 -0.9255 -0.1535  0.0042
  546MOL0     C73584   8.072   9.040   5.815 -0.3754  0.6362  0.5804
  546MOL0     C73585   8.056   9.023   5.669 -0.7498  1.7481 -0.0094
  546MOL0     C73586   8.165   8.940   5.605 -0.0242 -0.2642 -0.3172
  546MOL0     C73587   8.135   8.790   5.581  0.6919  0.5183  0.0820
  546MOL0     C73588   8.227   8.730   5.481  0.0100 -0.7177 -0.0708
  546MOL0     C73589   8.204   8.584   5.474 -0.4094  0.1484  0.2517
  546MOL0     C73590   8.297   8.495   5.389  0.3149 -0.3979  0.0676
  546MOL0     C73591   8.377   8.396   5.479 -0.1500 -0.4135  0.7019
  546MOL0     N73592   8.474   8.320   5.408  0.2457  0.2429 -0.9430
  546MOL0     C73593   8.506   8.328   5.277  0.0604 -0.1735  0.3374
  546MOL0     C73594   8.588   8.226   5.252 -0.8571  0.8425 -0.3259
  546MOL0     C73595   8.645   8.202   5.113 -0.9918 -0.1182 -0.8386
  546MOL0     C73596   8.531   8.144   5.034 -0.0702 -0.1848  0.4389
  546MOL0     C73597   8.573   8.085   4.907  0.2212 -0.1560  0.2814
  546MOL0     C73598   8.451   8.001   4.843  0.0157 -0.2111  0.3004
  546MOL0     O73599   8.334   8.081   4.822  0.1126  0.3689 -0.2610
  546MOL0     C73600   8.217   8.011   4.788 -0.1757 -0.2980  0.4594
  546MOL0     C73601   8.095   8.082   4.790 -0.4735  0.0706  0.2954
  546MOL0     C73602   7.971   8.029   4.769  0.5415  0.0793 -0.6328
  546MOL0     C73603   7.845   8.119   4.802  0.1284  0.1349  0.6210
  546MOL0     C73604   7.958   7.892   4.737 -0.2531 -0.0450 -0.1398
  546MOL0     C73605   7.826   7.829   4.709 -1.1131 -0.9003 -1.2150
  546MOL0     O73606   7.766   7.864   4.589  0.4396  0.1577  0.5539
  546MOL0     C73607   7.628   7.861   4.598 -0.7557  0.0613 -0.1452
  546MOL0     C73608   7.559   7.750   4.561 -0.1733  0.5325 -0.0878
  546MOL0     C73609   7.425   7.745   4.574  0.5342  0.0499 -0.0250
  546MOL0     C73610   7.342   7.857   4.620 -0.7172  0.4110  0.2431
  546MOL0     O73611   7.204   7.853   4.610  0.0838  0.2651  1.2421
  546MOL0     C73612   7.127   7.937   4.696 -0.5245  0.7417  0.6568
  546MOL0     C73613   6.991   7.873   4.689  0.0898 -0.3863  0.2623
  546MOL0     C73614   6.890   7.934   4.775 -0.3443 -0.7563  0.5304
  546MOL0     C73615   6.760   7.858   4.770 -1.0911  0.8110  0.1017
  546MOL0     C73616   6.649   7.937   4.837 -0.0005  0.1991  0.6090
  546MOL0     C73617   6.561   7.830   4.903  0.2363  0.6387  0.5492
  546MOL0     C73618   6.452   7.891   4.989 -0.6566 -0.8657  0.4892
  546MOL0     C73619   6.351   7.790   5.029 -0.2170  0.4296  0.6700
  546MOL0    Cl73620   6.415   7.663   5.135 -0.0673  0.0267  0.2203
  546MOL0     C73621   7.420   7.968   4.662 -0.1915 -0.1212 -0.3731
  546MOL0     C73622   7.560   7.973   4.641  0.9561  0.2658  1.2608
  546MOL0     O73623   7.782   7.765   4.803  0.6016  0.0586  0.6509
  546MOL0     C73624   8.080   7.816   4.735  0.3021  0.6433 -0.1648
  546MOL0     C73625   8.206   7.868   4.765 -0.3409 -0.4859  0.5180
  546MOL0     N73626   8.624   8.161   5.373  0.0829  0.2509 -0.0610
  546MOL0     N73627   8.549   8.218   5.468  1.0643  0.0639 -0.2247
  546MOL0     C73628   7.840   8.894   5.887 -0.5571 -0.2373  0.3228
  546MOL0     C73629   7.737   8.820   5.938 -0.3755  0.2092  0.4023
  546MOL0     C73630   7.414   8.639   6.183 -0.8878 -0.1359  0.3374
  546MOL0     C73631   7.291   8.687   6.124  0.1585  0.5387 -0.4358
  546MOL0     C73632   7.167   8.640   6.169  0.9499  0.3992 -0.5109
  546MOL0     C73633   7.155   8.575   6.285 -0.4429  0.7802  0.1310
  546MOL0     O73634   7.035   8.541   6.347 -0.0023 -0.4126  0.1468
  546MOL0     C73635   6.910   8.558   6.275  0.0752 -0.0562 -0.7831
  546MOL0     C73636   6.896   8.471   6.145  0.5070  0.2620 -0.7379
  546MOL0     C73637   6.800   8.357   6.158  0.5146  0.2144 -0.2964
  546MOL0     C73638   6.774   8.272   6.034  0.1260  0.9988  1.5367
  546MOL0     C73639   6.901   8.203   5.993  0.2390  0.0479  0.5959
  546MOL0     C73640   7.009   8.147   5.965  0.7394 -0.4647 -0.6999
  546MOL0     C73641   7.273   8.535   6.356 -0.8305 -0.8818  0.4449
  546MOL0     C73642   7.399   8.554   6.298  1.1927  0.0800 -0.3356
  546MOL0     H73643   7.584   9.063   6.125 -0.7533  0.4260 -0.4292
  546MOL0     H73644   7.784   9.196   6.043  0.8329  0.2287  3.1594
  546MOL0     H73645   8.156   9.110   5.814  0.2404 -0.0861  0.8367
  546MOL0     H73646   8.104   8.949   5.866  0.0379 -1.1252 -2.5324
  546MOL0     H73647   7.960   8.978   5.643 -0.6254 -0.4147  2.7658
  546MOL0     H73648   8.063   9.122   5.623 -0.3342  1.8683  0.3011
  546MOL0     H73649   8.175   8.992   5.509 -1.5081  1.9840  0.6558
  546MOL0     H73650   8.257   8.941   5.665 -1.0252  0.3728  1.2616
  546MOL0     H73651   8.134   8.734   5.675 -1.6220  1.6194  0.7863
  546MOL0     H73652   8.037   8.786   5.532  0.1391  0.1404  1.1832
  546MOL0     H73653   8.215   8.781   5.384 -1.0398  2.3296  1.5381
  546MOL0     H73654   8.330   8.747   5.512 -0.9701  1.8623  2.1826
  546MOL0     H73655   8.203   8.545   5.576  0.7383 -0.4458  0.0467
  546MOL0     H73656   8.105   8.569   5.430  0.3672 -0.1587 -1.4858
  546MOL0     H73657   8.250   8.437   5.309  1.4093 -2.6645  0.9665
  546MOL0     H73658   8.368   8.561   5.339  0.2114 -0.0111  0.4215
  546MOL0     H73659   8.302   8.323   5.514 -0.6927  0.0654  0.5477
  546MOL0     H73660   8.422   8.438   5.569  2.2976  0.2564 -0.7639
  546MOL0     H73661   8.477   8.395   5.196  3.3404  2.0636  0.8248
  546MOL0     H73662   8.685   8.291   5.065 -2.3015 -0.5281 -2.7813
  546MOL0     H73663   8.726   8.130   5.127 -1.0104  0.1927  1.1629
  546MOL0     H73664   8.453   8.220   5.021 -3.1936 -3.3417 -0.9007
  546MOL0     H73665   8.494   8.062   5.096 -0.8840  1.2936  2.0040
  546MOL0     H73666   8.668   8.031   4.912  2.9947  3.5052 -4.1389
  546MOL0     H73667   8.583   8.169   4.837 -0.3268 -0.0153  0.3683
  546MOL0     H73668   8.422   7.917   4.908  1.2022 -0.7936  0.1117
  546MOL0     H73669   8.476   7.946   4.752 -0.8893 -0.8911  0.4459
  546MOL0     H73670   8.117   8.184   4.818  4.5584 -1.3212  2.4103
  546MOL0     H73671   7.866   8.198   4.875  0.8071 -1.8170  2.6456
  546MOL0     H73672   7.822   8.151   4.700  0.8969 -1.6525 -0.1595
  546MOL0     H73673   7.761   8.070   4.851 -0.1487 -0.6854 -0.6485
  546MOL0     H73674   7.622   7.667   4.532  0.4754  1.6849 -2.1816
  546MOL0     H73675   7.371   7.653   4.559 -1.3062  0.8320  1.4981
  546MOL0     H73676   7.174   7.931   4.795  0.9899  0.2865 -0.0714
  546MOL0     H73677   7.127   8.039   4.657  0.0943  0.2757 -0.5943
  546MOL0     H73678   6.960   7.887   4.585 -0.9078 -0.5677  0.5287
  546MOL0     H73679   6.997   7.766   4.712  0.2621  0.2405  3.5836
  546MOL0     H73680   6.884   8.041   4.756 -0.7955 -0.5058  1.9577
  546MOL0     H73681   6.929   7.917   4.875  0.1024  2.0456  0.8995
  546MOL0     H73682   6.743   7.840   4.663  0.3704  0.6123 -0.1108
  546MOL0     H73683   6.782   7.762   4.818 -0.6871 -0.3894 -2.2931
  546MOL0     H73684   6.581   7.985   4.766 -0.4015 -0.2427  0.6892
  546MOL0     H73685   6.683   8.013   4.908  2.0197 -2.9016  3.2271
  546MOL0     H73686   6.516   7.772   4.822 -2.7243  2.1603  0.9924
  546MOL0     H73687   6.615   7.766   4.974 -1.0945 -0.2083  0.8162
  546MOL0     H73688   6.393   7.972   4.945  0.6674  1.4815  2.7590
  546MOL0     H73689   6.508   7.920   5.077  0.2122  0.4448 -0.4568
  546MOL0     H73690   6.313   7.745   4.937 -0.2222 -0.4428  1.0896
  546MOL0     H73691   6.269   7.840   5.080 -0.0346 -0.0322  1.4315
  546MOL0     H73692   7.367   8.041   4.723  0.3114 -2.2559  2.8697
  546MOL0     H73693   7.605   8.072   4.652  1.5628  0.6875 -3.2005
  546MOL0     H73694   8.054   7.712   4.721 -0.4628  0.4275  2.3055
  546MOL0     H73695   8.292   7.805   4.745  0.1280  0.4484 -0.5538
  546MOL0     H73696   7.909   8.849   5.816 -1.2666  0.1931 -0.6606
  546MOL0     H73697   7.713   8.722   5.899 -0.7117  0.2790  0.4312
  546MOL0     H73698   7.289   8.756   6.041  2.3276 -1.5126 -2.3368
  546MOL0     H73699   7.074   8.669   6.122 -0.4300  0.2828  1.9904
  546MOL0     H73700   6.826   8.535   6.342  0.2930 -2.3863 -1.2190
  546MOL0     H73701   6.894   8.665   6.259 -3.1106 -0.4880 -1.1992
  546MOL0     H73702   6.994   8.432   6.114  0.1807 -1.3930  0.1976
  546MOL0     H73703   6.861   8.541   6.068 -0.9162  0.0436 -0.3064
  546MOL0     H73704   6.708   8.410   6.185  0.6084  0.3868 -0.3148
  546MOL0     H73705   6.818   8.284   6.238 -2.8471 -3.5401 -2.5901
  546MOL0     H73706   6.722   8.320   5.950 -0.5790 -1.1708  0.6526
  546MOL0     H73707   6.708   8.189   6.062  1.1574  0.2232  1.7144
  546MOL0     H73708   7.105   8.109   5.937  1.2411  1.9189 -2.4723
  546MOL0     H73709   7.267   8.477   6.448 -0.8287 -0.4664  0.7066
  546MOL0     H73710   7.480   8.505   6.351 -1.3866 -3.3344  0.8041
  547MOL0     O73711   4.474  11.274   0.289 -0.5787  0.1296 -0.5075
  547MOL0     C73712   4.504  11.336   0.190 -0.1956  0.2563 -0.4131
  547MOL0     O73713   4.423  11.443   0.144 -0.3755  0.3069  0.0874
  547MOL0     C73714   4.322  11.489   0.227 -0.1466 -0.4962  0.4642
  547MOL0     C73715   4.346  11.592   0.322 -1.3918 -0.2991 -0.7882
  547MOL0     C73716   4.253  11.635   0.414 -0.0775 -0.4038 -0.1220
  547MOL0     C73717   4.121  11.592   0.402  0.1377  0.1758  0.5342
  547MOL0     O73718   4.022  11.640   0.483 -0.3090 -0.8898 -1.2010
  547MOL0     C73719   3.912  11.703   0.419 -0.0544 -0.6871 -0.0117
  547MOL0     C73720   3.810  11.747   0.518  0.5293  0.4328  0.6899
  547MOL0     C73721   3.849  11.876   0.605  0.4392  0.2299  0.2400
  547MOL0     C73722   3.841  12.002   0.527  0.2015 -0.0354 -0.3647
  547MOL0     C73723   3.825  12.121   0.622  0.0406 -0.2741 -0.2700
  547MOL0     C73724   3.875  12.261   0.570  0.2509 -0.2668  0.8036
  547MOL0     C73725   4.029  12.263   0.547 -1.3301 -0.7454  0.8528
  547MOL0     C73726   4.086  12.406   0.524 -0.9292 -0.2578 -0.2266
  547MOL0     N73727   4.182  12.458   0.629  0.0600 -0.2551 -0.0127
  547MOL0     C73728   4.131  12.493   0.746  0.2313 -0.3442 -0.1832
  547MOL0     C73729   4.242  12.538   0.820 -0.1987  0.5713 -0.0522
  547MOL0     C73730   4.234  12.590   0.963  0.1127 -0.4482  0.9096
  547MOL0     C73731   4.130  12.520   1.031  1.3629  0.7916  0.1341
  547MOL0     C73732   4.132  12.566   1.176 -0.0437 -0.1409 -0.0159
  547MOL0     C73733   4.012  12.528   1.257 -0.6196  0.3747  0.1472
  547MOL0     O73734   4.025  12.597   1.377  0.1735 -0.4882 -1.1324
  547MOL0     C73735   3.972  12.725   1.385 -0.7273  0.0867  0.0425
  547MOL0     C73736   3.926  12.806   1.287  0.0910  0.0616  0.7374
  547MOL0     C73737   3.876  12.934   1.310 -0.1914 -0.4752 -0.2987
  547MOL0     C73738   3.839  13.020   1.183 -0.1107 -0.5244  0.2022
  547MOL0     C73739   3.871  12.985   1.434  0.3936  0.2542 -0.4774
  547MOL0     C73740   3.815  13.110   1.474  0.9934 -0.0726  0.3162
  547MOL0     O73741   3.680  13.111   1.510  0.1965 -0.6466 -0.6447
  547MOL0     C73742   3.618  13.231   1.516 -0.1387  0.0582 -0.2805
  547MOL0     C73743   3.641  13.340   1.423 -0.4767 -0.2716 -0.5252
  547MOL0     C73744   3.576  13.459   1.431 -0.6081 -0.2436  0.4907
  547MOL0     C73745   3.465  13.467   1.520  0.1081  0.4264  0.4483
  547MOL0     O73746   3.380  13.577   1.512  0.0542 -0.5256 -0.8557
  547MOL0     C73747   3.454  13.689   1.556 -0.8113  0.0828 -0.1846
  547MOL0     C73748   3.352  13.800   1.555 -0.2792  0.9484 -0.2478
  547MOL0     C73749   3.415  13.938   1.576 -0.8091 -0.4014 -0.6182
  547MOL0     C73750   3.320  14.051   1.539  1.0566 -0.2883 -0.5570
  547MOL0     C73751   3.363  14.186   1.601  0.0843  0.4996  0.3838
  547MOL0     C73752   3.262  14.302   1.563  0.1314  0.2221 -0.6332
  547MOL0     C73753   3.301  14.435   1.629 -0.6068 -0.2969 -0.7733
  547MOL0     C73754   3.438  14.492   1.587 -0.0776  0.8207 -0.1752
  547MOL0    Cl73755   3.449  14.485   1.415  0.2477  0.1589 -0.0987
  547MOL0     C73756   3.436  13.362   1.605 -0.4745 -0.3714 -0.7998
  547MOL0     C73757   3.510  13.246   1.602 -0.1494 -0.9408 -0.3041
  547MOL0     O73758   3.890  13.208   1.478  0.2097  0.6282 -0.1010
  547MOL0     C73759   3.940  12.912   1.532  0.7199  0.5354  0.2644
  547MOL0     C73760   3.990  12.780   1.507  0.7392  0.1201  0.7393
  547MOL0     N73761   4.357  12.511   0.744 -0.1053  0.1998  0.4398
  547MOL0     N73762   4.321  12.456   0.632  0.3183 -0.7292  0.1672
  547MOL0     C73763   4.092  11.501   0.296 -0.8634 -0.2064  0.4137
  547MOL0     C73764   4.192  11.446   0.219  0.0614  0.6165  0.1729
  547MOL0     C73765   4.604  11.274   0.105 -0.1393 -0.0343  0.3751
  547MOL0     C73766   4.671  11.162   0.148  0.7524 -0.6021 -0.1589
  547MOL0     C73767   4.747  11.100   0.053 -0.7230 -0.1832 -0.0397
  547MOL0     C73768   4.769  11.145  -0.077  0.7756 -0.5265  0.4513
  547MOL0     O73769   4.837  11.066  -0.166 -0.3826  0.3467  0.2757
  547MOL0     C73770   4.874  11.097  -0.301  1.1392  0.2713 -0.6675
  547MOL0     C73771   5.010  11.166  -0.304 -0.2681 -0.2669 -0.1132
  547MOL0     C73772   5.049  11.225  -0.439 -0.2496 -0.3119 -1.4196
  547MOL0     C73773   5.161  11.324  -0.424  0.2197 -0.2238  0.7282
  547MOL0     C73774   5.192  11.407  -0.545 -1.2516  0.7858  0.1295
  547MOL0     C73775   5.213  11.466  -0.648 -0.5653 -0.3932  0.4770
  547MOL0     C73776   4.712  11.268  -0.111  0.0343  0.2597  0.5386
  547MOL0     C73777   4.626  11.329  -0.025  0.0267 -0.4167 -0.2060
  547MOL0     H73778   4.448  11.628   0.321 -1.5057  0.1411  0.8885
  547MOL0     H73779   4.281  11.695   0.500 -0.2763 -3.4420  2.2308
  547MOL0     H73780   3.931  11.793   0.360 -2.1184  0.4699  0.9755
  547MOL0     H73781   3.860  11.629   0.357 -0.7142 -0.9564  0.8410
  547MOL0     H73782   3.711  11.766   0.474  1.2810  1.6654 -0.5597
  547MOL0     H73783   3.785  11.661   0.580  0.5977 -0.0363  0.0744
  547MOL0     H73784   3.770  11.887   0.680  0.4963 -0.5728  0.4234
  547MOL0     H73785   3.939  11.850   0.661 -1.0631  0.8198  3.1502
  547MOL0     H73786   3.929  12.006   0.462  0.5224 -2.6103 -0.1887
  547MOL0     H73787   3.757  11.993   0.456 -0.4749 -0.6326  0.4880
  547MOL0     H73788   3.724  12.129   0.663 -0.1386  3.1741 -1.0350
  547MOL0     H73789   3.887  12.100   0.710 -0.5608  2.6916  0.9707
  547MOL0     H73790   3.831  12.268   0.470 -0.6244  0.2264  1.2099
  547MOL0     H73791   3.848  12.342   0.637 -1.1018 -0.9501  1.1286
  547MOL0     H73792   4.068  12.220   0.639 -0.2669  0.4330  0.9853
  547MOL0     H73793   4.062  12.194   0.469 -1.9419  0.0788 -0.1653
  547MOL0     H73794   4.000  12.472   0.510 -2.4687 -2.1236  0.0141
  547MOL0     H73795   4.131  12.407   0.425 -0.0134 -2.5592  0.1043
  547MOL0     H73796   4.028  12.484   0.778 -0.3924  1.4153 -1.5163
  547MOL0     H73797   4.337  12.596   1.001  0.7000 -0.6369 -0.5680
  547MOL0     H73798   4.216  12.696   0.945  2.7124 -0.6084 -5.5556
  547MOL0     H73799   4.139  12.411   1.034 -3.9588  0.0931  2.9613
  547MOL0     H73800   4.034  12.546   0.984  1.1047  0.0962  0.2712
  547MOL0     H73801   4.143  12.675   1.177  1.1848 -0.2422 -0.7896
  547MOL0     H73802   4.222  12.529   1.226 -0.4475  1.5240  2.0544
  547MOL0     H73803   4.018  12.424   1.289 -3.3553  0.2181  0.3506
  547MOL0     H73804   3.919  12.545   1.201  1.6757  0.8184 -3.9568
  547MOL0     H73805   3.921  12.765   1.186  2.2519 -4.1419  2.1103
  547MOL0     H73806   3.929  13.044   1.126  0.1068  2.3097  1.5704
  547MOL0     H73807   3.770  12.968   1.116  1.8247  0.8532 -3.1185
  547MOL0     H73808   3.789  13.116   1.195  1.3283  0.3950 -0.8660
  547MOL0     H73809   3.711  13.338   1.341  1.5526  2.1920  0.9816
  547MOL0     H73810   3.609  13.534   1.359 -0.1776 -2.8381 -2.2095
  547MOL0     H73811   3.510  13.670   1.647 -0.1984 -1.7147 -0.8882
  547MOL0     H73812   3.523  13.705   1.472 -2.7077 -0.5087 -1.9480
  547MOL0     H73813   3.298  13.787   1.461 -3.6427 -2.2550  1.8745
  547MOL0     H73814   3.264  13.785   1.618 -2.1477 -1.0775 -3.1145
  547MOL0     H73815   3.495  13.959   1.504 -1.3428 -0.6789 -1.3044
  547MOL0     H73816   3.464  13.952   1.673 -0.5408  1.0856 -0.9368
  547MOL0     H73817   3.301  14.060   1.432 -0.8554 -0.9113 -0.3039
  547MOL0     H73818   3.218  14.031   1.573  0.4339  1.3213 -1.3848
  547MOL0     H73819   3.463  14.208   1.563  0.5208 -1.2727  0.4196
  547MOL0     H73820   3.380  14.173   1.709 -0.2803  0.8728  0.4917
  547MOL0     H73821   3.263  14.310   1.454 -0.9718 -0.0052 -0.6692
  547MOL0     H73822   3.163  14.271   1.598 -0.9489  3.6602 -0.2852
  547MOL0     H73823   3.304  14.421   1.738 -1.0436 -0.3756 -0.7684
  547MOL0     H73824   3.218  14.504   1.610  0.7413  1.5126 -0.3242
  547MOL0     H73825   3.530  14.441   1.619 -1.9361 -3.2991 -0.7872
  547MOL0     H73826   3.447  14.588   1.638 -2.0113 -0.9296  3.9283
  547MOL0     H73827   3.363  13.370   1.686  1.2159  0.5339  0.7286
  547MOL0     H73828   3.486  13.157   1.658 -0.2451 -0.4960  0.3699
  547MOL0     H73829   3.959  12.954   1.630  3.1163 -2.2242  1.1103
  547MOL0     H73830   4.040  12.732   1.591  0.8775 -0.6085  0.2456
  547MOL0     H73831   3.989  11.474   0.279 -0.9390  0.9303 -1.1458
  547MOL0     H73832   4.154  11.374   0.148  0.1472 -1.8756  2.4958
  547MOL0     H73833   4.660  11.112   0.244  0.8616 -3.8536 -1.6961
  547MOL0     H73834   4.810  11.015   0.077  1.7584  2.1606  2.3470
  547MOL0     H73835   4.879  11.000  -0.350  1.1718 -1.2176  2.0619
  547MOL0     H73836   4.810  11.165  -0.359  0.7979  0.6522  0.1359
  547MOL0     H73837   5.091  11.098  -0.274  1.4441  1.5729 -0.3764
  547MOL0     H73838   5.006  11.251  -0.236  1.3110 -1.7115  1.9241
  547MOL0     H73839   4.970  11.271  -0.499 -0.2632 -0.0416 -1.1952
  547MOL0     H73840   5.086  11.143  -0.502 -0.2623 -2.4948  1.2576
  547MOL0     H73841   5.251  11.274  -0.388  0.8238  0.1645 -0.2034
  547MOL0     H73842   5.138  11.395  -0.344  0.9508  1.4939 -0.5207
  547MOL0     H73843   5.225  11.529  -0.734 -2.0166  0.4260  0.8601
  547MOL0     H73844   4.727  11.311  -0.210 -3.3638  0.7615  0.1461
  547MOL0     H73845   4.565  11.416  -0.047 -2.6509 -2.6382 -2.2136
  548MOL0     O73846   2.116  10.751   0.137  0.1725  0.6974  0.0017
  548MOL0     C73847   2.108  10.757   0.259  0.5489 -0.4930  0.4143
  548MOL0     O73848   1.989  10.770   0.335 -0.1725  0.1319  0.1690
  548MOL0     C73849   1.870  10.788   0.277  0.2615 -0.2332  0.2913
  548MOL0     C73850   1.844  10.866   0.157  0.7768  0.2412  0.7358
  548MOL0     C73851   1.717  10.885   0.100  0.8965  0.5494  0.2109
  548MOL0     C73852   1.603  10.838   0.162 -1.0864 -0.5782 -0.3355
  548MOL0     O73853   1.475  10.847   0.113  0.3221 -0.1139 -0.1812
  548MOL0     C73854   1.468  10.908  -0.018 -0.6325 -0.2377 -0.4725
  548MOL0     C73855   1.322  10.910  -0.070 -0.0485  0.8889  0.0244
  548MOL0     C73856   1.203  10.968   0.020  0.4859  1.1481  0.1407
  548MOL0     C73857   1.066  10.917  -0.032  0.0454  0.0147 -0.3487
  548MOL0     C73858   0.957  10.979   0.052 -0.5297 -0.8003 -0.3779
  548MOL0     C73859   0.827  10.958  -0.023  0.3778  0.6880  0.5485
  548MOL0     C73860   0.700  10.983   0.060 -0.0747 -0.0808  0.1006
  548MOL0     C73861   0.572  10.922   0.001 -0.0100 -0.5933 -0.4453
  548MOL0     N73862   0.517  10.979  -0.119 -0.2429  0.0326 -0.4378
  548MOL0     C73863   0.396  10.941  -0.176 -0.6192 -0.0484 -0.0511
  548MOL0     C73864   0.369  11.045  -0.262 -0.0812 -0.6077  0.0162
  548MOL0     C73865   0.242  11.057  -0.346  0.0969  0.2325 -0.2174
  548MOL0     C73866   0.130  11.113  -0.259  0.9532 -0.8837 -0.3765
  548MOL0     C73867   0.066  11.013  -0.153 -0.2931 -0.4825 -0.2678
  548MOL0     C73868   0.035  10.868  -0.205  0.1916 -0.0008 -0.0096
  548MOL0     O73869  -0.066  10.880  -0.306 -0.0376 -0.5823 -0.9652
  548MOL0     C73870  -0.132  10.767  -0.338 -0.5498  0.0711  0.0626
  548MOL0     C73871  -0.134  10.737  -0.477  0.3232 -1.0313 -0.3056
  548MOL0     C73872  -0.223  10.644  -0.522  0.9846  1.1678 -0.2258
  548MOL0     C73873  -0.242  10.643  -0.674  0.4086 -0.0707  0.3777
  548MOL0     C73874  -0.290  10.552  -0.428 -0.5000  1.1582 -0.0655
  548MOL0     C73875  -0.353  10.411  -0.473 -0.2983  0.4056  0.5596
  548MOL0     O73876  -0.420  10.342  -0.381 -0.1187  0.2132 -0.1084
  548MOL0     C73877  -0.513  10.246  -0.418  0.1688 -0.1815  0.3927
  548MOL0     C73878  -0.518  10.138  -0.338  0.1583 -0.7796 -1.6423
  548MOL0     C73879  -0.602  10.026  -0.366  0.3989 -0.3993 -0.6166
  548MOL0     C73880  -0.683  10.036  -0.483  0.9126 -0.2125  0.1947
  548MOL0     O73881  -0.745   9.913  -0.517 -0.8930  0.0064 -0.2170
  548MOL0     C73882  -0.807   9.904  -0.643  0.4699  0.2185  0.0406
  548MOL0     C73883  -0.881   9.769  -0.640 -0.3881 -0.8113 -0.0235
  548MOL0     C73884  -0.929   9.709  -0.766  0.1919  0.2234 -0.2305
  548MOL0     C73885  -1.010   9.807  -0.846  1.0867  0.4648  0.2250
  548MOL0     C73886  -1.037   9.736  -0.977  0.2314 -0.4515  0.1355
  548MOL0     C73887  -1.121   9.824  -1.066  0.0197  0.2628 -0.0423
  548MOL0     C73888  -1.180   9.744  -1.187 -0.2011  0.1292  0.6880
  548MOL0     C73889  -1.309   9.799  -1.256 -0.3950  1.1529  0.2302
  548MOL0    Cl73890  -1.458   9.764  -1.158 -0.2341  0.1163 -0.5501
  548MOL0     C73891  -0.666  10.141  -0.577  0.5054  0.2175 -0.0645
  548MOL0     C73892  -0.584  10.242  -0.540  0.1542  0.2898 -0.8118
  548MOL0     O73893  -0.306  10.367  -0.576  0.3329  0.2319  0.3604
  548MOL0     C73894  -0.278  10.579  -0.292  0.2554 -0.1068 -0.4320
  548MOL0     C73895  -0.206  10.694  -0.244  1.1802  0.2657 -0.3491
  548MOL0     N73896   0.475  11.122  -0.264  0.5177 -0.1345 -0.0016
  548MOL0     N73897   0.568  11.086  -0.178 -0.3653  0.2295  0.3692
  548MOL0     C73898   1.623  10.767   0.283  0.1141  0.1014 -0.2271
  548MOL0     C73899   1.756  10.741   0.342  0.4235  0.5628 -0.1650
  548MOL0     C73900   2.230  10.745   0.333  0.6532 -1.1601 -0.0842
  548MOL0     C73901   2.361  10.758   0.276  1.0064  0.0351  0.4495
  548MOL0     C73902   2.479  10.755   0.353 -0.1829  0.6215  0.2309
  548MOL0     C73903   2.475  10.750   0.485  0.0425 -0.9902 -0.6705
  548MOL0     O73904   2.585  10.742   0.562  0.0181  0.0777 -0.0755
  548MOL0     C73905   2.700  10.811   0.518 -0.1015 -0.2812  0.5522
  548MOL0     C73906   2.777  10.860   0.641 -0.6754 -0.8440  0.0569
  548MOL0     C73907   2.850  10.736   0.723  1.2322 -0.8115  0.6072
  548MOL0     C73908   2.954  10.767   0.835 -0.4721  0.0598 -0.5297
  548MOL0     C73909   2.915  10.882   0.908 -0.3355 -0.4267  0.1402
  548MOL0     C73910   2.866  10.976   0.965  0.0093  0.0337  0.2585
  548MOL0     C73911   2.351  10.752   0.551 -0.1288  1.2552  0.6763
  548MOL0     C73912   2.232  10.744   0.476 -0.3774  0.3447  0.9496
  548MOL0     H73913   1.928  10.901   0.097  0.4709 -1.1571 -0.5643
  548MOL0     H73914   1.716  10.928   0.000  1.7359 -1.0757 -0.5343
  548MOL0     H73915   1.510  11.008  -0.027 -1.7154  0.1086 -2.1823
  548MOL0     H73916   1.528  10.850  -0.089  0.7210  1.5474 -0.8442
  548MOL0     H73917   1.315  10.954  -0.170  0.5364  0.0384 -0.4023
  548MOL0     H73918   1.295  10.804  -0.070  1.3624  0.2626  5.1719
  548MOL0     H73919   1.200  10.936   0.125 -0.9421  1.7681  0.3121
  548MOL0     H73920   1.222  11.074   0.005 -0.0525  0.9557 -2.3807
  548MOL0     H73921   1.059  10.944  -0.138  0.9081  1.6293 -0.0316
  548MOL0     H73922   1.044  10.811  -0.018  1.2637 -0.1197  0.7334
  548MOL0     H73923   0.959  10.922   0.146  1.9450 -0.4188 -0.1161
  548MOL0     H73924   0.966  11.084   0.078 -0.0015 -0.0598 -3.2186
  548MOL0     H73925   0.836  11.030  -0.104  2.7163  0.7491  0.7969
  548MOL0     H73926   0.819  10.855  -0.061  0.2328  1.5665 -1.9665
  548MOL0     H73927   0.727  10.926   0.149  2.5396  0.3737 -0.3133
  548MOL0     H73928   0.692  11.091   0.079  0.3263  0.9152 -4.4122
  548MOL0     H73929   0.494  10.928   0.077  0.6327 -0.5723  0.2211
  548MOL0     H73930   0.597  10.816  -0.004 -1.4577 -1.2392  3.4116
  548MOL0     H73931   0.331  10.855  -0.164  1.9840 -2.2259 -0.6160
  548MOL0     H73932   0.272  11.118  -0.431 -3.0527 -0.5082 -2.0249
  548MOL0     H73933   0.204  10.967  -0.395  2.9078 -0.8345 -0.6253
  548MOL0     H73934   0.045  11.146  -0.321 -1.8338 -4.0500  1.4321
  548MOL0     H73935   0.170  11.200  -0.206  0.4442  0.8073 -2.5680
  548MOL0     H73936  -0.016  11.049  -0.090  0.1923 -2.1722  1.4197
  548MOL0     H73937   0.142  11.011  -0.074  1.4688  0.7910 -1.8525
  548MOL0     H73938  -0.005  10.803  -0.127 -1.1495  0.1174 -0.5636
  548MOL0     H73939   0.131  10.821  -0.228  0.7298  0.5564  1.0002
  548MOL0     H73940  -0.087  10.805  -0.547 -0.6204 -0.7973 -0.7289
  548MOL0     H73941  -0.206  10.551  -0.721 -2.3636 -1.1467  0.1931
  548MOL0     H73942  -0.347  10.636  -0.701  0.2920  1.2475  0.4266
  548MOL0     H73943  -0.209  10.735  -0.722 -0.5368 -0.3701 -0.8836
  548MOL0     H73944  -0.447  10.126  -0.257  0.3985 -0.4575 -1.8021
  548MOL0     H73945  -0.609   9.947  -0.292 -0.6585 -0.8738 -1.2102
  548MOL0     H73946  -0.883   9.981  -0.659  0.1763  0.0537  0.5818
  548MOL0     H73947  -0.727   9.901  -0.717  0.8878  0.3665  0.4795
  548MOL0     H73948  -0.818   9.690  -0.598 -0.5248 -1.9617 -1.8679
  548MOL0     H73949  -0.968   9.792  -0.577 -1.2441  0.5672 -1.6398
  548MOL0     H73950  -0.992   9.622  -0.749  0.3091 -0.0003 -0.9229
  548MOL0     H73951  -0.843   9.682  -0.828  1.3975  1.7212  0.7025
  548MOL0     H73952  -1.106   9.832  -0.798 -1.0154 -0.4726 -3.1525
  548MOL0     H73953  -0.958   9.901  -0.866  0.6899  1.0125  1.6161
  548MOL0     H73954  -1.093   9.643  -0.965 -2.7315  1.1036 -0.6345
  548MOL0     H73955  -0.938   9.718  -1.021  1.0522 -0.6622  1.9574
  548MOL0     H73956  -1.202   9.873  -1.012  2.2182  1.4413  2.3826
  548MOL0     H73957  -1.058   9.903  -1.108  0.3937  0.5808  1.0805
  548MOL0     H73958  -1.194   9.638  -1.164  3.4738 -1.3753 -2.7968
  548MOL0     H73959  -1.098   9.747  -1.259 -0.1467 -1.7310  0.6256
  548MOL0     H73960  -1.319   9.757  -1.357  3.3709  1.3040 -0.3199
  548MOL0     H73961  -1.305   9.907  -1.275  1.5815  1.0291 -0.2349
  548MOL0     H73962  -0.710  10.140  -0.676 -1.0581 -0.9891  0.5978
  548MOL0     H73963  -0.567  10.324  -0.609 -0.4774 -0.4641 -1.8709
  548MOL0     H73964  -0.324  10.507  -0.224  2.9769 -2.3990 -0.8150
  548MOL0     H73965  -0.201  10.735  -0.143  1.3958  1.0886 -0.6797
  548MOL0     H73966   1.526  10.724   0.304  0.4815 -1.7354 -2.0306
  548MOL0     H73967   1.775  10.689   0.435 -0.1653  2.2385  0.9279
  548MOL0     H73968   2.372  10.763   0.168 -1.0768  2.1287  0.2424
  548MOL0     H73969   2.570  10.759   0.295  1.5818 -0.7536  2.7016
  548MOL0     H73970   2.760  10.747   0.453  0.7657  2.8937 -2.0037
  548MOL0     H73971   2.681  10.901   0.459 -1.6427 -0.5934  0.5251
  548MOL0     H73972   2.707  10.913   0.706  2.9613  2.5218  1.7167
  548MOL0     H73973   2.852  10.938   0.619 -1.2338 -1.0225 -2.8308
  548MOL0     H73974   2.899  10.674   0.647  2.1941  1.1941 -0.5098
  548MOL0     H73975   2.776  10.677   0.776  0.4616 -1.6546 -1.2999
  548MOL0     H73976   3.053  10.786   0.793  1.3083 -1.3954  2.5762
  548MOL0     H73977   2.963  10.680   0.901 -2.0631  1.8171  2.2380
  548MOL0     H73978   2.827  11.052   1.029 -2.8556 -1.9473  1.0350
  548MOL0     H73979   2.359  10.735   0.658  1.4000 -3.6073  0.0090
  548MOL0     H73980   2.137  10.752   0.529 -0.7109  1.4448  0.2261
  549MOL0     O73981   7.338   7.327   9.147  0.1286 -0.1163 -0.1755
  549MOL0     C73982   7.437   7.307   9.217 -0.2583  1.0566  0.3285
  549MOL0     O73983   7.441   7.251   9.341  0.2148 -0.2417 -0.5490
  549MOL0     C73984   7.329   7.234   9.419  0.0299  0.8736  0.9023
  549MOL0     C73985   7.339   7.137   9.517  0.2809 -0.5558  0.5711
  549MOL0     C73986   7.237   7.104   9.608  0.0611 -0.9245  0.2556
  549MOL0     C73987   7.114   7.175   9.597  0.1355 -1.0157  0.0475
  549MOL0     O73988   7.002   7.162   9.670 -0.2392  0.2778  0.7943
  549MOL0     C73989   7.020   7.153   9.810  0.0087  0.3901  0.0507
  549MOL0     C73990   7.076   7.029   9.880  0.3705 -0.3632 -0.1332
  549MOL0     C73991   7.013   6.900   9.821 -0.0651  0.2241 -0.1374
  549MOL0     C73992   7.025   6.774   9.918 -0.8409  0.4772 -0.9179
  549MOL0     C73993   7.168   6.723   9.914 -0.0413 -0.6137  0.7706
  549MOL0     C73994   7.207   6.620  10.030  0.3284  0.7928  0.2624
  549MOL0     C73995   7.359   6.570  10.039  0.5871  0.0522 -0.0575
  549MOL0     C73996   7.375   6.430  10.095 -0.1305  0.0349  0.2408
  549MOL0     N73997   7.347   6.317  10.001  0.2773  0.1967 -0.3647
  549MOL0     C73998   7.440   6.264   9.912 -0.6309 -0.7366  0.4609
  549MOL0     C73999   7.359   6.178   9.839  0.4761 -0.2927 -0.8347
  549MOL0     C74000   7.422   6.084   9.740  0.4638 -0.0190  0.9913
  549MOL0     C74001   7.434   6.146   9.603  0.5951  0.4548  0.8097
  549MOL0     C74002   7.535   6.259   9.593 -0.3518  0.3098  0.2937
  549MOL0     C74003   7.531   6.320   9.453 -1.0479  0.4372  0.0408
  549MOL0     O74004   7.645   6.412   9.422 -0.2274  1.1490  0.6556
  549MOL0     C74005   7.657   6.535   9.484  0.1051 -1.0172 -1.2841
  549MOL0     C74006   7.761   6.623   9.448 -0.6003  0.8505  0.4825
  549MOL0     C74007   7.770   6.756   9.490  0.2146  1.0699 -0.7406
  549MOL0     C74008   7.883   6.837   9.431  0.2942  0.2234  0.3423
  549MOL0     C74009   7.665   6.813   9.576 -0.5805 -0.4797  0.8732
  549MOL0     C74010   7.667   6.954   9.621 -0.3289  0.1218 -0.7331
  549MOL0     O74011   7.781   7.039   9.603  0.0310 -0.5644  0.2026
  549MOL0     C74012   7.794   7.170   9.636 -0.2470 -0.7896 -0.6212
  549MOL0     C74013   7.689   7.258   9.598  1.1035 -0.4170 -0.2158
  549MOL0     C74014   7.692   7.395   9.637 -0.4103 -0.8106  0.1873
  549MOL0     C74015   7.801   7.441   9.700 -0.5740  0.8125 -0.8862
  549MOL0     O74016   7.820   7.569   9.752  0.1399  0.8201  0.3706
  549MOL0     C74017   7.712   7.639   9.803 -0.2451  0.2320  0.8305
  549MOL0     C74018   7.763   7.759   9.883  0.3587  0.3293  0.9666
  549MOL0     C74019   7.840   7.860   9.793 -0.3180  0.5157  0.4888
  549MOL0     C74020   7.855   7.988   9.874 -0.8270  0.1169  0.2219
  549MOL0     C74021   7.963   8.082   9.815  0.6655  0.9211  0.5410
  549MOL0     C74022   7.953   8.118   9.667 -0.1082 -0.1295 -0.1622
  549MOL0     C74023   8.058   8.232   9.634 -0.5035 -0.6735  0.5645
  549MOL0     C74024   8.017   8.305   9.502 -0.2823  0.6234 -0.4088
  549MOL0    Cl74025   7.875   8.413   9.527  0.0456 -0.2247 -0.1338
  549MOL0     C74026   7.911   7.352   9.735 -0.2008  0.3451  0.4105
  549MOL0     C74027   7.907   7.216   9.707  0.5471 -0.8063  0.2617
  549MOL0     O74028   7.576   6.981   9.691  0.5642 -0.5413  0.3403
  549MOL0     C74029   7.560   6.729   9.610  0.2400  0.0419 -0.3150
  549MOL0     C74030   7.561   6.593   9.567  0.3914  1.0172  0.4950
  549MOL0     N74031   7.229   6.182   9.889 -0.0950  0.8632  0.3196
  549MOL0     N74032   7.220   6.268   9.979 -0.5549  0.4899  0.1479
  549MOL0     C74033   7.099   7.274   9.494 -0.1875 -0.3351 -0.3444
  549MOL0     C74034   7.203   7.297   9.397 -0.1492  0.3872 -0.0203
  549MOL0     C74035   7.571   7.340   9.156 -0.2627 -0.2621 -0.1640
  549MOL0     C74036   7.680   7.375   9.232 -0.2038 -0.2407  0.0561
  549MOL0     C74037   7.807   7.382   9.177 -0.1526 -0.1877 -0.1016
  549MOL0     C74038   7.838   7.368   9.042  1.6450  0.5646 -0.3448
  549MOL0     O74039   7.954   7.371   8.980 -0.4597  0.9548 -0.2545
  549MOL0     C74040   8.066   7.390   9.059  0.7662 -0.5630 -0.4581
  549MOL0     C74041   8.196   7.385   8.978 -0.0691 -0.1455 -0.2837
  549MOL0     C74042   8.319   7.438   9.055  0.3852  0.2452  0.5372
  549MOL0     C74043   8.436   7.473   8.966 -0.5617 -0.2322  0.0883
  549MOL0     C74044   8.405   7.599   8.892 -0.2436 -0.2494 -0.1514
  549MOL0     C74045   8.382   7.687   8.808 -0.9897 -0.7096 -0.1206
  549MOL0     C74046   7.721   7.342   8.963 -0.5438  0.4567  0.0178
  549MOL0     C74047   7.591   7.332   9.016 -0.4903  0.5765 -0.4781
  549MOL0     H74048   7.438   7.093   9.520  0.1802 -0.8299  0.0361
  549MOL0     H74049   7.268   7.036   9.687  0.7589  0.4379  1.1974
  549MOL0     H74050   7.085   7.237   9.838 -1.1955  0.7062  2.0377
  549MOL0     H74051   6.925   7.179   9.857 -0.6445  0.4916 -1.2700
  549MOL0     H74052   7.185   7.028   9.868  0.8005  3.4131  1.6929
  549MOL0     H74053   7.060   7.050   9.987  0.8242  2.2632 -0.5184
  549MOL0     H74054   6.905   6.916   9.819  0.1469  2.3437  1.7745
  549MOL0     H74055   7.059   6.872   9.726  2.5599  0.9574  0.8425
  549MOL0     H74056   7.004   6.802  10.021 -0.8741 -1.1383 -0.4567
  549MOL0     H74057   6.963   6.694   9.876  0.0328  0.0991 -1.5222
  549MOL0     H74058   7.186   6.686   9.813 -1.8702 -1.1580  0.6158
  549MOL0     H74059   7.236   6.808   9.930 -1.2017  0.9657 -1.9478
  549MOL0     H74060   7.179   6.669  10.124  2.6472  2.8843 -0.0323
  549MOL0     H74061   7.143   6.531  10.023  0.2703  0.3089  4.5085
  549MOL0     H74062   7.415   6.579   9.945  0.9221  4.3248  0.3725
  549MOL0     H74063   7.411   6.638  10.107  0.4123 -2.3019  2.6144
  549MOL0     H74064   7.314   6.429  10.186  0.7050  4.2816  1.0688
  549MOL0     H74065   7.483   6.427  10.113  0.2465 -0.2219 -1.8553
  549MOL0     H74066   7.547   6.274   9.903 -0.1793 -3.7495  1.3113
  549MOL0     H74067   7.519   6.051   9.777 -0.1565 -3.3215 -0.0015
  549MOL0     H74068   7.369   5.989   9.729  0.1460  0.2656 -0.0991
  549MOL0     H74069   7.335   6.179   9.569 -0.1543 -2.9408 -0.7226
  549MOL0     H74070   7.449   6.068   9.527 -1.1820  2.2581 -1.5688
  549MOL0     H74071   7.636   6.219   9.601  1.5909  4.5041 -0.5774
  549MOL0     H74072   7.518   6.332   9.672 -0.9168  0.1406  0.3326
  549MOL0     H74073   7.438   6.377   9.446  0.1822  2.3919 -1.7933
  549MOL0     H74074   7.539   6.236   9.384  0.0239 -4.2870  5.1548
  549MOL0     H74075   7.831   6.591   9.372  1.7442  0.1549  2.8256
  549MOL0     H74076   7.962   6.772   9.392  0.1439 -0.5582  1.3097
  549MOL0     H74077   7.845   6.902   9.351  0.3900 -0.0163  0.1007
  549MOL0     H74078   7.939   6.905   9.497  2.0484 -0.4009 -0.4311
  549MOL0     H74079   7.596   7.212   9.568  1.6789 -1.2447 -0.7831
  549MOL0     H74080   7.608   7.462   9.625 -0.7569 -1.4522 -1.2125
  549MOL0     H74081   7.654   7.676   9.718  2.0185 -1.4624 -1.6259
  549MOL0     H74082   7.646   7.573   9.860 -2.0916  0.7287 -0.6196
  549MOL0     H74083   7.682   7.809   9.936 -1.5122  0.3093 -1.6876
  549MOL0     H74084   7.832   7.722   9.959  2.6832 -0.4023 -1.3436
  549MOL0     H74085   7.792   7.880   9.697  1.6276 -0.1905 -0.6967
  549MOL0     H74086   7.938   7.815   9.774 -0.7873 -1.7691  2.8496
  549MOL0     H74087   7.755   8.030   9.885 -0.8994 -0.0021  0.0018
  549MOL0     H74088   7.903   7.969   9.971  2.5594  1.5046 -1.0098
  549MOL0     H74089   8.061   8.034   9.813 -0.1828 -0.9674  1.5570
  549MOL0     H74090   7.973   8.169   9.881 -1.4137 -0.5732  3.0230
  549MOL0     H74091   7.975   8.026   9.613 -1.3052  0.2772 -1.4125
  549MOL0     H74092   7.852   8.157   9.653  0.2442  0.8383 -0.1231
  549MOL0     H74093   8.152   8.181   9.611  0.0465  1.0117 -1.2506
  549MOL0     H74094   8.068   8.293   9.725  2.9870 -0.2183  0.0150
  549MOL0     H74095   7.983   8.224   9.436 -1.0581 -1.5897  2.4929
  549MOL0     H74096   8.110   8.351   9.468  0.9640 -0.7229  0.9720
  549MOL0     H74097   8.004   7.396   9.770  0.9980 -0.6925 -1.3068
  549MOL0     H74098   8.001   7.162   9.716  2.5532  2.6315  2.2463
  549MOL0     H74099   7.493   6.761   9.688 -2.2738 -0.3017 -2.1887
  549MOL0     H74100   7.480   6.531   9.604  0.6395  0.0342 -0.5638
  549MOL0     H74101   7.013   7.340   9.491  2.9859  4.3381  0.0099
  549MOL0     H74102   7.177   7.367   9.318 -1.0569 -1.3474 -1.3340
  549MOL0     H74103   7.670   7.398   9.337 -0.1596  0.0201  0.0044
  549MOL0     H74104   7.885   7.404   9.250  1.7923 -1.5548 -1.6434
  549MOL0     H74105   8.064   7.489   9.105  0.9543 -0.6381 -0.2853
  549MOL0     H74106   8.070   7.313   9.137  3.6438 -1.0952 -1.0264
  549MOL0     H74107   8.180   7.446   8.887  2.6183 -0.1804 -0.8379
  549MOL0     H74108   8.221   7.286   8.941 -1.0908 -0.3282 -0.5375
  549MOL0     H74109   8.363   7.360   9.118  0.1025 -1.5178 -1.3431
  549MOL0     H74110   8.290   7.527   9.111 -0.6044 -2.1129  4.0924
  549MOL0     H74111   8.468   7.386   8.908 -1.2370 -0.6402  0.3191
  549MOL0     H74112   8.521   7.495   9.032 -0.9114 -0.9767  0.8110
  549MOL0     H74113   8.367   7.768   8.739  2.8192  1.3085  1.1436
  549MOL0     H74114   7.730   7.306   8.861 -3.2957 -1.4481  0.3426
  549MOL0     H74115   7.516   7.296   8.946  0.6838 -2.0152 -0.5480
  550MOL0     O74116   3.468   5.049   7.965 -0.1940  0.0045 -0.2358
  550MOL0     C74117   3.449   5.100   7.852 -0.2235 -0.4131  0.1623
  550MOL0     O74118   3.545   5.134   7.762  0.7435 -0.0150  0.5320
  550MOL0     C74119   3.677   5.108   7.790 -0.5500 -0.5879  0.2428
  550MOL0     C74120   3.753   5.196   7.867 -0.5358  0.8845 -0.7864
  550MOL0     C74121   3.885   5.166   7.904  0.1759 -0.4944  0.1335
  550MOL0     C74122   3.937   5.049   7.867 -1.1484 -0.1818  0.5249
  550MOL0     O74123   4.055   5.016   7.924 -0.9314  0.0662  0.3609
  550MOL0     C74124   4.102   4.880   7.936  0.4646 -1.3242  0.8141
  550MOL0     C74125   4.241   4.888   7.985 -0.5003  0.5002  0.4928
  550MOL0     C74126   4.345   4.923   7.878  0.3040 -0.3502 -0.5191
  550MOL0     C74127   4.353   4.820   7.764 -0.1590  0.1583  0.2750
  550MOL0     C74128   4.490   4.820   7.696 -0.5900 -0.5010  0.2253
  550MOL0     C74129   4.504   4.941   7.597 -0.6016  0.4700 -0.0042
  550MOL0     C74130   4.655   4.981   7.572  0.3454  0.2060  0.8495
  550MOL0     C74131   4.674   5.107   7.487 -0.6927 -0.3650  0.9519
  550MOL0     N74132   4.606   5.231   7.530 -0.3352  0.3769 -0.0328
  550MOL0     C74133   4.640   5.316   7.643  0.0537  0.8503 -0.3148
  550MOL0     C74134   4.578   5.435   7.615  0.6759  0.0901 -0.0025
  550MOL0     C74135   4.573   5.535   7.724  0.6895  0.6630 -0.1095
  550MOL0     C74136   4.494   5.475   7.850 -0.7577  0.0456  0.2920
  550MOL0     C74137   4.345   5.451   7.830 -0.2207  0.4053 -0.2902
  550MOL0     C74138   4.286   5.364   7.944 -0.4794  0.1052  0.3752
  550MOL0     O74139   4.237   5.452   8.052  0.0498  0.0801 -0.0105
  550MOL0     C74140   4.136   5.415   8.150 -0.0043 -0.1825  0.5649
  550MOL0     C74141   4.073   5.508   8.223 -0.1731  0.1150 -0.8853
  550MOL0     C74142   3.975   5.469   8.314 -0.0279 -0.6073 -0.2478
  550MOL0     C74143   3.926   5.586   8.395  0.5877  0.1844 -1.2331
  550MOL0     C74144   3.940   5.335   8.334  0.5729  1.0398  0.0544
  550MOL0     C74145   3.820   5.290   8.419  0.0680 -0.4911 -0.0438
  550MOL0     O74146   3.822   5.158   8.463  0.0475  0.4468 -0.1424
  550MOL0     C74147   3.760   5.120   8.577  0.0517 -0.4481 -0.4029
  550MOL0     C74148   3.748   5.194   8.689 -0.1155 -0.4051 -0.6000
  550MOL0     C74149   3.693   5.148   8.806  0.1885  1.0816 -0.7735
  550MOL0     C74150   3.649   5.013   8.814 -0.9239  0.1667 -0.2470
  550MOL0     O74151   3.620   4.959   8.935  0.6540 -0.3255  0.3082
  550MOL0     C74152   3.482   4.927   8.946 -0.4876  0.1507  0.2517
  550MOL0     C74153   3.452   4.854   9.079 -0.0070  0.1742 -0.0072
  550MOL0     C74154   3.321   4.778   9.088 -0.2824 -0.3718 -1.1476
  550MOL0     C74155   3.254   4.769   9.231  0.3552 -0.4641 -0.1987
  550MOL0     C74156   3.111   4.710   9.221 -0.0697 -0.0524  0.8810
  550MOL0     C74157   3.116   4.564   9.258 -0.0327  0.1020  0.3248
  550MOL0     C74158   2.973   4.502   9.255  0.0411 -0.0591 -0.1463
  550MOL0     C74159   2.953   4.358   9.300 -0.6201  0.1071 -0.0325
  550MOL0    Cl74160   3.016   4.308   9.457 -0.1599  0.0387 -0.1991
  550MOL0     C74161   3.647   4.938   8.695  0.2488  0.4308  0.6573
  550MOL0     C74162   3.714   4.985   8.577 -0.5932  0.8671 -0.8754
  550MOL0     O74163   3.737   5.379   8.460  0.1519 -0.2492  0.5604
  550MOL0     C74164   4.023   5.233   8.280  0.2675 -0.0271  0.3376
  550MOL0     C74165   4.112   5.272   8.184 -0.9773 -0.1746 -0.1626
  550MOL0     N74166   4.494   5.411   7.500  0.1682 -0.2199 -0.2274
  550MOL0     N74167   4.534   5.308   7.440 -0.1742  0.6920  0.2617
  550MOL0     C74168   3.866   4.960   7.784 -0.2105  0.1274 -0.1832
  550MOL0     C74169   3.735   4.988   7.748  0.3117 -0.0640  0.3373
  550MOL0     C74170   3.310   5.122   7.814  0.4165  0.1886 -0.1937
  550MOL0     C74171   3.260   5.157   7.688  1.1016 -0.7375  0.1572
  550MOL0     C74172   3.118   5.179   7.663 -0.7494  0.1522 -0.8285
  550MOL0     C74173   3.021   5.155   7.770 -0.1562 -0.1598  1.2729
  550MOL0     O74174   2.883   5.168   7.754 -0.0712  0.4592  0.0953
  550MOL0     C74175   2.829   5.225   7.639 -0.5917 -0.0382  0.1268
  550MOL0     C74176   2.683   5.183   7.632 -0.2356 -0.0153 -1.1397
  550MOL0     C74177   2.610   5.271   7.529  0.1352  0.3775 -0.7381
  550MOL0     C74178   2.658   5.263   7.381 -0.3921  0.6637  0.1752
  550MOL0     C74179   2.557   5.332   7.292 -1.1739  0.3778  0.0696
  550MOL0     C74180   2.463   5.396   7.249  0.6808 -0.2860  1.0957
  550MOL0     C74181   3.068   5.111   7.895  0.5376 -0.4077  0.2910
  550MOL0     C74182   3.204   5.099   7.916  0.1422 -0.0686 -0.1230
  550MOL0     H74183   3.699   5.283   7.903 -0.1642  0.4979  0.7987
  550MOL0     H74184   3.940   5.236   7.966 -2.1853  4.7872 -3.0766
  550MOL0     H74185   4.038   4.835   8.013 -1.7639 -1.2118 -0.8686
  550MOL0     H74186   4.100   4.824   7.842  1.6168  0.4360 -0.3199
  550MOL0     H74187   4.243   4.946   8.078 -0.0436  0.6512  0.3905
  550MOL0     H74188   4.268   4.786   8.014 -1.8594  0.6342  2.4030
  550MOL0     H74189   4.313   5.019   7.835 -3.7134 -1.9198 -1.3969
  550MOL0     H74190   4.438   4.936   7.934 -0.2705 -2.4848  1.0599
  550MOL0     H74191   4.338   4.718   7.802  0.7102  0.7281  2.2836
  550MOL0     H74192   4.279   4.837   7.686  1.9574 -2.4411 -2.5929
  550MOL0     H74193   4.583   4.811   7.754  0.2310 -1.0115 -1.1123
  550MOL0     H74194   4.493   4.733   7.631 -2.3333  1.4558 -2.6997
  550MOL0     H74195   4.465   4.912   7.499  0.5850 -0.0698 -0.3396
  550MOL0     H74196   4.451   5.031   7.629 -1.0946 -0.2491  1.2481
  550MOL0     H74197   4.692   5.008   7.672 -0.1797 -0.5305  1.2559
  550MOL0     H74198   4.700   4.895   7.521 -0.0363 -0.0166  0.8826
  550MOL0     H74199   4.656   5.093   7.380  1.7876 -2.3552  0.7008
  550MOL0     H74200   4.781   5.125   7.497 -0.6747 -1.2149  2.8452
  550MOL0     H74201   4.692   5.290   7.734  0.6945  2.1125 -0.2929
  550MOL0     H74202   4.678   5.558   7.745  0.8143  2.4833 -2.2577
  550MOL0     H74203   4.523   5.628   7.694  0.4486  2.1594  4.2213
  550MOL0     H74204   4.508   5.542   7.934 -0.0655  1.5083 -0.9393
  550MOL0     H74205   4.535   5.375   7.871 -1.6435 -0.5898 -0.8672
  550MOL0     H74206   4.340   5.400   7.734  1.0324 -0.3757  0.0416
  550MOL0     H74207   4.294   5.548   7.826 -1.0969 -0.0739 -1.4009
  550MOL0     H74208   4.370   5.307   7.984 -0.7363  0.3206  1.2454
  550MOL0     H74209   4.203   5.306   7.903 -1.2545  0.9164  0.7629
  550MOL0     H74210   4.081   5.616   8.209 -1.5004  0.0509 -2.3799
  550MOL0     H74211   3.846   5.638   8.341  0.0797  1.7010  0.8175
  550MOL0     H74212   3.897   5.547   8.493  1.2373  0.0277 -1.0956
  550MOL0     H74213   4.003   5.662   8.412 -0.9495  1.0115  3.5840
  550MOL0     H74214   3.779   5.298   8.689  0.7878 -0.6661 -0.9783
  550MOL0     H74215   3.692   5.205   8.898  1.7487  0.1486 -0.1281
  550MOL0     H74216   3.417   5.014   8.932 -0.0598  0.6861  1.4844
  550MOL0     H74217   3.457   4.851   8.871 -0.2003  0.5129 -0.2170
  550MOL0     H74218   3.523   4.772   9.094  2.9071  2.4682 -0.2779
  550MOL0     H74219   3.463   4.917   9.167 -0.9412 -1.3421  1.2396
  550MOL0     H74220   3.336   4.679   9.044  0.9306  0.1350 -1.9268
  550MOL0     H74221   3.244   4.828   9.028 -1.3498 -0.1203  0.3714
  550MOL0     H74222   3.314   4.712   9.302 -0.5921 -1.5562 -0.2513
  550MOL0     H74223   3.234   4.867   9.273  2.0388 -0.3447  0.4105
  550MOL0     H74224   3.068   4.710   9.121  1.7325 -2.7172 -0.0207
  550MOL0     H74225   3.037   4.751   9.290  0.8331  1.4209  1.0241
  550MOL0     H74226   3.187   4.514   9.192  0.0379  1.7674 -0.9166
  550MOL0     H74227   3.149   4.546   9.361  1.0879  0.7212  0.0768
  550MOL0     H74228   2.946   4.507   9.149  4.5209 -0.0896 -1.5012
  550MOL0     H74229   2.912   4.572   9.313  1.0212  1.9252 -1.4074
  550MOL0     H74230   2.982   4.279   9.230  0.0651  1.4196 -1.3008
  550MOL0     H74231   2.845   4.347   9.316 -0.4466  1.8954  3.3418
  550MOL0     H74232   3.627   4.834   8.720  3.3278 -0.5238 -0.3621
  550MOL0     H74233   3.737   4.918   8.496  3.2239 -0.4753  1.0824
  550MOL0     H74234   4.019   5.129   8.310  0.8679 -0.8570 -2.1786
  550MOL0     H74235   4.174   5.198   8.135 -1.1932  0.3341 -1.2170
  550MOL0     H74236   3.903   4.868   7.742 -0.4302  0.4506 -1.0910
  550MOL0     H74237   3.676   4.916   7.691 -0.2580 -0.9127  1.9467
  550MOL0     H74238   3.319   5.166   7.597  0.5967 -1.8558 -0.2824
  550MOL0     H74239   3.098   5.201   7.559  0.5817  0.5377 -1.0215
  550MOL0     H74240   2.826   5.334   7.629 -3.5786 -0.0708 -0.2187
  550MOL0     H74241   2.879   5.177   7.555 -2.6076  0.1535 -1.2547
  550MOL0     H74242   2.632   5.192   7.729 -0.6184 -3.1309 -0.9740
  550MOL0     H74243   2.683   5.079   7.601  1.3878 -0.3058 -0.2578
  550MOL0     H74244   2.613   5.375   7.561 -0.1618  0.1693 -0.0118
  550MOL0     H74245   2.507   5.235   7.519  0.0928 -0.0691  0.9240
  550MOL0     H74246   2.665   5.159   7.349 -1.5361  1.0258 -1.3505
  550MOL0     H74247   2.759   5.305   7.376 -0.3895  0.6306 -0.0353
  550MOL0     H74248   2.384   5.461   7.214  0.8089 -0.4004  0.5819
  550MOL0     H74249   3.000   5.099   7.978 -1.9835  0.3274 -1.5419
  550MOL0     H74250   3.240   5.068   8.014  1.5536 -0.3229 -0.6926
  551MOL0     O74251   3.425   4.329   3.109 -0.5321 -0.4466  0.4119
  551MOL0     C74252   3.432   4.401   3.210 -0.5158 -0.6349 -1.0011
  551MOL0     O74253   3.324   4.434   3.287  0.3509 -0.1220 -0.0310
  551MOL0     C74254   3.205   4.378   3.238 -0.4071 -0.1256 -0.0229
  551MOL0     C74255   3.130   4.440   3.147  1.2960 -0.5222 -0.8232
  551MOL0     C74256   3.009   4.367   3.100  0.4102  0.0056  0.0377
  551MOL0     C74257   2.961   4.232   3.142 -0.2502 -0.7167 -0.3054
  551MOL0     O74258   2.860   4.159   3.083 -0.6223  1.0542 -0.4868
  551MOL0     C74259   2.765   4.238   3.021  0.0642 -0.3662 -0.6940
  551MOL0     C74260   2.626   4.182   3.040  0.1341  0.2804  0.0092
  551MOL0     C74261   2.618   4.028   3.002 -0.2909  0.7451 -1.0391
  551MOL0     C74262   2.620   4.018   2.853 -0.5898  0.6862  1.0238
  551MOL0     C74263   2.756   3.979   2.801  0.2732  0.7769  0.3794
  551MOL0     C74264   2.787   3.823   2.823  0.4997 -0.4661 -0.6792
  551MOL0     C74265   2.908   3.780   2.740 -0.2319 -0.4289  0.0490
  551MOL0     C74266   2.892   3.754   2.588  0.5373 -0.4454 -0.3675
  551MOL0     N74267   2.790   3.648   2.572  0.2739 -0.1958 -0.4114
  551MOL0     C74268   2.662   3.693   2.552 -0.4808  0.1308 -0.1511
  551MOL0     C74269   2.587   3.581   2.551  0.3001  0.1629  0.7963
  551MOL0     C74270   2.434   3.555   2.534 -0.4962  0.4413 -0.0793
  551MOL0     C74271   2.401   3.520   2.388 -0.2241  0.2525  0.3914
  551MOL0     C74272   2.407   3.651   2.303  0.0352 -0.8208 -0.0484
  551MOL0     C74273   2.365   3.616   2.155  0.8632  0.7245  0.1753
  551MOL0     O74274   2.315   3.731   2.090  0.3902 -0.5536  0.0024
  551MOL0     C74275   2.216   3.701   2.000  0.6247  0.4452  0.1857
  551MOL0     C74276   2.222   3.601   1.908 -0.3785  0.7360 -0.2840
  551MOL0     C74277   2.130   3.576   1.813 -0.2236  0.0493 -0.4022
  551MOL0     C74278   2.138   3.456   1.725 -0.2069  0.1674 -0.0490
  551MOL0     C74279   2.024   3.668   1.801  0.2234 -0.1388  0.7811
  551MOL0     C74280   1.913   3.666   1.696 -0.1438  0.3507  0.4162
  551MOL0     O74281   1.819   3.766   1.703 -0.4860  0.7419  0.2620
  551MOL0     C74282   1.711   3.790   1.614 -0.6426  0.5046  0.2377
  551MOL0     C74283   1.671   3.717   1.505  0.2730 -0.0659  1.1808
  551MOL0     C74284   1.560   3.757   1.433  0.4355  0.2309 -0.0433
  551MOL0     C74285   1.479   3.864   1.467 -0.1331 -1.0942 -0.1280
  551MOL0     O74286   1.365   3.878   1.388  0.2957  0.6064 -0.0809
  551MOL0     C74287   1.285   3.754   1.390 -0.1762 -0.1392  0.5534
  551MOL0     C74288   1.137   3.786   1.372  0.1029 -0.7719  0.0542
  551MOL0     C74289   1.083   3.863   1.501 -0.2501  0.1381  0.2342
  551MOL0     C74290   1.117   3.784   1.624 -0.3394  0.3477  0.0132
  551MOL0     C74291   1.015   3.830   1.724  0.7163  0.6232 -0.6091
  551MOL0     C74292   1.007   3.981   1.737  0.6073 -0.4755 -1.0054
  551MOL0     C74293   0.944   4.037   1.870 -0.4490 -0.1406  0.3019
  551MOL0     C74294   0.856   4.160   1.851  0.2282 -0.4597 -0.6159
  551MOL0    Cl74295   0.936   4.278   1.756  0.4589  0.1824 -0.3574
  551MOL0     C74296   1.526   3.949   1.574 -0.5252 -0.3421  0.4157
  551MOL0     C74297   1.640   3.905   1.648 -0.8590  0.2333 -0.2615
  551MOL0     O74298   1.923   3.580   1.608  0.5942 -0.5336 -0.0186
  551MOL0     C74299   2.008   3.771   1.896  0.0878  0.6844 -0.5967
  551MOL0     C74300   2.106   3.782   1.991 -0.0785  0.5024  0.3662
  551MOL0     N74301   2.675   3.472   2.559  0.3543 -0.3017 -0.6779
  551MOL0     N74302   2.796   3.513   2.582  0.6020 -0.0946 -0.7719
  551MOL0     C74303   3.039   4.187   3.251 -0.2128  0.1308  0.9490
  551MOL0     C74304   3.167   4.245   3.281 -0.2761 -0.5218 -0.2505
  551MOL0     C74305   3.561   4.422   3.270  0.7547  0.0679 -1.2945
  551MOL0     C74306   3.582   4.423   3.419  0.2077 -0.7700 -0.1667
  551MOL0     C74307   3.712   4.429   3.467 -0.5990  0.1283  1.3064
  551MOL0     C74308   3.818   4.430   3.381 -0.5373 -0.2696 -0.4986
  551MOL0     O74309   3.947   4.427   3.428 -0.9186 -0.5168  0.4752
  551MOL0     C74310   4.007   4.538   3.486 -0.6797 -0.9246  1.1009
  551MOL0     C74311   4.155   4.552   3.429 -1.0867  0.3244 -0.4108
  551MOL0     C74312   4.244   4.448   3.492 -0.1573  0.5569  0.5223
  551MOL0     C74313   4.366   4.416   3.406  0.0762 -0.3413  0.2474
  551MOL0     C74314   4.450   4.542   3.388 -0.7716 -0.0408 -0.5966
  551MOL0     C74315   4.524   4.635   3.375 -0.7970  0.1127 -0.4820
  551MOL0     C74316   3.799   4.429   3.247  0.1920 -0.6309 -0.2833
  551MOL0     C74317   3.675   4.441   3.188  0.7189  0.9520  0.3115
  551MOL0     H74318   3.151   4.542   3.115 -1.2551  1.1353  2.2188
  551MOL0     H74319   2.940   4.410   3.028 -0.0323 -0.6754  0.0533
  551MOL0     H74320   2.759   4.336   3.069 -1.6634 -0.0260 -1.5313
  551MOL0     H74321   2.788   4.254   2.915 -1.9894  1.2435 -0.9538
  551MOL0     H74322   2.601   4.176   3.146 -0.7947 -1.8811 -0.2717
  551MOL0     H74323   2.543   4.229   2.987 -1.0453 -2.2903 -0.6110
  551MOL0     H74324   2.696   3.965   3.047 -2.1023  0.0137  1.2762
  551MOL0     H74325   2.531   3.975   3.042 -0.3807  0.8924 -1.0372
  551MOL0     H74326   2.551   3.939   2.821  1.1978  0.6504 -3.5601
  551MOL0     H74327   2.578   4.096   2.788 -0.1067 -0.6490 -0.9927
  551MOL0     H74328   2.762   3.991   2.693 -0.6515  1.7484  0.4266
  551MOL0     H74329   2.836   4.042   2.841  0.8015 -1.0123  2.3388
  551MOL0     H74330   2.810   3.810   2.929  2.0116 -1.5724 -1.1223
  551MOL0     H74331   2.697   3.765   2.799 -0.2917  0.4159  0.0946
  551MOL0     H74332   2.989   3.851   2.757 -0.0093 -0.8539  0.7801
  551MOL0     H74333   2.949   3.687   2.780  1.7548 -0.1022 -1.0915
  551MOL0     H74334   2.986   3.715   2.548  0.5615 -0.0897 -0.6631
  551MOL0     H74335   2.860   3.845   2.537  3.5871  1.0673  0.2053
  551MOL0     H74336   2.637   3.796   2.530  0.2584  0.2857 -0.3214
  551MOL0     H74337   2.408   3.467   2.594 -3.8478  1.5316  0.2913
  551MOL0     H74338   2.375   3.642   2.567  0.2271  2.3686 -3.4382
  551MOL0     H74339   2.300   3.480   2.372 -1.5175  2.9951  1.2131
  551MOL0     H74340   2.471   3.448   2.345  0.4210 -0.1928  2.1247
  551MOL0     H74341   2.505   3.700   2.298 -1.0418  1.5285  0.3239
  551MOL0     H74342   2.337   3.726   2.341  0.9040 -0.8629  1.7624
  551MOL0     H74343   2.289   3.538   2.159  0.6639  0.9456  0.7416
  551MOL0     H74344   2.454   3.573   2.107 -1.1964 -2.5203 -1.0673
  551MOL0     H74345   2.307   3.537   1.929  0.6494  2.8683  2.8198
  551MOL0     H74346   2.168   3.486   1.624 -2.3486  0.6882 -0.5621
  551MOL0     H74347   2.202   3.377   1.765 -2.4025 -0.3284  2.7977
  551MOL0     H74348   2.037   3.417   1.732  0.4024 -1.4264  0.3969
  551MOL0     H74349   1.727   3.630   1.474  1.9613  1.9105 -1.7467
  551MOL0     H74350   1.542   3.670   1.371  0.8689 -1.9339  2.7040
  551MOL0     H74351   1.311   3.676   1.317  2.5879  0.1439  1.1239
  551MOL0     H74352   1.303   3.690   1.476  0.1650 -1.3214 -0.3696
  551MOL0     H74353   1.117   3.856   1.291  0.4076  2.9938  2.9467
  551MOL0     H74354   1.073   3.699   1.354  0.8682 -1.2425 -0.4813
  551MOL0     H74355   0.977   3.864   1.472  0.4292  0.2816 -2.4569
  551MOL0     H74356   1.123   3.965   1.503 -0.1011  0.0871 -0.1696
  551MOL0     H74357   1.106   3.677   1.603 -1.8386  0.5980 -0.6193
  551MOL0     H74358   1.214   3.819   1.660 -0.2133  0.3988 -0.3755
  551MOL0     H74359   1.031   3.772   1.816  3.5116 -0.7311 -1.8059
  551MOL0     H74360   0.921   3.776   1.705  1.9626 -2.5151  1.2388
  551MOL0     H74361   1.109   4.016   1.720  0.2893  0.3643 -1.2566
  551MOL0     H74362   0.946   4.021   1.655 -0.5084  0.7597  0.3699
  551MOL0     H74363   1.024   4.064   1.940  1.5315 -2.0776 -1.0450
  551MOL0     H74364   0.877   3.966   1.919 -0.8745  1.4393  2.0797
  551MOL0     H74365   0.841   4.195   1.953 -0.0190 -1.5699 -0.2532
  551MOL0     H74366   0.764   4.123   1.805  1.0100 -2.6696 -0.5550
  551MOL0     H74367   1.470   4.038   1.600 -0.1500  0.9017 -2.6039
  551MOL0     H74368   1.656   3.954   1.743 -2.8061 -0.2478  0.3719
  551MOL0     H74369   1.927   3.842   1.887  2.6054  3.7062 -1.2457
  551MOL0     H74370   2.085   3.860   2.064  4.2808  1.5116  0.7944
  551MOL0     H74371   3.015   4.090   3.292 -0.6666  0.4723  1.4966
  551MOL0     H74372   3.225   4.198   3.359 -1.4531 -0.4813  0.6890
  551MOL0     H74373   3.505   4.419   3.495 -1.1036 -0.4973 -1.4225
  551MOL0     H74374   3.727   4.438   3.574  1.4899 -0.2993  1.0895
  551MOL0     H74375   3.968   4.635   3.455  1.5116 -0.1784  0.4576
  551MOL0     H74376   4.004   4.529   3.595 -0.6184 -0.5421  1.1340
  551MOL0     H74377   4.184   4.653   3.460  1.6714 -1.6986  4.9212
  551MOL0     H74378   4.150   4.552   3.320  1.2404 -0.9604 -0.5766
  551MOL0     H74379   4.185   4.356   3.494 -2.2732  1.8759  0.9814
  551MOL0     H74380   4.276   4.470   3.594  0.7586  1.4378  0.0670
  551MOL0     H74381   4.350   4.385   3.303  0.0527  1.0963 -0.2121
  551MOL0     H74382   4.426   4.343   3.460  1.1403  1.4082  1.5650
  551MOL0     H74383   4.582   4.724   3.385 -0.9574  0.3568 -1.5790
  551MOL0     H74384   3.873   4.432   3.168  0.9673 -4.5127  0.0460
  551MOL0     H74385   3.668   4.462   3.082 -0.8437  2.2405  0.6350
  552MOL0     O74386   0.547   6.702   3.119 -0.6945 -0.5086 -0.5726
  552MOL0     C74387   0.644   6.763   3.170  0.2001  0.8311  0.1799
  552MOL0     O74388   0.635   6.822   3.293 -0.3728  0.0203  0.6925
  552MOL0     C74389   0.516   6.793   3.360 -0.3172 -0.4118 -0.3000
  552MOL0     C74390   0.526   6.713   3.474  0.7463  0.1289 -0.1896
  552MOL0     C74391   0.417   6.711   3.564 -0.9446 -0.3162  0.4119
  552MOL0     C74392   0.298   6.780   3.532  0.4758 -0.4972  0.5290
  552MOL0     O74393   0.191   6.783   3.613  0.3880  0.0674 -0.4437
  552MOL0     C74394   0.205   6.798   3.755 -0.5189 -0.2428  0.5671
  552MOL0     C74395   0.140   6.919   3.805  0.0228  0.1407 -0.4848
  552MOL0     C74396   0.006   6.971   3.751 -0.6143  0.0195  0.0702
  552MOL0     C74397  -0.098   6.861   3.747 -0.3470 -0.1205 -0.6088
  552MOL0     C74398  -0.238   6.910   3.719  0.4700  0.4746 -0.5732
  552MOL0     C74399  -0.344   6.797   3.716 -0.4745  0.4423  0.5928
  552MOL0     C74400  -0.485   6.858   3.711 -0.0815  0.3119 -0.5281
  552MOL0     C74401  -0.575   6.740   3.681  0.0334 -0.2478  0.7745
  552MOL0     N74402  -0.693   6.781   3.604  0.3137  0.6297 -0.6149
  552MOL0     C74403  -0.688   6.790   3.472 -0.1262  0.1927  0.9787
  552MOL0     C74404  -0.810   6.842   3.433 -0.6217  0.1884  0.5452
  552MOL0     C74405  -0.845   6.868   3.293  0.1095 -0.6658 -0.4495
  552MOL0     C74406  -0.806   6.757   3.191  0.0038  0.2873 -0.0515
  552MOL0     C74407  -0.853   6.801   3.046 -0.2660  0.5483 -0.5535
  552MOL0     C74408  -0.812   6.690   2.948 -0.3051 -0.5180 -0.3493
  552MOL0     O74409  -0.897   6.572   2.971  0.0664 -0.0628  0.6596
  552MOL0     C74410  -1.027   6.591   2.947  0.6586 -0.5171  0.5652
  552MOL0     C74411  -1.075   6.596   2.815 -0.3860  0.3711  0.0128
  552MOL0     C74412  -1.214   6.620   2.792  0.4923  0.9252 -0.8404
  552MOL0     C74413  -1.253   6.649   2.652  0.0505 -0.1668  0.2286
  552MOL0     C74414  -1.310   6.636   2.895  0.0213  0.4958  0.3673
  552MOL0     C74415  -1.458   6.665   2.878  0.1196 -0.2208 -0.5940
  552MOL0     O74416  -1.514   6.719   2.993  0.5060 -0.4282  0.0172
  552MOL0     C74417  -1.652   6.732   3.001 -0.2452 -0.0948  0.0262
  552MOL0     C74418  -1.757   6.674   2.925 -1.0444 -0.1989 -0.1732
  552MOL0     C74419  -1.892   6.707   2.944 -0.0102  0.3644  0.2160
  552MOL0     C74420  -1.936   6.792   3.041 -0.9111 -0.4313 -0.7489
  552MOL0     O74421  -2.077   6.798   3.052 -0.7118 -0.0506  0.4710
  552MOL0     C74422  -2.125   6.895   3.148 -0.3133  0.1767 -0.2764
  552MOL0     C74423  -2.271   6.900   3.164 -0.0873  0.4529 -0.1308
  552MOL0     C74424  -2.358   6.853   3.044  0.0640  0.2570  0.0630
  552MOL0     C74425  -2.506   6.851   3.082  0.1295  0.6524 -0.5338
  552MOL0     C74426  -2.585   6.815   2.959 -0.8945 -0.3209 -0.1821
  552MOL0     C74427  -2.738   6.804   2.985  0.1326 -0.1644  0.5275
  552MOL0     C74428  -2.764   6.666   3.050 -0.9455  0.0547  0.1498
  552MOL0     C74429  -2.914   6.658   3.069 -0.4774 -0.4727  0.3840
  552MOL0    Cl74430  -2.962   6.803   3.155  0.4826 -0.1530  0.0371
  552MOL0     C74431  -1.841   6.855   3.114 -0.0516 -0.7632 -0.3754
  552MOL0     C74432  -1.699   6.832   3.094 -1.2001  0.1103  0.0250
  552MOL0     O74433  -1.514   6.655   2.767  0.6154  0.1363 -0.0394
  552MOL0     C74434  -1.258   6.615   3.026  1.0163 -0.2457 -0.0081
  552MOL0     C74435  -1.120   6.594   3.049 -0.3553 -0.7112  0.4096
  552MOL0     N74436  -0.890   6.860   3.546 -0.0986  0.1973  0.5436
  552MOL0     N74437  -0.813   6.828   3.646  0.4654 -0.8271 -0.2721
  552MOL0     C74438   0.291   6.852   3.407  0.1878 -0.3557  0.2037
  552MOL0     C74439   0.400   6.865   3.322  0.0639 -0.3093  0.9339
  552MOL0     C74440   0.780   6.747   3.113  0.0075  0.2079 -1.1957
  552MOL0     C74441   0.791   6.678   2.993 -0.0465  0.4823  0.2436
  552MOL0     C74442   0.922   6.655   2.933  0.7677  0.8106  0.0774
  552MOL0     C74443   1.037   6.686   3.013  0.0566 -0.4223  1.2473
  552MOL0     O74444   1.148   6.682   2.931 -0.1557  0.3692 -0.0304
  552MOL0     C74445   1.255   6.768   2.968 -0.1268  0.1806  0.4775
  552MOL0     C74446   1.365   6.751   2.868 -0.0090 -0.7064 -1.2626
  552MOL0     C74447   1.335   6.738   2.719  0.2576  0.1138  0.5058
  552MOL0     C74448   1.359   6.853   2.621 -0.4155  0.8116  0.0924
  552MOL0     C74449   1.499   6.880   2.601  0.0575 -0.4175  0.8938
  552MOL0     C74450   1.613   6.904   2.584  0.0036 -0.5680  0.2078
  552MOL0     C74451   1.027   6.764   3.133  0.5843 -0.6920  0.8544
  552MOL0     C74452   0.894   6.789   3.181 -0.4100 -0.1315  0.1491
  552MOL0     H74453   0.621   6.672   3.506  1.7929  1.6967 -1.1708
  552MOL0     H74454   0.409   6.641   3.647 -0.0220 -1.5874 -0.5287
  552MOL0     H74455   0.160   6.708   3.798 -1.0222 -0.0721  0.4025
  552MOL0     H74456   0.307   6.784   3.791 -1.4249 -2.6456  2.4764
  552MOL0     H74457   0.145   6.916   3.914 -1.0046 -2.7393 -0.4448
  552MOL0     H74458   0.218   6.988   3.772  0.3192 -0.2646 -0.6374
  552MOL0     H74459  -0.019   7.059   3.811 -0.0639 -0.3819  0.8968
  552MOL0     H74460   0.034   7.000   3.649 -1.2223 -1.5903 -0.5964
  552MOL0     H74461  -0.076   6.792   3.665 -2.8344 -1.5371 -0.1738
  552MOL0     H74462  -0.092   6.816   3.847  2.4908  1.1213 -0.1131
  552MOL0     H74463  -0.278   6.985   3.788  1.3399  0.6639 -0.2630
  552MOL0     H74464  -0.236   6.959   3.621 -2.2682 -0.7653 -1.3473
  552MOL0     H74465  -0.312   6.735   3.632  0.6030  0.4252  1.0020
  552MOL0     H74466  -0.337   6.736   3.806 -2.3532 -0.0656  0.4434
  552MOL0     H74467  -0.506   6.905   3.807 -1.9050 -1.1713 -0.1448
  552MOL0     H74468  -0.485   6.926   3.625 -1.0512 -0.8930 -1.5229
  552MOL0     H74469  -0.599   6.708   3.783  1.2025 -0.1724  1.0886
  552MOL0     H74470  -0.523   6.659   3.628  2.3527  1.0932  0.8483
  552MOL0     H74471  -0.597   6.755   3.424 -0.5717 -1.9496  1.5868
  552MOL0     H74472  -0.953   6.883   3.281  0.3575  0.8405 -0.9439
  552MOL0     H74473  -0.804   6.965   3.265 -3.5981  1.4383  0.6355
  552MOL0     H74474  -0.844   6.661   3.227  2.9210 -1.2606 -0.7622
  552MOL0     H74475  -0.698   6.741   3.202 -0.0247  1.6076  3.0466
  552MOL0     H74476  -0.803   6.896   3.025  1.9717 -0.3069  0.5167
  552MOL0     H74477  -0.960   6.819   3.061  0.0313 -0.0235  2.9494
  552MOL0     H74478  -0.709   6.662   2.969  0.4891  2.4785  0.2969
  552MOL0     H74479  -0.827   6.728   2.847  0.6343 -1.9908 -1.0705
  552MOL0     H74480  -0.999   6.585   2.739  0.9187  1.6363  1.0713
  552MOL0     H74481  -1.325   6.731   2.652  0.4153  0.2323  2.5675
  552MOL0     H74482  -1.167   6.669   2.587  0.2757 -0.4564  0.4343
  552MOL0     H74483  -1.301   6.558   2.615  1.9092 -0.0513 -2.7560
  552MOL0     H74484  -1.737   6.598   2.849 -0.7240 -1.8029  1.4410
  552MOL0     H74485  -1.965   6.669   2.872  0.0463  0.6122  0.0257
  552MOL0     H74486  -2.073   6.891   3.244  3.9041  0.9797 -2.3120
  552MOL0     H74487  -2.108   7.000   3.124 -5.2033  1.1703 -0.3597
  552MOL0     H74488  -2.304   6.826   3.238 -0.3294  0.9369  0.2482
  552MOL0     H74489  -2.293   6.998   3.206  0.0426  0.1027  0.7663
  552MOL0     H74490  -2.323   6.754   3.015 -2.1915 -0.4812 -0.4008
  552MOL0     H74491  -2.344   6.913   2.953 -0.0128  0.8997  0.4669
  552MOL0     H74492  -2.518   6.777   3.162 -0.0457 -0.0452 -1.1884
  552MOL0     H74493  -2.521   6.951   3.122  1.1108 -0.7569  3.9354
  552MOL0     H74494  -2.548   6.720   2.921  0.7260  0.3063 -0.2377
  552MOL0     H74495  -2.560   6.894   2.887  3.1072 -0.6637  0.6127
  552MOL0     H74496  -2.754   6.896   3.042  1.4852 -0.8817  2.1567
  552MOL0     H74497  -2.780   6.815   2.885  0.6949  2.2900  0.5022
  552MOL0     H74498  -2.712   6.651   3.145  1.8720 -0.6528 -1.3859
  552MOL0     H74499  -2.722   6.589   2.985 -1.7199  0.4620 -0.8584
  552MOL0     H74500  -2.943   6.563   3.116  0.6801 -2.4022 -2.5120
  552MOL0     H74501  -2.944   6.653   2.964  3.1972 -1.2817 -0.7919
  552MOL0     H74502  -1.862   6.915   3.203 -0.1892 -1.1790 -0.1263
  552MOL0     H74503  -1.633   6.886   3.162 -3.0350 -0.2468  2.2006
  552MOL0     H74504  -1.322   6.620   3.113  2.0990 -1.4791  0.9062
  552MOL0     H74505  -1.089   6.584   3.153  0.1581  2.6194  0.6924
  552MOL0     H74506   0.196   6.901   3.385 -1.5160 -2.7427  1.7479
  552MOL0     H74507   0.405   6.934   3.239 -2.0475 -1.6645 -0.4157
  552MOL0     H74508   0.700   6.642   2.946  1.2708 -1.1620 -1.1909
  552MOL0     H74509   0.937   6.601   2.840  1.8670  0.2433  0.5686
  552MOL0     H74510   1.214   6.870   2.967  1.5657  0.8938  1.0261
  552MOL0     H74511   1.303   6.743   3.063  3.5110  2.4276 -0.5796
  552MOL0     H74512   1.420   6.664   2.906  2.7556  2.6658  3.5658
  552MOL0     H74513   1.439   6.828   2.892 -2.6906  1.9609 -1.0172
  552MOL0     H74514   1.233   6.709   2.693  0.6023  0.6790 -1.6137
  552MOL0     H74515   1.409   6.662   2.692  1.1686  1.2440 -0.2625
  552MOL0     H74516   1.311   6.943   2.659  0.1823  0.8086  0.8767
  552MOL0     H74517   1.322   6.814   2.526  1.8364 -0.1424 -0.4695
  552MOL0     H74518   1.715   6.937   2.574  0.1959 -1.3747 -0.6376
  552MOL0     H74519   1.116   6.796   3.187  0.8553  1.2413 -0.6463
  552MOL0     H74520   0.885   6.840   3.276 -0.3169 -0.1349  0.1592
  553MOL0     O74521   0.665   4.175   7.354  0.1385  0.6141  0.4166
  553MOL0     C74522   0.695   4.057   7.339  0.0781  1.3673 -0.3102
  553MOL0     O74523   0.822   4.005   7.357 -0.4119  0.1418  0.1280
  553MOL0     C74524   0.924   4.100   7.360 -0.4588 -0.1992  0.0055
  553MOL0     C74525   0.994   4.121   7.241 -1.6052 -1.2264 -0.0226
  553MOL0     C74526   1.108   4.219   7.239  0.2195 -0.0425  0.7342
  553MOL0     C74527   1.149   4.283   7.359  0.3863  0.6241  0.7339
  553MOL0     O74528   1.243   4.385   7.363  0.4471  0.6413  0.4663
  553MOL0     C74529   1.254   4.497   7.278 -0.4093 -0.6422  0.5934
  553MOL0     C74530   1.322   4.612   7.357  0.7638  0.5043 -0.2227
  553MOL0     C74531   1.337   4.748   7.283 -0.0876 -0.2913 -0.7658
  553MOL0     C74532   1.328   4.877   7.374 -0.2119  0.6074 -0.5022
  553MOL0     C74533   1.307   4.998   7.288 -0.2541  0.3256 -0.2258
  553MOL0     C74534   1.160   5.039   7.258 -0.1762  0.5332  0.2665
  553MOL0     C74535   1.087   5.091   7.381  0.1580 -0.2444 -0.1445
  553MOL0     C74536   0.965   5.166   7.343  0.3329  0.6471  0.0667
  553MOL0     N74537   0.865   5.163   7.441  0.3685 -0.6333  0.1416
  553MOL0     C74538   0.741   5.104   7.416  0.2768 -0.3240  0.2598
  553MOL0     C74539   0.665   5.146   7.523  0.2732  0.3917 -0.1674
  553MOL0     C74540   0.515   5.104   7.525 -0.0223 -0.3793  0.0789
  553MOL0     C74541   0.503   4.958   7.511 -0.1660  0.2003  0.6249
  553MOL0     C74542   0.361   4.910   7.493  0.1425  0.4310  0.1835
  553MOL0     C74543   0.344   4.760   7.522 -0.6842 -0.2742 -0.4620
  553MOL0     O74544   0.229   4.711   7.453 -0.2071  0.3210  0.7812
  553MOL0     C74545   0.111   4.764   7.483  0.5573 -0.6857  0.0370
  553MOL0     C74546   0.038   4.787   7.367 -0.3189  0.5429 -0.0356
  553MOL0     C74547  -0.087   4.846   7.366 -0.1842  0.7788 -0.2813
  553MOL0     C74548  -0.165   4.856   7.239  0.8046  0.4461  0.1799
  553MOL0     C74549  -0.130   4.902   7.490  0.3541 -0.2247  0.3575
  553MOL0     C74550  -0.241   4.994   7.508  0.2773  0.3731 -0.1902
  553MOL0     O74551  -0.242   5.063   7.637  0.2866 -0.1712  0.3076
  553MOL0     C74552  -0.321   5.170   7.660 -0.3497 -0.6761  0.1345
  553MOL0     C74553  -0.464   5.178   7.644 -0.4496  0.2113  0.6475
  553MOL0     C74554  -0.531   5.294   7.679 -0.5572  0.0907 -0.4665
  553MOL0     C74555  -0.469   5.393   7.753  0.7614  0.1942  0.2937
  553MOL0     O74556  -0.551   5.503   7.796 -0.6359  0.2825  0.6383
  553MOL0     C74557  -0.503   5.564   7.919  1.2052 -0.4907  0.6474
  553MOL0     C74558  -0.601   5.687   7.954 -0.3399 -0.0879  0.2064
  553MOL0     C74559  -0.580   5.741   8.098  0.4960 -0.0446 -0.1275
  553MOL0     C74560  -0.455   5.825   8.096  0.3404  0.1889  0.7034
  553MOL0     C74561  -0.463   5.905   8.228  0.1915 -0.6448 -0.2627
  553MOL0     C74562  -0.328   5.963   8.268 -0.4744  0.1656  0.2471
  553MOL0     C74563  -0.321   5.983   8.418 -1.4843 -0.8577  0.1303
  553MOL0     C74564  -0.194   6.053   8.459 -0.2928 -0.7431 -0.4303
  553MOL0    Cl74565  -0.053   5.946   8.429 -0.2439 -0.3188 -0.5210
  553MOL0     C74566  -0.333   5.384   7.774 -0.0884 -0.0530 -0.1471
  553MOL0     C74567  -0.259   5.274   7.728  0.0821  0.4586  0.6186
  553MOL0     O74568  -0.315   5.014   7.413 -0.7745  0.0452 -0.6732
  553MOL0     C74569  -0.056   4.883   7.614 -0.2767  0.1433  0.8338
  553MOL0     C74570   0.061   4.810   7.602 -0.9746 -0.6333  0.0754
  553MOL0     N74571   0.739   5.227   7.602 -0.2837 -0.2614  0.3858
  553MOL0     N74572   0.861   5.233   7.557 -0.2031  0.4596  0.0449
  553MOL0     C74573   1.082   4.254   7.474 -0.2193  0.7547 -0.6428
  553MOL0     C74574   0.972   4.164   7.477  0.2568 -0.3525 -0.3109
  553MOL0     C74575   0.573   3.968   7.323 -0.2622  0.3183  0.9105
  553MOL0     C74576   0.445   3.997   7.365  0.0919  0.1862 -0.6081
  553MOL0     C74577   0.353   3.893   7.385 -0.4156  0.0807 -0.1427
  553MOL0     C74578   0.381   3.760   7.358 -0.6992 -0.2367 -0.1339
  553MOL0     O74579   0.306   3.652   7.399  0.1474  0.0392 -0.0945
  553MOL0     C74580   0.182   3.667   7.478 -0.2426 -0.2389 -0.4461
  553MOL0     C74581   0.053   3.674   7.400 -0.2395  0.1703 -0.1691
  553MOL0     C74582  -0.076   3.697   7.488  0.5626  0.2407 -0.8117
  553MOL0     C74583  -0.098   3.589   7.604 -0.6770 -0.3457 -0.1465
  553MOL0     C74584  -0.200   3.616   7.697  0.2281 -0.4950  0.7123
  553MOL0     C74585  -0.254   3.667   7.794  0.4000 -0.4123  0.0694
  553MOL0     C74586   0.508   3.725   7.297 -0.2185 -0.0932  0.1463
  553MOL0     C74587   0.600   3.830   7.285 -0.2552  0.0193  0.0982
  553MOL0     H74588   0.965   4.070   7.150  0.9307  2.5738 -3.3343
  553MOL0     H74589   1.161   4.236   7.146  0.3964 -1.1227  0.6169
  553MOL0     H74590   1.318   4.481   7.192 -2.0910 -2.5698 -0.3794
  553MOL0     H74591   1.151   4.525   7.252 -0.1491 -0.4878 -0.2927
  553MOL0     H74592   1.271   4.635   7.451  2.9897  1.5544  0.8031
  553MOL0     H74593   1.419   4.570   7.385  0.0973  0.2911  1.8999
  553MOL0     H74594   1.430   4.755   7.227 -0.5508  1.8959 -1.3823
  553MOL0     H74595   1.254   4.746   7.212 -3.2269 -2.3351  2.5704
  553MOL0     H74596   1.255   4.871   7.455  1.3589 -0.6057  0.9047
  553MOL0     H74597   1.427   4.881   7.421  0.0209 -1.8120 -0.6521
  553MOL0     H74598   1.356   5.089   7.323  3.1678 -2.0687  1.8862
  553MOL0     H74599   1.350   4.972   7.191 -2.7861 -2.8405 -0.6662
  553MOL0     H74600   1.182   5.132   7.203 -0.5578  0.5275  0.1037
  553MOL0     H74601   1.107   4.962   7.202  1.1192 -0.1891 -0.0206
  553MOL0     H74602   1.064   5.011   7.452  1.8317  1.7068  2.8336
  553MOL0     H74603   1.159   5.152   7.436  1.6805 -1.2738 -0.9169
  553MOL0     H74604   0.929   5.143   7.243  3.9525  0.3187 -1.3115
  553MOL0     H74605   0.994   5.265   7.308  0.6928  0.8230  0.8245
  553MOL0     H74606   0.717   5.048   7.326  2.0114 -0.3842 -0.2007
  553MOL0     H74607   0.470   5.133   7.620  1.8624  1.5900  0.4438
  553MOL0     H74608   0.470   5.160   7.443 -2.7321  1.8041  2.8422
  553MOL0     H74609   0.561   4.910   7.591  0.3345  1.5241  1.0963
  553MOL0     H74610   0.547   4.925   7.416 -0.4608 -0.4715  0.7178
  553MOL0     H74611   0.334   4.922   7.388  1.9339 -1.2099 -0.5266
  553MOL0     H74612   0.293   4.971   7.554  1.0506  2.6991 -0.9551
  553MOL0     H74613   0.336   4.742   7.629 -0.4308  0.9261 -0.2302
  553MOL0     H74614   0.425   4.696   7.486 -0.1095 -0.0622  0.4293
  553MOL0     H74615   0.067   4.766   7.265 -5.0763  1.2755 -1.8156
  553MOL0     H74616  -0.270   4.827   7.253  0.9206 -0.4793 -0.7132
  553MOL0     H74617  -0.149   4.959   7.208 -1.4983  0.2400 -2.0545
  553MOL0     H74618  -0.121   4.778   7.176 -0.4783 -2.3859  2.5223
  553MOL0     H74619  -0.529   5.097   7.611  1.1083 -1.0275  0.4633
  553MOL0     H74620  -0.634   5.298   7.646 -1.0341  2.0917  1.0593
  553MOL0     H74621  -0.512   5.484   7.994 -0.5473 -0.7560  0.1890
  553MOL0     H74622  -0.402   5.604   7.903  0.8304  0.3744  0.4278
  553MOL0     H74623  -0.582   5.771   7.886  1.7014  0.8260  1.7842
  553MOL0     H74624  -0.700   5.651   7.927  0.5696 -1.3829 -1.5570
  553MOL0     H74625  -0.577   5.661   8.173 -1.1740 -0.9552 -0.9614
  553MOL0     H74626  -0.673   5.796   8.118  0.6784  0.1094  0.2898
  553MOL0     H74627  -0.370   5.755   8.102  0.6236  0.6409  2.8764
  553MOL0     H74628  -0.452   5.895   8.013  0.2669 -0.1357  0.4261
  553MOL0     H74629  -0.499   5.832   8.302 -0.2727  0.8041  0.9954
  553MOL0     H74630  -0.538   5.983   8.219  1.5923  0.4444 -4.6351
  553MOL0     H74631  -0.245   5.899   8.237 -0.7300  0.1191 -0.3420
  553MOL0     H74632  -0.319   6.062   8.224  1.8428  0.8654  2.0896
  553MOL0     H74633  -0.317   5.890   8.475  3.0575  0.5141  2.5169
  553MOL0     H74634  -0.407   6.040   8.454  0.0220  2.3535 -0.9755
  553MOL0     H74635  -0.208   6.073   8.566 -1.3950  0.0349 -0.7004
  553MOL0     H74636  -0.190   6.152   8.413  0.3060 -0.3606  0.4190
  553MOL0     H74637  -0.286   5.454   7.843  0.9649 -1.1974  0.3332
  553MOL0     H74638  -0.155   5.265   7.759  0.7100 -3.2344 -1.8954
  553MOL0     H74639  -0.086   4.924   7.710 -0.9060 -1.0350  1.1555
  553MOL0     H74640   0.126   4.804   7.689  0.6321 -0.5677 -1.0966
  553MOL0     H74641   1.116   4.305   7.563 -0.4508 -0.4369  0.1547
  553MOL0     H74642   0.932   4.145   7.575  1.2722 -1.9319 -0.1738
  553MOL0     H74643   0.416   4.097   7.394 -0.8838 -0.3599  0.3797
  553MOL0     H74644   0.250   3.906   7.417  0.1955  0.4535  1.8804
  553MOL0     H74645   0.170   3.572   7.531  1.9338 -0.0937  0.4365
  553MOL0     H74646   0.195   3.746   7.552 -4.0098  1.4824 -1.3920
  553MOL0     H74647   0.053   3.578   7.347  0.1444  0.3873 -0.5735
  553MOL0     H74648   0.072   3.755   7.328  0.7847 -1.2094 -1.5152
  553MOL0     H74649  -0.155   3.693   7.412 -0.1028 -0.1685 -0.1162
  553MOL0     H74650  -0.077   3.794   7.539 -2.3247 -0.3605  0.4719
  553MOL0     H74651  -0.001   3.581   7.655 -0.3655 -2.1731 -0.9578
  553MOL0     H74652  -0.106   3.494   7.551 -0.3954  0.4744 -1.7114
  553MOL0     H74653  -0.289   3.726   7.876 -1.3048  0.0622 -0.9499
  553MOL0     H74654   0.521   3.624   7.258  1.6096  0.5677 -1.0574
  553MOL0     H74655   0.699   3.799   7.254  0.2797  1.1962  0.5907
  554MOL0     O74656   3.481   7.949   2.934  0.3168 -0.6374 -0.1811
  554MOL0     C74657   3.580   7.996   2.883 -1.1170 -0.0594 -0.6910
  554MOL0     O74658   3.596   8.023   2.754 -0.5391  0.0122 -0.3130
  554MOL0     C74659   3.491   8.013   2.666 -0.2424  0.0052  0.6407
  554MOL0     C74660   3.386   8.109   2.664 -1.1260  0.4347 -0.5710
  554MOL0     C74661   3.313   8.122   2.548 -0.0531 -0.0217  1.2559
  554MOL0     C74662   3.322   8.029   2.445 -0.0076  0.1849 -0.3824
  554MOL0     O74663   3.226   8.037   2.347 -0.3081  0.1822  0.0433
  554MOL0     C74664   3.186   7.917   2.274  0.3818 -1.1569  1.2085
  554MOL0     C74665   3.049   7.934   2.219 -0.1397 -0.3366 -0.2077
  554MOL0     C74666   3.023   7.816   2.129  0.5159 -0.8446 -0.4601
  554MOL0     C74667   2.876   7.830   2.094  0.1949 -0.0017  0.3412
  554MOL0     C74668   2.848   7.736   1.980 -0.0223  0.7943  0.0745
  554MOL0     C74669   2.702   7.740   1.960  0.2856 -0.8178 -0.7503
  554MOL0     C74670   2.658   7.638   1.856  0.4777  0.1715 -0.1919
  554MOL0     C74671   2.547   7.712   1.776 -0.2454 -0.4128  1.1807
  554MOL0     N74672   2.427   7.757   1.840 -0.2570  0.4633 -0.0207
  554MOL0     C74673   2.366   7.873   1.810  0.4400  0.2628  0.5113
  554MOL0     C74674   2.254   7.872   1.880 -0.0390  0.9333 -0.2134
  554MOL0     C74675   2.157   7.976   1.870 -0.0755 -0.0897 -0.4539
  554MOL0     C74676   2.198   8.104   1.943 -0.5577  0.1247 -0.3315
  554MOL0     C74677   2.077   8.201   1.933 -1.0295 -0.1348  0.0931
  554MOL0     C74678   2.106   8.341   1.975  0.8046 -0.8874  1.1313
  554MOL0     O74679   2.157   8.321   2.104 -0.4880  0.5688  0.7171
  554MOL0     C74680   2.268   8.379   2.154  0.4279  0.8206 -0.4164
  554MOL0     C74681   2.308   8.496   2.106 -0.5293  0.9030 -0.0881
  554MOL0     C74682   2.436   8.541   2.137 -0.2399  0.2114 -0.3470
  554MOL0     C74683   2.500   8.638   2.043 -0.6989  0.5955 -0.1341
  554MOL0     C74684   2.508   8.481   2.249  0.7636  0.3554  0.2779
  554MOL0     C74685   2.646   8.522   2.293 -1.3374  0.4386  0.4970
  554MOL0     O74686   2.704   8.444   2.385 -0.5619  0.1834 -0.3901
  554MOL0     C74687   2.846   8.444   2.396 -0.3440 -0.7013  0.3715
  554MOL0     C74688   2.940   8.403   2.296 -0.2350 -0.1628  0.4488
  554MOL0     C74689   3.084   8.411   2.315  0.3283  0.4881  0.4244
  554MOL0     C74690   3.141   8.467   2.438 -0.4179  0.6353  0.7356
  554MOL0     O74691   3.272   8.520   2.438 -0.4228  0.5152  0.1302
  554MOL0     C74692   3.343   8.520   2.560  0.5065  0.1496  0.5070
  554MOL0     C74693   3.497   8.525   2.536  0.5516 -0.0760 -0.0865
  554MOL0     C74694   3.532   8.388   2.469  0.5690  0.5606 -0.4777
  554MOL0     C74695   3.681   8.396   2.427 -0.3313  0.2618 -0.1496
  554MOL0     C74696   3.736   8.253   2.411  0.9263  0.2811  0.6068
  554MOL0     C74697   3.882   8.259   2.422  0.2255  0.9723  0.2059
  554MOL0     C74698   3.935   8.115   2.418  0.5868  0.4959  0.2629
  554MOL0     C74699   4.083   8.120   2.427  0.0109 -0.5478  0.1518
  554MOL0    Cl74700   4.135   8.128   2.597 -0.1459  0.2043  0.3059
  554MOL0     C74701   3.045   8.506   2.535  0.5459 -0.4090  0.5936
  554MOL0     C74702   2.904   8.485   2.514 -0.5724  0.2195 -0.4916
  554MOL0     O74703   2.700   8.620   2.240 -0.7712 -0.2136 -0.4381
  554MOL0     C74704   2.446   8.370   2.304  0.8372 -0.4947  0.0282
  554MOL0     C74705   2.331   8.318   2.259  0.1391 -0.7911  0.5016
  554MOL0     N74706   2.244   7.745   1.944  0.0473 -0.5041  0.1789
  554MOL0     N74707   2.348   7.675   1.911 -0.6356 -0.2387  0.5981
  554MOL0     C74708   3.426   7.943   2.449 -0.2623 -0.1654 -0.5366
  554MOL0     C74709   3.513   7.930   2.553 -0.7752  0.6059  0.4422
  554MOL0     C74710   3.689   8.026   2.979 -0.3614  0.3527 -0.1986
  554MOL0     C74711   3.664   8.034   3.117 -0.4702  1.0971 -0.1409
  554MOL0     C74712   3.778   8.027   3.207  0.4953  0.6940  0.2761
  554MOL0     C74713   3.912   8.023   3.159 -0.8565  0.0946  0.4879
  554MOL0     O74714   4.020   8.014   3.249  0.4715 -0.5470  0.0038
  554MOL0     C74715   4.144   7.971   3.206  0.2225  0.5047 -0.3501
  554MOL0     C74716   4.214   7.919   3.330 -0.6715  0.0360  1.3947
  554MOL0     C74717   4.146   7.833   3.436  0.1249  0.6433  0.7595
  554MOL0     C74718   4.240   7.816   3.558  0.4163  1.1828  0.3463
  554MOL0     C74719   4.218   7.695   3.648  0.5210 -0.5390  0.1082
  554MOL0     C74720   4.215   7.604   3.727 -0.3959  0.6038  1.0642
  554MOL0     C74721   3.933   8.016   3.017  0.6720 -0.9007 -0.0691
  554MOL0     C74722   3.821   8.019   2.934  0.5853  0.8269 -0.8328
  554MOL0     H74723   3.380   8.175   2.749 -0.3058  0.4702 -0.5273
  554MOL0     H74724   3.236   8.197   2.534 -1.9888 -2.4623 -3.6646
  554MOL0     H74725   3.262   7.890   2.200 -0.6885 -1.3919  0.1645
  554MOL0     H74726   3.174   7.833   2.343 -4.1157 -1.2244  0.5915
  554MOL0     H74727   2.969   7.936   2.294 -0.9282  0.9739 -1.0377
  554MOL0     H74728   3.036   8.032   2.172  2.3661 -0.0401 -0.4047
  554MOL0     H74729   3.092   7.815   2.044  3.1616  0.7711  1.5090
  554MOL0     H74730   3.032   7.724   2.186 -1.2836 -0.1929  0.9634
  554MOL0     H74731   2.807   7.804   2.175 -0.8186  0.7746 -0.2505
  554MOL0     H74732   2.850   7.929   2.056  2.4247  0.6855  0.4273
  554MOL0     H74733   2.905   7.771   1.893 -2.2476 -0.5112 -2.0536
  554MOL0     H74734   2.870   7.641   2.030  3.0143  0.4453 -1.6886
  554MOL0     H74735   2.639   7.721   2.048 -0.9889 -0.2041 -1.4869
  554MOL0     H74736   2.682   7.843   1.931 -0.2890 -0.8962 -0.6538
  554MOL0     H74737   2.744   7.606   1.795 -1.2338 -2.3623 -1.4747
  554MOL0     H74738   2.608   7.548   1.894 -2.1739  0.8391 -1.8498
  554MOL0     H74739   2.518   7.655   1.687 -1.2870 -0.7326  1.7129
  554MOL0     H74740   2.598   7.800   1.735 -2.4830  0.8228  0.9076
  554MOL0     H74741   2.405   7.955   1.751  1.3502 -0.4662  0.0816
  554MOL0     H74742   2.128   7.993   1.765  0.6733 -1.7389 -0.9669
  554MOL0     H74743   2.066   7.937   1.918 -0.6875  2.9123  1.0783
  554MOL0     H74744   2.293   8.151   1.916  0.0767 -0.4255  0.8514
  554MOL0     H74745   2.209   8.075   2.048 -0.2151 -0.0480 -0.4133
  554MOL0     H74746   2.004   8.152   1.998  0.5731 -3.4634 -0.4518
  554MOL0     H74747   2.034   8.209   1.832  0.2455  1.2855 -0.3776
  554MOL0     H74748   2.011   8.394   1.982  0.3088 -1.5529 -0.1453
  554MOL0     H74749   2.178   8.389   1.909  0.5072 -1.2366  0.5417
  554MOL0     H74750   2.252   8.550   2.031 -0.9218 -0.7738 -1.0657
  554MOL0     H74751   2.524   8.731   2.096 -1.3252  1.2073 -0.8851
  554MOL0     H74752   2.589   8.596   1.995 -2.5425 -2.3529 -1.2397
  554MOL0     H74753   2.438   8.666   1.956  0.0071  0.2271 -0.7684
  554MOL0     H74754   2.907   8.370   2.198 -0.3994 -0.0671  0.4707
  554MOL0     H74755   3.149   8.388   2.232 -2.0584 -1.0172 -1.1541
  554MOL0     H74756   3.317   8.618   2.602  2.0572  2.0594 -2.5514
  554MOL0     H74757   3.311   8.441   2.628 -1.4511  0.1918 -0.2799
  554MOL0     H74758   3.526   8.605   2.468  1.4480 -1.3271 -1.2400
  554MOL0     H74759   3.550   8.528   2.631 -1.1557 -2.2227  1.0293
  554MOL0     H74760   3.470   8.358   2.385 -1.2996 -1.0567  1.3677
  554MOL0     H74761   3.526   8.312   2.547  1.9615  2.1604  1.2840
  554MOL0     H74762   3.700   8.445   2.331 -0.9814 -1.5834 -1.2692
  554MOL0     H74763   3.736   8.453   2.502 -0.8062  0.0534  0.3613
  554MOL0     H74764   3.702   8.198   2.323 -2.2287 -0.7896  2.3108
  554MOL0     H74765   3.698   8.201   2.499  0.3970  1.2841  0.9895
  554MOL0     H74766   3.919   8.308   2.332 -1.9426 -0.8309 -1.7844
  554MOL0     H74767   3.906   8.311   2.515 -1.9025 -1.3055  2.1743
  554MOL0     H74768   3.891   8.067   2.330  3.4098 -3.2816  0.6707
  554MOL0     H74769   3.904   8.059   2.506  1.4209  0.3819  0.4949
  554MOL0     H74770   4.127   8.207   2.378  0.0773 -0.1897  0.8377
  554MOL0     H74771   4.131   8.030   2.385  1.9780 -0.3312  1.7611
  554MOL0     H74772   3.076   8.555   2.627 -2.2212  0.2137  1.3070
  554MOL0     H74773   2.840   8.507   2.599 -0.9951  1.0614 -1.0189
  554MOL0     H74774   2.490   8.319   2.389  1.1413 -0.7677 -0.2867
  554MOL0     H74775   2.285   8.228   2.300 -1.2579  0.6340  2.2045
  554MOL0     H74776   3.428   7.874   2.365  0.9887  3.1318 -3.4857
  554MOL0     H74777   3.593   7.857   2.549  1.1790  2.6682  0.3761
  554MOL0     H74778   3.564   8.045   3.156  1.0745  1.1509  4.4503
  554MOL0     H74779   3.764   8.024   3.315  1.3018  1.4484  0.4175
  554MOL0     H74780   4.130   7.901   3.123  2.0619  0.7677 -0.9331
  554MOL0     H74781   4.199   8.054   3.160 -0.6890 -0.0306 -2.5361
  554MOL0     H74782   4.246   8.013   3.377 -0.8873  2.2132 -2.4478
  554MOL0     H74783   4.299   7.862   3.292 -0.9135  0.6594 -0.1364
  554MOL0     H74784   4.133   7.732   3.396  1.5518  0.4629  0.7162
  554MOL0     H74785   4.052   7.874   3.475  1.1210  1.6864  2.1452
  554MOL0     H74786   4.228   7.908   3.615 -0.9381  2.0938 -1.3394
  554MOL0     H74787   4.345   7.809   3.526 -0.0069  0.1934 -0.9028
  554MOL0     H74788   4.217   7.529   3.803 -1.1029  0.6623  1.1450
  554MOL0     H74789   4.026   8.022   2.962  0.2618  1.4233 -0.6111
  554MOL0     H74790   3.828   8.013   2.826  0.0363 -0.8068 -0.8004
  555MOL0     O74791   5.044   7.702  10.394  0.4801 -0.1502  0.1435
  555MOL0     C74792   4.981   7.791  10.339  0.4499  0.2419 -0.1377
  555MOL0     O74793   4.849   7.822  10.362 -0.8787  0.0234 -0.7235
  555MOL0     C74794   4.771   7.759  10.459  0.0072 -0.4016  0.0501
  555MOL0     C74795   4.661   7.834  10.492  0.5705  0.0147  0.4104
  555MOL0     C74796   4.556   7.775  10.558  0.3301  0.2676  0.3289
  555MOL0     C74797   4.562   7.644  10.604 -0.2622 -0.4070 -0.9272
  555MOL0     O74798   4.462   7.583  10.677  0.5902 -0.7269  0.0510
  555MOL0     C74799   4.329   7.585  10.624 -0.1695  0.3162  0.1557
  555MOL0     C74800   4.247   7.493  10.712 -0.8191 -0.9158 -0.0628
  555MOL0     C74801   4.099   7.487  10.662  0.4958 -0.3235  0.4619
  555MOL0     C74802   4.003   7.401  10.747 -0.2477 -0.2783 -0.2547
  555MOL0     C74803   3.872   7.373  10.675  0.2864  0.0057 -0.1896
  555MOL0     C74804   3.806   7.498  10.616  0.3345  0.5329 -0.2435
  555MOL0     C74805   3.668   7.471  10.549 -0.3101 -0.1443  0.7322
  555MOL0     C74806   3.690   7.435  10.401 -0.3196  0.6003  0.8064
  555MOL0     N74807   3.570   7.480  10.325 -0.5389 -0.1136 -0.1524
  555MOL0     C74808   3.489   7.399  10.251 -0.0565  0.7435 -0.1177
  555MOL0     C74809   3.405   7.483  10.179 -0.5446  0.3826  0.1893
  555MOL0     C74810   3.297   7.447  10.088  1.1875 -0.8295  0.2982
  555MOL0     C74811   3.171   7.522  10.131 -0.5610  0.1343  0.1683
  555MOL0     C74812   3.045   7.439  10.095  0.6591  0.5468 -0.4580
  555MOL0     C74813   2.911   7.512  10.099 -0.3328 -0.3868 -0.4672
  555MOL0     O74814   2.908   7.626  10.012  0.6375 -0.1573 -0.1392
  555MOL0     C74815   2.798   7.704  10.002  0.3648 -0.1845  0.5113
  555MOL0     C74816   2.676   7.687  10.077 -0.1592 -0.6595 -1.1761
  555MOL0     C74817   2.559   7.767  10.065 -0.3597 -0.5766 -0.7162
  555MOL0     C74818   2.444   7.723  10.146 -0.4777  0.0467  0.0470
  555MOL0     C74819   2.571   7.888   9.983 -0.2965  1.3688  0.0503
  555MOL0     C74820   2.462   7.985   9.969 -0.1253  0.2386  0.2046
  555MOL0     O74821   2.493   8.108   9.909 -0.5221 -0.3007  0.0698
  555MOL0     C74822   2.402   8.188   9.847 -0.2546  0.1858  1.1570
  555MOL0     C74823   2.444   8.316   9.803  0.4744  0.9028  0.3388
  555MOL0     C74824   2.367   8.391   9.708 -0.0592  0.3359 -0.5640
  555MOL0     C74825   2.240   8.346   9.671  0.2428  1.3624 -0.1785
  555MOL0     O74826   2.149   8.408   9.591  0.0580  0.6756 -0.2593
  555MOL0     C74827   2.158   8.551   9.588 -0.6786  0.6328  0.5433
  555MOL0     C74828   2.039   8.606   9.504  1.1388  0.0100 -0.1028
  555MOL0     C74829   1.908   8.553   9.566  0.1701  0.5323  0.3768
  555MOL0     C74830   1.776   8.589   9.492 -0.7032  0.8480 -0.1136
  555MOL0     C74831   1.642   8.587   9.570 -0.1111 -0.5748  0.3273
  555MOL0     C74832   1.529   8.671   9.516  0.9168  0.4916 -0.2107
  555MOL0     C74833   1.422   8.711   9.617  0.4070  0.2779  0.1107
  555MOL0     C74834   1.354   8.598   9.688 -0.9732 -0.1144  0.0334
  555MOL0    Cl74835   1.179   8.643   9.683  0.7448  0.1354  0.5969
  555MOL0     C74836   2.201   8.218   9.726  0.5095 -0.2091  0.1027
  555MOL0     C74837   2.281   8.140   9.803  0.9838  0.1411  0.2640
  555MOL0     O74838   2.351   7.957  10.013  0.1984  0.3546  0.9970
  555MOL0     C74839   2.694   7.907   9.913 -0.4553  0.3791 -0.1492
  555MOL0     C74840   2.801   7.817   9.926  0.4061  0.4556 -0.4087
  555MOL0     N74841   3.453   7.619  10.211  1.4562 -0.3171 -1.0392
  555MOL0     N74842   3.557   7.610  10.294  0.0222  0.1397  0.5494
  555MOL0     C74843   4.690   7.576  10.599 -0.1669 -0.0207  0.0979
  555MOL0     C74844   4.795   7.639  10.527  0.1186  0.6498  0.0998
  555MOL0     C74845   5.048   7.888  10.253 -0.1624 -0.6381  0.1131
  555MOL0     C74846   5.174   7.858  10.204  0.8091 -0.3084  0.8893
  555MOL0     C74847   5.242   7.952  10.130 -0.3686 -0.5231  0.0731
  555MOL0     C74848   5.184   8.074  10.088 -0.1854 -0.6845 -0.0583
  555MOL0     O74849   5.256   8.152   9.999  0.4111  0.3581 -0.1550
  555MOL0     C74850   5.204   8.272   9.951 -0.4045 -0.0950  0.0772
  555MOL0     C74851   5.322   8.362   9.893 -0.2011  0.2152  0.3981
  555MOL0     C74852   5.387   8.306   9.776  0.1233 -0.4625 -0.7720
  555MOL0     C74853   5.493   8.413   9.718 -0.2404  0.3839 -0.7139
  555MOL0     C74854   5.618   8.405   9.795 -0.3160  0.3191 -1.1607
  555MOL0     C74855   5.711   8.414   9.878 -0.4614  0.5063  0.0376
  555MOL0     C74856   5.059   8.109  10.137 -0.0432 -0.3637 -0.6017
  555MOL0     C74857   4.990   8.018  10.220 -0.3895  0.1967 -0.3997
  555MOL0     H74858   4.664   7.939  10.465 -1.1060  0.0233  0.1422
  555MOL0     H74859   4.463   7.828  10.576  0.7618  1.3658 -0.5974
  555MOL0     H74860   4.281   7.682  10.639 -1.1967 -0.2017  0.3057
  555MOL0     H74861   4.318   7.552  10.521  0.4856 -2.6646  0.9554
  555MOL0     H74862   4.294   7.394  10.716  0.2346 -0.4075  0.9149
  555MOL0     H74863   4.256   7.542  10.809 -2.3242  0.3512 -0.5265
  555MOL0     H74864   4.053   7.586  10.657  2.6517  0.7140 -0.3709
  555MOL0     H74865   4.090   7.444  10.562 -0.4715 -1.4804  1.0289
  555MOL0     H74866   4.051   7.308  10.779  2.7064  0.8162 -1.2199
  555MOL0     H74867   3.986   7.466  10.833 -0.1993  1.6526 -1.6394
  555MOL0     H74868   3.885   7.301  10.594  0.8462 -3.0974  2.4476
  555MOL0     H74869   3.813   7.319  10.749  2.3049 -2.2386 -0.1007
  555MOL0     H74870   3.779   7.574  10.689  0.0815 -0.3992  0.6624
  555MOL0     H74871   3.874   7.541  10.541 -0.4139  0.5494 -0.9206
  555MOL0     H74872   3.602   7.399  10.599 -2.3670  0.4129 -0.9953
  555MOL0     H74873   3.612   7.565  10.554  2.1629  1.5136 -1.0352
  555MOL0     H74874   3.717   7.329  10.391  0.3101  0.6044  2.2883
  555MOL0     H74875   3.775   7.491  10.359 -0.3439  1.2434  1.5985
  555MOL0     H74876   3.477   7.291  10.253 -0.7419  0.8162  0.2457
  555MOL0     H74877   3.327   7.491   9.993 -3.8826  1.5997 -0.5118
  555MOL0     H74878   3.279   7.340  10.079  1.0859 -0.7210 -0.9363
  555MOL0     H74879   3.162   7.616  10.076 -1.1072  0.1517  0.2782
  555MOL0     H74880   3.178   7.543  10.238  0.8661  1.1983 -0.1040
  555MOL0     H74881   3.038   7.369  10.179 -3.7897  1.5296  0.2185
  555MOL0     H74882   3.060   7.387  10.000  1.1189  0.1372 -0.1632
  555MOL0     H74883   2.892   7.527  10.206  0.0790 -0.7350 -0.3440
  555MOL0     H74884   2.829   7.452  10.059 -1.5200 -0.0693  1.3550
  555MOL0     H74885   2.670   7.605  10.149 -1.4312  0.3936 -0.0252
  555MOL0     H74886   2.354   7.692  10.093  0.8229 -2.8847 -0.6889
  555MOL0     H74887   2.478   7.639  10.208 -2.0906 -0.8946 -0.2815
  555MOL0     H74888   2.410   7.794  10.222 -0.8464  0.5214 -0.5587
  555MOL0     H74889   2.539   8.356   9.839  1.3178 -1.8353  1.3966
  555MOL0     H74890   2.387   8.493   9.677 -0.9223  1.6440  2.7333
  555MOL0     H74891   2.175   8.608   9.681  1.4766  1.4477 -0.2867
  555MOL0     H74892   2.251   8.581   9.539  0.1956 -0.7722  1.2678
  555MOL0     H74893   2.037   8.715   9.498 -1.3048  0.0450  0.3044
  555MOL0     H74894   2.041   8.558   9.405 -2.2430 -2.8289  0.9852
  555MOL0     H74895   1.915   8.596   9.666  1.9450 -0.2773  0.6372
  555MOL0     H74896   1.907   8.445   9.582 -0.6567  0.5505  0.4947
  555MOL0     H74897   1.785   8.687   9.445 -0.3452  2.9697  3.9612
  555MOL0     H74898   1.765   8.513   9.414 -3.3675 -1.0425  1.9330
  555MOL0     H74899   1.668   8.642   9.662  1.3642  2.1104 -1.5256
  555MOL0     H74900   1.612   8.483   9.587  0.1287 -0.3682  2.2513
  555MOL0     H74901   1.570   8.761   9.469 -1.2271  0.6109 -2.0477
  555MOL0     H74902   1.475   8.608   9.445 -0.4597  0.6428  0.6591
  555MOL0     H74903   1.347   8.780   9.577  0.8553 -0.5496 -2.3085
  555MOL0     H74904   1.478   8.767   9.693 -0.8108  1.4038  0.2297
  555MOL0     H74905   1.394   8.582   9.788 -2.4437 -2.6673  0.3090
  555MOL0     H74906   1.367   8.503   9.636 -2.0456  0.0804 -0.6224
  555MOL0     H74907   2.113   8.185   9.670  2.7306  0.2203 -4.0530
  555MOL0     H74908   2.253   8.036   9.808  2.2285 -0.1498  2.6986
  555MOL0     H74909   2.700   7.978   9.831 -5.2172 -0.5134 -1.6275
  555MOL0     H74910   2.887   7.826   9.862  1.2399 -0.5714  0.5227
  555MOL0     H74911   4.713   7.483  10.651 -2.1332  0.2412  1.5420
  555MOL0     H74912   4.892   7.590  10.528  1.3612  2.9067 -0.9785
  555MOL0     H74913   5.218   7.759  10.209  1.9326 -0.4552 -4.8571
  555MOL0     H74914   5.344   7.928  10.099  0.1887  0.0870  1.3398
  555MOL0     H74915   5.145   8.239   9.865 -1.0241 -0.9241  0.7974
  555MOL0     H74916   5.130   8.321  10.016 -1.9236 -3.3956  1.0216
  555MOL0     H74917   5.409   8.370   9.958 -0.1459  0.4711  0.2941
  555MOL0     H74918   5.283   8.461   9.869  1.1399  0.2060 -2.1627
  555MOL0     H74919   5.313   8.283   9.699 -1.7527 -1.5081  1.2267
  555MOL0     H74920   5.441   8.212   9.789  0.1414 -0.1713  1.6694
  555MOL0     H74921   5.457   8.513   9.743  1.6458  0.5664  1.6172
  555MOL0     H74922   5.513   8.406   9.611 -2.8888  1.1336 -1.3313
  555MOL0     H74923   5.804   8.407   9.931  1.4258 -0.1186 -3.0728
  555MOL0     H74924   5.012   8.204  10.113 -1.4920 -1.5169 -2.6774
  555MOL0     H74925   4.899   8.050  10.271 -1.0193 -1.6077 -0.3402
  556MOL0     O74926  11.237   0.726   7.588  0.1883  0.4367  0.4604
  556MOL0     C74927  11.241   0.602   7.607 -0.4349  0.0136 -0.9991
  556MOL0     O74928  11.136   0.522   7.612  0.1163 -0.4592 -0.4029
  556MOL0     C74929  11.016   0.587   7.597  0.0875 -1.1656  0.0731
  556MOL0     C74930  10.976   0.686   7.686 -0.2983  0.5830  0.8387
  556MOL0     C74931  10.845   0.737   7.672 -0.1289 -0.0328  0.0565
  556MOL0     C74932  10.764   0.700   7.562 -0.6962  0.4611  0.2743
  556MOL0     O74933  10.634   0.740   7.575  0.3783  0.5598  0.2515
  556MOL0     C74934  10.529   0.666   7.505 -0.3397  0.3164  0.1090
  556MOL0     C74935  10.395   0.738   7.512  0.8260  1.3498 -0.1824
  556MOL0     C74936  10.360   0.794   7.646 -0.1386 -0.0783 -0.2519
  556MOL0     C74937  10.222   0.839   7.647  0.2996  0.2085 -0.3983
  556MOL0     C74938  10.189   0.901   7.784 -0.3769 -0.7561  0.2520
  556MOL0     C74939  10.044   0.911   7.829  0.1041  0.2248  0.5240
  556MOL0     C74940   9.951   1.005   7.738  0.1197  0.6536  0.1346
  556MOL0     C74941   9.983   1.157   7.781 -0.3449  0.0302 -0.1590
  556MOL0     N74942   9.932   1.248   7.683  0.6578  0.3251 -0.1623
  556MOL0     C74943   9.834   1.333   7.709 -0.1927  0.2782 -0.5733
  556MOL0     C74944   9.846   1.425   7.614 -0.2417  0.5890 -0.4843
  556MOL0     C74945   9.760   1.547   7.601 -0.8994 -0.6415  0.3293
  556MOL0     C74946   9.610   1.529   7.605 -0.6326 -0.4831 -0.1025
  556MOL0     C74947   9.543   1.566   7.472 -0.2787 -0.6814  0.1298
  556MOL0     C74948   9.421   1.463   7.452  0.0912 -0.2906  0.9603
  556MOL0     O74949   9.367   1.499   7.326  0.4389  0.2982  0.4879
  556MOL0     C74950   9.232   1.477   7.313  1.2130 -0.3260 -0.4114
  556MOL0     C74951   9.163   1.550   7.213 -0.1679 -0.0662 -0.7066
  556MOL0     C74952   9.043   1.513   7.177 -0.2298 -0.1888 -0.1491
  556MOL0     C74953   8.974   1.596   7.071  0.0029  0.1581  0.1412
  556MOL0     C74954   8.967   1.410   7.244 -0.6637  0.1626 -0.7031
  556MOL0     C74955   8.826   1.386   7.214 -0.4545 -0.8868 -0.3076
  556MOL0     O74956   8.745   1.503   7.196  0.1852 -0.6116 -0.1068
  556MOL0     C74957   8.610   1.482   7.181  0.6863 -0.6727 -0.5592
  556MOL0     C74958   8.534   1.406   7.271 -0.0374  0.8442 -0.1143
  556MOL0     C74959   8.396   1.413   7.276  0.8175 -0.2067 -0.7954
  556MOL0     C74960   8.328   1.500   7.188 -0.1185 -0.7533 -0.4953
  556MOL0     O74961   8.190   1.528   7.207  0.2927  0.5331  0.1110
  556MOL0     C74962   8.132   1.657   7.171 -0.3800  0.4376 -0.1861
  556MOL0     C74963   8.070   1.646   7.035  1.3424  0.0012  0.5206
  556MOL0     C74964   7.932   1.565   7.036  0.1668 -0.4491 -0.3268
  556MOL0     C74965   7.814   1.625   7.106  0.2576  0.5967  0.1676
  556MOL0     C74966   7.694   1.529   7.098  0.2333 -0.4819  0.1876
  556MOL0     C74967   7.567   1.598   7.135  0.2561  1.1970  0.4487
  556MOL0     C74968   7.449   1.500   7.151  0.6981 -0.1662  0.4359
  556MOL0     C74969   7.410   1.431   7.023 -0.1979  0.5789  0.2289
  556MOL0    Cl74970   7.234   1.394   7.025 -0.5648  0.0452 -0.0502
  556MOL0     C74971   8.401   1.572   7.094 -0.1066  0.1706  0.9869
  556MOL0     C74972   8.539   1.551   7.084 -1.2709  0.7221  0.2037
  556MOL0     O74973   8.797   1.271   7.195  0.5348  0.3485 -0.4152
  556MOL0     C74974   9.028   1.339   7.353 -0.1559 -0.0350 -0.1154
  556MOL0     C74975   9.163   1.366   7.377 -0.5263  0.3947 -0.0248
  556MOL0     N74976   9.938   1.386   7.522 -0.4734 -0.2525  0.1008
  556MOL0     N74977  10.001   1.287   7.575  0.3689  0.2542 -0.1510
  556MOL0     C74978  10.806   0.598   7.475  0.5152 -0.3733 -1.0866
  556MOL0     C74979  10.928   0.555   7.494  0.3905  0.2647  0.1783
  556MOL0     C74980  11.381   0.536   7.610  0.7480  0.5992 -0.5861
  556MOL0     C74981  11.496   0.605   7.597  0.3840 -0.6206 -0.4695
  556MOL0     C74982  11.615   0.540   7.634 -0.4812  0.7349 -0.3855
  556MOL0     C74983  11.617   0.399   7.673 -0.3476 -0.1410  0.1615
  556MOL0     O74984  11.734   0.326   7.688 -0.6527  0.5461 -0.2164
  556MOL0     C74985  11.860   0.405   7.693  0.1366  0.4313  0.1179
  556MOL0     C74986  11.981   0.312   7.698 -0.5002  0.7538  0.2089
  556MOL0     C74987  11.993   0.225   7.570 -0.5533 -0.7846 -0.4718
  556MOL0     C74988  12.027   0.297   7.434  0.2774  0.6546  0.8774
  556MOL0     C74989  12.152   0.372   7.445  0.4057 -0.7853 -0.0770
  556MOL0     C74990  12.256   0.434   7.445 -0.2979 -0.1769 -0.1834
  556MOL0     C74991  11.497   0.334   7.688  0.1005  0.0485  0.0193
  556MOL0     C74992  11.381   0.397   7.653 -0.1713  0.0916 -0.0671
  556MOL0     H74993  11.045   0.721   7.762  2.6274  0.2877 -1.4682
  556MOL0     H74994  10.796   0.806   7.740 -2.2233 -2.1875  0.8690
  556MOL0     H74995  10.558   0.674   7.400  0.2295 -1.1893  0.1246
  556MOL0     H74996  10.541   0.558   7.522 -0.4376  0.2495 -0.2406
  556MOL0     H74997  10.387   0.824   7.444 -2.2271 -1.8974 -4.4818
  556MOL0     H74998  10.324   0.662   7.478  1.0026 -0.2539  2.7327
  556MOL0     H74999  10.394   0.724   7.723  1.4025 -1.4897 -2.0900
  556MOL0     H75000  10.419   0.886   7.655  4.1576 -2.4571 -1.2596
  556MOL0     H75001  10.200   0.907   7.564 -1.4175 -0.5610 -0.6222
  556MOL0     H75002  10.157   0.753   7.630  0.1536  0.3593 -0.6210
  556MOL0     H75003  10.241   0.841   7.860  0.7577  2.4132  2.1920
  556MOL0     H75004  10.233   1.001   7.780  2.5524 -1.9910 -1.4623
  556MOL0     H75005  10.005   0.810   7.820  2.1908 -0.4061 -5.2368
  556MOL0     H75006  10.040   0.941   7.934  1.8883  1.8367  0.1824
  556MOL0     H75007   9.979   0.989   7.634  0.0377 -1.5203  0.4058
  556MOL0     H75008   9.846   0.980   7.757  0.3535 -0.8763 -0.4585
  556MOL0     H75009  10.092   1.163   7.779 -0.2296 -1.4989  0.7082
  556MOL0     H75010   9.944   1.177   7.881 -0.4509  1.7102 -0.5092
  556MOL0     H75011   9.771   1.341   7.797 -0.3279  3.6730 -0.8394
  556MOL0     H75012   9.788   1.624   7.673 -1.2267 -1.3130  1.1819
  556MOL0     H75013   9.785   1.601   7.509  0.6393 -1.0641  0.4773
  556MOL0     H75014   9.547   1.578   7.680 -0.6403  1.2104 -1.1778
  556MOL0     H75015   9.605   1.419   7.610  1.8506 -0.6440 -0.0310
  556MOL0     H75016   9.614   1.571   7.388  0.3689  2.0129  0.7485
  556MOL0     H75017   9.512   1.671   7.472 -0.4438 -0.7253 -0.4336
  556MOL0     H75018   9.344   1.492   7.524 -0.8671  1.1039 -0.5728
  556MOL0     H75019   9.439   1.355   7.454  0.1986 -0.4677 -2.7612
  556MOL0     H75020   9.216   1.622   7.152  2.2226 -1.4431 -0.3574
  556MOL0     H75021   8.910   1.672   7.117 -2.2918  0.2862 -2.9872
  556MOL0     H75022   9.049   1.644   7.008 -0.7047  0.6742 -0.3229
  556MOL0     H75023   8.915   1.533   7.005 -0.6177 -0.5072  1.2966
  556MOL0     H75024   8.582   1.345   7.347 -1.4210  1.0554  0.9745
  556MOL0     H75025   8.331   1.359   7.345  0.7738 -2.0059 -2.1500
  556MOL0     H75026   8.056   1.677   7.247  0.8592 -2.3171  1.9517
  556MOL0     H75027   8.207   1.736   7.184  0.6724 -0.6035  0.3065
  556MOL0     H75028   8.042   1.745   6.998 -0.0801 -0.2816  0.8054
  556MOL0     H75029   8.124   1.590   6.958 -2.0942 -1.0575 -1.3551
  556MOL0     H75030   7.965   1.470   7.079  2.1749 -1.4633 -3.6371
  556MOL0     H75031   7.901   1.536   6.935 -0.2876 -2.5488  0.3684
  556MOL0     H75032   7.845   1.648   7.208  2.1829 -0.1878 -0.1898
  556MOL0     H75033   7.787   1.720   7.059  3.2202  1.2204 -0.4879
  556MOL0     H75034   7.703   1.439   7.159  1.7050  0.5843  1.6247
  556MOL0     H75035   7.684   1.507   6.991  2.5590 -0.4157 -0.0863
  556MOL0     H75036   7.569   1.646   7.233 -0.3617 -4.3994  3.6537
  556MOL0     H75037   7.548   1.683   7.069 -0.8037  1.6711  1.3421
  556MOL0     H75038   7.368   1.569   7.177 -0.2459 -1.3163  0.6452
  556MOL0     H75039   7.458   1.424   7.229 -2.8712 -0.7940  0.4193
  556MOL0     H75040   7.470   1.340   7.017 -1.2627 -0.0444 -1.6038
  556MOL0     H75041   7.420   1.496   6.935 -0.9259  2.0080  1.1599
  556MOL0     H75042   8.350   1.631   7.018  1.4281 -0.8259 -0.9275
  556MOL0     H75043   8.597   1.603   7.010 -2.5563  1.1097 -0.5655
  556MOL0     H75044   8.980   1.254   7.401 -0.3831 -0.8800 -1.7920
  556MOL0     H75045   9.217   1.300   7.445  0.4229  0.9450 -0.2169
  556MOL0     H75046  10.742   0.542   7.407 -0.1625  0.3137 -1.0246
  556MOL0     H75047  10.960   0.470   7.433  1.3744 -0.9713  2.3018
  556MOL0     H75048  11.486   0.710   7.574 -0.1545 -0.5054  0.2690
  556MOL0     H75049  11.704   0.600   7.645 -1.1776  1.4941  1.4947
  556MOL0     H75050  11.875   0.466   7.604  3.6983  1.0312  0.9791
  556MOL0     H75051  11.864   0.478   7.775  3.4517  1.2773 -0.6807
  556MOL0     H75052  11.971   0.236   7.777 -1.5639 -1.3200 -1.8230
  556MOL0     H75053  12.069   0.376   7.703 -0.1492  0.6289 -2.7311
  556MOL0     H75054  11.896   0.175   7.558 -1.7427  0.4511  2.8084
  556MOL0     H75055  12.062   0.142   7.591 -0.8475 -0.5272  1.7457
  556MOL0     H75056  11.940   0.354   7.402  0.4207 -0.1210 -0.9642
  556MOL0     H75057  12.040   0.230   7.349  0.2422 -0.3995  1.6898
  556MOL0     H75058  12.347   0.490   7.453 -0.1238 -0.6900  1.9153
  556MOL0     H75059  11.506   0.226   7.702  1.2499  0.0830 -0.3668
  556MOL0     H75060  11.296   0.332   7.669  1.9396 -2.9350 -0.3915
  557MOL0     O75061   1.323   8.313  10.935  0.0514 -0.1966 -0.5136
  557MOL0     C75062   1.286   8.267  10.824  0.5096 -0.3227  0.0715
  557MOL0     O75063   1.175   8.208  10.793  0.0490  0.0213 -0.0098
  557MOL0     C75064   1.102   8.157  10.895 -0.5252 -0.0129  0.1614
  557MOL0     C75065   1.035   8.249  10.987 -0.1521  0.5069 -0.0354
  557MOL0     C75066   0.960   8.198  11.088 -0.3518  1.1685  0.5310
  557MOL0     C75067   0.936   8.062  11.104 -0.0422 -0.0668 -0.5887
  557MOL0     O75068   0.855   8.000  11.197  0.0425 -0.1701 -0.0719
  557MOL0     C75069   0.778   8.085  11.291  0.2437  0.7612  0.0281
  557MOL0     C75070   0.665   8.136  11.212 -0.0728 -0.1095 -0.2206
  557MOL0     C75071   0.576   8.225  11.299 -0.0561  0.6255 -0.2997
  557MOL0     C75072   0.460   8.271  11.217 -0.0887  0.0046 -0.0388
  557MOL0     C75073   0.474   8.428  11.211 -0.2685 -0.0679  0.1960
  557MOL0     C75074   0.345   8.469  11.140 -0.1057 -0.8601 -0.6334
  557MOL0     C75075   0.346   8.608  11.070  0.5741 -0.2965  0.0387
  557MOL0     C75076   0.224   8.647  10.983 -0.0535  0.8049  0.3053
  557MOL0     N75077   0.092   8.640  11.046  0.1906 -0.0869  0.1910
  557MOL0     C75078   0.066   8.683  11.174 -0.3484 -0.2881  1.0574
  557MOL0     C75079  -0.066   8.666  11.181  0.6373  0.3264 -0.3458
  557MOL0     C75080  -0.145   8.714  11.299  0.0763 -0.0618 -0.1604
  557MOL0     C75081  -0.292   8.733  11.259  0.7979 -0.3203 -0.0609
  557MOL0     C75082  -0.373   8.818  11.347 -0.1644 -1.2556  0.7316
  557MOL0     C75083  -0.411   8.757  11.487 -0.2780 -0.6234 -1.3900
  557MOL0     O75084  -0.515   8.842  11.555 -0.2881  0.7315  0.7239
  557MOL0     C75085  -0.620   8.782  11.611  1.1768 -0.2902  0.0594
  557MOL0     C75086  -0.695   8.853  11.706 -1.1983 -0.0574 -0.1530
  557MOL0     C75087  -0.828   8.818  11.728 -0.2302  0.2293  0.1427
  557MOL0     C75088  -0.904   8.914  11.816  0.4594 -0.6116 -0.2048
  557MOL0     C75089  -0.890   8.707  11.668  0.7033 -0.2579 -0.6575
  557MOL0     C75090  -1.034   8.658  11.689 -0.1311  0.0498 -0.6850
  557MOL0     O75091  -1.090   8.574  11.595 -0.1978 -0.3007  0.0810
  557MOL0     C75092  -1.229   8.563  11.607  1.5052  0.9742  0.1633
  557MOL0     C75093  -1.311   8.616  11.498  0.4002  1.2038  1.1114
  557MOL0     C75094  -1.450   8.623  11.507  0.3328 -0.1234  0.8327
  557MOL0     C75095  -1.515   8.565  11.617 -0.0397 -0.9826 -0.8139
  557MOL0     O75096  -1.655   8.582  11.624 -0.2734 -0.8171  0.6970
  557MOL0     C75097  -1.700   8.682  11.712  0.4637 -0.1922  0.1480
  557MOL0     C75098  -1.761   8.615  11.834 -0.7939  0.0958  0.7853
  557MOL0     C75099  -1.795   8.713  11.950 -0.1957  0.3203  0.1162
  557MOL0     C75100  -1.914   8.803  11.924 -0.2545 -0.2671 -0.6579
  557MOL0     C75101  -2.051   8.732  11.924  0.4362  0.5545  0.0322
  557MOL0     C75102  -2.158   8.836  11.900 -0.1960  0.3419  0.1473
  557MOL0     C75103  -2.293   8.783  11.942  0.0927 -0.4156 -0.3923
  557MOL0     C75104  -2.379   8.880  12.022  0.1936 -0.2062  0.2660
  557MOL0    Cl75105  -2.551   8.820  12.022  0.3475  0.7819 -0.0139
  557MOL0     C75106  -1.441   8.509  11.724  0.1758  0.1602 -0.1296
  557MOL0     C75107  -1.298   8.505  11.715  0.1526  0.2310  0.2441
  557MOL0     O75108  -1.088   8.690  11.798  0.8246 -0.7073  0.2720
  557MOL0     C75109  -0.816   8.631  11.587 -0.2897 -0.9143  0.3190
  557MOL0     C75110  -0.683   8.662  11.562 -0.5605  0.7519  0.7230
  557MOL0     N75111  -0.115   8.606  11.065  0.8589 -0.3342  0.8824
  557MOL0     N75112  -0.016   8.588  10.982 -0.1256  0.4257 -0.1547
  557MOL0     C75113   0.999   7.974  11.014 -0.0771 -0.4483  0.3399
  557MOL0     C75114   1.084   8.017  10.913  0.5137 -0.6842 -0.4124
  557MOL0     C75115   1.365   8.277  10.695  0.3886  0.2054  0.0645
  557MOL0     C75116   1.496   8.325  10.699  0.4948 -0.1120 -0.2259
  557MOL0     C75117   1.582   8.319  10.588  0.7330  0.0211 -0.4969
  557MOL0     C75118   1.526   8.299  10.461 -0.1139 -0.7641  0.6630
  557MOL0     O75119   1.616   8.295  10.354 -0.3593 -0.5384 -0.5310
  557MOL0     C75120   1.582   8.212  10.243  0.2656 -0.8427  0.2073
  557MOL0     C75121   1.521   8.293  10.129  0.1917 -0.4553  0.5339
  557MOL0     C75122   1.634   8.358  10.038  0.3063 -0.1902 -0.3055
  557MOL0     C75123   1.678   8.255   9.937 -0.0255 -0.3361  0.7305
  557MOL0     C75124   1.803   8.299   9.873  0.0408  0.1924 -0.6937
  557MOL0     C75125   1.916   8.334   9.843  0.5195 -1.0343 -0.4266
  557MOL0     C75126   1.391   8.272  10.454 -0.8535 -0.3032  0.5697
  557MOL0     C75127   1.315   8.249  10.573  0.1158  0.1965  0.7923
  557MOL0     H75128   1.029   8.357  10.979 -0.2613  0.4608 -0.6345
  557MOL0     H75129   0.911   8.271  11.153  1.6835  0.7423  2.7038
  557MOL0     H75130   0.747   8.013  11.367 -2.7146  3.6501  1.8146
  557MOL0     H75131   0.835   8.155  11.354 -1.5607  0.2678  2.3774
  557MOL0     H75132   0.694   8.199  11.127 -1.1671 -0.6752 -1.0397
  557MOL0     H75133   0.609   8.057  11.161 -0.2348 -0.3490  0.3155
  557MOL0     H75134   0.539   8.174  11.389  0.7764  0.9329  0.2320
  557MOL0     H75135   0.640   8.307  11.334 -1.8068  1.8214  0.1943
  557MOL0     H75136   0.476   8.222  11.121  1.5899 -0.5886  0.5183
  557MOL0     H75137   0.372   8.238  11.272 -0.4110 -0.1126 -0.6190
  557MOL0     H75138   0.489   8.476  11.309  3.3280  4.0558 -2.0228
  557MOL0     H75139   0.568   8.449  11.159  2.0977 -1.2221  3.5828
  557MOL0     H75140   0.331   8.387  11.069  1.2122 -3.1090  1.5435
  557MOL0     H75141   0.266   8.466  11.215  0.5259 -0.5607  0.0666
  557MOL0     H75142   0.347   8.680  11.153 -0.9344  0.4979 -0.5997
  557MOL0     H75143   0.438   8.606  11.012  1.0256 -0.8399  0.7463
  557MOL0     H75144   0.223   8.588  10.891 -0.6331  2.8524 -1.0818
  557MOL0     H75145   0.234   8.751  10.951 -2.1655  1.6171  1.9886
  557MOL0     H75146   0.125   8.742  11.243  1.8791  0.5459 -1.3844
  557MOL0     H75147  -0.127   8.640  11.378  0.3635 -0.9682 -1.0611
  557MOL0     H75148  -0.102   8.806  11.339 -1.0589 -2.4939  8.7321
  557MOL0     H75149  -0.346   8.640  11.239  1.7808 -0.4768 -2.3601
  557MOL0     H75150  -0.288   8.789  11.165 -1.7150 -2.4629 -1.5977
  557MOL0     H75151  -0.461   8.844  11.288  0.8374  1.0230  0.1245
  557MOL0     H75152  -0.311   8.907  11.357  1.6874 -2.5787  1.7049
  557MOL0     H75153  -0.330   8.744  11.560 -4.5074 -3.2265  3.5052
  557MOL0     H75154  -0.433   8.654  11.460  4.3730 -2.2974  0.1264
  557MOL0     H75155  -0.645   8.940  11.746  2.7375 -2.1181 -0.1599
  557MOL0     H75156  -0.933   8.877  11.915  0.5329 -2.3980 -0.8171
  557MOL0     H75157  -0.842   9.002  11.837  0.1914 -0.5873  0.5264
  557MOL0     H75158  -0.996   8.943  11.765 -0.8093  1.7829  3.0932
  557MOL0     H75159  -1.253   8.657  11.415 -0.7058 -2.1020 -1.5274
  557MOL0     H75160  -1.520   8.659  11.432 -0.1925 -1.1869  0.7846
  557MOL0     H75161  -1.618   8.748  11.740 -1.4801  2.1723  0.5972
  557MOL0     H75162  -1.777   8.743  11.664 -0.8340 -1.2491  0.8194
  557MOL0     H75163  -1.848   8.561  11.796  1.8061 -2.6689 -1.8802
  557MOL0     H75164  -1.692   8.534  11.860  0.3317 -0.6445 -3.5881
  557MOL0     H75165  -1.714   8.776  11.989 -0.7632 -0.9822  3.7927
  557MOL0     H75166  -1.827   8.642  12.027  0.2056 -0.8375 -0.7772
  557MOL0     H75167  -1.924   8.874  12.007 -2.4365 -1.5195  0.2186
  557MOL0     H75168  -1.895   8.855  11.829  1.7834  0.8313  0.2679
  557MOL0     H75169  -2.063   8.696  12.027  1.2532 -0.1191 -0.0962
  557MOL0     H75170  -2.057   8.642  11.863  0.4391  0.4005  0.2589
  557MOL0     H75171  -2.127   8.916  11.968 -0.0184 -1.1019  1.8281
  557MOL0     H75172  -2.153   8.870  11.796  0.1124  0.6477  0.2583
  557MOL0     H75173  -2.285   8.685  11.991 -1.9615  0.9477  3.0072
  557MOL0     H75174  -2.350   8.762  11.852  0.1109  0.0281 -0.5080
  557MOL0     H75175  -2.362   8.981  11.984  1.6906 -0.6233 -0.2284
  557MOL0     H75176  -2.340   8.887  12.124 -1.5314  1.6001  0.8744
  557MOL0     H75177  -1.495   8.471  11.810 -0.7538 -0.7154 -1.0698
  557MOL0     H75178  -1.232   8.471  11.794 -0.2749  0.7837  0.8543
  557MOL0     H75179  -0.861   8.556  11.522  1.3633 -0.9989 -0.7799
  557MOL0     H75180  -0.641   8.596  11.487  2.4649  3.2467 -0.0102
  557MOL0     H75181   0.987   7.867  11.028  2.7971 -0.8079  0.5084
  557MOL0     H75182   1.142   7.952  10.848  5.4693 -1.1660  3.8524
  557MOL0     H75183   1.535   8.358  10.795  0.3914  1.9681 -0.8623
  557MOL0     H75184   1.687   8.348  10.588  1.2649 -1.6623  1.4872
  557MOL0     H75185   1.676   8.160  10.224  1.1933  1.8182 -3.5789
  557MOL0     H75186   1.505   8.138  10.266 -0.6546  0.2078  0.6056
  557MOL0     H75187   1.467   8.374  10.178 -0.3641 -1.2413  1.2391
  557MOL0     H75188   1.451   8.240  10.063 -2.0635  1.5126  1.2136
  557MOL0     H75189   1.713   8.389  10.106 -0.7892  0.4488  0.7142
  557MOL0     H75190   1.590   8.449   9.995  0.7649  0.3366  0.3332
  557MOL0     H75191   1.598   8.239   9.864 -2.1443 -0.3779  2.9502
  557MOL0     H75192   1.694   8.154   9.974 -0.0170 -1.7748 -2.7928
  557MOL0     H75193   2.010   8.358   9.798 -0.4639  1.8729 -1.1172
  557MOL0     H75194   1.344   8.262  10.356 -0.4680  2.0966  0.0777
  557MOL0     H75195   1.215   8.216  10.549  0.7969  0.1711 -2.3673
  558MOL0     O75196   1.086  11.310   0.250  0.4462  0.2900  0.4402
  558MOL0     C75197   1.149  11.246   0.326 -0.8351  0.1006  0.8404
  558MOL0     O75198   1.106  11.195   0.436 -0.2612 -0.2199  0.1387
  558MOL0     C75199   0.970  11.193   0.468 -0.8278 -0.5928 -0.1759
  558MOL0     C75200   0.864  11.188   0.380  0.1200  0.1090  0.7884
  558MOL0     C75201   0.729  11.150   0.423  0.2489  0.6950 -0.6875
  558MOL0     C75202   0.702  11.140   0.559 -1.2096  0.1100 -0.4286
  558MOL0     O75203   0.574  11.124   0.595  0.0354  0.1391 -0.4493
  558MOL0     C75204   0.541  11.042   0.710 -0.3735 -0.1356 -0.7876
  558MOL0     C75205   0.394  10.999   0.695 -0.4555 -0.2210 -0.2283
  558MOL0     C75206   0.374  10.879   0.595 -0.6673 -0.7552 -0.5276
  558MOL0     C75207   0.231  10.826   0.584  0.3321 -0.6320 -0.4383
  558MOL0     C75208   0.220  10.684   0.530 -0.4204 -0.6834  0.1620
  558MOL0     C75209   0.091  10.626   0.573 -0.5595 -0.3166 -0.1135
  558MOL0     C75210   0.059  10.488   0.501 -0.3813  0.0604  0.1782
  558MOL0     C75211  -0.079  10.430   0.550 -0.0934  0.5688 -0.1120
  558MOL0     N75212  -0.114  10.309   0.472  0.2933  0.8289 -0.2970
  558MOL0     C75213  -0.146  10.184   0.527  0.7946  0.0424  0.3805
  558MOL0     C75214  -0.170  10.112   0.418  1.2657  0.3548 -0.4738
  558MOL0     C75215  -0.205   9.961   0.404 -0.2799  0.2567 -0.6499
  558MOL0     C75216  -0.349   9.940   0.441 -0.4129  0.0086  0.3351
  558MOL0     C75217  -0.390   9.790   0.404  0.0454 -0.7085  0.4437
  558MOL0     C75218  -0.523   9.742   0.462  0.3555 -0.0462 -0.2155
  558MOL0     O75219  -0.632   9.800   0.388 -0.1059  0.0176 -0.6759
  558MOL0     C75220  -0.756   9.793   0.457 -0.4186 -0.6273 -0.5581
  558MOL0     C75221  -0.865   9.862   0.399 -0.8738  1.0490 -0.7658
  558MOL0     C75222  -0.995   9.860   0.446  0.8273  0.3157 -0.4825
  558MOL0     C75223  -1.092   9.952   0.377  0.0357 -0.1007 -0.0293
  558MOL0     C75224  -1.025   9.774   0.557  1.0923  0.1620  0.3450
  558MOL0     C75225  -1.161   9.765   0.622  0.2937 -0.3053  0.3313
  558MOL0     O75226  -1.191   9.664   0.693 -0.5216 -0.4118 -0.6033
  558MOL0     C75227  -1.329   9.638   0.715 -0.1244 -0.7653 -0.2772
  558MOL0     C75228  -1.401   9.682   0.827 -0.2271 -0.3590  0.5799
  558MOL0     C75229  -1.538   9.662   0.844 -0.9914 -0.2606  0.1195
  558MOL0     C75230  -1.611   9.593   0.751 -0.8510 -1.2154 -0.0979
  558MOL0     O75231  -1.743   9.557   0.758 -0.6470  0.4407  0.1525
  558MOL0     C75232  -1.827   9.631   0.847  1.2620 -0.9521  0.4408
  558MOL0     C75233  -1.968   9.596   0.817  0.4006  0.0287 -0.4588
  558MOL0     C75234  -2.013   9.660   0.686  1.7086 -0.1474 -0.2518
  558MOL0     C75235  -2.164   9.638   0.687  0.2147  0.8820 -0.0010
  558MOL0     C75236  -2.243   9.671   0.562 -0.9602  0.2926 -0.5386
  558MOL0     C75237  -2.392   9.642   0.568 -1.2414  0.6611 -0.5925
  558MOL0     C75238  -2.421   9.518   0.646 -0.5063 -0.6415  0.7892
  558MOL0     C75239  -2.568   9.497   0.635 -0.3518 -0.0598  0.3972
  558MOL0    Cl75240  -2.600   9.367   0.749 -0.0065  0.0251 -0.5635
  558MOL0     C75241  -1.542   9.551   0.636  0.0100 -0.2462  0.3786
  558MOL0     C75242  -1.406   9.571   0.617  0.4626  0.6943  0.1746
  558MOL0     O75243  -1.234   9.858   0.603  0.1342  0.5966 -0.1068
  558MOL0     C75244  -0.916   9.697   0.611 -0.1166  0.8710  0.1908
  558MOL0     C75245  -0.786   9.703   0.564  0.4483 -1.0457  0.6831
  558MOL0     N75246  -0.157  10.190   0.301  0.4409 -0.7171  0.1025
  558MOL0     N75247  -0.131  10.312   0.338  0.3314  0.1694  0.2624
  558MOL0     C75248   0.804  11.155   0.649 -1.1039  0.1437  0.0901
  558MOL0     C75249   0.935  11.175   0.604  0.4456  0.3703 -0.2954
  558MOL0     C75250   1.295  11.228   0.308  1.5148 -0.3930  0.7089
  558MOL0     C75251   1.358  11.119   0.365  0.6846  0.1771  1.0818
  558MOL0     C75252   1.486  11.092   0.331 -0.2166  0.0681  0.7703
  558MOL0     C75253   1.566  11.181   0.256  0.9728  0.3396 -0.0196
  558MOL0     O75254   1.693  11.153   0.229  0.2238  0.3541 -0.4876
  558MOL0     C75255   1.779  11.249   0.167 -0.3140  1.0633 -0.3050
  558MOL0     C75256   1.827  11.358   0.258  0.7503 -0.0487  0.1187
  558MOL0     C75257   1.946  11.422   0.182  0.0929 -0.4436  0.5787
  558MOL0     C75258   2.005  11.526   0.275  0.5586 -0.8740 -0.1792
  558MOL0     C75259   2.135  11.582   0.239  0.4835 -0.8945  0.2560
  558MOL0     C75260   2.245  11.643   0.218  0.3557 -0.5284 -0.7468
  558MOL0     C75261   1.499  11.297   0.216 -0.1555  0.5422  0.9041
  558MOL0     C75262   1.366  11.315   0.225  0.3900  0.3746  0.4745
  558MOL0     H75263   0.869  11.178   0.272 -0.8504  0.6303  0.6786
  558MOL0     H75264   0.647  11.143   0.353 -1.1074  2.7597  0.5952
  558MOL0     H75265   0.599  10.952   0.737  1.1853  0.6987 -1.2079
  558MOL0     H75266   0.546  11.089   0.809 -2.8595 -2.8545  0.7953
  558MOL0     H75267   0.365  10.969   0.796 -1.3874 -1.3354 -0.8057
  558MOL0     H75268   0.339  11.090   0.671  1.1121  0.9117  0.3109
  558MOL0     H75269   0.405  10.911   0.495 -1.1145 -2.5305 -1.2822
  558MOL0     H75270   0.434  10.792   0.623 -1.1570  0.0099  3.4869
  558MOL0     H75271   0.184  10.826   0.683 -0.8570  0.2574 -0.9801
  558MOL0     H75272   0.168  10.893   0.525  0.7839 -1.6077 -2.1117
  558MOL0     H75273   0.241  10.688   0.423  2.9377  0.5859  0.7548
  558MOL0     H75274   0.297  10.618   0.571  0.2285 -0.4861 -0.7114
  558MOL0     H75275   0.084  10.611   0.681 -1.4935  0.2587 -0.0808
  558MOL0     H75276   0.013  10.694   0.537 -0.0267  0.2493 -0.2106
  558MOL0     H75277   0.049  10.496   0.393 -1.3777 -2.2871  0.0331
  558MOL0     H75278   0.149  10.428   0.520 -0.3285 -1.5115 -4.0618
  558MOL0     H75279  -0.159  10.503   0.532  0.8309  1.3977 -0.9489
  558MOL0     H75280  -0.088  10.406   0.656  2.8598  0.7645  0.2615
  558MOL0     H75281  -0.151  10.165   0.634 -0.0224 -1.4274  0.1067
  558MOL0     H75282  -0.175   9.937   0.302  0.8236  0.9659 -0.5144
  558MOL0     H75283  -0.143   9.890   0.461  0.4114  1.3190 -0.0338
  558MOL0     H75284  -0.419  10.012   0.397  0.6812  1.5034  0.9647
  558MOL0     H75285  -0.350   9.951   0.550 -0.4500  0.1488  0.3218
  558MOL0     H75286  -0.301   9.736   0.437  0.9036  2.6510  4.6109
  558MOL0     H75287  -0.389   9.788   0.295  1.5717 -1.4540  0.4471
  558MOL0     H75288  -0.525   9.786   0.562 -1.5346  0.3046 -0.3604
  558MOL0     H75289  -0.530   9.633   0.449 -1.3134  0.1380 -1.1205
  558MOL0     H75290  -0.848   9.921   0.309  0.1624 -1.3956 -2.2735
  558MOL0     H75291  -1.039  10.016   0.306 -1.8341  1.1854 -0.3423
  558MOL0     H75292  -1.158   9.885   0.322 -0.2650  0.2059 -0.0514
  558MOL0     H75293  -1.154  10.017   0.440  0.2566 -0.9316  1.0788
  558MOL0     H75294  -1.351   9.750   0.896 -2.1630  1.7443  0.0419
  558MOL0     H75295  -1.584   9.699   0.935 -1.4383 -0.7771  0.1051
  558MOL0     H75296  -1.787   9.601   0.945  3.9163 -0.8509 -0.5306
  558MOL0     H75297  -1.811   9.736   0.824 -1.4204 -0.5399  0.1582
  558MOL0     H75298  -1.973   9.487   0.823  1.8997 -0.0673 -0.6599
  558MOL0     H75299  -2.024   9.631   0.904  2.4233  0.0023  0.9136
  558MOL0     H75300  -1.967   9.626   0.592  0.1588  0.1682 -1.1561
  558MOL0     H75301  -1.985   9.766   0.689  3.3675 -0.4696 -2.1564
  558MOL0     H75302  -2.186   9.534   0.714 -0.0145  0.6127 -1.1916
  558MOL0     H75303  -2.211   9.693   0.770  0.0937  0.1265  0.4409
  558MOL0     H75304  -2.199   9.628   0.471 -0.0787  1.3908 -0.6498
  558MOL0     H75305  -2.228   9.778   0.546  0.3587  0.2874  0.4325
  558MOL0     H75306  -2.435   9.720   0.631  1.5107 -0.5969  3.3145
  558MOL0     H75307  -2.444   9.652   0.473 -1.3285  1.9544 -0.4190
  558MOL0     H75308  -2.401   9.525   0.753  0.7798 -3.2142  0.7988
  558MOL0     H75309  -2.369   9.433   0.601  0.8568  0.8657 -0.6998
  558MOL0     H75310  -2.594   9.462   0.535  2.9245  1.5183 -1.1587
  558MOL0     H75311  -2.630   9.584   0.654 -1.4934 -0.9627  0.9229
  558MOL0     H75312  -1.604   9.497   0.565  1.5467 -0.9457 -0.4851
  558MOL0     H75313  -1.369   9.531   0.524 -2.6749 -0.5647 -0.6663
  558MOL0     H75314  -0.926   9.631   0.696  1.0798 -1.8591 -1.6343
  558MOL0     H75315  -0.710   9.648   0.618  0.3593  2.1337  4.4369
  558MOL0     H75316   0.789  11.146   0.756 -2.8714 -2.9249 -0.3076
  558MOL0     H75317   1.015  11.173   0.678  1.5137 -4.0931 -1.2686
  558MOL0     H75318   1.304  11.046   0.424 -2.5415  2.4694  1.2669
  558MOL0     H75319   1.534  11.003   0.372  0.1110 -0.5314 -0.8458
  558MOL0     H75320   1.865  11.190   0.133 -1.3583  0.0647 -1.3091
  558MOL0     H75321   1.733  11.286   0.076 -1.7147 -0.5063 -0.2971
  558MOL0     H75322   1.847  11.317   0.357 -0.0810  1.5954  1.0137
  558MOL0     H75323   1.750  11.435   0.270  1.3830  0.5432  0.4018
  558MOL0     H75324   1.916  11.465   0.086  1.2985  2.8589  1.5524
  558MOL0     H75325   2.020  11.343   0.166 -1.3051 -1.4838 -1.0576
  558MOL0     H75326   2.023  11.482   0.374  0.5580 -1.0093 -0.2402
  558MOL0     H75327   1.929  11.605   0.273  2.7447  1.4022  0.5531
  558MOL0     H75328   2.344  11.678   0.202  0.3534 -0.2150 -0.1074
  558MOL0     H75329   1.552  11.374   0.161 -1.0818  1.2577  0.9864
  558MOL0     H75330   1.310  11.397   0.181 -0.7342 -0.5347  0.1590
  559MOL0     O75331  10.078   5.866   4.421  0.3045 -0.6068  0.0974
  559MOL0     C75332  10.000   5.870   4.330  0.6289 -0.8757  0.2248
  559MOL0     O75333  10.028   5.854   4.196 -0.2708  0.1926  0.7836
  559MOL0     C75334  10.147   5.830   4.133 -0.4127  0.0518 -0.6709
  559MOL0     C75335  10.163   5.843   3.993 -0.9781 -0.5684 -0.3438
  559MOL0     C75336  10.280   5.815   3.934 -0.8936 -0.4657  0.0268
  559MOL0     C75337  10.393   5.774   3.999  0.6115 -0.1575  0.6354
  559MOL0     O75338  10.511   5.748   3.941  0.2956  0.7092  0.5231
  559MOL0     C75339  10.526   5.726   3.797 -0.5016  0.5677  0.5135
  559MOL0     C75340  10.607   5.596   3.776  0.1993  0.3725 -0.2769
  559MOL0     C75341  10.752   5.629   3.810  0.8746 -0.7835 -0.2301
  559MOL0     C75342  10.853   5.529   3.759  0.3815  0.0049  1.0506
  559MOL0     C75343  10.994   5.586   3.772  0.0367  0.5065 -0.0530
  559MOL0     C75344  11.085   5.463   3.737 -0.9216 -0.2753 -0.0789
  559MOL0     C75345  11.233   5.486   3.787  0.4411  0.1143  0.9120
  559MOL0     C75346  11.302   5.602   3.703 -0.4252 -0.3313 -0.4193
  559MOL0     N75347  11.321   5.555   3.564  0.1838 -0.4871 -0.2911
  559MOL0     C75348  11.355   5.428   3.529  0.2991 -0.0671  0.0264
  559MOL0     C75349  11.383   5.439   3.388  0.5140 -0.1161 -0.4416
  559MOL0     C75350  11.437   5.328   3.317  0.2891 -0.0942 -0.7658
  559MOL0     C75351  11.597   5.316   3.337  0.4273 -0.1750  0.3654
  559MOL0     C75352  11.676   5.445   3.341 -0.1365  0.0054 -0.3672
  559MOL0     C75353  11.674   5.513   3.196  0.3076 -0.1064  0.6180
  559MOL0     O75354  11.703   5.426   3.084  0.5161  0.7098  0.2930
  559MOL0     C75355  11.838   5.391   3.062 -1.0399  0.2359  0.6208
  559MOL0     C75356  11.854   5.265   3.002 -0.4176 -0.1327 -0.8801
  559MOL0     C75357  11.978   5.197   2.988  0.0131 -0.0688  0.5374
  559MOL0     C75358  11.981   5.041   2.960  0.1556 -0.6895  0.2584
  559MOL0     C75359  12.096   5.282   3.014  0.5090  0.0939  0.2476
  559MOL0     C75360  12.231   5.233   3.006  0.0123 -1.0928 -0.5805
  559MOL0     O75361  12.255   5.129   2.924 -0.7918 -0.1981  0.0310
  559MOL0     C75362  12.387   5.103   2.910  0.7682  0.7078  0.3637
  559MOL0     C75363  12.445   5.004   2.987 -0.3579 -0.2797 -0.1433
  559MOL0     C75364  12.587   4.995   3.001 -0.1745  0.0438  0.3129
  559MOL0     C75365  12.669   5.062   2.915  0.3944 -0.7890 -0.4222
  559MOL0     O75366  12.805   5.042   2.895 -0.3152  0.0554 -0.6060
  559MOL0     C75367  12.885   5.007   3.011 -0.4664  0.9292  0.5604
  559MOL0     C75368  13.024   5.071   3.001  0.5218 -0.1252 -0.0522
  559MOL0     C75369  13.100   5.066   3.133  0.4382 -0.9211  0.6268
  559MOL0     C75370  13.252   5.053   3.110  0.2448 -0.3023 -0.8644
  559MOL0     C75371  13.317   5.181   3.070  0.3916 -0.7703 -0.2201
  559MOL0     C75372  13.463   5.148   3.044 -0.1767 -0.0554 -0.4140
  559MOL0     C75373  13.548   5.136   3.169  0.3664  0.6538 -0.6229
  559MOL0     C75374  13.636   5.006   3.181  0.1666  0.5303  0.2004
  559MOL0    Cl75375  13.534   4.866   3.254  0.1625 -0.1526  0.1113
  559MOL0     C75376  12.615   5.155   2.826  0.7212  0.7584 -0.0662
  559MOL0     C75377  12.476   5.178   2.836  0.0122 -0.2049  0.0232
  559MOL0     O75378  12.317   5.296   3.077 -0.4879  0.4029  0.8064
  559MOL0     C75379  12.080   5.411   3.049 -0.1119 -0.3868  0.1460
  559MOL0     C75380  11.958   5.470   3.073  0.2536  0.6209 -0.4306
  559MOL0     N75381  11.361   5.568   3.353  0.1185  0.1447 -0.8700
  559MOL0     N75382  11.315   5.631   3.459  0.1277  0.2238 -0.7659
  559MOL0     C75383  10.382   5.751   4.132 -0.8733 -0.0731 -0.1976
  559MOL0     C75384  10.263   5.784   4.198 -0.1841  1.1843  0.0483
  559MOL0     C75385   9.854   5.932   4.361 -0.3318  1.0415  0.4113
  559MOL0     C75386   9.754   5.915   4.269  0.4511  0.2275  0.0435
  559MOL0     C75387   9.623   5.950   4.300  0.3307 -0.7612  0.2502
  559MOL0     C75388   9.580   5.988   4.427 -0.5145  0.0327 -0.4232
  559MOL0     O75389   9.449   6.009   4.444  0.7464 -0.5237  0.6774
  559MOL0     C75390   9.401   5.994   4.579 -0.3818  0.1716 -0.4802
  559MOL0     C75391   9.254   5.945   4.560 -0.5403  0.1617  0.3158
  559MOL0     C75392   9.179   5.935   4.701  0.5530 -0.6209 -0.4632
  559MOL0     C75393   9.047   5.858   4.694 -0.0054 -0.0541 -0.1295
  559MOL0     C75394   8.946   5.931   4.609 -0.5842  0.0071 -0.5395
  559MOL0     C75395   8.877   5.998   4.535  0.6034 -0.1061  0.3744
  559MOL0     C75396   9.678   5.991   4.529 -0.7684  0.4479 -0.8512
  559MOL0     C75397   9.812   5.974   4.490 -0.3791 -0.4595  0.0168
  559MOL0     H75398  10.088   5.869   3.920 -1.9465  0.1768  0.8778
  559MOL0     H75399  10.284   5.830   3.826 -0.5817 -2.0975 -0.2202
  559MOL0     H75400  10.428   5.720   3.749 -0.9027 -0.4938  1.4256
  559MOL0     H75401  10.585   5.805   3.750 -1.0934  0.5131 -0.3593
  559MOL0     H75402  10.570   5.511   3.834 -1.0935  1.7495  1.0095
  559MOL0     H75403  10.599   5.565   3.672 -0.8690  0.9687 -0.3873
  559MOL0     H75404  10.771   5.715   3.744 -0.3086 -1.0205 -0.8950
  559MOL0     H75405  10.761   5.653   3.917 -1.0058 -1.1917  0.0534
  559MOL0     H75406  10.837   5.443   3.825  0.5051 -0.2494  0.7550
  559MOL0     H75407  10.837   5.501   3.654  1.2456  2.0466  0.3353
  559MOL0     H75408  11.015   5.675   3.712 -1.9287  1.8239  1.0847
  559MOL0     H75409  11.013   5.624   3.873 -1.3149 -0.9397  0.7943
  559MOL0     H75410  11.047   5.380   3.797  0.3919  0.9072  2.5005
  559MOL0     H75411  11.078   5.435   3.631  0.5703 -0.2367 -0.2111
  559MOL0     H75412  11.220   5.521   3.890 -3.6023  1.1424  0.2048
  559MOL0     H75413  11.293   5.394   3.781  1.2743  0.6556  0.6929
  559MOL0     H75414  11.400   5.629   3.745 -1.3820  1.4034  0.8199
  559MOL0     H75415  11.241   5.693   3.703  0.7180  0.5519  2.4459
  559MOL0     H75416  11.356   5.343   3.596 -0.9526 -1.0927 -1.2078
  559MOL0     H75417  11.393   5.235   3.353  0.2224 -0.5665 -2.0196
  559MOL0     H75418  11.414   5.342   3.211  1.6038  0.9038 -0.9458
  559MOL0     H75419  11.636   5.252   3.258  1.2962 -0.1270  0.7401
  559MOL0     H75420  11.611   5.257   3.428 -0.3532 -0.6566  0.1860
  559MOL0     H75421  11.781   5.427   3.365  0.3610  0.7714 -1.8407
  559MOL0     H75422  11.636   5.515   3.415  1.2118 -0.3311  0.7243
  559MOL0     H75423  11.742   5.598   3.185 -0.4238  0.1837 -3.0134
  559MOL0     H75424  11.578   5.555   3.163  0.8312  0.2660 -0.4817
  559MOL0     H75425  11.762   5.207   2.994  0.0852 -1.3231  1.2162
  559MOL0     H75426  12.028   4.987   3.043  0.1672  0.9820  1.3710
  559MOL0     H75427  11.876   5.015   2.942 -0.1816  0.5966  0.3219
  559MOL0     H75428  12.036   5.018   2.868  0.5931 -2.6131  0.9440
  559MOL0     H75429  12.393   4.949   3.066  1.7221  1.1041  2.3547
  559MOL0     H75430  12.632   4.921   3.067  2.0115  1.7343  0.8351
  559MOL0     H75431  12.837   5.056   3.097  0.8023 -1.3048  2.6723
  559MOL0     H75432  12.889   4.898   3.019 -2.4606  0.6633 -1.2593
  559MOL0     H75433  13.078   5.006   2.931 -1.0037 -0.7302 -0.7038
  559MOL0     H75434  13.006   5.171   2.963 -1.6687 -0.6149 -0.4189
  559MOL0     H75435  13.064   4.977   3.184 -0.3250 -1.8393 -1.4122
  559MOL0     H75436  13.078   5.150   3.200  3.1816  1.7276 -1.5054
  559MOL0     H75437  13.287   5.033   3.211 -3.9689  0.3100  0.9096
  559MOL0     H75438  13.279   4.970   3.044 -2.1783 -2.8001  1.0661
  559MOL0     H75439  13.305   5.258   3.146 -0.0586 -1.6626  0.6351
  559MOL0     H75440  13.267   5.209   2.977  0.8811 -2.7685 -1.1370
  559MOL0     H75441  13.462   5.052   2.992 -0.0568 -1.4500  2.0105
  559MOL0     H75442  13.513   5.227   2.987  1.5398  0.2422  1.4045
  559MOL0     H75443  13.488   5.144   3.260  1.4623 -1.1024  0.3100
  559MOL0     H75444  13.619   5.219   3.167  1.2423 -0.0767 -2.0672
  559MOL0     H75445  13.718   5.035   3.247 -0.8171 -1.8336  2.6389
  559MOL0     H75446  13.668   4.975   3.081 -2.5278  0.0257 -0.5958
  559MOL0     H75447  12.666   5.204   2.744 -1.1864  0.2727 -1.6113
  559MOL0     H75448  12.449   5.258   2.768 -0.1453  1.7330  2.2205
  559MOL0     H75449  12.157   5.485   3.066  0.3108 -0.5226 -1.1020
  559MOL0     H75450  11.943   5.570   3.114  0.1686  0.9371 -1.2150
  559MOL0     H75451  10.478   5.732   4.179 -0.5709  0.9113 -0.3970
  559MOL0     H75452  10.258   5.770   4.306  0.6239 -0.7947 -0.1281
  559MOL0     H75453   9.779   5.870   4.174  0.0295  1.2119 -0.5551
  559MOL0     H75454   9.545   5.933   4.226  0.1456  1.8622 -0.2235
  559MOL0     H75455   9.455   5.916   4.634 -0.9583 -0.6576 -1.0706
  559MOL0     H75456   9.409   6.091   4.629  1.9908 -1.1587  2.0423
  559MOL0     H75457   9.246   5.855   4.497 -2.0014 -0.2003  0.9738
  559MOL0     H75458   9.197   6.020   4.505 -1.1869 -1.4480 -1.3311
  559MOL0     H75459   9.180   6.028   4.759  4.2092 -0.1992 -0.9881
  559MOL0     H75460   9.248   5.874   4.760 -1.5306 -1.7840  0.8810
  559MOL0     H75461   9.014   5.836   4.796 -4.3956 -1.3426 -1.5994
  559MOL0     H75462   9.064   5.766   4.637 -2.7453  1.1919 -3.2967
  559MOL0     H75463   8.809   6.043   4.466  0.7783  0.2211  0.4163
  559MOL0     H75464   9.653   6.018   4.631  0.2977 -2.4151  0.2533
  559MOL0     H75465   9.892   5.981   4.563  1.3438 -4.0762 -1.2510
  560MOL0     O75466   1.287   9.660   9.542  0.3400  0.1365  0.5970
  560MOL0     C75467   1.210   9.571   9.574 -0.1531 -0.5555 -0.2984
  560MOL0     O75468   1.245   9.448   9.617  0.0459 -0.2008 -0.5783
  560MOL0     C75469   1.380   9.419   9.634  0.2530  0.0788  0.3921
  560MOL0     C75470   1.455   9.382   9.528  0.4206 -0.4090  0.6633
  560MOL0     C75471   1.594   9.384   9.530 -0.8016 -0.7297  0.0442
  560MOL0     C75472   1.668   9.399   9.647  0.6794  0.1737 -0.0686
  560MOL0     O75473   1.808   9.388   9.672  0.2149 -0.5460 -0.2903
  560MOL0     C75474   1.891   9.392   9.559  0.7328 -0.2725 -0.6533
  560MOL0     C75475   2.034   9.340   9.599  0.0992 -0.1453  0.2252
  560MOL0     C75476   2.139   9.400   9.501  0.7106 -0.6680 -1.1232
  560MOL0     C75477   2.151   9.310   9.388  0.7908 -0.6185  0.2413
  560MOL0     C75478   2.261   9.350   9.293 -0.3353 -0.2217 -0.1836
  560MOL0     C75479   2.267   9.252   9.176  0.7999 -0.0565  0.7481
  560MOL0     C75480   2.353   9.301   9.061  0.1254 -0.2021 -0.1101
  560MOL0     C75481   2.501   9.270   9.084  0.2945  0.3113 -0.4692
  560MOL0     N75482   2.575   9.363   9.001  0.5337 -0.5137  0.0325
  560MOL0     C75483   2.663   9.457   9.044 -1.1149 -0.0680  0.1946
  560MOL0     C75484   2.741   9.489   8.931 -0.7520 -0.0966 -0.9091
  560MOL0     C75485   2.859   9.587   8.926 -0.5245 -0.2360  0.2475
  560MOL0     C75486   2.822   9.740   8.928  0.0942 -0.6107  0.3622
  560MOL0     C75487   2.806   9.812   9.058  0.2818  0.4460 -0.3520
  560MOL0     C75488   2.652   9.819   9.097 -0.0329  0.6580 -0.2473
  560MOL0     O75489   2.577   9.899   9.016  0.1784  0.2229  0.9323
  560MOL0     C75490   2.450   9.857   8.983  0.6789 -0.0111  0.5057
  560MOL0     C75491   2.414   9.739   8.908  0.2413  0.3806 -0.6763
  560MOL0     C75492   2.283   9.712   8.863  0.1772  0.5562 -0.3986
  560MOL0     C75493   2.266   9.574   8.796  0.3027  0.3495 -0.0730
  560MOL0     C75494   2.187   9.814   8.881  0.0293  0.0054  0.6652
  560MOL0     C75495   2.051   9.808   8.827  0.8528  0.5589 -0.0968
  560MOL0     O75496   2.027   9.713   8.732 -0.2700  0.0879 -0.5816
  560MOL0     C75497   1.904   9.716   8.669 -0.0903 -1.0437  0.5408
  560MOL0     C75498   1.900   9.751   8.533  0.1055  0.4600  0.8583
  560MOL0     C75499   1.772   9.749   8.464 -0.0177 -0.7000  0.7339
  560MOL0     C75500   1.652   9.706   8.531  0.3820 -0.8691  1.1199
  560MOL0     O75501   1.531   9.692   8.473 -0.3258  0.8353  0.1620
  560MOL0     C75502   1.502   9.746   8.344  1.6961 -0.7371 -0.6056
  560MOL0     C75503   1.535   9.653   8.225  0.1109 -0.1457 -0.5676
  560MOL0     C75504   1.467   9.689   8.092 -0.4460 -0.8760  0.1715
  560MOL0     C75505   1.315   9.666   8.086  0.0580 -0.4312  0.4456
  560MOL0     C75506   1.290   9.507   8.071 -0.2341 -0.4909  0.3223
  560MOL0     C75507   1.152   9.464   8.020  1.1324  0.2180  0.3393
  560MOL0     C75508   1.034   9.500   8.115  0.6194 -0.0469 -0.9757
  560MOL0     C75509   0.896   9.462   8.052  0.0434  0.5597  0.3826
  560MOL0    Cl75510   0.769   9.540   8.140  0.5383  0.3383 -0.0769
  560MOL0     C75511   1.658   9.661   8.664 -0.5892 -0.7679  0.0221
  560MOL0     C75512   1.785   9.670   8.733  1.0026 -0.1722 -0.3482
  560MOL0     O75513   1.966   9.873   8.891  0.3573 -0.3764  0.2315
  560MOL0     C75514   2.227   9.936   8.951 -0.1101 -0.2195 -0.0286
  560MOL0     C75515   2.357   9.954   8.990  0.1198 -0.5557 -0.4423
  560MOL0     N75516   2.682   9.423   8.826 -0.7007  0.7085 -0.4564
  560MOL0     N75517   2.595   9.345   8.870 -0.5402  0.6621 -0.0905
  560MOL0     C75518   1.590   9.424   9.759 -0.0501  0.7068 -0.6695
  560MOL0     C75519   1.447   9.431   9.758  0.0196 -0.1213  0.4352
  560MOL0     C75520   1.063   9.610   9.577  1.3253 -0.3799  0.1413
  560MOL0     C75521   0.957   9.511   9.590  0.2688  0.4136 -0.0755
  560MOL0     C75522   0.812   9.542   9.583 -0.0856  0.1052  0.7173
  560MOL0     C75523   0.783   9.672   9.532  0.0507  0.4871 -0.5635
  560MOL0     O75524   0.662   9.714   9.483  0.0788 -0.7024  0.2177
  560MOL0     C75525   0.538   9.668   9.538 -0.5784  0.5286 -0.4508
  560MOL0     C75526   0.428   9.771   9.566  1.1234 -0.1058 -0.5546
  560MOL0     C75527   0.306   9.711   9.636 -0.5740  0.3796 -0.2273
  560MOL0     C75528   0.180   9.773   9.595  0.5353  0.1587 -0.3654
  560MOL0     C75529   0.070   9.716   9.686 -0.7542  0.2147 -0.3906
  560MOL0     C75530   0.001   9.639   9.742  0.1506  0.9281  1.4918
  560MOL0     C75531   0.887   9.771   9.527  0.0328  0.2578  0.1912
  560MOL0     C75532   1.018   9.740   9.546  0.7193  0.1260  0.0038
  560MOL0     H75533   1.404   9.379   9.433 -0.4183 -0.3529  1.0966
  560MOL0     H75534   1.632   9.354   9.433 -1.0028  0.1964 -0.3244
  560MOL0     H75535   1.845   9.331   9.481 -1.6564  0.3678  0.1416
  560MOL0     H75536   1.891   9.496   9.525 -0.9223  1.5396  3.9932
  560MOL0     H75537   2.057   9.371   9.701 -1.6049 -1.7293  1.1454
  560MOL0     H75538   2.039   9.231   9.590  0.9483  0.0268 -2.0940
  560MOL0     H75539   2.117   9.505   9.477  0.6065 -0.3386  0.3164
  560MOL0     H75540   2.230   9.416   9.560  0.4575 -0.1084 -0.8725
  560MOL0     H75541   2.187   9.214   9.425 -1.4238 -0.9635  1.7441
  560MOL0     H75542   2.057   9.294   9.334  1.1455  1.5539 -1.1440
  560MOL0     H75543   2.253   9.453   9.257  0.7210 -0.2713 -0.6149
  560MOL0     H75544   2.357   9.354   9.346 -1.3965  2.3914  1.7008
  560MOL0     H75545   2.313   9.163   9.220  3.2996  1.5688  1.6715
  560MOL0     H75546   2.170   9.225   9.135  1.2559  2.4250 -2.3561
  560MOL0     H75547   2.322   9.252   8.968 -0.8371  1.1904 -0.5398
  560MOL0     H75548   2.340   9.407   9.040 -1.6490 -0.1830  0.9108
  560MOL0     H75549   2.525   9.167   9.057  0.4923  0.2565 -0.0824
  560MOL0     H75550   2.535   9.288   9.186  1.0411  2.0525 -0.9894
  560MOL0     H75551   2.685   9.480   9.148  3.1508  2.8417 -1.0373
  560MOL0     H75552   2.936   9.561   8.999 -0.8610 -0.7462  0.4289
  560MOL0     H75553   2.902   9.571   8.827  0.9729  1.7459  0.5208
  560MOL0     H75554   2.724   9.743   8.879  0.1480 -0.3522  0.2733
  560MOL0     H75555   2.895   9.794   8.868  1.4234 -2.3233  0.3532
  560MOL0     H75556   2.863   9.903   9.080 -0.3263  0.8865 -0.5655
  560MOL0     H75557   2.855   9.756   9.138 -0.1763 -0.6032 -0.7824
  560MOL0     H75558   2.641   9.863   9.197  3.3636  0.4929  0.3209
  560MOL0     H75559   2.616   9.716   9.103  0.0154  0.6701  0.3098
  560MOL0     H75560   2.492   9.664   8.898 -1.9337 -2.0564 -0.3769
  560MOL0     H75561   2.341   9.502   8.830 -0.4126 -0.5862 -0.4537
  560MOL0     H75562   2.164   9.541   8.814  0.6464 -1.0173 -0.4741
  560MOL0     H75563   2.279   9.566   8.687 -0.5171 -2.2843 -0.0558
  560MOL0     H75564   1.990   9.775   8.477 -0.9336 -3.2757 -2.9501
  560MOL0     H75565   1.767   9.782   8.361  2.9602  3.1786  1.5765
  560MOL0     H75566   1.395   9.761   8.330  1.7978  0.2073 -0.4720
  560MOL0     H75567   1.544   9.845   8.323  5.1292 -2.0046 -0.4257
  560MOL0     H75568   1.642   9.646   8.201  0.1679 -0.9311 -0.1039
  560MOL0     H75569   1.509   9.552   8.256 -1.4509  0.9666  2.0806
  560MOL0     H75570   1.527   9.631   8.021 -0.2585  0.0579 -0.4461
  560MOL0     H75571   1.492   9.790   8.060 -0.4004 -0.8477  0.2966
  560MOL0     H75572   1.265   9.708   8.173 -1.6670  0.9173 -1.1265
  560MOL0     H75573   1.273   9.726   8.005  1.6334  1.7922  1.1452
  560MOL0     H75574   1.302   9.468   8.173  2.9705  2.7982  1.3884
  560MOL0     H75575   1.367   9.457   8.012 -2.7469 -2.8837 -1.1660
  560MOL0     H75576   1.131   9.521   7.929  1.7561  1.5705  1.0203
  560MOL0     H75577   1.146   9.357   7.997 -2.0739  0.0625  1.4057
  560MOL0     H75578   1.044   9.604   8.146  2.2634 -0.6113  0.5358
  560MOL0     H75579   1.048   9.434   8.201  1.0424 -0.4398 -1.3389
  560MOL0     H75580   0.882   9.354   8.045 -0.8262  0.7765 -2.6744
  560MOL0     H75581   0.886   9.503   7.951  2.1228 -0.8614 -0.4491
  560MOL0     H75582   1.568   9.628   8.714 -0.1337 -0.2376  1.2263
  560MOL0     H75583   1.783   9.649   8.839 -4.5913  0.0201 -0.1233
  560MOL0     H75584   2.152  10.014   8.959  0.9482  0.6771  1.8271
  560MOL0     H75585   2.394  10.053   9.017 -2.7852  0.2192  1.0365
  560MOL0     H75586   1.651   9.424   9.849 -1.8147  0.1129  0.5854
  560MOL0     H75587   1.389   9.453   9.847 -1.8281 -0.7867 -0.5650
  560MOL0     H75588   0.988   9.408   9.605 -2.8977 -0.7047 -0.4094
  560MOL0     H75589   0.734   9.468   9.569 -2.0259  2.3550 -1.1854
  560MOL0     H75590   0.511   9.586   9.472  3.4205 -2.4672  1.2028
  560MOL0     H75591   0.564   9.614   9.630  0.1267  1.4166 -0.1142
  560MOL0     H75592   0.400   9.809   9.467 -1.9375 -2.6488 -0.8301
  560MOL0     H75593   0.462   9.851   9.632 -2.3246 -0.1509  1.5224
  560MOL0     H75594   0.310   9.726   9.744 -1.2525  0.9597 -0.2779
  560MOL0     H75595   0.296   9.604   9.616  1.4918  0.2870 -1.0297
  560MOL0     H75596   0.145   9.759   9.493 -1.2026 -3.6018  0.5453
  560MOL0     H75597   0.182   9.881   9.615  1.2615 -0.0550  0.8249
  560MOL0     H75598  -0.058   9.565   9.793 -0.5388  0.8490  0.6104
  560MOL0     H75599   0.861   9.872   9.498  1.3434 -0.0601 -2.4587
  560MOL0     H75600   1.086   9.824   9.539  2.5767 -1.2338  0.6856
  561MOL0     O75601   1.043   1.535   8.353  0.6343  0.3418 -0.0298
  561MOL0     C75602   0.943   1.468   8.335  0.0905  0.1540  0.0702
  561MOL0     O75603   0.900   1.420   8.215 -0.9368  0.3064 -0.4236
  561MOL0     C75604   0.949   1.449   8.092 -0.1285 -1.1106  0.2412
  561MOL0     C75605   0.982   1.581   8.045  0.0173  0.3340  0.1944
  561MOL0     C75606   1.039   1.590   7.918 -0.2990  0.2591 -0.1400
  561MOL0     C75607   1.074   1.483   7.841 -0.5615 -0.2269 -0.0915
  561MOL0     O75608   1.144   1.507   7.726  1.0921 -0.3553 -0.0451
  561MOL0     C75609   1.202   1.399   7.657  0.5374 -0.8940 -1.5995
  561MOL0     C75610   1.283   1.468   7.549 -0.2974 -0.1242 -0.7066
  561MOL0     C75611   1.327   1.359   7.459  0.4833 -0.9185  0.0968
  561MOL0     C75612   1.419   1.415   7.356  0.4236 -0.0038  0.0012
  561MOL0     C75613   1.353   1.510   7.260 -0.6344 -0.2196  0.0186
  561MOL0     C75614   1.428   1.560   7.133  0.0908 -1.1449 -1.0090
  561MOL0     C75615   1.576   1.530   7.154  0.8609 -0.0101 -0.5151
  561MOL0     C75616   1.667   1.604   7.050  0.3758  0.8590 -1.0971
  561MOL0     N75617   1.638   1.567   6.907  0.2756 -0.6054 -0.4601
  561MOL0     C75618   1.532   1.608   6.829 -0.5722  0.5882 -0.6023
  561MOL0     C75619   1.520   1.534   6.721 -0.3346 -0.5514 -0.0647
  561MOL0     C75620   1.411   1.554   6.624  0.3383 -0.4861 -0.0676
  561MOL0     C75621   1.266   1.580   6.682 -0.1126  0.6627  0.7286
  561MOL0     C75622   1.176   1.618   6.568 -0.1089  1.7731  0.6515
  561MOL0     C75623   1.036   1.661   6.609  0.3652  0.1956 -0.0501
  561MOL0     O75624   0.961   1.552   6.663  0.2750 -0.1135 -0.1056
  561MOL0     C75625   0.834   1.558   6.722  0.2477  0.1434 -0.8376
  561MOL0     C75626   0.746   1.674   6.720  0.3375 -0.2593 -0.4557
  561MOL0     C75627   0.619   1.676   6.775  0.7876  0.4530  0.8267
  561MOL0     C75628   0.538   1.805   6.742 -0.5394  0.5857 -0.3841
  561MOL0     C75629   0.570   1.559   6.840  0.5434  0.0325 -0.1260
  561MOL0     C75630   0.444   1.555   6.918  0.7960  0.1711 -0.1549
  561MOL0     O75631   0.448   1.474   7.031  0.5770  0.0180 -0.3443
  561MOL0     C75632   0.363   1.521   7.136 -0.1232  0.0624  0.5427
  561MOL0     C75633   0.228   1.488   7.135 -0.0161 -0.3235 -0.7574
  561MOL0     C75634   0.146   1.531   7.243 -0.0053  0.6153 -0.4438
  561MOL0     C75635   0.202   1.597   7.353  0.8686 -0.5532  0.0441
  561MOL0     O75636   0.128   1.627   7.461  0.0194 -0.2206 -0.0881
  561MOL0     C75637  -0.006   1.683   7.445 -0.8369 -0.1719  0.4547
  561MOL0     C75638  -0.078   1.740   7.569 -0.4154  0.6855  0.5427
  561MOL0     C75639  -0.094   1.643   7.692  0.1166  0.4169  0.5062
  561MOL0     C75640  -0.214   1.546   7.664  0.2863 -0.1891 -0.4374
  561MOL0     C75641  -0.207   1.433   7.760 -0.1731  0.8757 -0.3263
  561MOL0     C75642  -0.315   1.324   7.731 -0.5253  0.0206  0.4009
  561MOL0     C75643  -0.296   1.198   7.820 -0.3535  0.4886 -0.0662
  561MOL0     C75644  -0.369   1.082   7.752  0.0673  0.0497  0.0110
  561MOL0    Cl75645  -0.545   1.113   7.730  0.2061 -0.2371 -0.4916
  561MOL0     C75646   0.336   1.614   7.350 -0.4265 -0.0459  0.5047
  561MOL0     C75647   0.419   1.581   7.246 -0.1870 -0.2819 -0.5900
  561MOL0     O75648   0.359   1.643   6.897  0.5683  0.0445  0.2479
  561MOL0     C75649   0.648   1.440   6.841  0.2219 -0.1150 -1.2007
  561MOL0     C75650   0.774   1.440   6.769  0.1347 -0.2461 -0.9384
  561MOL0     N75651   1.622   1.436   6.739  0.3256  0.7336  0.7542
  561MOL0     N75652   1.682   1.454   6.848 -0.4848 -0.2479  0.1328
  561MOL0     C75653   1.031   1.358   7.883  0.1595  0.1172  0.1856
  561MOL0     C75654   0.965   1.339   8.000 -0.3146  0.1989  0.0599
  561MOL0     C75655   0.863   1.430   8.453  0.1347  0.3740  0.8744
  561MOL0     C75656   0.916   1.420   8.583 -0.0131 -0.0150 -0.6625
  561MOL0     C75657   0.826   1.396   8.690  0.5870 -0.1155 -0.0723
  561MOL0     C75658   0.693   1.376   8.673  0.8557 -0.0085  0.5695
  561MOL0     O75659   0.619   1.377   8.782 -0.0618  0.6062 -0.5084
  561MOL0     C75660   0.475   1.352   8.771 -0.6318  0.7061  0.3503
  561MOL0     C75661   0.417   1.312   8.912  0.7658  0.9029  0.4279
  561MOL0     C75662   0.261   1.281   8.906 -0.0627 -0.2652 -0.2061
  561MOL0     C75663   0.201   1.214   9.030  0.4797 -0.2973  0.2140
  561MOL0     C75664   0.055   1.191   9.027  0.3081  0.2539  0.7366
  561MOL0     C75665  -0.062   1.187   9.008 -0.9067 -0.4146  0.3876
  561MOL0     C75666   0.645   1.382   8.545  0.3873  0.3284  0.6703
  561MOL0     C75667   0.728   1.408   8.434  0.6820  1.0964 -0.4889
  561MOL0     H75668   0.967   1.665   8.112  0.9314  1.2107 -0.6643
  561MOL0     H75669   1.071   1.680   7.866  1.1201 -0.3362 -0.3634
  561MOL0     H75670   1.255   1.333   7.727 -0.2445  1.1774  1.1313
  561MOL0     H75671   1.123   1.344   7.606  0.4846 -1.6877 -0.6992
  561MOL0     H75672   1.209   1.531   7.498 -0.0463 -0.0442 -0.9710
  561MOL0     H75673   1.363   1.532   7.588  2.2441 -4.9103  3.0457
  561MOL0     H75674   1.381   1.283   7.517  1.7547 -0.5776 -0.6058
  561MOL0     H75675   1.241   1.306   7.417  1.7397 -2.6873 -0.3410
  561MOL0     H75676   1.507   1.453   7.408  0.0155 -1.4503  1.8589
  561MOL0     H75677   1.459   1.329   7.300  0.1446 -1.0366  1.3350
  561MOL0     H75678   1.259   1.461   7.234  0.1025 -2.1789  0.8633
  561MOL0     H75679   1.327   1.601   7.315  0.0710 -1.1259  1.9518
  561MOL0     H75680   1.390   1.526   7.036  1.0623 -0.4527 -1.6592
  561MOL0     H75681   1.414   1.668   7.136 -1.0707 -1.2864 -1.1384
  561MOL0     H75682   1.610   1.570   7.250 -0.9188  2.2190 -0.7354
  561MOL0     H75683   1.595   1.423   7.144  0.0292 -0.0252 -2.5551
  561MOL0     H75684   1.768   1.575   7.080 -0.1314  2.3354  2.4782
  561MOL0     H75685   1.669   1.712   7.068  0.4513  0.5435  1.0215
  561MOL0     H75686   1.463   1.681   6.868 -0.4199 -0.6100  2.1598
  561MOL0     H75687   1.441   1.637   6.560 -1.8801  1.6022  1.4371
  561MOL0     H75688   1.398   1.463   6.564 -3.2706 -0.3826  0.3306
  561MOL0     H75689   1.277   1.646   6.768  3.2922 -2.5396  3.0878
  561MOL0     H75690   1.227   1.486   6.721  0.9850  1.6343  4.5552
  561MOL0     H75691   1.177   1.536   6.495  2.0367  2.6019 -0.3334
  561MOL0     H75692   1.214   1.703   6.511 -1.7773  1.7887 -0.5059
  561MOL0     H75693   0.987   1.716   6.528 -0.8875 -0.1015  0.4817
  561MOL0     H75694   1.064   1.730   6.690  1.2438 -0.0369 -0.1426
  561MOL0     H75695   0.792   1.767   6.686  2.3159  0.4529  3.5638
  561MOL0     H75696   0.572   1.883   6.811 -0.0206  0.2093 -0.2063
  561MOL0     H75697   0.560   1.837   6.640  2.1500 -1.9086 -0.7108
  561MOL0     H75698   0.429   1.795   6.746 -0.6698  1.0307 -2.1108
  561MOL0     H75699   0.188   1.434   7.049 -0.0067 -2.0312  0.2490
  561MOL0     H75700   0.041   1.503   7.241  1.0787 -4.2624 -1.8909
  561MOL0     H75701   0.000   1.773   7.382  1.7822  0.6363  1.7020
  561MOL0     H75702  -0.062   1.601   7.401  0.1440 -1.0502  0.8123
  561MOL0     H75703  -0.037   1.831   7.614  2.1251 -0.5050  0.7664
  561MOL0     H75704  -0.175   1.765   7.524 -0.4742  3.5082  1.9712
  561MOL0     H75705  -0.114   1.705   7.780 -1.7552  1.1430 -0.3685
  561MOL0     H75706  -0.005   1.580   7.699 -0.1945 -0.2713 -1.2335
  561MOL0     H75707  -0.314   1.590   7.671 -0.5649 -2.3424  2.8795
  561MOL0     H75708  -0.197   1.508   7.562  0.1429 -0.0177 -0.5267
  561MOL0     H75709  -0.234   1.482   7.854 -3.0096  1.9441 -1.5828
  561MOL0     H75710  -0.106   1.389   7.760 -1.2211 -1.6808 -0.4772
  561MOL0     H75711  -0.414   1.363   7.758 -1.2377 -1.9918  0.9470
  561MOL0     H75712  -0.319   1.308   7.623 -0.1053 -1.1632  0.5477
  561MOL0     H75713  -0.323   1.214   7.925  0.0089 -1.2386  0.3184
  561MOL0     H75714  -0.188   1.177   7.814  0.1250  2.9559 -1.7531
  561MOL0     H75715  -0.349   0.987   7.802  1.6080  0.1604 -0.3444
  561MOL0     H75716  -0.328   1.065   7.652 -0.7938 -0.6538 -0.2338
  561MOL0     H75717   0.390   1.642   7.440 -1.2572  0.8227  0.7481
  561MOL0     H75718   0.525   1.602   7.239 -0.5668  1.5023 -1.8270
  561MOL0     H75719   0.607   1.352   6.890  2.8487 -1.0098 -0.4431
  561MOL0     H75720   0.836   1.351   6.762 -2.9628 -2.4561 -2.5367
  561MOL0     H75721   1.059   1.268   7.830 -2.5589 -1.1013  0.6043
  561MOL0     H75722   0.939   1.241   8.038  3.5171 -0.5711  1.1271
  561MOL0     H75723   1.018   1.449   8.606  0.0465 -1.8710  1.8345
  561MOL0     H75724   0.865   1.387   8.791  0.9939  0.3430 -0.1829
  561MOL0     H75725   0.426   1.442   8.734  1.0553  2.1749  1.5188
  561MOL0     H75726   0.460   1.262   8.710  1.6690  0.0650  0.6161
  561MOL0     H75727   0.434   1.385   8.991  0.4869 -0.0345  1.3820
  561MOL0     H75728   0.476   1.225   8.942  1.4783  1.9279  2.1220
  561MOL0     H75729   0.238   1.206   8.830  0.5303 -2.5259  1.7368
  561MOL0     H75730   0.212   1.376   8.882 -2.8463 -1.4987  0.1774
  561MOL0     H75731   0.228   1.280   9.113 -1.4141 -0.8212  1.2883
  561MOL0     H75732   0.255   1.121   9.048  0.6885 -0.5701 -1.6095
  561MOL0     H75733  -0.166   1.169   8.990 -1.6708  1.8543  2.0517
  561MOL0     H75734   0.540   1.360   8.527  0.8606 -0.5362 -1.2793
  561MOL0     H75735   0.687   1.394   8.334 -1.6765  0.4714  0.5059
  562MOL0     O75736   4.354  10.273   3.460  0.6714 -0.0167 -0.0760
  562MOL0     C75737   4.444  10.268   3.379  0.0179 -0.0620  0.6471
  562MOL0     O75738   4.487  10.159   3.318  0.2560 -0.7092  0.4499
  562MOL0     C75739   4.459  10.026   3.349  0.8012  0.1227 -0.8556
  562MOL0     C75740   4.502   9.926   3.261  0.4592  0.0387 -0.0279
  562MOL0     C75741   4.508   9.787   3.302 -0.1015  0.2475  0.0179
  562MOL0     C75742   4.462   9.753   3.430 -0.5000  1.6940  0.1885
  562MOL0     O75743   4.442   9.623   3.470  0.0028 -0.4320  0.6349
  562MOL0     C75744   4.428   9.514   3.375 -0.5186 -0.4450 -0.5136
  562MOL0     C75745   4.381   9.399   3.452 -0.1030  0.1393 -0.7118
  562MOL0     C75746   4.229   9.417   3.497 -0.3821  0.0910  0.7547
  562MOL0     C75747   4.211   9.478   3.637  1.1624 -0.6721 -0.6710
  562MOL0     C75748   4.099   9.578   3.650  0.0851  0.3845 -0.1237
  562MOL0     C75749   4.064   9.631   3.793  0.2478  1.0075  0.3585
  562MOL0     C75750   3.915   9.627   3.825  0.2142  0.0595 -0.6413
  562MOL0     C75751   3.905   9.688   3.974 -0.8521  0.6498 -0.1019
  562MOL0     N75752   3.769   9.693   4.023 -0.7532  0.3418 -0.1361
  562MOL0     C75753   3.677   9.589   4.014  0.3738 -0.0661 -0.6011
  562MOL0     C75754   3.574   9.631   4.099 -0.1913 -0.3496 -0.1483
  562MOL0     C75755   3.451   9.562   4.156 -0.1825 -0.2709  0.0531
  562MOL0     C75756   3.339   9.548   4.055 -0.2011  0.5108 -1.3305
  562MOL0     C75757   3.242   9.665   4.027  0.0212 -0.9988 -0.8410
  562MOL0     C75758   3.147   9.648   3.905 -0.5706  0.3796  0.4575
  562MOL0     O75759   3.083   9.522   3.905  0.5562 -0.0182 -0.0517
  562MOL0     C75760   2.943   9.513   3.891 -0.9648  0.2259  1.1318
  562MOL0     C75761   2.887   9.396   3.923  0.3237  0.2414 -0.4203
  562MOL0     C75762   2.749   9.366   3.894 -0.6035  0.6749  0.3949
  562MOL0     C75763   2.702   9.225   3.931 -0.5641 -0.3298  0.2230
  562MOL0     C75764   2.670   9.472   3.842 -0.2122  0.4062 -0.9576
  562MOL0     C75765   2.519   9.470   3.820 -0.4242  0.0025  0.4006
  562MOL0     O75766   2.459   9.595   3.820  0.0218  0.4032 -0.5682
  562MOL0     C75767   2.326   9.604   3.780 -0.2845 -0.0497 -1.0891
  562MOL0     C75768   2.231   9.666   3.862  0.4999  0.3357  0.6943
  562MOL0     C75769   2.091   9.681   3.819 -0.2569  0.3279 -0.1068
  562MOL0     C75770   2.048   9.636   3.694 -0.7850 -0.0570  0.1125
  562MOL0     O75771   1.926   9.644   3.642  0.9729 -0.2351 -0.2714
  562MOL0     C75772   1.823   9.714   3.720  0.7836 -0.5465 -0.4800
  562MOL0     C75773   1.695   9.706   3.634  0.1249  0.2034  0.0681
  562MOL0     C75774   1.578   9.760   3.723  0.3327 -0.8256 -0.2293
  562MOL0     C75775   1.452   9.747   3.643 -0.3893  0.4300  0.2820
  562MOL0     C75776   1.331   9.817   3.720 -0.6647  0.2042 -0.4588
  562MOL0     C75777   1.196   9.760   3.723  0.4340  0.0159 -0.2571
  562MOL0     C75778   1.099   9.830   3.819 -0.5777 -0.9360  0.9212
  562MOL0     C75779   0.944   9.812   3.780 -0.2243  0.4453  0.8705
  562MOL0    Cl75780   0.897   9.951   3.669 -0.1842  0.4892  0.1458
  562MOL0     C75781   2.143   9.581   3.613 -0.3477  0.4309 -0.0519
  562MOL0     C75782   2.275   9.562   3.657  0.0119 -0.9381 -0.3222
  562MOL0     O75783   2.463   9.366   3.798 -0.6090  0.2960  0.0188
  562MOL0     C75784   2.734   9.585   3.796 -0.1460 -0.1595 -0.6792
  562MOL0     C75785   2.870   9.609   3.825  0.2671  0.4049 -0.0244
  562MOL0     N75786   3.605   9.749   4.167 -1.5801 -0.7606  0.9478
  562MOL0     N75787   3.723   9.785   4.114  0.0288  0.7304 -0.0790
  562MOL0     C75788   4.418   9.849   3.517  0.4940  0.7994  0.0737
  562MOL0     C75789   4.420   9.980   3.477  0.4032  0.0801  0.0207
  562MOL0     C75790   4.516  10.388   3.349 -0.0726  0.8088  0.3266
  562MOL0     C75791   4.465  10.511   3.396 -0.0402 -0.5950  1.0572
  562MOL0     C75792   4.539  10.627   3.375  0.3402 -0.0119  0.3479
  562MOL0     C75793   4.663  10.624   3.299  0.3135 -0.1881 -0.2379
  562MOL0     O75794   4.735  10.741   3.286  1.2017  0.8123 -0.4210
  562MOL0     C75795   4.785  10.765   3.156 -0.0235 -0.7166  0.0602
  562MOL0     C75796   4.833  10.914   3.151 -0.1143 -0.1629 -0.1328
  562MOL0     C75797   4.939  10.925   3.041  0.0429  0.0026 -0.6050
  562MOL0     C75798   4.970  11.075   3.012 -0.7323 -0.4029 -0.4856
  562MOL0     C75799   5.099  11.091   2.943  1.1101  0.1872  0.4256
  562MOL0     C75800   5.204  11.098   2.877  0.6811 -0.5435 -0.7739
  562MOL0     C75801   4.714  10.497   3.260 -0.3841  0.2759  0.2264
  562MOL0     C75802   4.641  10.376   3.286  0.0532 -0.0443  0.0458
  562MOL0     H75803   4.544   9.958   3.166 -0.1453  2.2569  0.3833
  562MOL0     H75804   4.556   9.708   3.245  2.9528  0.2422  2.3628
  562MOL0     H75805   4.360   9.549   3.296  0.4505  1.2544 -0.6548
  562MOL0     H75806   4.525   9.489   3.333 -0.9986  0.0388 -1.9835
  562MOL0     H75807   4.385   9.314   3.384  1.7970 -0.0342 -0.4352
  562MOL0     H75808   4.444   9.389   3.541 -0.2376 -0.8095 -0.7176
  562MOL0     H75809   4.182   9.468   3.413  0.6214 -0.0356  0.0937
  562MOL0     H75810   4.187   9.316   3.494  1.9732 -0.9621 -2.1908
  562MOL0     H75811   4.182   9.390   3.695 -2.6098 -0.6348 -2.2134
  562MOL0     H75812   4.299   9.531   3.674 -0.3137  1.5525 -0.1640
  562MOL0     H75813   4.139   9.661   3.592 -0.4105 -1.8275 -3.9373
  562MOL0     H75814   4.021   9.520   3.600  1.7573 -2.9563  0.8145
  562MOL0     H75815   4.104   9.558   3.863 -1.4550 -0.5981 -0.2697
  562MOL0     H75816   4.108   9.731   3.798 -1.3336  1.8027 -0.8711
  562MOL0     H75817   3.860   9.689   3.753 -0.2086  0.3341 -0.0947
  562MOL0     H75818   3.869   9.528   3.816 -1.7723  0.9534 -0.9168
  562MOL0     H75819   3.962   9.781   3.968  0.9054 -0.3108  0.8081
  562MOL0     H75820   3.970   9.632   4.042 -1.0388  0.3600 -0.1598
  562MOL0     H75821   3.682   9.486   3.979  1.4341 -0.1507 -0.2350
  562MOL0     H75822   3.474   9.461   4.190 -1.0293  0.6647  3.9017
  562MOL0     H75823   3.410   9.612   4.245  2.4524 -0.9627  1.7405
  562MOL0     H75824   3.282   9.459   4.084  1.0943  0.1817  0.3851
  562MOL0     H75825   3.395   9.529   3.963  1.7815  0.4433 -0.1831
  562MOL0     H75826   3.299   9.757   4.009  2.2955 -2.0345  0.5226
  562MOL0     H75827   3.189   9.681   4.121  2.1140 -2.2740  0.6555
  562MOL0     H75828   3.196   9.663   3.809 -1.3471 -0.5025 -0.0946
  562MOL0     H75829   3.077   9.731   3.906 -1.2160 -0.1578  0.4529
  562MOL0     H75830   2.941   9.313   3.969  0.4695 -0.0434 -1.0833
  562MOL0     H75831   2.678   9.173   3.838 -0.7039 -1.6712  0.9890
  562MOL0     H75832   2.782   9.166   3.976 -1.1094 -1.1912  0.0890
  562MOL0     H75833   2.609   9.227   3.989 -1.9743 -1.7024 -1.8226
  562MOL0     H75834   2.262   9.711   3.956 -0.1465  2.0595  0.1246
  562MOL0     H75835   2.023   9.726   3.890 -0.8175  1.6816 -1.4464
  562MOL0     H75836   1.804   9.670   3.818 -0.8886  0.2561 -0.4107
  562MOL0     H75837   1.864   9.816   3.720 -1.6659  0.4995 -1.2888
  562MOL0     H75838   1.708   9.770   3.547  0.9492 -0.9516 -0.6839
  562MOL0     H75839   1.679   9.600   3.610 -0.5226 -0.4340  2.9258
  562MOL0     H75840   1.600   9.865   3.744 -0.1537 -0.4219 -1.5817
  562MOL0     H75841   1.574   9.711   3.820 -1.2606  1.5107  1.0000
  562MOL0     H75842   1.473   9.793   3.546 -0.5609 -1.7019 -0.8397
  562MOL0     H75843   1.421   9.645   3.616 -1.2878  0.9869 -0.8877
  562MOL0     H75844   1.331   9.926   3.716  1.9972  0.4077  2.0899
  562MOL0     H75845   1.357   9.816   3.826 -2.3668  1.4504  0.0165
  562MOL0     H75846   1.163   9.770   3.619  0.2240 -0.5069 -0.2428
  562MOL0     H75847   1.204   9.653   3.743  0.9743  0.6056  3.3768
  562MOL0     H75848   1.123   9.937   3.811 -0.1471 -0.9864  1.4863
  562MOL0     H75849   1.116   9.800   3.923 -0.4820  1.3645  1.6326
  562MOL0     H75850   0.885   9.813   3.872 -2.9027 -1.1874 -0.7022
  562MOL0     H75851   0.929   9.713   3.735 -2.1411  0.7900  0.6882
  562MOL0     H75852   2.122   9.528   3.521  1.9544 -0.5453 -0.0982
  562MOL0     H75853   2.345   9.515   3.589 -1.4645 -1.5933 -1.4342
  562MOL0     H75854   2.681   9.665   3.744  0.4852  0.5963 -0.1895
  562MOL0     H75855   2.915   9.699   3.784 -0.1466  1.3769  1.5454
  562MOL0     H75856   4.391   9.821   3.618 -0.4970  1.6588  0.0659
  562MOL0     H75857   4.401  10.045   3.561 -1.5553 -0.3742 -0.0248
  562MOL0     H75858   4.371  10.520   3.449  0.5392  0.8675  1.9156
  562MOL0     H75859   4.494  10.724   3.391 -0.6255 -0.1807 -1.1290
  562MOL0     H75860   4.867  10.697   3.130  2.0450  1.4928  0.4199
  562MOL0     H75861   4.703  10.751   3.085 -2.0598 -2.6691  2.6495
  562MOL0     H75862   4.885  10.949   3.240  0.5318  1.3017 -1.0519
  562MOL0     H75863   4.740  10.971   3.137 -0.4501 -0.2294  1.5724
  562MOL0     H75864   4.894  10.886   2.950 -5.0235  1.9091  0.7451
  562MOL0     H75865   5.021  10.860   3.074  0.4151  0.1660 -1.1863
  562MOL0     H75866   4.960  11.139   3.100 -2.2139 -1.9690  0.5627
  562MOL0     H75867   4.895  11.101   2.937 -2.6490 -4.8155 -0.4036
  562MOL0     H75868   5.296  11.105   2.822  0.0131 -0.6296 -1.9378
  562MOL0     H75869   4.810  10.496   3.208 -0.1495  0.6096  0.6499
  562MOL0     H75870   4.683  10.277   3.268  0.3162  0.1116 -0.2216
  563MOL0     O75871   7.536   7.948   4.022 -0.3079 -0.2524  0.2336
  563MOL0     C75872   7.591   7.928   4.129  0.4121 -0.4460  0.6483
  563MOL0     O75873   7.545   7.988   4.250  0.5072  0.2827  0.3631
  563MOL0     C75874   7.428   8.058   4.255 -0.1866 -1.0449  0.2073
  563MOL0     C75875   7.320   7.999   4.316  1.1906 -0.5743  0.1816
  563MOL0     C75876   7.209   8.072   4.366  0.6966 -0.6895 -0.5710
  563MOL0     C75877   7.183   8.200   4.332  0.6612 -0.5108  0.2973
  563MOL0     O75878   7.081   8.281   4.379 -0.0335  0.2199  0.1739
  563MOL0     C75879   6.959   8.223   4.432 -0.1558  0.3615 -0.0845
  563MOL0     C75880   6.881   8.356   4.455 -0.6247  0.2529  0.0930
  563MOL0     C75881   6.730   8.327   4.461  1.0004 -0.3774  0.2976
  563MOL0     C75882   6.671   8.263   4.584 -0.1303  0.7919 -0.0642
  563MOL0     C75883   6.520   8.279   4.612 -0.4388 -0.5137  0.1546
  563MOL0     C75884   6.427   8.236   4.505  0.2713  0.2703 -0.3333
  563MOL0     C75885   6.284   8.249   4.559 -0.7797  0.4417 -0.0271
  563MOL0     C75886   6.219   8.138   4.640  0.2343 -0.5341  0.3135
  563MOL0     N75887   6.204   8.006   4.584  0.3043  0.8701  0.8540
  563MOL0     C75888   6.135   7.970   4.475  0.4430  0.0380 -0.3805
  563MOL0     C75889   6.131   7.834   4.477  0.6314 -0.4932 -1.2921
  563MOL0     C75890   6.066   7.727   4.391 -0.6996 -0.6172 -0.4459
  563MOL0     C75891   5.916   7.765   4.388  0.1299 -0.0231 -0.1981
  563MOL0     C75892   5.848   7.722   4.511 -0.2006  0.4210 -0.4177
  563MOL0     C75893   5.698   7.725   4.475 -0.0683 -0.4437  0.1737
  563MOL0     O75894   5.638   7.650   4.576  0.1420 -0.0633  0.0930
  563MOL0     C75895   5.501   7.640   4.572  0.6003  0.4794  0.1676
  563MOL0     C75896   5.421   7.741   4.537  0.7456  0.8392 -0.3105
  563MOL0     C75897   5.283   7.729   4.544 -0.4348  0.3634 -0.1411
  563MOL0     C75898   5.203   7.841   4.484 -0.7461 -0.1399  0.5953
  563MOL0     C75899   5.225   7.615   4.610  0.0911  0.4195 -0.2404
  563MOL0     C75900   5.079   7.590   4.637 -0.1513  0.1395  0.3903
  563MOL0     O75901   5.039   7.467   4.696 -0.1215  0.1043 -0.3400
  563MOL0     C75902   4.913   7.463   4.741  0.5247 -1.0170  0.5172
  563MOL0     C75903   4.884   7.490   4.877 -0.1492  0.7583  0.5116
  563MOL0     C75904   4.755   7.496   4.921  0.0752 -0.0879 -0.3256
  563MOL0     C75905   4.647   7.491   4.831  0.4106 -0.4168  0.5979
  563MOL0     O75906   4.519   7.534   4.878  0.2030 -0.2417 -0.0342
  563MOL0     C75907   4.529   7.635   4.983 -0.0773 -0.0189  0.6860
  563MOL0     C75908   4.409   7.724   4.994  0.8325  0.2874 -0.0047
  563MOL0     C75909   4.421   7.826   5.116  1.0665 -0.6407  0.5655
  563MOL0     C75910   4.420   7.976   5.074 -0.3959  0.5168  0.4441
  563MOL0     C75911   4.495   8.068   5.172  0.1204 -0.2015 -0.1762
  563MOL0     C75912   4.650   8.057   5.189 -0.1044  1.0956 -0.4706
  563MOL0     C75913   4.719   8.164   5.272 -0.3743 -0.6213 -1.0881
  563MOL0     C75914   4.865   8.119   5.296 -0.2914 -0.9894  0.6026
  563MOL0    Cl75915   4.958   8.160   5.142 -0.2993 -0.3625  0.0409
  563MOL0     C75916   4.669   7.455   4.697 -0.6652  0.3301 -0.4369
  563MOL0     C75917   4.801   7.442   4.654 -0.4790  0.1628  0.1864
  563MOL0     O75918   5.000   7.680   4.627 -0.4595  0.0750  0.3391
  563MOL0     C75919   5.314   7.513   4.665  0.2054 -1.7142 -0.3595
  563MOL0     C75920   5.452   7.532   4.647  0.6865 -0.9995  0.5717
  563MOL0     N75921   6.205   7.792   4.591 -0.9193 -0.1918 -0.1871
  563MOL0     N75922   6.263   7.899   4.647 -0.0425 -1.2049 -0.5878
  563MOL0     C75923   7.288   8.261   4.256  0.7712 -0.3913  0.3123
  563MOL0     C75924   7.407   8.195   4.218  0.6752  0.0510  0.4213
  563MOL0     C75925   7.711   7.839   4.128 -0.6855 -0.8356  0.7417
  563MOL0     C75926   7.791   7.820   4.249  0.5329 -0.2183 -0.5647
  563MOL0     C75927   7.907   7.741   4.245  0.3378 -0.4715  0.6052
  563MOL0     C75928   7.956   7.693   4.122 -0.2300 -0.5795  0.2496
  563MOL0     O75929   8.067   7.609   4.118  0.1153 -0.4148  0.8788
  563MOL0     C75930   8.189   7.671   4.071 -0.3736 -0.2347  0.4569
  563MOL0     C75931   8.289   7.665   4.185  0.3312  0.4725 -0.5415
  563MOL0     C75932   8.355   7.527   4.186  0.1010 -0.1583  0.7492
  563MOL0     C75933   8.443   7.508   4.304 -0.1648  0.3174 -0.3904
  563MOL0     C75934   8.511   7.378   4.287 -0.2125  0.7658 -0.1229
  563MOL0     C75935   8.577   7.273   4.285 -0.2067  0.0258  0.7732
  563MOL0     C75936   7.889   7.723   4.005 -0.0750  0.0377 -0.6864
  563MOL0     C75937   7.769   7.791   4.003 -0.0139  0.1807  1.0151
  563MOL0     H75938   7.319   7.896   4.348 -0.0022 -0.7200 -0.3009
  563MOL0     H75939   7.143   8.005   4.419  2.8594 -2.0218  0.5805
  563MOL0     H75940   6.908   8.172   4.350 -3.2921  2.5124  0.3234
  563MOL0     H75941   6.967   8.166   4.525 -2.9833 -1.0606 -0.6008
  563MOL0     H75942   6.898   8.403   4.553  0.9540 -0.6609  0.2912
  563MOL0     H75943   6.907   8.421   4.370  1.7752  1.4115  1.5872
  563MOL0     H75944   6.685   8.426   4.455  0.7519 -0.5810 -1.7759
  563MOL0     H75945   6.703   8.274   4.369 -0.3144  0.2739  0.2900
  563MOL0     H75946   6.688   8.155   4.579  3.1595  1.2588 -2.8226
  563MOL0     H75947   6.732   8.290   4.671  2.8230  3.3088 -2.6467
  563MOL0     H75948   6.505   8.222   4.705  1.0350 -1.1365  0.0279
  563MOL0     H75949   6.499   8.386   4.623 -2.6697 -0.8907  0.1517
  563MOL0     H75950   6.443   8.300   4.418  2.7792 -0.3377 -0.3749
  563MOL0     H75951   6.433   8.130   4.478  3.3381  0.7186 -1.8200
  563MOL0     H75952   6.272   8.345   4.611  2.1385  1.8292 -1.6821
  563MOL0     H75953   6.233   8.268   4.464 -0.9996  3.3903  0.5707
  563MOL0     H75954   6.119   8.178   4.662  0.3665  0.8111 -1.3719
  563MOL0     H75955   6.277   8.136   4.733  2.4093  1.5698 -0.9200
  563MOL0     H75956   6.080   8.039   4.412  0.1805 -0.6953 -0.9753
  563MOL0     H75957   6.105   7.726   4.288 -2.5749 -0.7596 -1.1870
  563MOL0     H75958   6.085   7.627   4.429  1.9904  0.3165  0.9292
  563MOL0     H75959   5.871   7.723   4.297 -1.0634  1.0922 -0.1501
  563MOL0     H75960   5.900   7.874   4.388 -1.0088 -0.1502 -1.7925
  563MOL0     H75961   5.888   7.794   4.583  2.6177  0.9526 -2.3258
  563MOL0     H75962   5.876   7.622   4.546 -0.2377  0.7694  0.6489
  563MOL0     H75963   5.681   7.672   4.381 -0.7409 -0.3833  0.2522
  563MOL0     H75964   5.667   7.829   4.462  2.0769 -0.0537 -2.6411
  563MOL0     H75965   5.454   7.833   4.491 -0.0816  0.7202 -1.1807
  563MOL0     H75966   5.252   7.914   4.419 -0.7277 -0.2831  0.4466
  563MOL0     H75967   5.140   7.784   4.415 -0.8778 -1.5584  1.8229
  563MOL0     H75968   5.148   7.891   4.564 -0.1910 -0.6918  1.3368
  563MOL0     H75969   4.959   7.509   4.953 -0.3270  1.7538  0.4427
  563MOL0     H75970   4.744   7.516   5.027  0.0673  0.6262 -0.4575
  563MOL0     H75971   4.531   7.579   5.078  1.2525 -0.2599  0.5405
  563MOL0     H75972   4.619   7.696   4.971  0.3175 -0.8806 -1.0825
  563MOL0     H75973   4.397   7.794   4.911  0.8470  1.9117  1.2999
  563MOL0     H75974   4.318   7.664   5.007  0.1149  1.2012 -0.6220
  563MOL0     H75975   4.521   7.817   5.161  1.1774  0.3624  0.5624
  563MOL0     H75976   4.342   7.807   5.189 -0.4922 -2.3888 -1.4827
  563MOL0     H75977   4.470   7.985   4.977 -0.2415 -0.8012  0.3874
  563MOL0     H75978   4.317   8.011   5.065 -0.9407 -1.2765 -0.9208
  563MOL0     H75979   4.446   8.060   5.269  1.9692 -0.4077  0.7766
  563MOL0     H75980   4.486   8.173   5.141  1.9176  0.9812  2.8714
  563MOL0     H75981   4.659   7.961   5.241 -2.9469 -1.1032 -3.5376
  563MOL0     H75982   4.702   8.043   5.094  0.3598 -0.2764 -0.0391
  563MOL0     H75983   4.673   8.187   5.368  2.7770  1.4642  0.1088
  563MOL0     H75984   4.708   8.260   5.220 -1.3846 -0.0691  0.0977
  563MOL0     H75985   4.880   8.019   5.337  1.3676 -1.0849 -0.1607
  563MOL0     H75986   4.903   8.186   5.372  3.3123 -0.2140 -1.6576
  563MOL0     H75987   4.591   7.442   4.622  1.1777 -1.9878 -2.0928
  563MOL0     H75988   4.811   7.408   4.551  0.0333  0.8095  0.0135
  563MOL0     H75989   5.280   7.430   4.725 -0.8161 -0.8655  0.2656
  563MOL0     H75990   5.522   7.458   4.683 -0.7520 -3.0233 -0.5810
  563MOL0     H75991   7.272   8.359   4.211 -0.0294 -0.7593 -0.2420
  563MOL0     H75992   7.480   8.238   4.150  0.8804 -1.9731 -0.7206
  563MOL0     H75993   7.763   7.847   4.350  0.5698  2.0955 -1.1261
  563MOL0     H75994   7.966   7.705   4.329 -0.8315 -2.3009  0.6911
  563MOL0     H75995   8.229   7.621   3.983 -1.4058 -1.0550  0.4350
  563MOL0     H75996   8.178   7.777   4.047 -2.2631  0.5946  4.1925
  563MOL0     H75997   8.257   7.686   4.287  2.2757  2.0970 -0.1844
  563MOL0     H75998   8.370   7.739   4.177 -0.0100  0.9176  0.0485
  563MOL0     H75999   8.413   7.512   4.095  0.8567  0.9469  1.0180
  563MOL0     H76000   8.281   7.447   4.191  0.6616 -0.7338  0.0624
  563MOL0     H76001   8.376   7.510   4.390  2.2668  0.7247  1.5950
  563MOL0     H76002   8.513   7.592   4.310  0.4179 -0.2504  1.0641
  563MOL0     H76003   8.629   7.182   4.260 -0.9429 -0.0271 -0.6651
  563MOL0     H76004   7.915   7.684   3.907  0.6078  0.1834 -0.5712
  563MOL0     H76005   7.726   7.795   3.903 -0.6117 -3.0925  1.0574
  564MOL0     O76006   6.704   6.630   5.372  0.0003 -0.5977  0.4278
  564MOL0     C76007   6.729   6.590   5.487 -0.1482  0.0691  0.3132
  564MOL0     O76008   6.639   6.573   5.585  0.0420  0.4097  0.5586
  564MOL0     C76009   6.521   6.630   5.546  0.7040  0.0786 -0.0973
  564MOL0     C76010   6.452   6.730   5.621 -0.7328  0.3428 -0.1347
  564MOL0     C76011   6.321   6.769   5.583 -0.0456  0.0383 -0.2133
  564MOL0     C76012   6.258   6.722   5.473  0.8804 -0.1329 -0.8575
  564MOL0     O76013   6.132   6.766   5.440  1.1598  0.4823 -0.4949
  564MOL0     C76014   6.030   6.716   5.525 -0.1757  0.0083 -0.0962
  564MOL0     C76015   5.917   6.816   5.536  0.0782  0.3357 -0.1520
  564MOL0     C76016   5.963   6.948   5.597 -0.4599  0.0318 -0.7212
  564MOL0     C76017   5.840   7.034   5.622 -0.0149 -0.2033 -0.5934
  564MOL0     C76018   5.745   7.059   5.507 -0.5558  0.2609  0.9020
  564MOL0     C76019   5.669   7.188   5.514 -0.0470  0.0455 -0.6294
  564MOL0     C76020   5.582   7.215   5.391  0.4565  0.6865  0.5674
  564MOL0     C76021   5.498   7.343   5.408 -0.1756  0.4066  0.9308
  564MOL0     N76022   5.384   7.317   5.496 -0.4291  0.2117  0.1587
  564MOL0     C76023   5.325   7.395   5.592 -0.5044  1.1089  0.1165
  564MOL0     C76024   5.235   7.320   5.658 -0.8295 -1.4053 -0.5124
  564MOL0     C76025   5.167   7.376   5.780 -0.1401 -0.4356  0.6023
  564MOL0     C76026   5.061   7.474   5.746 -0.1939 -0.9805 -0.0992
  564MOL0     C76027   4.929   7.403   5.720  0.0865  0.2864  0.2888
  564MOL0     C76028   4.818   7.505   5.698 -0.1057  0.8114 -0.6130
  564MOL0     O76029   4.774   7.560   5.827  0.6987  0.8907 -0.6970
  564MOL0     C76030   4.674   7.654   5.816 -0.0009  0.0929 -0.6444
  564MOL0     C76031   4.685   7.769   5.738 -0.1810 -0.2543  0.2772
  564MOL0     C76032   4.578   7.863   5.714  0.0065 -0.0755 -0.4160
  564MOL0     C76033   4.599   7.977   5.620  1.0163  0.6662  0.8553
  564MOL0     C76034   4.461   7.830   5.781 -0.3394 -0.9024 -0.1489
  564MOL0     C76035   4.350   7.924   5.774  0.1166 -0.3973 -0.1950
  564MOL0     O76036   4.311   7.951   5.647  0.4808 -0.0084  0.1871
  564MOL0     C76037   4.196   8.025   5.614 -0.2516 -0.0987 -0.2663
  564MOL0     C76038   4.167   8.051   5.480  0.7055  1.9411 -0.1367
  564MOL0     C76039   4.058   8.117   5.435 -0.0354 -0.1020  0.2543
  564MOL0     C76040   3.956   8.155   5.532 -0.3755 -0.8610 -0.6776
  564MOL0     O76041   3.851   8.235   5.508  0.2176  0.3302  0.1264
  564MOL0     C76042   3.854   8.314   5.394 -0.3879  0.2330  0.3446
  564MOL0     C76043   3.790   8.454   5.421 -0.3453 -0.1738  1.2843
  564MOL0     C76044   3.639   8.434   5.432  0.3134  1.1492  0.2957
  564MOL0     C76045   3.589   8.553   5.511 -0.7034 -0.2460  0.2979
  564MOL0     C76046   3.618   8.543   5.660  0.3861  0.1382 -0.2346
  564MOL0     C76047   3.528   8.441   5.730 -0.5133 -0.3089 -0.3207
  564MOL0     C76048   3.469   8.494   5.861 -0.2093 -0.6829 -0.6634
  564MOL0     C76049   3.384   8.400   5.941  0.4148 -0.2690 -0.0874
  564MOL0    Cl76050   3.466   8.262   6.017 -0.7617 -0.4574 -0.5017
  564MOL0     C76051   3.989   8.133   5.667 -0.6239  0.0041 -0.5885
  564MOL0     C76052   4.111   8.082   5.710  0.1271 -0.1973 -0.6369
  564MOL0     O76053   4.306   7.963   5.881 -0.1933 -0.1687 -0.7845
  564MOL0     C76054   4.450   7.719   5.867  0.0977  0.5213  0.0200
  564MOL0     C76055   4.559   7.639   5.888 -0.4611 -0.5249  0.3590
  564MOL0     N76056   5.232   7.193   5.600  0.7645 -0.8176 -0.2368
  564MOL0     N76057   5.311   7.201   5.489 -0.4277  0.4685  0.6079
  564MOL0     C76058   6.314   6.612   5.413 -0.2824 -0.0492 -0.4329
  564MOL0     C76059   6.443   6.563   5.441  0.4335 -0.5629  0.4088
  564MOL0     C76060   6.871   6.556   5.522  0.5117 -0.9206  0.0774
  564MOL0     C76061   6.972   6.560   5.423 -0.5495  0.3209  0.1279
  564MOL0     C76062   7.106   6.548   5.459  0.2230 -0.6170  0.3499
  564MOL0     C76063   7.152   6.535   5.581 -0.8933  0.4675 -0.1466
  564MOL0     O76064   7.287   6.550   5.611  0.3295 -0.0947  0.0326
  564MOL0     C76065   7.386   6.465   5.548 -0.1010  0.2081  0.1027
  564MOL0     C76066   7.464   6.418   5.669  0.3478 -1.0872 -0.0053
  564MOL0     C76067   7.494   6.530   5.783 -0.1593  0.2186  0.8983
  564MOL0     C76068   7.618   6.507   5.867 -0.1388 -0.9887 -0.0662
  564MOL0     C76069   7.601   6.386   5.951 -0.1767 -0.3058  0.0480
  564MOL0     C76070   7.596   6.296   6.035 -0.0002  0.2056 -0.4360
  564MOL0     C76071   7.058   6.541   5.686  0.3730  1.1300 -0.5476
  564MOL0     C76072   6.919   6.558   5.657 -0.2274  0.5155  0.3640
  564MOL0     H76073   6.499   6.770   5.710 -0.5961  0.2117 -0.1473
  564MOL0     H76074   6.260   6.842   5.637 -1.6139 -0.4076 -1.2931
  564MOL0     H76075   5.992   6.620   5.489  1.3107  0.4246 -3.0803
  564MOL0     H76076   6.070   6.681   5.621  2.1319 -2.5708 -1.8506
  564MOL0     H76077   5.890   6.829   5.431  2.0492 -1.2404 -0.9213
  564MOL0     H76078   5.837   6.775   5.598  0.1668  1.0204  0.4363
  564MOL0     H76079   6.028   6.939   5.684  0.8449 -2.0253 -1.8398
  564MOL0     H76080   6.026   6.997   5.523 -1.2779  0.8081 -0.9250
  564MOL0     H76081   5.779   7.004   5.708  0.9534  2.6881  1.2281
  564MOL0     H76082   5.873   7.135   5.646 -2.1624  0.0957  1.3761
  564MOL0     H76083   5.795   7.058   5.410  0.5634  2.0685  1.4268
  564MOL0     H76084   5.675   6.975   5.505  0.6754 -0.8143 -2.0671
  564MOL0     H76085   5.610   7.178   5.606  1.0529 -0.5396  0.0417
  564MOL0     H76086   5.734   7.275   5.527  0.1748 -0.4051  1.7468
  564MOL0     H76087   5.650   7.223   5.306 -0.9076 -2.9947 -1.0969
  564MOL0     H76088   5.512   7.134   5.368  0.7603  1.0962 -2.1488
  564MOL0     H76089   5.454   7.358   5.309 -0.7970 -1.9531  0.7662
  564MOL0     H76090   5.563   7.427   5.434  0.8464  0.0645 -0.3609
  564MOL0     H76091   5.349   7.498   5.617 -0.7023  0.9044  1.1774
  564MOL0     H76092   5.129   7.298   5.847  1.4689 -1.4738  0.3827
  564MOL0     H76093   5.237   7.429   5.846 -0.5267  0.2914  0.4340
  564MOL0     H76094   5.083   7.540   5.662 -1.8651 -0.0199  0.1691
  564MOL0     H76095   5.053   7.536   5.836  1.1831 -1.5616  0.4511
  564MOL0     H76096   4.915   7.333   5.803  1.5738  0.6011  0.8406
  564MOL0     H76097   4.935   7.336   5.633 -1.8640  2.3592 -1.5745
  564MOL0     H76098   4.745   7.435   5.658  1.8216 -0.9667 -1.1495
  564MOL0     H76099   4.860   7.573   5.623  1.0370  1.3208  0.4319
  564MOL0     H76100   4.780   7.784   5.687 -0.4651 -0.7782 -0.4275
  564MOL0     H76101   4.705   7.987   5.597  1.4050 -1.4813  1.5691
  564MOL0     H76102   4.553   7.956   5.523  1.3005 -0.2982  0.9225
  564MOL0     H76103   4.570   8.077   5.653  1.7096  0.7501  1.2231
  564MOL0     H76104   4.235   7.996   5.416  0.4836 -0.7822  1.8109
  564MOL0     H76105   4.057   8.131   5.328  0.6627 -2.5141 -0.1228
  564MOL0     H76106   3.958   8.327   5.362 -0.9815 -0.3877 -2.0696
  564MOL0     H76107   3.813   8.263   5.307 -0.5730  1.1843 -0.1427
  564MOL0     H76108   3.831   8.497   5.513 -2.5048 -2.3741  3.3862
  564MOL0     H76109   3.811   8.521   5.337  0.6087 -0.5674  1.1936
  564MOL0     H76110   3.620   8.343   5.489 -1.5149  2.0238  1.1700
  564MOL0     H76111   3.584   8.433   5.337  0.6396 -0.2310  0.1107
  564MOL0     H76112   3.643   8.637   5.468  0.1094 -0.4933  0.8042
  564MOL0     H76113   3.481   8.558   5.494 -0.7739  1.7702  1.0788
  564MOL0     H76114   3.594   8.641   5.702  0.3575  0.4504 -0.9617
  564MOL0     H76115   3.726   8.533   5.678  1.2324  2.5613 -2.9869
  564MOL0     H76116   3.443   8.405   5.670 -1.8538 -0.3284  1.5002
  564MOL0     H76117   3.593   8.354   5.746 -0.7341 -0.1381  1.8508
  564MOL0     H76118   3.406   8.580   5.838 -1.3464 -1.3642 -0.1624
  564MOL0     H76119   3.557   8.522   5.920  0.0500 -1.3679 -0.7172
  564MOL0     H76120   3.304   8.380   5.870 -0.6501  0.3755  0.8969
  564MOL0     H76121   3.337   8.457   6.022 -1.4773 -0.4086 -1.0359
  564MOL0     H76122   3.920   8.148   5.749 -0.8109 -3.2905  0.0144
  564MOL0     H76123   4.128   8.095   5.816  2.1712 -0.4799 -0.8846
  564MOL0     H76124   4.362   7.697   5.925  0.0683  0.8441  0.1005
  564MOL0     H76125   4.547   7.560   5.962  2.9781 -1.3560  0.2080
  564MOL0     H76126   6.257   6.546   5.348 -0.9283 -1.4468  1.4875
  564MOL0     H76127   6.488   6.475   5.395  1.0501 -0.7156  1.2890
  564MOL0     H76128   6.936   6.563   5.320 -5.3395  4.8283  1.5098
  564MOL0     H76129   7.174   6.530   5.376 -1.1222 -0.4382 -0.8239
  564MOL0     H76130   7.340   6.377   5.501  0.0859  0.8708 -1.3893
  564MOL0     H76131   7.435   6.527   5.472  1.0658 -1.3209 -0.4472
  564MOL0     H76132   7.560   6.380   5.634 -0.0671 -2.8968  0.7313
  564MOL0     H76133   7.410   6.336   5.717 -0.2914 -1.2146 -0.9150
  564MOL0     H76134   7.408   6.528   5.850 -3.4745  1.3525 -2.8853
  564MOL0     H76135   7.504   6.625   5.730  1.4291  0.3200  1.3442
  564MOL0     H76136   7.627   6.593   5.933 -1.5486  0.6639 -1.9091
  564MOL0     H76137   7.704   6.512   5.800  0.6322 -1.1218  0.8980
  564MOL0     H76138   7.595   6.225   6.115  1.6292  2.4273  1.6703
  564MOL0     H76139   7.078   6.545   5.793  0.7832  3.4962 -0.6481
  564MOL0     H76140   6.845   6.589   5.730 -0.1749  2.3767 -0.3305
  565MOL0     O76141  10.614   2.446   4.458 -0.0127 -0.4186 -0.3972
  565MOL0     C76142  10.678   2.493   4.369  0.4740  0.2397  1.0732
  565MOL0     O76143  10.682   2.627   4.341  0.0369  0.1490  0.0620
  565MOL0     C76144  10.600   2.714   4.406  0.8511 -1.0100  0.6809
  565MOL0     C76145  10.653   2.836   4.432  0.8573  0.6381  0.3582
  565MOL0     C76146  10.580   2.943   4.480  0.1050  0.2998  1.0019
  565MOL0     C76147  10.439   2.926   4.497  0.3882 -0.8739  0.3894
  565MOL0     O76148  10.365   3.037   4.542  0.1643  0.0149 -0.5952
  565MOL0     C76149  10.257   3.006   4.626  0.5744  0.2647  0.5770
  565MOL0     C76150  10.216   3.122   4.726 -0.2773  0.2704  0.1035
  565MOL0     C76151  10.138   3.227   4.645 -0.0352 -0.5676  1.4687
  565MOL0     C76152  10.067   3.334   4.731 -0.8437 -0.4675 -0.6121
  565MOL0     C76153  10.174   3.428   4.797  0.9253  0.0276  0.6064
  565MOL0     C76154  10.194   3.547   4.705 -0.4954  0.2033  0.1617
  565MOL0     C76155  10.261   3.671   4.763 -0.4032  0.2061 -0.4424
  565MOL0     C76156  10.175   3.723   4.879 -0.3234  0.7183 -0.2149
  565MOL0     N76157  10.202   3.854   4.930 -0.1176 -0.0504 -0.5960
  565MOL0     C76158  10.123   3.956   4.922  0.3886 -0.5188  0.3964
  565MOL0     C76159  10.179   4.056   5.003  0.4547  0.1843 -0.1078
  565MOL0     C76160  10.123   4.191   5.026  0.9648 -0.4317  0.5030
  565MOL0     C76161   9.977   4.200   5.067 -0.0214  0.1339  0.4385
  565MOL0     C76162   9.945   4.350   5.081 -0.1971  0.0710 -0.1044
  565MOL0     C76163   9.900   4.424   4.953  0.2047 -0.9505  0.3964
  565MOL0     O76164   9.763   4.405   4.913 -0.6213  0.1196  0.2298
  565MOL0     C76165   9.704   4.469   4.798  0.1204  0.2781  0.0009
  565MOL0     C76166   9.776   4.533   4.701 -1.2516 -1.1246  0.7845
  565MOL0     C76167   9.723   4.593   4.585  1.0491 -0.1225 -0.7438
  565MOL0     C76168   9.823   4.664   4.489  0.1087  1.0494 -0.8287
  565MOL0     C76169   9.581   4.571   4.559  0.3273 -1.0833 -0.4001
  565MOL0     C76170   9.521   4.629   4.434  0.4353  1.0805 -0.2817
  565MOL0     O76171   9.385   4.617   4.426  0.6907 -1.0502 -0.0377
  565MOL0     C76172   9.323   4.665   4.306  0.0078  0.9373  0.4911
  565MOL0     C76173   9.284   4.793   4.280  0.8115  0.1321  0.1485
  565MOL0     C76174   9.233   4.827   4.150  0.8040 -0.8640 -0.4985
  565MOL0     C76175   9.221   4.733   4.045  0.1095 -0.2958  0.1982
  565MOL0     O76176   9.174   4.753   3.918  0.0487 -0.5615  0.0818
  565MOL0     C76177   9.139   4.891   3.882 -0.2019  0.4877 -0.4021
  565MOL0     C76178   9.077   4.877   3.743  0.1350 -0.6652  0.5714
  565MOL0     C76179   9.168   4.820   3.649 -0.0960 -0.3844 -0.5101
  565MOL0     C76180   9.307   4.895   3.642  0.8009  0.5208  0.6651
  565MOL0     C76181   9.377   4.849   3.510 -0.5250 -0.0539  0.2996
  565MOL0     C76182   9.522   4.909   3.498  0.4052  0.5462 -0.0919
  565MOL0     C76183   9.583   4.869   3.366 -0.2180  0.5880 -0.3353
  565MOL0     C76184   9.727   4.926   3.346  0.6527 -0.1811  0.7864
  565MOL0    Cl76185   9.822   4.888   3.488 -0.0294  0.7914 -0.5749
  565MOL0     C76186   9.257   4.593   4.080 -0.5816 -0.7586  0.6464
  565MOL0     C76187   9.314   4.567   4.207 -0.4170  0.0939 -0.4173
  565MOL0     O76188   9.594   4.673   4.344 -0.1212  0.2126 -0.3886
  565MOL0     C76189   9.506   4.522   4.671  0.2647  1.0753  0.2132
  565MOL0     C76190   9.566   4.465   4.783  0.1295 -0.7776  0.6643
  565MOL0     N76191  10.294   4.003   5.066 -0.4195 -0.2330  0.8349
  565MOL0     N76192  10.299   3.882   5.017  0.1086  0.2472  0.2063
  565MOL0     C76193  10.378   2.809   4.464  0.8796  0.4836 -0.0077
  565MOL0     C76194  10.461   2.698   4.422  0.6713  0.6639 -0.5237
  565MOL0     C76195  10.764   2.396   4.288  0.8277 -0.5569 -0.4952
  565MOL0     C76196  10.792   2.263   4.328  0.4360  0.5545  1.0918
  565MOL0     C76197  10.878   2.180   4.260  0.2843 -0.7165  0.2162
  565MOL0     C76198  10.957   2.240   4.151 -0.2983 -0.0352  0.4089
  565MOL0     O76199  11.055   2.173   4.078  0.1876 -0.5512  0.6626
  565MOL0     C76200  11.052   2.035   4.078  0.0829  0.3197  0.3686
  565MOL0     C76201  11.163   1.968   3.991 -0.6066 -0.0353 -0.0852
  565MOL0     C76202  11.152   1.824   4.004  0.9000  0.2015  0.9304
  565MOL0     C76203  11.253   1.745   3.920 -0.5320  0.0130 -0.7164
  565MOL0     C76204  11.194   1.613   3.887  1.0658 -0.5206 -0.4694
  565MOL0     C76205  11.115   1.525   3.856 -0.4917 -0.3265  0.2822
  565MOL0     C76206  10.922   2.369   4.111  0.2575 -0.3292  0.2036
  565MOL0     C76207  10.834   2.445   4.182 -0.2211  0.1557 -0.3806
  565MOL0     H76208  10.760   2.845   4.414  0.6589 -1.0427 -2.3795
  565MOL0     H76209  10.635   3.033   4.505  3.6059 -0.7311 -2.1505
  565MOL0     H76210  10.174   2.981   4.559  1.1438  0.9013 -0.3971
  565MOL0     H76211  10.281   2.918   4.686  3.9787  0.5260 -0.1659
  565MOL0     H76212  10.162   3.094   4.817 -0.3870 -0.3734 -0.1586
  565MOL0     H76213  10.313   3.165   4.751 -1.2917  1.5259  2.1966
  565MOL0     H76214  10.214   3.281   4.587 -0.3676  1.7008  3.0339
  565MOL0     H76215  10.070   3.177   4.575  1.5631 -1.7598  0.6792
  565MOL0     H76216  10.007   3.397   4.664  1.4213  3.1360  0.4669
  565MOL0     H76217  10.001   3.282   4.801 -0.8700  1.0082  0.5343
  565MOL0     H76218  10.137   3.464   4.894  0.3385  1.1569 -0.0127
  565MOL0     H76219  10.271   3.377   4.801  0.8402 -0.1373  0.5706
  565MOL0     H76220  10.256   3.513   4.622  2.8347  1.9223  1.7828
  565MOL0     H76221  10.099   3.579   4.659 -1.5560 -2.8825 -0.0249
  565MOL0     H76222  10.366   3.651   4.787 -0.2602  2.6808  1.3103
  565MOL0     H76223  10.270   3.752   4.690  0.9293 -0.7346 -1.4022
  565MOL0     H76224  10.188   3.643   4.952  2.3767  0.5992 -0.7203
  565MOL0     H76225  10.069   3.725   4.853 -0.6147 -0.7996  0.7074
  565MOL0     H76226  10.030   3.977   4.870 -1.2829 -1.3138  2.8559
  565MOL0     H76227  10.183   4.244   5.101  2.0415  1.1492 -1.3595
  565MOL0     H76228  10.128   4.252   4.935  0.6207 -1.2539 -0.0756
  565MOL0     H76229   9.957   4.150   5.162 -0.5955 -0.4327  0.0357
  565MOL0     H76230   9.907   4.161   4.992  0.4497 -0.7390  0.4393
  565MOL0     H76231  10.036   4.405   5.107  0.0627  0.2064 -1.2631
  565MOL0     H76232   9.873   4.356   5.164  1.7054  2.1227  1.5230
  565MOL0     H76233   9.966   4.386   4.875  2.4522 -1.1543  2.3022
  565MOL0     H76234   9.914   4.532   4.969 -1.0462 -0.3699 -1.8924
  565MOL0     H76235   9.884   4.545   4.705 -1.4644  1.0697  3.3997
  565MOL0     H76236   9.922   4.673   4.533  0.2667 -1.8382 -0.3871
  565MOL0     H76237   9.828   4.602   4.399  0.5141 -0.1244 -0.0206
  565MOL0     H76238   9.787   4.764   4.464  1.5099  1.4525 -1.3103
  565MOL0     H76239   9.286   4.866   4.361 -0.5003  0.6076 -0.2140
  565MOL0     H76240   9.191   4.925   4.127  0.0090 -1.1392 -0.2619
  565MOL0     H76241   9.066   4.942   3.946 -1.0403  0.9991 -1.7283
  565MOL0     H76242   9.231   4.950   3.879 -0.9687  1.7056 -0.6042
  565MOL0     H76243   8.987   4.814   3.743  1.5695 -3.0657 -3.3867
  565MOL0     H76244   9.051   4.981   3.722 -1.8828 -1.0435  0.9378
  565MOL0     H76245   9.118   4.830   3.552 -2.8622 -1.1830  0.7190
  565MOL0     H76246   9.170   4.711   3.660  0.6935 -0.5780 -2.1217
  565MOL0     H76247   9.286   5.001   3.624 -1.3120  0.1822  0.8618
  565MOL0     H76248   9.370   4.870   3.728  1.2344 -0.7618 -0.0004
  565MOL0     H76249   9.319   4.892   3.428 -1.5523  0.3151  1.1860
  565MOL0     H76250   9.379   4.740   3.502  1.7807 -0.2198  2.0855
  565MOL0     H76251   9.522   5.017   3.517 -1.5343  0.4427  0.6663
  565MOL0     H76252   9.588   4.866   3.574  3.4255 -0.6429 -3.1011
  565MOL0     H76253   9.520   4.901   3.283 -1.8298  3.1853  1.7095
  565MOL0     H76254   9.598   4.761   3.368 -3.1258  0.1027 -0.7492
  565MOL0     H76255   9.726   5.035   3.345  2.2866 -0.1400  1.3022
  565MOL0     H76256   9.764   4.880   3.254 -3.5237  0.1433 -1.2908
  565MOL0     H76257   9.248   4.518   4.001  1.6634 -0.1758 -0.2361
  565MOL0     H76258   9.343   4.468   4.242 -1.6223  0.5792  2.2531
  565MOL0     H76259   9.398   4.506   4.672  0.4271 -0.1121  2.2928
  565MOL0     H76260   9.509   4.409   4.856 -0.3038 -1.7267 -0.3747
  565MOL0     H76261  10.270   2.805   4.456  0.7555 -0.5467  1.6282
  565MOL0     H76262  10.412   2.611   4.379  2.6913  1.8050 -5.8388
  565MOL0     H76263  10.741   2.228   4.417 -3.4651 -1.6051 -1.6661
  565MOL0     H76264  10.888   2.075   4.286  3.7616 -1.4579 -3.1429
  565MOL0     H76265  11.054   1.999   4.181  0.2624  0.8745  0.5596
  565MOL0     H76266  10.958   1.998   4.036  0.3533 -2.9053  2.2354
  565MOL0     H76267  11.260   2.010   4.018 -0.5857  0.8474 -1.4631
  565MOL0     H76268  11.139   1.992   3.887  3.9233 -1.3804 -1.6623
  565MOL0     H76269  11.049   1.794   3.982  0.6682 -0.2094  2.4740
  565MOL0     H76270  11.159   1.805   4.111 -0.3900 -3.2669  0.5572
  565MOL0     H76271  11.350   1.743   3.971  0.4327 -1.3044 -2.5089
  565MOL0     H76272  11.271   1.793   3.824  2.6431  0.9547  0.2200
  565MOL0     H76273  11.050   1.447   3.821  0.0506 -0.2256 -0.9860
  565MOL0     H76274  10.981   2.401   4.025  2.4139 -0.5467  1.5314
  565MOL0     H76275  10.831   2.550   4.151 -3.5341  0.4077  0.3808
  566MOL0     O76276   4.617  10.919   4.973 -0.2805  0.5321  0.7793
  566MOL0     C76277   4.616  10.840   4.875  0.6840 -0.1168 -0.4530
  566MOL0     O76278   4.503  10.825   4.795  0.2538 -0.5132  0.6317
  566MOL0     C76279   4.387  10.903   4.808 -0.3862  0.1451 -0.2952
  566MOL0     C76280   4.388  11.039   4.831  0.0195  0.3854 -0.3988
  566MOL0     C76281   4.263  11.112   4.846 -0.4818  0.5001 -0.7702
  566MOL0     C76282   4.139  11.049   4.838  0.1499  0.0404 -0.2038
  566MOL0     O76283   4.016  11.113   4.835 -0.5034 -0.2506 -0.0591
  566MOL0     C76284   4.015  11.253   4.878  0.6299  0.0838 -0.4326
  566MOL0     C76285   3.875  11.308   4.854 -0.1988  0.1487  0.0711
  566MOL0     C76286   3.782  11.265   4.963 -0.6855  0.3531  0.8074
  566MOL0     C76287   3.736  11.121   4.933  0.3002  0.2365 -0.3194
  566MOL0     C76288   3.601  11.121   5.005  0.4273 -0.9768 -0.2775
  566MOL0     C76289   3.535  10.979   5.015 -0.5551 -0.5166 -0.6327
  566MOL0     C76290   3.396  10.984   5.079 -0.5188  0.9768 -0.3237
  566MOL0     C76291   3.296  11.066   5.004  0.3855 -0.4534 -0.7688
  566MOL0     N76292   3.266  11.009   4.873 -0.0541  0.2604  0.0736
  566MOL0     C76293   3.321  11.059   4.756 -0.4931  0.4052 -0.1663
  566MOL0     C76294   3.289  10.956   4.663 -0.4034 -0.1334  0.3012
  566MOL0     C76295   3.350  10.956   4.527  0.3068  0.0984  0.1202
  566MOL0     C76296   3.497  10.927   4.536 -0.1221 -1.0269  0.4960
  566MOL0     C76297   3.562  10.860   4.411 -0.4352  1.0323  0.7334
  566MOL0     C76298   3.554  10.958   4.285  0.8382 -0.2244  1.0444
  566MOL0     O76299   3.663  10.937   4.196  0.0295 -0.2322  0.6616
  566MOL0     C76300   3.665  10.820   4.126  0.0682  0.4995  0.3695
  566MOL0     C76301   3.785  10.791   4.061 -0.6556  0.0990 -0.0024
  566MOL0     C76302   3.804  10.677   3.974 -0.0445 -0.0037  0.8471
  566MOL0     C76303   3.950  10.650   3.923  1.0055 -0.0989  0.4008
  566MOL0     C76304   3.694  10.587   3.954 -0.2389 -0.2975  0.3928
  566MOL0     C76305   3.682  10.487   3.841  0.6173  0.4527 -0.5657
  566MOL0     O76306   3.561  10.438   3.816 -0.1366 -0.6885  0.4034
  566MOL0     C76307   3.493  10.496   3.708  0.8406  0.5809 -0.1490
  566MOL0     C76308   3.357  10.465   3.688  0.2881  0.2822  0.1371
  566MOL0     C76309   3.286  10.529   3.579  0.2804  0.1993  0.4009
  566MOL0     C76310   3.333  10.637   3.499 -0.3678  0.5544 -0.9054
  566MOL0     O76311   3.245  10.707   3.419  0.2398 -0.4551 -0.1513
  566MOL0     C76312   3.301  10.783   3.313  0.9985 -0.1148 -0.1284
  566MOL0     C76313   3.199  10.877   3.254  1.0589 -0.2384  0.1642
  566MOL0     C76314   3.238  10.943   3.123  0.3064  0.1964  0.2589
  566MOL0     C76315   3.131  11.037   3.067 -0.7546 -0.4857  0.1765
  566MOL0     C76316   3.005  10.978   2.996 -0.3208  0.3569  0.0023
  566MOL0     C76317   2.917  11.092   2.959  0.3819 -0.0418 -0.2439
  566MOL0     C76318   2.799  11.043   2.868 -0.2594  0.4291  0.0150
  566MOL0     C76319   2.713  11.166   2.818 -0.2692 -0.2288  0.0320
  566MOL0    Cl76320   2.581  11.133   2.697  0.3089  0.1046 -0.2686
  566MOL0     C76321   3.469  10.658   3.517  0.3843 -0.0594 -0.8880
  566MOL0     C76322   3.544  10.583   3.618 -0.1167 -0.0074  1.1166
  566MOL0     O76323   3.789  10.437   3.799 -0.5217 -0.2047  0.1168
  566MOL0     C76324   3.567  10.614   4.023 -1.2023  0.9614 -0.3594
  566MOL0     C76325   3.560  10.734   4.103 -0.8340  0.5868 -0.1580
  566MOL0     N76326   3.215  10.862   4.721 -0.0081 -0.5792 -0.3614
  566MOL0     N76327   3.209  10.888   4.851 -0.0732  0.2312  0.7096
  566MOL0     C76328   4.132  10.914   4.805 -0.0754 -0.5238 -0.4147
  566MOL0     C76329   4.259  10.842   4.795  0.3638 -0.9014 -0.3609
  566MOL0     C76330   4.738  10.757   4.850  0.6186  0.0100  1.0906
  566MOL0     C76331   4.860  10.802   4.903 -0.1819  0.9579  0.2090
  566MOL0     C76332   4.983  10.738   4.886  0.9001  0.2395  0.7834
  566MOL0     C76333   4.990  10.624   4.798  0.0816 -0.0156  0.2023
  566MOL0     O76334   5.098  10.542   4.772 -0.5088 -0.1916 -0.6138
  566MOL0     C76335   5.232  10.601   4.812 -0.8161 -0.7756 -0.2426
  566MOL0     C76336   5.287  10.581   4.963  0.2995 -0.2410  0.9236
  566MOL0     C76337   5.235  10.445   5.014 -0.0759 -0.0784  0.0995
  566MOL0     C76338   5.313  10.415   5.152 -0.2016  0.0289 -0.3721
  566MOL0     C76339   5.288  10.283   5.207 -0.3691  0.1406 -0.0512
  566MOL0     C76340   5.276  10.168   5.252  0.0088  0.0038  0.0379
  566MOL0     C76341   4.870  10.584   4.742 -1.2911 -0.1892 -0.0046
  566MOL0     C76342   4.747  10.648   4.763 -0.0020 -1.1590  0.1681
  566MOL0     H76343   4.488  11.082   4.837  1.2197 -2.1272 -0.9815
  566MOL0     H76344   4.277  11.218   4.861  0.6042  0.6253 -2.4160
  566MOL0     H76345   4.045  11.268   4.982 -0.9010 -0.9983  0.1949
  566MOL0     H76346   4.087  11.315   4.824  0.6831  1.9443  1.6574
  566MOL0     H76347   3.872  11.416   4.843 -3.7251  0.1950  0.3670
  566MOL0     H76348   3.844  11.281   4.752  3.3470  0.4095 -1.1925
  566MOL0     H76349   3.824  11.271   5.064 -0.6093 -0.9592  0.8809
  566MOL0     H76350   3.706  11.342   4.950 -1.0242 -0.1279 -0.1929
  566MOL0     H76351   3.714  11.102   4.827  2.2598 -1.8276 -0.4301
  566MOL0     H76352   3.807  11.045   4.965 -0.4826 -0.2481  0.2887
  566MOL0     H76353   3.626  11.147   5.108  0.2205 -0.6502 -0.3065
  566MOL0     H76354   3.537  11.206   4.977  3.2717  1.2832 -0.3592
  566MOL0     H76355   3.528  10.949   4.910 -1.5845  1.9330 -1.3450
  566MOL0     H76356   3.604  10.920   5.076 -0.7556  1.2990  1.4947
  566MOL0     H76357   3.342  10.889   5.084 -1.4559  1.5452  1.6215
  566MOL0     H76358   3.414  11.032   5.176 -0.2577  1.5105 -0.6336
  566MOL0     H76359   3.318  11.173   5.009  2.6744 -0.6582 -3.7594
  566MOL0     H76360   3.199  11.051   5.052 -0.0047 -0.2249 -1.4681
  566MOL0     H76361   3.381  11.148   4.740  2.5047 -1.4379 -0.0831
  566MOL0     H76362   3.299  10.881   4.466 -0.5073  1.1393 -0.5203
  566MOL0     H76363   3.341  11.054   4.479 -0.9826  0.5742  1.2475
  566MOL0     H76364   3.515  10.869   4.628 -0.4549  1.8970  2.5304
  566MOL0     H76365   3.545  11.023   4.554 -0.0284 -0.5247 -2.0581
  566MOL0     H76366   3.510  10.766   4.390 -1.1246  1.1452  1.8947
  566MOL0     H76367   3.668  10.834   4.425 -0.7991  1.0265  4.2566
  566MOL0     H76368   3.564  11.064   4.313 -1.2372  0.5903 -0.9379
  566MOL0     H76369   3.454  10.944   4.243  0.5849  1.6503  0.9235
  566MOL0     H76370   3.861  10.865   4.083  1.2556 -1.6002 -0.5906
  566MOL0     H76371   3.997  10.747   3.941  1.6001 -0.5320  1.2743
  566MOL0     H76372   3.996  10.579   3.993 -1.4156 -0.4294  1.7415
  566MOL0     H76373   3.963  10.633   3.816 -1.6904 -1.3279  0.1918
  566MOL0     H76374   3.308  10.386   3.745 -1.8200  1.6247  0.2918
  566MOL0     H76375   3.183  10.499   3.564  1.1370 -3.5677  0.8185
  566MOL0     H76376   3.383  10.840   3.359 -0.2681  1.3405  0.4310
  566MOL0     H76377   3.339  10.711   3.241  2.1232  0.4584 -0.1259
  566MOL0     H76378   3.106  10.823   3.232  0.9600 -0.2263  0.5535
  566MOL0     H76379   3.182  10.959   3.324  2.6800  3.2579 -3.1817
  566MOL0     H76380   3.255  10.861   3.052  2.6431  0.3722  0.5332
  566MOL0     H76381   3.337  10.989   3.127  0.6639 -0.5929  0.9608
  566MOL0     H76382   3.108  11.105   3.150 -1.4722 -1.0510  0.4579
  566MOL0     H76383   3.185  11.103   2.999 -2.9615  0.1712 -1.0294
  566MOL0     H76384   2.945  10.915   3.062 -0.4089 -1.2476 -1.5136
  566MOL0     H76385   3.043  10.933   2.904  0.7506  2.9225 -0.8832
  566MOL0     H76386   2.882  11.134   3.054 -0.2918 -0.4626 -0.2980
  566MOL0     H76387   2.965  11.180   2.916 -1.5644  3.1194  3.3962
  566MOL0     H76388   2.732  10.983   2.931 -0.3493  2.1354  1.6226
  566MOL0     H76389   2.838  10.992   2.779 -1.0980  0.8210 -0.5851
  566MOL0     H76390   2.778  11.243   2.777 -2.0524  1.6551  0.5991
  566MOL0     H76391   2.652  11.203   2.901 -1.5972  1.3244 -1.5555
  566MOL0     H76392   3.527  10.731   3.460  2.3299 -0.9311 -0.1308
  566MOL0     H76393   3.653  10.588   3.619 -0.1050 -0.2720  1.8198
  566MOL0     H76394   3.483  10.549   4.001  0.1395 -1.2272  0.6351
  566MOL0     H76395   3.469  10.741   4.162 -0.0052 -0.5963  1.3128
  566MOL0     H76396   4.033  10.870   4.801 -0.0879 -0.6878  1.2196
  566MOL0     H76397   4.254  10.734   4.786 -4.7241 -1.0781  1.3867
  566MOL0     H76398   4.860  10.880   4.978 -0.1104  2.1840 -1.0356
  566MOL0     H76399   5.067  10.789   4.931  2.2931 -0.0526 -1.3278
  566MOL0     H76400   5.289  10.552   4.733 -1.9137 -1.4449 -0.6437
  566MOL0     H76401   5.239  10.710   4.800  1.8177 -0.9477 -0.8675
  566MOL0     H76402   5.260  10.665   5.029 -1.2153 -0.0509  0.0946
  566MOL0     H76403   5.396  10.583   4.972  0.5419  2.3724 -1.1976
  566MOL0     H76404   5.255  10.358   4.951  2.4888  0.4638  0.0632
  566MOL0     H76405   5.128  10.438   5.035 -0.3283  2.6860  0.0336
  566MOL0     H76406   5.297  10.497   5.222  0.7715  0.3834 -0.5375
  566MOL0     H76407   5.418  10.420   5.120  0.0407  1.9920  0.5774
  566MOL0     H76408   5.275  10.071   5.297 -0.4275 -0.9288 -1.9057
  566MOL0     H76409   4.868  10.492   4.683 -0.2316 -0.4174  0.2972
  566MOL0     H76410   4.658  10.610   4.713  0.4266  0.7584 -2.2370
  567MOL0     O76411   9.956   6.450   0.736  0.3430 -0.3315 -0.5866
  567MOL0     C76412   9.988   6.544   0.817  0.5024 -0.1030 -0.5274
  567MOL0     O76413   9.910   6.613   0.907 -0.1683  0.0773  0.3216
  567MOL0     C76414   9.781   6.577   0.916  0.2680  0.5014 -0.7629
  567MOL0     C76415   9.736   6.533   1.040  0.2862  0.2423 -0.3500
  567MOL0     C76416   9.603   6.499   1.068  0.0076  0.1756  1.0939
  567MOL0     C76417   9.510   6.511   0.953  0.3791  1.5780 -0.2205
  567MOL0     O76418   9.376   6.474   0.957  0.0443  0.2536  0.8935
  567MOL0     C76419   9.351   6.343   1.010  0.7054  0.8188  0.4888
  567MOL0     C76420   9.198   6.336   1.026 -0.1897 -0.9450 -0.4587
  567MOL0     C76421   9.145   6.444   1.132  0.0668  0.1617 -0.0452
  567MOL0     C76422   8.989   6.454   1.138  0.2815  0.2806  0.2064
  567MOL0     C76423   8.944   6.580   1.212  0.5933 -0.1625  0.5198
  567MOL0     C76424   8.792   6.568   1.193  0.4614 -0.6554 -0.0351
  567MOL0     C76425   8.718   6.668   1.285  0.7073 -0.1596 -0.5848
  567MOL0     C76426   8.714   6.621   1.423  0.1949  0.9285  0.0123
  567MOL0     N76427   8.630   6.505   1.443 -0.1823  0.0348 -0.4250
  567MOL0     C76428   8.493   6.506   1.437  1.1344 -0.7958 -0.1806
  567MOL0     C76429   8.448   6.375   1.468 -1.3194 -1.1951  0.7945
  567MOL0     C76430   8.309   6.330   1.494  0.4013 -0.2027 -0.6432
  567MOL0     C76431   8.287   6.180   1.471 -0.0147 -0.1515  0.4937
  567MOL0     C76432   8.154   6.135   1.533 -0.2322  0.4256  0.0093
  567MOL0     C76433   8.154   5.981   1.548  0.4573 -0.4199 -0.3778
  567MOL0     O76434   8.178   5.913   1.421 -0.2929 -0.4007  0.3674
  567MOL0     C76435   8.109   5.806   1.367  0.5307 -0.4617 -1.0066
  567MOL0     C76436   8.139   5.765   1.241  0.8177 -0.7690 -0.0935
  567MOL0     C76437   8.085   5.648   1.184  0.7246  0.5300 -0.3552
  567MOL0     C76438   8.126   5.621   1.044 -1.0022 -0.1232  0.3712
  567MOL0     C76439   7.988   5.570   1.258 -0.8553 -0.1140  0.5112
  567MOL0     C76440   7.930   5.442   1.215 -0.0795  0.3866  1.4469
  567MOL0     O76441   7.961   5.407   1.082  0.4954  0.5012 -0.2815
  567MOL0     C76442   7.900   5.296   1.035  0.7363 -0.6542  0.3039
  567MOL0     C76443   7.808   5.314   0.931  0.6724 -0.1435  0.1731
  567MOL0     C76444   7.760   5.194   0.872 -0.4206  0.2041  0.8167
  567MOL0     C76445   7.786   5.066   0.926  0.2836  0.8226  0.9583
  567MOL0     O76446   7.724   4.951   0.872 -0.2913  0.1396  0.5417
  567MOL0     C76447   7.749   4.919   0.732  0.0743  0.1393  0.0062
  567MOL0     C76448   7.680   4.790   0.678 -0.6531  0.3807  1.0246
  567MOL0     C76449   7.715   4.762   0.529  0.0741 -0.4383 -0.0181
  567MOL0     C76450   7.615   4.668   0.457 -0.1520 -0.0151 -0.5524
  567MOL0     C76451   7.595   4.689   0.309 -0.0726  0.0615  0.1566
  567MOL0     C76452   7.734   4.696   0.231 -0.2971  0.6797 -0.3609
  567MOL0     C76453   7.715   4.712   0.081  0.2541  0.0895 -0.1803
  567MOL0     C76454   7.839   4.666   0.002 -0.4311  0.4705  0.1361
  567MOL0    Cl76455   7.979   4.772   0.017 -0.2269 -0.5371 -0.2781
  567MOL0     C76456   7.873   5.059   1.031  0.5864 -0.6309  0.0181
  567MOL0     C76457   7.938   5.173   1.078  0.4593 -0.1014  0.5741
  567MOL0     O76458   7.861   5.382   1.291 -0.6710 -0.1239 -0.2389
  567MOL0     C76459   7.954   5.625   1.388  0.6338  0.3572  0.4800
  567MOL0     C76460   8.012   5.736   1.443 -0.0125  0.0304  0.0044
  567MOL0     N76461   8.562   6.293   1.471 -0.9214  0.0161 -0.3792
  567MOL0     N76462   8.664   6.378   1.452  0.0631 -0.1854 -0.2949
  567MOL0     C76463   9.552   6.559   0.829 -0.4082  0.0994  0.0368
  567MOL0     C76464   9.689   6.593   0.809  1.4294  0.4466 -0.2609
  567MOL0     C76465  10.132   6.558   0.828  0.8496  0.7907  0.0423
  567MOL0     C76466  10.217   6.444   0.813  0.2737  0.9421 -0.0677
  567MOL0     C76467  10.355   6.459   0.814  0.5353 -0.4814 -0.1287
  567MOL0     C76468  10.419   6.583   0.824 -0.1456  0.1215  1.0132
  567MOL0     O76469  10.555   6.612   0.821  0.5865  0.2906  0.3934
  567MOL0     C76470  10.655   6.510   0.796 -0.1033  0.0438 -0.4737
  567MOL0     C76471  10.805   6.556   0.818  0.6947 -0.4506 -0.0682
  567MOL0     C76472  10.831   6.702   0.780 -0.6085  0.7713 -0.1850
  567MOL0     C76473  10.985   6.717   0.767 -0.9522  0.7957 -0.9873
  567MOL0     C76474  11.049   6.712   0.627  0.4025  0.1501 -0.1492
  567MOL0     C76475  11.102   6.708   0.517  0.2588 -0.3994  0.4330
  567MOL0     C76476  10.338   6.691   0.840  0.4731 -0.2417  0.2956
  567MOL0     C76477  10.191   6.682   0.840 -0.9954  0.3164  0.9301
  567MOL0     H76478   9.810   6.514   1.117  2.1843 -0.0710 -2.1552
  567MOL0     H76479   9.568   6.460   1.163  0.2597 -3.3252 -0.0974
  567MOL0     H76480   9.394   6.263   0.949  0.1268 -0.7677  2.0418
  567MOL0     H76481   9.401   6.328   1.107 -0.8900 -0.5683  1.1605
  567MOL0     H76482   9.149   6.355   0.930 -1.7793  0.4751  0.5758
  567MOL0     H76483   9.159   6.236   1.047 -1.6698 -0.1739  0.6583
  567MOL0     H76484   9.196   6.429   1.228  0.9357 -1.8381 -0.7624
  567MOL0     H76485   9.187   6.541   1.103  0.1597  0.9235  2.3664
  567MOL0     H76486   8.958   6.457   1.033 -1.4960 -1.2106  0.6287
  567MOL0     H76487   8.964   6.358   1.184  1.9205 -1.1928 -1.7743
  567MOL0     H76488   8.973   6.572   1.317  3.0112 -2.3085 -0.2194
  567MOL0     H76489   8.981   6.676   1.174  1.1401 -1.4255 -2.4191
  567MOL0     H76490   8.773   6.586   1.087  0.9131  2.2182  0.3125
  567MOL0     H76491   8.769   6.465   1.224  1.0817  0.0295  3.1205
  567MOL0     H76492   8.757   6.769   1.275  2.3822 -0.6058  1.0617
  567MOL0     H76493   8.616   6.677   1.246 -0.3828  0.1662  2.1451
  567MOL0     H76494   8.671   6.696   1.489 -0.1939  1.4898 -0.8512
  567MOL0     H76495   8.816   6.600   1.458 -0.0619  0.4017  0.4377
  567MOL0     H76496   8.430   6.594   1.425  3.0213  0.5974 -0.2413
  567MOL0     H76497   8.284   6.360   1.597  0.4311 -1.8811 -0.1117
  567MOL0     H76498   8.253   6.393   1.425 -1.8669  2.6975  3.3854
  567MOL0     H76499   8.371   6.128   1.518  1.0089  1.5935  0.6890
  567MOL0     H76500   8.297   6.158   1.364  1.9662 -1.2401  0.8713
  567MOL0     H76501   8.069   6.167   1.472  0.7246  2.0395 -0.5421
  567MOL0     H76502   8.140   6.175   1.634  0.0253  0.8664 -0.1255
  567MOL0     H76503   8.064   5.958   1.607  0.3876 -1.8831 -1.0151
  567MOL0     H76504   8.238   5.951   1.611  1.7012 -2.4639 -2.8668
  567MOL0     H76505   8.216   5.809   1.178 -0.1633 -0.7066 -1.2862
  567MOL0     H76506   8.036   5.602   0.984 -1.5548 -1.4503  1.5418
  567MOL0     H76507   8.191   5.698   1.002  0.2384 -1.3922 -0.1131
  567MOL0     H76508   8.190   5.533   1.044 -3.4549 -2.1615 -2.8655
  567MOL0     H76509   7.784   5.416   0.904  1.0962  0.0056  0.3541
  567MOL0     H76510   7.696   5.184   0.784  0.2063 -1.0742  0.4812
  567MOL0     H76511   7.728   4.996   0.657 -0.3349  1.4410  1.3925
  567MOL0     H76512   7.855   4.896   0.719 -0.0826 -2.0901  2.0820
  567MOL0     H76513   7.716   4.708   0.741  1.1414  1.1596  1.0662
  567MOL0     H76514   7.573   4.797   0.700 -1.0696 -1.2189 -0.2397
  567MOL0     H76515   7.817   4.725   0.517  0.4614  1.3033 -3.1590
  567MOL0     H76516   7.731   4.858   0.480 -0.7516 -1.6105 -2.7354
  567MOL0     H76517   7.646   4.565   0.477 -1.9519 -0.9552 -2.1889
  567MOL0     H76518   7.520   4.692   0.506 -0.2820 -0.5938 -0.5170
  567MOL0     H76519   7.543   4.782   0.289 -1.2886 -0.6880 -0.2763
  567MOL0     H76520   7.524   4.611   0.279 -0.6427 -0.9520  3.6837
  567MOL0     H76521   7.795   4.780   0.266  1.4466 -0.1059 -1.4003
  567MOL0     H76522   7.781   4.600   0.252 -2.0406  0.2491  2.1152
  567MOL0     H76523   7.696   4.814   0.045  1.3113  0.3095 -0.1525
  567MOL0     H76524   7.623   4.660   0.056 -0.7916  1.4515  0.6320
  567MOL0     H76525   7.809   4.664  -0.103 -0.6830 -0.6949  0.2116
  567MOL0     H76526   7.868   4.564   0.032 -0.4991  0.1610 -0.8189
  567MOL0     H76527   7.911   4.965   1.070 -1.6028 -0.8868  1.7177
  567MOL0     H76528   8.015   5.170   1.155  2.0628 -1.2746 -0.9801
  567MOL0     H76529   7.888   5.579   1.461  0.9755 -0.6721  0.1561
  567MOL0     H76530   7.998   5.764   1.547  2.9818 -0.5953  0.6765
  567MOL0     H76531   9.471   6.578   0.759 -2.4092  0.1293  2.2391
  567MOL0     H76532   9.715   6.644   0.717  0.4985  1.7641  0.1746
  567MOL0     H76533  10.171   6.347   0.794  0.4291  0.9075 -0.2681
  567MOL0     H76534  10.420   6.373   0.803  0.0342 -1.5798  3.8426
  567MOL0     H76535  10.642   6.419   0.857 -1.4834  0.3442 -0.2840
  567MOL0     H76536  10.652   6.490   0.688 -0.8424 -0.2448 -0.4097
  567MOL0     H76537  10.871   6.494   0.755  0.5679  0.5731 -1.2459
  567MOL0     H76538  10.837   6.551   0.922  0.1449 -0.1027  0.1214
  567MOL0     H76539  10.788   6.767   0.857  1.0649  2.4108 -0.5542
  567MOL0     H76540  10.779   6.723   0.687 -0.1659  0.1540 -0.5837
  567MOL0     H76541  11.034   6.661   0.847 -0.8847  0.8520 -0.9888
  567MOL0     H76542  11.011   6.820   0.795  2.0393 -0.3058  0.6953
  567MOL0     H76543  11.139   6.704   0.417 -2.2963 -1.0696 -0.5811
  567MOL0     H76544  10.393   6.785   0.843  0.6494 -0.3197 -0.4304
  567MOL0     H76545  10.125   6.768   0.839  1.5053  2.3672  0.1320
  568MOL0     O76546   3.989   6.592   2.053 -0.0621  0.1155  0.3080
  568MOL0     C76547   3.901   6.570   2.142 -0.2812 -0.2067  1.0040
  568MOL0     O76548   3.926   6.527   2.263  0.2268 -0.1102 -0.5565
  568MOL0     C76549   4.059   6.514   2.312  0.7891  0.1938  0.0750
  568MOL0     C76550   4.109   6.392   2.348  0.4543  0.3313  0.3687
  568MOL0     C76551   4.234   6.370   2.410 -0.2210 -0.8053 -0.0462
  568MOL0     C76552   4.328   6.474   2.422 -0.5694  0.4189  0.9023
  568MOL0     O76553   4.453   6.434   2.455  0.8377  0.0134 -1.1363
  568MOL0     C76554   4.571   6.518   2.485 -0.0404 -0.7777  0.2866
  568MOL0     C76555   4.675   6.442   2.555 -0.5678  0.7928  0.5494
  568MOL0     C76556   4.710   6.304   2.483 -0.5799 -0.1294 -0.0261
  568MOL0     C76557   4.802   6.213   2.577  0.4419 -0.0682 -0.3459
  568MOL0     C76558   4.886   6.117   2.488 -0.8593 -0.1427 -0.6973
  568MOL0     C76559   4.995   6.045   2.581  0.8043  0.8578  1.3569
  568MOL0     C76560   5.068   5.924   2.512 -0.0861 -0.0770  0.4834
  568MOL0     C76561   5.136   5.978   2.373  1.6019  0.2563 -0.7725
  568MOL0     N76562   5.247   6.065   2.397 -0.1357  0.1196  0.6640
  568MOL0     C76563   5.368   6.037   2.450 -0.3015 -0.3107 -1.2158
  568MOL0     C76564   5.430   6.162   2.456  0.3822  0.3685  0.2606
  568MOL0     C76565   5.565   6.194   2.519 -0.8096 -0.9246 -0.5854
  568MOL0     C76566   5.572   6.193   2.669 -0.2635  0.3553  0.1475
  568MOL0     C76567   5.461   6.295   2.721  0.0255 -0.4683  0.5068
  568MOL0     C76568   5.438   6.287   2.871 -0.5259  0.0641  0.1629
  568MOL0     O76569   5.379   6.401   2.928  0.2632 -0.5858 -0.6579
  568MOL0     C76570   5.246   6.422   2.898  0.0733 -0.0154  0.6669
  568MOL0     C76571   5.146   6.331   2.914 -0.1316 -1.4665 -0.4578
  568MOL0     C76572   5.007   6.371   2.899 -0.1815 -0.9434 -0.8164
  568MOL0     C76573   4.899   6.269   2.917 -0.4716 -0.2219 -0.2792
  568MOL0     C76574   4.971   6.507   2.869 -0.0720 -0.5283  0.3288
  568MOL0     C76575   4.833   6.577   2.876 -0.9581  0.5067 -0.3817
  568MOL0     O76576   4.839   6.720   2.885 -0.5070 -0.4109 -0.4057
  568MOL0     C76577   4.734   6.801   2.920 -1.2463  0.6339  0.0547
  568MOL0     C76578   4.596   6.787   2.885  0.4359  0.2930 -0.7023
  568MOL0     C76579   4.502   6.880   2.936  0.5038 -0.5882  0.6579
  568MOL0     C76580   4.551   6.994   3.002  0.7465 -0.0517  0.4000
  568MOL0     O76581   4.475   7.099   3.040  0.8240  0.9935  0.7714
  568MOL0     C76582   4.365   7.073   3.130 -0.0035 -0.2359  0.4582
  568MOL0     C76583   4.418   7.073   3.281 -0.5770  0.5339 -0.4057
  568MOL0     C76584   4.301   7.038   3.372  0.3772  0.2831  0.2490
  568MOL0     C76585   4.354   7.054   3.509 -0.9573  0.4717  0.1130
  568MOL0     C76586   4.248   7.008   3.609  0.1986  0.4224  0.5532
  568MOL0     C76587   4.297   7.042   3.748  0.2702 -0.3412  0.5482
  568MOL0     C76588   4.206   6.989   3.858 -1.0336 -0.7719  0.0095
  568MOL0     C76589   4.266   7.015   3.994 -0.2941  0.2767 -0.3808
  568MOL0    Cl76590   4.207   6.888   4.111 -0.2993 -0.2245 -0.0046
  568MOL0     C76591   4.685   7.001   3.028 -0.4334 -0.0519 -0.1281
  568MOL0     C76592   4.781   6.906   2.986 -0.0411  0.0617 -0.2201
  568MOL0     O76593   4.736   6.512   2.884  0.2485  0.4130  0.1372
  568MOL0     C76594   5.082   6.595   2.858 -0.6390 -0.7830  0.4924
  568MOL0     C76595   5.216   6.553   2.869 -0.0351  0.1039 -0.5936
  568MOL0     N76596   5.350   6.249   2.404  0.6882 -1.0863  0.3552
  568MOL0     N76597   5.238   6.197   2.356 -0.2273  0.6483 -0.5208
  568MOL0     C76598   4.284   6.595   2.374 -0.0021  0.0269  1.1146
  568MOL0     C76599   4.153   6.615   2.328  0.2259 -0.8533  0.4764
  568MOL0     C76600   3.759   6.596   2.109 -0.3824  0.3633 -0.3450
  568MOL0     C76601   3.673   6.603   2.217 -0.1229  0.3005 -0.1879
  568MOL0     C76602   3.544   6.639   2.194 -1.2013  0.2270  0.1522
  568MOL0     C76603   3.493   6.662   2.072  0.6119  0.7957 -0.5532
  568MOL0     O76604   3.360   6.696   2.065 -0.1821 -0.2171 -0.1387
  568MOL0     C76605   3.284   6.671   1.941  0.1646 -0.0514 -0.1189
  568MOL0     C76606   3.213   6.529   1.949  0.5916  0.5547  0.3980
  568MOL0     C76607   3.144   6.505   2.081 -0.2870 -0.2258 -0.5935
  568MOL0     C76608   3.003   6.556   2.095  0.3877 -0.0464  0.2070
  568MOL0     C76609   2.894   6.476   2.041  0.5848 -0.3669 -0.0425
  568MOL0     C76610   2.795   6.413   2.006 -0.2600  0.2127 -0.6081
  568MOL0     C76611   3.580   6.648   1.959 -1.0251 -0.4532 -0.1086
  568MOL0     C76612   3.715   6.617   1.981  0.3656  0.4769 -0.4792
  568MOL0     H76613   4.049   6.301   2.345  0.9461  0.0205 -1.5131
  568MOL0     H76614   4.260   6.267   2.431 -1.6770 -1.0774  0.5352
  568MOL0     H76615   4.622   6.552   2.394  0.5056  2.4885  1.6857
  568MOL0     H76616   4.549   6.608   2.543  1.3509  0.2391 -0.6900
  568MOL0     H76617   4.762   6.509   2.552 -1.9376  2.6511 -1.6392
  568MOL0     H76618   4.647   6.425   2.659  2.2803 -1.4721  1.0740
  568MOL0     H76619   4.620   6.253   2.447 -2.1706  2.7203 -0.3589
  568MOL0     H76620   4.775   6.336   2.401  3.2944  1.6019  3.3424
  568MOL0     H76621   4.860   6.287   2.634 -0.3697  1.4115 -1.3620
  568MOL0     H76622   4.742   6.161   2.651 -0.0478  1.3081  0.2643
  568MOL0     H76623   4.838   6.043   2.423  0.0596  0.2546 -1.8657
  568MOL0     H76624   4.943   6.183   2.422  1.0891 -0.9259  0.1466
  568MOL0     H76625   5.068   6.118   2.615  2.0787  0.1849  0.1734
  568MOL0     H76626   4.948   6.008   2.673 -1.0304  1.7697  0.8353
  568MOL0     H76627   5.147   5.876   2.570 -0.4406  0.0480  1.0766
  568MOL0     H76628   4.989   5.852   2.489 -0.7362  0.3012  1.4426
  568MOL0     H76629   5.057   6.030   2.318 -1.2604  0.5060  3.1984
  568MOL0     H76630   5.165   5.883   2.327 -1.7493 -1.2174 -0.1096
  568MOL0     H76631   5.421   5.948   2.482  1.1800  0.3919 -1.6289
  568MOL0     H76632   5.633   6.122   2.472 -0.6889 -1.4692  0.4162
  568MOL0     H76633   5.582   6.297   2.486 -1.1620  0.2428  2.5556
  568MOL0     H76634   5.671   6.216   2.709  0.6789 -1.8070 -0.7625
  568MOL0     H76635   5.550   6.091   2.702 -0.8596  0.1782 -0.7595
  568MOL0     H76636   5.365   6.279   2.672  0.6837  1.8174 -1.7696
  568MOL0     H76637   5.493   6.399   2.706 -1.2240 -0.2185 -0.6669
  568MOL0     H76638   5.536   6.277   2.918 -0.3677  1.4324  0.1766
  568MOL0     H76639   5.377   6.198   2.890 -0.3183  0.1489  1.2784
  568MOL0     H76640   5.182   6.230   2.935  1.8609 -0.3380  2.1073
  568MOL0     H76641   4.937   6.169   2.891 -2.4822 -1.2222  0.4396
  568MOL0     H76642   4.860   6.265   3.019  1.2124  0.6757  0.4478
  568MOL0     H76643   4.824   6.275   2.837 -2.2706 -0.3137  1.3484
  568MOL0     H76644   4.557   6.707   2.823 -3.1788  2.7382 -1.9287
  568MOL0     H76645   4.396   6.877   2.911  0.1276 -1.0369  2.1878
  568MOL0     H76646   4.284   7.146   3.124  0.8860  0.7641  0.5185
  568MOL0     H76647   4.310   6.982   3.104 -0.6993  0.0987  0.7207
  568MOL0     H76648   4.483   6.988   3.300  0.7191  1.9596  2.0831
  568MOL0     H76649   4.480   7.162   3.297 -0.8656  0.6341  0.2015
  568MOL0     H76650   4.270   6.935   3.354 -0.0244  0.3044  0.8074
  568MOL0     H76651   4.215   7.101   3.349  1.7544  1.2985 -2.7376
  568MOL0     H76652   4.449   7.000   3.513  1.1047  3.2048 -4.0405
  568MOL0     H76653   4.387   7.157   3.527  4.2353 -1.0168  0.6762
  568MOL0     H76654   4.237   6.900   3.594  2.0376  0.3691 -0.8219
  568MOL0     H76655   4.153   7.055   3.579  0.2009 -1.4258 -2.8616
  568MOL0     H76656   4.394   6.990   3.754  0.2726 -0.2847  1.0722
  568MOL0     H76657   4.313   7.149   3.764 -0.2542  0.0911 -1.5714
  568MOL0     H76658   4.178   6.884   3.844 -0.1654 -1.0868  0.5114
  568MOL0     H76659   4.115   7.050   3.856  0.0385  1.0839  2.3862
  568MOL0     H76660   4.231   7.112   4.032  0.9106 -0.2481  2.3527
  568MOL0     H76661   4.376   7.011   3.994 -0.2908 -2.7661  1.3845
  568MOL0     H76662   4.730   7.085   3.078  2.8891 -1.1919 -0.9691
  568MOL0     H76663   4.885   6.934   2.999 -0.0876 -0.7476  2.5005
  568MOL0     H76664   5.056   6.699   2.846 -0.4397 -1.0458 -3.7275
  568MOL0     H76665   5.299   6.623   2.864  0.1287 -0.1346 -1.3357
  568MOL0     H76666   4.353   6.679   2.374  1.7855 -1.3411 -1.1929
  568MOL0     H76667   4.121   6.710   2.286  0.8962 -0.7700  0.1523
  568MOL0     H76668   3.690   6.586   2.323 -0.7924 -0.6588 -0.2195
  568MOL0     H76669   3.482   6.630   2.283 -4.2472 -4.1264 -2.0577
  568MOL0     H76670   3.212   6.753   1.946  1.5759  1.1711  0.5721
  568MOL0     H76671   3.345   6.679   1.851  0.9961  3.7234  0.6174
  568MOL0     H76672   3.295   6.458   1.943  2.6845  2.8290  0.7557
  568MOL0     H76673   3.140   6.522   1.867  0.4401  1.6875  0.4152
  568MOL0     H76674   3.197   6.552   2.164 -1.9879 -2.0551  1.6708
  568MOL0     H76675   3.141   6.396   2.088 -1.4938 -0.3603 -2.4275
  568MOL0     H76676   2.981   6.653   2.048 -2.0383 -1.3218 -1.4881
  568MOL0     H76677   2.979   6.564   2.201  1.1243 -1.9413  0.5542
  568MOL0     H76678   2.709   6.349   2.007 -0.6421  0.7180 -1.0380
  568MOL0     H76679   3.549   6.677   1.859  0.2812 -2.8201 -1.2724
  568MOL0     H76680   3.789   6.628   1.902  2.0614  0.7357  1.1002
  569MOL0     O76681   4.542  10.935   5.743 -0.5284  0.2543  0.2789
  569MOL0     C76682   4.553  10.958   5.858 -0.5257  0.5399 -0.0389
  569MOL0     O76683   4.467  11.031   5.939  0.3697  0.6956  0.3361
  569MOL0     C76684   4.342  11.063   5.890  0.6435  0.1094 -0.7934
  569MOL0     C76685   4.329  11.169   5.807 -0.4849  0.0885 -0.5633
  569MOL0     C76686   4.210  11.219   5.762 -0.1090  0.5381 -0.9300
  569MOL0     C76687   4.094  11.157   5.802  0.8356 -0.4806  0.1728
  569MOL0     O76688   3.965  11.206   5.770  0.4064 -0.3970  0.3721
  569MOL0     C76689   3.937  11.332   5.836  0.7432 -0.1994  0.7446
  569MOL0     C76690   3.855  11.423   5.754  0.1290 -0.1507  0.0466
  569MOL0     C76691   3.720  11.367   5.704  0.4615  1.0607  0.1577
  569MOL0     C76692   3.633  11.476   5.634  0.3788 -0.8311 -0.8661
  569MOL0     C76693   3.490  11.447   5.595 -0.3216 -0.1885 -0.1699
  569MOL0     C76694   3.394  11.429   5.720 -0.9925  0.2063 -0.3020
  569MOL0     C76695   3.249  11.481   5.699  0.0979 -0.5538 -0.1328
  569MOL0     C76696   3.139  11.374   5.728 -0.9972  0.2545 -0.1208
  569MOL0     N76697   2.996  11.408   5.691  0.1154  0.5659  0.5373
  569MOL0     C76698   2.899  11.461   5.768  1.2961  0.0596 -0.1151
  569MOL0     C76699   2.793  11.489   5.682  0.3595  0.4180  0.1596
  569MOL0     C76700   2.653  11.535   5.707  0.0608 -0.0593  0.5432
  569MOL0     C76701   2.570  11.435   5.770  0.3655  0.0385 -0.6656
  569MOL0     C76702   2.420  11.465   5.759 -0.8329  0.1816 -1.1962
  569MOL0     C76703   2.352  11.465   5.627  0.0863  0.1251  0.7440
  569MOL0     O76704   2.374  11.341   5.554  0.3050 -0.5150  0.2126
  569MOL0     C76705   2.263  11.287   5.501  0.9441 -0.2935  0.4813
  569MOL0     C76706   2.173  11.365   5.426  0.9901 -1.0240  0.5329
  569MOL0     C76707   2.048  11.320   5.369 -0.5601  0.4307 -1.1932
  569MOL0     C76708   1.964  11.425   5.302  0.4391  0.0545  0.5486
  569MOL0     C76709   2.010  11.187   5.403 -0.0572 -0.0392 -0.9396
  569MOL0     C76710   1.882  11.130   5.343  0.3412  0.3894  0.3082
  569MOL0     O76711   1.835  11.190   5.224  0.0317 -0.0557 -0.3186
  569MOL0     C76712   1.723  11.142   5.159 -0.9017  0.6306 -0.7267
  569MOL0     C76713   1.745  11.029   5.076 -0.3211  0.1304 -0.1438
  569MOL0     C76714   1.640  10.991   4.994 -0.0620  0.0391 -0.1463
  569MOL0     C76715   1.511  11.052   4.999 -0.4867  1.4001 -0.7567
  569MOL0     O76716   1.413  11.014   4.912  0.3860 -0.4231 -0.0368
  569MOL0     C76717   1.443  11.027   4.775  0.0659  0.3831 -0.4803
  569MOL0     C76718   1.459  10.885   4.711  0.0659 -0.2945 -0.4063
  569MOL0     C76719   1.334  10.796   4.740 -0.1791  0.5502  0.4537
  569MOL0     C76720   1.313  10.710   4.614  0.0263 -0.0957  0.0764
  569MOL0     C76721   1.203  10.602   4.627  0.2917 -0.1128  0.2841
  569MOL0     C76722   1.070  10.672   4.604 -0.0606  0.7957 -0.1285
  569MOL0     C76723   0.961  10.563   4.627  0.3242 -0.1140  0.0520
  569MOL0     C76724   0.838  10.610   4.571  0.1449  0.6628  0.6571
  569MOL0    Cl76725   0.782  10.760   4.652  0.1075 -0.0259  0.3678
  569MOL0     C76726   1.490  11.154   5.091 -0.5996 -0.0665  0.4247
  569MOL0     C76727   1.597  11.193   5.170  0.0061  0.0004 -0.7847
  569MOL0     O76728   1.825  11.031   5.391  0.4462  0.2889 -0.4958
  569MOL0     C76729   2.101  11.109   5.478 -0.2569 -0.5041  0.3708
  569MOL0     C76730   2.225  11.159   5.531 -0.1734 -0.1261  0.3672
  569MOL0     N76731   2.831  11.452   5.557 -0.0340  0.0699  0.0901
  569MOL0     N76732   2.949  11.414   5.563 -0.0815 -0.4270 -0.4276
  569MOL0     C76733   4.099  11.035   5.883  0.2667 -0.8727 -0.0047
  569MOL0     C76734   4.226  10.996   5.931 -0.9463 -0.1257 -0.0214
  569MOL0     C76735   4.683  10.933   5.923 -0.6502 -1.0215  0.0588
  569MOL0     C76736   4.784  10.885   5.845 -0.4619  0.5259  0.1146
  569MOL0     C76737   4.913  10.867   5.890 -0.2162 -0.5720 -0.1812
  569MOL0     C76738   4.942  10.889   6.029  0.2760  0.4828  0.7881
  569MOL0     O76739   5.057  10.857   6.090 -0.7909 -0.2167 -0.0319
  569MOL0     C76740   5.179  10.871   6.014 -0.2166  0.0261 -0.0476
  569MOL0     C76741   5.275  10.760   6.050  0.6869 -0.9955  0.0541
  569MOL0     C76742   5.309  10.751   6.196 -0.5319 -1.6074  0.1599
  569MOL0     C76743   5.411  10.641   6.221  0.4696 -0.0768 -0.7309
  569MOL0     C76744   5.433  10.615   6.362  0.3909  0.1359 -0.8937
  569MOL0     C76745   5.460  10.608   6.478  0.1597 -0.7297  0.1162
  569MOL0     C76746   4.834  10.934   6.107 -0.0134 -0.5988 -0.5372
  569MOL0     C76747   4.709  10.951   6.059 -0.1690 -0.0940  0.4433
  569MOL0     H76748   4.415  11.223   5.767 -0.0127  0.0501  0.3801
  569MOL0     H76749   4.209  11.300   5.690  0.9116 -0.0729 -1.6461
  569MOL0     H76750   3.894  11.313   5.935  2.1422  0.2523  1.4729
  569MOL0     H76751   4.032  11.383   5.850  0.7805 -0.3798  1.1793
  569MOL0     H76752   3.844  11.504   5.828  0.7838 -0.5261  0.5683
  569MOL0     H76753   3.906  11.465   5.668  0.1185  1.0360  0.5943
  569MOL0     H76754   3.744  11.285   5.635  0.7742 -0.0099  1.4854
  569MOL0     H76755   3.669  11.328   5.792 -0.5238  1.2372 -0.3282
  569MOL0     H76756   3.631  11.568   5.692  0.4409 -1.1849 -0.2891
  569MOL0     H76757   3.692  11.497   5.544  2.3242 -0.2565  0.4772
  569MOL0     H76758   3.453  11.536   5.545 -2.0284 -0.3747  0.6975
  569MOL0     H76759   3.489  11.362   5.527  1.3373 -1.3104  1.1168
  569MOL0     H76760   3.387  11.321   5.739  2.3758 -0.0655 -0.1532
  569MOL0     H76761   3.436  11.481   5.807  0.7705  0.2958 -1.1751
  569MOL0     H76762   3.237  11.568   5.765  0.9719 -0.3082 -0.2946
  569MOL0     H76763   3.229  11.505   5.594  1.9884 -2.6730 -1.0724
  569MOL0     H76764   3.151  11.344   5.833 -0.3274 -0.0166 -0.2685
  569MOL0     H76765   3.160  11.280   5.676 -2.0559  0.6865 -1.3941
  569MOL0     H76766   2.889  11.466   5.876 -1.3525  0.2399 -0.2896
  569MOL0     H76767   2.675  11.618   5.774  0.5001 -0.3031  0.7090
  569MOL0     H76768   2.602  11.574   5.618 -0.4723 -2.3124 -0.2008
  569MOL0     H76769   2.588  11.426   5.878  2.4178 -0.5604 -1.0152
  569MOL0     H76770   2.598  11.340   5.723  2.5362  0.1056  0.3926
  569MOL0     H76771   2.410  11.566   5.802  2.8055 -0.4423  1.7038
  569MOL0     H76772   2.368  11.394   5.824 -2.6497  1.1338 -1.5534
  569MOL0     H76773   2.386  11.547   5.563 -1.8823  0.2368 -0.2353
  569MOL0     H76774   2.246  11.486   5.643  0.2695  4.1572 -1.9240
  569MOL0     H76775   2.201  11.469   5.415  0.0178 -0.7947  0.1158
  569MOL0     H76776   2.017  11.520   5.306 -2.1281  1.8355 -2.9298
  569MOL0     H76777   1.945  11.411   5.195 -3.1892 -0.0916  1.0953
  569MOL0     H76778   1.864  11.438   5.343 -0.8367 -1.2799 -1.9018
  569MOL0     H76779   1.845  10.989   5.064  1.4450  3.7494  0.8493
  569MOL0     H76780   1.660  10.917   4.917 -0.7364  0.5695 -0.8516
  569MOL0     H76781   1.354  11.069   4.729  0.3375  1.3565 -0.1490
  569MOL0     H76782   1.531  11.090   4.753 -0.2795  0.5140 -1.5457
  569MOL0     H76783   1.453  10.913   4.606  1.4062  3.2177  0.3036
  569MOL0     H76784   1.557  10.841   4.730  2.1075  2.6829 -2.9886
  569MOL0     H76785   1.242  10.854   4.753 -1.3504 -1.2866  0.8066
  569MOL0     H76786   1.345  10.729   4.826 -1.4344  0.3544  0.4817
  569MOL0     H76787   1.304  10.772   4.524  2.9892 -0.9282 -0.9139
  569MOL0     H76788   1.405  10.653   4.595 -0.5842 -2.1577  2.7245
  569MOL0     H76789   1.203  10.552   4.724 -1.6259 -0.1877  0.2755
  569MOL0     H76790   1.224  10.522   4.555  1.5915  0.7950 -0.3961
  569MOL0     H76791   1.050  10.753   4.675  2.0600 -0.6008  2.2438
  569MOL0     H76792   1.068  10.698   4.498 -3.6366 -0.9159 -0.6342
  569MOL0     H76793   0.950  10.556   4.736 -0.8800  3.2585  0.2930
  569MOL0     H76794   0.995  10.469   4.583  0.5152  0.7543 -1.7314
  569MOL0     H76795   0.769  10.525   4.575  1.6636 -0.8471 -2.0764
  569MOL0     H76796   0.845  10.624   4.463  0.0310 -0.1901  0.5331
  569MOL0     H76797   1.391  11.198   5.101 -0.0244  1.6448 -1.0262
  569MOL0     H76798   1.592  11.263   5.253  1.7671 -0.5720 -0.1489
  569MOL0     H76799   2.075  11.013   5.523 -0.1323 -1.7926 -2.1396
  569MOL0     H76800   2.289  11.102   5.598 -1.5118  0.6222  2.3814
  569MOL0     H76801   4.006  10.986   5.909 -0.5141  0.0820 -0.8951
  569MOL0     H76802   4.219  10.918   6.006 -1.2778  0.5983  0.7170
  569MOL0     H76803   4.760  10.860   5.743  1.1417 -0.2065 -0.1146
  569MOL0     H76804   4.995  10.827   5.831  2.2572 -1.2699  3.4078
  569MOL0     H76805   5.159  10.861   5.907 -1.0191  2.8950 -0.2361
  569MOL0     H76806   5.244  10.959   6.024  0.4063  0.0488 -3.2592
  569MOL0     H76807   5.365  10.777   5.990  1.6053 -2.2697  1.0375
  569MOL0     H76808   5.242  10.660   6.018 -0.6509 -0.5208 -0.1271
  569MOL0     H76809   5.217  10.730   6.251  0.0844 -1.9685  1.0918
  569MOL0     H76810   5.343  10.852   6.222 -4.0298 -0.0964 -0.6470
  569MOL0     H76811   5.506  10.676   6.180  0.1160  3.8417  1.4029
  569MOL0     H76812   5.400  10.551   6.158 -0.6341  0.5709 -1.5093
  569MOL0     H76813   5.473  10.592   6.583  2.9115 -0.3674 -0.0815
  569MOL0     H76814   4.857  10.944   6.213  1.2692  0.2713 -0.8780
  569MOL0     H76815   4.630  10.985   6.126 -0.2591  0.2981  0.1454
  570MOL0     O76816   0.511   9.445   6.934  0.3853 -0.0528  0.7241
  570MOL0     C76817   0.623   9.433   6.984  0.3150 -0.5338  0.3368
  570MOL0     O76818   0.653   9.448   7.115  0.5899 -0.3168 -0.1013
  570MOL0     C76819   0.556   9.480   7.214 -0.2595  0.1381 -0.4202
  570MOL0     C76820   0.563   9.604   7.281  0.1230  0.1539 -0.3541
  570MOL0     C76821   0.465   9.648   7.359 -0.6263 -0.2768 -0.2878
  570MOL0     C76822   0.348   9.566   7.394 -0.3040  0.7251  0.1872
  570MOL0     O76823   0.242   9.612   7.475 -0.0556  0.8531 -0.5295
  570MOL0     C76824   0.247   9.742   7.537  0.0418  1.0014 -0.6400
  570MOL0     C76825   0.139   9.723   7.653 -0.1862 -0.3233  0.6260
  570MOL0     C76826  -0.001   9.732   7.599 -0.9749  0.0521  0.2298
  570MOL0     C76827  -0.111   9.721   7.715  0.4053 -0.0950  0.2865
  570MOL0     C76828  -0.248   9.716   7.647  0.2225 -0.4411 -0.3847
  570MOL0     C76829  -0.368   9.774   7.718 -0.4402 -0.4701 -0.3151
  570MOL0     C76830  -0.400   9.718   7.859  0.1340 -0.3092  0.1060
  570MOL0     C76831  -0.543   9.761   7.903  0.0308  0.3371  0.1433
  570MOL0     N76832  -0.546   9.904   7.935  1.0247  0.3415 -0.2113
  570MOL0     C76833  -0.577   9.960   8.055  0.0161 -0.5199 -0.0766
  570MOL0     C76834  -0.588  10.089   8.031 -0.5669  0.4120 -0.0641
  570MOL0     C76835  -0.619  10.184   8.132  0.0212 -0.5762  0.0291
  570MOL0     C76836  -0.762  10.227   8.120  0.0705  0.4411 -0.5780
  570MOL0     C76837  -0.790  10.341   8.227 -0.2031 -0.1199 -0.1275
  570MOL0     C76838  -0.763  10.305   8.378  0.8837 -0.0940  0.1608
  570MOL0     O76839  -0.629  10.280   8.414 -0.4067 -0.0819 -0.2242
  570MOL0     C76840  -0.536  10.379   8.391  0.1427  0.4357  0.9582
  570MOL0     C76841  -0.404  10.338   8.350 -0.3465  0.2170  0.1949
  570MOL0     C76842  -0.300  10.428   8.324 -1.6611  0.1900  0.7871
  570MOL0     C76843  -0.177  10.374   8.266 -0.0933  0.0571  0.7365
  570MOL0     C76844  -0.323  10.564   8.334 -0.8796  0.4783 -0.5433
  570MOL0     C76845  -0.219  10.668   8.308 -0.0782 -0.0959 -0.3329
  570MOL0     O76846  -0.123  10.646   8.216 -0.3339  0.1844  0.1330
  570MOL0     C76847  -0.043  10.746   8.157  0.2750  0.3760  0.6064
  570MOL0     C76848   0.090  10.725   8.169 -0.1710  0.1909 -0.9412
  570MOL0     C76849   0.185  10.806   8.107 -1.4755  0.1224  0.7758
  570MOL0     C76850   0.146  10.925   8.035 -0.4620  0.3185 -0.3946
  570MOL0     O76851   0.245  11.021   7.993 -0.6686 -0.3399 -0.1268
  570MOL0     C76852   0.200  11.125   7.903  0.4262  0.5602  0.0442
  570MOL0     C76853   0.309  11.192   7.818  0.4705  0.4075 -0.0941
  570MOL0     C76854   0.375  11.084   7.725 -0.7410  0.9520 -0.0893
  570MOL0     C76855   0.498  11.133   7.646  0.6215 -1.0164 -0.0242
  570MOL0     C76856   0.548  11.022   7.562 -0.5014  0.7173  0.5054
  570MOL0     C76857   0.653  11.071   7.455 -0.1846 -1.1751  0.1799
  570MOL0     C76858   0.717  10.952   7.399 -0.3410  0.7473  0.4316
  570MOL0     C76859   0.829  10.993   7.297  0.2565 -0.1097  0.4877
  570MOL0    Cl76860   0.898  10.852   7.219  0.0640  0.0733 -0.1972
  570MOL0     C76861   0.006  10.938   8.019  0.2699 -0.5814  0.0098
  570MOL0     C76862  -0.086  10.841   8.070 -0.7428 -0.9215  0.1970
  570MOL0     O76863  -0.226  10.769   8.376 -0.1241 -1.0790  0.9331
  570MOL0     C76864  -0.460  10.608   8.376  0.2585  0.0927 -0.1115
  570MOL0     C76865  -0.561  10.518   8.393  0.8522  0.5716  0.7233
  570MOL0     N76866  -0.570  10.113   7.895 -0.0246  0.0337  0.1484
  570MOL0     N76867  -0.534   9.998   7.844 -0.0724 -0.0495  0.5774
  570MOL0     C76868   0.341   9.440   7.322  0.1372 -0.6038 -0.3785
  570MOL0     C76869   0.439   9.397   7.231 -0.2788 -0.4937  0.1802
  570MOL0     C76870   0.731   9.403   6.900 -0.0452  0.3761 -0.1997
  570MOL0     C76871   0.727   9.453   6.768  0.1583  0.4332  0.1029
  570MOL0     C76872   0.831   9.423   6.677  0.2102 -0.0582 -0.4107
  570MOL0     C76873   0.941   9.339   6.723  0.8231 -0.8146 -0.6094
  570MOL0     O76874   1.040   9.299   6.634 -0.4002 -0.3954 -0.3774
  570MOL0     C76875   1.072   9.375   6.522  0.2434  0.2495  0.0632
  570MOL0     C76876   1.165   9.494   6.561  0.3055  0.4895 -0.7863
  570MOL0     C76877   1.214   9.567   6.440  0.5526 -1.4359  0.3319
  570MOL0     C76878   1.289   9.483   6.329 -0.2194  0.6867 -0.6605
  570MOL0     C76879   1.390   9.394   6.391  1.2237 -0.1351 -0.1635
  570MOL0     C76880   1.464   9.329   6.461  0.0687 -0.7293  1.0690
  570MOL0     C76881   0.950   9.301   6.858 -0.4278  0.7181  0.6531
  570MOL0     C76882   0.849   9.330   6.943 -0.1584 -0.4069 -0.0280
  570MOL0     H76883   0.634   9.686   7.272  2.2298 -1.7596 -2.4748
  570MOL0     H76884   0.482   9.748   7.397 -3.6746  0.3947 -0.3727
  570MOL0     H76885   0.343   9.768   7.582 -0.4222  1.3170  0.1646
  570MOL0     H76886   0.198   9.816   7.474 -2.8461  0.0489  0.3094
  570MOL0     H76887   0.144   9.625   7.702 -0.6093 -1.4776 -1.4777
  570MOL0     H76888   0.150   9.802   7.727  1.6712  0.5567 -0.5266
  570MOL0     H76889  -0.015   9.823   7.540 -0.7294  0.2323  0.4442
  570MOL0     H76890  -0.014   9.646   7.533  1.5982  1.2531 -2.0538
  570MOL0     H76891  -0.097   9.631   7.776  1.6523 -0.5692 -0.6245
  570MOL0     H76892  -0.106   9.810   7.777 -1.9581  0.1417  0.1912
  570MOL0     H76893  -0.255   9.757   7.546 -2.9974 -2.9648 -1.3514
  570MOL0     H76894  -0.271   9.613   7.618 -1.2993 -0.3064  0.2588
  570MOL0     H76895  -0.374   9.883   7.711  1.4302 -0.3979 -1.5482
  570MOL0     H76896  -0.452   9.740   7.656 -1.0978 -0.5966  0.6357
  570MOL0     H76897  -0.402   9.609   7.857 -1.1532 -0.3061  0.4504
  570MOL0     H76898  -0.325   9.747   7.934  0.2968  2.3146 -0.9785
  570MOL0     H76899  -0.575   9.711   7.994 -1.8720 -0.2340 -0.7954
  570MOL0     H76900  -0.604   9.719   7.823  0.3075 -1.5881  0.9001
  570MOL0     H76901  -0.583   9.905   8.148  2.0338 -2.5721 -1.0789
  570MOL0     H76902  -0.597  10.131   8.226  0.3020  2.2011  1.6240
  570MOL0     H76903  -0.548  10.265   8.117 -1.0074  0.8959  2.5011
  570MOL0     H76904  -0.814  10.139   8.160  0.8440 -0.0714 -0.6838
  570MOL0     H76905  -0.790  10.262   8.020 -3.1777  1.6625  0.6022
  570MOL0     H76906  -0.895  10.372   8.231 -0.0304  0.3615  2.0934
  570MOL0     H76907  -0.724  10.425   8.206  0.9210 -0.5621  1.4490
  570MOL0     H76908  -0.816  10.213   8.404  0.6015 -0.4259 -1.4785
  570MOL0     H76909  -0.804  10.393   8.427  0.7491 -0.4368  0.6753
  570MOL0     H76910  -0.384  10.232   8.341  0.2527  0.1941  1.6576
  570MOL0     H76911  -0.089  10.413   8.318 -0.2600 -1.1683  1.9836
  570MOL0     H76912  -0.167  10.268   8.291 -0.3758  0.4126  2.4429
  570MOL0     H76913  -0.180  10.390   8.157 -3.3372  1.3312  0.8885
  570MOL0     H76914   0.114  10.635   8.224  0.1623  1.8393  1.8127
  570MOL0     H76915   0.291  10.785   8.117 -1.3568 -1.3373 -2.3521
  570MOL0     H76916   0.125  11.085   7.835 -0.7683  2.2791  0.2713
  570MOL0     H76917   0.137  11.191   7.964 -3.0712 -1.2462 -1.3450
  570MOL0     H76918   0.262  11.268   7.755 -3.2848  0.0308  1.9532
  570MOL0     H76919   0.387  11.238   7.879 -1.7243  0.8020  2.5965
  570MOL0     H76920   0.307  11.032   7.657 -1.4514 -1.3899  2.2744
  570MOL0     H76921   0.407  11.008   7.796  0.0943 -0.0851 -1.5230
  570MOL0     H76922   0.457  11.214   7.585  1.6044 -1.9738 -2.0341
  570MOL0     H76923   0.574  11.177   7.711  0.9719 -1.2547 -0.2710
  570MOL0     H76924   0.461  10.981   7.510  1.8516 -2.7104 -1.0461
  570MOL0     H76925   0.597  10.941   7.617  0.3298  0.1497 -1.0248
  570MOL0     H76926   0.596  11.120   7.375 -0.3926  0.2742  1.1709
  570MOL0     H76927   0.731  11.139   7.488 -1.2986 -0.6802  1.9346
  570MOL0     H76928   0.659  10.867   7.361  4.3877 -2.1779 -1.0540
  570MOL0     H76929   0.776  10.901   7.476  0.8543  0.4247 -0.6610
  570MOL0     H76930   0.907  11.056   7.342 -0.4680 -0.8266  2.8975
  570MOL0     H76931   0.782  11.039   7.210 -2.8214 -0.7031  1.7102
  570MOL0     H76932  -0.040  11.024   7.971 -1.7198 -0.0002  2.7127
  570MOL0     H76933  -0.194  10.853   8.058 -0.4435  1.1935 -0.7672
  570MOL0     H76934  -0.489  10.710   8.402  1.9794  0.8102 -0.8613
  570MOL0     H76935  -0.659  10.559   8.414  0.5260  1.3235 -1.9090
  570MOL0     H76936   0.255   9.381   7.352 -0.1150  0.5732  1.3969
  570MOL0     H76937   0.420   9.305   7.176  1.5639  0.3946 -2.0941
  570MOL0     H76938   0.646   9.512   6.726 -0.4032 -0.9512 -0.8439
  570MOL0     H76939   0.817   9.455   6.574  0.1275  3.1812  0.4980
  570MOL0     H76940   1.129   9.308   6.457 -1.9408 -0.2960 -1.3949
  570MOL0     H76941   0.980   9.388   6.464 -0.5624 -3.4917  0.2433
  570MOL0     H76942   1.247   9.453   6.621  1.2813  0.2300 -2.2390
  570MOL0     H76943   1.100   9.566   6.611 -3.2700 -1.3512 -2.3868
  570MOL0     H76944   1.283   9.647   6.469 -0.0414  0.1859 -2.3720
  570MOL0     H76945   1.123   9.601   6.389 -0.0761 -2.9937  0.3508
  570MOL0     H76946   1.339   9.552   6.261 -1.2814  2.1872  0.0227
  570MOL0     H76947   1.234   9.433   6.249 -0.3537  0.5382 -0.4765
  570MOL0     H76948   1.517   9.252   6.513 -2.0679 -3.2125 -0.2023
  570MOL0     H76949   1.035   9.236   6.878  0.5504  1.7915  0.0556
  570MOL0     H76950   0.855   9.296   7.046 -0.2335 -0.0464  0.0954
  571MOL0     O76951   8.354   8.597   5.022 -0.8793 -0.7323 -0.2995
  571MOL0     C76952   8.288   8.557   4.930  0.3318  0.2923 -0.2390
  571MOL0     O76953   8.141   8.563   4.922 -0.8489  0.2574 -0.1671
  571MOL0     C76954   8.075   8.611   5.033  0.6383 -0.6738 -0.0371
  571MOL0     C76955   7.967   8.533   5.080  0.3389  0.9823  0.0331
  571MOL0     C76956   7.877   8.585   5.180  0.5733  0.2984  0.5418
  571MOL0     C76957   7.907   8.703   5.249 -0.7296  0.4857  0.0156
  571MOL0     O76958   7.822   8.759   5.344  0.7959 -0.0340  0.4157
  571MOL0     C76959   7.744   8.664   5.427 -0.0815  0.2188  0.7961
  571MOL0     C76960   7.649   8.740   5.510 -0.2693  0.4647 -0.3042
  571MOL0     C76961   7.570   8.848   5.431  0.3469  0.3595 -0.0493
  571MOL0     C76962   7.449   8.902   5.504  0.8668 -0.4619  0.6741
  571MOL0     C76963   7.470   8.990   5.625 -0.1802 -0.4980 -0.8749
  571MOL0     C76964   7.327   9.037   5.684 -1.3768  0.0069 -0.8003
  571MOL0     C76965   7.361   9.113   5.819 -0.3290  0.8022 -0.6063
  571MOL0     C76966   7.449   9.230   5.808 -0.9830 -1.6810 -0.1824
  571MOL0     N76967   7.376   9.360   5.794  0.0726  0.1070  0.9567
  571MOL0     C76968   7.251   9.393   5.846 -0.0783 -0.0543 -0.3318
  571MOL0     C76969   7.253   9.526   5.855  0.2197 -0.4084  0.2233
  571MOL0     C76970   7.149   9.614   5.905  0.1247 -0.4672  0.3517
  571MOL0     C76971   7.037   9.649   5.796 -0.2996  0.4832 -0.6022
  571MOL0     C76972   6.954   9.779   5.828 -0.4802  0.0960  0.1792
  571MOL0     C76973   6.872   9.772   5.952  0.2095 -0.4485 -0.4286
  571MOL0     O76974   6.804   9.898   5.958  0.1877  0.2325 -0.1020
  571MOL0     C76975   6.709   9.920   6.056  0.4031 -0.1035 -0.1156
  571MOL0     C76976   6.738   9.984   6.173  0.1481 -0.0822  0.4512
  571MOL0     C76977   6.635  10.005   6.277  0.6713  0.0234 -0.7494
  571MOL0     C76978   6.683  10.096   6.382  0.0236 -0.5003  0.3938
  571MOL0     C76979   6.505   9.965   6.248  0.3070  0.1251 -0.1393
  571MOL0     C76980   6.397   9.968   6.343  0.8874  0.5267  0.4534
  571MOL0     O76981   6.300   9.871   6.333  0.2588 -0.1513 -0.0739
  571MOL0     C76982   6.177   9.871   6.397  0.6521  0.4356 -0.0596
  571MOL0     C76983   6.072   9.798   6.346 -0.2639  0.8566 -0.2188
  571MOL0     C76984   5.947   9.789   6.408  0.0897 -0.7549 -0.1732
  571MOL0     C76985   5.918   9.840   6.526  0.0268 -0.3611  0.4363
  571MOL0     O76986   5.787   9.823   6.565 -0.5316  0.4480 -0.0848
  571MOL0     C76987   5.749   9.878   6.687 -0.1851  0.1066  0.3316
  571MOL0     C76988   5.611   9.831   6.743  0.0067  0.5854 -0.1313
  571MOL0     C76989   5.585   9.905   6.869 -0.4223 -0.5468 -0.1776
  571MOL0     C76990   5.433   9.926   6.883  0.1531 -0.2921 -0.4167
  571MOL0     C76991   5.411  10.017   7.008 -0.0483 -0.1582  0.7056
  571MOL0     C76992   5.280  10.003   7.071  0.7518  0.7360  0.0258
  571MOL0     C76993   5.168  10.035   6.981  0.4439  0.3924  0.7821
  571MOL0     C76994   5.043   9.995   7.060 -1.0759 -0.1221 -0.6847
  571MOL0    Cl76995   4.900  10.021   6.961  0.4197  0.0719 -0.2349
  571MOL0     C76996   6.021   9.919   6.580  0.2859 -0.7500  0.5333
  571MOL0     C76997   6.152   9.928   6.521 -0.0346 -0.1827 -0.0838
  571MOL0     O76998   6.394  10.064   6.424 -0.1247  0.5682 -0.6090
  571MOL0     C76999   6.478   9.903   6.121  0.2271  0.2289  0.6532
  571MOL0     C77000   6.585   9.871   6.031  0.8753  0.4211 -0.7004
  571MOL0     N77001   7.361   9.577   5.800  1.0010 -0.2052  1.1831
  571MOL0     N77002   7.435   9.480   5.767  0.4636 -0.1524  0.1440
  571MOL0     C77003   8.017   8.780   5.197 -0.4679  0.4848  0.0050
  571MOL0     C77004   8.100   8.727   5.100 -0.7171 -0.0468  0.8359
  571MOL0     C77005   8.357   8.489   4.814 -1.0213 -0.8522 -0.2627
  571MOL0     C77006   8.498   8.487   4.812  0.3801 -0.5195  0.6636
  571MOL0     C77007   8.557   8.420   4.706  0.0155  0.4640 -0.1216
  571MOL0     C77008   8.483   8.351   4.600 -0.4468 -0.2863 -0.2593
  571MOL0     O77009   8.560   8.291   4.505  0.6912  0.0557 -0.3147
  571MOL0     C77010   8.500   8.200   4.411 -0.3293  0.3984 -0.4825
  571MOL0     C77011   8.606   8.101   4.369  1.0675  0.2241 -0.9827
  571MOL0     C77012   8.659   8.018   4.487 -1.3791 -0.2725  0.8863
  571MOL0     C77013   8.779   7.926   4.448 -0.0752 -1.6580  0.5214
  571MOL0     C77014   8.754   7.831   4.340 -0.0708  0.1556 -0.1641
  571MOL0     C77015   8.752   7.745   4.252  0.8587 -1.3327  1.0887
  571MOL0     C77016   8.351   8.358   4.612  0.9838  0.3387  0.2212
  571MOL0     C77017   8.285   8.429   4.709  0.2196 -0.5409 -0.0856
  571MOL0     H77018   7.931   8.454   5.015 -1.6770  0.1402  2.0594
  571MOL0     H77019   7.794   8.517   5.196  0.0611  1.1495  1.6162
  571MOL0     H77020   7.692   8.587   5.369  0.4002 -0.3699  1.1378
  571MOL0     H77021   7.802   8.599   5.492 -1.5205 -1.1392  0.7675
  571MOL0     H77022   7.576   8.667   5.546 -0.7567  1.7104  1.3629
  571MOL0     H77023   7.697   8.790   5.594  1.2292  0.2351 -0.9984
  571MOL0     H77024   7.645   8.926   5.412  0.7914 -0.0549 -0.0001
  571MOL0     H77025   7.529   8.805   5.339 -0.0620 -2.2857  1.2949
  571MOL0     H77026   7.412   8.972   5.429  3.1429 -1.8390 -1.9210
  571MOL0     H77027   7.374   8.823   5.514  0.1988  0.1359  0.4615
  571MOL0     H77028   7.541   8.939   5.692 -0.6508  2.0476  1.7736
  571MOL0     H77029   7.515   9.080   5.584 -1.8455 -0.0925 -1.8989
  571MOL0     H77030   7.273   9.105   5.618 -0.3316  1.1436 -0.5182
  571MOL0     H77031   7.267   8.947   5.698 -1.8030  0.5062  0.8264
  571MOL0     H77032   7.271   9.147   5.871 -1.1404  0.1046 -1.5168
  571MOL0     H77033   7.407   9.042   5.889  2.1782  3.2976  0.4817
  571MOL0     H77034   7.528   9.218   5.734 -1.0093 -0.4044 -0.4337
  571MOL0     H77035   7.517   9.234   5.894  1.9097  3.1845 -2.2793
  571MOL0     H77036   7.182   9.325   5.894 -1.0790  0.6636 -0.7193
  571MOL0     H77037   7.106   9.557   5.988  0.8541  0.4762  1.4063
  571MOL0     H77038   7.196   9.705   5.943  0.0556 -1.0838  1.9830
  571MOL0     H77039   6.965   9.566   5.785 -1.9968  2.1031 -2.4877
  571MOL0     H77040   7.080   9.655   5.695  3.6701 -2.3130  0.6884
  571MOL0     H77041   6.882   9.801   5.748  0.4881  1.9781 -0.2533
  571MOL0     H77042   7.017   9.868   5.838 -0.2272 -0.0385 -0.2230
  571MOL0     H77043   6.943   9.759   6.033 -0.3708  0.2755  0.2120
  571MOL0     H77044   6.800   9.689   5.950 -4.2412  3.0215 -2.0718
  571MOL0     H77045   6.843  10.006   6.192  0.6017  0.9402 -2.6810
  571MOL0     H77046   6.603  10.166   6.405 -0.2981 -0.9647  0.7044
  571MOL0     H77047   6.713  10.047   6.475  1.4894 -0.4404 -0.0198
  571MOL0     H77048   6.771  10.140   6.334 -0.2868 -0.7781 -0.4403
  571MOL0     H77049   6.081   9.752   6.248  1.2122 -1.6204  0.9972
  571MOL0     H77050   5.869   9.752   6.342 -1.7735  2.5162 -0.0233
  571MOL0     H77051   5.820   9.856   6.767 -1.2756 -0.1911  1.2501
  571MOL0     H77052   5.747   9.985   6.666  1.2993  0.4641  1.7866
  571MOL0     H77053   5.542   9.855   6.661 -0.5870 -0.6661 -0.0280
  571MOL0     H77054   5.622   9.725   6.764  2.9596  0.8210 -0.1267
  571MOL0     H77055   5.626  10.006   6.865  1.3096 -1.2079 -0.0324
  571MOL0     H77056   5.622   9.852   6.958 -1.1122 -2.3309 -0.9140
  571MOL0     H77057   5.396   9.980   6.795 -2.7740 -1.8894 -0.2939
  571MOL0     H77058   5.385   9.828   6.888 -0.6278  0.0885 -0.3385
  571MOL0     H77059   5.418  10.121   6.974 -2.7047 -0.3352 -0.6945
  571MOL0     H77060   5.487   9.989   7.080  0.0131 -1.9224  0.0030
  571MOL0     H77061   5.261   9.905   7.115 -2.1710  1.4513  0.5301
  571MOL0     H77062   5.291  10.078   7.150  0.4038  4.3859 -3.0818
  571MOL0     H77063   5.162   9.986   6.883 -0.1312  0.7002  0.6590
  571MOL0     H77064   5.169  10.143   6.968 -2.1059  0.8070  3.0100
  571MOL0     H77065   5.042  10.066   7.143  1.6196 -0.4543 -0.2840
  571MOL0     H77066   5.026   9.892   7.093  1.5260 -0.2027  0.6307
  571MOL0     H77067   6.007   9.963   6.679 -0.7411 -0.8043  0.4211
  571MOL0     H77068   6.238   9.978   6.565  2.1816 -2.4576 -1.5288
  571MOL0     H77069   6.373   9.887   6.100 -0.2516  2.5822  0.9243
  571MOL0     H77070   6.562   9.813   5.942 -0.1867 -0.2579 -0.0036
  571MOL0     H77071   8.031   8.876   5.246 -2.3776  1.5381 -1.3855
  571MOL0     H77072   8.168   8.805   5.069 -1.1883  0.8413  1.9571
  571MOL0     H77073   8.560   8.526   4.893  1.1853 -3.5233  1.6337
  571MOL0     H77074   8.665   8.430   4.699  0.0343  2.2205  1.5630
  571MOL0     H77075   8.423   8.135   4.453  1.2645 -0.3900  1.4230
  571MOL0     H77076   8.455   8.248   4.324  0.3302 -0.2682 -1.2041
  571MOL0     H77077   8.688   8.154   4.321  1.3319  0.9361  0.2115
  571MOL0     H77078   8.571   8.026   4.297  2.7275 -1.6520  0.0444
  571MOL0     H77079   8.582   7.944   4.508 -0.6713 -1.2280  0.1978
  571MOL0     H77080   8.692   8.081   4.569  1.4059 -0.0657 -0.2860
  571MOL0     H77081   8.811   7.873   4.538 -0.6387  1.9460  3.0809
  571MOL0     H77082   8.856   7.988   4.399 -2.2456 -1.7672 -3.4152
  571MOL0     H77083   8.744   7.675   4.172 -1.6003 -3.5250  3.0559
  571MOL0     H77084   8.283   8.312   4.540  1.7260 -2.0485  0.9382
  571MOL0     H77085   8.177   8.438   4.697  0.3119  0.8515 -0.0654
  572MOL0     O77086  11.023   4.370   3.541  0.2900  0.1851  0.5743
  572MOL0     C77087  10.946   4.320   3.623 -0.0582 -0.0669  0.6396
  572MOL0     O77088  10.811   4.346   3.629 -0.5172  0.3095  0.5109
  572MOL0     C77089  10.756   4.408   3.519  0.5314 -0.2790  1.3541
  572MOL0     C77090  10.791   4.365   3.385  0.4010 -0.3953 -0.6098
  572MOL0     C77091  10.740   4.424   3.274 -0.6012  0.3293 -0.5443
  572MOL0     C77092  10.639   4.521   3.283 -0.0563 -0.0751 -0.6975
  572MOL0     O77093  10.596   4.574   3.171 -0.1263  0.3649  0.2610
  572MOL0     C77094  10.594   4.720   3.171  0.2495  0.2127 -0.1789
  572MOL0     C77095  10.672   4.769   3.056  0.1005  0.8318 -0.4533
  572MOL0     C77096  10.806   4.686   3.038 -0.1584  0.4832  0.8483
  572MOL0     C77097  10.900   4.676   3.160  0.4373  0.4694 -1.0469
  572MOL0     C77098  11.021   4.582   3.142 -0.0544  0.6283 -0.5565
  572MOL0     C77099  11.110   4.575   3.263  0.4020 -0.2579 -0.2569
  572MOL0     C77100  11.209   4.463   3.251 -0.4271 -0.4431  0.5422
  572MOL0     C77101  11.326   4.465   3.359  0.3806 -0.4691 -0.6885
  572MOL0     N77102  11.419   4.356   3.331  0.6138 -0.0093  0.0154
  572MOL0     C77103  11.542   4.359   3.269 -0.4096  0.5755  0.1654
  572MOL0     C77104  11.608   4.257   3.321 -0.4886  1.2325 -0.7511
  572MOL0     C77105  11.749   4.224   3.270  0.4373  0.0511  0.2010
  572MOL0     C77106  11.741   4.100   3.182 -0.7900  0.0790 -0.0530
  572MOL0     C77107  11.629   4.108   3.069  0.1463 -0.0253 -0.4890
  572MOL0     C77108  11.603   3.974   3.006  0.0675 -0.3453  0.3801
  572MOL0     O77109  11.530   3.899   3.100 -0.2009  0.3559 -0.3229
  572MOL0     C77110  11.410   3.944   3.137  0.5644  0.4015  0.0705
  572MOL0     C77111  11.380   3.942   3.272 -0.3232  1.4041 -0.1834
  572MOL0     C77112  11.257   3.986   3.323  0.8121  1.2366 -0.0016
  572MOL0     C77113  11.235   3.984   3.465  0.1717 -0.0752 -0.1986
  572MOL0     C77114  11.153   4.026   3.237  0.4786  0.0839  0.1685
  572MOL0     C77115  11.025   4.081   3.275  0.3314 -0.0039  0.0225
  572MOL0     O77116  10.971   4.032   3.385 -0.5381 -0.6854  0.8429
  572MOL0     C77117  10.839   4.018   3.393 -1.0720  0.5283 -0.7636
  572MOL0     C77118  10.784   3.995   3.517 -0.3949  0.3723 -0.5224
  572MOL0     C77119  10.649   3.956   3.538  0.5407 -0.3171 -0.3798
  572MOL0     C77120  10.562   3.940   3.421 -1.0182 -0.7477 -0.2719
  572MOL0     O77121  10.429   3.890   3.428 -0.1055  0.4440 -0.0142
  572MOL0     C77122  10.340   3.969   3.504  0.3440  0.3324  1.0759
  572MOL0     C77123  10.208   3.888   3.518 -0.4146 -0.5390 -0.7350
  572MOL0     C77124  10.157   3.817   3.394 -0.4114  0.5664 -0.4726
  572MOL0     C77125  10.116   3.920   3.287  0.4544 -0.7779  0.0687
  572MOL0     C77126  10.052   3.847   3.168 -0.6453 -1.1313 -0.0494
  572MOL0     C77127   9.952   3.935   3.105  0.0063  0.3464  0.2015
  572MOL0     C77128  10.013   4.078   3.074 -0.2280  0.3562  0.5701
  572MOL0     C77129   9.926   4.158   2.984  0.0025  0.2574 -0.8061
  572MOL0    Cl77130   9.747   4.175   3.035 -0.0766  0.5119  0.3240
  572MOL0     C77131  10.620   3.943   3.298  0.2383 -0.8373  0.2421
  572MOL0     C77132  10.754   3.978   3.286 -0.1439  0.1268 -0.2842
  572MOL0     O77133  10.977   4.172   3.208  1.2276  0.6125  0.1931
  572MOL0     C77134  11.175   4.019   3.097 -0.1208  0.7510 -0.4590
  572MOL0     C77135  11.309   3.984   3.053 -0.1743  0.2108 -0.2086
  572MOL0     N77136  11.531   4.185   3.406 -0.3714  0.3057 -1.2367
  572MOL0     N77137  11.423   4.245   3.406 -0.0058 -0.5008  0.1132
  572MOL0     C77138  10.586   4.551   3.410  0.1401 -0.3314 -0.1597
  572MOL0     C77139  10.645   4.491   3.525 -0.2606 -0.4328  0.3787
  572MOL0     C77140  11.009   4.233   3.730 -0.8525 -0.5076  0.1681
  572MOL0     C77141  10.922   4.164   3.817 -0.2457  0.3464 -0.0984
  572MOL0     C77142  10.967   4.094   3.929  0.1029  1.2339  0.3283
  572MOL0     C77143  11.096   4.094   3.959 -0.3883  0.7143 -0.9809
  572MOL0     O77144  11.140   4.010   4.056 -0.1724  0.7133  0.3299
  572MOL0     C77145  11.249   4.048   4.139  0.1874 -0.2343 -0.6318
  572MOL0     C77146  11.376   3.971   4.125 -0.5107 -1.0300 -0.5571
  572MOL0     C77147  11.351   3.819   4.148 -0.3187  0.2316 -0.3337
  572MOL0     C77148  11.482   3.746   4.184  0.3266 -0.2089  0.1223
  572MOL0     C77149  11.529   3.765   4.325  0.1674  0.1927  0.0351
  572MOL0     C77150  11.562   3.805   4.434 -0.1666 -0.1452  0.0466
  572MOL0     C77151  11.192   4.157   3.880 -0.7740 -0.5329  0.7481
  572MOL0     C77152  11.145   4.223   3.768  0.2361  0.2631  0.7557
  572MOL0     H77153  10.856   4.280   3.367 -2.6058 -2.7250 -1.3511
  572MOL0     H77154  10.771   4.379   3.181  0.4176  0.9468 -0.5287
  572MOL0     H77155  10.485   4.734   3.166  0.0954  0.4667  2.5269
  572MOL0     H77156  10.627   4.775   3.260  0.5879  0.5151 -0.4856
  572MOL0     H77157  10.612   4.759   2.965  0.5675 -1.3078 -0.5854
  572MOL0     H77158  10.699   4.874   3.067  1.3073  0.4398  0.4898
  572MOL0     H77159  10.782   4.582   3.015 -2.5906  0.7837  1.7603
  572MOL0     H77160  10.861   4.721   2.949 -0.2818 -3.7235 -1.1237
  572MOL0     H77161  10.939   4.776   3.181 -0.7181  0.8808 -0.7987
  572MOL0     H77162  10.853   4.651   3.256  0.9536 -0.2190 -0.9614
  572MOL0     H77163  10.967   4.486   3.136 -0.5651  0.6794  2.0342
  572MOL0     H77164  11.078   4.606   3.052  1.4899  0.8453  0.4507
  572MOL0     H77165  11.169   4.667   3.262 -0.8210  0.5544  0.2701
  572MOL0     H77166  11.056   4.569   3.358 -1.6675 -0.8113 -1.3947
  572MOL0     H77167  11.161   4.364   3.250  3.5106 -2.6822  3.0639
  572MOL0     H77168  11.250   4.475   3.150 -4.3841  1.0655 -1.0831
  572MOL0     H77169  11.288   4.462   3.462  1.7575 -0.0714 -0.1471
  572MOL0     H77170  11.385   4.557   3.361  1.7604 -1.2652  2.5200
  572MOL0     H77171  11.571   4.428   3.191 -1.5287  0.3262 -0.4999
  572MOL0     H77172  11.788   4.303   3.206  3.0215 -0.3310  1.1997
  572MOL0     H77173  11.812   4.223   3.359  0.7177  3.3552  0.1537
  572MOL0     H77174  11.705   4.025   3.253 -0.2391 -1.2556 -1.1454
  572MOL0     H77175  11.838   4.069   3.142 -0.6179  1.9804 -1.2703
  572MOL0     H77176  11.648   4.181   2.990  1.9267 -1.7655 -1.7745
  572MOL0     H77177  11.540   4.157   3.110 -0.0889 -1.5468  0.9065
  572MOL0     H77178  11.696   3.919   2.986 -1.4761 -1.6259 -4.8611
  572MOL0     H77179  11.542   3.982   2.916  2.3969  0.6683 -1.2366
  572MOL0     H77180  11.456   3.894   3.332 -0.2955  0.1045 -1.2059
  572MOL0     H77181  11.326   4.007   3.522 -0.5696  0.3628  0.8296
  572MOL0     H77182  11.173   4.070   3.492  0.5852  0.3298 -0.5340
  572MOL0     H77183  11.197   3.888   3.502 -0.1042  0.0756 -0.0869
  572MOL0     H77184  10.857   4.010   3.596  0.2571 -0.6317 -0.9264
  572MOL0     H77185  10.599   3.943   3.633  0.0413  2.2894 -0.2188
  572MOL0     H77186  10.387   4.005   3.596  0.6111  1.9464  0.3369
  572MOL0     H77187  10.317   4.061   3.449  1.0049 -0.4137 -0.5126
  572MOL0     H77188  10.238   3.813   3.592 -0.1447 -1.5313 -1.8010
  572MOL0     H77189  10.121   3.940   3.560  0.0003 -0.2731 -0.2064
  572MOL0     H77190  10.069   3.754   3.409  0.0309 -0.9834 -3.5513
  572MOL0     H77191  10.226   3.741   3.356  1.5143  0.3897  3.0398
  572MOL0     H77192  10.044   3.986   3.335  0.7074 -0.6418  0.2648
  572MOL0     H77193  10.205   3.980   3.267  0.9670 -1.0129  1.5160
  572MOL0     H77194  10.007   3.756   3.209  0.9543 -1.7426  0.4256
  572MOL0     H77195  10.118   3.807   3.090 -3.1064 -3.3308 -1.1438
  572MOL0     H77196   9.915   3.891   3.012  1.7713  1.3204 -1.0413
  572MOL0     H77197   9.870   3.961   3.172 -0.1697  3.1819 -0.9633
  572MOL0     H77198  10.110   4.071   3.024  1.1839  0.6451  3.1015
  572MOL0     H77199  10.038   4.132   3.165  1.3845  0.0486  0.3375
  572MOL0     H77200   9.945   4.124   2.882 -0.5790  0.4091 -0.9658
  572MOL0     H77201   9.957   4.263   2.997 -2.4464  0.7664  2.1776
  572MOL0     H77202  10.564   3.900   3.216  0.9094 -4.1612  1.3479
  572MOL0     H77203  10.792   3.985   3.185  0.8313  1.4518  0.1406
  572MOL0     H77204  11.105   4.049   3.020 -2.1334 -0.2051  0.9029
  572MOL0     H77205  11.332   3.981   2.946 -0.0359  5.6655 -0.6134
  572MOL0     H77206  10.507   4.623   3.424  0.7620  0.0193  1.8521
  572MOL0     H77207  10.605   4.517   3.623 -1.2512 -0.1207 -0.1020
  572MOL0     H77208  10.815   4.174   3.801  0.3024  2.2973 -3.9531
  572MOL0     H77209  10.890   4.048   3.989 -1.3052  2.2210 -0.6583
  572MOL0     H77210  11.269   4.156   4.133 -1.5047  0.0772 -1.2286
  572MOL0     H77211  11.209   4.031   4.240  0.6716 -3.4359 -0.8687
  572MOL0     H77212  11.447   4.012   4.197 -2.0795  1.9380 -0.5545
  572MOL0     H77213  11.435   3.995   4.036  1.3923 -1.0270  0.6399
  572MOL0     H77214  11.319   3.793   4.046  1.2425 -1.7624 -0.3698
  572MOL0     H77215  11.271   3.790   4.217  0.4691 -2.7081 -0.5274
  572MOL0     H77216  11.563   3.768   4.114 -0.9615 -2.4009 -2.2017
  572MOL0     H77217  11.461   3.639   4.173  0.1189 -0.2044  0.4649
  572MOL0     H77218  11.590   3.845   4.529  0.5909 -0.0251 -0.2173
  572MOL0     H77219  11.299   4.156   3.900 -0.3255  0.7812 -1.2715
  572MOL0     H77220  11.221   4.271   3.707 -0.8329  0.0756 -0.7648
  573MOL0     O77221   1.796   3.461   7.274 -0.1947 -0.0854 -0.0394
  573MOL0     C77222   1.737   3.538   7.195  1.0148  0.1684  0.3759
  573MOL0     O77223   1.792   3.654   7.137 -0.0228  0.1207  0.5248
  573MOL0     C77224   1.926   3.683   7.158  0.0799 -0.5267  0.2809
  573MOL0     C77225   2.007   3.674   7.271  0.0635 -0.3349  0.3054
  573MOL0     C77226   2.145   3.716   7.271 -0.0547  0.7100 -0.8123
  573MOL0     C77227   2.201   3.774   7.157 -0.7286 -0.7611 -0.4912
  573MOL0     O77228   2.328   3.824   7.149  0.2186  0.4287 -0.6112
  573MOL0     C77229   2.397   3.868   7.265  0.6682  0.7391 -0.1848
  573MOL0     C77230   2.513   3.980   7.239 -0.4824  0.7216 -0.4863
  573MOL0     C77231   2.454   4.104   7.168 -0.0665  0.4383 -0.0233
  573MOL0     C77232   2.558   4.208   7.140 -0.8426 -0.1460  0.0694
  573MOL0     C77233   2.528   4.299   7.021 -0.1262 -0.2517 -0.3449
  573MOL0     C77234   2.648   4.353   6.957 -0.2748  1.0246 -0.3736
  573MOL0     C77235   2.601   4.442   6.832 -0.3708  0.4997  0.6327
  573MOL0     C77236   2.716   4.508   6.755  0.0067  0.5933 -0.1097
  573MOL0     N77237   2.794   4.417   6.667 -0.9251 -0.0702 -0.9660
  573MOL0     C77238   2.929   4.443   6.630 -0.7827 -0.0775 -0.8277
  573MOL0     C77239   2.951   4.364   6.522 -0.3150  0.7067  0.2415
  573MOL0     C77240   3.074   4.357   6.434  0.5958  0.1920 -0.3846
  573MOL0     C77241   3.131   4.493   6.400  0.2860  0.0007 -0.0054
  573MOL0     C77242   3.048   4.588   6.314 -0.2590 -0.6231  0.0027
  573MOL0     C77243   2.909   4.645   6.364  0.0875  0.2287  0.5873
  573MOL0     O77244   2.914   4.696   6.500 -0.4782 -0.7700  0.2548
  573MOL0     C77245   2.999   4.806   6.520 -0.3769 -0.4700  0.1496
  573MOL0     C77246   3.066   4.884   6.428 -0.1392  0.3191  0.1129
  573MOL0     C77247   3.142   4.995   6.467 -0.2441  0.2516  0.0626
  573MOL0     C77248   3.208   5.062   6.344  0.0779 -0.4302 -0.8333
  573MOL0     C77249   3.153   5.035   6.602 -0.1758 -0.2101 -0.3240
  573MOL0     C77250   3.233   5.156   6.640 -0.1315 -0.4512 -0.1366
  573MOL0     O77251   3.252   5.261   6.553  0.1850 -0.2944 -0.1191
  573MOL0     C77252   3.324   5.357   6.593  0.4270 -0.3214 -0.1660
  573MOL0     C77253   3.257   5.472   6.623 -0.8489  0.0625 -0.2561
  573MOL0     C77254   3.327   5.592   6.640 -0.0831 -1.3244 -0.1070
  573MOL0     C77255   3.472   5.597   6.645  0.1832  0.2510  0.2458
  573MOL0     O77256   3.543   5.711   6.675 -0.5876 -0.3952 -0.2465
  573MOL0     C77257   3.627   5.704   6.786 -0.3481  0.2086  0.0968
  573MOL0     C77258   3.747   5.766   6.725 -0.4489 -0.4027  0.0256
  573MOL0     C77259   3.866   5.766   6.824  0.5132 -0.0710 -0.2223
  573MOL0     C77260   3.956   5.635   6.819 -0.1216  0.4379 -0.0999
  573MOL0     C77261   4.073   5.644   6.914 -0.2843  0.7462 -0.1963
  573MOL0     C77262   4.173   5.755   6.873  0.4539  0.4830 -0.3174
  573MOL0     C77263   4.236   5.722   6.734  0.4780 -0.1326 -0.2983
  573MOL0     C77264   4.196   5.820   6.617 -0.3806  0.0148 -0.5057
  573MOL0    Cl77265   4.276   5.741   6.469  0.0454 -0.1808  0.6663
  573MOL0     C77266   3.534   5.472   6.631 -0.3556  0.5628 -0.4104
  573MOL0     C77267   3.464   5.350   6.601  0.5006  0.2849  0.1079
  573MOL0     O77268   3.289   5.152   6.749  0.4531  0.3194  0.3264
  573MOL0     C77269   3.083   4.956   6.691 -0.3835 -0.4195 -0.8537
  573MOL0     C77270   3.007   4.855   6.653 -0.1502 -0.3716 -0.2882
  573MOL0     N77271   2.837   4.290   6.492  0.2301  0.1055  0.2834
  573MOL0     N77272   2.744   4.326   6.578 -0.0973 -1.6220  0.4118
  573MOL0     C77273   2.122   3.781   7.044 -0.3053 -0.2765  0.2239
  573MOL0     C77274   1.981   3.741   7.045 -0.6444  0.3092  0.3650
  573MOL0     C77275   1.595   3.493   7.161 -0.0005 -0.8442 -0.1321
  573MOL0     C77276   1.522   3.560   7.057  0.5814 -0.2997  0.0393
  573MOL0     C77277   1.400   3.512   7.018 -0.3031 -0.1598 -0.3372
  573MOL0     C77278   1.344   3.400   7.076 -0.1776  0.0874  0.0408
  573MOL0     O77279   1.224   3.361   7.031 -0.0024  0.3175 -0.5099
  573MOL0     C77280   1.164   3.239   7.080 -0.0538 -0.2907 -0.0101
  573MOL0     C77281   1.036   3.229   7.000 -0.5021  0.0660 -0.0768
  573MOL0     C77282   1.051   3.160   6.860 -0.1194  0.2142 -0.2517
  573MOL0     C77283   0.930   3.165   6.773 -0.4367  0.2618  0.0198
  573MOL0     C77284   0.857   3.040   6.774 -0.7832  0.3934 -1.0526
  573MOL0     C77285   0.793   2.939   6.797 -0.3197 -0.4081 -0.7579
  573MOL0     C77286   1.418   3.330   7.173  0.2920  0.1761 -0.3004
  573MOL0     C77287   1.534   3.384   7.227  0.0455 -0.2287  0.1047
  573MOL0     H77288   1.961   3.651   7.367  0.5536  5.4173  2.2816
  573MOL0     H77289   2.210   3.686   7.353  1.9784 -0.8553 -2.8338
  573MOL0     H77290   2.328   3.902   7.342  1.1855 -1.1652  1.1956
  573MOL0     H77291   2.443   3.779   7.309  0.0645  0.1311 -0.7699
  573MOL0     H77292   2.554   3.997   7.339 -0.6963 -1.0242 -0.0713
  573MOL0     H77293   2.594   3.932   7.183 -1.5258 -2.8625  0.7830
  573MOL0     H77294   2.414   4.063   7.075 -0.7476 -0.6058  0.7108
  573MOL0     H77295   2.376   4.149   7.231  0.2655  0.5194  0.3365
  573MOL0     H77296   2.569   4.267   7.231 -1.8178 -1.0134  0.7679
  573MOL0     H77297   2.654   4.160   7.118 -1.6144 -0.9626 -1.6819
  573MOL0     H77298   2.464   4.236   6.958 -4.9505  0.8373  2.9653
  573MOL0     H77299   2.462   4.378   7.057 -0.9370 -0.6026 -1.0257
  573MOL0     H77300   2.709   4.416   7.023 -0.3392  0.6319  0.0669
  573MOL0     H77301   2.710   4.268   6.926 -1.3681  1.6925 -5.1396
  573MOL0     H77302   2.562   4.373   6.757  5.0798 -2.2850 -0.1205
  573MOL0     H77303   2.545   4.527   6.871  1.1968  1.5661  0.6460
  573MOL0     H77304   2.775   4.574   6.820 -1.5778  2.1470 -0.1668
  573MOL0     H77305   2.659   4.576   6.691 -1.2774 -1.8556 -1.7312
  573MOL0     H77306   3.004   4.509   6.674  0.9362 -1.7133 -1.1559
  573MOL0     H77307   3.147   4.300   6.493 -1.1242 -2.4207 -0.5819
  573MOL0     H77308   3.048   4.308   6.340 -1.0148  1.0022 -0.3929
  573MOL0     H77309   3.234   4.486   6.365  1.0591 -0.0696  2.1164
  573MOL0     H77310   3.140   4.544   6.496 -1.0510 -2.4576  1.5365
  573MOL0     H77311   3.051   4.547   6.212 -0.3115  0.8634 -0.6157
  573MOL0     H77312   3.117   4.670   6.293 -3.6086  2.5547  0.3149
  573MOL0     H77313   2.840   4.561   6.351 -0.5401  0.7183  0.7283
  573MOL0     H77314   2.889   4.727   6.295  1.2977  0.0620  0.0070
  573MOL0     H77315   3.040   4.864   6.324 -0.9573 -0.5134  0.4672
  573MOL0     H77316   3.143   5.148   6.330 -0.9634 -1.2380 -1.0996
  573MOL0     H77317   3.309   5.094   6.373 -0.7184  3.2257 -1.6589
  573MOL0     H77318   3.203   5.009   6.249 -0.6436 -0.3356 -0.8560
  573MOL0     H77319   3.150   5.481   6.606 -0.7649  1.5484 -0.1709
  573MOL0     H77320   3.269   5.683   6.651 -1.2146 -1.5205 -3.3451
  573MOL0     H77321   3.576   5.766   6.860  1.9833  2.1406  0.1916
  573MOL0     H77322   3.634   5.607   6.836 -5.1518  1.9579  5.2739
  573MOL0     H77323   3.779   5.719   6.632 -1.1466  1.2866 -1.1124
  573MOL0     H77324   3.711   5.866   6.698 -1.7537 -1.0441 -0.6773
  573MOL0     H77325   3.825   5.779   6.924 -0.7342  1.1383 -0.8567
  573MOL0     H77326   3.928   5.853   6.801 -1.4515  0.9995 -1.8820
  573MOL0     H77327   3.888   5.555   6.848 -0.3467  1.0924  1.2590
  573MOL0     H77328   3.992   5.609   6.719  1.2517 -0.4920  0.6072
  573MOL0     H77329   4.121   5.546   6.920 -0.2261  0.6412 -1.9820
  573MOL0     H77330   4.040   5.678   7.013 -0.5392 -2.2730  0.8576
  573MOL0     H77331   4.129   5.854   6.886  0.1001  0.0872  1.7923
  573MOL0     H77332   4.255   5.740   6.944  1.0247  1.8410 -0.6555
  573MOL0     H77333   4.231   5.616   6.706 -0.7099  0.7299 -3.9920
  573MOL0     H77334   4.341   5.752   6.746  0.0826  1.4059 -0.5043
  573MOL0     H77335   4.233   5.921   6.637 -0.8551  0.0630  0.1533
  573MOL0     H77336   4.087   5.826   6.621 -0.3400  3.3121  4.3619
  573MOL0     H77337   3.641   5.470   6.643 -0.5987 -0.5638  2.3321
  573MOL0     H77338   3.514   5.255   6.588 -1.4327 -0.7822  0.1663
  573MOL0     H77339   3.101   4.984   6.795 -1.6084  0.0504 -0.7530
  573MOL0     H77340   2.945   4.795   6.719 -0.1824 -1.5286 -1.3427
  573MOL0     H77341   2.166   3.828   6.957 -2.5746  2.5006  0.4444
  573MOL0     H77342   1.919   3.755   6.956 -0.9920 -1.0754  0.3756
  573MOL0     H77343   1.572   3.642   7.006  1.8690 -1.3834 -0.5308
  573MOL0     H77344   1.329   3.546   6.943  1.0096 -2.3909 -2.7926
  573MOL0     H77345   1.238   3.159   7.073  4.3445  3.1215  2.5166
  573MOL0     H77346   1.135   3.254   7.185  1.2280  1.4645  0.1256
  573MOL0     H77347   1.000   3.330   6.976  0.3609 -0.2742 -3.1359
  573MOL0     H77348   0.973   3.164   7.062 -1.6489 -0.2123 -1.4703
  573MOL0     H77349   1.075   3.056   6.885 -2.6373  0.3672  3.6740
  573MOL0     H77350   1.130   3.216   6.810  0.2647  1.4695  1.6689
  573MOL0     H77351   0.964   3.169   6.670 -0.1251  7.2645 -0.1059
  573MOL0     H77352   0.858   3.246   6.789 -1.2079  0.0627 -2.1105
  573MOL0     H77353   0.730   2.853   6.807 -1.1770  0.3264  0.4740
  573MOL0     H77354   1.393   3.234   7.218  2.3675 -1.4194 -2.3331
  573MOL0     H77355   1.582   3.331   7.308 -1.0711 -2.8611 -0.8626
  574MOL0     O77356   4.358   9.805   5.424 -0.2401  0.4919 -0.1191
  574MOL0     C77357   4.326   9.709   5.353  0.6944 -0.1536 -0.3185
  574MOL0     O77358   4.192   9.666   5.323 -0.2207  0.3898 -0.5041
  574MOL0     C77359   4.088   9.736   5.386 -0.5681 -0.0862 -0.2211
  574MOL0     C77360   4.032   9.839   5.312 -0.3755 -0.4986  0.8112
  574MOL0     C77361   3.934   9.918   5.364 -0.1594 -0.1859  0.0922
  574MOL0     C77362   3.900   9.917   5.499 -0.2541 -0.1946 -0.5046
  574MOL0     O77363   3.802   9.998   5.564 -0.1386 -0.1643  0.2895
  574MOL0     C77364   3.718  10.066   5.471  0.2027  0.7042 -0.3289
  574MOL0     C77365   3.588  10.092   5.552  0.2717  0.1024  0.6282
  574MOL0     C77366   3.478  10.119   5.451 -1.0686 -0.0309  0.6317
  574MOL0     C77367   3.349  10.131   5.524  0.0859  0.1072 -0.3849
  574MOL0     C77368   3.236  10.130   5.422  0.4204 -0.3349  1.0808
  574MOL0     C77369   3.095  10.105   5.482 -0.5208 -0.0422  0.8924
  574MOL0     C77370   3.076   9.973   5.541  0.3120 -0.1823  0.0201
  574MOL0     C77371   3.093   9.853   5.452 -0.4402  0.3895  0.1956
  574MOL0     N77372   2.987   9.838   5.353 -0.6892 -0.0930 -0.1253
  574MOL0     C77373   3.004   9.828   5.221  0.0942  0.3353 -0.6171
  574MOL0     C77374   2.879   9.796   5.171  0.2991 -0.2045  0.0733
  574MOL0     C77375   2.837   9.763   5.031 -0.8403 -0.4952  0.3644
  574MOL0     C77376   2.805   9.905   4.956  0.8331 -0.2021 -0.2068
  574MOL0     C77377   2.794   9.891   4.801 -1.1511  0.1919  0.1991
  574MOL0     C77378   2.663   9.844   4.750 -0.1560  0.6571  0.0315
  574MOL0     O77379   2.669   9.797   4.620 -0.0683  0.1583 -0.3778
  574MOL0     C77380   2.562   9.732   4.553  0.4446  0.6682  0.2582
  574MOL0     C77381   2.587   9.670   4.433 -0.3478  0.3231  0.6353
  574MOL0     C77382   2.484   9.619   4.352  0.3708  0.1134 -0.9894
  574MOL0     C77383   2.505   9.575   4.204  0.4697 -0.4260 -0.0014
  574MOL0     C77384   2.354   9.602   4.412  0.8900  0.7188 -0.2214
  574MOL0     C77385   2.249   9.524   4.340 -0.2424 -0.4771 -0.2722
  574MOL0     O77386   2.211   9.557   4.214  0.2916  0.9019  0.2613
  574MOL0     C77387   2.129   9.461   4.156 -0.3665  0.1696  1.1350
  574MOL0     C77388   1.995   9.498   4.144 -0.1718 -0.6352 -0.6766
  574MOL0     C77389   1.908   9.403   4.092  0.2797  1.2255 -0.0487
  574MOL0     C77390   1.959   9.284   4.026 -0.4480  1.2898 -0.3448
  574MOL0     O77391   1.876   9.199   3.960  0.5197 -0.3276  0.2688
  574MOL0     C77392   1.829   9.082   4.034 -0.4671  0.7303 -0.8010
  574MOL0     C77393   1.716   9.014   3.963 -0.2498 -0.1605 -1.7352
  574MOL0     C77394   1.587   9.097   3.987  0.2667  0.4929  0.0871
  574MOL0     C77395   1.509   9.059   4.112  0.5079 -0.0747 -0.4327
  574MOL0     C77396   1.401   9.160   4.137  0.6461 -0.8976 -1.0442
  574MOL0     C77397   1.305   9.124   4.251 -0.0454  0.0521  0.1082
  574MOL0     C77398   1.181   9.219   4.267 -0.1917  0.1746 -0.3761
  574MOL0     C77399   1.067   9.129   4.319  0.6068  0.5337 -0.1370
  574MOL0    Cl77400   0.908   9.214   4.325  0.1484 -0.2314  0.0136
  574MOL0     C77401   2.091   9.249   4.042  0.5399  0.0122  0.1728
  574MOL0     C77402   2.173   9.341   4.098 -0.0063 -0.8652 -0.1716
  574MOL0     O77403   2.199   9.430   4.408 -0.9648  0.5714  0.1795
  574MOL0     C77404   2.324   9.656   4.541 -0.9602 -0.0494  0.2332
  574MOL0     C77405   2.435   9.716   4.612  0.9486 -0.0187  0.9719
  574MOL0     N77406   2.785   9.808   5.277 -0.5811  0.0148  0.1822
  574MOL0     N77407   2.855   9.827   5.384  0.5652 -0.2062  0.7991
  574MOL0     C77408   3.972   9.817   5.574 -0.0210 -0.7591 -0.1644
  574MOL0     C77409   4.058   9.726   5.519  0.4882 -0.8728  0.5193
  574MOL0     C77410   4.439   9.660   5.273 -0.0252 -0.3074 -0.2249
  574MOL0     C77411   4.415   9.588   5.152 -0.0191  0.4719  0.3080
  574MOL0     C77412   4.524   9.546   5.079 -0.3098  0.2179 -0.3222
  574MOL0     C77413   4.656   9.558   5.122  0.3271  0.6602 -0.1404
  574MOL0     O77414   4.756   9.517   5.036 -0.0877 -0.2259  0.5104
  574MOL0     C77415   4.896   9.529   5.075  0.2518  0.0958 -0.1537
  574MOL0     C77416   4.991   9.505   4.972  0.1412 -0.7190  1.3824
  574MOL0     C77417   4.938   9.564   4.833  0.8266  0.3716 -0.8220
  574MOL0     C77418   5.034   9.565   4.709 -0.3481  0.0584 -0.2810
  574MOL0     C77419   5.070   9.426   4.667 -0.0389 -0.4586 -0.1664
  574MOL0     C77420   5.086   9.312   4.636  0.9727  0.9117  0.3777
  574MOL0     C77421   4.674   9.617   5.245  0.1948 -0.4619  0.6019
  574MOL0     C77422   4.568   9.676   5.313 -0.5064  0.7205 -0.2503
  574MOL0     H77423   4.057   9.846   5.207 -0.3763 -1.8338  0.7107
  574MOL0     H77424   3.887   9.996   5.304 -1.9170 -1.3688 -0.1465
  574MOL0     H77425   3.768  10.157   5.437 -0.4394  0.6755 -1.3834
  574MOL0     H77426   3.688  10.000   5.390 -1.1343 -0.0182  0.7109
  574MOL0     H77427   3.566  10.005   5.613  2.6476  0.0082  1.4474
  574MOL0     H77428   3.602  10.176   5.621 -1.5241 -1.2058  2.7021
  574MOL0     H77429   3.497  10.210   5.393 -0.2436  0.0539  1.0280
  574MOL0     H77430   3.481  10.035   5.381  5.1848  0.0722  0.1677
  574MOL0     H77431   3.337  10.047   5.593 -5.3107  3.3784  3.4493
  574MOL0     H77432   3.346  10.226   5.578 -1.5832  1.2728 -2.3759
  574MOL0     H77433   3.237  10.229   5.375 -2.6892  0.5179  2.5682
  574MOL0     H77434   3.238  10.056   5.341  0.3397  1.0694 -0.2544
  574MOL0     H77435   3.074  10.185   5.553  2.5905  3.0815 -1.3694
  574MOL0     H77436   3.019  10.120   5.404 -0.1164 -0.8840  0.3173
  574MOL0     H77437   3.141   9.961   5.628  2.8556 -2.8171 -2.0287
  574MOL0     H77438   2.975   9.961   5.582 -0.1956  1.4803 -0.6490
  574MOL0     H77439   3.089   9.770   5.523 -2.0575 -0.8433 -1.2454
  574MOL0     H77440   3.188   9.853   5.398  0.6086 -1.4700  1.8997
  574MOL0     H77441   3.097   9.833   5.165 -0.3685 -0.1533 -1.4583
  574MOL0     H77442   2.926   9.722   4.984 -1.6472  0.7988 -2.5538
  574MOL0     H77443   2.757   9.689   5.025 -0.1236 -1.3513  1.0431
  574MOL0     H77444   2.893   9.966   4.982  0.4467  0.5535 -0.6418
  574MOL0     H77445   2.712   9.953   4.987 -0.3157 -1.6942 -1.1967
  574MOL0     H77446   2.873   9.822   4.771 -1.9075 -1.8197  2.4394
  574MOL0     H77447   2.807   9.984   4.745  0.7710 -0.1099  0.0809
  574MOL0     H77448   2.588   9.923   4.761  0.0534  0.9934 -0.8850
  574MOL0     H77449   2.639   9.760   4.816  1.0972  0.3445  0.1266
  574MOL0     H77450   2.690   9.675   4.399 -1.5461  2.7332 -3.3552
  574MOL0     H77451   2.456   9.644   4.136  0.4804 -0.2448  0.1738
  574MOL0     H77452   2.611   9.585   4.178  0.3906 -1.6001 -0.8423
  574MOL0     H77453   2.488   9.469   4.183  2.0924 -0.2582 -2.4966
  574MOL0     H77454   1.965   9.595   4.182  0.9545 -0.7992  0.7318
  574MOL0     H77455   1.802   9.423   4.081 -0.3365 -1.4138  0.3643
  574MOL0     H77456   1.902   9.001   4.033  0.1430  1.2509 -2.5041
  574MOL0     H77457   1.808   9.109   4.138  1.4443 -1.7523  0.3141
  574MOL0     H77458   1.733   9.015   3.855 -0.9487  1.7104 -1.8705
  574MOL0     H77459   1.708   8.913   4.003  0.4983  0.5967  0.4842
  574MOL0     H77460   1.522   9.094   3.899 -0.4688  1.5493  0.5598
  574MOL0     H77461   1.609   9.203   4.004  3.7197 -0.1930  0.5208
  574MOL0     H77462   1.461   8.962   4.102 -3.2748  1.4509  1.3002
  574MOL0     H77463   1.564   9.062   4.206 -0.6691  1.4927  0.2607
  574MOL0     H77464   1.347   9.180   4.044 -2.6038  0.2775  0.8819
  574MOL0     H77465   1.434   9.261   4.165  1.8363 -1.6647  0.4370
  574MOL0     H77466   1.277   9.020   4.238  0.0697 -0.1096  1.0883
  574MOL0     H77467   1.352   9.127   4.349  0.6717  0.0880 -0.2291
  574MOL0     H77468   1.151   9.272   4.177  1.5604  0.7811 -0.6404
  574MOL0     H77469   1.216   9.292   4.341  2.5125 -1.2921 -0.0706
  574MOL0     H77470   1.093   9.090   4.418  1.4812  1.1571 -0.1104
  574MOL0     H77471   1.039   9.048   4.251 -2.7270 -0.5511  2.2633
  574MOL0     H77472   2.122   9.157   3.995 -0.4180 -0.1272 -0.2176
  574MOL0     H77473   2.278   9.315   4.108  0.0389  0.2283  3.0312
  574MOL0     H77474   2.227   9.635   4.584 -1.8809 -1.7730 -2.4729
  574MOL0     H77475   2.420   9.753   4.713 -1.8662  1.8838 -0.0319
  574MOL0     H77476   3.950   9.809   5.680  2.6836 -4.1416  0.2907
  574MOL0     H77477   4.089   9.640   5.578 -2.2815 -1.4364  1.3205
  574MOL0     H77478   4.311   9.578   5.121  0.6267 -1.8238 -1.4244
  574MOL0     H77479   4.506   9.505   4.980  0.8491  2.2076 -1.4177
  574MOL0     H77480   4.901   9.631   5.113  1.3091 -0.3984  1.0967
  574MOL0     H77481   4.916   9.469   5.164 -2.0443  1.9771  1.7771
  574MOL0     H77482   5.000   9.398   4.955 -2.8451 -0.8474 -0.1529
  574MOL0     H77483   5.090   9.545   4.995  1.3174 -2.1156 -0.8711
  574MOL0     H77484   4.930   9.670   4.859  3.0908  0.0174  1.8234
  574MOL0     H77485   4.842   9.521   4.804  0.5450 -0.8617  1.7366
  574MOL0     H77486   5.127   9.612   4.742  2.2863 -1.5452 -4.5617
  574MOL0     H77487   4.990   9.623   4.627  0.4067  1.1154  0.0438
  574MOL0     H77488   5.117   9.230   4.574  3.1453  0.5851  1.7813
  574MOL0     H77489   4.775   9.638   5.280  0.0581 -0.1027  0.7938
  574MOL0     H77490   4.590   9.728   5.406 -0.8019 -1.0991  0.8838
  575MOL0     O77491   9.230   6.991   6.531  0.4004 -0.5551  0.1000
  575MOL0     C77492   9.348   6.989   6.555 -0.3883 -0.1501  1.3026
  575MOL0     O77493   9.440   6.987   6.458  0.7026 -0.2541  0.4647
  575MOL0     C77494   9.407   7.002   6.322  0.2021 -0.6035 -0.6014
  575MOL0     C77495   9.391   7.131   6.269 -1.1202  0.9891 -0.5958
  575MOL0     C77496   9.369   7.142   6.131 -0.0317 -1.1985  0.5939
  575MOL0     C77497   9.346   7.030   6.045 -0.1659  0.0923 -0.0379
  575MOL0     O77498   9.297   7.023   5.917 -0.7037  0.1314  0.3463
  575MOL0     C77499   9.300   7.149   5.848  0.6909 -0.3315  0.5001
  575MOL0     C77500   9.222   7.128   5.711  0.4549  0.0189  0.4731
  575MOL0     C77501   9.072   7.100   5.742 -0.6441  0.3433  0.2718
  575MOL0     C77502   8.999   7.062   5.599  0.4707  0.2891 -1.2454
  575MOL0     C77503   8.839   7.064   5.612 -0.4348 -0.5019  0.0619
  575MOL0     C77504   8.781   7.209   5.637  0.7312 -0.5490 -0.4374
  575MOL0     C77505   8.628   7.217   5.636  0.6419  0.6613 -0.0304
  575MOL0     C77506   8.564   7.200   5.778  0.7656 -0.7296  0.3350
  575MOL0     N77507   8.420   7.230   5.774 -0.1288 -0.1311 -0.1160
  575MOL0     C77508   8.330   7.157   5.693  0.4227  0.4854 -0.0934
  575MOL0     C77509   8.212   7.211   5.716 -0.2823  0.0720 -0.3479
  575MOL0     C77510   8.087   7.164   5.647  0.0417  0.0615  0.3859
  575MOL0     C77511   8.078   7.225   5.501 -0.1095 -0.1678 -0.8437
  575MOL0     C77512   7.962   7.186   5.419 -0.1864 -0.0620 -0.3918
  575MOL0     C77513   7.820   7.202   5.485  0.7348 -0.3105  0.7722
  575MOL0     O77514   7.716   7.147   5.401 -0.3765  0.0956  0.0818
  575MOL0     C77515   7.595   7.218   5.410  0.1141  0.4603 -0.4847
  575MOL0     C77516   7.543   7.248   5.534 -0.4923  0.0168  0.1202
  575MOL0     C77517   7.420   7.316   5.556 -0.2544 -1.1192  1.1469
  575MOL0     C77518   7.378   7.326   5.699 -0.8436 -1.6743  0.4599
  575MOL0     C77519   7.354   7.373   5.446  0.1551  0.3336  0.0274
  575MOL0     C77520   7.239   7.463   5.461  1.2353 -0.4158  0.2641
  575MOL0     O77521   7.216   7.530   5.574  0.5140  0.0879  0.3675
  575MOL0     C77522   7.119   7.628   5.573  0.0712 -0.6760 -0.5131
  575MOL0     C77523   7.141   7.760   5.535  1.2963  0.5395  0.4000
  575MOL0     C77524   7.036   7.854   5.549 -0.3607  0.0368  0.7573
  575MOL0     C77525   6.920   7.823   5.611  0.4840 -0.7503 -0.1189
  575MOL0     O77526   6.818   7.925   5.636 -0.1365 -0.5045  0.2834
  575MOL0     C77527   6.672   7.890   5.628 -0.4905  0.5425 -1.2394
  575MOL0     C77528   6.575   7.966   5.722  0.9842  0.1713  0.0225
  575MOL0     C77529   6.585   8.114   5.702 -0.3884  0.4708  0.6118
  575MOL0     C77530   6.460   8.194   5.744  0.2747 -1.2813  0.0321
  575MOL0     C77531   6.447   8.344   5.727 -0.2682 -0.5309 -0.6742
  575MOL0     C77532   6.310   8.404   5.765 -0.3553 -0.2485 -1.0092
  575MOL0     C77533   6.305   8.560   5.738  0.1651 -0.1565 -0.4567
  575MOL0     C77534   6.187   8.620   5.805 -0.0975 -0.2133 -0.7195
  575MOL0    Cl77535   6.041   8.617   5.717 -0.1392 -0.4981  0.2236
  575MOL0     C77536   6.901   7.690   5.654 -0.3875  0.8025 -0.2864
  575MOL0     C77537   6.998   7.588   5.632 -0.6640 -0.4209 -0.1244
  575MOL0     O77538   7.162   7.458   5.361 -0.6567 -0.0159 -0.0403
  575MOL0     C77539   7.410   7.343   5.317  0.3173 -0.3559 -0.3346
  575MOL0     C77540   7.524   7.262   5.300 -0.8387 -0.1047  0.0575
  575MOL0     N77541   8.230   7.314   5.808 -0.2094 -0.3688 -0.2210
  575MOL0     N77542   8.348   7.307   5.857  0.2242 -0.4912  0.8403
  575MOL0     C77543   9.363   6.903   6.105  0.6323 -0.5485 -0.7401
  575MOL0     C77544   9.384   6.882   6.244  0.5300 -1.2212  0.1072
  575MOL0     C77545   9.401   6.963   6.687  0.9355  1.1538 -0.3523
  575MOL0     C77546   9.536   6.973   6.714  0.7686 -0.4954  0.8861
  575MOL0     C77547   9.580   6.952   6.840  0.4667 -0.8556 -0.1882
  575MOL0     C77548   9.487   6.917   6.943  1.1922  0.0953  0.6305
  575MOL0     O77549   9.522   6.875   7.072 -0.4544 -0.5959  0.6132
  575MOL0     C77550   9.557   6.741   7.108  0.1311  0.0590  0.3343
  575MOL0     C77551   9.432   6.643   7.114 -0.3314 -0.2265 -0.1203
  575MOL0     C77552   9.349   6.694   7.238 -0.2967  0.0324  0.2851
  575MOL0     C77553   9.240   6.597   7.263  0.1484 -0.1654 -0.5153
  575MOL0     C77554   9.117   6.621   7.188 -0.4059  0.0496  1.1456
  575MOL0     C77555   9.018   6.634   7.118  0.1852  0.6734  0.6336
  575MOL0     C77556   9.348   6.906   6.918 -0.6485  0.0702 -0.3327
  575MOL0     C77557   9.308   6.920   6.789  0.3294 -0.4230  0.6617
  575MOL0     H77558   9.402   7.218   6.333  1.5840  0.4970 -0.2588
  575MOL0     H77559   9.351   7.244   6.101 -1.5131 -1.6786 -0.2618
  575MOL0     H77560   9.241   7.218   5.909  2.3717  2.2622 -0.6511
  575MOL0     H77561   9.398   7.193   5.825 -1.4268  4.6884 -0.0526
  575MOL0     H77562   9.232   7.217   5.649  1.4555 -0.0339  0.5474
  575MOL0     H77563   9.260   7.036   5.667  0.7706  0.2702  0.2163
  575MOL0     H77564   9.061   7.020   5.815  2.0981  1.8678  2.5526
  575MOL0     H77565   9.025   7.185   5.793 -0.7996  0.2450  0.2931
  575MOL0     H77566   9.021   7.127   5.514  0.1388  3.0275  0.6117
  575MOL0     H77567   9.028   6.965   5.559  0.1087 -0.0908 -0.6204
  575MOL0     H77568   8.785   7.032   5.523 -2.0316  0.7272  0.5164
  575MOL0     H77569   8.810   6.999   5.695 -1.0060  0.1480  0.3854
  575MOL0     H77570   8.827   7.251   5.727  0.1786  1.8676 -1.2005
  575MOL0     H77571   8.815   7.274   5.557  3.2522 -0.9703  0.2060
  575MOL0     H77572   8.598   7.312   5.590  0.9601  1.1446  0.7367
  575MOL0     H77573   8.578   7.137   5.581 -1.6088 -0.3861  3.2593
  575MOL0     H77574   8.617   7.269   5.844 -1.0604 -0.5065  1.6366
  575MOL0     H77575   8.584   7.103   5.826  1.2471 -0.0712  1.5032
  575MOL0     H77576   8.362   7.087   5.616 -0.3860  0.6454 -0.5885
  575MOL0     H77577   8.089   7.056   5.631  1.2940  0.1604 -0.2663
  575MOL0     H77578   7.999   7.193   5.705 -1.0827 -0.0923 -1.1738
  575MOL0     H77579   8.165   7.186   5.446  1.7033  1.7537  0.5136
  575MOL0     H77580   8.073   7.334   5.491 -0.5982 -0.0240  0.7957
  575MOL0     H77581   7.978   7.081   5.391 -3.6057 -0.9054  0.4546
  575MOL0     H77582   7.955   7.241   5.324  1.9458 -1.0298 -1.1807
  575MOL0     H77583   7.808   7.311   5.492  1.2339 -0.1056 -1.0847
  575MOL0     H77584   7.819   7.161   5.587  0.9175  0.6972  1.1949
  575MOL0     H77585   7.585   7.204   5.624 -1.0695  0.1120  0.4430
  575MOL0     H77586   7.374   7.236   5.760 -2.2393 -1.8713  0.1073
  575MOL0     H77587   7.427   7.397   5.767  1.7903 -1.5464 -1.4263
  575MOL0     H77588   7.271   7.348   5.701 -0.3671  0.9907  0.3060
  575MOL0     H77589   7.241   7.788   5.502  1.0942 -0.2260 -0.9534
  575MOL0     H77590   7.048   7.960   5.529 -1.4254  0.4928  2.3498
  575MOL0     H77591   6.643   7.913   5.525 -1.4777 -1.2301 -1.4036
  575MOL0     H77592   6.659   7.781   5.635  0.4415  0.5050  0.4544
  575MOL0     H77593   6.478   7.932   5.685  1.3050 -2.7874  1.6174
  575MOL0     H77594   6.590   7.935   5.826  2.3963  0.7133  0.0113
  575MOL0     H77595   6.598   8.115   5.594  1.4658  1.3362  0.8033
  575MOL0     H77596   6.677   8.158   5.743  1.1106  1.6163 -3.4725
  575MOL0     H77597   6.366   8.159   5.701 -0.3724  0.9049 -0.4812
  575MOL0     H77598   6.466   8.175   5.851  2.7617 -2.0947 -0.1854
  575MOL0     H77599   6.470   8.361   5.622  0.7919  0.2296 -0.3428
  575MOL0     H77600   6.525   8.390   5.789 -0.5164 -0.4038 -0.4574
  575MOL0     H77601   6.240   8.356   5.696 -1.4117 -1.9201  1.1130
  575MOL0     H77602   6.293   8.384   5.871 -0.7140  0.8380 -0.8563
  575MOL0     H77603   6.300   8.575   5.630  2.0783  0.4366 -0.4966
  575MOL0     H77604   6.395   8.609   5.777  1.0080 -3.2077  1.8425
  575MOL0     H77605   6.215   8.720   5.836 -0.6731 -1.0440  2.9503
  575MOL0     H77606   6.169   8.559   5.894  0.6705 -0.7134 -0.8972
  575MOL0     H77607   6.809   7.649   5.695 -0.3100  0.4896 -0.4219
  575MOL0     H77608   6.988   7.485   5.663  1.8524 -1.4450 -2.2948
  575MOL0     H77609   7.351   7.377   5.232 -0.0820  2.1297  0.8418
  575MOL0     H77610   7.549   7.236   5.197 -2.5905  2.4390 -1.1111
  575MOL0     H77611   9.352   6.829   6.026  1.9759 -1.7908  0.1704
  575MOL0     H77612   9.397   6.782   6.283 -1.3336 -0.6156  2.4938
  575MOL0     H77613   9.600   7.020   6.641  0.4172  0.6729  1.2929
  575MOL0     H77614   9.687   6.956   6.858  0.5579 -0.3787 -0.8397
  575MOL0     H77615   9.628   6.707   7.032 -0.5704  2.5985 -1.6109
  575MOL0     H77616   9.598   6.737   7.209  2.1181 -3.3803 -0.4530
  575MOL0     H77617   9.472   6.547   7.147 -0.3003 -0.2336 -0.1789
  575MOL0     H77618   9.370   6.624   7.025 -0.3925 -1.7215  0.2175
  575MOL0     H77619   9.307   6.790   7.210  1.4125  0.5828 -0.5558
  575MOL0     H77620   9.409   6.701   7.329 -3.9605  0.9009  2.8469
  575MOL0     H77621   9.215   6.605   7.370  1.5377 -0.3157 -0.1521
  575MOL0     H77622   9.260   6.490   7.246 -1.2322 -0.0754 -3.0715
  575MOL0     H77623   8.928   6.638   7.060 -1.8399 -2.2532  3.2281
  575MOL0     H77624   9.278   6.884   6.998  0.2695 -1.3128  0.1271
  575MOL0     H77625   9.206   6.909   6.753  0.2665  1.0208  0.3619
  576MOL0     O77626   0.548   1.479   4.809  0.8969  0.4743 -1.2935
  576MOL0     C77627   0.427   1.454   4.779 -0.3503  1.3137 -0.2597
  576MOL0     O77628   0.370   1.331   4.749  0.9559  0.2061  0.4580
  576MOL0     C77629   0.256   1.310   4.676  0.8256  0.8825 -0.1685
  576MOL0     C77630   0.229   1.366   4.548  0.1242  0.1584 -0.5358
  576MOL0     C77631   0.099   1.357   4.492 -0.3758  0.4997  0.2943
  576MOL0     C77632  -0.001   1.290   4.555 -0.6902 -0.9495 -0.1022
  576MOL0     O77633  -0.129   1.272   4.499  0.2362 -0.2917  0.5398
  576MOL0     C77634  -0.174   1.317   4.373 -0.2826 -0.8856  0.5669
  576MOL0     C77635  -0.337   1.302   4.378  0.3167 -0.2394 -0.5242
  576MOL0     C77636  -0.392   1.352   4.247  0.3049 -0.6693  0.2134
  576MOL0     C77637  -0.542   1.314   4.254 -0.6102 -1.0450  0.2159
  576MOL0     C77638  -0.616   1.361   4.125  0.5801 -0.0880  0.1859
  576MOL0     C77639  -0.625   1.513   4.123  0.5034 -0.9945  0.3873
  576MOL0     C77640  -0.688   1.548   3.988  0.1504  0.9801  0.8221
  576MOL0     C77641  -0.659   1.691   3.947  0.0309 -0.1139 -0.3965
  576MOL0     N77642  -0.724   1.783   4.039  0.2368 -0.1131 -0.8915
  576MOL0     C77643  -0.850   1.790   4.080  0.4698 -0.6433 -0.5965
  576MOL0     C77644  -0.830   1.880   4.185  0.3569 -0.1545  0.1729
  576MOL0     C77645  -0.931   1.931   4.282  0.7605 -0.4988 -0.6620
  576MOL0     C77646  -1.071   1.863   4.270 -0.3089 -0.2711 -0.1718
  576MOL0     C77647  -1.167   1.892   4.382 -0.5694  0.2060  0.1679
  576MOL0     C77648  -1.302   1.816   4.390 -0.2284  0.0195  0.4876
  576MOL0     O77649  -1.378   1.836   4.271  0.3639 -0.1772 -0.4366
  576MOL0     C77650  -1.497   1.766   4.260 -0.8420  0.5678 -0.3423
  576MOL0     C77651  -1.610   1.840   4.230  0.0480  0.6396 -0.3827
  576MOL0     C77652  -1.733   1.774   4.213  0.3296  0.5902  0.5700
  576MOL0     C77653  -1.855   1.859   4.177 -0.1619  0.8697  0.1451
  576MOL0     C77654  -1.743   1.632   4.229 -0.1530 -0.0224 -0.4028
  576MOL0     C77655  -1.864   1.553   4.220  0.0642 -0.3104  0.5086
  576MOL0     O77656  -1.936   1.562   4.103  0.4570 -0.5975 -0.6243
  576MOL0     C77657  -2.046   1.479   4.079  0.1253  0.2970  0.1449
  576MOL0     C77658  -2.146   1.446   4.170  0.7895 -0.1513 -0.4984
  576MOL0     C77659  -2.248   1.359   4.126 -0.6995  1.3474  0.1685
  576MOL0     C77660  -2.244   1.304   3.999  0.1768 -0.1955  0.2120
  576MOL0     O77661  -2.353   1.220   3.972  0.1908  0.3072  0.3943
  576MOL0     C77662  -2.329   1.107   3.890 -0.0785 -0.3892 -0.3173
  576MOL0     C77663  -2.457   1.024   3.881 -0.1807 -0.6659  0.6048
  576MOL0     C77664  -2.578   1.105   3.840  0.7024  0.1583 -0.0234
  576MOL0     C77665  -2.697   1.007   3.852 -0.1207  1.0037 -0.2183
  576MOL0     C77666  -2.835   1.085   3.832  0.1127  0.5139  0.5818
  576MOL0     C77667  -2.954   0.998   3.876 -0.8068 -1.1124  0.2021
  576MOL0     C77668  -3.090   1.054   3.857 -0.5244 -0.5080  0.1149
  576MOL0     C77669  -3.192   0.944   3.839  0.6225 -0.4998  0.3911
  576MOL0    Cl77670  -3.183   0.828   3.971 -0.0084  0.4118 -0.3813
  576MOL0     C77671  -2.140   1.329   3.908 -0.3643  0.7517  0.1063
  576MOL0     C77672  -2.045   1.418   3.950 -0.6462 -0.1152  0.4456
  576MOL0     O77673  -1.871   1.455   4.294 -0.3140  0.6468  0.5139
  576MOL0     C77674  -1.628   1.556   4.253 -0.0211 -0.0686  0.4182
  576MOL0     C77675  -1.506   1.623   4.269  0.1377  0.3835  0.3398
  576MOL0     N77676  -0.702   1.925   4.196 -0.2957  0.1444  0.5461
  576MOL0     N77677  -0.637   1.859   4.112 -1.0595  0.6346 -0.8647
  576MOL0     C77678   0.023   1.234   4.686 -0.6439 -0.3641 -0.2154
  576MOL0     C77679   0.152   1.254   4.744 -0.0128  0.5651 -0.3036
  576MOL0     C77680   0.345   1.567   4.788 -0.3541  0.5521 -0.2460
  576MOL0     C77681   0.387   1.685   4.730  0.7210 -0.6279  0.0636
  576MOL0     C77682   0.307   1.789   4.733 -0.4557  0.6573  0.5811
  576MOL0     C77683   0.183   1.796   4.801 -1.0076 -0.0833  0.0453
  576MOL0     O77684   0.117   1.914   4.781  0.7585  0.5457  0.2535
  576MOL0     C77685  -0.016   1.926   4.813  0.5324 -1.1605 -0.4709
  576MOL0     C77686  -0.030   2.017   4.932 -0.4436  0.4303  0.1715
  576MOL0     C77687   0.016   2.157   4.908  0.0155 -0.0002 -0.3887
  576MOL0     C77688  -0.023   2.254   5.020 -0.7152  0.7070 -0.0276
  576MOL0     C77689  -0.161   2.302   5.017 -0.1191 -0.3777 -1.0044
  576MOL0     C77690  -0.273   2.352   5.016  0.5652 -0.4853  0.3777
  576MOL0     C77691   0.138   1.676   4.855  0.3741  1.0446  0.5425
  576MOL0     C77692   0.223   1.564   4.857 -0.3514  0.2814 -0.4497
  576MOL0     H77693   0.312   1.418   4.502  1.6501  0.6207  2.4937
  576MOL0     H77694   0.074   1.389   4.391 -0.6490 -0.0256  0.1926
  576MOL0     H77695  -0.164   1.426   4.359 -1.8973 -0.8871 -0.9301
  576MOL0     H77696  -0.136   1.255   4.291 -0.2262 -1.5966  1.1299
  576MOL0     H77697  -0.352   1.195   4.391  1.3527 -0.6541 -2.3441
  576MOL0     H77698  -0.374   1.363   4.461 -0.0430  0.3526 -1.1197
  576MOL0     H77699  -0.380   1.460   4.233  1.4187 -0.3927  2.6750
  576MOL0     H77700  -0.348   1.299   4.163 -3.2953  0.8867 -2.9614
  576MOL0     H77701  -0.541   1.207   4.276  1.6944 -0.6553  2.4929
  576MOL0     H77702  -0.585   1.356   4.345 -1.3052 -2.0325  0.3532
  576MOL0     H77703  -0.562   1.311   4.044 -2.2716 -0.3214 -1.6988
  576MOL0     H77704  -0.714   1.312   4.126  0.8657 -0.6735 -0.2729
  576MOL0     H77705  -0.692   1.551   4.201  1.8227 -3.8190  3.0918
  576MOL0     H77706  -0.528   1.563   4.129 -0.0050 -0.0860  1.3534
  576MOL0     H77707  -0.634   1.484   3.918 -0.5564 -0.0562  1.2085
  576MOL0     H77708  -0.795   1.528   3.977  0.6945 -0.5882 -3.7271
  576MOL0     H77709  -0.685   1.715   3.844  0.9628 -1.0375 -0.8688
  576MOL0     H77710  -0.550   1.700   3.954 -0.0083  0.0354  0.0291
  576MOL0     H77711  -0.939   1.752   4.030  2.8931 -1.7021 -4.4923
  576MOL0     H77712  -0.899   1.922   4.386 -0.8860 -0.4292 -0.1209
  576MOL0     H77713  -0.947   2.037   4.261 -2.8993 -0.7895  0.0108
  576MOL0     H77714  -1.057   1.754   4.270  1.3432 -0.0853 -0.1600
  576MOL0     H77715  -1.109   1.894   4.172 -2.1794 -1.6308  0.0688
  576MOL0     H77716  -1.185   2.000   4.375 -2.1850  0.1285  2.2007
  576MOL0     H77717  -1.110   1.866   4.471  2.5861  0.5525 -1.6033
  576MOL0     H77718  -1.369   1.843   4.472 -1.1729  1.2552 -0.6557
  576MOL0     H77719  -1.267   1.712   4.394  1.1260  0.4896  1.8044
  576MOL0     H77720  -1.616   1.948   4.223 -0.3807  0.8119  1.9383
  576MOL0     H77721  -1.906   1.803   4.098 -0.8478 -0.4046  1.4485
  576MOL0     H77722  -1.919   1.872   4.265  1.2854 -4.7095  2.4893
  576MOL0     H77723  -1.831   1.955   4.130 -2.8913  2.5911  1.9849
  576MOL0     H77724  -2.135   1.471   4.275  1.0041  1.4451 -0.8775
  576MOL0     H77725  -2.325   1.330   4.197 -2.4558 -0.4866 -2.3419
  576MOL0     H77726  -2.299   1.146   3.792  0.1889 -0.0960 -0.1201
  576MOL0     H77727  -2.243   1.051   3.928  1.1284  0.9525 -0.9513
  576MOL0     H77728  -2.428   0.949   3.805  0.9404 -0.5726  0.9197
  576MOL0     H77729  -2.480   0.974   3.975  0.4183  1.6259  2.0488
  576MOL0     H77730  -2.559   1.159   3.746 -0.6738  3.2307  1.3355
  576MOL0     H77731  -2.595   1.193   3.903  0.3378 -1.0966  1.7059
  576MOL0     H77732  -2.694   0.924   3.781 -2.0213 -0.7172  1.5661
  576MOL0     H77733  -2.698   0.954   3.947  0.4039 -1.5311 -1.5458
  576MOL0     H77734  -2.847   1.096   3.723  0.6458  0.5380  0.5244
  576MOL0     H77735  -2.821   1.179   3.885  1.7980 -0.3207  1.6913
  576MOL0     H77736  -2.931   0.905   3.822  2.7246  0.6048 -1.5914
  576MOL0     H77737  -2.936   0.980   3.982 -0.2230 -2.0673 -0.0407
  576MOL0     H77738  -3.101   1.108   3.762 -0.2874 -1.9085 -0.7496
  576MOL0     H77739  -3.121   1.120   3.938  1.1546  0.4965 -0.0245
  576MOL0     H77740  -3.185   0.894   3.742  0.7334 -0.6483  0.4756
  576MOL0     H77741  -3.294   0.983   3.845  1.3385  1.4131  0.9728
  576MOL0     H77742  -2.132   1.277   3.813 -0.8200  0.8656  0.0073
  576MOL0     H77743  -1.971   1.459   3.882 -0.3837  3.3174  2.5169
  576MOL0     H77744  -1.636   1.447   4.257 -0.3422 -0.0584  0.1145
  576MOL0     H77745  -1.413   1.572   4.290 -1.0959 -2.6280 -0.8783
  576MOL0     H77746  -0.049   1.182   4.750  0.1689 -2.9121 -1.2451
  576MOL0     H77747   0.191   1.208   4.834  2.9754 -0.5066 -1.9960
  576MOL0     H77748   0.484   1.694   4.682  0.0480 -0.5488 -1.3078
  576MOL0     H77749   0.336   1.878   4.679  1.6152 -0.4392 -0.2210
  576MOL0     H77750  -0.073   1.975   4.733 -1.0927  2.1999  2.4653
  576MOL0     H77751  -0.062   1.829   4.830  2.0239 -1.8275 -0.0835
  576MOL0     H77752   0.027   1.972   5.015 -0.9508 -0.9885 -0.2246
  576MOL0     H77753  -0.138   2.013   4.944 -1.0284 -3.0291 -3.8818
  576MOL0     H77754  -0.015   2.203   4.814 -0.5598  0.1823 -0.1139
  576MOL0     H77755   0.125   2.161   4.899  0.1379 -1.5239  0.1076
  576MOL0     H77756   0.035   2.344   4.998  0.6639 -0.5979 -2.0834
  576MOL0     H77757   0.006   2.208   5.115  0.7659  0.3831 -0.6205
  576MOL0     H77758  -0.371   2.396   5.018  0.6065 -0.2672  4.3320
  576MOL0     H77759   0.041   1.675   4.904  1.1509  1.4108  2.1533
  576MOL0     H77760   0.194   1.475   4.912 -0.7441  1.9625  2.3079
  577MOL0     O77761   8.945   4.141   1.938  0.1337  0.0001 -0.3373
  577MOL0     C77762   9.044   4.215   1.932 -0.4320  0.1891  0.0686
  577MOL0     O77763   9.041   4.353   1.934  0.3098  0.2548 -0.0856
  577MOL0     C77764   8.926   4.428   1.964  0.0527 -0.2327 -0.5113
  577MOL0     C77765   8.792   4.379   1.989 -0.3743 -0.5348  0.2943
  577MOL0     C77766   8.690   4.469   2.020  0.6784  0.2147  0.7538
  577MOL0     C77767   8.727   4.604   2.036 -1.3840 -0.1901  0.1240
  577MOL0     O77768   8.640   4.704   2.072 -0.1167 -0.1454  0.2861
  577MOL0     C77769   8.504   4.677   2.117 -0.7227 -0.1782 -0.3559
  577MOL0     C77770   8.435   4.811   2.150 -0.3618  0.3225 -0.5956
  577MOL0     C77771   8.373   4.885   2.020 -0.2622 -0.3022 -0.2047
  577MOL0     C77772   8.272   5.001   2.053  0.1909  0.0255 -0.5501
  577MOL0     C77773   8.125   4.954   2.076 -0.2881  0.3134 -0.8175
  577MOL0     C77774   8.029   5.070   2.088  0.3562  0.7594  0.9833
  577MOL0     C77775   8.046   5.172   2.199 -0.3058  0.3119  0.0372
  577MOL0     C77776   8.054   5.110   2.339  0.1860 -0.1591 -0.1163
  577MOL0     N77777   7.952   5.009   2.373  0.6556 -0.4798  0.4191
  577MOL0     C77778   7.818   5.031   2.372  0.1266  0.5855 -0.3096
  577MOL0     C77779   7.752   4.911   2.352  0.2660 -0.0645  0.5473
  577MOL0     C77780   7.614   4.873   2.314 -0.4625  0.3335  0.4154
  577MOL0     C77781   7.580   4.958   2.199 -0.1768 -0.1143 -0.6556
  577MOL0     C77782   7.497   5.081   2.251 -0.5057 -0.0010  0.9587
  577MOL0     C77783   7.471   5.188   2.144 -0.6338  0.6274 -0.0603
  577MOL0     O77784   7.402   5.299   2.211 -1.1917  0.8535  0.5161
  577MOL0     C77785   7.325   5.375   2.129 -0.3659 -0.2841 -0.4161
  577MOL0     C77786   7.231   5.453   2.200  0.5312  0.4633  1.4865
  577MOL0     C77787   7.124   5.528   2.136  0.1248 -0.4195 -0.0834
  577MOL0     C77788   7.025   5.588   2.225 -0.1796 -0.1398 -0.1794
  577MOL0     C77789   7.114   5.517   1.994  0.2059 -0.8118 -0.1666
  577MOL0     C77790   7.003   5.560   1.897  0.6096  0.1434 -0.7824
  577MOL0     O77791   6.992   5.517   1.774  0.8700  0.0483  0.1172
  577MOL0     C77792   6.882   5.556   1.689  0.3291 -0.1088 -0.4002
  577MOL0     C77793   6.833   5.682   1.680  0.3479  0.3416 -1.5454
  577MOL0     C77794   6.717   5.725   1.611  1.1571  0.1829  0.6330
  577MOL0     C77795   6.643   5.625   1.540 -0.4357  0.8498  0.3625
  577MOL0     O77796   6.535   5.668   1.473  0.4061 -0.5760  0.7312
  577MOL0     C77797   6.436   5.582   1.422 -0.3995 -0.3099 -0.5768
  577MOL0     C77798   6.368   5.644   1.302 -0.5789 -0.2594  1.1301
  577MOL0     C77799   6.223   5.587   1.275 -0.3235 -0.1011 -0.0615
  577MOL0     C77800   6.161   5.618   1.138  0.3776  1.6529 -0.6077
  577MOL0     C77801   6.027   5.537   1.118  0.0029  0.0809  0.0131
  577MOL0     C77802   6.039   5.389   1.085 -0.1953 -0.3111 -0.8868
  577MOL0     C77803   5.913   5.317   1.041 -0.2323  1.1052 -0.8809
  577MOL0     C77804   5.853   5.352   0.906  0.1881 -0.0380  0.4788
  577MOL0    Cl77805   5.757   5.500   0.922  0.3824  0.0342 -0.0435
  577MOL0     C77806   6.687   5.492   1.554  0.3991 -0.1768  0.2662
  577MOL0     C77807   6.805   5.459   1.625  0.8824  0.1193 -0.0559
  577MOL0     O77808   6.924   5.632   1.953  0.7231  1.0119  0.3215
  577MOL0     C77809   7.213   5.442   1.922 -0.5593  0.8406  0.3792
  577MOL0     C77810   7.313   5.369   1.986  0.2871  0.6226 -0.2949
  577MOL0     N77811   7.856   4.814   2.360 -0.0650 -0.3075 -0.1218
  577MOL0     N77812   7.964   4.874   2.360 -0.4347  0.7672 -0.3560
  577MOL0     C77813   8.859   4.647   2.014  0.6844  0.1530 -0.2586
  577MOL0     C77814   8.953   4.562   1.972 -0.2796 -0.3801  0.5697
  577MOL0     C77815   9.170   4.147   1.903  0.0804  0.2884  1.0712
  577MOL0     C77816   9.290   4.222   1.927 -0.1205 -0.7843  0.0292
  577MOL0     C77817   9.416   4.166   1.921 -0.8183  0.4111  1.0702
  577MOL0     C77818   9.425   4.033   1.881 -0.1992  0.4538  0.0694
  577MOL0     O77819   9.555   3.975   1.865 -0.1524 -0.5710  0.3186
  577MOL0     C77820   9.555   3.872   1.763 -0.1521  0.2007 -0.7222
  577MOL0     C77821   9.699   3.838   1.729 -0.4123  0.3580  0.4933
  577MOL0     C77822   9.781   3.961   1.666  0.3402  0.2686 -0.5314
  577MOL0     C77823   9.918   3.913   1.611  0.5979 -0.1328  0.6186
  577MOL0     C77824  10.009   3.881   1.717 -0.2538  0.2990 -0.5519
  577MOL0     C77825  10.089   3.854   1.805  0.6687  0.5694  0.2421
  577MOL0     C77826   9.311   3.959   1.858 -0.3162  1.3214 -0.0188
  577MOL0     C77827   9.179   4.007   1.872 -0.9148 -0.1781 -0.2579
  577MOL0     H77828   8.766   4.274   1.998 -1.0587 -0.2707  1.7182
  577MOL0     H77829   8.586   4.440   2.031  0.8206 -0.7053 -0.1763
  577MOL0     H77830   8.449   4.621   2.041 -0.5760 -1.2176  0.2752
  577MOL0     H77831   8.526   4.617   2.206  1.2511  1.6895  0.5046
  577MOL0     H77832   8.357   4.787   2.222  0.5597 -0.8345  0.0479
  577MOL0     H77833   8.510   4.875   2.197  0.2518 -1.1320  0.4633
  577MOL0     H77834   8.454   4.924   1.958  1.3078 -2.7795  0.1159
  577MOL0     H77835   8.326   4.805   1.962 -1.5806  0.1516  0.1900
  577MOL0     H77836   8.297   5.059   2.141 -2.5288  0.4397  0.0570
  577MOL0     H77837   8.268   5.077   1.975  0.9151  2.4061  1.6070
  577MOL0     H77838   8.088   4.900   1.988  1.8852 -0.5724 -1.2250
  577MOL0     H77839   8.122   4.886   2.161 -1.5351  2.1783  0.7111
  577MOL0     H77840   8.049   5.134   2.002  1.0020 -2.5492 -1.4853
  577MOL0     H77841   7.928   5.031   2.098  0.7643 -0.0186  2.2597
  577MOL0     H77842   8.125   5.243   2.173  0.1955 -0.2118  0.1179
  577MOL0     H77843   7.962   5.243   2.199  0.0714  0.7875 -1.3351
  577MOL0     H77844   8.053   5.185   2.419 -1.8012 -1.6748  1.3851
  577MOL0     H77845   8.153   5.062   2.344 -0.6422 -2.1040 -1.3381
  577MOL0     H77846   7.767   5.127   2.370 -0.9343  0.0306 -0.9029
  577MOL0     H77847   7.617   4.768   2.284 -0.4633  0.4642 -0.0568
  577MOL0     H77848   7.550   4.887   2.401 -0.9372  4.0173 -0.3472
  577MOL0     H77849   7.511   4.892   2.145 -1.5361  1.3926 -0.8440
  577MOL0     H77850   7.669   4.973   2.136 -1.1185  0.8148 -1.8146
  577MOL0     H77851   7.562   5.134   2.321 -0.8005 -1.5750  2.5000
  577MOL0     H77852   7.401   5.049   2.294 -0.0116 -0.2710  1.8852
  577MOL0     H77853   7.395   5.137   2.084  0.6466  0.1863 -1.3507
  577MOL0     H77854   7.556   5.211   2.079  1.6028 -1.2759  1.9890
  577MOL0     H77855   7.239   5.446   2.308  0.7758 -1.9969  1.3529
  577MOL0     H77856   7.061   5.576   2.327 -0.8257  1.2356  0.2456
  577MOL0     H77857   7.019   5.696   2.207 -0.6541 -0.0633  0.4113
  577MOL0     H77858   6.925   5.544   2.218  0.1583 -1.4336  2.1823
  577MOL0     H77859   6.890   5.755   1.737 -0.5254 -0.5695  0.5833
  577MOL0     H77860   6.681   5.827   1.598  3.9436  1.0752 -0.8309
  577MOL0     H77861   6.484   5.494   1.379 -0.4763  0.7992 -3.1537
  577MOL0     H77862   6.372   5.567   1.509  2.2920  0.0068  1.6004
  577MOL0     H77863   6.373   5.753   1.307  0.5362 -0.1258 -1.5325
  577MOL0     H77864   6.437   5.609   1.225 -1.0586 -0.8073  0.9392
  577MOL0     H77865   6.155   5.639   1.343 -1.1999  2.6315 -2.7808
  577MOL0     H77866   6.225   5.479   1.293 -1.4495  0.2694  2.8521
  577MOL0     H77867   6.135   5.724   1.147 -0.4342  1.5925 -2.0332
  577MOL0     H77868   6.227   5.609   1.052  0.9313  1.1167 -0.1323
  577MOL0     H77869   5.973   5.586   1.037  0.1488 -0.1098 -0.1998
  577MOL0     H77870   5.961   5.552   1.204 -0.3414  1.7330 -0.5030
  577MOL0     H77871   6.115   5.377   1.007 -0.4749  1.1565 -1.4089
  577MOL0     H77872   6.078   5.332   1.170 -2.2337  2.7973  2.4135
  577MOL0     H77873   5.838   5.337   1.118  0.5298 -0.5550  0.3612
  577MOL0     H77874   5.923   5.208   1.049  0.4170  1.2590  1.1674
  577MOL0     H77875   5.791   5.265   0.882  0.3276  0.3951 -1.7259
  577MOL0     H77876   5.925   5.359   0.823  3.3013 -2.8314  2.6609
  577MOL0     H77877   6.641   5.407   1.504  0.7607  0.7748 -1.7896
  577MOL0     H77878   6.836   5.355   1.621  1.6760  0.3725 -2.6345
  577MOL0     H77879   7.227   5.421   1.817  0.3406 -4.4107  1.2666
  577MOL0     H77880   7.383   5.306   1.931 -3.0404 -1.5529 -2.3752
  577MOL0     H77881   8.884   4.752   2.010 -0.3115  0.3936 -5.0210
  577MOL0     H77882   9.053   4.600   1.950  0.3963 -1.7537  1.1578
  577MOL0     H77883   9.273   4.321   1.968 -2.3848 -0.3292 -1.7795
  577MOL0     H77884   9.500   4.228   1.951 -0.9159  2.6515 -2.6641
  577MOL0     H77885   9.505   3.780   1.794  1.7162 -2.0883 -3.8782
  577MOL0     H77886   9.507   3.908   1.671 -1.1873  0.7410  0.0130
  577MOL0     H77887   9.695   3.749   1.665  1.5715  0.2813  0.4211
  577MOL0     H77888   9.746   3.802   1.821 -0.4900  1.2610  0.8935
  577MOL0     H77889   9.799   4.032   1.747 -0.7369  0.3739 -0.3706
  577MOL0     H77890   9.725   4.003   1.582  2.2337  0.3969 -1.8241
  577MOL0     H77891   9.958   3.993   1.547 -3.0196 -0.4412 -2.3810
  577MOL0     H77892   9.901   3.827   1.546 -2.4706  0.3672  0.6034
  577MOL0     H77893  10.179   3.840   1.862  0.7778 -1.7179 -0.3625
  577MOL0     H77894   9.322   3.852   1.845 -0.9933  0.9508  2.0906
  577MOL0     H77895   9.085   3.953   1.877 -3.1001  3.3803  2.0580
  578MOL0     O77896   1.323   0.185   8.665 -0.7467 -0.6730  0.7221
  578MOL0     C77897   1.270   0.079   8.660 -0.1375  0.0035  0.8978
  578MOL0     O77898   1.148   0.053   8.720 -0.4829  0.0627 -0.0657
  578MOL0     C77899   1.056   0.151   8.739  0.2553  0.1164 -0.2147
  578MOL0     C77900   0.959   0.114   8.835 -0.1656  0.3739  0.7996
  578MOL0     C77901   0.851   0.200   8.863  0.9398 -0.5052 -0.2803
  578MOL0     C77902   0.835   0.324   8.803 -0.0814 -0.0934 -0.0407
  578MOL0     O77903   0.720   0.408   8.822  0.5793 -0.0049  0.8204
  578MOL0     C77904   0.651   0.400   8.938 -0.1471  0.4142  0.1783
  578MOL0     C77905   0.554   0.515   8.921 -1.2956  0.1173  1.6561
  578MOL0     C77906   0.476   0.527   9.050 -0.0699 -0.5305 -0.4937
  578MOL0     C77907   0.395   0.654   9.028  0.5220 -0.2960 -0.2773
  578MOL0     C77908   0.310   0.692   9.155  1.0528  0.6184 -0.0866
  578MOL0     C77909   0.195   0.785   9.127  0.8355 -0.5660  0.2368
  578MOL0     C77910   0.072   0.712   9.064 -0.1989 -0.3395  1.2808
  578MOL0     C77911  -0.021   0.640   9.169  0.4422 -0.7164  0.4972
  578MOL0     N77912  -0.135   0.581   9.087 -0.4292 -0.1290  0.1290
  578MOL0     C77913  -0.235   0.648   9.020  0.1495 -0.2910  0.1676
  578MOL0     C77914  -0.318   0.549   8.958 -1.6262 -0.7056 -0.2010
  578MOL0     C77915  -0.446   0.566   8.901  0.6337 -0.3290 -0.0459
  578MOL0     C77916  -0.556   0.510   8.995  0.0539  0.2183 -0.1408
  578MOL0     C77917  -0.593   0.366   8.988  0.1061 -0.2785 -0.1902
  578MOL0     C77918  -0.703   0.338   9.097  0.3211 -0.1885  0.0962
  578MOL0     O77919  -0.829   0.412   9.070  0.2493  0.4752  0.0193
  578MOL0     C77920  -0.923   0.429   9.171 -0.7145  0.6626  0.1298
  578MOL0     C77921  -1.036   0.503   9.130 -0.4211 -1.1131  0.9307
  578MOL0     C77922  -1.136   0.545   9.218 -0.1626 -0.5720 -1.1037
  578MOL0     C77923  -1.237   0.638   9.172 -1.1191 -0.5637  0.2020
  578MOL0     C77924  -1.128   0.492   9.354  0.9410  0.1859 -0.2431
  578MOL0     C77925  -1.216   0.543   9.463  0.0141  0.6413  0.2752
  578MOL0     O77926  -1.327   0.618   9.431  0.1307 -0.4473 -0.0166
  578MOL0     C77927  -1.386   0.708   9.519  0.2810  0.2592  0.1689
  578MOL0     C77928  -1.390   0.700   9.655 -0.2623 -0.3537 -0.3224
  578MOL0     C77929  -1.455   0.799   9.725  0.5548 -0.2688 -0.3348
  578MOL0     C77930  -1.560   0.871   9.669  1.2690 -0.6813 -0.1410
  578MOL0     O77931  -1.638   0.971   9.735 -0.0288  0.9259 -0.8206
  578MOL0     C77932  -1.618   1.004   9.877 -0.1204 -0.4439  0.0831
  578MOL0     C77933  -1.734   1.087   9.930  0.0557 -0.1082 -0.1337
  578MOL0     C77934  -1.737   1.114  10.081 -0.4764 -0.0031  0.3621
  578MOL0     C77935  -1.881   1.171  10.123 -0.4093  0.0099 -0.2735
  578MOL0     C77936  -1.906   1.179  10.275 -0.6341 -0.3425 -0.0345
  578MOL0     C77937  -1.793   1.257  10.351  0.1747  0.2309 -0.2913
  578MOL0     C77938  -1.841   1.273  10.504  0.5175 -0.5469  0.1075
  578MOL0     C77939  -1.902   1.417  10.519 -0.0877  0.0134 -0.3292
  578MOL0    Cl77940  -2.066   1.439  10.448  0.2679 -0.0622 -0.5017
  578MOL0     C77941  -1.560   0.866   9.529  0.4468 -0.0475  0.9978
  578MOL0     C77942  -1.472   0.792   9.449  0.6180 -1.0422 -0.4824
  578MOL0     O77943  -1.171   0.526   9.576 -0.4750  0.2743 -0.6731
  578MOL0     C77944  -1.022   0.408   9.384  0.0526  0.1976 -0.4104
  578MOL0     C77945  -0.916   0.381   9.304 -0.6205  0.3544  0.7751
  578MOL0     N77946  -0.254   0.434   8.993  1.0244 -0.3234  0.0578
  578MOL0     N77947  -0.141   0.453   9.054 -0.3740  0.2353  0.0923
  578MOL0     C77948   0.925   0.348   8.697 -0.2519  0.3411 -0.0787
  578MOL0     C77949   1.035   0.265   8.667  0.5437 -0.6203  0.2828
  578MOL0     C77950   1.332  -0.036   8.590 -0.1653  0.1421  1.4365
  578MOL0     C77951   1.278  -0.167   8.596 -0.0361 -0.3855 -0.9947
  578MOL0     C77952   1.336  -0.271   8.525 -0.1414 -0.4060  0.6385
  578MOL0     C77953   1.453  -0.258   8.446  0.2189  0.1207  0.6933
  578MOL0     O77954   1.501  -0.359   8.365 -0.7193  0.2342  0.1403
  578MOL0     C77955   1.545  -0.328   8.234  0.5106 -0.8103 -0.7553
  578MOL0     C77956   1.673  -0.411   8.225 -1.3986  0.2139  0.5777
  578MOL0     C77957   1.757  -0.391   8.094 -0.2012 -0.4398  0.4606
  578MOL0     C77958   1.704  -0.476   7.978  0.9059  0.0733  0.8967
  578MOL0     C77959   1.803  -0.479   7.869 -0.3115  0.5161 -0.2406
  578MOL0     C77960   1.880  -0.500   7.778 -0.2907  0.3337 -0.8839
  578MOL0     C77961   1.507  -0.129   8.443  0.1019 -0.2761  0.4050
  578MOL0     C77962   1.451  -0.019   8.516  0.2395  0.3836  0.1811
  578MOL0     H77963   0.958   0.015   8.881  0.8471 -0.0359 -0.0116
  578MOL0     H77964   0.787   0.160   8.942 -0.1641 -0.2498 -1.0244
  578MOL0     H77965   0.602   0.303   8.947 -2.2577  1.6052  4.2356
  578MOL0     H77966   0.715   0.426   9.022 -0.6819  1.2486  0.3416
  578MOL0     H77967   0.610   0.607   8.908 -2.1690  0.4641  0.1964
  578MOL0     H77968   0.489   0.506   8.834  1.4633 -2.0313 -0.3833
  578MOL0     H77969   0.428   0.430   9.066  1.7915 -1.2255  1.4112
  578MOL0     H77970   0.544   0.550   9.132 -1.8249  1.5356  0.4633
  578MOL0     H77971   0.469   0.731   9.009  0.5324 -0.1141  0.4816
  578MOL0     H77972   0.323   0.644   8.946 -0.3795 -0.9934  0.5582
  578MOL0     H77973   0.262   0.608   9.205  3.5817 -0.9633 -0.1555
  578MOL0     H77974   0.372   0.747   9.226 -0.1414  1.3894  0.4010
  578MOL0     H77975   0.171   0.827   9.225  1.7618 -1.4902  0.8881
  578MOL0     H77976   0.242   0.862   9.065  2.3242 -0.4849  1.3887
  578MOL0     H77977   0.017   0.785   9.004  2.8867  1.7467  0.7797
  578MOL0     H77978   0.117   0.637   8.999  3.7580  2.9027 -0.1738
  578MOL0     H77979  -0.074   0.708   9.237 -0.6944  1.4191 -2.3055
  578MOL0     H77980   0.028   0.553   9.213 -1.8611 -2.9618 -1.0653
  578MOL0     H77981  -0.264   0.751   9.038  0.8914 -0.5119  3.1300
  578MOL0     H77982  -0.477   0.671   8.891 -2.5314 -1.0225  1.1583
  578MOL0     H77983  -0.453   0.518   8.803  1.1321 -3.2365  1.2368
  578MOL0     H77984  -0.641   0.569   8.959  0.4420 -0.9039 -3.2208
  578MOL0     H77985  -0.542   0.531   9.102 -0.3595  5.7256 -0.8973
  578MOL0     H77986  -0.506   0.302   9.006  1.5375  1.6675  0.1457
  578MOL0     H77987  -0.639   0.339   8.893 -0.5591 -1.2493  0.3985
  578MOL0     H77988  -0.667   0.378   9.192  1.3752  1.3880 -0.9148
  578MOL0     H77989  -0.726   0.232   9.112 -2.2495  0.3252  0.1577
  578MOL0     H77990  -1.034   0.540   9.028 -0.4976  1.3222  1.7530
  578MOL0     H77991  -1.340   0.602   9.173 -2.1945  2.2284 -0.3458
  578MOL0     H77992  -1.235   0.727   9.236 -0.5892  0.3385 -1.0374
  578MOL0     H77993  -1.218   0.653   9.066 -0.0678 -3.5168 -0.1239
  578MOL0     H77994  -1.335   0.626   9.714 -0.1047  0.2329  0.2844
  578MOL0     H77995  -1.448   0.821   9.831  0.0281  1.9885 -0.7266
  578MOL0     H77996  -1.608   0.913   9.937  1.9140 -0.2780  0.0869
  578MOL0     H77997  -1.526   1.063   9.886 -1.6120  1.7078  3.0680
  578MOL0     H77998  -1.746   1.185   9.882 -2.0452 -0.7397 -0.9948
  578MOL0     H77999  -1.833   1.046   9.907 -0.2921  0.2661  0.6883
  578MOL0     H78000  -1.657   1.186  10.099 -0.0806 -0.5266  0.7134
  578MOL0     H78001  -1.709   1.023  10.135  3.7845  0.9764  0.1977
  578MOL0     H78002  -1.910   1.273  10.095 -2.0419  0.4134  2.4358
  578MOL0     H78003  -1.960   1.102  10.091  0.5047 -2.1495  1.7749
  578MOL0     H78004  -1.909   1.078  10.317 -2.1913 -1.3677 -2.4107
  578MOL0     H78005  -2.009   1.211  10.295  0.0311  1.4035  0.7744
  578MOL0     H78006  -1.698   1.204  10.344  0.7440  0.8302  2.1313
  578MOL0     H78007  -1.781   1.353  10.300 -1.6038  1.9114  2.2112
  578MOL0     H78008  -1.758   1.271  10.575  2.1867  2.9854 -1.5024
  578MOL0     H78009  -1.917   1.197  10.526  1.3056 -1.2259  0.5592
  578MOL0     H78010  -1.839   1.491  10.470 -1.7019  0.6610 -1.5312
  578MOL0     H78011  -1.904   1.442  10.626 -0.8778 -0.6292 -0.1845
  578MOL0     H78012  -1.620   0.939   9.475 -2.0288 -3.0470 -0.6563
  578MOL0     H78013  -1.486   0.796   9.342  0.5950 -0.9919 -0.4768
  578MOL0     H78014  -1.024   0.367   9.485 -2.8531 -0.7352 -0.7517
  578MOL0     H78015  -0.841   0.312   9.341 -0.8244 -0.1857  0.2078
  578MOL0     H78016   0.906   0.435   8.635  1.4817  0.6212 -0.2672
  578MOL0     H78017   1.102   0.293   8.587 -3.1816  0.9710 -2.5779
  578MOL0     H78018   1.192  -0.190   8.658  0.3494 -1.5526 -0.8620
  578MOL0     H78019   1.284  -0.366   8.531 -0.6177 -0.3759 -1.9478
  578MOL0     H78020   1.480  -0.375   8.160 -0.7678 -0.0096 -0.1733
  578MOL0     H78021   1.551  -0.223   8.204  2.4389 -0.9869 -1.1034
  578MOL0     H78022   1.649  -0.513   8.253  1.4408 -0.6374  0.2929
  578MOL0     H78023   1.738  -0.385   8.309 -0.0261 -1.2343  0.0216
  578MOL0     H78024   1.859  -0.427   8.110 -0.6438 -0.7492  3.0564
  578MOL0     H78025   1.766  -0.284   8.070 -1.0263 -0.5380 -0.3473
  578MOL0     H78026   1.606  -0.438   7.948  1.9208  2.6841  0.6295
  578MOL0     H78027   1.697  -0.575   8.024 -0.3638  0.1237  0.8562
  578MOL0     H78028   1.950  -0.508   7.697  1.1012 -2.7704  0.4710
  578MOL0     H78029   1.602  -0.118   8.392 -0.5343 -3.1365 -1.6681
  578MOL0     H78030   1.495   0.078   8.497 -0.5751  0.3462 -2.1625
  579MOL0     O78031   2.100  11.163   6.138  0.3674  0.4506  0.5571
  579MOL0     C78032   2.202  11.229   6.132 -0.0448 -1.0737  0.6816
  579MOL0     O78033   2.227  11.326   6.043  0.2110  0.2989  0.4927
  579MOL0     C78034   2.119  11.351   5.962  0.2466 -0.5953  0.4971
  579MOL0     C78035   2.006  11.420   6.016 -0.2010  0.5595  0.6408
  579MOL0     C78036   1.885  11.435   5.941  0.4284 -0.2012  0.3217
  579MOL0     C78037   1.879  11.375   5.814  0.6028  0.0219 -0.1488
  579MOL0     O78038   1.755  11.389   5.752  0.3305 -0.0091  0.6260
  579MOL0     C78039   1.714  11.280   5.670  0.3665  0.1465 -0.1430
  579MOL0     C78040   1.566  11.250   5.684 -0.0101  0.2873  0.8115
  579MOL0     C78041   1.514  11.166   5.566 -0.0006  0.0378  0.5016
  579MOL0     C78042   1.408  11.064   5.625 -0.0968 -0.3972  0.1196
  579MOL0     C78043   1.319  10.998   5.525  0.5519  0.7383 -0.4135
  579MOL0     C78044   1.388  10.922   5.412 -0.1742  0.5124  0.9120
  579MOL0     C78045   1.285  10.839   5.334  0.3818  0.3969  0.0846
  579MOL0     C78046   1.284  10.859   5.181  0.9483  0.2898  0.3474
  579MOL0     N78047   1.214  10.760   5.098  1.6599  0.5132  0.1517
  579MOL0     C78048   1.082  10.747   5.083  0.7230 -0.7464 -0.0772
  579MOL0     C78049   1.066  10.614   5.054 -0.5106 -0.1220 -0.0513
  579MOL0     C78050   0.933  10.551   5.026  0.7985 -0.9924 -0.4741
  579MOL0     C78051   0.816  10.598   5.128  0.5476  0.2517  0.3582
  579MOL0     C78052   0.718  10.695   5.057 -0.5955  0.5638  0.3441
  579MOL0     C78053   0.583  10.630   5.029  0.5882 -0.0020  0.4128
  579MOL0     O78054   0.580  10.572   4.902 -0.4821  0.0429  0.7523
  579MOL0     C78055   0.458  10.531   4.854 -0.2436 -0.4645  0.1442
  579MOL0     C78056   0.473  10.462   4.732 -0.5985  0.4843  0.5822
  579MOL0     C78057   0.358  10.402   4.670  0.5555  1.2347 -0.5247
  579MOL0     C78058   0.401  10.309   4.555 -0.1379 -0.1812  0.3801
  579MOL0     C78059   0.232  10.412   4.728 -0.2385 -0.2403 -0.6638
  579MOL0     C78060   0.100  10.365   4.668 -0.2142 -1.2053  0.0690
  579MOL0     O78061   0.085  10.357   4.532  0.2233  0.9118 -0.0954
  579MOL0     C78062  -0.027  10.321   4.468  0.5237 -0.2178  0.0710
  579MOL0     C78063  -0.127  10.246   4.519 -0.1138  0.7470 -0.1778
  579MOL0     C78064  -0.247  10.223   4.450 -0.0632 -0.1582  0.3688
  579MOL0     C78065  -0.263  10.270   4.319 -0.8700 -0.8479 -0.2906
  579MOL0     O78066  -0.383  10.238   4.262  0.5044  0.5047  0.4434
  579MOL0     C78067  -0.418  10.298   4.138 -0.4898  0.6037  0.1325
  579MOL0     C78068  -0.558  10.232   4.101 -1.1159 -0.0034 -0.8817
  579MOL0     C78069  -0.616  10.300   3.976  0.9178 -0.6719  0.5923
  579MOL0     C78070  -0.769  10.273   3.955 -0.4522  0.7115 -0.1313
  579MOL0     C78071  -0.829  10.323   3.822  0.3855  0.0875  0.3496
  579MOL0     C78072  -0.974  10.280   3.793 -0.4975  0.0780  0.1617
  579MOL0     C78073  -1.014  10.328   3.657  0.8281 -0.2966 -0.1376
  579MOL0     C78074  -1.012  10.215   3.546  0.6295 -0.1745 -0.2214
  579MOL0    Cl78075  -1.102  10.078   3.605 -0.3410  0.0412 -0.1227
  579MOL0     C78076  -0.165  10.348   4.264 -0.0356 -0.3243 -0.2866
  579MOL0     C78077  -0.048  10.374   4.338 -0.8373  0.1578 -0.9544
  579MOL0     O78078   0.003  10.374   4.745 -0.9596  0.1748  0.0685
  579MOL0     C78079   0.234  10.468   4.856 -0.0225  0.3336 -0.4029
  579MOL0     C78080   0.335  10.526   4.913  0.5825 -0.3242  0.4227
  579MOL0     N78081   1.193  10.563   5.029 -0.5318  0.2669 -0.2971
  579MOL0     N78082   1.285  10.647   5.060 -0.4442 -0.5022  0.1548
  579MOL0     C78083   1.991  11.305   5.767 -0.2209 -0.5270 -0.2129
  579MOL0     C78084   2.108  11.286   5.845 -0.1653  0.2872  0.1767
  579MOL0     C78085   2.305  11.202   6.231  0.2248 -0.3352 -0.4323
  579MOL0     C78086   2.432  11.270   6.234 -0.7558 -0.1991  1.1325
  579MOL0     C78087   2.527  11.242   6.330  0.2827  0.2558  0.6608
  579MOL0     C78088   2.503  11.145   6.432 -0.6764 -0.1874 -0.0777
  579MOL0     O78089   2.598  11.108   6.529  0.0542 -0.2230 -0.5609
  579MOL0     C78090   2.725  11.174   6.534  0.0702 -0.1701  0.2389
  579MOL0     C78091   2.835  11.096   6.465 -0.3237  0.3992 -0.2379
  579MOL0     C78092   2.975  11.170   6.478 -0.3999 -0.4697  0.3303
  579MOL0     C78093   3.082  11.084   6.406  0.1395 -0.5315  0.1628
  579MOL0     C78094   3.202  11.156   6.369  0.3445  0.2347  0.1668
  579MOL0     C78095   3.309  11.211   6.358 -0.3413 -0.0367 -0.2552
  579MOL0     C78096   2.384  11.076   6.428 -0.2379  0.0784 -0.0909
  579MOL0     C78097   2.283  11.099   6.335 -0.2919  0.2720  0.2723
  579MOL0     H78098   2.022  11.457   6.117 -0.3450 -0.8926  1.2204
  579MOL0     H78099   1.798  11.491   5.975  0.4453 -1.0171  1.7734
  579MOL0     H78100   1.733  11.304   5.565  1.6641 -3.2204 -0.8115
  579MOL0     H78101   1.777  11.191   5.683  0.2609 -0.0691 -1.0498
  579MOL0     H78102   1.543  11.204   5.781  0.5678 -0.1517  0.7429
  579MOL0     H78103   1.514  11.346   5.681 -0.5978  0.0309  2.0315
  579MOL0     H78104   1.460  11.231   5.496 -3.3958 -3.0476 -0.0250
  579MOL0     H78105   1.588  11.112   5.507  0.5409  0.1260  1.0837
  579MOL0     H78106   1.452  10.984   5.684 -1.4179 -1.6265 -0.5139
  579MOL0     H78107   1.350  11.122   5.696 -0.8166 -0.8274 -0.1095
  579MOL0     H78108   1.269  10.918   5.580  1.9290  2.3096  3.5082
  579MOL0     H78109   1.242  11.069   5.494 -0.2201 -0.4262 -1.2431
  579MOL0     H78110   1.441  10.997   5.352 -1.5086  1.5479  0.9891
  579MOL0     H78111   1.456  10.844   5.448 -0.8971 -3.1055 -4.3647
  579MOL0     H78112   1.310  10.738   5.368 -1.4369 -0.0995  0.0302
  579MOL0     H78113   1.185  10.859   5.373 -0.2824 -1.9970 -0.2396
  579MOL0     H78114   1.386  10.844   5.143  0.3892 -0.3222 -0.9784
  579MOL0     H78115   1.253  10.960   5.153 -1.2959 -0.7367 -1.1462
  579MOL0     H78116   1.000  10.816   5.096 -0.7568 -2.2967 -0.8031
  579MOL0     H78117   0.899  10.566   4.924  2.7288 -0.8251 -1.1307
  579MOL0     H78118   0.940  10.443   5.043 -0.7236 -1.0065  0.2059
  579MOL0     H78119   0.876  10.655   5.200  2.9077 -1.1134 -0.4297
  579MOL0     H78120   0.774  10.516   5.187  2.6841  0.9899  3.1620
  579MOL0     H78121   0.759  10.743   4.967  0.4854  1.4509  1.2812
  579MOL0     H78122   0.694  10.776   5.127 -1.3584 -1.1773  2.1732
  579MOL0     H78123   0.515  10.716   5.029  1.1613  0.4844 -1.2642
  579MOL0     H78124   0.563  10.551   5.102  2.9524 -2.1264 -1.0779
  579MOL0     H78125   0.570  10.461   4.683 -0.9109  0.2111 -0.0432
  579MOL0     H78126   0.309  10.261   4.518 -2.9462  3.5899  1.8519
  579MOL0     H78127   0.442  10.364   4.470 -0.9088 -0.2049 -0.0226
  579MOL0     H78128   0.468  10.230   4.590 -1.7494 -0.6325  2.7261
  579MOL0     H78129  -0.116  10.188   4.611  1.8183  2.3546  0.7074
  579MOL0     H78130  -0.311  10.152   4.502  1.1746 -1.1178  0.6427
  579MOL0     H78131  -0.425  10.405   4.161  3.7182  0.1163  5.6524
  579MOL0     H78132  -0.351  10.297   4.052 -0.4934  1.3579  0.1120
  579MOL0     H78133  -0.534  10.126   4.089  0.1077  0.1781 -0.1971
  579MOL0     H78134  -0.629  10.235   4.185 -2.3604  2.1320 -1.9163
  579MOL0     H78135  -0.568  10.275   3.881  1.7169  0.0138  0.8042
  579MOL0     H78136  -0.590  10.405   3.986  4.8506 -1.3831 -0.4843
  579MOL0     H78137  -0.784  10.166   3.971 -0.7990  0.8558  0.5269
  579MOL0     H78138  -0.820  10.321   4.039  2.0488 -0.1726  2.0477
  579MOL0     H78139  -0.770  10.290   3.736 -1.8386  1.3442 -1.8077
  579MOL0     H78140  -0.828  10.432   3.814 -3.2313  0.2065 -0.2040
  579MOL0     H78141  -0.988  10.171   3.787  0.9076 -0.0265 -3.4484
  579MOL0     H78142  -1.043  10.313   3.872 -0.1356 -0.3202  0.6564
  579MOL0     H78143  -0.937  10.399   3.624  0.8519 -1.5583 -3.0612
  579MOL0     H78144  -1.105  10.387   3.668 -0.5339 -2.1592 -1.0146
  579MOL0     H78145  -0.907  10.184   3.539  1.1266  1.6313 -1.2241
  579MOL0     H78146  -1.050  10.257   3.453  0.0731  3.2737  1.4263
  579MOL0     H78147  -0.181  10.411   4.177  1.6292 -1.8957 -1.8356
  579MOL0     H78148   0.019  10.449   4.297 -1.4684  1.5558  0.4637
  579MOL0     H78149   0.137  10.481   4.904  0.1235 -0.1257  0.0325
  579MOL0     H78150   0.322  10.578   5.008 -1.1885 -0.9435  0.5548
  579MOL0     H78151   1.975  11.274   5.664  0.8774 -2.1246  0.0517
  579MOL0     H78152   2.191  11.226   5.807 -1.0118 -0.4846 -0.4988
  579MOL0     H78153   2.460  11.341   6.157  0.5142 -1.4714  0.3762
  579MOL0     H78154   2.628  11.280   6.318  0.7172 -1.7284 -3.3306
  579MOL0     H78155   2.715  11.278   6.502 -2.1982 -0.7145 -1.0326
  579MOL0     H78156   2.732  11.168   6.643  0.8576 -1.1670  0.1522
  579MOL0     H78157   2.813  11.086   6.358 -0.7211  0.6450 -0.1823
  579MOL0     H78158   2.850  10.993   6.501  0.2235  0.1673 -1.0963
  579MOL0     H78159   3.005  11.173   6.583 -1.2866 -4.4991  0.8435
  579MOL0     H78160   2.975  11.268   6.429 -1.4239 -0.1980  0.8467
  579MOL0     H78161   3.042  11.050   6.310  0.4936 -0.1246 -0.1291
  579MOL0     H78162   3.094  10.993   6.466 -0.8531 -1.0018 -0.3239
  579MOL0     H78163   3.407  11.253   6.364  1.0355 -3.0143 -0.2079
  579MOL0     H78164   2.367  10.995   6.498 -0.8351 -0.3597 -0.7305
  579MOL0     H78165   2.187  11.050   6.327 -1.6664  2.9853 -1.4137
  580MOL0     O78166   1.597   0.426   4.349 -0.3934  0.9338 -0.2259
  580MOL0     C78167   1.661   0.388   4.450  1.1852  0.2509  0.0787
  580MOL0     O78168   1.617   0.279   4.522  0.7217  0.4868 -0.3626
  580MOL0     C78169   1.487   0.241   4.494  0.2077  1.1648  0.5891
  580MOL0     C78170   1.377   0.304   4.556  0.4554 -0.0705 -0.3377
  580MOL0     C78171   1.244   0.262   4.522 -0.4594  0.1664 -0.1035
  580MOL0     C78172   1.223   0.165   4.424  0.0637 -0.0693 -0.0977
  580MOL0     O78173   1.087   0.144   4.392 -0.3910 -0.1506 -0.1324
  580MOL0     C78174   1.045   0.015   4.343 -0.8409 -0.0664 -0.0543
  580MOL0     C78175   0.922   0.034   4.256 -0.7880  0.1752  0.9276
  580MOL0     C78176   0.849  -0.101   4.214  0.3964  1.5166  1.0854
  580MOL0     C78177   0.737  -0.069   4.123  0.1427 -0.3929 -0.1080
  580MOL0     C78178   0.653  -0.200   4.094  0.2766 -0.1182 -0.1417
  580MOL0     C78179   0.555  -0.180   3.975  0.3319  0.5057 -0.2087
  580MOL0     C78180   0.478  -0.310   3.959 -0.4177 -0.8581 -0.0075
  580MOL0     C78181   0.393  -0.299   3.837  0.4552 -0.0739 -0.0516
  580MOL0     N78182   0.265  -0.218   3.832  0.0956  0.3062 -0.0174
  580MOL0     C78183   0.242  -0.089   3.869  0.2664 -0.2564 -0.2247
  580MOL0     C78184   0.126  -0.053   3.809 -0.1519 -0.4475 -0.2956
  580MOL0     C78185   0.072   0.079   3.829  0.4377  0.3015 -0.2495
  580MOL0     C78186  -0.009   0.099   3.958  0.1004 -0.8822 -0.0268
  580MOL0     C78187  -0.001   0.241   4.000  0.1445 -0.6181 -0.3542
  580MOL0     C78188  -0.105   0.279   4.109 -0.4161 -0.0742 -0.7267
  580MOL0     O78189  -0.240   0.256   4.063 -0.3009 -0.1247 -0.3143
  580MOL0     C78190  -0.341   0.223   4.151  0.4803  0.3812 -0.4790
  580MOL0     C78191  -0.453   0.162   4.094  0.1578 -0.7843 -0.4930
  580MOL0     C78192  -0.562   0.102   4.169 -0.3842  0.1966  0.6119
  580MOL0     C78193  -0.671   0.035   4.082 -0.7218 -0.0352  0.1896
  580MOL0     C78194  -0.557   0.108   4.311  0.2815 -0.0003  0.0142
  580MOL0     C78195  -0.656   0.052   4.405 -0.4258  0.2236 -0.8500
  580MOL0     O78196  -0.781   0.027   4.355  0.4147 -0.1882 -0.1399
  580MOL0     C78197  -0.882  -0.027   4.425  0.4817 -0.6478  0.4859
  580MOL0     C78198  -0.866  -0.135   4.510 -0.0601 -0.1391  0.4340
  580MOL0     C78199  -0.965  -0.190   4.585 -0.7164 -0.9183 -0.1253
  580MOL0     C78200  -1.092  -0.145   4.579 -0.1687  0.2618  0.8672
  580MOL0     O78201  -1.197  -0.197   4.654 -0.2719  0.2932  0.6453
  580MOL0     C78202  -1.332  -0.189   4.591 -1.5484  0.2027 -0.2219
  580MOL0     C78203  -1.419  -0.303   4.635  0.8857  0.0347 -0.0089
  580MOL0     C78204  -1.429  -0.299   4.793  0.2343  0.0358 -0.8825
  580MOL0     C78205  -1.525  -0.411   4.839  0.4677 -0.9652  1.4328
  580MOL0     C78206  -1.568  -0.386   4.990 -0.8785 -0.3291  0.4448
  580MOL0     C78207  -1.452  -0.345   5.088 -0.4375  0.4715 -0.4237
  580MOL0     C78208  -1.513  -0.328   5.232 -0.9514 -0.0549 -0.0816
  580MOL0     C78209  -1.626  -0.229   5.248 -0.6990 -0.6290  0.0599
  580MOL0    Cl78210  -1.566  -0.073   5.184 -0.1139 -0.1235 -0.3832
  580MOL0     C78211  -1.112  -0.033   4.493  0.2988 -0.6082 -0.0050
  580MOL0     C78212  -1.007   0.025   4.424  0.9015  0.1950 -0.1463
  580MOL0     O78213  -0.630   0.050   4.526  0.0001  0.0513  0.5952
  580MOL0     C78214  -0.444   0.176   4.365  0.1480  0.2949  0.3766
  580MOL0     C78215  -0.340   0.224   4.289 -0.0184 -0.2770 -0.8498
  580MOL0     N78216   0.065  -0.164   3.755 -0.0557 -0.2069 -0.4239
  580MOL0     N78217   0.150  -0.257   3.770  0.9735 -0.7375  0.6112
  580MOL0     C78218   1.336   0.100   4.366 -0.2288  0.3004  0.0490
  580MOL0     C78219   1.470   0.126   4.408  0.2879  0.0188  0.3596
  580MOL0     C78220   1.771   0.475   4.494 -0.3343  1.3255 -1.1441
  580MOL0     C78221   1.832   0.456   4.618  1.2799 -0.6324  0.3959
  580MOL0     C78222   1.945   0.527   4.665  0.5082 -0.3190 -0.1759
  580MOL0     C78223   1.993   0.631   4.584  0.2850  0.0296 -0.1488
  580MOL0     O78224   2.116   0.692   4.612  0.2696 -0.2424  0.6281
  580MOL0     C78225   2.091   0.806   4.695 -0.0457 -0.2846  0.2612
  580MOL0     C78226   2.219   0.864   4.757 -0.8583 -0.3866  0.2658
  580MOL0     C78227   2.328   0.902   4.651  0.0386 -0.5962  0.1457
  580MOL0     C78228   2.271   0.985   4.539 -0.0294 -0.1164 -0.2572
  580MOL0     C78229   2.374   1.064   4.476 -0.2484 -0.7703  0.8587
  580MOL0     C78230   2.467   1.123   4.421 -0.3079 -0.7455 -0.0495
  580MOL0     C78231   1.938   0.656   4.461  0.2348 -0.4941 -0.5174
  580MOL0     C78232   1.822   0.584   4.416  0.1975  0.0014 -0.5030
  580MOL0     H78233   1.393   0.395   4.613 -0.3059  0.0116 -0.2424
  580MOL0     H78234   1.158   0.302   4.576 -0.1364 -2.8509  3.0270
  580MOL0     H78235   1.128  -0.031   4.288  0.6073  0.4666  1.5990
  580MOL0     H78236   1.025  -0.042   4.435  1.1604  2.2267  1.9304
  580MOL0     H78237   0.848   0.095   4.309 -1.9425 -0.5654  0.2159
  580MOL0     H78238   0.942   0.092   4.166 -0.0795 -2.6844 -0.8928
  580MOL0     H78239   0.922  -0.158   4.157 -0.0515  1.6064  0.4093
  580MOL0     H78240   0.808  -0.157   4.299  1.1778  1.7927  1.6584
  580MOL0     H78241   0.664   0.003   4.163 -1.0474 -2.2212  1.1955
  580MOL0     H78242   0.780  -0.030   4.031 -0.1969 -0.5196 -0.3238
  580MOL0     H78243   0.724  -0.283   4.079  0.4327 -0.0006 -0.0597
  580MOL0     H78244   0.599  -0.218   4.188 -0.7591  2.6556 -0.1376
  580MOL0     H78245   0.480  -0.101   3.984  1.4752  1.9162 -2.0808
  580MOL0     H78246   0.607  -0.149   3.883 -1.3974  1.1362 -1.0193
  580MOL0     H78247   0.539  -0.400   3.951  0.0117 -0.4057 -3.3329
  580MOL0     H78248   0.426  -0.328   4.054 -0.7496  1.9422  0.4318
  580MOL0     H78249   0.369  -0.406   3.826  2.1570 -0.4401 -0.4894
  580MOL0     H78250   0.443  -0.277   3.742 -1.3903 -1.1471 -1.3565
  580MOL0     H78251   0.301  -0.024   3.933  1.3208 -2.2768  0.9634
  580MOL0     H78252   0.157   0.148   3.820  1.3609 -0.7863 -0.2159
  580MOL0     H78253   0.004   0.104   3.747 -0.1507 -1.3047 -0.2852
  580MOL0     H78254   0.032   0.037   4.038  2.6186 -0.5985 -1.0322
  580MOL0     H78255  -0.115   0.074   3.943 -0.1897 -1.8897  2.8792
  580MOL0     H78256  -0.019   0.311   3.918  3.1913 -0.4576 -1.0348
  580MOL0     H78257   0.097   0.265   4.043  1.8376 -4.6610 -1.5272
  580MOL0     H78258  -0.090   0.387   4.119  0.2216 -0.1818 -0.4948
  580MOL0     H78259  -0.076   0.218   4.195  1.4678 -0.4100 -1.5460
  580MOL0     H78260  -0.461   0.156   3.986 -1.8592  1.6931 -0.5805
  580MOL0     H78261  -0.713  -0.056   4.127  2.9671 -3.1319 -2.0514
  580MOL0     H78262  -0.754   0.102   4.058  0.8910  0.7665 -4.1244
  580MOL0     H78263  -0.619   0.001   3.992  1.8951  2.5817  0.5739
  580MOL0     H78264  -0.769  -0.184   4.515  1.8464  3.2034 -0.1964
  580MOL0     H78265  -0.949  -0.263   4.664 -1.2049 -2.4212 -1.3797
  580MOL0     H78266  -1.384  -0.099   4.624  0.6528  0.8079  1.9068
  580MOL0     H78267  -1.322  -0.200   4.482 -1.2044 -0.9945 -0.0812
  580MOL0     H78268  -1.517  -0.286   4.589  0.8081  1.2030  0.5319
  580MOL0     H78269  -1.371  -0.397   4.608 -0.9529 -1.4653  1.6342
  580MOL0     H78270  -1.470  -0.199   4.809 -1.2217 -0.3534 -1.9416
  580MOL0     H78271  -1.333  -0.321   4.840 -0.1035 -2.5856 -1.2740
  580MOL0     H78272  -1.602  -0.430   4.764  0.8040 -1.8603  1.3001
  580MOL0     H78273  -1.466  -0.502   4.854  1.8752 -0.4578 -0.6173
  580MOL0     H78274  -1.626  -0.464   5.040 -2.1355  1.9955  2.8827
  580MOL0     H78275  -1.643  -0.307   4.986 -0.3635  0.1304 -0.7384
  580MOL0     H78276  -1.383  -0.429   5.104 -0.9800 -0.1881 -1.4336
  580MOL0     H78277  -1.401  -0.252   5.059  3.2498 -1.5382 -1.0786
  580MOL0     H78278  -1.434  -0.289   5.297 -0.7224  1.2370 -1.0894
  580MOL0     H78279  -1.541  -0.426   5.273  1.2426 -2.0290 -2.9176
  580MOL0     H78280  -1.651  -0.217   5.353  0.0380  5.5170 -0.1105
  580MOL0     H78281  -1.712  -0.270   5.194  0.5448 -1.2756 -1.5376
  580MOL0     H78282  -1.210   0.013   4.489 -0.2546 -1.7310  0.1475
  580MOL0     H78283  -1.023   0.117   4.368  0.7314  1.9887  2.6701
  580MOL0     H78284  -0.433   0.186   4.473  0.1048  0.8320  0.3339
  580MOL0     H78285  -0.251   0.256   4.341  0.7577  3.8176 -4.1111
  580MOL0     H78286   1.327   0.031   4.283 -0.1252 -3.6858  3.0354
  580MOL0     H78287   1.555   0.074   4.363  0.5797 -0.3910  1.3445
  580MOL0     H78288   1.810   0.368   4.677  0.7259  0.1412  1.3834
  580MOL0     H78289   2.007   0.490   4.746  1.3740 -2.2863 -1.6677
  580MOL0     H78290   2.039   0.882   4.636  1.1989  1.1370  0.9162
  580MOL0     H78291   2.033   0.782   4.785 -2.2180  0.0693 -0.9866
  580MOL0     H78292   2.268   0.790   4.821  2.6127  0.1880 -1.4685
  580MOL0     H78293   2.191   0.951   4.816 -2.4607 -0.7059  0.0028
  580MOL0     H78294   2.370   0.807   4.617 -0.0253 -1.0638  1.3131
  580MOL0     H78295   2.418   0.952   4.687 -0.6949 -0.0216  1.2748
  580MOL0     H78296   2.191   1.046   4.580  1.1107  1.7939 -0.7423
  580MOL0     H78297   2.227   0.919   4.464 -2.9273  1.4886 -0.1061
  580MOL0     H78298   2.560   1.157   4.379 -0.0980  1.2779  1.9095
  580MOL0     H78299   1.986   0.720   4.388 -1.7752  0.8318 -0.7539
  580MOL0     H78300   1.781   0.607   4.319  2.0427  0.5977 -1.1936
  581MOL0     O78301   0.042   8.130   8.811  0.5416 -0.2845 -0.3858
  581MOL0     C78302   0.001   8.119   8.693 -0.8627  0.5979  0.2208
  581MOL0     O78303   0.075   8.154   8.586 -0.1339  0.4861 -0.2596
  581MOL0     C78304   0.206   8.180   8.608 -0.3779  0.6007 -0.7046
  581MOL0     C78305   0.304   8.099   8.552 -0.5392 -0.2584 -0.1025
  581MOL0     C78306   0.438   8.119   8.584  0.1481 -0.1339 -0.0697
  581MOL0     C78307   0.480   8.233   8.659  0.3043  0.4784 -0.5794
  581MOL0     O78308   0.617   8.233   8.691  0.1926  0.0928  1.0495
  581MOL0     C78309   0.678   8.343   8.755 -0.5508 -0.6236  0.0792
  581MOL0     C78310   0.821   8.352   8.699 -0.7202 -0.6843  0.2025
  581MOL0     C78311   0.826   8.408   8.550  0.7806  0.5448 -0.3712
  581MOL0     C78312   0.777   8.552   8.528 -0.6854  0.1247 -0.0961
  581MOL0     C78313   0.791   8.602   8.387 -0.0024 -0.9193  0.4435
  581MOL0     C78314   0.686   8.550   8.281 -0.7450  0.8879 -0.2676
  581MOL0     C78315   0.679   8.651   8.163 -0.0658 -0.5357 -0.0544
  581MOL0     C78316   0.615   8.569   8.050  0.5779  0.0585 -0.6786
  581MOL0     N78317   0.548   8.646   7.942  0.5091 -0.1148  1.2143
  581MOL0     C78318   0.422   8.613   7.887  0.0971  0.1080 -0.9556
  581MOL0     C78319   0.400   8.708   7.795 -0.6461 -0.0240 -0.2386
  581MOL0     C78320   0.281   8.734   7.707 -0.9674  0.3292  0.2833
  581MOL0     C78321   0.182   8.814   7.789 -0.9101  0.4180  0.3474
  581MOL0     C78322   0.046   8.817   7.712 -0.2555 -0.0032  0.4399
  581MOL0     C78323  -0.041   8.940   7.749  0.5709  0.1902  1.2855
  581MOL0     O78324  -0.160   8.930   7.667 -1.0639 -0.3165  0.0563
  581MOL0     C78325  -0.276   8.977   7.734 -0.1950 -0.7007 -0.0659
  581MOL0     C78326  -0.281   9.110   7.782 -0.8236  0.7017  1.1243
  581MOL0     C78327  -0.409   9.164   7.822 -0.2704 -0.0276 -0.0198
  581MOL0     C78328  -0.410   9.304   7.874  0.3557  0.2893 -0.6025
  581MOL0     C78329  -0.520   9.084   7.822  0.6656  1.4866  0.0617
  581MOL0     C78330  -0.657   9.127   7.874 -0.1223  0.5397 -0.4128
  581MOL0     O78331  -0.766   9.051   7.833 -0.1079  0.3661  0.2573
  581MOL0     C78332  -0.877   9.083   7.902 -0.0864  1.1516 -0.0963
  581MOL0     C78333  -0.905   9.010   8.019 -0.5488 -0.0998  0.5834
  581MOL0     C78334  -1.017   9.040   8.095 -0.1671  0.9173 -0.3301
  581MOL0     C78335  -1.110   9.137   8.052 -0.1419 -0.0293 -0.3956
  581MOL0     O78336  -1.240   9.150   8.106 -0.1352 -0.6101 -0.4434
  581MOL0     C78337  -1.287   9.050   8.198  0.0384 -0.7190 -0.1456
  581MOL0     C78338  -1.437   9.060   8.205  0.6346  0.7594  0.9379
  581MOL0     C78339  -1.504   8.979   8.320 -0.2000  0.1099  0.2292
  581MOL0     C78340  -1.490   8.826   8.304 -0.1581 -0.6318 -0.8147
  581MOL0     C78341  -1.544   8.755   8.432  0.3412 -0.9042  0.5531
  581MOL0     C78342  -1.451   8.772   8.555  0.3718 -0.1729 -0.3630
  581MOL0     C78343  -1.525   8.731   8.691  0.0989  0.0451 -0.0400
  581MOL0     C78344  -1.610   8.608   8.693 -0.4952 -0.2825 -0.3130
  581MOL0    Cl78345  -1.527   8.448   8.670 -0.0653  0.1916 -0.3025
  581MOL0     C78346  -1.078   9.216   7.941 -0.3728 -0.1435  0.5659
  581MOL0     C78347  -0.974   9.176   7.853 -0.5525  0.4861  0.1594
  581MOL0     O78348  -0.659   9.205   7.965 -0.3371 -0.2154 -0.2651
  581MOL0     C78349  -0.508   8.946   7.781  0.1931 -0.2300  0.0408
  581MOL0     C78350  -0.386   8.898   7.735  0.3679  0.2399 -0.8709
  581MOL0     N78351   0.504   8.800   7.790 -0.5778  0.8546  0.5766
  581MOL0     N78352   0.587   8.762   7.884 -0.3593 -0.5447  0.5989
  581MOL0     C78353   0.385   8.321   8.702 -0.8319 -0.1863  0.6935
  581MOL0     C78354   0.249   8.295   8.690 -0.3443 -0.9991  0.0924
  581MOL0     C78355  -0.119   8.035   8.673 -0.9772  0.2280  0.0327
  581MOL0     C78356  -0.197   7.988   8.778 -0.3859 -0.4348  1.0152
  581MOL0     C78357  -0.315   7.920   8.750 -0.5590 -0.3422  0.1578
  581MOL0     C78358  -0.354   7.896   8.616  0.2155  0.4400 -0.0984
  581MOL0     O78359  -0.458   7.820   8.579  0.7697 -0.7828  0.1706
  581MOL0     C78360  -0.533   7.760   8.682 -0.3974  0.0776 -0.4063
  581MOL0     C78361  -0.458   7.645   8.735  0.1212  0.6317  0.3659
  581MOL0     C78362  -0.530   7.547   8.829  0.4369  0.5643  0.0275
  581MOL0     C78363  -0.660   7.469   8.778 -0.2323  0.1108 -0.2158
  581MOL0     C78364  -0.629   7.359   8.689  0.1462 -0.0111 -0.2814
  581MOL0     C78365  -0.569   7.287   8.610 -0.0008  0.3325 -0.2321
  581MOL0     C78366  -0.277   7.945   8.515 -0.9719  1.4769  0.1231
  581MOL0     C78367  -0.164   8.019   8.537 -0.3890 -0.8402 -0.1370
  581MOL0     H78368   0.271   8.021   8.484 -0.4376  0.3627 -0.8797
  581MOL0     H78369   0.501   8.039   8.544  1.2423  1.0994 -0.9039
  581MOL0     H78370   0.615   8.433   8.753  0.0289 -0.1529  1.6367
  581MOL0     H78371   0.695   8.318   8.860  0.8292 -2.4863 -0.5340
  581MOL0     H78372   0.875   8.417   8.769  0.3589 -2.4645  1.0978
  581MOL0     H78373   0.867   8.253   8.705  2.1710  0.2085 -3.3728
  581MOL0     H78374   0.932   8.397   8.526  0.9470 -0.1966  0.6125
  581MOL0     H78375   0.770   8.330   8.498  1.2751 -0.7933  1.0044
  581MOL0     H78376   0.675   8.561   8.566 -0.1392  0.8294  1.2878
  581MOL0     H78377   0.841   8.622   8.582 -0.4621  0.8357 -1.2583
  581MOL0     H78378   0.784   8.710   8.400  1.0473 -0.6090 -1.1916
  581MOL0     H78379   0.893   8.581   8.353  0.4899  1.7439  0.0633
  581MOL0     H78380   0.722   8.450   8.257  1.4815  0.0985  4.9798
  581MOL0     H78381   0.591   8.551   8.336 -1.8054  0.0858 -2.0174
  581MOL0     H78382   0.626   8.741   8.195  1.7157  0.5662 -0.0875
  581MOL0     H78383   0.782   8.676   8.137  0.3603 -2.8523 -0.9095
  581MOL0     H78384   0.542   8.498   8.090  1.2803 -0.4230 -0.2196
  581MOL0     H78385   0.692   8.509   8.000 -0.7340 -1.1525 -1.3348
  581MOL0     H78386   0.359   8.533   7.924 -0.9277  0.9472 -0.8471
  581MOL0     H78387   0.313   8.781   7.614 -1.2867 -0.8390 -0.4426
  581MOL0     H78388   0.233   8.641   7.675 -0.4196  1.0764 -3.0487
  581MOL0     H78389   0.216   8.918   7.796  2.6114 -0.6425  1.2954
  581MOL0     H78390   0.163   8.777   7.890 -1.5381  0.6169  0.3072
  581MOL0     H78391  -0.013   8.724   7.723 -1.9662  1.2189  2.4328
  581MOL0     H78392   0.064   8.824   7.604  0.9465 -2.7798  0.3740
  581MOL0     H78393   0.003   9.039   7.731 -0.3626  0.2412 -1.0920
  581MOL0     H78394  -0.084   8.931   7.849  0.6792  0.9352  1.4034
  581MOL0     H78395  -0.189   9.167   7.787 -1.3780  1.6417  0.8795
  581MOL0     H78396  -0.340   9.376   7.830  2.3733 -2.2099 -1.7230
  581MOL0     H78397  -0.505   9.351   7.848  2.3816  4.7415 -1.0342
  581MOL0     H78398  -0.396   9.299   7.983 -2.0137  3.2204 -0.0089
  581MOL0     H78399  -0.836   8.940   8.064 -0.3180 -0.0773  0.2655
  581MOL0     H78400  -1.040   8.979   8.182 -3.7718 -1.9783 -2.9587
  581MOL0     H78401  -1.260   8.950   8.161  2.6308  0.8063 -2.8212
  581MOL0     H78402  -1.253   9.073   8.299 -1.6424  3.6796 -0.3622
  581MOL0     H78403  -1.453   9.167   8.212  0.3837  0.9273 -1.4474
  581MOL0     H78404  -1.479   9.030   8.108  3.7782  1.1148 -0.6598
  581MOL0     H78405  -1.613   8.994   8.322 -0.5169 -1.9148  1.6712
  581MOL0     H78406  -1.451   9.010   8.410  0.3470 -1.5919  0.5373
  581MOL0     H78407  -1.556   8.797   8.222  1.1838  2.1012 -3.0078
  581MOL0     H78408  -1.385   8.796   8.291 -0.6594 -2.5907 -0.6869
  581MOL0     H78409  -1.544   8.652   8.397 -2.6306 -0.0045 -2.6992
  581MOL0     H78410  -1.646   8.786   8.457  1.3784  1.2798  2.4734
  581MOL0     H78411  -1.366   8.706   8.539  1.7281  1.7135 -1.3308
  581MOL0     H78412  -1.395   8.866   8.553 -1.3156  0.9569  1.6218
  581MOL0     H78413  -1.600   8.810   8.698  1.0028  1.1068 -1.7086
  581MOL0     H78414  -1.458   8.726   8.778  0.4666  1.4032 -0.2276
  581MOL0     H78415  -1.694   8.615   8.623  1.1552 -0.0473 -2.3978
  581MOL0     H78416  -1.656   8.596   8.791  0.1333 -0.1546  0.0013
  581MOL0     H78417  -1.148   9.289   7.901  1.9991  1.6335 -0.5978
  581MOL0     H78418  -0.948   9.227   7.761  1.5893 -0.4509  0.1889
  581MOL0     H78419  -0.590   8.875   7.774  0.3584 -1.1400  4.3304
  581MOL0     H78420  -0.371   8.792   7.713 -0.5340 -0.1277  0.1923
  581MOL0     H78421   0.415   8.401   8.768  0.1366  1.5844 -1.7725
  581MOL0     H78422   0.183   8.378   8.713  1.1027  1.6245 -4.0598
  581MOL0     H78423  -0.176   8.007   8.883 -1.2343  2.0200  0.8007
  581MOL0     H78424  -0.374   7.888   8.835 -0.2382 -0.9234  0.1633
  581MOL0     H78425  -0.544   7.833   8.763  2.4116  0.6379 -0.4092
  581MOL0     H78426  -0.623   7.721   8.634 -1.2271  1.7153 -0.2519
  581MOL0     H78427  -0.363   7.674   8.781 -0.1374  1.7688  0.2126
  581MOL0     H78428  -0.424   7.588   8.648 -1.0826 -0.3916  0.5356
  581MOL0     H78429  -0.558   7.594   8.924  0.0830 -0.5184  0.4769
  581MOL0     H78430  -0.459   7.470   8.858 -0.1218  0.2201  0.5116
  581MOL0     H78431  -0.720   7.543   8.724  0.1136  1.2808  0.9549
  581MOL0     H78432  -0.711   7.427   8.865 -0.2348  1.7477  0.6095
  581MOL0     H78433  -0.516   7.230   8.537  1.1894  2.7980 -1.4129
  581MOL0     H78434  -0.304   7.914   8.415  0.2582  1.4501 -0.2227
  581MOL0     H78435  -0.098   8.057   8.461  0.3378 -1.4331  0.1867
  582MOL0     O78436  10.333   7.695   8.846  0.5181 -0.4358 -0.3223
  582MOL0     C78437  10.385   7.612   8.768 -0.0587  0.0143 -0.6937
  582MOL0     O78438  10.429   7.638   8.647 -0.0554  0.1239  0.1267
  582MOL0     C78439  10.442   7.760   8.587 -0.6080 -0.0996 -0.2831
  582MOL0     C78440  10.527   7.750   8.472 -0.1285  0.9155 -0.2882
  582MOL0     C78441  10.561   7.865   8.396 -0.6998  0.8687 -0.1200
  582MOL0     C78442  10.504   7.982   8.432  0.4198  0.7700  0.1938
  582MOL0     O78443  10.557   8.091   8.372 -0.1119  0.2319 -0.3709
  582MOL0     C78444  10.478   8.219   8.379 -0.1269  0.4111 -0.5461
  582MOL0     C78445  10.555   8.304   8.281 -0.0088  0.4971 -0.2315
  582MOL0     C78446  10.689   8.346   8.336 -0.4143  0.1694 -0.1033
  582MOL0     C78447  10.748   8.455   8.256  0.4438 -0.2533  0.1618
  582MOL0     C78448  10.898   8.452   8.281 -0.0622  0.3628  0.2713
  582MOL0     C78449  10.984   8.564   8.213  0.5026  1.0536 -0.3754
  582MOL0     C78450  11.131   8.519   8.197  1.1044  0.9526  0.3935
  582MOL0     C78451  11.225   8.615   8.129  0.4444  0.7373 -0.1582
  582MOL0     N78452  11.350   8.550   8.094  0.5021 -0.1270 -0.3739
  582MOL0     C78453  11.412   8.466   8.181 -0.1182 -0.4570  0.0683
  582MOL0     C78454  11.494   8.388   8.102 -0.0391 -0.4463 -0.2301
  582MOL0     C78455  11.591   8.280   8.149  0.9081  0.1694  0.5527
  582MOL0     C78456  11.523   8.138   8.151 -0.1476 -0.6566 -0.5283
  582MOL0     C78457  11.375   8.133   8.096 -0.4953 -0.0849  0.8843
  582MOL0     C78458  11.372   8.119   7.940 -0.6103  0.1898 -0.7069
  582MOL0     O78459  11.237   8.078   7.907  0.3819 -0.4914  0.2837
  582MOL0     C78460  11.138   8.177   7.885 -0.0635 -0.1939  0.6422
  582MOL0     C78461  11.155   8.295   7.817  0.4452 -0.0008 -0.1669
  582MOL0     C78462  11.055   8.405   7.816 -0.4737  0.0879  0.4243
  582MOL0     C78463  11.088   8.526   7.730 -0.0572 -0.5538  0.2696
  582MOL0     C78464  10.932   8.386   7.880 -0.1152  0.1462  0.8107
  582MOL0     C78465  10.823   8.493   7.882  0.0694 -0.5402 -0.4572
  582MOL0     O78466  10.696   8.445   7.907 -0.0069 -0.1007 -0.3720
  582MOL0     C78467  10.596   8.536   7.894 -0.2317  0.1781 -0.0399
  582MOL0     C78468  10.499   8.521   7.791 -0.0150 -0.3756 -1.0344
  582MOL0     C78469  10.392   8.607   7.781  0.5370  0.1743 -0.1942
  582MOL0     C78470  10.361   8.692   7.888  0.5125  0.4168 -0.4293
  582MOL0     O78471  10.245   8.755   7.895  0.7526  0.1142 -0.5261
  582MOL0     C78472  10.221   8.848   7.785 -0.1104 -0.4637 -0.8686
  582MOL0     C78473  10.093   8.917   7.810  0.0803 -0.6921  0.1467
  582MOL0     C78474  10.074   9.030   7.715 -0.1524 -0.8949  0.8363
  582MOL0     C78475   9.936   9.101   7.717 -0.1168 -0.1445  0.4341
  582MOL0     C78476   9.923   9.202   7.602 -0.3569  0.1078  0.9214
  582MOL0     C78477  10.037   9.304   7.592  1.2084 -0.0562 -0.0028
  582MOL0     C78478   9.990   9.428   7.510  0.3384 -0.7186 -0.5920
  582MOL0     C78479  10.104   9.524   7.471  0.2246 -0.2369 -0.2447
  582MOL0    Cl78480  10.201   9.580   7.615 -0.3019  0.1357  0.0762
  582MOL0     C78481  10.453   8.692   8.002 -0.2354  0.1653  0.3256
  582MOL0     C78482  10.571   8.623   7.996 -0.0614  0.2273 -0.0601
  582MOL0     O78483  10.846   8.614   7.857 -0.2833 -0.3009 -0.3990
  582MOL0     C78484  10.911   8.256   7.941 -0.5949  0.3216  0.2856
  582MOL0     C78485  11.012   8.155   7.948 -0.2233 -0.3516  0.4744
  582MOL0     N78486  11.488   8.430   7.965  0.2720  0.3578 -0.9668
  582MOL0     N78487  11.401   8.533   7.973 -0.1784 -0.9858 -0.2144
  582MOL0     C78488  10.415   7.992   8.539  0.4246  0.5141  0.2486
  582MOL0     C78489  10.383   7.885   8.616 -0.0111 -0.3319 -0.2820
  582MOL0     C78490  10.375   7.468   8.821 -0.1751 -0.7091  0.4109
  582MOL0     C78491  10.328   7.434   8.954  0.6912  0.6228  0.0712
  582MOL0     C78492  10.311   7.302   8.998 -0.3737 -0.3113 -0.4835
  582MOL0     C78493  10.360   7.196   8.908 -0.3669  0.1806 -0.1343
  582MOL0     O78494  10.356   7.067   8.963 -0.5323  0.1559 -0.0393
  582MOL0     C78495  10.367   6.956   8.868  0.9379 -0.2820  0.9000
  582MOL0     C78496  10.367   6.823   8.944  0.1733 -0.5084  0.4925
  582MOL0     C78497  10.235   6.784   9.015 -0.4394  0.2129  0.8644
  582MOL0     C78498  10.226   6.627   9.020 -0.1299  0.2775  0.2413
  582MOL0     C78499  10.332   6.563   9.100  0.2383 -0.5244  0.2041
  582MOL0     C78500  10.421   6.520   9.168  0.3893 -0.4258 -0.3512
  582MOL0     C78501  10.405   7.230   8.780 -0.3821 -1.3497 -0.4284
  582MOL0     C78502  10.407   7.365   8.737  0.3667  0.4013  0.1416
  582MOL0     H78503  10.564   7.649   8.457 -3.5793 -0.3309 -1.5836
  582MOL0     H78504  10.642   7.864   8.324 -1.9464 -0.3751 -1.5943
  582MOL0     H78505  10.372   8.200   8.362 -0.3072 -2.3566  2.5989
  582MOL0     H78506  10.481   8.253   8.483 -3.0974 -1.7954  0.4094
  582MOL0     H78507  10.584   8.248   8.192  0.3729 -1.4065  1.0406
  582MOL0     H78508  10.500   8.394   8.252  0.9757  1.6548  1.3260
  582MOL0     H78509  10.677   8.379   8.440  0.4715  3.2467 -0.8853
  582MOL0     H78510  10.742   8.250   8.335 -3.2128 -1.5085 -1.9113
  582MOL0     H78511  10.728   8.443   8.149 -0.2018  2.9862 -0.2097
  582MOL0     H78512  10.703   8.547   8.295  2.8424  0.0217  2.6125
  582MOL0     H78513  10.920   8.460   8.388 -3.8701 -1.9868  1.3874
  582MOL0     H78514  10.926   8.352   8.246 -1.4916 -1.0210  2.8445
  582MOL0     H78515  10.940   8.610   8.123  0.1829  4.7824  1.4907
  582MOL0     H78516  10.998   8.653   8.275  0.8889  1.5989 -1.2205
  582MOL0     H78517  11.172   8.507   8.298  3.2201  0.1150 -0.5022
  582MOL0     H78518  11.137   8.416   8.160  1.2020  0.8321  0.7413
  582MOL0     H78519  11.256   8.697   8.194  2.3159 -0.6416  0.7823
  582MOL0     H78520  11.164   8.640   8.042  1.2700  1.9108 -0.4196
  582MOL0     H78521  11.379   8.452   8.283  0.1725  1.0103  0.3906
  582MOL0     H78522  11.687   8.294   8.099  0.1098  1.0037 -0.8126
  582MOL0     H78523  11.605   8.317   8.251 -1.5459  1.3840  0.5312
  582MOL0     H78524  11.532   8.095   8.251  3.2323 -2.4216 -1.4519
  582MOL0     H78525  11.588   8.078   8.087  0.7997 -0.9717  0.6993
  582MOL0     H78526  11.314   8.214   8.136 -1.3775  0.5913 -1.6326
  582MOL0     H78527  11.334   8.039   8.132 -0.0496 -1.4006 -1.7821
  582MOL0     H78528  11.442   8.041   7.908 -0.8782 -0.0713 -0.6575
  582MOL0     H78529  11.411   8.210   7.892  0.0059  0.1656 -0.2676
  582MOL0     H78530  11.250   8.314   7.767 -0.1261  4.5373  0.0830
  582MOL0     H78531  11.158   8.595   7.779  0.7836 -1.3072  0.1620
  582MOL0     H78532  11.144   8.493   7.642 -1.0784  1.0872 -1.0488
  582MOL0     H78533  11.011   8.593   7.692  2.6707  3.3191  0.9515
  582MOL0     H78534  10.525   8.449   7.714  1.5804 -1.6124  0.5587
  582MOL0     H78535  10.321   8.595   7.700 -0.7759 -0.2244  0.9824
  582MOL0     H78536  10.310   8.912   7.783  0.7754 -1.6357 -0.2492
  582MOL0     H78537  10.211   8.800   7.688 -1.9077 -3.3476  0.6114
  582MOL0     H78538  10.013   8.844   7.795 -2.4869  1.6804  1.3788
  582MOL0     H78539  10.088   8.952   7.913 -2.5105 -3.3805  1.0569
  582MOL0     H78540  10.090   9.005   7.609  2.3502  0.0590  0.9201
  582MOL0     H78541  10.147   9.103   7.749 -0.7906 -0.7224  1.8762
  582MOL0     H78542   9.848   9.037   7.703 -1.0104  1.1571 -0.0609
  582MOL0     H78543   9.934   9.157   7.811  0.3105  3.4514 -1.5274
  582MOL0     H78544   9.828   9.256   7.594 -1.1623 -1.3177  0.3947
  582MOL0     H78545   9.919   9.141   7.511 -1.2038 -1.3856  1.9043
  582MOL0     H78546  10.066   9.337   7.692 -1.8117  1.1039  0.5900
  582MOL0     H78547  10.122   9.261   7.538  0.4525  0.3481 -1.5851
  582MOL0     H78548   9.915   9.491   7.560  1.7357  3.7302 -3.5513
  582MOL0     H78549   9.930   9.401   7.422  2.2524  1.0657 -2.5668
  582MOL0     H78550  10.064   9.619   7.435  3.3534  1.1178 -0.5084
  582MOL0     H78551  10.180   9.489   7.400  1.4904  1.1221  0.3742
  582MOL0     H78552  10.437   8.769   8.077  1.2656  3.6902 -2.6716
  582MOL0     H78553  10.635   8.644   8.081  0.5724  0.5938 -0.6183
  582MOL0     H78554  10.812   8.242   7.983 -2.4127  0.0549 -3.7275
  582MOL0     H78555  11.016   8.066   8.009  1.7494 -3.4513 -3.7019
  582MOL0     H78556  10.368   8.077   8.587 -2.4874 -1.0479  0.3827
  582MOL0     H78557  10.313   7.892   8.698  0.4900 -0.0245  0.1273
  582MOL0     H78558  10.291   7.511   9.021  2.6893  0.2747  1.6987
  582MOL0     H78559  10.287   7.276   9.100  1.1130 -1.0672 -0.3016
  582MOL0     H78560  10.276   6.957   8.808  0.1008 -0.6502  2.1441
  582MOL0     H78561  10.447   6.959   8.793 -2.2089  1.6684 -2.7615
  582MOL0     H78562  10.452   6.814   9.012  2.1737 -1.1084 -1.9311
  582MOL0     H78563  10.384   6.744   8.870 -2.2016  0.8960 -1.6834
  582MOL0     H78564  10.149   6.831   8.966  2.5653  3.2632 -2.0282
  582MOL0     H78565  10.240   6.826   9.116 -0.8765 -1.0797  1.4461
  582MOL0     H78566  10.223   6.583   8.920  0.3151  1.8768 -0.5042
  582MOL0     H78567  10.127   6.599   9.058 -0.1791 -0.4463 -0.4026
  582MOL0     H78568  10.503   6.479   9.224 -0.6636 -2.4005 -0.1628
  582MOL0     H78569  10.436   7.162   8.701  1.3537 -1.3071  0.1669
  582MOL0     H78570  10.430   7.384   8.633 -2.9533  0.2270 -0.7392
  583MOL0     O78571   1.279   1.470   4.446  0.6492 -0.3352  0.0231
  583MOL0     C78572   1.326   1.379   4.373 -0.3809 -0.0565  0.0422
  583MOL0     O78573   1.291   1.359   4.248  0.6531  0.5406 -0.4029
  583MOL0     C78574   1.190   1.432   4.197  0.1468 -0.1464  1.4668
  583MOL0     C78575   1.178   1.564   4.162 -0.0414 -0.5164 -0.7114
  583MOL0     C78576   1.056   1.624   4.126  0.0817  0.8660 -1.2378
  583MOL0     C78577   0.943   1.543   4.098  0.0935  0.6875 -0.0023
  583MOL0     O78578   0.832   1.593   4.029 -0.6413 -0.0222 -0.0052
  583MOL0     C78579   0.695   1.558   4.085  0.0329  0.7262  0.7849
  583MOL0     C78580   0.641   1.453   3.981 -0.5298 -0.2232  0.1222
  583MOL0     C78581   0.591   1.328   4.044  0.2667  0.0729 -0.2900
  583MOL0     C78582   0.513   1.226   3.956  0.1401  0.1794 -0.0484
  583MOL0     C78583   0.392   1.281   3.875  0.5834 -0.5015 -0.4751
  583MOL0     C78584   0.323   1.176   3.783  0.5561  0.0427 -0.0410
  583MOL0     C78585   0.303   1.033   3.843 -0.8990 -0.5109 -0.4083
  583MOL0     C78586   0.215   0.951   3.764 -1.0552  0.5201  0.1230
  583MOL0     N78587   0.074   0.993   3.769  0.6064 -0.1725 -0.0597
  583MOL0     C78588   0.005   1.089   3.845 -0.4961  1.0431 -0.4792
  583MOL0     C78589  -0.124   1.078   3.807  0.0659  0.3340 -0.4818
  583MOL0     C78590  -0.241   1.150   3.880  0.7267  0.3305 -0.0295
  583MOL0     C78591  -0.368   1.061   3.897 -0.7129  0.5313  0.2832
  583MOL0     C78592  -0.336   0.935   3.983  0.8708 -0.5502  0.0199
  583MOL0     C78593  -0.344   0.972   4.135 -0.1970  0.3257  0.1416
  583MOL0     O78594  -0.478   1.005   4.164 -0.3030  0.6188  0.6113
  583MOL0     C78595  -0.567   0.896   4.162  0.0557  0.2805  0.1994
  583MOL0     C78596  -0.530   0.765   4.216 -0.0277 -0.4162 -0.4671
  583MOL0     C78597  -0.612   0.653   4.203  0.3390 -0.7197 -0.3280
  583MOL0     C78598  -0.565   0.520   4.266  0.7271 -0.5029  0.0060
  583MOL0     C78599  -0.742   0.664   4.145 -0.7131 -0.1518  0.8909
  583MOL0     C78600  -0.832   0.550   4.132 -0.2721 -0.2707 -0.1230
  583MOL0     O78601  -0.936   0.567   4.042  0.4560 -0.0400  0.1883
  583MOL0     C78602  -1.025   0.467   4.006 -0.2133  0.1696 -0.3973
  583MOL0     C78603  -0.998   0.330   4.001  0.0524 -0.1883 -0.2895
  583MOL0     C78604  -1.099   0.237   3.950 -0.0507  0.0651  0.0199
  583MOL0     C78605  -1.219   0.287   3.902 -0.2110 -0.0502 -0.1517
  583MOL0     O78606  -1.309   0.196   3.860 -0.1879  0.0467 -0.2835
  583MOL0     C78607  -1.339   0.187   3.718  0.0899  0.0525  0.8388
  583MOL0     C78608  -1.221   0.212   3.636 -1.0070  0.1328  0.0810
  583MOL0     C78609  -1.267   0.201   3.486  0.2642  0.0982  0.4902
  583MOL0     C78610  -1.183   0.283   3.389  0.1983 -0.2261 -0.0866
  583MOL0     C78611  -1.034   0.243   3.387  0.0344  0.1091 -0.3137
  583MOL0     C78612  -0.996   0.095   3.346 -0.0389  0.1229  0.1081
  583MOL0     C78613  -1.020   0.074   3.193 -0.6751  0.6713 -0.0930
  583MOL0     C78614  -1.007  -0.079   3.162 -0.2744 -0.6622  0.5943
  583MOL0    Cl78615  -0.842  -0.125   3.148 -0.3462  0.1101  0.0617
  583MOL0     C78616  -1.241   0.429   3.904  0.0610  0.0143  0.0939
  583MOL0     C78617  -1.148   0.514   3.960  0.0371  0.3464  0.4286
  583MOL0     O78618  -0.819   0.448   4.190  0.7534 -0.6348 -0.4069
  583MOL0     C78619  -0.777   0.794   4.102 -0.1485 -0.1718  0.1234
  583MOL0     C78620  -0.692   0.902   4.105 -0.5479  0.7390  0.4338
  583MOL0     N78621  -0.141   0.982   3.698 -0.3131  0.1875 -0.2947
  583MOL0     N78622  -0.017   0.937   3.681 -0.2653 -0.0325  0.4943
  583MOL0     C78623   0.957   1.411   4.134 -0.0308 -0.0942  1.3482
  583MOL0     C78624   1.073   1.355   4.188 -0.0913 -0.3156  0.4437
  583MOL0     C78625   1.431   1.287   4.425  0.6207 -0.3902 -1.2680
  583MOL0     C78626   1.448   1.256   4.561 -0.4311 -0.1218  0.6221
  583MOL0     C78627   1.543   1.159   4.594 -0.7658 -0.3715  0.8410
  583MOL0     C78628   1.629   1.099   4.500  0.4761  1.0140 -0.7217
  583MOL0     O78629   1.721   1.008   4.528 -0.1849 -0.5604  0.2771
  583MOL0     C78630   1.707   0.919   4.645 -0.6551  0.7425 -0.8247
  583MOL0     C78631   1.600   0.809   4.632  0.0642  0.6271  0.9307
  583MOL0     C78632   1.620   0.711   4.754  0.3061 -0.4033 -0.0332
  583MOL0     C78633   1.530   0.585   4.753  0.3656 -0.4094  0.8293
  583MOL0     C78634   1.397   0.620   4.802 -0.3237  0.0533 -0.4554
  583MOL0     C78635   1.289   0.638   4.857 -1.4305  0.7835  0.2594
  583MOL0     C78636   1.609   1.136   4.376 -0.4481 -0.2203 -0.5830
  583MOL0     C78637   1.509   1.227   4.329  0.9653 -0.2558 -0.1123
  583MOL0     H78638   1.270   1.621   4.166 -0.3189 -0.0925 -0.2687
  583MOL0     H78639   1.047   1.731   4.114  1.4442  1.1940  0.3136
  583MOL0     H78640   0.702   1.519   4.187 -1.5961  0.1544  0.6962
  583MOL0     H78641   0.628   1.645   4.091 -1.0101 -0.0925  1.2970
  583MOL0     H78642   0.562   1.517   3.939 -2.9257 -0.9469  3.1447
  583MOL0     H78643   0.712   1.428   3.902  1.2375 -1.4406  2.0013
  583MOL0     H78644   0.674   1.270   4.085 -1.0341 -0.1437  2.1772
  583MOL0     H78645   0.539   1.365   4.133  0.1190  4.2767 -1.8732
  583MOL0     H78646   0.587   1.190   3.885 -0.2281  2.4328 -1.6723
  583MOL0     H78647   0.480   1.137   4.011 -0.8503 -0.7219 -2.0154
  583MOL0     H78648   0.327   1.314   3.957  0.9170  1.3757 -0.9018
  583MOL0     H78649   0.432   1.363   3.814 -0.7900  0.4789 -0.1136
  583MOL0     H78650   0.223   1.215   3.758  0.5391  0.3248  0.4517
  583MOL0     H78651   0.375   1.168   3.688 -0.6860  0.2252 -0.7592
  583MOL0     H78652   0.402   0.986   3.840 -0.2173  0.8087  0.3530
  583MOL0     H78653   0.268   1.028   3.947 -2.3307 -0.6627 -0.8719
  583MOL0     H78654   0.199   0.851   3.805 -2.7914  0.6870 -0.0725
  583MOL0     H78655   0.254   0.924   3.666 -0.3092 -1.8629  1.0040
  583MOL0     H78656   0.045   1.147   3.927 -2.8156  0.1215  1.3947
  583MOL0     H78657  -0.196   1.182   3.975 -0.1058  1.7920 -0.0996
  583MOL0     H78658  -0.279   1.238   3.828  1.1981 -0.0533 -1.0488
  583MOL0     H78659  -0.393   1.028   3.796  1.3876  0.3628 -0.2418
  583MOL0     H78660  -0.453   1.113   3.942 -0.4064  2.6679 -1.4493
  583MOL0     H78661  -0.240   0.899   3.946  0.3540 -0.0245 -1.9988
  583MOL0     H78662  -0.404   0.851   3.970  1.8598 -1.3280 -0.2525
  583MOL0     H78663  -0.283   1.061   4.155 -1.6113  0.8201  2.7495
  583MOL0     H78664  -0.304   0.897   4.204 -0.5331  0.1118  0.1058
  583MOL0     H78665  -0.441   0.751   4.276 -2.1338 -1.8985  2.5601
  583MOL0     H78666  -0.563   0.443   4.187 -1.3543 -1.9834  1.2842
  583MOL0     H78667  -0.459   0.517   4.294  0.8414 -4.6130 -0.1835
  583MOL0     H78668  -0.631   0.489   4.347  1.0978  1.5976  1.1552
  583MOL0     H78669  -0.899   0.290   4.018  0.2539  0.7632  1.0131
  583MOL0     H78670  -1.078   0.131   3.944  0.8039 -0.0338  2.9491
  583MOL0     H78671  -1.372   0.086   3.694 -3.3279  1.2586 -0.0847
  583MOL0     H78672  -1.420   0.251   3.682  0.8831 -0.8261 -2.9116
  583MOL0     H78673  -1.163   0.305   3.638  0.9194 -0.8576 -2.4851
  583MOL0     H78674  -1.145   0.134   3.650 -2.7339 -1.5965  0.3093
  583MOL0     H78675  -1.374   0.224   3.486 -0.1555 -1.6327  2.1387
  583MOL0     H78676  -1.242   0.101   3.449  2.1772  0.3593  0.9391
  583MOL0     H78677  -1.219   0.269   3.287  1.3489 -0.4703 -0.4709
  583MOL0     H78678  -1.192   0.390   3.412  4.6311  0.0604  1.1854
  583MOL0     H78679  -0.989   0.269   3.483 -0.6964  1.1711 -0.2349
  583MOL0     H78680  -0.976   0.297   3.311  1.3208 -2.3083 -1.1429
  583MOL0     H78681  -0.891   0.073   3.367 -0.1528 -1.4120 -0.7828
  583MOL0     H78682  -1.051   0.024   3.409 -0.3186  1.6341  1.6567
  583MOL0     H78683  -0.942   0.133   3.145  0.9425 -0.3852  1.1158
  583MOL0     H78684  -1.122   0.099   3.165  0.7032  3.1025 -3.6876
  583MOL0     H78685  -1.059  -0.102   3.069  2.0448 -2.9937 -0.2517
  583MOL0     H78686  -1.060  -0.137   3.238 -0.7043  0.4484  1.1626
  583MOL0     H78687  -1.328   0.465   3.851  0.1496  1.9596  1.1762
  583MOL0     H78688  -1.170   0.620   3.967 -0.3061  0.3710 -0.7410
  583MOL0     H78689  -0.875   0.799   4.056 -0.0400 -0.4833 -0.1443
  583MOL0     H78690  -0.722   0.992   4.052 -1.5070 -1.4934 -3.1562
  583MOL0     H78691   0.875   1.344   4.109 -1.4837  1.7509  0.9431
  583MOL0     H78692   1.093   1.251   4.213  1.4852 -0.1823 -0.1671
  583MOL0     H78693   1.396   1.325   4.627  0.2149 -0.3549  1.3848
  583MOL0     H78694   1.561   1.140   4.699 -0.0696 -2.1244  0.4353
  583MOL0     H78695   1.800   0.862   4.655 -0.0198  1.9872  0.8057
  583MOL0     H78696   1.691   0.971   4.740  1.8686 -1.0478  0.7179
  583MOL0     H78697   1.611   0.755   4.537  0.7407 -0.3429  1.5500
  583MOL0     H78698   1.499   0.852   4.628 -0.1753  0.0334  0.3089
  583MOL0     H78699   1.613   0.763   4.849  2.3510  0.9620 -0.5697
  583MOL0     H78700   1.725   0.678   4.758  1.5313  3.2343  1.2129
  583MOL0     H78701   1.567   0.507   4.820 -0.1080 -2.8195 -1.5388
  583MOL0     H78702   1.523   0.544   4.652 -0.8454  1.4358  0.1149
  583MOL0     H78703   1.189   0.633   4.896 -1.2850 -2.5830  0.4541
  583MOL0     H78704   1.681   1.099   4.303 -2.8247  0.0838 -3.2629
  583MOL0     H78705   1.500   1.259   4.226 -0.5571  4.1120  1.1546
  584MOL0     O78706   0.215   0.878   8.760  0.1403 -0.1664  0.2312
  584MOL0     C78707   0.288   0.820   8.678  0.2398  0.1042  0.2105
  584MOL0     O78708   0.246   0.747   8.562 -0.4283  0.1528  0.1945
  584MOL0     C78709   0.111   0.709   8.568 -1.3689  0.3068  0.5397
  584MOL0     C78710   0.045   0.731   8.446  0.2908 -0.1795 -0.7972
  584MOL0     C78711  -0.088   0.690   8.441  0.0412  0.4168 -0.5359
  584MOL0     C78712  -0.155   0.613   8.547 -0.9822 -1.0053  0.6481
  584MOL0     O78713  -0.290   0.580   8.540 -0.0614 -0.1616  0.8231
  584MOL0     C78714  -0.351   0.546   8.414 -0.2232 -0.5107  0.4241
  584MOL0     C78715  -0.489   0.496   8.442  0.2445 -0.4130  0.4405
  584MOL0     C78716  -0.573   0.591   8.525  0.3268 -0.4119  0.3328
  584MOL0     C78717  -0.710   0.528   8.533  0.3969 -0.3560  0.8963
  584MOL0     C78718  -0.810   0.629   8.586  0.5014 -0.7500  0.2793
  584MOL0     C78719  -0.963   0.592   8.566  0.4619  0.1106 -1.0324
  584MOL0     C78720  -1.010   0.623   8.422  0.6092  0.2738  0.4307
  584MOL0     C78721  -1.146   0.556   8.378  0.1025 -0.5225 -0.1210
  584MOL0     N78722  -1.134   0.407   8.371 -0.4223 -1.0274 -0.3348
  584MOL0     C78723  -1.028   0.339   8.319  0.1342  0.0099 -0.6389
  584MOL0     C78724  -1.022   0.216   8.385 -0.2975  0.4027  0.2892
  584MOL0     C78725  -0.906   0.113   8.384  0.0403  0.1658 -0.1033
  584MOL0     C78726  -0.885   0.063   8.249  0.2036  0.3278  0.4643
  584MOL0     C78727  -0.999  -0.026   8.198  0.3087 -0.9694 -0.0247
  584MOL0     C78728  -0.964  -0.169   8.182 -1.0473 -0.8851 -1.1835
  584MOL0     O78729  -1.083  -0.244   8.167  0.2931 -1.0642  0.2760
  584MOL0     C78730  -1.079  -0.369   8.222  0.0376 -0.5333 -0.1312
  584MOL0     C78731  -0.973  -0.456   8.219  0.1960 -0.2565  1.3563
  584MOL0     C78732  -0.988  -0.592   8.260  0.3516 -0.8059 -0.2283
  584MOL0     C78733  -0.874  -0.685   8.258  0.3610  0.5421  0.4686
  584MOL0     C78734  -1.101  -0.631   8.325 -0.1112  0.1972  1.3635
  584MOL0     C78735  -1.122  -0.767   8.379  0.2598 -0.4661 -0.0062
  584MOL0     O78736  -1.156  -0.784   8.512 -0.1179 -0.5395  0.0151
  584MOL0     C78737  -1.205  -0.902   8.553  0.8758  0.4433 -0.1668
  584MOL0     C78738  -1.111  -0.997   8.597  1.0903 -0.9161 -0.9308
  584MOL0     C78739  -1.160  -1.114   8.644  0.5131 -0.7352 -0.0618
  584MOL0     C78740  -1.296  -1.136   8.652 -0.0177  0.8028  0.4834
  584MOL0     O78741  -1.347  -1.259   8.686 -0.7316  0.4436 -0.1191
  584MOL0     C78742  -1.297  -1.332   8.802  0.0767 -0.1373 -0.1066
  584MOL0     C78743  -1.401  -1.443   8.840  0.0046  0.5051  0.3237
  584MOL0     C78744  -1.416  -1.546   8.720 -0.6308 -0.0604  0.3058
  584MOL0     C78745  -1.515  -1.666   8.755 -0.0641 -0.7971  0.5378
  584MOL0     C78746  -1.533  -1.769   8.643  0.5453  0.0492 -0.7537
  584MOL0     C78747  -1.408  -1.808   8.568  0.1196  0.4173 -0.4789
  584MOL0     C78748  -1.422  -1.900   8.449  0.0979 -0.5165 -0.1641
  584MOL0     C78749  -1.490  -2.034   8.463 -0.0982 -0.0734 -0.3085
  584MOL0    Cl78750  -1.449  -2.094   8.622 -0.1087 -0.0398 -0.2115
  584MOL0     C78751  -1.388  -1.043   8.608 -0.3564  0.9718  1.0148
  584MOL0     C78752  -1.341  -0.924   8.564 -0.0662 -1.1770 -0.0614
  584MOL0     O78753  -1.119  -0.853   8.295 -0.4954 -0.0447  0.8025
  584MOL0     C78754  -1.200  -0.534   8.340  0.3719 -0.2731  0.0063
  584MOL0     C78755  -1.194  -0.409   8.291 -0.1298 -0.7305 -1.1217
  584MOL0     N78756  -1.125   0.211   8.469 -0.2280  1.0332  0.0307
  584MOL0     N78757  -1.195   0.321   8.460  0.2287 -0.1009 -0.3054
  584MOL0     C78758  -0.078   0.591   8.662 -0.3290  0.1598 -0.6948
  584MOL0     C78759   0.048   0.642   8.673 -0.6572  1.3366 -0.2885
  584MOL0     C78760   0.439   0.846   8.687  0.3989 -0.0995  0.5914
  584MOL0     C78761   0.483   0.949   8.775 -0.2057 -0.2136 -0.3584
  584MOL0     C78762   0.623   0.974   8.810  0.3997  0.7726 -0.1241
  584MOL0     C78763   0.725   0.910   8.739 -0.0976  0.2713 -0.7752
  584MOL0     O78764   0.853   0.934   8.775  0.0496  0.2007  0.7794
  584MOL0     C78765   0.884   1.068   8.823 -0.4638 -0.2072  0.2545
  584MOL0     C78766   1.021   1.107   8.758 -0.1291 -0.5570  0.5567
  584MOL0     C78767   1.028   1.081   8.602 -0.1959 -0.5837  0.0799
  584MOL0     C78768   1.149   1.153   8.547 -0.6389  0.0093 -0.2748
  584MOL0     C78769   1.158   1.163   8.406  0.0075  0.6292  1.4770
  584MOL0     C78770   1.174   1.177   8.285 -0.3684 -0.8101  0.3330
  584MOL0     C78771   0.676   0.808   8.652  0.5933 -0.1086  0.1602
  584MOL0     C78772   0.545   0.770   8.625  0.4918  0.1558 -0.3270
  584MOL0     H78773   0.086   0.792   8.365 -0.7703  0.9193 -0.5339
  584MOL0     H78774  -0.143   0.718   8.352 -0.4427 -0.2998 -0.4701
  584MOL0     H78775  -0.356   0.628   8.343  0.8738 -0.4867  0.3601
  584MOL0     H78776  -0.285   0.465   8.381  0.2844  1.3864 -3.8840
  584MOL0     H78777  -0.529   0.483   8.341 -0.8412 -0.1360  0.8169
  584MOL0     H78778  -0.503   0.397   8.485 -1.1105 -0.0297  0.9185
  584MOL0     H78779  -0.531   0.608   8.625  0.6064 -1.2246  0.3668
  584MOL0     H78780  -0.565   0.692   8.484  3.3556 -1.7657 -2.9643
  584MOL0     H78781  -0.749   0.498   8.434 -1.6128  1.4904  1.0484
  584MOL0     H78782  -0.705   0.442   8.600  0.3076 -0.7504  0.4093
  584MOL0     H78783  -0.795   0.650   8.693 -1.1346  1.6634  0.1210
  584MOL0     H78784  -0.800   0.723   8.531  0.1576 -1.6380 -1.3331
  584MOL0     H78785  -0.997   0.490   8.586  1.5027 -0.2045 -0.7600
  584MOL0     H78786  -1.023   0.663   8.623  3.0583  1.6627 -0.0350
  584MOL0     H78787  -1.033   0.723   8.385 -2.7537 -1.3282 -2.4041
  584MOL0     H78788  -0.934   0.586   8.353  0.6993  0.8598  0.2139
  584MOL0     H78789  -1.167   0.591   8.276  0.3873  2.0766  0.6318
  584MOL0     H78790  -1.229   0.591   8.440  0.4814  3.1370 -1.4283
  584MOL0     H78791  -0.966   0.388   8.244 -1.8574  0.0569 -2.3537
  584MOL0     H78792  -0.811   0.156   8.416  1.6614 -3.3384  0.2375
  584MOL0     H78793  -0.936   0.040   8.459  0.3810 -0.1716 -0.2925
  584MOL0     H78794  -0.785   0.020   8.250  1.6295  3.3752 -0.3657
  584MOL0     H78795  -0.886   0.150   8.182 -1.0436  2.0757  2.6188
  584MOL0     H78796  -1.031   0.002   8.097  1.3359 -2.1914 -0.7253
  584MOL0     H78797  -1.082  -0.027   8.269  0.3747 -1.2824  0.0507
  584MOL0     H78798  -0.909  -0.213   8.266 -1.9808 -0.4058 -0.3000
  584MOL0     H78799  -0.897  -0.178   8.096  0.2206  1.1611 -0.4871
  584MOL0     H78800  -0.877  -0.439   8.170  1.0282  0.7719  3.2464
  584MOL0     H78801  -0.896  -0.776   8.202  1.6952 -0.9686  2.2814
  584MOL0     H78802  -0.782  -0.647   8.211  0.1160 -0.8263 -1.2151
  584MOL0     H78803  -0.848  -0.709   8.362  2.2059  2.9354  0.6597
  584MOL0     H78804  -1.009  -0.962   8.589  0.9352 -0.2736 -0.1933
  584MOL0     H78805  -1.088  -1.192   8.666  0.9113 -1.1140 -2.4902
  584MOL0     H78806  -1.200  -1.381   8.792  0.3235  0.2808  0.2525
  584MOL0     H78807  -1.279  -1.259   8.881  2.3589 -0.6108 -0.1318
  584MOL0     H78808  -1.364  -1.498   8.928  0.4825 -0.8956 -0.7101
  584MOL0     H78809  -1.499  -1.403   8.866 -0.6497 -1.1234  0.5101
  584MOL0     H78810  -1.316  -1.587   8.699 -0.1336  2.3203 -2.9637
  584MOL0     H78811  -1.435  -1.491   8.627  2.0851  0.5945  0.0479
  584MOL0     H78812  -1.476  -1.707   8.848 -2.2625  2.1267  2.9835
  584MOL0     H78813  -1.610  -1.629   8.795  0.6315 -1.1406  2.6508
  584MOL0     H78814  -1.604  -1.732   8.568  2.3308 -0.1941 -2.6639
  584MOL0     H78815  -1.573  -1.858   8.693  0.8356  0.6070  0.5137
  584MOL0     H78816  -1.351  -1.722   8.534  3.5532 -2.2045 -1.9667
  584MOL0     H78817  -1.335  -1.847   8.639 -0.1770  0.1193 -0.3307
  584MOL0     H78818  -1.327  -1.919   8.399  1.1205 -0.5972  1.7209
  584MOL0     H78819  -1.479  -1.848   8.371  3.2760  0.1796 -2.1800
  584MOL0     H78820  -1.452  -2.097   8.382 -0.6226  1.6376 -1.9447
  584MOL0     H78821  -1.598  -2.021   8.458 -0.2812 -1.6921 -1.4482
  584MOL0     H78822  -1.494  -1.063   8.613 -0.3784  0.6054 -0.5309
  584MOL0     H78823  -1.407  -0.847   8.525  3.0902  2.5685  1.3883
  584MOL0     H78824  -1.289  -0.565   8.393 -1.4714  1.4494 -1.9083
  584MOL0     H78825  -1.278  -0.344   8.311  0.2893 -0.5684  0.2498
  584MOL0     H78826  -0.118   0.544   8.751  0.9745  0.8386  0.2895
  584MOL0     H78827   0.103   0.624   8.765  0.1878  0.6643 -0.9107
  584MOL0     H78828   0.410   1.007   8.830  0.6338  0.2307  0.3295
  584MOL0     H78829   0.646   1.038   8.894  0.7424  1.4162 -0.7007
  584MOL0     H78830   0.805   1.136   8.789 -1.7641 -1.4573  0.6490
  584MOL0     H78831   0.887   1.076   8.932  2.6374 -1.7076  0.3797
  584MOL0     H78832   1.097   1.053   8.816 -1.6615 -2.5503  0.8272
  584MOL0     H78833   1.030   1.215   8.775 -0.9289  0.6220 -4.8142
  584MOL0     H78834   0.936   1.113   8.553 -0.8140  1.5683  2.4480
  584MOL0     H78835   1.045   0.973   8.598 -0.6263 -0.8685  3.2712
  584MOL0     H78836   1.242   1.103   8.574 -0.1040  1.1031 -0.0388
  584MOL0     H78837   1.145   1.255   8.587 -0.8931 -0.2557  0.4023
  584MOL0     H78838   1.199   1.176   8.181 -1.3781 -0.7707  0.0867
  584MOL0     H78839   0.750   0.747   8.601  0.5523  0.8941 -1.1654
  584MOL0     H78840   0.525   0.690   8.555  1.9962  0.8611 -1.6042
  585MOL0     O78841   0.578   7.786   6.493 -0.0708 -0.4124  0.0143
  585MOL0     C78842   0.489   7.706   6.506 -0.6980  0.4457 -0.0702
  585MOL0     O78843   0.371   7.731   6.566  0.7396 -0.3106 -1.1261
  585MOL0     C78844   0.325   7.855   6.607  0.5603  0.4463  0.2060
  585MOL0     C78845   0.381   7.923   6.713 -1.0242  0.6369  0.1073
  585MOL0     C78846   0.326   8.041   6.756  0.8417  0.1128 -0.1938
  585MOL0     C78847   0.217   8.100   6.690  0.1203 -1.1190 -0.4043
  585MOL0     O78848   0.166   8.226   6.715  0.5461  0.1979  0.1109
  585MOL0     C78849   0.172   8.269   6.853 -0.6089  0.4989 -0.1386
  585MOL0     C78850   0.125   8.416   6.844  0.0585  0.3686 -0.8122
  585MOL0     C78851  -0.024   8.433   6.817 -0.1773  0.8426  0.0158
  585MOL0     C78852  -0.120   8.458   6.943  0.6449 -0.0482  0.4701
  585MOL0     C78853  -0.263   8.464   6.901  0.8680 -1.2196 -0.8297
  585MOL0     C78854  -0.304   8.605   6.837 -0.1726  0.8254  0.2902
  585MOL0     C78855  -0.453   8.642   6.859  0.3566  0.4380 -0.4277
  585MOL0     C78856  -0.473   8.706   6.997 -0.0376 -0.2998 -0.1330
  585MOL0     N78857  -0.614   8.723   7.010  0.8209 -0.2802 -0.0764
  585MOL0     C78858  -0.675   8.832   6.951 -0.4617  0.6857 -0.4164
  585MOL0     C78859  -0.807   8.821   6.973  0.7506  0.1159 -0.2221
  585MOL0     C78860  -0.895   8.931   6.935  0.1771 -0.4461  0.8604
  585MOL0     C78861  -0.957   8.912   6.805  1.0661  0.7976  0.7303
  585MOL0     C78862  -1.065   8.797   6.786  0.5939 -0.2504  0.4252
  585MOL0     C78863  -1.165   8.780   6.898  0.1161  0.4273  0.6667
  585MOL0     O78864  -1.249   8.890   6.916  0.8458 -0.6782 -0.0434
  585MOL0     C78865  -1.372   8.888   6.978 -0.4777 -0.3374 -0.6090
  585MOL0     C78866  -1.433   8.776   7.042 -0.6241  0.0318  0.7478
  585MOL0     C78867  -1.556   8.787   7.111  0.2814  0.2464 -0.0742
  585MOL0     C78868  -1.621   8.651   7.160  0.2990  0.5840  0.4759
  585MOL0     C78869  -1.624   8.917   7.131 -0.6691  0.2705 -0.2781
  585MOL0     C78870  -1.754   8.935   7.206  0.2768 -0.6332  0.6891
  585MOL0     O78871  -1.794   9.067   7.208 -0.7190  0.4787 -0.8617
  585MOL0     C78872  -1.907   9.093   7.267 -0.1065 -0.3479 -0.0991
  585MOL0     C78873  -2.006   9.167   7.200  1.0608  0.5975  0.1001
  585MOL0     C78874  -2.126   9.210   7.263  0.5057 -0.2127 -0.2659
  585MOL0     C78875  -2.155   9.171   7.397 -0.1243 -0.5385 -0.2079
  585MOL0     O78876  -2.270   9.209   7.455  0.1168 -0.3241  0.1314
  585MOL0     C78877  -2.313   9.165   7.586 -1.0454 -0.1832 -0.2711
  585MOL0     C78878  -2.259   9.267   7.687 -0.0123 -0.6243  0.4190
  585MOL0     C78879  -2.286   9.219   7.832 -0.4653 -0.4757  0.1041
  585MOL0     C78880  -2.209   9.309   7.935  0.7139  0.3503 -1.3125
  585MOL0     C78881  -2.274   9.446   7.952  0.2132 -1.8032 -0.2252
  585MOL0     C78882  -2.169   9.530   8.031  0.2894  0.4169  0.1735
  585MOL0     C78883  -2.241   9.645   8.106 -0.2179 -0.1479 -0.5971
  585MOL0     C78884  -2.141   9.714   8.201  0.1740 -1.0725 -0.5121
  585MOL0    Cl78885  -2.106   9.606   8.345 -0.0402  0.3233  0.0812
  585MOL0     C78886  -2.060   9.098   7.460 -0.6070 -0.0087 -0.4472
  585MOL0     C78887  -1.933   9.056   7.403  0.3672  0.0789  0.5033
  585MOL0     O78888  -1.815   8.840   7.256  0.2823  0.1218  0.2270
  585MOL0     C78889  -1.554   9.029   7.083  0.1049  0.1326 -0.3170
  585MOL0     C78890  -1.439   9.012   7.000  0.2894  0.4535  0.1819
  585MOL0     N78891  -0.824   8.698   7.037  0.0650 -0.3813 -0.3910
  585MOL0     N78892  -0.713   8.634   7.056 -0.7637  1.4357 -0.1158
  585MOL0     C78893   0.166   8.034   6.584 -0.8529 -0.3988 -0.5853
  585MOL0     C78894   0.217   7.916   6.544  0.0004  0.1272  0.7110
  585MOL0     C78895   0.520   7.570   6.467  0.3201 -0.3535  0.6995
  585MOL0     C78896   0.636   7.542   6.405 -0.0982 -0.4287 -0.1282
  585MOL0     C78897   0.671   7.406   6.388  0.0413  0.2666  0.0878
  585MOL0     C78898   0.591   7.310   6.444  0.2739 -0.1366  0.5659
  585MOL0     O78899   0.625   7.175   6.449 -0.2879  0.6178  0.2447
  585MOL0     C78900   0.574   7.113   6.334 -0.5057 -0.5086 -0.1092
  585MOL0     C78901   0.534   6.970   6.347  0.6592  0.1290 -0.4945
  585MOL0     C78902   0.417   6.962   6.453  0.0391  0.2499  0.3823
  585MOL0     C78903   0.314   6.839   6.422 -0.2692 -0.3403  0.3065
  585MOL0     C78904   0.364   6.706   6.378 -0.8875 -0.1032  0.2470
  585MOL0     C78905   0.407   6.602   6.333  0.8017  0.1976 -0.6232
  585MOL0     C78906   0.470   7.344   6.508  1.0952  0.0764 -1.1377
  585MOL0     C78907   0.428   7.469   6.510 -0.2838 -0.8044  0.2583
  585MOL0     H78908   0.479   7.890   6.745 -0.1430  2.7350 -0.2666
  585MOL0     H78909   0.381   8.105   6.824  0.7873 -0.3755  0.3068
  585MOL0     H78910   0.095   8.222   6.915 -0.9200  0.4091 -0.5885
  585MOL0     H78911   0.270   8.265   6.901 -0.8869 -0.3769  0.3869
  585MOL0     H78912   0.140   8.468   6.939 -0.9762 -0.8782  0.0619
  585MOL0     H78913   0.182   8.459   6.761  1.6723 -0.3112 -0.1054
  585MOL0     H78914  -0.022   8.524   6.757  3.3160  0.6517 -0.3493
  585MOL0     H78915  -0.068   8.349   6.763 -3.1921  2.4992 -0.2935
  585MOL0     H78916  -0.104   8.370   7.006  0.9272  0.3058  0.8886
  585MOL0     H78917  -0.092   8.551   6.992 -2.6123 -0.1134  2.7636
  585MOL0     H78918  -0.289   8.386   6.829  0.0975  1.8669 -4.2115
  585MOL0     H78919  -0.329   8.448   6.987 -0.5520  0.0872 -1.6226
  585MOL0     H78920  -0.252   8.675   6.903  0.9817 -0.8304  1.2065
  585MOL0     H78921  -0.266   8.624   6.735 -0.0428 -0.7518  0.0175
  585MOL0     H78922  -0.492   8.700   6.774  1.3742 -1.4850 -2.2982
  585MOL0     H78923  -0.510   8.549   6.864  0.6657  0.3000  0.9273
  585MOL0     H78924  -0.423   8.804   6.999  1.7873 -1.1839  2.2342
  585MOL0     H78925  -0.425   8.641   7.070 -1.6170 -1.6413 -0.2423
  585MOL0     H78926  -0.625   8.912   6.898  1.2262  0.6286  1.0248
  585MOL0     H78927  -0.973   8.945   7.010  1.5204 -2.7904  2.8482
  585MOL0     H78928  -0.839   9.025   6.931 -0.5668 -0.0339 -0.0677
  585MOL0     H78929  -0.878   8.899   6.731 -0.6398  2.4453 -1.5466
  585MOL0     H78930  -1.006   9.005   6.776 -2.7353 -0.9970  0.7567
  585MOL0     H78931  -1.007   8.706   6.774 -1.2185 -1.2801 -0.9676
  585MOL0     H78932  -1.127   8.810   6.697  3.1175  4.4407 -1.0094
  585MOL0     H78933  -1.118   8.754   6.993 -0.9833 -4.3503  0.1710
  585MOL0     H78934  -1.216   8.687   6.873  0.4534  0.8925 -2.0337
  585MOL0     H78935  -1.367   8.691   7.055  1.0408  1.3145  1.0942
  585MOL0     H78936  -1.552   8.570   7.133  2.0477  2.8660 -2.5847
  585MOL0     H78937  -1.636   8.649   7.268 -0.0709 -0.4296  0.4231
  585MOL0     H78938  -1.716   8.642   7.106  0.3736 -1.7560  0.6205
  585MOL0     H78939  -1.996   9.197   7.096  1.3608  2.9881  0.7543
  585MOL0     H78940  -2.203   9.268   7.212  1.9329 -0.4190 -2.8030
  585MOL0     H78941  -2.422   9.171   7.589 -1.1557 -0.4780 -2.5093
  585MOL0     H78942  -2.283   9.060   7.598  0.3481  0.3231  1.0604
  585MOL0     H78943  -2.152   9.281   7.669 -0.1944  3.2939  1.4101
  585MOL0     H78944  -2.318   9.359   7.674  4.5186  2.7397  1.0766
  585MOL0     H78945  -2.254   9.115   7.847  2.7103  0.1823 -1.3750
  585MOL0     H78946  -2.394   9.223   7.846 -0.5796  0.2171 -0.8735
  585MOL0     H78947  -2.208   9.265   8.035 -1.2542  0.5535 -1.1763
  585MOL0     H78948  -2.108   9.330   7.900  0.7542  2.0018 -0.2917
  585MOL0     H78949  -2.371   9.429   8.001 -0.4097 -0.3847 -0.9144
  585MOL0     H78950  -2.290   9.488   7.853 -0.6455  0.3980  0.7825
  585MOL0     H78951  -2.120   9.465   8.103  0.9391  1.4921  0.7321
  585MOL0     H78952  -2.096   9.569   7.960 -0.9294  1.1010 -0.7603
  585MOL0     H78953  -2.323   9.602   8.164 -0.7227  1.0446 -0.4030
  585MOL0     H78954  -2.280   9.725   8.042 -3.1245 -1.2110 -0.3254
  585MOL0     H78955  -2.191   9.805   8.237  0.3675 -1.9090  2.0811
  585MOL0     H78956  -2.048   9.740   8.148 -0.4371  0.6587 -0.7973
  585MOL0     H78957  -2.079   9.059   7.560  0.9769 -0.3932 -0.2681
  585MOL0     H78958  -1.857   9.005   7.461  2.3017 -0.3278 -2.1972
  585MOL0     H78959  -1.590   9.128   7.109  0.5264 -0.3454  2.4227
  585MOL0     H78960  -1.402   9.101   6.951 -1.2929  0.4643 -1.1212
  585MOL0     H78961   0.077   8.068   6.533 -2.3823 -2.5078  0.5270
  585MOL0     H78962   0.177   7.860   6.460  0.2057 -1.9551  1.9266
  585MOL0     H78963   0.706   7.613   6.362 -2.3617  1.0505 -1.5883
  585MOL0     H78964   0.759   7.374   6.334 -0.3494  2.6569 -2.1882
  585MOL0     H78965   0.486   7.169   6.301  0.5374  3.2107  2.7170
  585MOL0     H78966   0.656   7.124   6.263  0.8518 -1.5980  1.1998
  585MOL0     H78967   0.625   6.914   6.372  2.3862  2.7886 -0.4137
  585MOL0     H78968   0.502   6.936   6.248  3.2692  5.0579 -3.4433
  585MOL0     H78969   0.370   7.059   6.468 -0.3457  0.4769 -1.9433
  585MOL0     H78970   0.475   6.941   6.543  0.3310  3.3425  0.9993
  585MOL0     H78971   0.246   6.866   6.340  1.2703  1.9972 -0.2951
  585MOL0     H78972   0.251   6.822   6.509 -0.7569  2.4540  0.5998
  585MOL0     H78973   0.451   6.517   6.285 -1.1935  0.5103 -3.2503
  585MOL0     H78974   0.398   7.274   6.549 -0.3924  1.2244 -1.7058
  585MOL0     H78975   0.331   7.493   6.550 -0.0576  0.8111 -0.0901
  586MOL0     O78976   2.746   9.788   7.245 -0.2293  0.3450  0.0930
  586MOL0     C78977   2.666   9.812   7.336  0.7279 -1.1184  0.5223
  586MOL0     O78978   2.690   9.830   7.462 -0.2104 -0.1334  0.2063
  586MOL0     C78979   2.818   9.833   7.505 -0.6621 -0.9693  0.2296
  586MOL0     C78980   2.856   9.749   7.607  0.8128 -0.5161 -1.0619
  586MOL0     C78981   2.985   9.771   7.662  0.1351  0.9245 -0.0526
  586MOL0     C78982   3.070   9.871   7.614  0.1032 -0.6241  0.2683
  586MOL0     O78983   3.193   9.902   7.665  0.8385 -0.4342  0.1653
  586MOL0     C78984   3.222   9.868   7.803 -0.3332 -0.5106  0.8145
  586MOL0     C78985   3.325   9.959   7.865  0.4022 -0.1846  0.7825
  586MOL0     C78986   3.454   9.920   7.794  0.1213 -0.0814 -0.6435
  586MOL0     C78987   3.579   9.982   7.856 -0.1210 -0.1231 -0.3062
  586MOL0     C78988   3.708   9.922   7.789 -0.6721  0.4035  0.5734
  586MOL0     C78989   3.844   9.940   7.852  0.2120  0.7119 -0.2592
  586MOL0     C78990   3.850   9.905   8.000 -0.1125  0.1989 -0.5796
  586MOL0     C78991   3.785   9.765   8.026 -0.1429  0.2574 -0.4726
  586MOL0     N78992   3.764   9.775   8.174 -0.7815  0.5734  0.3338
  586MOL0     C78993   3.832   9.710   8.272  0.4753  1.0676 -0.1012
  586MOL0     C78994   3.743   9.710   8.377 -0.6873  0.2224  0.8758
  586MOL0     C78995   3.765   9.612   8.496  0.0737  0.3020  0.0640
  586MOL0     C78996   3.826   9.679   8.624 -0.7224  0.4387 -0.2263
  586MOL0     C78997   3.858   9.574   8.727 -0.4735  0.0834 -0.1457
  586MOL0     C78998   3.961   9.620   8.832  0.7191 -0.5223 -0.6763
  586MOL0     O78999   3.893   9.682   8.946 -0.4821  0.4524  0.4886
  586MOL0     C79000   3.975   9.714   9.055 -0.1165  1.2088  0.9474
  586MOL0     C79001   3.912   9.784   9.154 -0.1078 -0.2198  0.2163
  586MOL0     C79002   3.987   9.829   9.267  0.2522  0.2879  0.6865
  586MOL0     C79003   3.912   9.926   9.360 -0.3416  0.5808  0.1706
  586MOL0     C79004   4.116   9.784   9.285 -0.4812  0.3832 -0.5491
  586MOL0     C79005   4.204   9.817   9.406  0.1734  0.5461  0.1007
  586MOL0     O79006   4.283   9.709   9.450 -0.3485 -0.2113 -0.2362
  586MOL0     C79007   4.387   9.723   9.540  1.1836 -0.2924  0.8633
  586MOL0     C79008   4.469   9.834   9.550  0.6300  0.6792 -0.0345
  586MOL0     C79009   4.579   9.834   9.639  0.6288  0.4843  0.1297
  586MOL0     C79010   4.604   9.726   9.727  0.7115  0.4160  0.1381
  586MOL0     O79011   4.713   9.716   9.808 -1.0524  0.0576  0.2555
  586MOL0     C79012   4.748   9.837   9.878 -0.1315  0.4404  0.2445
  586MOL0     C79013   4.800   9.800  10.016  1.1594  0.0528  0.1284
  586MOL0     C79014   4.944   9.735  10.015  0.2915 -0.7101  0.3353
  586MOL0     C79015   4.984   9.703  10.158  0.4099 -0.3402 -0.4025
  586MOL0     C79016   5.114   9.618  10.170  0.2514  1.5945  0.4569
  586MOL0     C79017   5.228   9.699  10.118  0.5536  0.2235  1.0379
  586MOL0     C79018   5.368   9.658  10.169  0.0055 -0.0250  0.0980
  586MOL0     C79019   5.472   9.738  10.092 -0.4454 -0.1820 -0.8523
  586MOL0    Cl79020   5.470   9.916  10.114 -0.0660  0.6607  0.1016
  586MOL0     C79021   4.519   9.612   9.703 -0.2508 -0.4039  0.2528
  586MOL0     C79022   4.410   9.605   9.614 -0.6072  0.1929  0.6281
  586MOL0     O79023   4.211   9.930   9.441 -0.3864  0.3174 -0.6563
  586MOL0     C79024   4.181   9.708   9.182 -0.3037 -0.7832  0.7612
  586MOL0     C79025   4.111   9.671   9.069 -0.4921  0.3948  0.4003
  586MOL0     N79026   3.631   9.787   8.346  0.8686  0.6369  1.3210
  586MOL0     N79027   3.646   9.832   8.222 -0.6812  0.8408  0.7419
  586MOL0     C79028   3.032   9.952   7.506  0.3479  0.9063  0.3673
  586MOL0     C79029   2.906   9.939   7.453  0.6332 -0.3318  0.4452
  586MOL0     C79030   2.522   9.798   7.302 -0.2385 -0.3433 -1.1115
  586MOL0     C79031   2.428   9.761   7.401  0.2472 -0.6734  0.4950
  586MOL0     C79032   2.298   9.734   7.364 -0.4421 -0.3202 -0.3655
  586MOL0     C79033   2.260   9.717   7.236 -0.8809  0.1875  0.1244
  586MOL0     O79034   2.132   9.684   7.213  0.3062  0.6032 -1.0275
  586MOL0     C79035   2.096   9.634   7.081 -0.3412 -0.3687 -0.1878
  586MOL0     C79036   1.961   9.568   7.081 -1.0028 -0.1842  0.8047
  586MOL0     C79037   1.923   9.498   7.213 -0.7337 -0.2212  0.4253
  586MOL0     C79038   1.786   9.433   7.212  0.2399  0.2803 -0.5849
  586MOL0     C79039   1.672   9.528   7.211 -0.1463 -0.4363  0.3349
  586MOL0     C79040   1.565   9.590   7.222 -0.1578 -0.3202  0.4010
  586MOL0     C79041   2.358   9.734   7.135 -0.7689 -0.8058 -0.9406
  586MOL0     C79042   2.490   9.784   7.165  0.9873  0.1288 -0.5197
  586MOL0     H79043   2.778   9.685   7.647  0.5351  0.1170 -0.5669
  586MOL0     H79044   3.019   9.712   7.746  0.7401  1.0403 -0.2138
  586MOL0     H79045   3.126   9.883   7.853 -0.9726 -0.7919 -0.2962
  586MOL0     H79046   3.251   9.763   7.801 -0.3845 -0.5161 -0.7748
  586MOL0     H79047   3.307  10.064   7.837 -0.2681 -0.8348 -1.3885
  586MOL0     H79048   3.333   9.948   7.973 -1.0502  0.7984  1.0138
  586MOL0     H79049   3.471   9.814   7.812  0.7265  0.2994  1.3222
  586MOL0     H79050   3.458   9.952   7.690  0.6655 -0.9050 -0.8820
  586MOL0     H79051   3.591  10.085   7.821  3.4352 -1.3027 -3.1994
  586MOL0     H79052   3.584   9.981   7.965  1.9732  1.8497 -0.2931
  586MOL0     H79053   3.688   9.816   7.769 -1.0584  0.5233  0.3150
  586MOL0     H79054   3.728   9.976   7.696 -1.8568  2.1703  1.3020
  586MOL0     H79055   3.924   9.883   7.805  0.9351 -0.2286  1.9790
  586MOL0     H79056   3.863  10.048   7.842  0.6047  0.8727  1.7409
  586MOL0     H79057   3.951   9.905   8.040  0.9910 -4.2787 -2.7135
  586MOL0     H79058   3.802   9.982   8.061  0.6969 -1.1940  1.9471
  586MOL0     H79059   3.857   9.690   7.993  0.5877  0.9607 -0.5175
  586MOL0     H79060   3.684   9.749   7.988 -0.3887 -1.2544  0.7220
  586MOL0     H79061   3.923   9.653   8.260 -0.0393 -0.8581  3.5940
  586MOL0     H79062   3.670   9.562   8.515 -0.5414  0.0845 -3.0514
  586MOL0     H79063   3.831   9.530   8.470 -1.7117 -0.4383 -2.4512
  586MOL0     H79064   3.753   9.747   8.669  0.1357  0.1271  1.7139
  586MOL0     H79065   3.916   9.732   8.592 -1.3186  2.4729  1.2717
  586MOL0     H79066   3.910   9.497   8.671  0.3284  1.1404 -0.9055
  586MOL0     H79067   3.773   9.527   8.777  1.2947 -2.1114  0.9393
  586MOL0     H79068   4.037   9.678   8.779  0.6561 -1.5135 -1.9202
  586MOL0     H79069   4.002   9.528   8.874 -2.0640 -1.1519  0.9304
  586MOL0     H79070   3.810   9.812   9.132 -0.2213 -1.1327 -0.4635
  586MOL0     H79071   3.829   9.877   9.410 -2.1940  4.3862  1.1750
  586MOL0     H79072   3.982   9.963   9.436  0.1628  0.0474 -0.0208
  586MOL0     H79073   3.871  10.011   9.305  0.8582  0.3989 -1.0848
  586MOL0     H79074   4.453   9.921   9.489 -0.5362  0.9009  0.5590
  586MOL0     H79075   4.644   9.920   9.633 -0.4109  1.2047 -1.6373
  586MOL0     H79076   4.824   9.895   9.826  0.5854 -1.6767 -1.1871
  586MOL0     H79077   4.661   9.899   9.902  0.1156  1.2582 -0.9035
  586MOL0     H79078   4.790   9.894  10.070 -2.9374  0.1487 -0.4913
  586MOL0     H79079   4.724   9.731  10.056  0.2168 -0.3112 -2.1041
  586MOL0     H79080   5.010   9.803   9.961 -1.1904  1.3065  0.9143
  586MOL0     H79081   4.950   9.637   9.967  2.6045  0.4221 -1.9675
  586MOL0     H79082   4.989   9.805  10.197  2.8954 -0.4089 -0.3601
  586MOL0     H79083   4.897   9.656  10.204  1.4092 -0.7703  1.1276
  586MOL0     H79084   5.088   9.529  10.112  0.9746  1.7220 -0.0908
  586MOL0     H79085   5.133   9.584  10.272 -3.5204  0.3928  0.8975
  586MOL0     H79086   5.225   9.689  10.010 -0.5968 -0.9273  1.1466
  586MOL0     H79087   5.220   9.806  10.140  0.3729  0.1529  1.3298
  586MOL0     H79088   5.385   9.551  10.160 -0.1568  0.0517 -1.3095
  586MOL0     H79089   5.378   9.677  10.277 -2.1717  0.6304  0.2360
  586MOL0     H79090   5.454   9.701   9.990  0.6463 -1.3161 -0.6485
  586MOL0     H79091   5.571   9.701  10.121 -0.1227  0.5627 -0.9796
  586MOL0     H79092   4.535   9.518   9.755  0.1915 -0.6663 -0.3478
  586MOL0     H79093   4.354   9.513   9.599 -0.8949  0.4570  0.0322
  586MOL0     H79094   4.285   9.685   9.202 -0.3032  0.9538  3.2701
  586MOL0     H79095   4.166   9.604   9.004  0.1002  0.8038  0.4734
  586MOL0     H79096   3.101  10.020   7.456 -0.7015  1.2247 -0.6889
  586MOL0     H79097   2.894  10.022   7.384 -2.1111 -0.0578  1.1562
  586MOL0     H79098   2.460   9.749   7.504 -2.0132  0.5481  1.4063
  586MOL0     H79099   2.220   9.708   7.434 -0.4475  0.0327 -0.2416
  586MOL0     H79100   2.094   9.715   7.007 -0.2730  2.4153  2.6697
  586MOL0     H79101   2.177   9.570   7.046  0.3147 -0.1582  0.9155
  586MOL0     H79102   1.957   9.489   7.005 -1.9673 -1.6592  2.3287
  586MOL0     H79103   1.882   9.641   7.063 -2.5737 -1.8188  0.7337
  586MOL0     H79104   1.933   9.573   7.292 -0.5345  0.9483 -0.6855
  586MOL0     H79105   1.998   9.420   7.233  1.8607  2.0681  0.1392
  586MOL0     H79106   1.768   9.379   7.306 -1.4775  1.3866 -0.2297
  586MOL0     H79107   1.777   9.371   7.122  0.5784 -0.7228  0.0532
  586MOL0     H79108   1.477   9.651   7.234 -0.3222 -0.2691 -0.8846
  586MOL0     H79109   2.339   9.718   7.029  0.9277  0.8774 -1.5806
  586MOL0     H79110   2.549   9.823   7.083  4.8927 -0.5352  1.7541
  587MOL0     O79111   2.420   3.171   9.228 -0.5268 -0.0927 -0.3984
  587MOL0     C79112   2.341   3.264   9.206  0.3934  0.0791 -0.1925
  587MOL0     O79113   2.203   3.268   9.222 -0.5852 -0.0949  0.7302
  587MOL0     C79114   2.131   3.157   9.260  0.9536  0.9171  1.0384
  587MOL0     C79115   2.006   3.154   9.203  0.7772 -0.1574  0.6078
  587MOL0     C79116   1.919   3.051   9.233  0.6850 -0.4405  0.3399
  587MOL0     C79117   1.952   2.942   9.317  0.1014 -0.2538  1.5601
  587MOL0     O79118   1.871   2.842   9.327  0.6709 -0.3816 -0.1179
  587MOL0     C79119   1.863   2.782   9.455 -0.3137 -0.2827  0.0680
  587MOL0     C79120   1.708   2.755   9.469  0.1374 -0.6699 -0.1189
  587MOL0     C79121   1.634   2.892   9.488 -0.4207 -0.2637  0.0783
  587MOL0     C79122   1.485   2.856   9.483  0.1128  0.5718 -0.8245
  587MOL0     C79123   1.398   2.972   9.530 -1.0973  0.4118  0.1617
  587MOL0     C79124   1.252   2.926   9.567  0.7147  1.1482 -0.5175
  587MOL0     C79125   1.167   2.835   9.467 -0.5973 -0.2870 -0.4498
  587MOL0     C79126   1.121   2.907   9.346 -0.1074  0.4326  0.3996
  587MOL0     N79127   1.020   3.006   9.369  0.2825  0.1950 -0.0572
  587MOL0     C79128   1.039   3.137   9.412 -0.3334  0.1218  0.2857
  587MOL0     C79129   0.923   3.198   9.399 -0.1232  0.8650 -0.6102
  587MOL0     C79130   0.889   3.342   9.406  0.2822 -0.8507  1.0380
  587MOL0     C79131   0.822   3.373   9.270  0.6992 -0.8339  0.8191
  587MOL0     C79132   0.911   3.375   9.138  0.3565 -0.7168 -0.5675
  587MOL0     C79133   1.041   3.460   9.152  0.1763  0.1665  0.2085
  587MOL0     O79134   1.144   3.374   9.191  1.1598 -0.1729 -0.2291
  587MOL0     C79135   1.272   3.421   9.179  0.3359 -0.6825  0.0514
  587MOL0     C79136   1.373   3.330   9.151  0.5862 -0.5409  0.1216
  587MOL0     C79137   1.505   3.377   9.128 -0.4500 -0.2316 -0.6187
  587MOL0     C79138   1.605   3.272   9.088 -0.1809 -0.6676  0.4494
  587MOL0     C79139   1.537   3.515   9.139 -0.4643  0.0716  0.8083
  587MOL0     C79140   1.670   3.571   9.098 -0.2679 -0.4640 -0.6512
  587MOL0     O79141   1.698   3.705   9.126 -0.0946  0.1762  0.6096
  587MOL0     C79142   1.839   3.728   9.134 -0.3046  0.4464  0.1251
  587MOL0     C79143   1.918   3.695   9.248  0.8525 -0.5361  0.7903
  587MOL0     C79144   2.047   3.728   9.262  0.5104 -0.0603 -0.4111
  587MOL0     C79145   2.105   3.807   9.169  0.0780  0.4317  0.3192
  587MOL0     O79146   2.236   3.850   9.178 -0.6816  0.1781  0.1906
  587MOL0     C79147   2.278   3.931   9.286 -0.0093  0.0589 -0.2916
  587MOL0     C79148   2.428   3.941   9.275 -0.6781  0.3220  0.3528
  587MOL0     C79149   2.484   4.001   9.407  0.5403 -0.0929 -0.0153
  587MOL0     C79150   2.626   4.056   9.377  0.4020  0.0113 -0.1175
  587MOL0     C79151   2.727   3.938   9.381 -0.5039 -0.7170  0.1662
  587MOL0     C79152   2.868   3.988   9.343 -0.3786  0.1075 -0.1507
  587MOL0     C79153   2.966   3.876   9.332 -0.3499 -0.3440 -0.4113
  587MOL0     C79154   3.105   3.917   9.325  0.7336  0.0475  0.3192
  587MOL0    Cl79155   3.215   3.792   9.258 -0.1772 -0.2823  0.4792
  587MOL0     C79156   2.044   3.829   9.041 -0.1945 -0.4964 -0.4285
  587MOL0     C79157   1.904   3.794   9.024 -0.2103  1.0708 -0.1326
  587MOL0     O79158   1.740   3.502   9.027  0.0035 -0.5376 -1.2782
  587MOL0     C79159   1.431   3.603   9.178 -0.3755 -0.8281  0.5196
  587MOL0     C79160   1.300   3.554   9.192  0.4939  0.6933 -0.2898
  587MOL0     N79161   0.836   3.102   9.356 -0.1940 -0.7014  0.0065
  587MOL0     N79162   0.892   2.994   9.328 -0.4379  0.4570 -0.4156
  587MOL0     C79163   2.075   2.948   9.374  0.2012  0.8958 -0.3864
  587MOL0     C79164   2.171   3.047   9.336 -0.2699 -0.4423 -0.0698
  587MOL0     C79165   2.405   3.391   9.169  0.4600  0.0165  0.5643
  587MOL0     C79166   2.335   3.483   9.087 -0.6436 -1.4698  0.2810
  587MOL0     C79167   2.405   3.599   9.038 -0.3863 -0.3917 -0.1709
  587MOL0     C79168   2.543   3.615   9.067 -0.0542  0.5813  0.5881
  587MOL0     O79169   2.617   3.724   9.024  0.7731 -0.5293 -0.3677
  587MOL0     C79170   2.579   3.808   8.917 -0.9156  0.2031  0.2629
  587MOL0     C79171   2.643   3.946   8.919 -0.0191  0.5862  0.6508
  587MOL0     C79172   2.784   3.953   8.949 -0.8049  0.6290  0.0970
  587MOL0     C79173   2.870   3.867   8.857 -0.2325 -0.0376 -0.8705
  587MOL0     C79174   3.014   3.876   8.902  0.2862 -0.7653  0.3567
  587MOL0     C79175   3.126   3.902   8.934  0.2897 -0.6018 -1.0784
  587MOL0     C79176   2.603   3.528   9.149  0.4126  0.1376 -0.5083
  587MOL0     C79177   2.540   3.416   9.206  0.9434 -0.2574  0.7965
  587MOL0     H79178   1.966   3.234   9.142 -1.2185 -0.7090  1.1151
  587MOL0     H79179   1.821   3.063   9.189  1.1899  1.8799 -0.3146
  587MOL0     H79180   1.928   2.694   9.449 -0.5942 -0.4442 -0.7132
  587MOL0     H79181   1.895   2.842   9.540 -1.4382 -1.6887  1.5421
  587MOL0     H79182   1.661   2.701   9.386 -1.1621  0.6591 -0.2802
  587MOL0     H79183   1.691   2.694   9.558  2.0023  0.6268  1.2285
  587MOL0     H79184   1.662   2.932   9.585  0.8350 -0.8525 -0.0282
  587MOL0     H79185   1.651   2.966   9.410 -1.5103 -0.6576 -0.5642
  587MOL0     H79186   1.446   2.830   9.384 -2.1074  1.7345 -0.3333
  587MOL0     H79187   1.478   2.765   9.543 -0.7967  1.8331  1.0948
  587MOL0     H79188   1.432   3.014   9.625  2.4292  0.9328 -1.1685
  587MOL0     H79189   1.406   3.050   9.453 -1.1115  1.8389  1.5706
  587MOL0     H79190   1.270   2.874   9.662  4.8147 -1.4836 -2.4375
  587MOL0     H79191   1.190   3.013   9.590 -0.6479  0.1685 -0.3468
  587MOL0     H79192   1.234   2.753   9.442  1.7319  1.1136  0.8953
  587MOL0     H79193   1.082   2.787   9.517 -2.0439  1.3368 -1.2400
  587MOL0     H79194   1.073   2.836   9.279  0.5368 -1.2164  1.6237
  587MOL0     H79195   1.206   2.946   9.288 -0.5563 -2.1900 -2.2527
  587MOL0     H79196   1.132   3.181   9.446 -0.5121  0.0449  0.8970
  587MOL0     H79197   0.821   3.363   9.489  0.3369  1.1041  0.6521
  587MOL0     H79198   0.980   3.402   9.414  1.6889 -2.8152  0.4737
  587MOL0     H79199   0.762   3.464   9.273 -2.0200 -2.5596  2.0224
  587MOL0     H79200   0.739   3.302   9.265  1.0826 -1.2860  0.8651
  587MOL0     H79201   0.849   3.412   9.055  0.6614 -2.5927 -1.7023
  587MOL0     H79202   0.940   3.274   9.108  0.0694 -0.3353 -2.2807
  587MOL0     H79203   1.018   3.547   9.215 -0.1195  1.6211 -1.7906
  587MOL0     H79204   1.060   3.498   9.051 -0.9792  1.0576  0.3021
  587MOL0     H79205   1.331   3.230   9.148 -1.6132  0.3519 -1.9116
  587MOL0     H79206   1.633   3.291   8.984  0.1973 -1.9809  0.3011
  587MOL0     H79207   1.680   3.270   9.167  1.4874 -2.4475 -1.1043
  587MOL0     H79208   1.564   3.171   9.093  1.9635 -1.5293  1.6371
  587MOL0     H79209   1.862   3.634   9.319 -0.7554 -0.9148 -0.7463
  587MOL0     H79210   2.113   3.692   9.340 -1.0993 -1.1122  0.5228
  587MOL0     H79211   2.235   4.031   9.283  0.2150  0.1572 -0.2759
  587MOL0     H79212   2.245   3.888   9.381 -1.4486 -1.1407 -1.2950
  587MOL0     H79213   2.470   3.841   9.259 -3.2988 -0.5851 -1.4731
  587MOL0     H79214   2.450   3.993   9.182  0.3462 -1.9057 -0.7227
  587MOL0     H79215   2.485   3.930   9.490  1.4359 -1.8410 -1.4406
  587MOL0     H79216   2.428   4.092   9.429 -1.6808 -0.9493 -1.7109
  587MOL0     H79217   2.630   4.102   9.278  0.1077 -1.3591 -0.8020
  587MOL0     H79218   2.640   4.133   9.453 -0.6381 -1.6041  1.8219
  587MOL0     H79219   2.697   3.867   9.304  0.9417  1.1526 -2.2863
  587MOL0     H79220   2.726   3.881   9.474  0.6923 -1.9351 -0.5341
  587MOL0     H79221   2.866   4.031   9.243 -0.1585 -0.9503 -0.6250
  587MOL0     H79222   2.909   4.064   9.410 -1.0148 -0.0191  0.3988
  587MOL0     H79223   2.938   3.816   9.244  2.1916 -1.3431 -0.6064
  587MOL0     H79224   2.955   3.803   9.413  0.4885  1.7791  1.7408
  587MOL0     H79225   3.130   3.930   9.431  1.6513 -1.5709  0.3284
  587MOL0     H79226   3.115   4.013   9.275 -2.7195  0.3045 -0.1462
  587MOL0     H79227   2.101   3.886   8.969  0.9738 -1.5432 -0.3811
  587MOL0     H79228   1.845   3.802   8.933 -2.3033 -1.7128  0.8349
  587MOL0     H79229   1.438   3.711   9.172 -1.1946 -0.8527 -2.5375
  587MOL0     H79230   1.222   3.625   9.219  0.1442  0.7228 -1.3411
  587MOL0     H79231   2.107   2.864   9.434  1.0358  1.4795 -0.0036
  587MOL0     H79232   2.275   3.046   9.365 -0.4035 -5.4225  1.1136
  587MOL0     H79233   2.229   3.474   9.069 -1.1103  1.2647  1.2549
  587MOL0     H79234   2.338   3.656   8.975 -0.8220 -0.1123  0.5277
  587MOL0     H79235   2.601   3.754   8.824  2.0125  2.5347 -0.5730
  587MOL0     H79236   2.472   3.828   8.917 -0.8676  0.5137  1.2860
  587MOL0     H79237   2.582   3.991   8.999  0.6755  0.3208  1.3356
  587MOL0     H79238   2.626   3.987   8.819 -2.4994  1.1348  1.2187
  587MOL0     H79239   2.800   3.927   9.055  3.7742 -3.3867 -1.1915
  587MOL0     H79240   2.811   4.056   8.923 -0.7124 -0.1304 -3.1162
  587MOL0     H79241   2.864   3.904   8.754 -1.0893  0.4752 -0.6496
  587MOL0     H79242   2.840   3.763   8.868  1.3977 -0.6172 -1.6229
  587MOL0     H79243   3.229   3.926   8.952 -0.5425  1.0565  2.3302
  587MOL0     H79244   2.706   3.560   9.166  0.2906  0.0322  0.4818
  587MOL0     H79245   2.596   3.350   9.272 -0.2143 -0.6970  1.3806
  588MOL0     O79246   2.237   4.491   9.436  0.3583 -0.6962  0.2292
  588MOL0     C79247   2.296   4.591   9.388  0.0033 -0.0728  0.8427
  588MOL0     O79248   2.238   4.697   9.321  0.5797 -0.7523  0.4674
  588MOL0     C79249   2.100   4.695   9.304  0.2410  0.3209  0.0261
  588MOL0     C79250   2.023   4.690   9.422  0.5010 -0.5760 -0.4071
  588MOL0     C79251   1.884   4.711   9.420 -0.3176  0.8524 -0.3738
  588MOL0     C79252   1.820   4.716   9.296 -0.8937 -0.3759 -0.1178
  588MOL0     O79253   1.682   4.722   9.290 -0.2735 -0.4945 -0.4749
  588MOL0     C79254   1.611   4.677   9.406 -0.6601 -0.0392  0.1518
  588MOL0     C79255   1.463   4.641   9.383 -0.2999  0.4275 -0.3349
  588MOL0     C79256   1.376   4.741   9.298  0.1555 -0.0239 -0.0925
  588MOL0     C79257   1.231   4.720   9.315  0.6895  0.0727  0.0023
  588MOL0     C79258   1.180   4.667   9.181 -0.0532 -1.1875 -0.0840
  588MOL0     C79259   1.036   4.611   9.183  0.1622 -0.9481 -0.4811
  588MOL0     C79260   1.040   4.460   9.172  0.1806 -0.6552  0.1194
  588MOL0     C79261   1.058   4.418   9.025  0.1340  0.9318  0.4380
  588MOL0     N79262   1.022   4.272   8.991  0.1191 -0.7119  1.5225
  588MOL0     C79263   1.005   4.172   9.082  0.4156 -0.0356  0.6064
  588MOL0     C79264   0.981   4.061   9.008  0.3489  0.1119 -0.6088
  588MOL0     C79265   0.966   3.918   9.049  0.1996  0.1542  0.5008
  588MOL0     C79266   0.840   3.846   8.991  0.0649 -0.4045 -0.4993
  588MOL0     C79267   0.715   3.906   9.072  0.3532  0.2785 -0.5958
  588MOL0     C79268   0.685   3.827   9.191  0.0660  0.5669 -0.1066
  588MOL0     O79269   0.790   3.841   9.286  0.3780 -0.0762 -0.2259
  588MOL0     C79270   0.800   3.948   9.369 -0.1140 -0.4452  0.5774
  588MOL0     C79271   0.710   4.048   9.363  0.3504 -0.2708  0.0274
  588MOL0     C79272   0.722   4.156   9.444 -0.3885 -0.4392 -0.2260
  588MOL0     C79273   0.604   4.253   9.435 -0.8318 -0.2798  0.3582
  588MOL0     C79274   0.830   4.171   9.528 -0.5685 -0.1704  1.1525
  588MOL0     C79275   0.851   4.291   9.614  1.3059 -0.4101 -0.1519
  588MOL0     O79276   0.928   4.266   9.721  0.2281  0.0420 -0.2470
  588MOL0     C79277   0.933   4.342   9.830  0.2952 -0.4065 -0.8408
  588MOL0     C79278   0.845   4.442   9.877  0.0303 -0.1046 -0.7894
  588MOL0     C79279   0.867   4.494  10.000  0.6125 -0.0368  0.1199
  588MOL0     C79280   0.975   4.453  10.083 -0.6876  0.2310  1.2486
  588MOL0     O79281   1.005   4.507  10.206  0.1180  0.4248  0.9654
  588MOL0     C79282   1.102   4.604  10.206 -0.8172 -0.8862 -0.8137
  588MOL0     C79283   1.222   4.545  10.293 -0.1966 -0.3254  0.3294
  588MOL0     C79284   1.348   4.633  10.288 -0.1607  0.5910  0.6204
  588MOL0     C79285   1.472   4.575  10.215  0.4759  0.0030 -0.1192
  588MOL0     C79286   1.560   4.687  10.150  0.5455  0.4169 -0.1433
  588MOL0     C79287   1.630   4.782  10.244  0.6877 -0.0562  0.0522
  588MOL0     C79288   1.732   4.717  10.336 -0.4467  0.0669  0.1023
  588MOL0     C79289   1.788   4.814  10.438 -0.5951 -0.0327 -0.4267
  588MOL0    Cl79290   1.662   4.860  10.555 -0.6355 -0.3571 -0.2335
  588MOL0     C79291   1.054   4.350  10.038 -0.3875  0.4312 -1.8669
  588MOL0     C79292   1.033   4.298   9.913  0.2587 -0.4394  0.0787
  588MOL0     O79293   0.785   4.391   9.596 -0.4154  0.0023 -0.0053
  588MOL0     C79294   0.937   4.074   9.522  1.3961 -0.7278  0.2989
  588MOL0     C79295   0.917   3.961   9.443  0.1251  0.5892  0.5589
  588MOL0     N79296   0.962   4.097   8.881  1.3733  0.9099  0.6774
  588MOL0     N79297   0.995   4.224   8.866  0.0016 -0.4224 -0.0471
  588MOL0     C79298   1.897   4.725   9.176  0.9239  0.0642  0.0222
  588MOL0     C79299   2.036   4.722   9.178 -0.7093  0.1464  0.7062
  588MOL0     C79300   2.435   4.604   9.418 -1.2237 -0.0968 -1.0007
  588MOL0     C79301   2.510   4.711   9.373  0.1159  0.1117  0.1497
  588MOL0     C79302   2.634   4.733   9.430 -0.5125  0.3188 -0.1314
  588MOL0     C79303   2.693   4.629   9.512 -0.7652 -0.7110  0.2515
  588MOL0     O79304   2.826   4.641   9.541  0.5196 -0.5930 -0.1179
  588MOL0     C79305   2.866   4.605   9.680 -0.3733  0.5859 -0.0281
  588MOL0     C79306   2.923   4.725   9.746 -0.1514 -0.7542  0.7541
  588MOL0     C79307   3.014   4.817   9.671 -0.9568 -0.2366  0.2086
  588MOL0     C79308   2.959   4.956   9.637 -0.5893 -0.0405  0.2874
  588MOL0     C79309   3.046   5.046   9.562  0.0938 -0.1352 -0.0931
  588MOL0     C79310   3.120   5.111   9.498 -0.5470 -0.3858 -0.2827
  588MOL0     C79311   2.629   4.505   9.534 -0.1114 -0.2824 -0.6946
  588MOL0     C79312   2.496   4.506   9.497  0.1712  0.3035  1.2097
  588MOL0     H79313   2.068   4.684   9.521 -0.9616 -2.3230  0.2122
  588MOL0     H79314   1.827   4.715   9.512  3.1994 -1.4010  2.1799
  588MOL0     H79315   1.651   4.587   9.454 -0.3645 -0.4536 -0.8427
  588MOL0     H79316   1.617   4.757   9.479 -0.1859 -0.6736  0.8225
  588MOL0     H79317   1.459   4.542   9.337 -0.8151 -1.6075  3.6461
  588MOL0     H79318   1.413   4.630   9.480  0.1450 -0.8219 -0.2268
  588MOL0     H79319   1.395   4.846   9.325 -1.7223  0.8598 -1.9019
  588MOL0     H79320   1.408   4.755   9.195  0.3316  3.0905  0.2793
  588MOL0     H79321   1.208   4.650   9.396 -0.9939  0.9922  0.3738
  588MOL0     H79322   1.181   4.814   9.342 -1.9140 -1.4467  0.8114
  588MOL0     H79323   1.174   4.757   9.119 -1.1619 -1.5359 -0.5052
  588MOL0     H79324   1.244   4.599   9.125 -0.0496 -0.5380 -0.8931
  588MOL0     H79325   0.994   4.634   9.282  0.7705 -0.9413 -0.2206
  588MOL0     H79326   0.964   4.658   9.116 -1.7564  4.0101  4.3210
  588MOL0     H79327   1.126   4.430   9.234 -0.0123 -0.0392  0.6912
  588MOL0     H79328   0.948   4.414   9.209 -0.0236  0.8169  1.5449
  588MOL0     H79329   1.159   4.438   8.989  0.0657 -1.1763 -1.1383
  588MOL0     H79330   0.991   4.484   8.970  0.0431  2.9464  2.8106
  588MOL0     H79331   1.018   4.176   9.189 -1.6318 -2.0988  0.9911
  588MOL0     H79332   1.052   3.877   8.994 -0.2165  2.4566 -2.1190
  588MOL0     H79333   0.978   3.907   9.157  0.5421 -1.8690  0.2929
  588MOL0     H79334   0.846   3.738   9.010  2.3495 -0.5583 -1.7510
  588MOL0     H79335   0.812   3.868   8.888 -1.1062 -1.6591 -0.4765
  588MOL0     H79336   0.628   3.905   9.006  0.1468  2.1680 -0.4365
  588MOL0     H79337   0.725   4.013   9.094 -0.8459  0.3825 -0.4856
  588MOL0     H79338   0.667   3.727   9.150  0.7476  1.0548 -1.6599
  588MOL0     H79339   0.588   3.853   9.236 -0.5785 -1.3993 -0.2594
  588MOL0     H79340   0.612   4.024   9.323  1.2692 -0.5447 -2.2189
  588MOL0     H79341   0.652   4.350   9.418 -0.4023 -0.6127 -0.4021
  588MOL0     H79342   0.534   4.217   9.358 -1.3235  2.0565 -0.3848
  588MOL0     H79343   0.548   4.255   9.528 -1.5313 -2.2326  0.0364
  588MOL0     H79344   0.752   4.470   9.829 -1.3650 -0.1691  1.7014
  588MOL0     H79345   0.800   4.573  10.030 -1.0354 -1.3366  0.0464
  588MOL0     H79346   1.142   4.633  10.109 -3.5224  4.2373 -0.7184
  588MOL0     H79347   1.064   4.701  10.240  2.5548  0.9566 -1.7909
  588MOL0     H79348   1.194   4.514  10.394  1.5120 -0.8434  0.6840
  588MOL0     H79349   1.243   4.449  10.245  0.5049 -0.2727  0.5135
  588MOL0     H79350   1.387   4.666  10.385  2.3892 -1.3080  0.3447
  588MOL0     H79351   1.325   4.714  10.218 -0.3310 -1.4677 -1.8735
  588MOL0     H79352   1.532   4.524  10.291  0.6212 -0.5678 -0.6056
  588MOL0     H79353   1.444   4.503  10.137 -2.6359  0.9794 -0.0251
  588MOL0     H79354   1.518   4.746  10.068  3.4780 -0.4429 -2.4201
  588MOL0     H79355   1.640   4.629  10.105  4.4815  2.5562  3.3721
  588MOL0     H79356   1.681   4.863  10.190 -1.0863  0.1534 -1.4227
  588MOL0     H79357   1.556   4.839  10.302  0.7148 -0.2248  0.2559
  588MOL0     H79358   1.813   4.672  10.277 -0.4886  1.6363 -1.2456
  588MOL0     H79359   1.682   4.642  10.397  0.3434 -0.6480 -0.1019
  588MOL0     H79360   1.830   4.898  10.382 -2.0111 -0.1376 -1.7160
  588MOL0     H79361   1.866   4.761  10.493 -1.5911 -0.0647  0.9831
  588MOL0     H79362   1.154   4.338  10.078 -0.5959  3.0631 -0.3593
  588MOL0     H79363   1.109   4.244   9.857  1.9905  0.2267  1.6425
  588MOL0     H79364   1.027   4.097   9.579  1.2215 -1.2027  0.7756
  588MOL0     H79365   0.997   3.890   9.429  0.5259  1.3748 -1.6184
  588MOL0     H79366   1.837   4.732   9.085 -1.8546 -0.6440  1.6811
  588MOL0     H79367   2.086   4.732   9.082 -0.8264 -3.6164  0.0651
  588MOL0     H79368   2.460   4.784   9.310  0.4874 -0.0767 -0.3632
  588MOL0     H79369   2.695   4.819   9.409  3.2886 -2.0994  0.1070
  588MOL0     H79370   2.787   4.559   9.740  1.2337 -2.8171 -0.2772
  588MOL0     H79371   2.948   4.533   9.678  0.3167  1.3288  0.7282
  588MOL0     H79372   2.968   4.695   9.842 -1.4882 -3.2402  0.6914
  588MOL0     H79373   2.835   4.787   9.766  0.4276  0.6054 -0.6972
  588MOL0     H79374   3.040   4.769   9.577 -0.2280  0.6979 -0.0812
  588MOL0     H79375   3.110   4.826   9.722  0.8888 -3.6105 -2.2933
  588MOL0     H79376   2.915   4.998   9.728 -2.0980  0.0292 -0.4262
  588MOL0     H79377   2.876   4.948   9.565  0.6879  0.1623 -1.2632
  588MOL0     H79378   3.211   5.150   9.457 -0.3383 -3.2220 -2.8345
  588MOL0     H79379   2.661   4.421   9.595 -0.8997 -0.0418  0.0772
  588MOL0     H79380   2.433   4.423   9.528 -2.1902  1.6370  0.2154
  589MOL0     O79381   8.333   8.460   3.255 -0.1210 -0.1481  0.2256
  589MOL0     C79382   8.410   8.542   3.295  0.6100 -0.7000 -1.5750
  589MOL0     O79383   8.371   8.662   3.346  0.2608 -0.4518 -0.5105
  589MOL0     C79384   8.234   8.685   3.359 -0.0918 -0.6937  0.1569
  589MOL0     C79385   8.145   8.602   3.425 -0.1628  0.5559  1.1023
  589MOL0     C79386   8.008   8.632   3.431 -1.3031 -0.2701 -0.2057
  589MOL0     C79387   7.959   8.745   3.361  0.6526  1.2178  0.7207
  589MOL0     O79388   7.833   8.784   3.366  0.7174 -0.9512  0.2237
  589MOL0     C79389   7.735   8.722   3.455  0.0500 -0.1658  0.3218
  589MOL0     C79390   7.611   8.805   3.458 -0.9874 -0.6125 -0.6805
  589MOL0     C79391   7.537   8.800   3.317  0.0241  0.1933 -0.9383
  589MOL0     C79392   7.394   8.862   3.335 -0.1378  0.2524 -0.0653
  589MOL0     C79393   7.285   8.757   3.340 -0.1469  0.1621 -0.2825
  589MOL0     C79394   7.152   8.818   3.375 -0.3503 -0.4130 -0.2419
  589MOL0     C79395   7.029   8.733   3.337 -0.0104 -0.1705  0.2591
  589MOL0     C79396   6.891   8.771   3.413  0.5492  0.1522 -0.8633
  589MOL0     N79397   6.773   8.731   3.337  0.0550 -0.2272 -0.4548
  589MOL0     C79398   6.700   8.813   3.263  0.2473  0.5818 -0.1424
  589MOL0     C79399   6.595   8.739   3.212 -0.0400  0.8771  0.5413
  589MOL0     C79400   6.499   8.786   3.108  0.2982  0.8671  1.1041
  589MOL0     C79401   6.354   8.750   3.152 -0.5725  1.2136 -0.8775
  589MOL0     C79402   6.244   8.837   3.090 -0.1442 -0.6182 -0.3837
  589MOL0     C79403   6.109   8.772   3.086 -0.3075 -0.2540 -0.4187
  589MOL0     O79404   6.037   8.861   2.997 -0.3456 -0.0647 -0.4550
  589MOL0     C79405   5.910   8.821   2.983 -0.0464 -0.9779  0.7350
  589MOL0     C79406   5.816   8.908   3.032  0.6387  0.3763 -0.9125
  589MOL0     C79407   5.678   8.876   3.035  0.5729  0.0785 -1.0242
  589MOL0     C79408   5.594   8.972   3.117 -0.5824  0.7734  1.0939
  589MOL0     C79409   5.635   8.755   2.983  0.5332  0.2457  1.5178
  589MOL0     C79410   5.486   8.714   2.981 -0.4572  0.1216  0.4210
  589MOL0     O79411   5.389   8.805   2.997 -0.8305  0.1988  0.4638
  589MOL0     C79412   5.262   8.777   2.944 -0.3588  0.0088 -0.0775
  589MOL0     C79413   5.143   8.782   3.024 -1.5633 -0.0876  0.5877
  589MOL0     C79414   5.015   8.776   2.968  0.1346  0.1067 -0.6486
  589MOL0     C79415   4.987   8.766   2.827 -0.6361  0.4971  0.4043
  589MOL0     O79416   4.865   8.737   2.765 -0.0915 -0.6194  0.0820
  589MOL0     C79417   4.742   8.746   2.844  0.7123  0.0937 -0.4026
  589MOL0     C79418   4.617   8.700   2.776 -0.4734 -0.8659  0.2503
  589MOL0     C79419   4.545   8.591   2.860 -0.1898 -0.3311 -0.8075
  589MOL0     C79420   4.407   8.583   2.801  0.8102  0.5511 -0.8786
  589MOL0     C79421   4.330   8.471   2.867  0.1919 -0.7775  0.1407
  589MOL0     C79422   4.175   8.476   2.822  0.0260  0.1420  0.1581
  589MOL0     C79423   4.086   8.362   2.879 -0.2845 -0.3614 -0.5679
  589MOL0     C79424   3.942   8.378   2.833  1.2136 -0.8461 -1.8722
  589MOL0    Cl79425   3.870   8.509   2.928  0.6336 -0.2301  0.2431
  589MOL0     C79426   5.106   8.766   2.751 -0.2678 -0.8152 -0.4110
  589MOL0     C79427   5.238   8.768   2.809  1.6913  0.8616  0.6359
  589MOL0     O79428   5.467   8.597   2.964  0.3481  0.0469  0.4172
  589MOL0     C79429   5.734   8.677   2.925 -0.9651  0.6508  0.4442
  589MOL0     C79430   5.872   8.710   2.916 -0.8572 -0.3665  0.5301
  589MOL0     N79431   6.611   8.614   3.266 -0.1684 -0.5757  0.2213
  589MOL0     N79432   6.709   8.608   3.348 -0.5742 -0.5695 -0.4372
  589MOL0     C79433   8.050   8.831   3.301  0.4896 -0.9025  0.0116
  589MOL0     C79434   8.185   8.796   3.297 -0.1653 -0.2132 -1.1200
  589MOL0     C79435   8.545   8.504   3.328  0.5860  0.7209  0.0648
  589MOL0     C79436   8.633   8.592   3.385 -0.7231  0.9874 -0.1494
  589MOL0     C79437   8.760   8.554   3.417  0.2775  0.0711 -0.5151
  589MOL0     C79438   8.798   8.420   3.406  0.4012  0.4638  0.9733
  589MOL0     O79439   8.919   8.364   3.450  0.1264 -0.6738 -0.5085
  589MOL0     C79440   8.986   8.447   3.551 -0.0528 -0.0492 -0.3618
  589MOL0     C79441   9.104   8.354   3.610  0.0834  0.1921 -0.1039
  589MOL0     C79442   9.059   8.212   3.658  0.1406 -0.6249 -0.2681
  589MOL0     C79443   9.125   8.097   3.585  0.6728 -0.5810  0.9980
  589MOL0     C79444   9.255   8.055   3.640 -0.1269 -0.2138  0.8280
  589MOL0     C79445   9.369   8.024   3.679 -0.0690  0.4925  0.5892
  589MOL0     C79446   8.708   8.331   3.351  0.1390 -0.2053 -0.1051
  589MOL0     C79447   8.587   8.374   3.298  0.4959  0.0223 -0.4547
  589MOL0     H79448   8.178   8.509   3.470 -2.3057 -2.0524 -2.1604
  589MOL0     H79449   7.942   8.561   3.479  0.4310 -2.1688 -0.5255
  589MOL0     H79450   7.724   8.619   3.420  1.0600 -0.0335 -0.4200
  589MOL0     H79451   7.775   8.723   3.557  3.0377  0.7855 -0.7706
  589MOL0     H79452   7.551   8.755   3.535  0.3991 -2.9082 -0.9779
  589MOL0     H79453   7.640   8.905   3.491 -0.3372 -0.8288 -0.5769
  589MOL0     H79454   7.593   8.863   3.248  0.2337  0.6842 -0.3329
  589MOL0     H79455   7.533   8.693   3.292 -3.2829 -0.1518  0.4958
  589MOL0     H79456   7.394   8.917   3.429  0.2564  1.5118 -0.7852
  589MOL0     H79457   7.387   8.940   3.258 -0.3973  0.3734  0.0781
  589MOL0     H79458   7.278   8.703   3.246 -2.9152  1.0593 -0.6607
  589MOL0     H79459   7.318   8.689   3.420  2.0182  0.7884 -0.5630
  589MOL0     H79460   7.144   8.846   3.480  1.5035 -0.3207 -0.1003
  589MOL0     H79461   7.139   8.902   3.305  0.0357 -0.7563 -0.7339
  589MOL0     H79462   7.009   8.752   3.231  0.9711  0.4921  0.1887
  589MOL0     H79463   7.045   8.624   3.341 -0.7192 -0.5195 -3.0301
  589MOL0     H79464   6.873   8.878   3.430 -2.1840 -0.4375  0.5588
  589MOL0     H79465   6.900   8.732   3.515  0.7486  2.0669 -0.1003
  589MOL0     H79466   6.695   8.918   3.235 -2.9634 -0.3033 -3.7280
  589MOL0     H79467   6.505   8.895   3.110 -1.4188  1.1363 -2.1221
  589MOL0     H79468   6.531   8.750   3.010  2.2461  0.2701  1.9090
  589MOL0     H79469   6.334   8.742   3.260 -2.6462 -3.2187 -1.3444
  589MOL0     H79470   6.326   8.650   3.115 -3.2963  1.3484  0.5023
  589MOL0     H79471   6.280   8.864   2.990  2.4420  2.9722  1.2995
  589MOL0     H79472   6.235   8.938   3.130 -1.8835 -0.4432 -1.1034
  589MOL0     H79473   6.063   8.782   3.185  0.9065  2.4609 -0.0335
  589MOL0     H79474   6.124   8.668   3.054 -2.0860 -0.2618 -1.3966
  589MOL0     H79475   5.845   9.000   3.081 -0.7808 -0.4687  1.7320
  589MOL0     H79476   5.530   9.017   3.040  0.8326 -0.4891 -0.8914
  589MOL0     H79477   5.532   8.907   3.180 -1.8912 -1.8801 -2.5721
  589MOL0     H79478   5.654   9.046   3.171 -0.3265 -1.3251  3.8874
  589MOL0     H79479   5.155   8.811   3.128  1.1337  2.2274 -0.2197
  589MOL0     H79480   4.932   8.754   3.034 -2.6936 -1.5352 -4.3444
  589MOL0     H79481   4.751   8.670   2.922 -1.3521 -0.7676 -0.9378
  589MOL0     H79482   4.733   8.846   2.887 -0.5282  0.4044 -1.3438
  589MOL0     H79483   4.543   8.779   2.760 -0.2501  0.6981  5.3504
  589MOL0     H79484   4.641   8.658   2.678  1.5680 -1.8413  1.1293
  589MOL0     H79485   4.534   8.624   2.964  0.7188  1.7396 -1.3282
  589MOL0     H79486   4.598   8.497   2.882 -2.1922 -1.5335 -0.8436
  589MOL0     H79487   4.347   8.671   2.825  0.5480  0.3377 -0.7585
  589MOL0     H79488   4.398   8.572   2.692  0.3942  1.1319 -0.9103
  589MOL0     H79489   4.342   8.473   2.975  0.1808 -1.9627  0.1767
  589MOL0     H79490   4.367   8.375   2.830 -2.4509 -1.8583  0.0435
  589MOL0     H79491   4.139   8.578   2.836  1.2478  0.4635  1.0455
  589MOL0     H79492   4.186   8.474   2.713  0.0054  3.6441 -0.0104
  589MOL0     H79493   4.089   8.364   2.988 -1.3397  1.4792 -0.5384
  589MOL0     H79494   4.130   8.268   2.843  0.0213 -0.4665  0.0724
  589MOL0     H79495   3.879   8.290   2.849  0.1414 -0.5401 -4.0201
  589MOL0     H79496   3.944   8.415   2.730  2.4633  1.6691 -1.0310
  589MOL0     H79497   5.103   8.741   2.646  1.8618  1.5634 -1.1266
  589MOL0     H79498   5.318   8.746   2.739  0.3196 -2.1915 -0.1399
  589MOL0     H79499   5.696   8.587   2.878 -2.5565  1.3875  0.2422
  589MOL0     H79500   5.950   8.649   2.873 -0.8719 -2.1241  2.7980
  589MOL0     H79501   8.018   8.922   3.251 -0.1763 -1.9130 -1.4430
  589MOL0     H79502   8.260   8.861   3.253  1.9962 -2.5810 -1.1518
  589MOL0     H79503   8.607   8.696   3.405  0.0076  1.1109  0.2028
  589MOL0     H79504   8.831   8.627   3.456  1.2074 -0.1666 -1.6692
  589MOL0     H79505   9.037   8.538   3.515  0.7168 -0.7747 -1.1638
  589MOL0     H79506   8.925   8.489   3.631  0.8427  1.2302 -0.3178
  589MOL0     H79507   9.146   8.396   3.702  2.4403  2.0792 -1.9042
  589MOL0     H79508   9.187   8.355   3.538  1.1944  0.4895  1.1426
  589MOL0     H79509   8.950   8.208   3.663  0.1753 -0.8407  4.1971
  589MOL0     H79510   9.091   8.194   3.761 -0.3415 -1.1046 -0.1913
  589MOL0     H79511   9.128   8.135   3.483 -1.1657  0.9136  1.4294
  589MOL0     H79512   9.056   8.013   3.594 -1.3202  0.9179  0.6232
  589MOL0     H79513   9.458   7.975   3.714 -0.5929  0.0180  1.3090
  589MOL0     H79514   8.733   8.227   3.331 -1.4832 -0.1918 -2.6209
  589MOL0     H79515   8.518   8.306   3.250  0.4652 -1.3591  1.4095
  590MOL0     O79516   7.905  10.726   9.819 -0.6026  0.7632  0.0551
  590MOL0     C79517   7.909  10.652   9.914 -0.6474  0.4372 -0.1448
  590MOL0     O79518   7.802  10.610   9.979 -0.0989 -0.2926  0.1410
  590MOL0     C79519   7.683  10.680   9.987 -0.3187 -0.0508  0.0824
  590MOL0     C79520   7.588  10.611  10.057  1.4794 -0.3268 -0.4304
  590MOL0     C79521   7.458  10.663  10.054 -0.3393  0.0279  0.5520
  590MOL0     C79522   7.427  10.791   9.999 -0.5002  0.0938  0.3594
  590MOL0     O79523   7.305  10.860  10.020 -0.9002  0.5938 -0.2655
  590MOL0     C79524   7.194  10.784  10.070 -0.7003  0.6848  0.4278
  590MOL0     C79525   7.069  10.868  10.032 -0.5018  0.6615  0.8708
  590MOL0     C79526   7.012  10.847   9.889  0.0682  0.5803 -0.9860
  590MOL0     C79527   7.092  10.893   9.776 -0.3889  0.3897  0.2250
  590MOL0     C79528   7.156  11.036   9.778  0.0844  0.1272 -0.4610
  590MOL0     C79529   7.049  11.140   9.799 -0.1577 -0.6313  0.5977
  590MOL0     C79530   7.103  11.284   9.756  0.1120  0.4516  0.8061
  590MOL0     C79531   6.997  11.399   9.782  0.2989  0.5664 -0.0047
  590MOL0     N79532   6.983  11.478   9.658  0.0632 -0.2114  0.2875
  590MOL0     C79533   6.958  11.440   9.529  0.8095  0.3123 -0.1517
  590MOL0     C79534   6.950  11.552   9.464  0.8100 -0.1421 -0.8449
  590MOL0     C79535   6.895  11.558   9.324 -0.5810 -0.3521 -0.3392
  590MOL0     C79536   6.748  11.597   9.292 -0.1400  0.5486  0.3267
  590MOL0     C79537   6.721  11.747   9.298 -0.2448  0.2415  0.4453
  590MOL0     C79538   6.574  11.792   9.284 -0.1971  0.0850 -0.3129
  590MOL0     O79539   6.548  11.930   9.324  0.0331 -0.5276  0.1611
  590MOL0     C79540   6.442  11.993   9.265  0.0117 -0.1158  0.4498
  590MOL0     C79541   6.449  12.034   9.133 -0.7987 -0.9644  0.1777
  590MOL0     C79542   6.336  12.096   9.068  0.0243 -0.0549 -0.2873
  590MOL0     C79543   6.326  12.113   8.913  0.4284 -0.4685  0.5541
  590MOL0     C79544   6.219  12.120   9.142  1.3597 -0.5489 -0.4291
  590MOL0     C79545   6.093  12.185   9.091 -0.7800 -0.7510  0.3265
  590MOL0     O79546   6.089  12.220   8.963 -0.3590 -0.8482 -0.5694
  590MOL0     C79547   6.013  12.326   8.927 -0.2493  0.8818 -0.8417
  590MOL0     C79548   5.883  12.306   8.890 -0.4459  0.0970 -0.0600
  590MOL0     C79549   5.810  12.406   8.833  0.7503  0.6699 -0.5917
  590MOL0     C79550   5.866  12.536   8.828 -0.9941  0.4617 -0.0084
  590MOL0     O79551   5.815  12.651   8.778 -0.3651  0.0866 -0.0018
  590MOL0     C79552   5.670  12.664   8.790 -0.1898 -0.8199  0.3360
  590MOL0     C79553   5.596  12.628   8.660 -0.1041  0.2954 -0.7037
  590MOL0     C79554   5.636  12.730   8.547 -0.3946 -0.5688 -0.0085
  590MOL0     C79555   5.556  12.701   8.417  0.2121 -0.4433 -0.0993
  590MOL0     C79556   5.643  12.651   8.301  1.8560  0.4024  0.6130
  590MOL0     C79557   5.756  12.746   8.260 -1.3729  0.0169 -0.3094
  590MOL0     C79558   5.805  12.676   8.133 -0.0456 -0.2059 -0.7708
  590MOL0     C79559   5.915  12.775   8.064 -0.5502  0.2751 -0.4285
  590MOL0    Cl79560   6.057  12.680   8.051 -0.3006 -0.1948  0.0178
  590MOL0     C79561   5.999  12.557   8.884  0.0075  0.1290 -0.0337
  590MOL0     C79562   6.075  12.450   8.927 -1.2039  0.4105 -0.3425
  590MOL0     O79563   6.005  12.201   9.169 -0.1866  0.3282  0.2639
  590MOL0     C79564   6.222  12.095   9.286 -0.1093  0.8932  0.3544
  590MOL0     C79565   6.330  12.027   9.334 -0.7027 -0.3698 -0.2968
  590MOL0     N79566   6.993  11.659   9.544  0.2157 -0.2227  0.0628
  590MOL0     N79567   7.007  11.615   9.667 -0.1337  0.8659  0.0879
  590MOL0     C79568   7.532  10.863   9.949  0.5397 -0.2624  0.0556
  590MOL0     C79569   7.661  10.805   9.934 -0.1432 -1.4856 -0.8393
  590MOL0     C79570   8.034  10.586   9.954 -0.1185  0.4140 -0.0901
  590MOL0     C79571   8.151  10.607   9.874 -0.2406  0.1941 -0.5967
  590MOL0     C79572   8.264  10.538   9.907  0.0631 -1.1574  0.1998
  590MOL0     C79573   8.273  10.451  10.020 -0.0328  0.4051 -0.1655
  590MOL0     O79574   8.381  10.371  10.046  0.3880  0.4232 -0.0149
  590MOL0     C79575   8.506  10.399   9.979  0.3579  0.7521 -0.6154
  590MOL0     C79576   8.601  10.295  10.036 -0.1506  0.3728  0.2471
  590MOL0     C79577   8.744  10.326   9.993  0.0166  0.2464  0.3191
  590MOL0     C79578   8.840  10.249  10.076 -0.6454  0.4639  0.1929
  590MOL0     C79579   8.970  10.237  10.011 -0.2180  0.4144 -0.8412
  590MOL0     C79580   9.082  10.232   9.964  0.0587  0.5492 -0.1782
  590MOL0     C79581   8.156  10.448  10.106 -0.8848 -0.3550  0.6891
  590MOL0     C79582   8.043  10.518  10.069  0.5982 -1.1224 -0.3987
  590MOL0     H79583   7.618  10.512  10.089  1.4476 -0.0106  0.6084
  590MOL0     H79584   7.383  10.607  10.110  1.1311 -0.5566  2.0204
  590MOL0     H79585   7.193  10.685  10.022  0.1871  1.3505 -1.0354
  590MOL0     H79586   7.196  10.765  10.178 -2.3816  0.4750  0.4639
  590MOL0     H79587   6.982  10.846  10.095 -1.2937  2.1242  0.3232
  590MOL0     H79588   7.095  10.973  10.041  0.3138  0.4408  1.2084
  590MOL0     H79589   7.004  10.739   9.870  0.7732  0.2777  0.2992
  590MOL0     H79590   6.918  10.900   9.876 -0.7113  0.7462  3.7252
  590MOL0     H79591   7.181  10.829   9.773  0.5051  1.5608  1.2021
  590MOL0     H79592   7.034  10.875   9.685  1.2173  0.6869 -0.9016
  590MOL0     H79593   7.224  11.034   9.864 -2.4302 -3.2034  1.7294
  590MOL0     H79594   7.213  11.056   9.687 -0.5053  0.0866 -0.8451
  590MOL0     H79595   6.961  11.108   9.742 -0.3727  0.0860  0.5150
  590MOL0     H79596   7.010  11.150   9.901  0.8856  1.7194  0.8344
  590MOL0     H79597   7.194  11.312   9.811 -1.1447  1.7469  2.3260
  590MOL0     H79598   7.130  11.286   9.650 -1.4649  3.6170  0.3428
  590MOL0     H79599   7.009  11.464   9.868 -3.2457 -1.9770  2.7398
  590MOL0     H79600   6.903  11.347   9.806  0.3678 -0.8156 -2.3169
  590MOL0     H79601   6.930  11.345   9.485 -0.0606  1.4664 -2.2099
  590MOL0     H79602   6.953  11.628   9.264 -1.6496 -0.2821 -1.3167
  590MOL0     H79603   6.910  11.456   9.287  0.7531 -1.1805  2.2047
  590MOL0     H79604   6.688  11.543   9.367  0.2777 -1.2964 -0.5952
  590MOL0     H79605   6.725  11.555   9.193  1.3952 -1.6265  0.8057
  590MOL0     H79606   6.779  11.789   9.215  0.7661 -1.1859  0.4037
  590MOL0     H79607   6.762  11.784   9.392  4.0179 -4.8380  1.0548
  590MOL0     H79608   6.505  11.728   9.339  2.2797 -1.1505  1.5741
  590MOL0     H79609   6.551  11.777   9.178  0.5041 -3.1463 -0.1172
  590MOL0     H79610   6.536  12.005   9.075  0.2607 -1.7541  2.1089
  590MOL0     H79611   6.243  12.055   8.872 -1.3194 -0.4249  3.7421
  590MOL0     H79612   6.324  12.216   8.877 -1.9459 -0.0133  1.7729
  590MOL0     H79613   6.419  12.068   8.876  0.8294 -0.5127  1.5609
  590MOL0     H79614   5.849  12.205   8.912 -1.8241  0.8025  1.1533
  590MOL0     H79615   5.708  12.382   8.808  2.1477 -2.3408 -4.3913
  590MOL0     H79616   5.629  12.595   8.864 -2.0201 -0.9302 -0.6987
  590MOL0     H79617   5.650  12.769   8.813 -0.5350 -0.0446 -2.9939
  590MOL0     H79618   5.606  12.522   8.632 -0.9687 -0.9095  2.9443
  590MOL0     H79619   5.489  12.639   8.678 -0.6730  0.3205 -3.6589
  590MOL0     H79620   5.739  12.700   8.526 -0.1640  0.4073 -0.2929
  590MOL0     H79621   5.618  12.833   8.578 -0.0817 -0.3815 -0.4456
  590MOL0     H79622   5.476  12.628   8.431  1.5049 -2.4129 -2.2754
  590MOL0     H79623   5.501  12.791   8.391 -1.0363 -1.3762 -0.7976
  590MOL0     H79624   5.581  12.626   8.214  2.7620 -2.2963  0.6375
  590MOL0     H79625   5.689  12.556   8.331 -0.7724 -1.7412 -1.6350
  590MOL0     H79626   5.725  12.850   8.245  0.2294  0.5969  0.1336
  590MOL0     H79627   5.831  12.752   8.340 -2.5706 -0.3284  0.8784
  590MOL0     H79628   5.728  12.653   8.059 -2.2273  0.4536  1.1549
  590MOL0     H79629   5.864  12.586   8.152 -0.5343 -0.9726 -2.7337
  590MOL0     H79630   5.934  12.869   8.116 -0.1717 -0.4386  0.7717
  590MOL0     H79631   5.884  12.796   7.961 -1.2648  2.5355  0.1998
  590MOL0     H79632   6.045  12.654   8.868 -1.3966  0.7859 -0.3449
  590MOL0     H79633   6.182  12.450   8.948 -1.5608 -0.6713  1.7611
  590MOL0     H79634   6.147  12.117   9.361 -0.8631 -0.0741 -0.0952
  590MOL0     H79635   6.324  11.996   9.437  1.6196  1.7369  0.5725
  590MOL0     H79636   7.505  10.964   9.922 -2.1635  1.0947  6.2216
  590MOL0     H79637   7.736  10.862   9.881  2.8325  0.8225  4.9951
  590MOL0     H79638   8.153  10.681   9.794  1.0201 -0.0088 -0.7794
  590MOL0     H79639   8.350  10.538   9.840 -1.5503 -0.6186 -1.9889
  590MOL0     H79640   8.501  10.390   9.870  0.9550 -1.1714 -0.5310
  590MOL0     H79641   8.552  10.493  10.009 -0.5517  1.2521 -0.7573
  590MOL0     H79642   8.573  10.190  10.019 -0.4887  0.4245  0.4809
  590MOL0     H79643   8.595  10.303  10.144 -2.4049 -1.5803  0.3443
  590MOL0     H79644   8.749  10.435   9.998  2.1796  0.2134 -0.1099
  590MOL0     H79645   8.754  10.303   9.886  0.8000  1.3252  0.1394
  590MOL0     H79646   8.803  10.148  10.098 -1.8218  0.2646 -2.3188
  590MOL0     H79647   8.856  10.296  10.173 -1.0666  0.7762  0.1145
  590MOL0     H79648   9.177  10.212   9.919  1.5634  0.7386  2.6252
  590MOL0     H79649   8.153  10.402  10.204  2.2547 -4.0275 -0.6930
  590MOL0     H79650   7.966  10.513  10.145  0.7467 -2.1736 -0.3067
  591MOL0     O79651   7.962   4.448  10.245 -0.1791  0.4154 -0.2377
  591MOL0     C79652   7.917   4.520  10.337  0.4945 -0.0391  0.6954
  591MOL0     O79653   7.791   4.514  10.391  0.3388  0.4341 -0.1297
  591MOL0     C79654   7.687   4.453  10.322 -0.3363 -0.6801  0.0122
  591MOL0     C79655   7.677   4.437  10.181 -0.6117  0.1993 -0.5758
  591MOL0     C79656   7.563   4.375  10.120 -0.0022  0.0324 -0.4817
  591MOL0     C79657   7.466   4.310  10.196 -0.3273 -0.5795  0.7029
  591MOL0     O79658   7.347   4.255  10.151  0.3402 -0.4652 -0.1516
  591MOL0     C79659   7.338   4.265  10.009 -0.3396  0.5619 -0.2958
  591MOL0     C79660   7.196   4.239   9.972 -0.3299  0.0973  0.2351
  591MOL0     C79661   7.163   4.083   9.975 -0.4951 -0.6047 -0.1086
  591MOL0     C79662   7.046   4.071   9.875  0.0160 -0.3059 -1.2371
  591MOL0     C79663   7.014   3.928   9.837 -1.5471 -0.5307 -0.7267
  591MOL0     C79664   6.891   3.908   9.751  0.1987  0.1052 -0.2074
  591MOL0     C79665   6.931   3.910   9.605 -0.6423  0.4467  0.3420
  591MOL0     C79666   6.810   3.906   9.513 -0.3676  0.9163  0.0325
  591MOL0     N79667   6.846   3.869   9.370 -0.2210  0.1603  1.0740
  591MOL0     C79668   6.781   3.777   9.285 -0.2683 -0.1423 -1.2815
  591MOL0     C79669   6.821   3.807   9.165 -0.5903 -0.1607 -0.3119
  591MOL0     C79670   6.784   3.720   9.048  0.2486  0.3050  1.1374
  591MOL0     C79671   6.660   3.790   8.976  0.2676 -0.2712  0.6794
  591MOL0     C79672   6.712   3.859   8.849 -0.0404 -0.1408  0.5905
  591MOL0     C79673   6.601   3.923   8.772  0.6881  0.2160  0.7849
  591MOL0     O79674   6.513   3.826   8.707  0.2930 -0.5082 -0.0603
  591MOL0     C79675   6.399   3.884   8.654  0.3459 -0.3887 -0.5334
  591MOL0     C79676   6.277   3.842   8.697  0.2071 -0.6430  0.1281
  591MOL0     C79677   6.155   3.897   8.659  0.6180  0.6339 -0.8079
  591MOL0     C79678   6.028   3.837   8.705 -0.3976  0.3081 -0.6667
  591MOL0     C79679   6.152   4.013   8.572  0.4303  0.3089 -0.0857
  591MOL0     C79680   6.030   4.080   8.527 -0.1171  0.8732  0.0373
  591MOL0     O79681   6.025   4.129   8.406 -0.3122 -0.6665 -0.3303
  591MOL0     C79682   5.903   4.176   8.365  0.8479 -0.4792 -0.0950
  591MOL0     C79683   5.803   4.089   8.332 -0.2428  0.7767  0.4381
  591MOL0     C79684   5.682   4.134   8.281 -0.2139 -0.5292  0.2678
  591MOL0     C79685   5.655   4.268   8.241 -0.1379 -0.9704  0.6690
  591MOL0     O79686   5.547   4.312   8.172  0.6358  0.2766 -0.1132
  591MOL0     C79687   5.418   4.249   8.189 -0.6415 -0.2766  0.0697
  591MOL0     C79688   5.398   4.179   8.050  0.4568  0.0800 -0.3339
  591MOL0     C79689   5.293   4.240   7.953 -0.3220  0.5093 -0.1074
  591MOL0     C79690   5.268   4.145   7.827 -0.3843 -0.5155 -0.1447
  591MOL0     C79691   5.166   4.203   7.737  0.3527 -0.2934 -0.8635
  591MOL0     C79692   5.024   4.169   7.789  0.5535 -0.5358  0.3993
  591MOL0     C79693   4.920   4.250   7.711  1.3116 -0.9441  0.0077
  591MOL0     C79694   4.780   4.183   7.747  0.1155  0.3355 -0.7263
  591MOL0    Cl79695   4.653   4.227   7.629 -0.0071  0.7921  0.3765
  591MOL0     C79696   5.764   4.350   8.256 -0.0966  0.0231 -1.1270
  591MOL0     C79697   5.884   4.314   8.324 -0.0766  1.0037  0.2830
  591MOL0     O79698   5.938   4.099   8.616 -0.2566  0.1414  0.6672
  591MOL0     C79699   6.276   4.047   8.521 -0.3315 -0.5619  0.1815
  591MOL0     C79700   6.394   3.989   8.560 -0.3448  0.7171 -1.0869
  591MOL0     N79701   6.916   3.907   9.186  0.2845  1.0497 -0.5856
  591MOL0     N79702   6.937   3.945   9.300 -0.6158 -0.5041 -0.0222
  591MOL0     C79703   7.479   4.323  10.336 -0.1196 -0.6113  0.1688
  591MOL0     C79704   7.579   4.398  10.392 -0.4010  0.8954 -0.0684
  591MOL0     C79705   8.015   4.612  10.389 -0.0760  0.1212  0.5737
  591MOL0     C79706   8.159   4.609  10.351 -0.3578 -0.8100 -1.1698
  591MOL0     C79707   8.243   4.703  10.404 -0.4794  0.0933  0.0312
  591MOL0     C79708   8.203   4.799  10.495  0.4502 -0.3367  0.4319
  591MOL0     O79709   8.274   4.907  10.541  0.2731  0.5160 -0.6311
  591MOL0     C79710   8.391   4.937  10.467 -0.6373  0.3800 -0.0444
  591MOL0     C79711   8.474   5.053  10.522  0.9350 -0.8901 -0.4524
  591MOL0     C79712   8.568   5.110  10.419 -0.6269  0.2584  0.4760
  591MOL0     C79713   8.693   5.176  10.458 -0.6383  0.3534 -0.0954
  591MOL0     C79714   8.774   5.098  10.553 -0.4089  0.9825  0.6307
  591MOL0     C79715   8.849   5.041  10.626  0.5369 -0.2460 -0.5887
  591MOL0     C79716   8.069   4.810  10.530 -1.0307  0.3198 -0.9235
  591MOL0     C79717   7.978   4.728  10.468  0.8639  0.7458  0.1502
  591MOL0     H79718   7.753   4.484  10.119  0.0511  2.6075  1.8725
  591MOL0     H79719   7.574   4.357  10.013  1.9800  0.2324 -0.3489
  591MOL0     H79720   7.358   4.369   9.981  3.6079  1.1374  3.4582
  591MOL0     H79721   7.408   4.194   9.966 -0.5061 -0.6729  1.3610
  591MOL0     H79722   7.121   4.282  10.038 -0.4640 -0.1258  0.2312
  591MOL0     H79723   7.178   4.282   9.873 -2.8875 -0.2016  0.4941
  591MOL0     H79724   7.244   4.016   9.943 -1.0274 -1.5044  0.3959
  591MOL0     H79725   7.140   4.049  10.076  3.0704  2.8604  2.1894
  591MOL0     H79726   6.953   4.121   9.902 -0.1042  0.1191 -2.3684
  591MOL0     H79727   7.077   4.125   9.785 -2.0750  3.1876 -0.0584
  591MOL0     H79728   7.101   3.877   9.794  0.2774  2.2930 -0.6562
  591MOL0     H79729   7.008   3.888   9.939 -2.0424  1.1890 -0.0385
  591MOL0     H79730   6.824   3.822   9.766 -2.1642  1.8622  0.0273
  591MOL0     H79731   6.815   3.987   9.759  0.3432  0.4088 -1.5676
  591MOL0     H79732   6.978   4.006   9.583 -3.4766  1.4703 -1.6667
  591MOL0     H79733   6.998   3.830   9.571 -0.0016  0.5758  1.2445
  591MOL0     H79734   6.768   4.007   9.511  0.5433  1.3471 -3.2159
  591MOL0     H79735   6.741   3.825   9.538  1.0503 -0.4808 -0.4385
  591MOL0     H79736   6.712   3.703   9.323 -0.5037 -0.3837 -2.1518
  591MOL0     H79737   6.869   3.724   8.979 -1.3168  0.2973 -0.8880
  591MOL0     H79738   6.764   3.622   9.092 -1.1087  0.1122  0.1465
  591MOL0     H79739   6.622   3.865   9.046  0.0799 -0.8904  1.2550
  591MOL0     H79740   6.579   3.718   8.962  0.3033 -0.6199  2.0995
  591MOL0     H79741   6.758   3.777   8.792 -0.8007 -0.9200  1.0636
  591MOL0     H79742   6.786   3.935   8.876 -0.1019  0.9409 -2.0387
  591MOL0     H79743   6.650   3.978   8.691  0.6524 -2.9199 -1.5628
  591MOL0     H79744   6.545   3.985   8.842 -1.2384 -0.6348  0.0896
  591MOL0     H79745   6.265   3.760   8.767 -3.9302  1.3770  2.1021
  591MOL0     H79746   5.947   3.897   8.748 -2.5967 -2.3648 -0.7603
  591MOL0     H79747   5.977   3.790   8.620 -3.3449  2.4826 -0.2808
  591MOL0     H79748   6.032   3.758   8.780 -1.4271 -1.0039 -1.9213
  591MOL0     H79749   5.822   3.983   8.342  2.9317  0.6122 -4.1865
  591MOL0     H79750   5.608   4.057   8.259  1.0194 -2.1801  1.5940
  591MOL0     H79751   5.418   4.168   8.263  0.8844 -1.8591 -1.5461
  591MOL0     H79752   5.339   4.322   8.207 -1.1018 -0.8178  0.2613
  591MOL0     H79753   5.497   4.169   8.006  0.0252  0.8588 -1.5373
  591MOL0     H79754   5.364   4.077   8.065  3.4703 -1.3675 -2.4102
  591MOL0     H79755   5.326   4.340   7.925 -2.2288  1.4083  0.6528
  591MOL0     H79756   5.199   4.260   8.006 -0.1694 -0.4957  0.5888
  591MOL0     H79757   5.360   4.147   7.768 -1.9373  0.2351 -2.7169
  591MOL0     H79758   5.244   4.043   7.856  2.2422 -1.1786 -0.1011
  591MOL0     H79759   5.172   4.180   7.631  1.8764  1.0093 -1.1076
  591MOL0     H79760   5.176   4.312   7.741 -3.1587  0.2186 -2.5311
  591MOL0     H79761   5.020   4.062   7.767 -0.0148 -0.8324  1.8479
  591MOL0     H79762   5.012   4.195   7.894 -2.4590  2.3146 -0.4479
  591MOL0     H79763   4.934   4.244   7.603  1.5984 -0.7490  0.0321
  591MOL0     H79764   4.921   4.354   7.746 -4.1544 -1.1789  1.8376
  591MOL0     H79765   4.743   4.213   7.846  0.0106  1.0713 -0.9811
  591MOL0     H79766   4.782   4.074   7.752 -2.3123  0.2191 -1.0848
  591MOL0     H79767   5.747   4.452   8.221  2.3675  0.9935  0.2675
  591MOL0     H79768   5.970   4.379   8.333  0.4435  0.0268  4.3274
  591MOL0     H79769   6.277   4.123   8.444  2.2681 -1.3869 -0.7383
  591MOL0     H79770   6.493   4.019   8.526 -0.2288  1.1288 -0.4151
  591MOL0     H79771   7.401   4.294  10.405  0.1158 -0.7019  0.3969
  591MOL0     H79772   7.583   4.415  10.499 -0.7425  2.8418 -0.3204
  591MOL0     H79773   8.206   4.535  10.287  0.0702  0.9116 -2.9082
  591MOL0     H79774   8.346   4.683  10.375  0.3514  1.7744  1.5959
  591MOL0     H79775   8.461   4.853  10.460 -1.6631 -0.4237 -0.9951
  591MOL0     H79776   8.351   4.961  10.368  0.9654 -1.2408 -1.1562
  591MOL0     H79777   8.519   5.034  10.619  2.6365  2.1781 -0.5241
  591MOL0     H79778   8.406   5.135  10.548 -0.4234 -2.2677  0.4677
  591MOL0     H79779   8.515   5.173  10.347  1.0382 -0.3223 -1.3305
  591MOL0     H79780   8.596   5.014  10.373 -0.7712 -1.1072  3.0754
  591MOL0     H79781   8.671   5.275  10.499  1.1336  0.2958  1.1366
  591MOL0     H79782   8.750   5.193  10.366 -0.4566 -2.8976 -0.7062
  591MOL0     H79783   8.917   5.005  10.700  1.0844  0.0544 -0.9419
  591MOL0     H79784   8.023   4.892  10.583 -3.1496 -1.1419 -0.3815
  591MOL0     H79785   7.873   4.751  10.485  1.2616  1.8761  1.3295
  592MOL0     O79786   4.481   2.854   3.597 -0.4860 -0.0428  0.1353
  592MOL0     C79787   4.457   2.862   3.711  0.4075 -0.6305  0.5723
  592MOL0     O79788   4.545   2.912   3.805 -0.1475  0.2516 -0.6242
  592MOL0     C79789   4.678   2.907   3.778  0.6458 -0.1478 -0.9413
  592MOL0     C79790   4.738   2.990   3.680 -0.0593  0.8094  0.1405
  592MOL0     C79791   4.871   2.968   3.641  0.2806 -0.4619 -0.4140
  592MOL0     C79792   4.939   2.871   3.710  0.0659  0.3108  0.3741
  592MOL0     O79793   5.066   2.854   3.672 -0.1057  0.3067  0.1269
  592MOL0     C79794   5.109   2.725   3.623 -0.9163  0.2186 -0.9595
  592MOL0     C79795   5.068   2.705   3.473  0.1966  0.0265 -0.7215
  592MOL0     C79796   5.141   2.791   3.373  0.0019  0.3054  0.0459
  592MOL0     C79797   5.194   2.718   3.249 -0.5888 -0.9974 -0.5763
  592MOL0     C79798   5.265   2.812   3.154 -0.3355 -1.5536  0.9233
  592MOL0     C79799   5.371   2.733   3.077  0.3836 -0.6105 -1.1045
  592MOL0     C79800   5.438   2.822   2.973 -1.1638  0.0563  0.9068
  592MOL0     C79801   5.526   2.940   3.032  0.0094 -0.1170  0.4571
  592MOL0     N79802   5.573   3.019   2.915  0.3842  0.0119 -0.4399
  592MOL0     C79803   5.484   3.085   2.835 -0.2633  0.4653  0.5617
  592MOL0     C79804   5.557   3.109   2.722 -0.9429 -0.8751 -0.4851
  592MOL0     C79805   5.521   3.177   2.596 -0.8491 -0.1272 -0.1613
  592MOL0     C79806   5.502   3.079   2.482 -0.4799 -0.4215  0.0660
  592MOL0     C79807   5.386   3.126   2.393 -0.7764  0.4243  0.0714
  592MOL0     C79808   5.364   3.022   2.285  0.0126  0.8055  0.9771
  592MOL0     O79809   5.304   2.899   2.331 -0.1565 -0.4449  0.4107
  592MOL0     C79810   5.170   2.910   2.339 -0.5609  0.2145  0.2293
  592MOL0     C79811   5.105   2.918   2.217  0.4553  0.4164 -0.0857
  592MOL0     C79812   4.962   2.904   2.224  0.4006 -0.9431 -0.6131
  592MOL0     C79813   4.900   2.908   2.085 -0.8275 -0.0327 -0.2790
  592MOL0     C79814   4.888   2.911   2.348  0.5862  0.3420 -0.1861
  592MOL0     C79815   4.741   2.903   2.356  0.3158 -0.9940 -0.0982
  592MOL0     O79816   4.672   2.897   2.244  0.0595 -0.8277  0.5383
  592MOL0     C79817   4.545   2.858   2.255  0.9749  0.3599 -0.3969
  592MOL0     C79818   4.521   2.731   2.210  0.6396  0.5051  0.5030
  592MOL0     C79819   4.399   2.666   2.222 -0.3526  0.0118  0.3291
  592MOL0     C79820   4.290   2.749   2.257  0.6322  0.0436  0.8067
  592MOL0     O79821   4.163   2.697   2.252 -0.2339 -0.0005  0.4620
  592MOL0     C79822   4.054   2.785   2.281  0.3239 -0.2828 -0.5735
  592MOL0     C79823   3.932   2.709   2.233 -0.2309 -0.0191 -0.0843
  592MOL0     C79824   3.902   2.583   2.314 -0.0261  0.1943  1.1852
  592MOL0     C79825   3.793   2.504   2.238 -0.4343 -0.8222  0.7257
  592MOL0     C79826   3.651   2.567   2.259  0.8781 -0.7886 -0.9005
  592MOL0     C79827   3.561   2.535   2.136  0.0547  0.1066 -0.7458
  592MOL0     C79828   3.603   2.621   2.007  0.0296  0.8880 -1.1429
  592MOL0     C79829   3.549   2.764   2.033 -0.0461  0.4642  0.3042
  592MOL0    Cl79830   3.559   2.880   1.895 -0.4149  0.0579  0.3245
  592MOL0     C79831   4.321   2.880   2.298  0.1345  0.0621 -1.2848
  592MOL0     C79832   4.447   2.930   2.311  0.1739 -0.0242 -0.3568
  592MOL0     O79833   4.685   2.906   2.467 -0.8279  0.3809 -1.3644
  592MOL0     C79834   4.960   2.912   2.461 -0.2334  0.5110 -0.3797
  592MOL0     C79835   5.098   2.932   2.454  0.4719  0.0412  0.2098
  592MOL0     N79836   5.688   3.058   2.746  0.5647 -0.0728 -0.6444
  592MOL0     N79837   5.698   3.021   2.863  0.6195  1.0653 -0.2593
  592MOL0     C79838   4.884   2.803   3.821 -0.8508  0.0406  1.0199
  592MOL0     C79839   4.753   2.823   3.849  0.4955  0.5905 -0.5761
  592MOL0     C79840   4.317   2.819   3.759 -1.5479  0.3818  0.4587
  592MOL0     C79841   4.256   2.710   3.695  0.2540 -0.5185  0.1923
  592MOL0     C79842   4.135   2.656   3.739 -0.4632  0.2880 -1.0761
  592MOL0     C79843   4.065   2.731   3.838 -0.1208 -0.1734  0.2304
  592MOL0     O79844   3.942   2.706   3.888 -0.1494  0.4189  0.4548
  592MOL0     C79845   3.896   2.575   3.849 -0.3633  0.4245 -0.4459
  592MOL0     C79846   3.755   2.541   3.896 -0.2741  0.2523 -0.5942
  592MOL0     C79847   3.711   2.618   4.020 -0.2791  0.5172 -0.3128
  592MOL0     C79848   3.794   2.572   4.141  0.7285 -0.2548 -0.1672
  592MOL0     C79849   3.784   2.432   4.157  0.2590 -0.3000 -0.2787
  592MOL0     C79850   3.779   2.313   4.166  0.3682  0.0761 -0.0882
  592MOL0     C79851   4.127   2.840   3.900  0.5352  0.6763 -0.7397
  592MOL0     C79852   4.253   2.881   3.864 -0.3380 -0.2625  1.1956
  592MOL0     H79853   4.671   3.061   3.634 -1.2242 -2.5473 -3.9862
  592MOL0     H79854   4.928   3.020   3.564  1.2969  1.0766  1.2764
  592MOL0     H79855   5.217   2.707   3.632 -0.5819  1.2596 -2.5908
  592MOL0     H79856   5.057   2.646   3.678 -0.2003 -0.5663 -1.3760
  592MOL0     H79857   5.080   2.602   3.437  0.5318  0.4875 -1.9752
  592MOL0     H79858   4.962   2.731   3.470  0.2286  0.4290  0.9454
  592MOL0     H79859   5.082   2.881   3.353  1.9537  1.9278  1.1673
  592MOL0     H79860   5.230   2.832   3.422 -0.8495  0.4366  1.5449
  592MOL0     H79861   5.263   2.639   3.280  1.0433  0.9994  1.2067
  592MOL0     H79862   5.104   2.669   3.212 -3.4148  1.0527  2.8750
  592MOL0     H79863   5.197   2.863   3.084 -0.7084 -1.0538  1.6380
  592MOL0     H79864   5.299   2.892   3.221  0.3072 -0.1494 -0.9869
  592MOL0     H79865   5.443   2.705   3.154  0.7476  3.2513  0.1744
  592MOL0     H79866   5.333   2.644   3.026  1.3933 -0.3974 -2.2862
  592MOL0     H79867   5.495   2.753   2.912  1.1815  2.2581  0.4327
  592MOL0     H79868   5.354   2.861   2.914 -1.3080 -1.5114  0.0358
  592MOL0     H79869   5.606   2.915   3.102  0.8077  2.0345  0.3877
  592MOL0     H79870   5.453   3.003   3.085 -3.2779  0.0885 -3.8023
  592MOL0     H79871   5.377   3.107   2.834 -0.3085  0.2868 -1.2106
  592MOL0     H79872   5.431   3.235   2.615 -2.0219 -1.3883 -1.5982
  592MOL0     H79873   5.600   3.249   2.571  0.1949 -0.5193  1.8096
  592MOL0     H79874   5.469   2.984   2.526  1.1127 -0.2987  1.6159
  592MOL0     H79875   5.590   3.068   2.417  0.5839 -2.3954  1.7266
  592MOL0     H79876   5.403   3.224   2.348 -0.8232 -0.7048 -2.5896
  592MOL0     H79877   5.295   3.144   2.451  0.5984  0.1715  2.4585
  592MOL0     H79878   5.464   2.991   2.254 -0.7550 -0.7202 -0.0674
  592MOL0     H79879   5.309   3.060   2.198  0.6474 -0.3036  0.0704
  592MOL0     H79880   5.160   2.916   2.124  0.8610 -0.2454  0.1551
  592MOL0     H79881   4.981   2.904   2.012 -1.3433 -3.6622 -0.8413
  592MOL0     H79882   4.849   2.811   2.073 -2.8661  1.1171 -1.5248
  592MOL0     H79883   4.832   2.992   2.067 -0.5490  1.3535  4.1244
  592MOL0     H79884   4.597   2.674   2.159  0.1043  0.3764 -0.1655
  592MOL0     H79885   4.377   2.564   2.191  2.4574 -0.4826 -0.2202
  592MOL0     H79886   4.055   2.792   2.390 -1.1318 -1.8261 -0.4271
  592MOL0     H79887   4.062   2.880   2.226 -2.0955  0.3746  0.1107
  592MOL0     H79888   3.853   2.785   2.227 -1.6501 -1.5583 -2.5753
  592MOL0     H79889   3.943   2.687   2.126 -3.6831  0.3508 -0.6390
  592MOL0     H79890   3.857   2.607   2.411 -3.5443  1.6235 -0.6044
  592MOL0     H79891   3.983   2.509   2.323 -0.7342 -0.6807  0.5598
  592MOL0     H79892   3.809   2.494   2.130  0.4934 -0.1140  0.7864
  592MOL0     H79893   3.795   2.398   2.264 -1.7279 -1.6934 -2.2534
  592MOL0     H79894   3.657   2.673   2.287 -0.2805 -0.6867 -0.9810
  592MOL0     H79895   3.614   2.515   2.348 -1.8641 -0.3965 -1.7046
  592MOL0     H79896   3.576   2.429   2.114  2.8683  0.4998 -1.0238
  592MOL0     H79897   3.459   2.544   2.174 -0.8646 -2.7718 -2.1813
  592MOL0     H79898   3.566   2.578   1.914  1.4114 -0.4211 -1.1349
  592MOL0     H79899   3.712   2.628   1.996 -0.1418  0.9887 -3.0404
  592MOL0     H79900   3.610   2.806   2.114  0.9207 -1.5540  0.6980
  592MOL0     H79901   3.444   2.762   2.065  0.3539 -3.9450  2.1598
  592MOL0     H79902   4.242   2.944   2.335  2.4261  0.7838  2.9990
  592MOL0     H79903   4.463   3.035   2.330  0.9765  0.0368 -1.2775
  592MOL0     H79904   4.914   2.901   2.559  1.1156 -2.0653  0.0796
  592MOL0     H79905   5.150   2.935   2.548 -3.4917  0.7975  2.6205
  592MOL0     H79906   4.940   2.737   3.886  1.0881  1.5092  0.9456
  592MOL0     H79907   4.714   2.757   3.926  1.6004  0.2066 -0.3289
  592MOL0     H79908   4.319   2.673   3.615  0.6537 -0.3306  0.4167
  592MOL0     H79909   4.108   2.566   3.684  1.0806  0.0069 -1.4305
  592MOL0     H79910   3.899   2.569   3.740 -0.0750 -1.8570 -0.3724
  592MOL0     H79911   3.969   2.500   3.881  0.6049  1.1264 -0.9657
  592MOL0     H79912   3.758   2.433   3.911  1.4789  0.4641  0.9778
  592MOL0     H79913   3.687   2.569   3.815  1.1741 -0.8377 -2.2645
  592MOL0     H79914   3.606   2.595   4.036  0.0041  0.8137  2.6551
  592MOL0     H79915   3.701   2.725   3.999  1.2721  0.4460 -1.6700
  592MOL0     H79916   3.751   2.620   4.230 -0.2627 -0.8297 -0.3156
  592MOL0     H79917   3.901   2.582   4.121  0.5974 -0.8174 -1.2479
  592MOL0     H79918   3.749   2.214   4.192 -1.5090  1.6684  5.4312
  592MOL0     H79919   4.082   2.884   3.988 -0.6918  0.8889 -1.4527
  592MOL0     H79920   4.299   2.968   3.910 -1.6540  0.7583  0.6767
  593MOL0     O79921  10.271   5.718   9.046 -0.2581 -0.2292 -0.6311
  593MOL0     C79922  10.188   5.630   9.024  1.1793 -0.6370 -0.4085
  593MOL0     O79923  10.071   5.613   9.108 -0.3263 -0.2033  0.4002
  593MOL0     C79924  10.060   5.684   9.227  0.6389 -1.3373  0.3648
  593MOL0     C79925  10.031   5.825   9.212  0.2459 -0.1373 -0.0511
  593MOL0     C79926  10.010   5.901   9.326 -0.7223 -0.7002  0.3424
  593MOL0     C79927  10.005   5.846   9.459  1.2047 -0.8229  0.7070
  593MOL0     O79928   9.994   5.939   9.564 -0.8888  0.4941 -0.2223
  593MOL0     C79929  10.105   6.033   9.572 -0.8130 -0.5137 -0.8379
  593MOL0     C79930  10.228   5.989   9.654  0.5690  0.2021 -0.2608
  593MOL0     C79931  10.283   5.863   9.587  0.3588  0.0561  0.3886
  593MOL0     C79932  10.431   5.832   9.622  0.4319  0.3640 -0.5744
  593MOL0     C79933  10.459   5.686   9.574 -0.8142 -0.1362 -0.2768
  593MOL0     C79934  10.455   5.663   9.419  0.0173  0.2941  0.6280
  593MOL0     C79935  10.545   5.549   9.377 -0.9561 -0.2764  0.1497
  593MOL0     C79936  10.698   5.551   9.409 -0.1042 -0.0272  0.4126
  593MOL0     N79937  10.767   5.446   9.333  0.0682 -0.3798 -0.5668
  593MOL0     C79938  10.726   5.315   9.337 -0.6771 -0.5334  0.1702
  593MOL0     C79939  10.834   5.247   9.301 -0.8926  1.2578  0.5033
  593MOL0     C79940  10.859   5.093   9.307 -0.3331  0.3361 -0.4053
  593MOL0     C79941  11.003   5.055   9.286 -0.1114  0.1969  0.5323
  593MOL0     C79942  11.012   4.902   9.303 -0.2389 -0.2438  0.5962
  593MOL0     C79943  11.132   4.851   9.375  0.3491  0.6804 -0.2661
  593MOL0     O79944  11.250   4.858   9.289  1.1427  0.1309  0.0058
  593MOL0     C79945  11.292   4.763   9.199  0.0216 -0.2613 -0.3085
  593MOL0     C79946  11.382   4.800   9.098  0.0953  0.4039 -0.2357
  593MOL0     C79947  11.433   4.710   8.997  0.3509  0.0336  0.9147
  593MOL0     C79948  11.528   4.765   8.886 -0.6030 -0.6595 -0.1890
  593MOL0     C79949  11.385   4.573   9.002 -0.0623 -0.4899 -0.5857
  593MOL0     C79950  11.436   4.464   8.914 -0.0610 -0.6372  0.2658
  593MOL0     O79951  11.569   4.466   8.894 -0.1872  0.3354 -0.7576
  593MOL0     C79952  11.618   4.378   8.796  0.4710 -0.0659 -0.1392
  593MOL0     C79953  11.624   4.248   8.835  0.7341 -0.0536  0.4498
  593MOL0     C79954  11.699   4.158   8.752 -0.0462 -0.3855 -0.4526
  593MOL0     C79955  11.767   4.192   8.635  0.3778  0.2760  0.5662
  593MOL0     O79956  11.853   4.126   8.556 -0.2359  0.6909  0.2023
  593MOL0     C79957  11.917   4.011   8.609  0.3597  0.3988  0.1856
  593MOL0     C79958  12.039   3.965   8.516  0.2599  0.1243  0.6878
  593MOL0     C79959  12.144   3.900   8.608  0.2511  0.2702 -0.1371
  593MOL0     C79960  12.273   3.886   8.537 -0.0521 -1.1804  0.3193
  593MOL0     C79961  12.384   3.833   8.627 -0.2453 -0.5994  1.1865
  593MOL0     C79962  12.523   3.814   8.559  0.8014  0.8914 -0.1503
  593MOL0     C79963  12.538   3.673   8.499  0.2560 -0.3574  0.0289
  593MOL0     C79964  12.682   3.658   8.451 -0.5363 -0.2290 -1.0541
  593MOL0    Cl79965  12.734   3.787   8.339  0.0382  0.5972  0.2090
  593MOL0     C79966  11.763   4.325   8.596  0.2630 -0.7139 -1.1510
  593MOL0     C79967  11.689   4.417   8.678 -0.4718 -0.0513 -0.4878
  593MOL0     O79968  11.359   4.397   8.855 -0.1413 -0.3594  0.4655
  593MOL0     C79969  11.303   4.540   9.112 -0.2069  0.7331  0.5448
  593MOL0     C79970  11.251   4.628   9.210  0.1687  1.6559  0.5028
  593MOL0     N79971  10.927   5.334   9.244  0.1235  0.3159  0.1053
  593MOL0     N79972  10.881   5.456   9.250  0.9533 -0.1112 -1.0990
  593MOL0     C79973  10.038   5.708   9.467 -0.0268  0.9800  0.4572
  593MOL0     C79974  10.057   5.626   9.355 -0.2607  0.0455  0.4629
  593MOL0     C79975  10.216   5.527   8.917 -0.0941  1.5814  0.3518
  593MOL0     C79976  10.127   5.413   8.893 -0.0767 -0.2068 -0.1323
  593MOL0     C79977  10.153   5.329   8.783 -0.4338 -0.1190 -0.3221
  593MOL0     C79978  10.269   5.352   8.695  0.2244  0.7873 -0.4120
  593MOL0     O79979  10.310   5.285   8.579 -0.0446  0.1188 -0.4373
  593MOL0     C79980  10.216   5.181   8.541  0.5198 -0.3641 -0.3629
  593MOL0     C79981  10.238   5.139   8.403 -0.5089  0.8928  0.0667
  593MOL0     C79982  10.135   5.033   8.360 -1.1521 -0.2382  0.1381
  593MOL0     C79983  10.187   4.941   8.248  0.1370 -0.2479  0.9578
  593MOL0     C79984  10.070   4.857   8.228 -0.2306  0.1971 -0.1659
  593MOL0     C79985   9.975   4.783   8.200  0.4117 -0.1377 -0.4505
  593MOL0     C79986  10.354   5.457   8.730  0.2145  0.2978  0.2823
  593MOL0     C79987  10.331   5.536   8.840 -0.5532 -0.3003  0.4471
  593MOL0     H79988  10.016   5.861   9.111  1.3663  0.4201 -0.0350
  593MOL0     H79989   9.982   6.006   9.324  0.6325 -0.0821  4.3579
  593MOL0     H79990  10.134   6.061   9.471 -2.4466  1.7199 -0.7817
  593MOL0     H79991  10.075   6.127   9.619  0.4466 -0.7263  0.4469
  593MOL0     H79992  10.305   6.067   9.653  1.3818 -0.5028  1.8703
  593MOL0     H79993  10.193   5.957   9.753  0.1386 -2.8162 -1.2688
  593MOL0     H79994  10.221   5.779   9.619 -3.1091  1.8678 -1.0404
  593MOL0     H79995  10.268   5.862   9.478 -3.1662  0.3219  0.7634
  593MOL0     H79996  10.507   5.890   9.568  1.9106  0.1592  1.1714
  593MOL0     H79997  10.443   5.849   9.730 -4.3451 -1.0892  0.4109
  593MOL0     H79998  10.561   5.666   9.608 -1.0385  0.8812  1.1123
  593MOL0     H79999  10.407   5.608   9.631  1.8045 -2.4905 -0.9113
  593MOL0     H80000  10.352   5.641   9.389 -0.3194  2.6243 -0.1982
  593MOL0     H80001  10.472   5.761   9.374 -0.7264  1.7713  3.3041
  593MOL0     H80002  10.515   5.457   9.428  0.5567 -0.3129  1.0352
  593MOL0     H80003  10.523   5.543   9.270 -0.4888  2.5271 -0.1892
  593MOL0     H80004  10.711   5.536   9.517 -3.3328 -1.8864  0.6693
  593MOL0     H80005  10.747   5.648   9.395 -0.6826  0.7343  3.0626
  593MOL0     H80006  10.629   5.276   9.364 -1.4651 -0.2169 -1.9795
  593MOL0     H80007  10.832   5.059   9.408  2.1462  0.7818  0.4603
  593MOL0     H80008  10.794   5.038   9.238 -2.4732  1.3789  0.6499
  593MOL0     H80009  11.067   5.107   9.359  0.1205  1.0035 -0.2270
  593MOL0     H80010  11.044   5.095   9.193 -2.2477  2.7449  0.5574
  593MOL0     H80011  11.030   4.864   9.202  0.7616  0.9281  0.3197
  593MOL0     H80012  10.923   4.855   9.346 -0.6238  0.3081  0.4218
  593MOL0     H80013  11.125   4.750   9.417 -1.7472  1.0004  0.3041
  593MOL0     H80014  11.152   4.915   9.461  0.6623  0.1496  0.0618
  593MOL0     H80015  11.417   4.903   9.102  0.2451  0.5054 -2.6455
  593MOL0     H80016  11.632   4.759   8.919  0.1241 -0.2955 -2.2334
  593MOL0     H80017  11.537   4.703   8.796  2.1692 -1.2140  0.3848
  593MOL0     H80018  11.509   4.870   8.859  1.5020 -0.3122 -0.4627
  593MOL0     H80019  11.556   4.212   8.911  1.5533 -1.4631  0.5368
  593MOL0     H80020  11.700   4.059   8.797 -1.1205 -0.1931  0.0305
  593MOL0     H80021  11.951   4.025   8.712 -0.9389  0.9845  0.5539
  593MOL0     H80022  11.847   3.927   8.603  0.7361  0.1013 -0.1966
  593MOL0     H80023  12.006   3.901   8.434  0.5899  0.2955  0.4185
  593MOL0     H80024  12.083   4.052   8.466 -0.4774  0.8603  1.2814
  593MOL0     H80025  12.099   3.805   8.640  0.2328  0.4924  0.5005
  593MOL0     H80026  12.161   3.965   8.694  2.5901  0.2930 -0.5717
  593MOL0     H80027  12.258   3.815   8.455 -0.0520  1.9528 -2.6129
  593MOL0     H80028  12.302   3.986   8.505 -1.5938 -1.5106 -2.3605
  593MOL0     H80029  12.356   3.745   8.686  1.5078 -2.3761 -0.4787
  593MOL0     H80030  12.402   3.909   8.704  1.7732 -0.0185  0.2019
  593MOL0     H80031  12.537   3.899   8.491  0.3776  0.0496 -1.3145
  593MOL0     H80032  12.594   3.828   8.642 -0.0980 -0.2260  0.8440
  593MOL0     H80033  12.473   3.670   8.411  1.5299  1.4210 -1.0419
  593MOL0     H80034  12.515   3.595   8.572  0.9789 -1.6498 -1.0711
  593MOL0     H80035  12.703   3.568   8.393 -0.2803  0.6576 -2.3715
  593MOL0     H80036  12.746   3.653   8.540 -2.5727 -1.6733  0.4277
  593MOL0     H80037  11.828   4.349   8.513  2.2665  0.3469  0.6199
  593MOL0     H80038  11.716   4.517   8.645 -2.8907  1.1191  0.8453
  593MOL0     H80039  11.282   4.434   9.122  1.5832  0.0731 -1.7886
  593MOL0     H80040  11.187   4.587   9.288 -0.7897 -0.7412 -1.3967
  593MOL0     H80041  10.038   5.650   9.559 -0.9773 -0.8680 -0.6304
  593MOL0     H80042  10.066   5.518   9.366 -1.5583 -0.5053 -2.5806
  593MOL0     H80043  10.040   5.391   8.954 -0.0791 -1.6779 -0.6355
  593MOL0     H80044  10.098   5.236   8.776 -0.5977  0.0487 -1.5194
  593MOL0     H80045  10.228   5.098   8.612  0.4973 -0.9087 -0.9817
  593MOL0     H80046  10.116   5.224   8.546  0.1504 -1.0178 -1.7952
  593MOL0     H80047  10.340   5.100   8.403  0.0715  2.3234  0.3988
  593MOL0     H80048  10.226   5.225   8.336  0.2611  0.5856 -0.4746
  593MOL0     H80049  10.045   5.083   8.325 -1.0897 -0.9181 -1.0419
  593MOL0     H80050  10.120   4.978   8.454 -0.2339 -1.5516 -0.4447
  593MOL0     H80051  10.274   4.889   8.289 -1.0772 -3.4043 -0.1222
  593MOL0     H80052  10.207   4.996   8.156 -3.0931  0.4513  0.5645
  593MOL0     H80053   9.886   4.732   8.169 -0.7902  1.5072  0.1469
  593MOL0     H80054  10.447   5.475   8.676  0.5026 -2.0480 -0.1106
  593MOL0     H80055  10.396   5.623   8.846  1.0801 -1.1948 -2.5262
  594MOL0     O80056   0.929   5.454   9.015 -0.6611 -0.0072 -0.2838
  594MOL0     C80057   0.922   5.332   9.038 -0.2134  0.3775  0.0137
  594MOL0     O80058   0.811   5.261   9.047 -0.5123  0.6548 -0.0831
  594MOL0     C80059   0.694   5.321   9.080 -0.0140  0.0653  0.4065
  594MOL0     C80060   0.645   5.325   9.209 -0.1918 -0.1291  0.3844
  594MOL0     C80061   0.536   5.402   9.240  0.6212 -0.9002  0.1687
  594MOL0     C80062   0.473   5.473   9.136  0.6054 -0.9805  0.4263
  594MOL0     O80063   0.359   5.537   9.184 -0.6337 -0.0188 -0.2830
  594MOL0     C80064   0.302   5.639   9.097 -0.0187  1.0086 -0.8396
  594MOL0     C80065   0.190   5.712   9.168  0.6861  0.2372  0.3320
  594MOL0     C80066   0.084   5.626   9.213  0.8160  0.1522 -0.6405
  594MOL0     C80067  -0.001   5.693   9.332 -0.8065  0.1921 -0.9468
  594MOL0     C80068  -0.132   5.642   9.330 -0.8302  0.3102 -0.7605
  594MOL0     C80069  -0.218   5.700   9.443 -0.2326 -0.4457  0.1104
  594MOL0     C80070  -0.208   5.620   9.568 -0.7557 -0.1780  0.2033
  594MOL0     C80071  -0.323   5.663   9.665 -0.0644 -0.1890 -0.9094
  594MOL0     N80072  -0.285   5.597   9.794  0.0955 -0.1745 -0.3514
  594MOL0     C80073  -0.367   5.502   9.856  0.0214 -0.9336 -0.6414
  594MOL0     C80074  -0.296   5.476   9.973 -0.1191 -1.0633 -0.1655
  594MOL0     C80075  -0.335   5.365  10.067  0.2629 -0.5064 -0.5409
  594MOL0     C80076  -0.490   5.344  10.080 -0.3684  0.0007 -0.3657
  594MOL0     C80077  -0.522   5.205  10.143 -0.1865 -0.5106 -0.3314
  594MOL0     C80078  -0.674   5.200  10.177  0.9016 -0.9584 -0.8015
  594MOL0     O80079  -0.730   5.067  10.179 -0.0330 -0.0814  0.1020
  594MOL0     C80080  -0.836   5.054  10.260 -0.1497 -0.2357 -0.3437
  594MOL0     C80081  -0.806   5.056  10.394  0.2391 -0.2196 -0.3881
  594MOL0     C80082  -0.912   5.051  10.494 -0.3678  0.2231 -0.4877
  594MOL0     C80083  -0.869   5.070  10.635  0.6933 -0.8709 -0.8879
  594MOL0     C80084  -1.046   5.043  10.457  0.1029 -0.5520  0.3284
  594MOL0     C80085  -1.165   5.056  10.534  0.0358 -0.5115 -0.0749
  594MOL0     O80086  -1.283   5.017  10.484 -0.1850 -0.1272 -0.3945
  594MOL0     C80087  -1.402   5.046  10.554  0.4924 -0.6618 -0.2152
  594MOL0     C80088  -1.506   5.064  10.469  0.7559  0.2052 -0.1968
  594MOL0     C80089  -1.627   5.123  10.517  0.0448  0.2242  1.0213
  594MOL0     C80090  -1.644   5.147  10.652  0.6789 -0.0961  0.5432
  594MOL0     O80091  -1.764   5.205  10.697  0.4615  0.1240 -0.0495
  594MOL0     C80092  -1.826   5.312  10.621 -0.0712  0.3009  0.2840
  594MOL0     C80093  -1.977   5.292  10.601  0.6900 -0.6815  0.0998
  594MOL0     C80094  -2.046   5.410  10.521  0.4007  0.0259 -0.9324
  594MOL0     C80095  -2.191   5.378  10.498  0.3853  0.6798 -0.3450
  594MOL0     C80096  -2.265   5.476  10.403  0.6568 -0.7796  0.7395
  594MOL0     C80097  -2.419   5.445  10.407 -1.0160  1.3204  0.1597
  594MOL0     C80098  -2.488   5.532  10.304 -0.4948  0.2912  0.8639
  594MOL0     C80099  -2.484   5.493  10.160  0.1504 -0.2345  0.1984
  594MOL0    Cl80100  -2.576   5.615  10.065  0.0311 -0.4212 -0.0343
  594MOL0     C80101  -1.538   5.126  10.740 -0.1397 -1.2234 -0.1619
  594MOL0     C80102  -1.419   5.075  10.694 -0.1854  0.8468 -0.2512
  594MOL0     O80103  -1.149   5.131  10.633 -0.0786 -0.3212  0.3825
  594MOL0     C80104  -1.071   5.032  10.319  0.0833 -0.0704 -0.2243
  594MOL0     C80105  -0.969   5.029  10.222 -0.0903 -1.3335  0.3843
  594MOL0     N80106  -0.177   5.552   9.973  0.3533 -1.1006  0.3746
  594MOL0     N80107  -0.166   5.613   9.862  0.1817 -0.3008 -1.0165
  594MOL0     C80108   0.525   5.472   9.007 -0.0464  0.0486 -0.0621
  594MOL0     C80109   0.642   5.406   8.987 -0.8144  0.4474  0.9942
  594MOL0     C80110   1.050   5.258   9.050 -0.1928 -1.2102  0.1164
  594MOL0     C80111   1.061   5.123   9.041  0.2876  0.0430  0.3612
  594MOL0     C80112   1.190   5.063   9.057  0.1814 -0.1273  0.1143
  594MOL0     C80113   1.304   5.134   9.085  0.2100 -0.4333 -0.4745
  594MOL0     O80114   1.420   5.071   9.119  0.0685  0.1447  0.3641
  594MOL0     C80115   1.536   5.146   9.165  0.6859 -0.4395  0.1484
  594MOL0     C80116   1.647   5.037   9.173  0.7643  0.6732  0.5572
  594MOL0     C80117   1.787   5.102   9.183 -0.2106  0.3475  0.9100
  594MOL0     C80118   1.825   5.175   9.052 -1.1812 -0.6267  1.0763
  594MOL0     C80119   1.967   5.167   9.025 -0.2656 -0.2223  0.6890
  594MOL0     C80120   2.083   5.175   9.003  0.4522  0.2784  0.2716
  594MOL0     C80121   1.291   5.275   9.091  0.3258  0.1048  0.0862
  594MOL0     C80122   1.167   5.337   9.075 -0.3571  0.5541  0.5230
  594MOL0     H80123   0.700   5.269   9.284  1.0803  2.2893  1.3598
  594MOL0     H80124   0.480   5.406   9.332 -0.1180  0.5166 -0.3213
  594MOL0     H80125   0.386   5.704   9.068  1.8974 -1.1026 -0.3300
  594MOL0     H80126   0.272   5.585   9.007  2.6600 -0.5939 -0.8834
  594MOL0     H80127   0.226   5.763   9.258  0.8748  0.0040  0.3875
  594MOL0     H80128   0.150   5.795   9.108  3.3791  1.5875  0.2444
  594MOL0     H80129   0.011   5.614   9.133 -1.2967  1.5883  0.9727
  594MOL0     H80130   0.116   5.528   9.249 -0.8771  0.2933  1.4850
  594MOL0     H80131   0.051   5.669   9.425  2.4913  0.4866 -2.5464
  594MOL0     H80132  -0.007   5.802   9.333  2.9137  0.5408 -0.9650
  594MOL0     H80133  -0.172   5.659   9.230  0.1859 -0.3820 -1.3102
  594MOL0     H80134  -0.127   5.532   9.334 -2.9686  0.2162  0.5357
  594MOL0     H80135  -0.196   5.806   9.460  0.5153 -0.7211  0.9230
  594MOL0     H80136  -0.321   5.707   9.404  0.0290  2.1267 -0.3105
  594MOL0     H80137  -0.200   5.513   9.548  1.3762  0.1239 -0.8083
  594MOL0     H80138  -0.109   5.638   9.611 -0.8979  1.9167 -0.2187
  594MOL0     H80139  -0.421   5.632   9.628  0.3880 -1.2144 -1.2993
  594MOL0     H80140  -0.328   5.770   9.684  0.9987  0.0211 -1.7160
  594MOL0     H80141  -0.453   5.465   9.801 -0.4035  1.0644 -1.4026
  594MOL0     H80142  -0.290   5.276  10.020  0.4266  0.1612 -1.6931
  594MOL0     H80143  -0.292   5.389  10.164 -0.6307  0.5134 -0.3897
  594MOL0     H80144  -0.526   5.359   9.978  2.1269 -3.3469 -1.9666
  594MOL0     H80145  -0.518   5.427  10.146 -0.1220 -0.6640  0.5890
  594MOL0     H80146  -0.462   5.186  10.233  0.8231 -0.3249 -0.9488
  594MOL0     H80147  -0.497   5.126  10.072  1.1524  1.7096 -2.5086
  594MOL0     H80148  -0.750   5.250  10.116  0.6491  0.6923  0.7858
  594MOL0     H80149  -0.689   5.242  10.277 -0.1737  0.4218 -1.5148
  594MOL0     H80150  -0.705   5.073  10.429  0.1322  4.1396 -1.6758
  594MOL0     H80151  -0.922   5.009  10.708  2.1836  0.3024  1.3045
  594MOL0     H80152  -0.761   5.069  10.658 -0.0259 -2.3879  3.3466
  594MOL0     H80153  -0.889   5.175  10.659  4.1451 -0.6659  2.0090
  594MOL0     H80154  -1.499   5.051  10.361  1.0036  0.1582 -0.1742
  594MOL0     H80155  -1.713   5.134  10.451 -0.1512 -1.5595  0.9375
  594MOL0     H80156  -1.814   5.398  10.688 -0.7637  0.5049  0.1510
  594MOL0     H80157  -1.790   5.334  10.520  2.7031 -3.0750  0.3514
  594MOL0     H80158  -1.998   5.192  10.562 -2.8397  0.1019 -0.2916
  594MOL0     H80159  -2.020   5.300  10.701  0.1900  0.2827 -0.1786
  594MOL0     H80160  -1.996   5.421  10.424  0.5840 -3.1708 -1.2912
  594MOL0     H80161  -2.045   5.507  10.571 -3.8238  0.0010 -0.3870
  594MOL0     H80162  -2.199   5.273  10.470  0.7287  0.6655 -0.4002
  594MOL0     H80163  -2.239   5.378  10.596  3.0624 -2.2322  1.1511
  594MOL0     H80164  -2.237   5.457  10.299 -2.4981 -1.6266 -0.0558
  594MOL0     H80165  -2.247   5.582  10.424  0.8197 -0.7226  0.3149
  594MOL0     H80166  -2.440   5.340  10.382  0.3706  1.2003 -0.6590
  594MOL0     H80167  -2.459   5.462  10.507 -1.2551 -0.8459  0.4891
  594MOL0     H80168  -2.444   5.632  10.302 -0.5978  0.3261 -0.0857
  594MOL0     H80169  -2.590   5.536  10.344 -0.6389 -0.2519  0.5560
  594MOL0     H80170  -2.535   5.397  10.149  1.9911 -1.5931  2.6457
  594MOL0     H80171  -2.383   5.509  10.122 -1.0228  2.6546 -2.1771
  594MOL0     H80172  -1.546   5.154  10.844  2.1102  2.6674 -0.8442
  594MOL0     H80173  -1.353   5.047  10.777 -5.0022 -2.1227  3.0977
  594MOL0     H80174  -1.173   5.024  10.284  0.2345 -1.4925 -0.4061
  594MOL0     H80175  -0.996   5.042  10.118  3.6938 -0.9454 -0.6933
  594MOL0     H80176   0.487   5.529   8.924  1.1889  2.6221  1.0296
  594MOL0     H80177   0.692   5.407   8.891 -2.3879 -1.3570  0.0734
  594MOL0     H80178   0.973   5.060   9.038  1.0657 -1.0359 -0.5390
  594MOL0     H80179   1.194   4.959   9.089  3.5860  0.8267  3.5871
  594MOL0     H80180   1.569   5.227   9.100 -0.2040 -0.5012 -0.3955
  594MOL0     H80181   1.535   5.197   9.262  2.4199 -0.0605  0.0000
  594MOL0     H80182   1.631   4.974   9.085 -0.7050  1.8331 -0.0532
  594MOL0     H80183   1.626   4.961   9.248 -1.9881 -2.1320 -2.6798
  594MOL0     H80184   1.860   5.022   9.202  1.5274  1.6541  0.1036
  594MOL0     H80185   1.791   5.170   9.268  4.8147  0.1385  1.1388
  594MOL0     H80186   1.793   5.279   9.062  1.2705  0.8308 -3.4701
  594MOL0     H80187   1.770   5.134   8.966  0.1237 -0.1860 -0.0070
  594MOL0     H80188   2.188   5.185   8.985  0.2938  1.2635 -0.1746
  594MOL0     H80189   1.386   5.325   9.106  0.3517  0.2114 -0.4062
  594MOL0     H80190   1.155   5.445   9.084 -0.4900  0.5849  0.0298
  595MOL0     O80191   5.015   1.568   8.416 -0.3135  0.1077  0.6337
  595MOL0     C80192   5.114   1.525   8.362  0.6615 -0.3359 -0.1906
  595MOL0     O80193   5.135   1.390   8.324 -0.1676 -0.5000 -0.3144
  595MOL0     C80194   5.029   1.311   8.311  0.1080 -0.2134  0.0551
  595MOL0     C80195   5.035   1.234   8.193 -0.3594 -0.5365 -0.7240
  595MOL0     C80196   4.932   1.144   8.169  0.6386  0.1673 -1.2218
  595MOL0     C80197   4.832   1.114   8.270 -0.1173  0.1950 -0.0958
  595MOL0     O80198   4.736   1.024   8.246  0.1573  0.3249  0.0122
  595MOL0     C80199   4.604   1.079   8.258  0.6966  0.7895 -0.3653
  595MOL0     C80200   4.506   0.992   8.177 -0.1052  0.4380 -0.3153
  595MOL0     C80201   4.369   1.045   8.136 -0.4803  0.1995 -0.3236
  595MOL0     C80202   4.312   1.084   8.268  0.5781  0.2516 -0.8807
  595MOL0     C80203   4.153   1.081   8.260 -0.3613  1.0395  0.3160
  595MOL0     C80204   4.095   1.209   8.206  0.4324 -0.2209  0.1696
  595MOL0     C80205   3.957   1.207   8.158  0.4318 -0.4677 -0.5119
  595MOL0     C80206   3.925   1.136   8.027  0.1984  0.1417  0.3167
  595MOL0     N80207   3.792   1.149   7.967 -0.3352 -0.3312  0.6452
  595MOL0     C80208   3.737   1.271   7.923  0.0912  0.2186  0.3281
  595MOL0     C80209   3.622   1.229   7.876  0.4372  0.4760 -1.2800
  595MOL0     C80210   3.515   1.325   7.834 -0.6220 -0.7172  0.1629
  595MOL0     C80211   3.380   1.302   7.909 -0.2363  0.4438  0.0136
  595MOL0     C80212   3.288   1.405   7.867  0.3478 -0.9646  0.1244
  595MOL0     C80213   3.215   1.405   7.735 -0.4470 -1.2075  0.4009
  595MOL0     O80214   3.134   1.526   7.713 -0.8725  0.0299  0.2169
  595MOL0     C80215   2.996   1.521   7.724  0.2650  0.8405 -0.1115
  595MOL0     C80216   2.918   1.426   7.793 -0.3461 -0.5363 -1.3218
  595MOL0     C80217   2.774   1.438   7.787 -0.1683 -0.0666  0.0326
  595MOL0     C80218   2.705   1.329   7.866  0.2800  0.2572 -0.3999
  595MOL0     C80219   2.703   1.544   7.719 -0.3017  0.4276  0.3592
  595MOL0     C80220   2.559   1.575   7.724  0.6915  0.5594  0.6415
  595MOL0     O80221   2.518   1.680   7.641 -0.0953 -0.0159  0.1652
  595MOL0     C80222   2.398   1.738   7.672 -0.1580  0.1976  0.3503
  595MOL0     C80223   2.324   1.727   7.791  0.5599  0.8762 -0.3485
  595MOL0     C80224   2.202   1.795   7.820  0.0668  0.2803 -0.7230
  595MOL0     C80225   2.148   1.868   7.711 -0.3446  0.1811 -0.4361
  595MOL0     O80226   2.033   1.944   7.708  0.5922 -0.3243 -0.2723
  595MOL0     C80227   1.934   1.934   7.813  0.5346 -1.5084  0.8531
  595MOL0     C80228   1.971   2.040   7.912 -1.1997  1.2199 -0.6736
  595MOL0     C80229   1.907   2.054   8.050 -0.1210 -0.3659 -0.3993
  595MOL0     C80230   1.915   2.201   8.110 -0.4991  0.5074 -0.3217
  595MOL0     C80231   1.829   2.215   8.239  0.2884 -0.2277  1.0100
  595MOL0     C80232   1.672   2.223   8.212 -0.6268  0.6841 -0.6427
  595MOL0     C80233   1.619   2.334   8.119 -0.6973  0.2394 -0.6987
  595MOL0     C80234   1.473   2.372   8.153 -0.3836  0.1800  0.1901
  595MOL0    Cl80235   1.389   2.473   8.015  0.1922 -0.2118  0.1994
  595MOL0     C80236   2.218   1.880   7.598 -0.2540  0.1807 -0.2814
  595MOL0     C80237   2.341   1.815   7.572  0.0960 -0.9978 -1.2971
  595MOL0     O80238   2.485   1.497   7.780  0.7558  0.1914 -0.3703
  595MOL0     C80239   2.788   1.644   7.671  0.0621  0.2154 -0.2890
  595MOL0     C80240   2.927   1.637   7.664 -0.2557 -0.0751  0.2714
  595MOL0     N80241   3.616   1.089   7.876  0.7316 -0.5117  0.1668
  595MOL0     N80242   3.717   1.040   7.940 -1.1881  0.4474 -0.0983
  595MOL0     C80243   4.832   1.188   8.390 -0.3357 -0.7559 -0.3611
  595MOL0     C80244   4.930   1.287   8.408  0.1285  0.4380  0.0480
  595MOL0     C80245   5.232   1.616   8.369  0.1326 -0.7809 -0.3210
  595MOL0     C80246   5.333   1.599   8.275  1.2647 -0.6208  0.2204
  595MOL0     C80247   5.442   1.685   8.270 -1.2779  0.0725 -0.4386
  595MOL0     C80248   5.461   1.780   8.363 -0.1727 -0.0392 -1.0683
  595MOL0     O80249   5.572   1.861   8.351  0.6901  0.3956  0.2805
  595MOL0     C80250   5.638   1.929   8.460  0.7489  0.5095  0.0271
  595MOL0     C80251   5.756   1.993   8.394 -0.8978 -0.7578  0.3468
  595MOL0     C80252   5.881   1.904   8.405 -0.2364 -1.0946  0.5231
  595MOL0     C80253   5.900   1.845   8.260 -1.1045  0.9330 -0.2622
  595MOL0     C80254   6.032   1.776   8.248 -0.0705  1.0983  0.0538
  595MOL0     C80255   6.125   1.710   8.211  0.1516  0.4461  0.5524
  595MOL0     C80256   5.367   1.789   8.466 -0.0970 -0.5818  0.2648
  595MOL0     C80257   5.246   1.718   8.464 -0.8238  0.0252 -0.0711
  595MOL0     H80258   5.113   1.269   8.126 -0.0754  0.6554  0.2043
  595MOL0     H80259   4.932   1.083   8.079 -1.4232 -2.1101  0.1667
  595MOL0     H80260   4.574   1.076   8.364  0.7616 -2.0023 -0.3572
  595MOL0     H80261   4.615   1.179   8.214 -0.1180  0.6133 -0.9977
  595MOL0     H80262   4.558   0.967   8.084  2.3028 -2.9640  1.7036
  595MOL0     H80263   4.492   0.894   8.225  0.2724 -0.6076 -2.2339
  595MOL0     H80264   4.366   1.133   8.072 -2.0068 -0.4636 -1.2189
  595MOL0     H80265   4.311   0.970   8.081 -0.1823  1.5253 -2.5335
  595MOL0     H80266   4.340   1.008   8.341  3.5471 -0.5179 -2.6563
  595MOL0     H80267   4.337   1.185   8.304 -0.0191  0.7383 -1.8062
  595MOL0     H80268   4.102   0.998   8.210  0.3220  1.3090 -0.8687
  595MOL0     H80269   4.122   1.064   8.363 -0.7872  1.3550  0.2422
  595MOL0     H80270   4.100   1.286   8.284  0.1724  1.3410 -1.2876
  595MOL0     H80271   4.158   1.243   8.123  0.0515  2.3601  0.8510
  595MOL0     H80272   3.903   1.146   8.232  1.9984  0.1907  1.2734
  595MOL0     H80273   3.917   1.308   8.153 -0.2879 -0.4893  2.5017
  595MOL0     H80274   3.935   1.027   8.033 -3.2264 -0.7297 -4.3124
  595MOL0     H80275   4.001   1.177   7.960 -0.0506  1.6643  0.9169
  595MOL0     H80276   3.759   1.377   7.936 -1.0009  0.8889 -2.5168
  595MOL0     H80277   3.553   1.426   7.854 -0.9357 -0.7427  0.9108
  595MOL0     H80278   3.500   1.321   7.726 -0.0462 -1.6013  0.1127
  595MOL0     H80279   3.386   1.313   8.018  0.2049 -1.2094  0.1816
  595MOL0     H80280   3.332   1.207   7.886  1.6767 -0.3530 -0.8646
  595MOL0     H80281   3.328   1.504   7.892 -1.1175 -0.6846  1.5678
  595MOL0     H80282   3.203   1.395   7.935 -0.1376  1.8842  0.0675
  595MOL0     H80283   3.161   1.311   7.725 -1.1723 -0.6199 -1.6466
  595MOL0     H80284   3.292   1.397   7.657  0.2045 -1.4288  1.0509
  595MOL0     H80285   2.962   1.341   7.842  1.3291  1.6259  1.1699
  595MOL0     H80286   2.662   1.360   7.961  0.7247  0.6123 -0.3097
  595MOL0     H80287   2.634   1.283   7.797  1.1995  1.9255 -2.5890
  595MOL0     H80288   2.776   1.246   7.879  0.5968  0.0104 -3.0374
  595MOL0     H80289   2.377   1.684   7.875  3.5579 -0.2084 -2.6165
  595MOL0     H80290   2.152   1.780   7.915 -1.7111 -2.5465 -1.9610
  595MOL0     H80291   1.837   1.957   7.768  1.7807  0.5450 -1.0172
  595MOL0     H80292   1.930   1.835   7.859 -3.3335 -1.5049  0.8592
  595MOL0     H80293   2.077   2.027   7.934 -1.7398 -1.4876  0.6659
  595MOL0     H80294   1.955   2.132   7.854 -0.0485  1.7617 -0.1596
  595MOL0     H80295   1.963   1.990   8.118  3.0913  1.0233 -1.5483
  595MOL0     H80296   1.802   2.029   8.031  0.4470 -2.0608 -1.4599
  595MOL0     H80297   2.021   2.214   8.134  0.1627 -2.1338 -1.4541
  595MOL0     H80298   1.895   2.278   8.036  2.6393  0.5710 -1.2748
  595MOL0     H80299   1.848   2.312   8.286  0.0239  1.4341 -2.0873
  595MOL0     H80300   1.855   2.137   8.312  1.1809 -0.8321  0.0657
  595MOL0     H80301   1.635   2.124   8.186  0.3130 -0.1383  1.0200
  595MOL0     H80302   1.640   2.237   8.315  2.1876 -1.9183  0.7545
  595MOL0     H80303   1.620   2.306   8.013  1.6721 -0.5384 -0.5149
  595MOL0     H80304   1.677   2.426   8.131 -0.3540  0.0125 -0.6304
  595MOL0     H80305   1.470   2.446   8.234  0.6838  1.0332 -0.5144
  595MOL0     H80306   1.427   2.274   8.165  1.3975 -0.6703  0.3722
  595MOL0     H80307   2.161   1.919   7.514  0.8685 -0.5022 -1.4011
  595MOL0     H80308   2.401   1.837   7.485  0.0787  0.8494 -0.8684
  595MOL0     H80309   2.733   1.732   7.639 -0.3220 -0.0177 -0.2846
  595MOL0     H80310   2.995   1.713   7.628  1.9568 -1.0957  2.0325
  595MOL0     H80311   4.755   1.170   8.464 -2.7006 -2.9737 -3.1358
  595MOL0     H80312   4.941   1.343   8.501  3.2102 -1.8075  1.2233
  595MOL0     H80313   5.313   1.515   8.209  0.1114  0.5174 -0.9352
  595MOL0     H80314   5.520   1.652   8.201  0.3793 -1.2240  1.9137
  595MOL0     H80315   5.581   2.017   8.493  1.4751  1.3170 -0.8250
  595MOL0     H80316   5.648   1.864   8.547 -2.2242 -0.0292  0.0834
  595MOL0     H80317   5.775   2.079   8.458  2.2437 -0.7656 -0.4139
  595MOL0     H80318   5.728   2.034   8.297 -1.7601  0.3506  1.0388
  595MOL0     H80319   5.858   1.823   8.474 -1.3719 -0.6707  0.6678
  595MOL0     H80320   5.967   1.964   8.433 -1.4438  0.6922  0.5566
  595MOL0     H80321   5.901   1.925   8.185  0.0716  0.6959 -0.5171
  595MOL0     H80322   5.821   1.775   8.231 -3.4570  3.4303 -0.2739
  595MOL0     H80323   6.219   1.661   8.196 -1.2240 -2.1176 -0.1799
  595MOL0     H80324   5.383   1.867   8.540  1.5276  0.0930 -0.7423
  595MOL0     H80325   5.172   1.740   8.540 -1.4525 -0.0931 -0.6463
  596MOL0     O80326   9.144   2.239   9.030  0.2531  0.2436  0.9061
  596MOL0     C80327   9.213   2.344   9.026  0.9841 -0.2681 -0.6932
  596MOL0     O80328   9.164   2.461   9.068 -0.3298 -0.0762  0.2075
  596MOL0     C80329   9.040   2.474   9.130  0.5846 -0.7657  0.5795
  596MOL0     C80330   9.028   2.497   9.261 -0.2579 -0.2506  0.1751
  596MOL0     C80331   8.906   2.511   9.325 -1.1331  0.6878 -0.0971
  596MOL0     C80332   8.783   2.512   9.262  0.5117  0.6018  0.0190
  596MOL0     O80333   8.658   2.537   9.327  0.1353 -0.2929  0.7625
  596MOL0     C80334   8.657   2.457   9.450  0.6502 -1.0687 -1.0472
  596MOL0     C80335   8.508   2.450   9.498  0.8902  0.0628  0.5398
  596MOL0     C80336   8.441   2.578   9.559  0.4159  0.6611  0.4730
  596MOL0     C80337   8.289   2.577   9.578 -0.7266  0.1332  0.1207
  596MOL0     C80338   8.232   2.696   9.670 -0.3011  0.1945 -0.0306
  596MOL0     C80339   8.296   2.719   9.807  0.0624 -0.2279 -0.4574
  596MOL0     C80340   8.206   2.784   9.902  0.8643 -0.1962  0.1550
  596MOL0     C80341   8.279   2.850  10.018  0.1709  0.2521 -0.2776
  596MOL0     N80342   8.199   2.909  10.125  0.4561  0.7560 -0.0693
  596MOL0     C80343   8.074   2.867  10.163  1.1723  0.2967 -0.4105
  596MOL0     C80344   8.034   2.965  10.255 -0.7442 -0.0063 -0.0674
  596MOL0     C80345   7.907   2.958  10.339 -0.4697 -0.3516  0.3490
  596MOL0     C80346   7.785   2.929  10.254  0.1045 -0.1022  0.1407
  596MOL0     C80347   7.662   3.010  10.306 -0.0066  0.0708 -0.1067
  596MOL0     C80348   7.617   2.963  10.448 -0.0666  0.8719  1.0209
  596MOL0     O80349   7.523   3.057  10.500 -0.5252 -0.3190 -0.1786
  596MOL0     C80350   7.392   3.019  10.501 -0.2560  0.5432 -0.4819
  596MOL0     C80351   7.320   3.073  10.604  0.1992 -1.0631  0.3151
  596MOL0     C80352   7.179   3.053  10.625  0.0254 -0.0430 -0.6075
  596MOL0     C80353   7.123   3.124  10.742  0.2974 -0.1841  0.1611
  596MOL0     C80354   7.115   2.967  10.533  0.5054  0.7752 -0.5890
  596MOL0     C80355   6.976   2.934  10.552  0.7390 -0.7564 -0.4031
  596MOL0     O80356   6.915   2.940  10.430  0.1782  0.7728  0.0277
  596MOL0     C80357   6.780   2.919  10.404 -0.3072 -0.0698 -0.5298
  596MOL0     C80358   6.673   2.915  10.501 -0.1167 -1.2895 -0.0224
  596MOL0     C80359   6.545   2.878  10.450  0.2659  0.2754 -0.4193
  596MOL0     C80360   6.521   2.853  10.315  0.0841  0.1725 -0.4844
  596MOL0     O80361   6.408   2.802  10.250 -0.7432 -0.5977  0.0167
  596MOL0     C80362   6.299   2.778  10.339 -0.5994  0.1939  0.2813
  596MOL0     C80363   6.189   2.728  10.237 -0.2276  0.1843  0.1804
  596MOL0     C80364   6.124   2.849  10.162  0.6334  0.2684  1.0162
  596MOL0     C80365   6.020   2.806  10.058  0.2690  0.4633 -0.2505
  596MOL0     C80366   5.895   2.895  10.040 -0.7278 -0.8101  0.3617
  596MOL0     C80367   5.793   2.869  10.159 -0.1953 -0.1612 -0.2295
  596MOL0     C80368   5.697   2.748  10.145  0.9459 -0.1957  0.3033
  596MOL0     C80369   5.615   2.752  10.008  0.2017  0.0971  0.0976
  596MOL0    Cl80370   5.516   2.908  10.011  0.1774  0.1098  0.2408
  596MOL0     C80371   6.636   2.848  10.232 -0.7758 -0.4373  0.4987
  596MOL0     C80372   6.760   2.891  10.273  0.8494  0.7847 -0.2799
  596MOL0     O80373   6.921   2.892  10.655  0.1086  0.5523  0.4850
  596MOL0     C80374   7.183   2.908  10.430  0.1803 -0.5485  0.3159
  596MOL0     C80375   7.324   2.932  10.415 -0.0822 -0.2842  0.3382
  596MOL0     N80376   8.135   3.060  10.267  0.7433 -0.7465 -0.4411
  596MOL0     N80377   8.223   3.022  10.185 -0.9012  0.4361  0.0423
  596MOL0     C80378   8.795   2.506   9.122  0.9924  0.0678 -1.3048
  596MOL0     C80379   8.919   2.489   9.059  0.1064 -0.4045 -0.2452
  596MOL0     C80380   9.358   2.333   8.969 -0.9036 -0.2926  0.0153
  596MOL0     C80381   9.439   2.447   8.937 -0.8370 -0.4577  0.1811
  596MOL0     C80382   9.571   2.431   8.900 -0.7790 -0.8600  1.1184
  596MOL0     C80383   9.626   2.307   8.894 -0.0323  0.6907  0.1339
  596MOL0     O80384   9.759   2.304   8.851  0.1183 -1.5042 -0.0387
  596MOL0     C80385   9.863   2.323   8.948  0.1314 -0.2980  1.1245
  596MOL0     C80386   9.888   2.190   9.021  0.0782  0.1750  1.2675
  596MOL0     C80387   9.938   2.087   8.913 -0.2052  0.1910 -0.6720
  596MOL0     C80388   9.917   1.944   8.969 -0.4313  0.1547 -0.1836
  596MOL0     C80389   9.997   1.904   9.088  0.2941 -0.3903  0.3537
  596MOL0     C80390  10.052   1.885   9.197 -0.6265  0.6846  0.5149
  596MOL0     C80391   9.545   2.186   8.918  0.1800  0.2166  0.0591
  596MOL0     C80392   9.410   2.204   8.950 -0.5669  0.0534  0.5401
  596MOL0     H80393   9.111   2.508   9.329  1.1905  2.0098 -1.7932
  596MOL0     H80394   8.914   2.527   9.432  0.8072  0.6577 -0.2124
  596MOL0     H80395   8.695   2.355   9.441  0.0895 -1.5177  1.0742
  596MOL0     H80396   8.717   2.521   9.516 -0.8222  1.1992 -1.7851
  596MOL0     H80397   8.461   2.421   9.403 -0.0990 -1.4663  1.4515
  596MOL0     H80398   8.494   2.368   9.570 -0.6540  0.1501  0.3682
  596MOL0     H80399   8.485   2.594   9.658  2.7958  1.5731 -0.6497
  596MOL0     H80400   8.475   2.666   9.503 -0.0887 -1.3993 -3.4064
  596MOL0     H80401   8.247   2.590   9.478  0.3638 -1.2660 -0.5586
  596MOL0     H80402   8.265   2.476   9.613 -2.9831 -0.5006 -2.8765
  596MOL0     H80403   8.221   2.786   9.609 -1.8069 -0.5870 -0.9464
  596MOL0     H80404   8.127   2.676   9.691 -0.4863  0.6465 -0.5113
  596MOL0     H80405   8.335   2.624   9.844 -0.9878 -1.5901 -2.6534
  596MOL0     H80406   8.377   2.792   9.796  0.1802 -0.4175 -0.8290
  596MOL0     H80407   8.153   2.866   9.852 -0.2775  0.2109  1.9631
  596MOL0     H80408   8.119   2.726   9.933  0.5682 -0.0315 -0.3610
  596MOL0     H80409   8.339   2.931   9.975 -1.7948  0.8578 -1.9984
  596MOL0     H80410   8.348   2.779  10.065  0.5912  0.4161 -0.6459
  596MOL0     H80411   8.024   2.773  10.139 -1.3161  1.7563 -1.3961
  596MOL0     H80412   7.915   2.884  10.420  3.2562 -0.9020 -0.3525
  596MOL0     H80413   7.898   3.057  10.384  0.9767  0.2749 -0.6430
  596MOL0     H80414   7.759   2.824  10.270  2.4495 -0.3057  3.6456
  596MOL0     H80415   7.819   2.939  10.150 -1.2381  0.1495 -0.2970
  596MOL0     H80416   7.578   2.990  10.240 -0.5804 -0.7826  0.8522
  596MOL0     H80417   7.688   3.116  10.317  2.0263 -0.5889  2.2692
  596MOL0     H80418   7.696   2.947  10.521 -0.3698 -0.3493  1.0986
  596MOL0     H80419   7.581   2.860  10.449  0.4944  0.6695  2.5789
  596MOL0     H80420   7.365   3.133  10.683 -0.7395 -2.7189  2.2234
  596MOL0     H80421   7.036   3.070  10.780 -0.3394 -1.6222 -3.0043
  596MOL0     H80422   7.190   3.140  10.827  1.0922 -1.5871 -0.1700
  596MOL0     H80423   7.084   3.219  10.705 -1.4290 -1.1504 -0.6476
  596MOL0     H80424   6.696   2.935  10.605  1.7532  0.8379 -0.7639
  596MOL0     H80425   6.458   2.889  10.514 -0.7134  6.5045 -2.1349
  596MOL0     H80426   6.327   2.697  10.407 -0.6578  1.7743  2.2740
  596MOL0     H80427   6.260   2.867  10.388 -0.7174  0.8295 -0.9115
  596MOL0     H80428   6.239   2.653  10.175 -1.0311 -0.4176  0.2528
  596MOL0     H80429   6.106   2.695  10.300 -1.0840  1.5722 -0.1958
  596MOL0     H80430   6.198   2.898  10.098  0.0470 -1.2656 -0.9630
  596MOL0     H80431   6.084   2.923  10.231 -1.0573  0.7709 -0.4386
  596MOL0     H80432   6.078   2.786   9.968  2.5890  1.6550  0.9007
  596MOL0     H80433   5.981   2.709  10.092  0.8771  0.7103  1.2322
  596MOL0     H80434   5.849   2.861   9.947  1.8944  1.0218 -1.7656
  596MOL0     H80435   5.912   3.003  10.046 -0.8028 -0.6431 -1.7163
  596MOL0     H80436   5.844   2.862  10.256 -1.4036 -1.1538  0.3661
  596MOL0     H80437   5.734   2.960  10.168  0.2582  0.0413  0.7933
  596MOL0     H80438   5.638   2.752  10.237  0.0148  2.4773 -0.3140
  596MOL0     H80439   5.753   2.654  10.145  0.5740 -0.4206 -0.0669
  596MOL0     H80440   5.558   2.663   9.981 -0.6903  0.6416  0.1424
  596MOL0     H80441   5.689   2.753   9.928  2.2101 -2.0504  1.7545
  596MOL0     H80442   6.628   2.832  10.125 -0.0826  3.5236 -0.3175
  596MOL0     H80443   6.836   2.897  10.196  0.9269 -1.6737 -0.4612
  596MOL0     H80444   7.129   2.847  10.359  2.6764 -2.1316 -0.3363
  596MOL0     H80445   7.377   2.870  10.343 -1.5763 -1.6939  0.4123
  596MOL0     H80446   8.701   2.517   9.068  0.3869  1.0354 -0.0793
  596MOL0     H80447   8.915   2.473   8.951 -0.4912 -0.5166 -0.2058
  596MOL0     H80448   9.405   2.549   8.953 -0.7562 -0.3531 -0.3075
  596MOL0     H80449   9.633   2.516   8.877 -1.9030 -0.1654  0.5988
  596MOL0     H80450   9.949   2.337   8.883 -1.6403  0.5841 -1.1924
  596MOL0     H80451   9.829   2.401   9.017 -0.9740 -0.7585  1.1315
  596MOL0     H80452   9.802   2.147   9.073  0.0808 -4.0336 -1.7398
  596MOL0     H80453   9.972   2.219   9.085  0.1083  1.2272  0.7727
  596MOL0     H80454  10.045   2.104   8.902  0.1970  4.1457  5.0635
  596MOL0     H80455   9.876   2.101   8.824 -2.7503 -2.7103  0.4723
  596MOL0     H80456   9.938   1.875   8.887  2.6987  1.2707 -0.4248
  596MOL0     H80457   9.810   1.931   8.992 -0.8099 -2.0851 -2.6932
  596MOL0     H80458  10.090   1.874   9.297  0.1632  0.5376  0.2072
  596MOL0     H80459   9.602   2.093   8.916  2.1105  1.3712 -0.8490
  596MOL0     H80460   9.342   2.120   8.956 -1.3493  0.7103  1.0259
  597MOL0     O80461   9.336   3.945   5.893  0.1221  0.0172  0.5879
  597MOL0     C80462   9.329   3.930   5.765 -0.8319  1.0365  0.2286
  597MOL0     O80463   9.232   3.986   5.682  0.0535  0.4658 -0.7449
  597MOL0     C80464   9.125   4.053   5.731 -0.1820 -0.4446  0.2204
  597MOL0     C80465   8.996   4.030   5.666 -0.4315 -0.5359 -0.3260
  597MOL0     C80466   8.870   4.083   5.710 -0.4286 -0.0917  0.4500
  597MOL0     C80467   8.873   4.153   5.831  1.1350 -0.7206  0.2765
  597MOL0     O80468   8.749   4.203   5.881  0.0056  0.0506  0.4900
  597MOL0     C80469   8.665   4.101   5.934  0.9430  0.7118  0.7330
  597MOL0     C80470   8.531   4.169   5.975  0.1185 -0.5669 -0.3408
  597MOL0     C80471   8.413   4.084   6.006 -0.2785  1.8615 -0.1357
  597MOL0     C80472   8.288   4.145   5.942 -0.8776  0.7646 -0.3666
  597MOL0     C80473   8.151   4.101   5.998  0.1650  0.7765  0.1409
  597MOL0     C80474   8.030   4.165   5.929 -0.5074 -0.0698  0.0591
  597MOL0     C80475   8.010   4.312   5.966 -0.7806  0.0478  0.8869
  597MOL0     C80476   7.990   4.334   6.120 -0.3765  0.3758  0.7236
  597MOL0     N80477   7.870   4.259   6.160  0.1209 -0.3881  0.0040
  597MOL0     C80478   7.873   4.147   6.242 -0.9793  0.4652  0.4937
  597MOL0     C80479   7.749   4.111   6.273 -0.1515 -1.0363 -0.8696
  597MOL0     C80480   7.709   4.001   6.375 -0.3213 -0.0606  0.1185
  597MOL0     C80481   7.571   3.942   6.371 -0.2890 -0.5151  0.1089
  597MOL0     C80482   7.465   4.050   6.399  0.1005 -0.4407  0.8407
  597MOL0     C80483   7.415   4.052   6.544 -0.9504 -0.2395  0.4829
  597MOL0     O80484   7.369   3.932   6.586  0.6216  0.0261 -0.7123
  597MOL0     C80485   7.251   3.882   6.542  0.6474 -0.2311 -0.5504
  597MOL0     C80486   7.159   3.956   6.461 -0.6464  0.6795  0.2372
  597MOL0     C80487   7.031   3.908   6.430  0.3000 -0.0963 -1.1691
  597MOL0     C80488   6.957   3.993   6.335  0.3948  0.0261 -0.9329
  597MOL0     C80489   6.986   3.790   6.496  0.2782 -0.1559  0.9904
  597MOL0     C80490   6.849   3.737   6.476 -1.1230  0.1690  0.2861
  597MOL0     O80491   6.753   3.799   6.394 -0.2797 -0.6693  0.0309
  597MOL0     C80492   6.622   3.757   6.359 -1.1835  0.1483 -0.9049
  597MOL0     C80493   6.552   3.647   6.416  0.0207 -0.0510  0.3306
  597MOL0     C80494   6.422   3.614   6.373  0.1343 -0.1918 -0.7469
  597MOL0     C80495   6.359   3.682   6.270  0.6686  0.7139 -0.4133
  597MOL0     O80496   6.235   3.643   6.227 -0.3842  0.5575 -0.4277
  597MOL0     C80497   6.244   3.558   6.110 -0.2499 -0.1255  0.1210
  597MOL0     C80498   6.092   3.525   6.082 -0.0070  0.0366  0.2711
  597MOL0     C80499   6.092   3.427   5.971  1.2669  0.2802 -0.0736
  597MOL0     C80500   5.944   3.392   5.922  0.7032  0.7332 -0.2597
  597MOL0     C80501   5.846   3.342   6.026  0.4355 -0.3575  1.1386
  597MOL0     C80502   5.708   3.318   5.952  0.0033  1.0077 -0.7605
  597MOL0     C80503   5.614   3.246   6.055  0.7176  0.4781 -0.5729
  597MOL0     C80504   5.462   3.251   6.019 -0.2214 -0.0586  0.4445
  597MOL0    Cl80505   5.367   3.249   6.165  0.9753  0.3874  0.0201
  597MOL0     C80506   6.428   3.792   6.208 -0.4214 -0.2360 -0.4670
  597MOL0     C80507   6.556   3.827   6.259  0.0217 -0.3951 -0.0070
  597MOL0     O80508   6.837   3.620   6.511  0.5028  0.5206 -0.1489
  597MOL0     C80509   7.073   3.724   6.593  0.1617 -1.0119 -0.1617
  597MOL0     C80510   7.206   3.761   6.602  0.7275 -0.4236 -0.4874
  597MOL0     N80511   7.672   4.205   6.204  0.2548  0.2130  0.9538
  597MOL0     N80512   7.742   4.292   6.135 -0.4100  1.2805  0.4253
  597MOL0     C80513   8.990   4.184   5.887  0.6427  0.1938 -0.1296
  597MOL0     C80514   9.117   4.152   5.831 -0.2601  0.6249 -0.4170
  597MOL0     C80515   9.432   3.842   5.701 -0.5250 -0.2213 -0.1800
  597MOL0     C80516   9.494   3.741   5.766  0.4749 -0.0807 -1.0628
  597MOL0     C80517   9.591   3.650   5.712 -0.5411  0.8273  0.2175
  597MOL0     C80518   9.632   3.677   5.585 -0.4929  0.1014  0.4223
  597MOL0     O80519   9.718   3.593   5.508  0.2368 -0.2491  0.2681
  597MOL0     C80520   9.832   3.552   5.584 -0.1392  0.2307  0.1007
  597MOL0     C80521   9.917   3.450   5.502  1.2042 -0.3642  0.3822
  597MOL0     C80522   9.877   3.310   5.539  0.3918  0.6115  0.2599
  597MOL0     C80523   9.727   3.270   5.526  0.2226 -0.1406  1.6206
  597MOL0     C80524   9.718   3.141   5.598 -0.0836 -0.2543  0.0466
  597MOL0     C80525   9.691   3.036   5.655  0.0243  0.0815 -0.2577
  597MOL0     C80526   9.575   3.778   5.512  0.6000  0.3031 -0.1670
  597MOL0     C80527   9.477   3.857   5.572  0.0299  0.0495 -0.0959
  597MOL0     H80528   9.009   3.968   5.578 -1.4372  0.2841 -1.0819
  597MOL0     H80529   8.776   4.080   5.655  1.3654  0.8423 -2.9632
  597MOL0     H80530   8.651   4.023   5.858 -0.3324  3.4696 -2.0774
  597MOL0     H80531   8.711   4.053   6.021  2.2962 -0.1790 -0.4184
  597MOL0     H80532   8.544   4.244   6.053  0.4041  1.3637 -2.1657
  597MOL0     H80533   8.503   4.244   5.900 -0.8752  0.0620  0.6357
  597MOL0     H80534   8.418   3.980   5.971 -1.9217  2.1225 -1.3094
  597MOL0     H80535   8.403   4.083   6.115 -0.5838  0.5812 -0.1574
  597MOL0     H80536   8.282   4.253   5.956 -1.8160  0.4124  2.9861
  597MOL0     H80537   8.287   4.127   5.834 -1.4482  0.5345 -0.3266
  597MOL0     H80538   8.140   3.994   5.975 -0.8917  0.7808  0.5548
  597MOL0     H80539   8.157   4.100   6.107  3.8276 -1.9445  0.0912
  597MOL0     H80540   8.037   4.136   5.823 -0.1721  0.9542 -0.2096
  597MOL0     H80541   7.945   4.107   5.964 -0.1199 -0.2346  0.7517
  597MOL0     H80542   8.097   4.367   5.929 -0.9503 -0.4167 -0.2458
  597MOL0     H80543   7.928   4.362   5.914 -0.7081 -1.0849 -0.4026
  597MOL0     H80544   7.972   4.438   6.148  1.1710  0.5309  1.2919
  597MOL0     H80545   8.081   4.299   6.171  0.8381  2.7050  0.2574
  597MOL0     H80546   7.966   4.115   6.288 -0.1088 -0.3440 -1.7237
  597MOL0     H80547   7.783   3.923   6.355 -0.4503  0.0857 -0.9972
  597MOL0     H80548   7.738   4.036   6.475  3.3523 -0.2468 -0.7214
  597MOL0     H80549   7.574   3.848   6.427  1.6249 -1.9909 -2.2951
  597MOL0     H80550   7.544   3.917   6.268  2.1457 -0.1824 -0.6583
  597MOL0     H80551   7.382   4.030   6.331 -0.6711  2.2454  0.8964
  597MOL0     H80552   7.506   4.148   6.373  0.1499 -1.1895 -2.2917
  597MOL0     H80553   7.341   4.129   6.566  3.4714  3.5391  4.3372
  597MOL0     H80554   7.508   4.064   6.600  0.6707 -4.8542 -0.7610
  597MOL0     H80555   7.193   4.053   6.429  3.3132 -0.2939  0.9897
  597MOL0     H80556   7.002   4.087   6.304 -1.0552  1.2352  0.4211
  597MOL0     H80557   6.946   3.934   6.244 -1.6783  1.3500 -1.6016
  597MOL0     H80558   6.857   4.015   6.375  1.4453 -0.1950  2.1131
  597MOL0     H80559   6.604   3.583   6.487  2.3628  0.1561 -1.0950
  597MOL0     H80560   6.369   3.528   6.413 -0.6169 -0.5869 -2.5160
  597MOL0     H80561   6.285   3.617   6.028 -0.6388 -1.7149 -1.2669
  597MOL0     H80562   6.298   3.464   6.129 -0.6378 -0.4377 -0.2926
  597MOL0     H80563   6.027   3.495   6.164  0.2140  1.0082  0.8133
  597MOL0     H80564   6.051   3.612   6.030 -0.5537  0.0848  0.7780
  597MOL0     H80565   6.143   3.336   6.004  0.9736  0.2879  0.4014
  597MOL0     H80566   6.151   3.464   5.887 -0.6816  1.2359 -1.0944
  597MOL0     H80567   5.891   3.479   5.882 -3.4364 -3.0744 -4.2162
  597MOL0     H80568   5.954   3.318   5.842 -1.1062  2.9286 -2.6687
  597MOL0     H80569   5.831   3.407   6.113 -0.4337  1.8351 -0.5376
  597MOL0     H80570   5.880   3.243   6.057  0.1367 -1.5095 -1.8887
  597MOL0     H80571   5.660   3.413   5.927  1.2682  1.7031 -0.6358
  597MOL0     H80572   5.719   3.255   5.864  0.6966 -0.8542  0.5906
  597MOL0     H80573   5.632   3.301   6.148  0.6014 -0.5487  0.0749
  597MOL0     H80574   5.646   3.143   6.073  0.0796  0.3225 -0.2922
  597MOL0     H80575   5.449   3.168   5.950 -0.1364  0.2537  0.0522
  597MOL0     H80576   5.429   3.338   5.962 -1.4570 -0.9247 -0.1843
  597MOL0     H80577   6.394   3.836   6.115 -0.8020  1.1572  0.3087
  597MOL0     H80578   6.600   3.912   6.209 -2.3671  0.9592  0.0599
  597MOL0     H80579   7.027   3.640   6.643 -1.2104 -1.2664 -1.7679
  597MOL0     H80580   7.267   3.701   6.670  0.9303 -0.7501 -0.9547
  597MOL0     H80581   8.982   4.240   5.979  0.8178  1.2865 -0.7594
  597MOL0     H80582   9.207   4.172   5.890 -0.8731 -1.1884  1.2604
  597MOL0     H80583   9.459   3.743   5.868 -1.2070 -1.6691 -1.5713
  597MOL0     H80584   9.615   3.560   5.769  3.0916  1.1855 -0.4868
  597MOL0     H80585   9.891   3.635   5.624  1.6774 -1.3267  0.8629
  597MOL0     H80586   9.801   3.499   5.675  2.0825 -1.4022  0.0190
  597MOL0     H80587  10.022   3.455   5.533  0.7832  0.0956  1.8289
  597MOL0     H80588   9.906   3.473   5.396 -1.0183  0.8458  0.8050
  597MOL0     H80589   9.906   3.289   5.642  2.6361  0.7050 -0.3016
  597MOL0     H80590   9.939   3.238   5.484  1.9064  0.7220  1.7566
  597MOL0     H80591   9.689   3.265   5.423  0.6317  0.0705  1.4542
  597MOL0     H80592   9.658   3.340   5.573  0.4921  1.2706 -0.0020
  597MOL0     H80593   9.659   2.960   5.723  1.1642  1.1317  1.5407
  597MOL0     H80594   9.607   3.804   5.412 -2.6738 -0.3283 -1.5055
  597MOL0     H80595   9.428   3.933   5.512 -2.2836 -1.6637 -0.4882
  598MOL0     O80596   6.659   7.271   6.115  0.0586 -0.2396 -0.5486
  598MOL0     C80597   6.743   7.239   6.033 -0.6358 -0.7244 -0.5851
  598MOL0     O80598   6.736   7.266   5.902 -0.2755 -0.0453 -0.5713
  598MOL0     C80599   6.652   7.358   5.847 -0.4400  0.0162 -0.2817
  598MOL0     C80600   6.638   7.352   5.708 -1.1703 -0.0877  0.2292
  598MOL0     C80601   6.560   7.447   5.646 -0.2453 -0.4619  0.4094
  598MOL0     C80602   6.501   7.555   5.718 -0.2334  0.7727 -0.3415
  598MOL0     O80603   6.425   7.652   5.649  0.1344  0.1157  0.0124
  598MOL0     C80604   6.367   7.605   5.519  1.0143  0.6290  0.0306
  598MOL0     C80605   6.269   7.704   5.472  0.9253 -0.2168  1.2470
  598MOL0     C80606   6.310   7.848   5.455  0.2367  0.9323  0.9957
  598MOL0     C80607   6.191   7.932   5.400  0.6253  0.8659  0.3392
  598MOL0     C80608   6.214   8.083   5.388 -1.2075 -0.1550 -0.5112
  598MOL0     C80609   6.078   8.143   5.375 -0.0681 -0.5813 -0.8468
  598MOL0     C80610   6.105   8.283   5.319  0.6635 -0.1681  0.2985
  598MOL0     C80611   6.173   8.381   5.429 -0.7083  0.4385  0.9286
  598MOL0     N80612   6.183   8.522   5.390  0.8605 -0.1452 -0.3753
  598MOL0     C80613   6.077   8.610   5.371  0.4775 -0.4812  0.4752
  598MOL0     C80614   6.136   8.723   5.321  0.7800 -0.2593 -0.2568
  598MOL0     C80615   6.064   8.843   5.271 -0.0247  0.0525 -0.1304
  598MOL0     C80616   5.942   8.881   5.356  0.1401 -0.2947  0.0144
  598MOL0     C80617   5.979   8.906   5.505  0.1682 -0.3789 -0.1207
  598MOL0     C80618   5.883   9.003   5.575 -0.3734 -0.9951  0.3599
  598MOL0     O80619   5.752   8.996   5.523 -1.1340 -0.3715  0.1039
  598MOL0     C80620   5.681   9.113   5.520  0.9472  0.0808 -0.3786
  598MOL0     C80621   5.699   9.221   5.596  0.1371  0.1133 -1.0101
  598MOL0     C80622   5.620   9.343   5.580 -0.1850  0.7475  0.4419
  598MOL0     C80623   5.682   9.468   5.637  0.1327 -1.1086  0.8351
  598MOL0     C80624   5.504   9.341   5.503 -0.8408  0.1027 -0.5741
  598MOL0     C80625   5.413   9.456   5.469  0.2577 -0.5952  0.3685
  598MOL0     O80626   5.388   9.469   5.339  0.2770  0.4406 -0.3050
  598MOL0     C80627   5.301   9.574   5.293  0.1249  0.3670 -0.9240
  598MOL0     C80628   5.330   9.627   5.170 -0.6711 -0.6659  0.1057
  598MOL0     C80629   5.256   9.743   5.120  0.4845  1.3711 -0.3111
  598MOL0     C80630   5.146   9.791   5.192  0.1420  0.0236 -0.4549
  598MOL0     O80631   5.055   9.882   5.145  0.4886 -0.0638 -0.0045
  598MOL0     C80632   5.088   9.956   5.031  0.3910  0.6029  0.4032
  598MOL0     C80633   4.982  10.053   4.980 -1.0165  0.8112  0.4386
  598MOL0     C80634   4.843   9.986   4.964 -0.0672 -0.8335  0.9704
  598MOL0     C80635   4.737  10.084   4.911  0.9537  0.3177  0.2842
  598MOL0     C80636   4.772  10.142   4.780  0.1713 -0.0496  0.5823
  598MOL0     C80637   4.773  10.048   4.653 -0.0015 -0.5267 -0.2639
  598MOL0     C80638   4.850  10.099   4.533 -0.5695 -0.9657  0.0215
  598MOL0     C80639   5.006  10.079   4.534 -0.2983 -0.0858 -0.5750
  598MOL0    Cl80640   5.039   9.904   4.571 -0.2138  0.0902  0.1314
  598MOL0     C80641   5.114   9.726   5.312 -0.4791 -0.3884  0.1434
  598MOL0     C80642   5.191   9.625   5.366  0.4467 -0.1044  0.0122
  598MOL0     O80643   5.390   9.534   5.559  0.2531 -0.3765  0.3414
  598MOL0     C80644   5.480   9.221   5.437  0.3637  0.0284 -1.0584
  598MOL0     C80645   5.565   9.110   5.443 -0.1002  0.0482 -0.0011
  598MOL0     N80646   6.271   8.707   5.308 -0.0858  0.2778  0.6125
  598MOL0     N80647   6.292   8.587   5.350  0.2239 -0.4726  0.7401
  598MOL0     C80648   6.518   7.559   5.855 -0.2293 -0.1536 -0.6864
  598MOL0     C80649   6.590   7.461   5.917  0.6518  0.3801  0.6814
  598MOL0     C80650   6.858   7.158   6.085  0.3853 -0.0970 -0.1243
  598MOL0     C80651   6.873   7.152   6.229 -0.6597 -1.0711  0.1766
  598MOL0     C80652   6.984   7.098   6.286  0.7919 -0.3475  0.6193
  598MOL0     C80653   7.083   7.047   6.203  0.2611  0.2456  0.6225
  598MOL0     O80654   7.198   6.983   6.242  0.0226 -0.0907 -0.2996
  598MOL0     C80655   7.221   6.979   6.383  0.5858  0.0097  0.6400
  598MOL0     C80656   7.333   6.889   6.421 -0.5452 -0.0121  0.3927
  598MOL0     C80657   7.461   6.934   6.355  1.2673 -0.3968  0.3066
  598MOL0     C80658   7.523   7.057   6.420  0.0692 -0.4085 -0.2949
  598MOL0     C80659   7.667   7.073   6.368  0.3137  0.4969  0.2001
  598MOL0     C80660   7.786   7.074   6.340  0.5703  0.4592 -0.9952
  598MOL0     C80661   7.074   7.056   6.064  0.1591  0.1965 -0.0010
  598MOL0     C80662   6.963   7.110   6.009  0.0676  0.1926 -0.1955
  598MOL0     H80663   6.676   7.266   5.654  0.7679  1.0477 -0.3444
  598MOL0     H80664   6.555   7.452   5.537 -0.5886  1.7163  0.4761
  598MOL0     H80665   6.442   7.596   5.440  1.6003 -2.0377  0.7942
  598MOL0     H80666   6.311   7.512   5.523  1.4967  0.3717  1.1047
  598MOL0     H80667   6.219   7.668   5.382 -1.6430  2.7323  1.3382
  598MOL0     H80668   6.188   7.707   5.545 -1.4735  1.5550 -1.2961
  598MOL0     H80669   6.338   7.881   5.555 -1.7379 -2.5313  2.8763
  598MOL0     H80670   6.398   7.844   5.390  0.3833 -1.3978  1.2540
  598MOL0     H80671   6.152   7.891   5.306 -1.9910  1.5730  1.0258
  598MOL0     H80672   6.107   7.911   5.468  0.7313  0.9624  0.5012
  598MOL0     H80673   6.267   8.124   5.475 -0.6016 -0.8139 -0.5668
  598MOL0     H80674   6.273   8.091   5.297 -1.3651 -2.8382 -0.9444
  598MOL0     H80675   6.015   8.090   5.304  0.6644  1.9969 -3.6356
  598MOL0     H80676   6.021   8.137   5.468 -1.6471 -0.8169 -1.7926
  598MOL0     H80677   6.169   8.281   5.230  3.8431 -1.8686  2.4183
  598MOL0     H80678   6.007   8.326   5.295  0.0040 -0.8779  1.6294
  598MOL0     H80679   6.277   8.352   5.442  0.1021  1.9751 -1.3857
  598MOL0     H80680   6.112   8.368   5.519 -2.1189  4.7941  0.8272
  598MOL0     H80681   5.973   8.588   5.394  0.1392  1.5991  1.1472
  598MOL0     H80682   6.140   8.921   5.272 -0.3261  0.3473 -0.2523
  598MOL0     H80683   6.029   8.842   5.167  0.2224  1.4412 -0.2455
  598MOL0     H80684   5.870   8.800   5.340 -1.2832  0.9570 -0.1469
  598MOL0     H80685   5.898   8.971   5.312  1.3779 -0.2340 -1.1710
  598MOL0     H80686   6.081   8.945   5.512 -0.2197  0.9220 -1.3236
  598MOL0     H80687   5.980   8.810   5.558 -0.2624 -0.1416  0.3141
  598MOL0     H80688   5.924   9.103   5.559 -3.6192  0.7479  1.8952
  598MOL0     H80689   5.882   8.984   5.683 -0.3347 -2.3881  0.1322
  598MOL0     H80690   5.787   9.224   5.660 -1.0370  2.3874  0.6491
  598MOL0     H80691   5.784   9.445   5.667  1.0510  0.8419 -0.5639
  598MOL0     H80692   5.675   9.539   5.554  2.5443 -1.2298  0.4585
  598MOL0     H80693   5.621   9.509   5.718  1.6471  4.1146 -0.2898
  598MOL0     H80694   5.422   9.597   5.121  0.1071  2.6043 -0.6791
  598MOL0     H80695   5.304   9.798   5.040  1.9731 -0.8952 -1.0853
  598MOL0     H80696   5.171  10.024   5.053  0.2438  1.0947 -0.4981
  598MOL0     H80697   5.112   9.888   4.948 -0.2244  1.3444 -0.4121
  598MOL0     H80698   4.972  10.138   5.049 -0.5591  1.3239 -0.1094
  598MOL0     H80699   5.009  10.092   4.881 -3.1850  1.2549 -0.0371
  598MOL0     H80700   4.806   9.956   5.063  0.8346 -3.0437  0.6811
  598MOL0     H80701   4.834   9.898   4.900 -4.8087  1.1444 -1.5868
  598MOL0     H80702   4.635  10.043   4.910  0.7551  0.8038 -0.0449
  598MOL0     H80703   4.726  10.172   4.975  0.1473 -1.9182  3.4579
  598MOL0     H80704   4.871  10.187   4.784  0.5969 -0.5362 -2.1639
  598MOL0     H80705   4.701  10.224   4.762  1.8074  1.5391  1.1143
  598MOL0     H80706   4.815   9.951   4.680 -1.2466 -0.7839  0.8873
  598MOL0     H80707   4.671  10.037   4.616 -0.6206 -0.5516  1.3385
  598MOL0     H80708   4.827  10.205   4.519 -0.8776 -1.2723 -2.3015
  598MOL0     H80709   4.816  10.049   4.442  0.2597  1.6461 -1.8536
  598MOL0     H80710   5.054  10.151   4.601  1.8686 -0.1872 -1.9083
  598MOL0     H80711   5.053  10.094   4.436  0.4046 -1.7809 -0.5291
  598MOL0     H80712   5.026   9.764   5.363  2.1768  3.4113  2.4199
  598MOL0     H80713   5.160   9.585   5.462  0.3779  2.8433  1.3230
  598MOL0     H80714   5.386   9.202   5.387  0.8105  1.4348 -2.5166
  598MOL0     H80715   5.544   9.026   5.378  1.5087  0.3812 -1.0286
  598MOL0     H80716   6.459   7.622   5.920 -1.0357 -0.7597 -0.8129
  598MOL0     H80717   6.596   7.467   6.025 -3.0038  1.3669  0.9535
  598MOL0     H80718   6.807   7.223   6.278  0.9369  0.2209  0.5137
  598MOL0     H80719   7.005   7.097   6.393  0.8944  1.0232  0.6180
  598MOL0     H80720   7.240   7.080   6.420 -1.1420  0.6946 -0.2629
  598MOL0     H80721   7.131   6.939   6.431  1.2123 -2.8971 -0.4306
  598MOL0     H80722   7.315   6.784   6.399  2.6281 -0.7553  0.8503
  598MOL0     H80723   7.344   6.894   6.530  0.8710 -0.0484  0.2738
  598MOL0     H80724   7.443   6.951   6.248  0.1895  0.1175  0.5511
  598MOL0     H80725   7.531   6.851   6.355  2.8540  0.8240 -1.8079
  598MOL0     H80726   7.529   7.045   6.528 -0.4529 -0.5551 -0.2806
  598MOL0     H80727   7.465   7.148   6.403  0.3772 -0.1406  0.0653
  598MOL0     H80728   7.890   7.063   6.316  0.2944 -0.3406 -1.9317
  598MOL0     H80729   7.144   6.997   6.006  0.9932  0.0233  1.1453
  598MOL0     H80730   6.937   7.118   5.904  1.1519  1.6001 -0.3878
  599MOL0     O80731   6.148  11.320  11.327  0.1533  0.1279 -0.5283
  599MOL0     C80732   6.121  11.326  11.208 -0.5866 -0.1299  0.5470
  599MOL0     O80733   6.039  11.418  11.144  0.3725  0.1039  1.1131
  599MOL0     C80734   5.962  11.520  11.207  0.1786 -0.6979  1.4382
  599MOL0     C80735   5.909  11.490  11.328  0.6809  0.0880 -0.5053
  599MOL0     C80736   5.834  11.586  11.390  0.3751 -0.1578 -1.2423
  599MOL0     C80737   5.830  11.723  11.346  0.9043  0.5803  0.0795
  599MOL0     O80738   5.773  11.818  11.426 -0.1189  0.2435  0.1386
  599MOL0     C80739   5.655  11.880  11.372 -0.5691 -0.0076  0.6338
  599MOL0     C80740   5.630  12.014  11.453 -0.3682 -0.0516 -0.3288
  599MOL0     C80741   5.502  12.091  11.419  0.5672 -0.0545  0.1504
  599MOL0     C80742   5.501  12.227  11.477 -0.0718 -0.6011 -0.6255
  599MOL0     C80743   5.375  12.313  11.454  0.0696 -0.6584  0.2843
  599MOL0     C80744   5.409  12.453  11.518 -0.3525 -0.2181 -0.5514
  599MOL0     C80745   5.416  12.468  11.674 -0.1127  0.0301  0.6947
  599MOL0     C80746   5.287  12.425  11.755 -0.5720  0.3764  0.4346
  599MOL0     N80747   5.174  12.515  11.728 -0.1385 -0.5380 -0.6597
  599MOL0     C80748   5.075  12.499  11.635  0.2095  0.5866 -0.3254
  599MOL0     C80749   4.978  12.595  11.655  0.1471 -0.2083  0.2885
  599MOL0     C80750   4.847  12.602  11.580  0.0850 -0.0882 -0.8097
  599MOL0     C80751   4.760  12.476  11.588  0.0243 -0.5343 -0.3848
  599MOL0     C80752   4.723  12.445  11.730  0.1813 -0.4444 -0.2077
  599MOL0     C80753   4.604  12.343  11.737 -0.4911 -0.0264  0.6834
  599MOL0     O80754   4.478  12.401  11.696  0.2466 -0.2558  0.1126
  599MOL0     C80755   4.376  12.326  11.662  0.1459 -0.0182 -0.3589
  599MOL0     C80756   4.370  12.190  11.694  0.5190 -1.7731  0.2364
  599MOL0     C80757   4.266  12.114  11.633 -0.2196  0.2069  0.2305
  599MOL0     C80758   4.273  11.965  11.675 -0.2144 -0.4580 -0.6559
  599MOL0     C80759   4.166  12.171  11.551 -0.2569  0.3918  0.0293
  599MOL0     C80760   4.050  12.096  11.485  0.0863  0.0107  0.3180
  599MOL0     O80761   3.958  12.160  11.410 -0.7098 -0.0462 -0.3395
  599MOL0     C80762   3.899  12.101  11.306 -0.3508 -0.1679 -0.0168
  599MOL0     C80763   3.759  12.093  11.311 -0.5806  0.4717  0.3576
  599MOL0     C80764   3.699  12.028  11.205 -0.0769  0.9475 -0.5587
  599MOL0     C80765   3.774  11.974  11.098  0.0525 -0.2593 -0.7438
  599MOL0     O80766   3.690  11.922  11.003  0.0716  0.0276  0.0219
  599MOL0     C80767   3.740  11.830  10.909 -1.0052  0.5848 -0.2187
  599MOL0     C80768   3.815  11.890  10.794 -0.7996 -0.5796  0.7624
  599MOL0     C80769   3.751  12.016  10.734  0.2163  0.3869 -0.5291
  599MOL0     C80770   3.846  12.055  10.620 -0.0890 -0.2520  0.0806
  599MOL0     C80771   3.802  12.185  10.551 -0.6560 -0.3118 -0.8523
  599MOL0     C80772   3.898  12.227  10.447  0.1485 -0.0430  0.1869
  599MOL0     C80773   3.865  12.366  10.394  0.7356 -0.0916  0.5200
  599MOL0     C80774   3.934  12.416  10.263  0.5496 -0.4048 -0.3279
  599MOL0    Cl80775   3.866  12.317  10.123  0.2279  0.3020 -0.0435
  599MOL0     C80776   3.909  11.979  11.098  0.4061 -0.3191  0.4252
  599MOL0     C80777   3.967  12.052  11.196 -0.2906  0.3182  0.4276
  599MOL0     O80778   4.045  11.976  11.498 -0.0724  0.2971  0.1740
  599MOL0     C80779   4.177  12.306  11.533  0.4285 -0.3941  0.3969
  599MOL0     C80780   4.279  12.386  11.577  0.7394 -0.2265  0.4291
  599MOL0     N80781   5.023  12.674  11.753  0.2124  0.2771  0.6971
  599MOL0     N80782   5.129  12.619  11.804 -0.4004 -0.6607  0.1348
  599MOL0     C80783   5.888  11.753  11.223  0.6232 -0.8127 -0.0710
  599MOL0     C80784   5.948  11.651  11.150 -0.7018 -0.8822 -0.5753
  599MOL0     C80785   6.190  11.242  11.109  0.0224 -0.3226 -0.7387
  599MOL0     C80786   6.316  11.188  11.154  0.7926 -0.3772 -0.8603
  599MOL0     C80787   6.388  11.103  11.068  0.3350 -0.0885 -1.0209
  599MOL0     C80788   6.351  11.080  10.933  0.0077  0.2665  0.7182
  599MOL0     O80789   6.433  11.004  10.851 -0.3012  0.9397 -1.2771
  599MOL0     C80790   6.438  11.035  10.715  0.1818  0.2441 -0.3355
  599MOL0     C80791   6.473  11.179  10.678  1.1084  0.2930  0.0832
  599MOL0     C80792   6.624  11.210  10.719  0.6323 -0.0662  0.7998
  599MOL0     C80793   6.677  11.341  10.665 -0.6049  0.5135 -0.3366
  599MOL0     C80794   6.728  11.310  10.531 -0.6039  0.5298  0.0505
  599MOL0     C80795   6.774  11.284  10.422  0.8165 -1.3036 -0.0491
  599MOL0     C80796   6.235  11.141  10.890 -0.1615  0.6348  0.0673
  599MOL0     C80797   6.146  11.216  10.975 -0.5999  0.0926  0.2251
  599MOL0     H80798   5.931  11.395  11.377 -0.8473  0.2954  0.6556
  599MOL0     H80799   5.786  11.565  11.485 -1.5336 -2.1480 -2.5578
  599MOL0     H80800   5.663  11.912  11.267 -0.9962  4.0221  1.6743
  599MOL0     H80801   5.573  11.810  11.391 -0.3530  0.0554  1.8667
  599MOL0     H80802   5.637  11.991  11.560  1.4482 -3.0093 -0.9508
  599MOL0     H80803   5.714  12.078  11.429  0.3936 -0.9972 -0.2567
  599MOL0     H80804   5.482  12.092  11.311 -2.2942 -2.3140  0.5538
  599MOL0     H80805   5.427  12.023  11.459  1.4861 -1.1381  0.0729
  599MOL0     H80806   5.509  12.228  11.586  0.5802  2.8150 -0.5963
  599MOL0     H80807   5.580  12.291  11.436 -0.2252  2.1655  2.8751
  599MOL0     H80808   5.351  12.318  11.347  2.8724  0.8284 -0.3821
  599MOL0     H80809   5.298  12.259  11.509 -0.6179  1.6659  1.7361
  599MOL0     H80810   5.495  12.491  11.463 -0.4023 -0.4829 -0.8219
  599MOL0     H80811   5.335  12.527  11.484  1.7255  2.5996  0.6784
  599MOL0     H80812   5.498  12.406  11.710  0.2989  0.5324  0.6448
  599MOL0     H80813   5.450  12.568  11.703  1.4874 -0.5866  1.0505
  599MOL0     H80814   5.300  12.415  11.863 -0.6800 -1.8520  0.2868
  599MOL0     H80815   5.267  12.323  11.720  0.2647 -0.0360  1.1195
  599MOL0     H80816   5.071  12.419  11.561  2.3499 -0.6599  0.8249
  599MOL0     H80817   4.793  12.690  11.614 -1.8063 -1.2609 -0.6164
  599MOL0     H80818   4.867  12.632  11.477 -0.2146  4.0374  0.1862
  599MOL0     H80819   4.827  12.402  11.544  0.8211 -0.0698  0.0244
  599MOL0     H80820   4.671  12.486  11.525  0.1745  2.7855 -0.2128
  599MOL0     H80821   4.692  12.532  11.787  1.3390 -0.0204 -0.1890
  599MOL0     H80822   4.810  12.395  11.773 -0.9046 -1.3986  0.9516
  599MOL0     H80823   4.594  12.304  11.839 -2.9406  0.6281  0.7516
  599MOL0     H80824   4.619  12.267  11.660  0.9980  1.2343 -0.3237
  599MOL0     H80825   4.446  12.152  11.762  2.1794 -1.8321 -1.5907
  599MOL0     H80826   4.356  11.956  11.745 -1.7117 -1.1199  1.1158
  599MOL0     H80827   4.182  11.939  11.730 -0.5100  1.2866 -0.2737
  599MOL0     H80828   4.291  11.895  11.593  1.4503 -0.8291 -0.0111
  599MOL0     H80829   3.708  12.143  11.392  0.4548  0.1704  1.2101
  599MOL0     H80830   3.591  12.026  11.210 -0.0751 -2.0381 -0.1887
  599MOL0     H80831   3.816  11.758  10.940  1.3231  2.0745 -2.0503
  599MOL0     H80832   3.650  11.778  10.878 -0.8392  0.9431 -1.3667
  599MOL0     H80833   3.920  11.911  10.817 -0.6778 -2.1593  1.7901
  599MOL0     H80834   3.811  11.813  10.717 -1.9909 -1.1166  1.3273
  599MOL0     H80835   3.739  12.097  10.807 -3.1261 -1.8689  1.7517
  599MOL0     H80836   3.651  11.996  10.694  0.2232  1.5823 -1.1694
  599MOL0     H80837   3.941  12.073  10.671  0.0061 -2.3349  0.7275
  599MOL0     H80838   3.862  11.980  10.542 -0.8173  2.0407 -2.4484
  599MOL0     H80839   3.805  12.263  10.628 -0.5922 -0.2099 -0.9568
  599MOL0     H80840   3.699  12.185  10.513 -0.4589  2.5189 -1.6414
  599MOL0     H80841   4.003  12.231  10.476  1.5131 -1.8881 -3.7332
  599MOL0     H80842   3.883  12.161  10.361  2.0766  2.2867 -2.0960
  599MOL0     H80843   3.902  12.438  10.467  0.5694  0.5270  0.0050
  599MOL0     H80844   3.759  12.389  10.378  1.2364  2.1264 -0.0471
  599MOL0     H80845   4.043  12.402  10.266  0.5954  0.0504  0.3428
  599MOL0     H80846   3.914  12.523  10.248  1.5700  0.0498  1.3079
  599MOL0     H80847   3.976  11.952  11.017 -0.0604 -0.7291  0.1665
  599MOL0     H80848   4.071  12.075  11.178 -0.4776  0.3444 -0.6942
  599MOL0     H80849   4.109  12.364  11.472  0.8483 -0.6186 -0.2882
  599MOL0     H80850   4.278  12.485  11.533  0.6027  0.7914  2.6371
  599MOL0     H80851   5.876  11.850  11.176  3.4778 -0.7576 -0.8655
  599MOL0     H80852   5.995  11.682  11.057  0.4403  0.4639  0.3984
  599MOL0     H80853   6.350  11.196  11.257  0.1042  0.6643 -0.6930
  599MOL0     H80854   6.468  11.035  11.094 -1.0058 -1.5937 -0.6315
  599MOL0     H80855   6.513  10.966  10.675 -1.7913 -3.7120  2.2417
  599MOL0     H80856   6.348  11.015  10.656  0.3936 -0.0430 -0.5599
  599MOL0     H80857   6.403  11.257  10.708  0.0536 -0.3260 -0.7241
  599MOL0     H80858   6.472  11.171  10.569 -0.1672 -0.6642  0.1535
  599MOL0     H80859   6.688  11.129  10.684  1.0697  1.4846 -2.3373
  599MOL0     H80860   6.619  11.211  10.829  2.6702 -0.3700  0.9303
  599MOL0     H80861   6.745  11.392  10.734 -1.0882 -0.4879  0.9323
  599MOL0     H80862   6.587  11.400  10.644 -0.4013  1.3596  1.0284
  599MOL0     H80863   6.812  11.270  10.323 -0.1997  3.0093 -1.2653
  599MOL0     H80864   6.192  11.105  10.797  1.6326  1.5711 -1.1811
  599MOL0     H80865   6.060  11.272  10.938 -1.3169  1.9829  4.2662
  600MOL0     O80866   2.231  10.958   5.146  0.7388 -0.3376  1.0231
  600MOL0     C80867   2.286  10.863   5.203  0.6792 -0.9102 -0.5702
  600MOL0     O80868   2.249  10.731   5.200 -0.3846 -0.5906 -0.3732
  600MOL0     C80869   2.132  10.701   5.134 -0.3861  0.7764 -0.4612
  600MOL0     C80870   2.132  10.637   5.007 -0.9002  0.8122 -0.3124
  600MOL0     C80871   2.008  10.610   4.956  0.2670 -0.0747  0.1986
  600MOL0     C80872   1.887  10.662   5.001 -0.2682 -1.1396 -0.0037
  600MOL0     O80873   1.768  10.645   4.922  0.3994  0.6802  0.1049
  600MOL0     C80874   1.685  10.541   4.980 -1.2911 -0.4930 -0.7530
  600MOL0     C80875   1.577  10.507   4.878 -0.7993 -0.3345 -0.7020
  600MOL0     C80876   1.529  10.357   4.889  0.0031 -0.4557  0.8255
  600MOL0     C80877   1.429  10.324   4.783  0.9424  0.5507 -0.1247
  600MOL0     C80878   1.391  10.176   4.799  0.5399  0.4058 -1.0824
  600MOL0     C80879   1.295  10.124   4.694 -0.7212 -0.3545 -0.3092
  600MOL0     C80880   1.164  10.197   4.696 -0.1218 -0.0915  0.4502
  600MOL0     C80881   1.033  10.104   4.685 -0.3331  0.1063  0.2607
  600MOL0     N80882   0.958  10.098   4.815 -1.1114 -0.8792 -0.3782
  600MOL0     C80883   0.867  10.201   4.842  0.5104  0.8089 -0.6014
  600MOL0     C80884   0.816  10.152   4.955  0.1186 -1.5379 -0.4931
  600MOL0     C80885   0.695  10.216   5.022 -0.8978  0.2234 -0.4018
  600MOL0     C80886   0.564  10.159   4.961 -0.5621 -0.0036  0.4865
  600MOL0     C80887   0.548  10.009   4.984  0.2298  0.6194  0.0599
  600MOL0     C80888   0.400   9.961   4.975  0.7996  0.0958 -0.4371
  600MOL0     O80889   0.346  10.006   4.851 -0.0501  0.0868  0.4934
  600MOL0     C80890   0.211   9.976   4.838  0.4963 -0.9218 -0.7384
  600MOL0     C80891   0.127   9.908   4.934 -0.1725  0.2093  0.1150
  600MOL0     C80892  -0.005   9.876   4.911  0.0669  1.2861 -0.0232
  600MOL0     C80893  -0.083   9.801   5.012  0.1469 -0.0624 -0.2431
  600MOL0     C80894  -0.047   9.898   4.776 -0.1898  0.5931 -0.3468
  600MOL0     C80895  -0.178   9.850   4.719 -0.0154  0.0998  1.3193
  600MOL0     O80896  -0.188   9.841   4.579 -0.2332  0.5649 -0.4578
  600MOL0     C80897  -0.310   9.808   4.520 -0.1796 -1.6317  0.5716
  600MOL0     C80898  -0.439   9.842   4.565  0.2865  0.0280  0.5586
  600MOL0     C80899  -0.550   9.810   4.488  0.5488  0.1096 -0.4310
  600MOL0     C80900  -0.540   9.725   4.384 -0.4358  0.4518 -0.6141
  600MOL0     O80901  -0.648   9.676   4.326  0.2742 -0.4782  0.7978
  600MOL0     C80902  -0.653   9.646   4.187  0.2737 -0.3573  0.3391
  600MOL0     C80903  -0.751   9.534   4.151 -0.3138  0.1491 -0.6141
  600MOL0     C80904  -0.886   9.549   4.219 -0.1870 -0.5389 -0.5137
  600MOL0     C80905  -0.990   9.446   4.155 -0.5036  0.0099  0.0387
  600MOL0     C80906  -1.139   9.490   4.178 -1.0170 -0.0113 -0.2054
  600MOL0     C80907  -1.222   9.396   4.097 -0.0485  0.0425  1.0756
  600MOL0     C80908  -1.374   9.437   4.106  0.0582 -0.5382  0.3552
  600MOL0     C80909  -1.473   9.325   4.108  0.0306  0.8531 -0.7216
  600MOL0    Cl80910  -1.641   9.384   4.079 -0.3162  0.0799 -0.1076
  600MOL0     C80911  -0.412   9.702   4.330 -1.1080 -0.6753  0.0257
  600MOL0     C80912  -0.294   9.748   4.400 -0.2799 -1.0584  0.6320
  600MOL0     O80913  -0.272   9.827   4.796  0.6760  0.1869  0.8378
  600MOL0     C80914   0.024   9.974   4.689  0.0323 -0.1303 -0.8834
  600MOL0     C80915   0.150  10.012   4.722  0.0465  0.5549 -0.1712
  600MOL0     N80916   0.866  10.039   4.998 -0.2141  0.4663 -0.1075
  600MOL0     N80917   0.958  10.006   4.915  0.0064  0.3497  0.1480
  600MOL0     C80918   1.893  10.720   5.129  1.1254 -0.1596  1.0276
  600MOL0     C80919   2.013  10.733   5.191  0.1928  0.0821 -0.1157
  600MOL0     C80920   2.387  10.894   5.298 -0.5482 -0.1764 -0.1528
  600MOL0     C80921   2.460  10.796   5.371  0.2642 -0.1233 -0.0975
  600MOL0     C80922   2.568  10.820   5.453 -0.0961 -0.2831  0.1811
  600MOL0     C80923   2.606  10.952   5.469 -0.6370  1.0473  0.2036
  600MOL0     O80924   2.723  10.971   5.536 -0.2775  0.5524  0.0972
  600MOL0     C80925   2.781  11.098   5.557 -0.1016 -0.2574 -1.2060
  600MOL0     C80926   2.924  11.056   5.591 -1.0362  0.3098  0.1757
  600MOL0     C80927   2.996  10.968   5.486 -0.7641 -0.5017  0.3446
  600MOL0     C80928   3.019  11.049   5.356 -0.0331 -0.2776 -0.4238
  600MOL0     C80929   3.128  11.145   5.366  0.0520  0.0968 -0.3074
  600MOL0     C80930   3.215  11.227   5.385 -0.4249  0.2956 -0.3157
  600MOL0     C80931   2.532  11.054   5.407 -0.6214  0.4269 -0.1072
  600MOL0     C80932   2.426  11.019   5.323 -0.6396  0.3407 -0.7813
  600MOL0     H80933   2.227  10.618   4.959 -0.5432 -0.6535  0.8953
  600MOL0     H80934   2.001  10.565   4.857  0.5187 -0.6377  0.4359
  600MOL0     H80935   1.757  10.463   5.002 -0.4907  0.8554  1.9129
  600MOL0     H80936   1.643  10.576   5.075  0.8026 -1.3366  0.5521
  600MOL0     H80937   1.491  10.573   4.890 -1.5115 -1.5410  1.1792
  600MOL0     H80938   1.613  10.523   4.776  0.1283  1.2988 -0.1406
  600MOL0     H80939   1.616  10.295   4.862  0.3503  0.8398 -1.1968
  600MOL0     H80940   1.500  10.322   4.989 -0.1763 -2.4145  0.1253
  600MOL0     H80941   1.335  10.378   4.795 -1.7480 -3.8533  0.5664
  600MOL0     H80942   1.474  10.342   4.685 -0.1099 -2.9413 -1.3969
  600MOL0     H80943   1.485  10.121   4.800  0.8019  0.8356  0.6427
  600MOL0     H80944   1.342  10.162   4.896  1.0049  0.0578 -0.8977
  600MOL0     H80945   1.349  10.124   4.598  4.1925 -4.7229  1.9477
  600MOL0     H80946   1.280  10.018   4.719 -1.7618 -0.4198 -1.1544
  600MOL0     H80947   1.149  10.252   4.789 -1.7270 -0.1445  0.2457
  600MOL0     H80948   1.158  10.269   4.614  0.7067 -2.5483 -1.9373
  600MOL0     H80949   1.064   9.999   4.677 -1.0895 -0.1625  0.6503
  600MOL0     H80950   0.961  10.123   4.605  0.4660  0.6427 -0.3433
  600MOL0     H80951   0.837  10.293   4.792 -2.7679  1.0451  1.4764
  600MOL0     H80952   0.706  10.197   5.129 -2.6103  0.9494 -0.0710
  600MOL0     H80953   0.692  10.325   5.009 -4.5087  0.6343  2.3659
  600MOL0     H80954   0.563  10.171   4.852  0.1305  0.3989  0.5143
  600MOL0     H80955   0.483  10.211   5.012  0.1107 -1.4818  3.2641
  600MOL0     H80956   0.585   9.980   5.083  0.5243  0.1074 -0.1946
  600MOL0     H80957   0.613   9.944   4.924 -0.6739 -2.5570  2.2135
  600MOL0     H80958   0.342  10.000   5.059  0.7643 -0.6654 -0.1017
  600MOL0     H80959   0.394   9.852   4.969  0.9664  0.1192 -1.1197
  600MOL0     H80960   0.160   9.882   5.034 -1.4543 -0.2483  0.4439
  600MOL0     H80961  -0.022   9.784   5.101 -0.8440 -1.7083  0.1710
  600MOL0     H80962  -0.173   9.858   5.038  0.5152  0.1014  0.6947
  600MOL0     H80963  -0.107   9.703   4.970 -0.8388  0.1663 -0.2354
  600MOL0     H80964  -0.452   9.894   4.659 -1.1681  3.4508 -1.3348
  600MOL0     H80965  -0.646   9.851   4.516 -1.4202 -2.3811 -2.9322
  600MOL0     H80966  -0.701   9.731   4.137  3.5262 -0.0737 -2.6981
  600MOL0     H80967  -0.563   9.628   4.128 -0.6428 -1.2156 -0.8498
  600MOL0     H80968  -0.760   9.525   4.043 -1.9421 -0.1249 -0.4889
  600MOL0     H80969  -0.713   9.436   4.182 -1.2360  0.2312  0.9153
  600MOL0     H80970  -0.922   9.650   4.200  1.1549 -0.4561 -3.0502
  600MOL0     H80971  -0.875   9.547   4.328  1.0128  2.3979 -0.5071
  600MOL0     H80972  -0.973   9.456   4.048 -0.3000 -1.0443 -0.0305
  600MOL0     H80973  -0.961   9.345   4.186 -1.0918  0.8550  3.9567
  600MOL0     H80974  -1.146   9.593   4.141  0.0024  0.4849  0.9122
  600MOL0     H80975  -1.163   9.506   4.284 -0.6885  2.4939 -0.4527
  600MOL0     H80976  -1.197   9.396   3.991 -1.4133  0.0068  0.7283
  600MOL0     H80977  -1.233   9.295   4.137 -2.5291  0.1896  0.9455
  600MOL0     H80978  -1.387   9.501   4.018  4.7935  1.2788  0.7127
  600MOL0     H80979  -1.389   9.494   4.198 -2.8420 -3.6528  2.0451
  600MOL0     H80980  -1.450   9.285   4.208  2.0335  1.5625 -0.8597
  600MOL0     H80981  -1.453   9.242   4.040  0.6684  0.7949 -0.4688
  600MOL0     H80982  -0.393   9.632   4.249  0.1359 -0.6503  0.2813
  600MOL0     H80983  -0.202   9.728   4.346 -1.3488  0.4827 -1.9266
  600MOL0     H80984  -0.021   9.998   4.593 -4.2369 -1.0545  0.6398
  600MOL0     H80985   0.206  10.067   4.647 -0.0683 -0.9075 -1.3935
  600MOL0     H80986   1.808  10.772   5.173  0.8466  0.2929 -0.0266
  600MOL0     H80987   2.012  10.792   5.282 -0.1242 -2.3928  1.5875
  600MOL0     H80988   2.414  10.698   5.381 -0.7790  0.3871  0.3125
  600MOL0     H80989   2.618  10.737   5.501  0.9130  0.2579  0.0794
  600MOL0     H80990   2.786  11.155   5.463  0.1942 -0.1533 -1.1282
  600MOL0     H80991   2.723  11.145   5.636 -0.3775 -3.4182  0.6372
  600MOL0     H80992   2.921  11.006   5.688 -0.7873  0.7120  0.3907
  600MOL0     H80993   2.979  11.148   5.612 -1.4973  0.2269  1.8252
  600MOL0     H80994   2.953  10.872   5.458  3.6988 -1.8326 -3.2138
  600MOL0     H80995   3.092  10.935   5.529 -0.3316 -1.4830 -1.2866
  600MOL0     H80996   2.930  11.087   5.304 -1.0562 -2.8905 -0.7333
  600MOL0     H80997   3.066  10.980   5.286  0.8415  0.8758 -1.0111
  600MOL0     H80998   3.299  11.286   5.414  1.4033 -1.6363 -1.3997
  600MOL0     H80999   2.549  11.157   5.435  5.1945 -0.3256  0.2186
  600MOL0     H81000   2.384  11.106   5.273 -0.3933  0.4840 -0.7425
  601MOL0     O81001   3.321   3.551  10.790 -0.8717  0.0334  0.9551
  601MOL0     C81002   3.342   3.663  10.754  0.9606 -0.1849  0.1432
  601MOL0     O81003   3.258   3.738  10.676 -0.4988  0.1268 -0.1456
  601MOL0     C81004   3.150   3.683  10.620 -0.0759  0.5469  0.2966
  601MOL0     C81005   3.025   3.729  10.669  0.3333  0.1470 -0.7454
  601MOL0     C81006   2.904   3.690  10.604  0.7642  0.2068  0.3482
  601MOL0     C81007   2.912   3.606  10.489  0.0122  0.1027 -0.0962
  601MOL0     O81008   2.808   3.564  10.410  0.1746  0.2473 -0.7760
  601MOL0     C81009   2.685   3.568  10.492  0.6773  0.3342 -0.9223
  601MOL0     C81010   2.587   3.468  10.444  0.6953  0.1141  0.5343
  601MOL0     C81011   2.452   3.449  10.521 -0.5177  0.1052  0.9345
  601MOL0     C81012   2.371   3.576  10.511 -0.3405  0.6506  0.2232
  601MOL0     C81013   2.217   3.561  10.507 -0.0621 -0.5579 -0.2215
  601MOL0     C81014   2.165   3.504  10.372  0.2759 -0.6537 -0.1926
  601MOL0     C81015   2.019   3.463  10.379 -0.3621 -0.6173 -0.6805
  601MOL0     C81016   1.982   3.339  10.460  0.5874  0.1420  0.2807
  601MOL0     N81017   1.852   3.300  10.426  0.0653  0.0078 -0.7363
  601MOL0     C81018   1.809   3.249  10.302  0.4500 -0.2180 -0.2073
  601MOL0     C81019   1.675   3.237  10.325  0.4645  0.5231  0.5219
  601MOL0     C81020   1.578   3.182  10.221  0.0520 -0.1028 -0.6536
  601MOL0     C81021   1.512   3.288  10.144  0.3497  0.6394 -0.5734
  601MOL0     C81022   1.436   3.228  10.026 -0.2734  1.1410  0.0973
  601MOL0     C81023   1.291   3.194  10.088  1.0857  0.3185  1.2103
  601MOL0     O81024   1.220   3.102  10.007  0.0745  0.5354 -0.4544
  601MOL0     C81025   1.093   3.062  10.051 -0.3402 -0.3189 -0.2356
  601MOL0     C81026   1.033   3.099  10.178 -0.1682  0.0722  0.0230
  601MOL0     C81027   0.909   3.050  10.204 -0.7480 -0.2297  0.7862
  601MOL0     C81028   0.872   3.063  10.351 -0.1550  0.0236  0.1457
  601MOL0     C81029   0.832   2.982  10.108 -0.3367 -0.3012 -0.7267
  601MOL0     C81030   0.697   2.926  10.128 -0.4448  0.3333  0.0141
  601MOL0     O81031   0.668   2.814  10.069 -0.6226  0.5651 -0.2467
  601MOL0     C81032   0.549   2.743  10.095 -0.4283  0.1021  0.2888
  601MOL0     C81033   0.470   2.705   9.983  0.4767 -0.8737  0.5515
  601MOL0     C81034   0.355   2.621  10.002  0.4365 -0.6643 -0.1859
  601MOL0     C81035   0.330   2.575  10.131  0.4810  0.6133  0.3055
  601MOL0     O81036   0.224   2.494  10.147  0.9693  0.6663 -0.3557
  601MOL0     C81037   0.095   2.557  10.193 -0.5782 -0.0583  0.2314
  601MOL0     C81038  -0.019   2.490  10.105 -0.0727  0.1947  0.8941
  601MOL0     C81039  -0.004   2.509   9.951 -1.1509  0.9340  0.4675
  601MOL0     C81040  -0.136   2.435   9.893 -0.3820  0.2830  0.2927
  601MOL0     C81041  -0.142   2.428   9.739 -0.2552  0.1543  0.0687
  601MOL0     C81042  -0.061   2.307   9.694 -0.4799 -0.2458  0.2154
  601MOL0     C81043  -0.005   2.313   9.557  0.4732  0.7003  0.0519
  601MOL0     C81044   0.072   2.190   9.505 -1.0595  0.3515 -0.3417
  601MOL0    Cl81045   0.183   2.126   9.633  0.5686 -0.5149 -0.5705
  601MOL0     C81046   0.404   2.620  10.239  0.0253 -0.0428  0.5769
  601MOL0     C81047   0.516   2.693  10.217 -0.0954  0.5662 -0.1955
  601MOL0     O81048   0.620   2.991  10.199  0.1074  0.5902 -0.7424
  601MOL0     C81049   0.891   2.958   9.983 -0.6542 -0.3975  1.5815
  601MOL0     C81050   1.018   3.003   9.946  0.2377 -1.9970 -0.2055
  601MOL0     N81051   1.636   3.273  10.454  0.0772  1.2629  0.0872
  601MOL0     N81052   1.746   3.301  10.513 -0.2671 -0.9793  0.1319
  601MOL0     C81053   3.041   3.566  10.453  0.2302 -0.0554  0.9723
  601MOL0     C81054   3.159   3.610  10.502 -0.0807  0.5942  0.1551
  601MOL0     C81055   3.461   3.735  10.800  0.8129  0.8991  0.0580
  601MOL0     C81056   3.573   3.658  10.839  0.7589 -0.2098  0.9232
  601MOL0     C81057   3.688   3.723  10.884 -0.4398  0.3660  0.4697
  601MOL0     C81058   3.690   3.864  10.911  0.7550 -0.5225 -0.3608
  601MOL0     O81059   3.794   3.929  10.968 -0.0170 -0.8871  1.0003
  601MOL0     C81060   3.877   3.868  11.065  0.2679 -0.0650  0.6025
  601MOL0     C81061   3.963   3.983  11.104  0.4658  0.2257 -0.7278
  601MOL0     C81062   4.022   3.959  11.244 -0.0823  0.0822  0.8564
  601MOL0     C81063   4.085   4.084  11.292  0.4295 -0.4473 -0.5882
  601MOL0     C81064   4.202   4.042  11.369  0.0040 -0.0251  0.6551
  601MOL0     C81065   4.304   4.019  11.436 -0.4359 -0.9172  0.6417
  601MOL0     C81066   3.571   3.933  10.864 -0.5566 -0.9939 -0.1282
  601MOL0     C81067   3.462   3.873  10.807 -0.4723 -1.2158 -1.1182
  601MOL0     H81068   3.020   3.785  10.762  2.1853 -0.6962 -0.0993
  601MOL0     H81069   2.811   3.725  10.647 -1.4067 -3.8540 -0.5037
  601MOL0     H81070   2.708   3.547  10.597  0.0844  1.4286 -0.5650
  601MOL0     H81071   2.633   3.662  10.473 -2.1636 -1.1207 -1.0352
  601MOL0     H81072   2.553   3.499  10.345  0.0677  1.0064  1.0136
  601MOL0     H81073   2.641   3.373  10.436  1.0678  0.4299 -1.1289
  601MOL0     H81074   2.398   3.363  10.479 -0.5427  0.8088 -0.5551
  601MOL0     H81075   2.481   3.429  10.624  2.0961 -1.7787 -0.0630
  601MOL0     H81076   2.400   3.640  10.595 -2.9101 -0.7480  2.3188
  601MOL0     H81077   2.401   3.626  10.418 -2.3651  1.5370 -0.0076
  601MOL0     H81078   2.188   3.503  10.596 -1.3830  0.4711  0.0371
  601MOL0     H81079   2.186   3.665  10.520  0.0286 -0.5950  0.3513
  601MOL0     H81080   2.178   3.572  10.287 -0.6154 -0.9480 -0.5655
  601MOL0     H81081   2.229   3.418  10.351 -0.4833 -1.1515 -0.4775
  601MOL0     H81082   1.948   3.545  10.391  2.0000  2.1049 -3.5430
  601MOL0     H81083   2.012   3.432  10.274  2.1853  2.0139 -1.7696
  601MOL0     H81084   1.976   3.368  10.566 -0.6931 -0.0358  0.2818
  601MOL0     H81085   2.051   3.254  10.461  0.3356 -0.1778  3.5261
  601MOL0     H81086   1.855   3.222  10.207  0.4072 -2.7397  0.4166
  601MOL0     H81087   1.627   3.110  10.156 -0.1677  0.7723 -1.8338
  601MOL0     H81088   1.498   3.124  10.268 -2.8810  2.3320 -2.2349
  601MOL0     H81089   1.582   3.360  10.101  1.5972  0.4168  1.0147
  601MOL0     H81090   1.444   3.352  10.202  0.8600  1.4936 -0.8946
  601MOL0     H81091   1.493   3.150   9.975 -2.5078 -0.7620  0.3197
  601MOL0     H81092   1.418   3.308   9.954  1.7458  0.9039 -0.7193
  601MOL0     H81093   1.234   3.288  10.088  1.3300  0.5779 -1.8460
  601MOL0     H81094   1.302   3.160  10.191  2.0398  1.8591  1.6549
  601MOL0     H81095   1.073   3.149  10.265 -1.2050  1.3902 -0.2287
  601MOL0     H81096   0.796   2.991  10.385 -1.5191  1.8314  1.1427
  601MOL0     H81097   0.961   3.034  10.407  1.2915  2.2580 -0.8814
  601MOL0     H81098   0.830   3.155  10.393 -0.7135 -0.1673  0.0245
  601MOL0     H81099   0.510   2.723   9.884  0.5299  0.9045  0.8540
  601MOL0     H81100   0.295   2.591   9.917 -0.6018  1.6416 -0.3555
  601MOL0     H81101   0.084   2.544  10.301 -3.7289 -1.4274 -0.1571
  601MOL0     H81102   0.097   2.666  10.187 -1.1478  0.3919  4.7942
  601MOL0     H81103  -0.037   2.386  10.132 -1.4105  0.6724  1.9442
  601MOL0     H81104  -0.111   2.538  10.139 -0.3779 -0.0241  0.3930
  601MOL0     H81105   0.080   2.448   9.917 -0.9078  0.4617  1.8457
  601MOL0     H81106   0.006   2.610   9.913  4.2789  0.4861  0.0503
  601MOL0     H81107  -0.150   2.340   9.945 -2.8450  1.6358  2.3220
  601MOL0     H81108  -0.221   2.482   9.944  1.1538 -1.5707  5.1609
  601MOL0     H81109  -0.111   2.530   9.718 -2.1261  1.1272  1.6744
  601MOL0     H81110  -0.240   2.415   9.693 -0.0117 -0.5228 -0.2768
  601MOL0     H81111   0.025   2.292   9.760 -0.9359 -0.2593  0.8073
  601MOL0     H81112  -0.122   2.217   9.701  2.6145 -2.7331 -1.6284
  601MOL0     H81113   0.059   2.399   9.538  1.0872 -0.1663 -2.1047
  601MOL0     H81114  -0.090   2.328   9.489 -0.0364  0.7746  0.6951
  601MOL0     H81115   0.129   2.213   9.415  1.6532  0.5250  1.3310
  601MOL0     H81116   0.006   2.107   9.476 -0.4616  0.7153 -2.9785
  601MOL0     H81117   0.385   2.597  10.343  0.4537  0.2098  0.7116
  601MOL0     H81118   0.584   2.709  10.300 -0.1430 -1.5530  0.3028
  601MOL0     H81119   0.835   2.911   9.903 -1.1385  1.4661  0.7762
  601MOL0     H81120   1.068   2.966   9.856  0.7774 -1.5347 -0.0986
  601MOL0     H81121   3.044   3.504  10.364 -2.3034  0.9336  0.0959
  601MOL0     H81122   3.239   3.565  10.445  0.4587  1.6712  0.0308
  601MOL0     H81123   3.574   3.550  10.832  2.9010 -0.2683  1.2023
  601MOL0     H81124   3.780   3.670  10.908 -0.5893  0.5420  1.4945
  601MOL0     H81125   3.810   3.841  11.148 -0.8270 -0.5081 -0.4010
  601MOL0     H81126   3.941   3.786  11.032 -3.4623 -3.7970  1.6436
  601MOL0     H81127   3.905   4.076  11.102 -1.1897 -0.7809 -1.2125
  601MOL0     H81128   4.043   3.997  11.031 -0.3199  1.4883 -1.3763
  601MOL0     H81129   4.086   3.873  11.223  0.4125  1.0878 -2.1058
  601MOL0     H81130   3.946   3.929  11.317  0.4803 -0.4295  1.2403
  601MOL0     H81131   4.017   4.132  11.363  2.6690  0.8131  0.7828
  601MOL0     H81132   4.106   4.146  11.205  1.3417 -1.6559 -1.2495
  601MOL0     H81133   4.393   4.011  11.495  0.9026 -3.3311 -1.4943
  601MOL0     H81134   3.577   4.040  10.878  4.2625 -0.7795 -1.8971
  601MOL0     H81135   3.379   3.938  10.780 -1.0347 -1.0707  0.7882
  602MOL0     O81136   1.071   7.368  10.282  0.2210  1.1019 -0.3036
  602MOL0     C81137   1.113   7.296  10.371 -0.2382 -0.2524 -0.7021
  602MOL0     O81138   1.096   7.323  10.509 -0.1581  0.1595 -0.0026
  602MOL0     C81139   0.999   7.403  10.554 -0.7298  0.0626  1.4119
  602MOL0     C81140   1.034   7.484  10.658 -0.3338  0.4619  0.0703
  602MOL0     C81141   0.957   7.588  10.710 -0.1286 -0.0868  0.6625
  602MOL0     C81142   0.831   7.601  10.645 -0.0878  0.6762 -0.3001
  602MOL0     O81143   0.730   7.694  10.693 -0.3849  0.4569  0.4046
  602MOL0     C81144   0.627   7.741  10.608 -0.2986  0.1503 -0.2137
  602MOL0     C81145   0.554   7.856  10.673 -0.1474 -0.8593 -0.0233
  602MOL0     C81146   0.422   7.884  10.604 -0.4239 -0.2835  0.5667
  602MOL0     C81147   0.305   7.792  10.623 -0.3582 -0.6060  0.6265
  602MOL0     C81148   0.197   7.843  10.542 -0.0980  0.1522  0.5551
  602MOL0     C81149   0.068   7.757  10.564  0.1420 -0.1916  0.5460
  602MOL0     C81150   0.070   7.608  10.534 -0.3590  0.7364 -0.0635
  602MOL0     C81151   0.076   7.578  10.383 -0.7008  0.4082  0.1004
  602MOL0     N81152   0.223   7.576  10.344  0.1034  0.4380  0.2976
  602MOL0     C81153   0.319   7.481  10.386  0.6730  0.3797  0.2818
  602MOL0     C81154   0.430   7.502  10.302 -0.2518  0.3183 -0.4740
  602MOL0     C81155   0.547   7.415  10.303  0.1174 -0.3141 -0.1553
  602MOL0     C81156   0.575   7.334  10.177 -0.7511  0.7400 -0.4323
  602MOL0     C81157   0.689   7.223  10.170  0.3156 -0.9166  0.2502
  602MOL0     C81158   0.685   7.122  10.287 -0.3448  0.2421 -0.1442
  602MOL0     O81159   0.808   7.051  10.298 -0.8985  0.2580 -0.3729
  602MOL0     C81160   0.803   6.920  10.352 -0.0437  0.0604 -0.4424
  602MOL0     C81161   0.686   6.859  10.411  0.0163  0.5000  0.5326
  602MOL0     C81162   0.688   6.719  10.448 -0.2320 -0.8627 -0.2681
  602MOL0     C81163   0.566   6.668  10.505  0.7040 -0.3383 -0.9481
  602MOL0     C81164   0.811   6.644  10.422  0.3929 -0.6999 -0.3922
  602MOL0     C81165   0.828   6.501  10.450  0.1792  0.3571 -0.3226
  602MOL0     O81166   0.949   6.447  10.440  0.1446  0.1599  0.8203
  602MOL0     C81167   0.982   6.311  10.419  0.1723  0.5715  0.1890
  602MOL0     C81168   0.890   6.211  10.387 -0.0251 -1.0706 -0.3459
  602MOL0     C81169   0.931   6.080  10.383  0.3536 -0.5439 -0.1229
  602MOL0     C81170   1.062   6.041  10.384 -0.4747  0.2060  0.0392
  602MOL0     O81171   1.105   5.909  10.365  0.6900  0.8963 -0.6802
  602MOL0     C81172   1.042   5.833  10.256 -0.0851 -0.0568  0.1539
  602MOL0     C81173   1.130   5.702  10.248  0.3645  0.3354  0.1297
  602MOL0     C81174   1.090   5.574  10.163  0.2013 -1.1648 -0.9581
  602MOL0     C81175   1.201   5.461  10.169  0.3634  0.9533 -0.5185
  602MOL0     C81176   1.181   5.334  10.083  1.1477 -0.2852 -0.9887
  602MOL0     C81177   1.304   5.249  10.084 -0.4468  0.2297 -0.3583
  602MOL0     C81178   1.285   5.113  10.016 -0.3957 -0.6651  0.9998
  602MOL0     C81179   1.366   5.003  10.086  0.3074  0.5987  0.3246
  602MOL0    Cl81180   1.534   5.067  10.109  0.0002 -0.3465 -0.0399
  602MOL0     C81181   1.165   6.140  10.418  0.2666  0.3934 -1.0102
  602MOL0     C81182   1.114   6.269  10.442 -0.2210 -0.2845 -0.1473
  602MOL0     O81183   0.722   6.435  10.478  0.2309 -0.0053 -0.4886
  602MOL0     C81184   0.925   6.711  10.377 -1.7239  0.4911 -0.2581
  602MOL0     C81185   0.921   6.846  10.345  1.0943 -0.1354  0.3374
  602MOL0     N81186   0.404   7.623  10.244  0.5933 -0.5249 -0.7452
  602MOL0     N81187   0.286   7.665  10.266  0.1418  0.8154 -0.2004
  602MOL0     C81188   0.786   7.516  10.542 -0.1737 -0.3460 -0.0182
  602MOL0     C81189   0.873   7.413  10.494 -0.7093 -0.3645  0.7271
  602MOL0     C81190   1.191   7.172  10.349 -0.0448 -1.4995  0.0741
  602MOL0     C81191   1.260   7.105  10.452  0.0853  0.4364 -0.3329
  602MOL0     C81192   1.327   6.987  10.420 -0.3057  0.3659  0.1310
  602MOL0     C81193   1.314   6.928  10.294  0.5630 -0.3744  0.2688
  602MOL0     O81194   1.363   6.802  10.269  0.2186  0.5131  0.3920
  602MOL0     C81195   1.508   6.783  10.274  0.9195 -0.5473 -0.7286
  602MOL0     C81196   1.581   6.851  10.157 -0.3789 -0.1970 -0.0910
  602MOL0     C81197   1.724   6.793  10.138 -0.7101  0.9307 -1.0100
  602MOL0     C81198   1.816   6.794  10.264 -0.2464  0.6499 -0.6818
  602MOL0     C81199   1.826   6.931  10.320  0.0702 -0.0353  0.4568
  602MOL0     C81200   1.831   7.042  10.376  0.6137  0.0522  1.5053
  602MOL0     C81201   1.251   6.999  10.195 -0.3826 -0.0157  0.4470
  602MOL0     C81202   1.196   7.129  10.217  0.1575  1.0080 -0.0855
  602MOL0     H81203   1.132   7.475  10.703  0.0446  3.9329  0.1905
  602MOL0     H81204   0.998   7.657  10.783 -0.8085  0.9009  0.1193
  602MOL0     H81205   0.674   7.761  10.511  0.8950 -0.4348  0.2310
  602MOL0     H81206   0.559   7.658  10.584 -0.0408  0.2225 -1.2632
  602MOL0     H81207   0.541   7.837  10.780  2.5841 -0.6933  0.4016
  602MOL0     H81208   0.617   7.945  10.669 -0.2536 -0.7819  0.0143
  602MOL0     H81209   0.398   7.980  10.650  1.3172  0.0840  0.7826
  602MOL0     H81210   0.441   7.900  10.498 -3.4332  0.4038  0.0524
  602MOL0     H81211   0.329   7.687  10.608  1.7632 -0.2398  1.1442
  602MOL0     H81212   0.263   7.801  10.724 -0.6294  1.0111  0.4079
  602MOL0     H81213   0.198   7.945  10.582  1.3195  0.4363 -0.1207
  602MOL0     H81214   0.212   7.842  10.433  1.1420  1.5549  0.6715
  602MOL0     H81215   0.043   7.770  10.670  2.0184 -1.6198  1.2364
  602MOL0     H81216  -0.008   7.804  10.501  2.0537 -1.0555 -2.6131
  602MOL0     H81217   0.148   7.554  10.588 -0.1589  2.2478  1.2380
  602MOL0     H81218  -0.026   7.569  10.567 -1.1078  2.0788 -0.5527
  602MOL0     H81219   0.020   7.650  10.323 -1.8078 -1.3275 -1.0031
  602MOL0     H81220   0.027   7.481  10.370 -0.8376  0.3096  1.2367
  602MOL0     H81221   0.302   7.396  10.452 -2.1409 -0.0719 -0.9241
  602MOL0     H81222   0.632   7.482  10.312  1.1757 -1.4886 -1.0846
  602MOL0     H81223   0.543   7.352  10.393 -0.7377 -1.9341 -1.2576
  602MOL0     H81224   0.607   7.410  10.105  0.2921 -0.0186 -0.7961
  602MOL0     H81225   0.487   7.280  10.143 -0.0890  0.5937 -2.0236
  602MOL0     H81226   0.787   7.270  10.172  0.0202 -0.0745 -1.9131
  602MOL0     H81227   0.672   7.173  10.074 -3.1787 -1.7332  1.1421
  602MOL0     H81228   0.601   7.053  10.271 -0.2381  0.1228 -0.1847
  602MOL0     H81229   0.668   7.182  10.378 -0.1389 -1.7703  1.2923
  602MOL0     H81230   0.589   6.907  10.421 -1.1606 -1.7227  0.3056
  602MOL0     H81231   0.526   6.580  10.456  1.8075 -2.2575  1.3648
  602MOL0     H81232   0.585   6.643  10.610 -0.9066  0.5313 -0.4103
  602MOL0     H81233   0.477   6.731  10.514  2.1372  1.7890 -0.8910
  602MOL0     H81234   0.785   6.229  10.367  0.0621 -1.1813 -0.9246
  602MOL0     H81235   0.851   6.011  10.360  0.8295 -0.6087 -1.6965
  602MOL0     H81236   0.934   5.825  10.271 -0.1187  2.3207  1.6183
  602MOL0     H81237   1.048   5.890  10.162 -0.8085  1.2546  0.8732
  602MOL0     H81238   1.228   5.728  10.207 -0.4567  2.0836 -0.8095
  602MOL0     H81239   1.135   5.670  10.352 -1.9042 -0.9468 -0.0708
  602MOL0     H81240   1.070   5.611  10.062 -0.8017  2.9157  0.5639
  602MOL0     H81241   0.998   5.534  10.208  0.4423 -0.7868 -0.1193
  602MOL0     H81242   1.301   5.499  10.145 -0.4485  2.5097 -1.6113
  602MOL0     H81243   1.202   5.428  10.273  1.4818  0.8857 -0.5324
  602MOL0     H81244   1.150   5.369   9.984 -0.1012  5.1531  0.9874
  602MOL0     H81245   1.110   5.269  10.135  1.5414  2.8060  4.0314
  602MOL0     H81246   1.383   5.305  10.033 -0.2584  0.6344  0.3639
  602MOL0     H81247   1.334   5.233  10.188 -1.1060  1.5374  0.0678
  602MOL0     H81248   1.313   5.118   9.910 -0.4904 -0.5340  0.9805
  602MOL0     H81249   1.182   5.080  10.000 -0.1628 -0.6795 -0.6822
  602MOL0     H81250   1.365   4.908  10.032  3.9566  1.3927 -1.3932
  602MOL0     H81251   1.331   4.982  10.188  1.7493 -0.0827  0.7024
  602MOL0     H81252   1.267   6.105  10.427 -0.1047 -0.5759 -0.3588
  602MOL0     H81253   1.184   6.334  10.494 -1.5070 -0.4146  1.8440
  602MOL0     H81254   1.017   6.655  10.363 -1.7576  0.9318 -2.5897
  602MOL0     H81255   0.998   6.894  10.286 -0.2924 -0.1191 -1.5714
  602MOL0     H81256   0.685   7.522  10.503 -0.2048 -4.4292 -0.9752
  602MOL0     H81257   0.841   7.348  10.414  0.6340 -0.0291 -0.1117
  602MOL0     H81258   1.279   7.140  10.553 -3.7945  0.9656  0.3992
  602MOL0     H81259   1.376   6.931  10.499 -0.7927  0.2318  0.3414
  602MOL0     H81260   1.531   6.845  10.362 -1.2820 -1.6564  0.7291
  602MOL0     H81261   1.530   6.676  10.283 -1.7206 -1.1787 -0.7490
  602MOL0     H81262   1.579   6.958  10.176  1.1310 -0.2343  0.4362
  602MOL0     H81263   1.529   6.829  10.064  1.3007 -0.0929 -1.1057
  602MOL0     H81264   1.771   6.852  10.058 -0.2147  1.0000 -0.6743
  602MOL0     H81265   1.715   6.687  10.111 -2.4394  0.0975  2.3315
  602MOL0     H81266   1.921   6.769  10.249 -1.0463 -5.2735  1.1287
  602MOL0     H81267   1.776   6.729  10.343  1.5475 -0.9631 -1.0279
  602MOL0     H81268   1.840   7.146  10.403  2.2442 -0.2921  2.4049
  602MOL0     H81269   1.246   6.946  10.100  0.5073  0.9577 -0.1793
  602MOL0     H81270   1.129   7.173  10.143 -0.6330  0.3190  0.2033
  603MOL0     O81271   3.603  10.272   2.059  0.4706 -0.4527 -0.0298
  603MOL0     C81272   3.704  10.293   2.121  1.1987  1.0226 -0.3883
  603MOL0     O81273   3.741  10.217   2.230  0.5142 -0.0840 -0.4259
  603MOL0     C81274   3.659  10.108   2.263 -0.6441 -0.0753 -0.3750
  603MOL0     C81275   3.722   9.976   2.259  0.6258 -0.3450 -0.4860
  603MOL0     C81276   3.642   9.865   2.285 -0.1252  0.7319 -0.5701
  603MOL0     C81277   3.510   9.882   2.330  0.6316 -0.6018 -0.3865
  603MOL0     O81278   3.429   9.775   2.357 -0.0519  0.2350  0.2309
  603MOL0     C81279   3.356   9.725   2.240 -0.3824  0.2963  0.9089
  603MOL0     C81280   3.275   9.598   2.264  0.6904 -0.0838 -0.3925
  603MOL0     C81281   3.375   9.480   2.256 -0.3104  0.0177 -0.3441
  603MOL0     C81282   3.309   9.349   2.275 -0.6501 -0.4991 -0.5524
  603MOL0     C81283   3.404   9.230   2.290  0.2849  0.7262  0.3500
  603MOL0     C81284   3.515   9.203   2.180 -0.3022  0.3214  0.4786
  603MOL0     C81285   3.656   9.201   2.233 -0.5351  0.2436  0.2255
  603MOL0     C81286   3.690   9.077   2.327  0.0840 -0.4093  1.0088
  603MOL0     N81287   3.665   8.952   2.256 -0.3960  0.7115  0.0337
  603MOL0     C81288   3.566   8.870   2.272  0.2265  0.5144  0.1032
  603MOL0     C81289   3.561   8.781   2.164  0.3083  0.7494  0.6174
  603MOL0     C81290   3.452   8.677   2.140  0.5301 -0.6358 -0.5566
  603MOL0     C81291   3.346   8.737   2.045  0.0420  0.5433 -0.3688
  603MOL0     C81292   3.213   8.670   2.071  0.0972 -0.5025  0.1443
  603MOL0     C81293   3.145   8.741   2.194  0.5771  0.5758  0.3324
  603MOL0     O81294   3.109   8.879   2.189 -0.2488 -0.3612  0.3013
  603MOL0     C81295   3.011   8.918   2.100 -0.0722 -0.0350 -0.9199
  603MOL0     C81296   3.036   8.948   1.967  0.4242 -0.7456  0.8553
  603MOL0     C81297   2.932   8.994   1.886  0.2257  0.2725 -0.3604
  603MOL0     C81298   2.973   9.027   1.744  0.0410 -0.4003  0.3336
  603MOL0     C81299   2.803   9.022   1.940  0.3868 -0.0325  0.3777
  603MOL0     C81300   2.692   9.075   1.854  0.5615  0.1507  0.1185
  603MOL0     O81301   2.565   9.088   1.916 -0.1770 -0.5506  0.0098
  603MOL0     C81302   2.453   9.102   1.833 -0.2692  0.5726 -0.5537
  603MOL0     C81303   2.423   9.220   1.757 -0.7527 -0.4977  1.8386
  603MOL0     C81304   2.302   9.234   1.681  0.1814  0.0427  0.8126
  603MOL0     C81305   2.231   9.113   1.661 -0.6845  0.2939  0.7624
  603MOL0     O81306   2.124   9.102   1.576 -0.4615  0.1843  0.1067
  603MOL0     C81307   2.080   9.214   1.509 -0.0549 -0.4381  0.4981
  603MOL0     C81308   1.939   9.194   1.446  0.3643  0.6665  0.0944
  603MOL0     C81309   1.876   9.330   1.398  0.8608  0.3794  0.2107
  603MOL0     C81310   1.917   9.371   1.257 -0.4879  0.3981 -0.2846
  603MOL0     C81311   1.873   9.512   1.217 -0.6076  0.4274 -0.1873
  603MOL0     C81312   1.915   9.557   1.070 -0.5734  0.3834  0.7007
  603MOL0     C81313   1.821   9.528   0.956 -0.1777 -0.3608  0.1958
  603MOL0     C81314   1.853   9.593   0.825 -0.0996 -0.3328  0.1574
  603MOL0    Cl81315   1.991   9.493   0.767  0.2157  0.0047 -0.4218
  603MOL0     C81316   2.259   8.994   1.732 -0.1769  0.7090 -0.6605
  603MOL0     C81317   2.372   8.990   1.822  0.2411 -0.0993  0.0794
  603MOL0     O81318   2.706   9.090   1.734 -0.3189 -0.6819 -0.3909
  603MOL0     C81319   2.777   8.988   2.075 -1.1884  0.3027  0.3899
  603MOL0     C81320   2.881   8.932   2.154  0.4197 -0.1512  0.7461
  603MOL0     N81321   3.670   8.811   2.088 -0.6464  0.7953 -0.1522
  603MOL0     N81322   3.732   8.908   2.149  1.0676 -0.2642  0.8210
  603MOL0     C81323   3.459  10.008   2.351 -0.7160  0.0975  0.0837
  603MOL0     C81324   3.534  10.123   2.312  0.6936  0.9333 -1.0332
  603MOL0     C81325   3.789  10.404   2.095 -0.2504 -0.5882  0.1909
  603MOL0     C81326   3.746  10.518   2.015  0.2356 -0.2440  0.4286
  603MOL0     C81327   3.832  10.633   2.012 -1.1514 -0.5135  0.0234
  603MOL0     C81328   3.948  10.644   2.086 -0.4281  0.0619 -0.0569
  603MOL0     O81329   4.013  10.770   2.076  0.1956  0.0970  0.0259
  603MOL0     C81330   4.123  10.789   2.165 -0.4160  0.1390 -0.1966
  603MOL0     C81331   4.170  10.927   2.174  0.3858  0.4620 -0.3971
  603MOL0     C81332   4.228  10.989   2.046  0.1247 -0.5293 -0.3323
  603MOL0     C81333   4.270  11.134   2.068  0.3944  0.4501 -0.3466
  603MOL0     C81334   4.311  11.193   1.940  0.0672 -0.1511 -0.0700
  603MOL0     C81335   4.346  11.244   1.838  0.0563  0.5873 -0.0272
  603MOL0     C81336   3.996  10.528   2.159  0.4719 -0.7914  0.1958
  603MOL0     C81337   3.913  10.416   2.166 -0.1675  0.3934 -0.1092
  603MOL0     H81338   3.811   9.960   2.199  1.4735  3.1340 -0.3852
  603MOL0     H81339   3.698   9.776   2.259 -0.3709  0.6597 -0.8446
  603MOL0     H81340   3.285   9.803   2.214 -1.1586 -1.1165 -1.4817
  603MOL0     H81341   3.425   9.721   2.156 -1.5938 -0.5880 -0.0850
  603MOL0     H81342   3.218   9.593   2.358  1.3189 -1.4187 -0.0698
  603MOL0     H81343   3.194   9.583   2.191  0.1626  0.1075  0.1451
  603MOL0     H81344   3.415   9.478   2.154  3.9246  2.6790  1.0040
  603MOL0     H81345   3.454   9.492   2.330 -1.7708 -0.2231  1.2997
  603MOL0     H81346   3.239   9.358   2.359  1.2312  0.9398  0.9757
  603MOL0     H81347   3.247   9.332   2.187 -2.8694 -1.2168  1.0602
  603MOL0     H81348   3.467   9.251   2.377  1.6307 -0.7652 -0.2020
  603MOL0     H81349   3.357   9.133   2.310  1.5804  0.3321  1.7382
  603MOL0     H81350   3.483   9.110   2.131  1.0490 -0.4396  1.0004
  603MOL0     H81351   3.509   9.289   2.113  0.5904  1.2411  1.5508
  603MOL0     H81352   3.724   9.205   2.148 -0.0280  3.3139  0.6536
  603MOL0     H81353   3.669   9.293   2.291 -0.9511  0.8644 -0.6398
  603MOL0     H81354   3.645   9.073   2.426  1.3389 -1.3543  1.5675
  603MOL0     H81355   3.799   9.085   2.339  0.5941  0.2841 -2.7330
  603MOL0     H81356   3.482   8.876   2.341  1.0460 -1.4701  1.3280
  603MOL0     H81357   3.498   8.593   2.087 -0.1404 -1.6117  0.3639
  603MOL0     H81358   3.413   8.639   2.235 -0.7969  1.8252 -0.0116
  603MOL0     H81359   3.382   8.709   1.945 -2.0152  0.5502 -1.1551
  603MOL0     H81360   3.348   8.846   2.050  2.2658  0.5541 -0.4363
  603MOL0     H81361   3.227   8.563   2.090  2.1059 -0.0165  1.6293
  603MOL0     H81362   3.159   8.687   1.977  2.5299 -0.6017 -1.3678
  603MOL0     H81363   3.210   8.707   2.276  1.3288 -4.2643 -1.9049
  603MOL0     H81364   3.052   8.685   2.204  0.7627  0.1433 -0.3294
  603MOL0     H81365   3.134   8.932   1.923 -0.2747 -4.8794  0.3756
  603MOL0     H81366   2.905   8.985   1.669  0.6649  2.6176 -2.1173
  603MOL0     H81367   2.979   9.136   1.739  2.4368 -0.5347 -1.0465
  603MOL0     H81368   3.072   8.989   1.721 -1.0792 -2.4322 -1.5373
  603MOL0     H81369   2.488   9.307   1.759  1.0182 -1.4326 -2.7390
  603MOL0     H81370   2.274   9.328   1.633  1.5171  1.0988  2.0016
  603MOL0     H81371   2.069   9.300   1.575  0.7635  0.0959 -0.0327
  603MOL0     H81372   2.165   9.239   1.444  1.4156 -0.4939  2.3116
  603MOL0     H81373   1.934   9.138   1.352 -1.8280  2.2908 -0.8524
  603MOL0     H81374   1.878   9.148   1.524  0.1703 -3.3277 -2.1425
  603MOL0     H81375   1.898   9.406   1.473  0.0918  1.0753 -0.2533
  603MOL0     H81376   1.768   9.335   1.384  0.9350  2.5304  0.1450
  603MOL0     H81377   2.026   9.363   1.265 -0.4858 -0.2359 -0.8305
  603MOL0     H81378   1.882   9.301   1.181 -0.8631 -0.2336  0.4564
  603MOL0     H81379   1.916   9.584   1.288  0.4490  0.8878 -1.2502
  603MOL0     H81380   1.764   9.517   1.215 -0.6399 -0.2771 -1.7582
  603MOL0     H81381   1.937   9.664   1.068 -1.1341  0.4987  0.2622
  603MOL0     H81382   2.016   9.519   1.051 -0.8154 -0.4717  1.0522
  603MOL0     H81383   1.721   9.556   0.991 -0.5421 -2.1778  0.7356
  603MOL0     H81384   1.808   9.420   0.943  0.9420 -0.2693 -2.2984
  603MOL0     H81385   1.878   9.699   0.829 -1.8006  0.2102 -1.7216
  603MOL0     H81386   1.766   9.600   0.758  1.3955 -0.9092 -1.9765
  603MOL0     H81387   2.205   8.905   1.703  2.6593 -0.8377 -1.6633
  603MOL0     H81388   2.406   8.896   1.865 -0.6150 -1.6457 -2.3868
  603MOL0     H81389   2.679   9.000   2.120 -1.9313 -1.4050 -0.6767
  603MOL0     H81390   2.865   8.902   2.257 -1.0965 -4.1089 -0.4727
  603MOL0     H81391   3.361  10.026   2.394 -0.0450  3.0292  0.6059
  603MOL0     H81392   3.474  10.211   2.331  1.2297  0.7482  2.0918
  603MOL0     H81393   3.645  10.511   1.975  0.6959 -2.2014 -0.4890
  603MOL0     H81394   3.796  10.715   1.950 -0.6644 -0.7125 -0.5296
  603MOL0     H81395   4.092  10.762   2.266 -3.5528  0.5062 -0.9772
  603MOL0     H81396   4.205  10.730   2.121 -0.2444 -1.1120  1.7142
  603MOL0     H81397   4.249  10.920   2.249  0.5858 -4.2860 -0.7024
  603MOL0     H81398   4.078  10.983   2.193 -0.1702 -0.4598 -0.3016
  603MOL0     H81399   4.142  10.980   1.979  1.2015  0.4521 -1.9036
  603MOL0     H81400   4.308  10.927   2.005 -3.5370 -4.6292 -2.1575
  603MOL0     H81401   4.345  11.140   2.147  0.6354 -1.0838 -0.4266
  603MOL0     H81402   4.185  11.197   2.096  0.0965 -0.2550  0.3711
  603MOL0     H81403   4.391  11.282   1.749  0.8876 -0.6535 -0.1617
  603MOL0     H81404   4.094  10.520   2.204 -0.3715  4.4682  3.9506
  603MOL0     H81405   3.955  10.332   2.220 -2.1506  1.3949  3.3427
  604MOL0     O81406   0.384   1.023   2.239 -0.3528 -0.1580 -0.5577
  604MOL0     C81407   0.458   0.933   2.276 -0.1721  0.4794  0.5835
  604MOL0     O81408   0.449   0.802   2.250 -0.5838  0.3799  0.4252
  604MOL0     C81409   0.336   0.770   2.181  0.2389  0.0103 -0.2780
  604MOL0     C81410   0.226   0.720   2.249  0.2097  0.3154  0.3893
  604MOL0     C81411   0.107   0.693   2.183  0.1685 -0.6249  0.9080
  604MOL0     C81412   0.086   0.710   2.045  0.0385  0.6563 -0.5420
  604MOL0     O81413  -0.038   0.675   1.992  0.4189 -0.0364  0.0475
  604MOL0     C81414  -0.045   0.537   1.949  0.0764  0.6867  0.3624
  604MOL0     C81415  -0.142   0.511   1.828  0.8878 -0.0684 -0.3306
  604MOL0     C81416  -0.293   0.556   1.834 -0.5077  1.2099 -0.0510
  604MOL0     C81417  -0.377   0.470   1.922  0.7208 -0.1074 -0.8205
  604MOL0     C81418  -0.523   0.480   1.884 -0.7753  0.6622  0.2792
  604MOL0     C81419  -0.599   0.423   2.007 -1.1142  0.6317 -0.3084
  604MOL0     C81420  -0.742   0.387   1.971 -1.1918 -0.2185  0.5535
  604MOL0     C81421  -0.824   0.315   2.080 -0.0382  0.0395  0.5514
  604MOL0     N81422  -0.964   0.299   2.025 -0.5615  0.1619  0.2613
  604MOL0     C81423  -1.083   0.338   2.078  0.4132 -0.4867 -0.4427
  604MOL0     C81424  -1.176   0.266   2.009 -0.7802 -0.4676 -0.2844
  604MOL0     C81425  -1.320   0.283   2.048 -0.5367 -0.1747 -0.2334
  604MOL0     C81426  -1.425   0.182   1.996 -0.0068 -0.2966 -0.2399
  604MOL0     C81427  -1.562   0.211   2.058  0.8331 -0.1841  0.1683
  604MOL0     C81428  -1.667   0.100   2.037  0.1727 -0.1158  0.1420
  604MOL0     O81429  -1.804   0.155   2.071 -0.4487  0.6936 -0.0649
  604MOL0     C81430  -1.917   0.074   2.031 -0.6179  0.2934  0.2531
  604MOL0     C81431  -1.906  -0.055   1.985 -0.2009 -0.9238  0.0918
  604MOL0     C81432  -2.022  -0.121   1.934  0.3910 -0.2331 -0.0743
  604MOL0     C81433  -1.995  -0.250   1.864 -0.4775  0.1234 -0.7713
  604MOL0     C81434  -2.155  -0.068   1.959 -0.3296 -0.7657 -0.4871
  604MOL0     C81435  -2.281  -0.137   1.920  0.1256  0.6862 -0.0575
  604MOL0     O81436  -2.395  -0.074   1.959  0.4253  0.5699  0.5986
  604MOL0     C81437  -2.516  -0.117   1.912  0.1913 -0.2032 -0.4382
  604MOL0     C81438  -2.546  -0.169   1.786 -0.2750 -1.0223 -0.4921
  604MOL0     C81439  -2.679  -0.212   1.747 -0.0447  0.0191 -0.6915
  604MOL0     C81440  -2.780  -0.204   1.846 -0.9760 -0.5669 -0.6154
  604MOL0     O81441  -2.903  -0.262   1.804  0.6807 -0.2969  0.6642
  604MOL0     C81442  -3.022  -0.209   1.870 -0.0552 -0.4438  0.7680
  604MOL0     C81443  -3.135  -0.275   1.790 -0.8763  0.3862  0.5684
  604MOL0     C81444  -3.267  -0.236   1.860 -0.2086 -0.0293  1.2655
  604MOL0     C81445  -3.291  -0.310   1.984  0.4058 -0.1725 -0.5424
  604MOL0     C81446  -3.445  -0.308   2.027  0.1362 -0.1950 -0.6659
  604MOL0     C81447  -3.464  -0.382   2.159  0.2024 -0.5122 -0.3720
  604MOL0     C81448  -3.607  -0.434   2.189 -0.0541 -0.2798 -0.4619
  604MOL0     C81449  -3.720  -0.334   2.203 -0.1599  0.2942  0.2408
  604MOL0    Cl81450  -3.717  -0.231   2.342 -0.3479 -0.4857 -0.1526
  604MOL0     C81451  -2.755  -0.129   1.966 -0.3621  0.0296 -0.2790
  604MOL0     C81452  -2.621  -0.088   1.998 -0.2211  0.4947 -0.4138
  604MOL0     O81453  -2.280  -0.250   1.865  0.4517 -0.3277  0.0448
  604MOL0     C81454  -2.159   0.068   2.005  0.2502  0.3787 -0.1082
  604MOL0     C81455  -2.040   0.138   2.042  0.1555  0.0813  0.5785
  604MOL0     N81456  -1.108   0.188   1.923  0.2903 -0.0223  0.1479
  604MOL0     N81457  -0.986   0.225   1.914  0.1632 -0.8555  0.3856
  604MOL0     C81458   0.196   0.754   1.975  0.3109  0.2739 -0.5135
  604MOL0     C81459   0.323   0.776   2.041  0.2073 -0.0567  0.1985
  604MOL0     C81460   0.576   0.972   2.350  0.1017  0.2721 -1.3008
  604MOL0     C81461   0.673   0.873   2.392 -0.0527  0.6948  0.2007
  604MOL0     C81462   0.786   0.911   2.461 -0.2821  0.1066 -0.0481
  604MOL0     C81463   0.799   1.038   2.510  0.1599 -0.6978  0.2759
  604MOL0     O81464   0.898   1.095   2.586  0.1361  0.0362  0.2338
  604MOL0     C81465   1.009   1.005   2.618 -0.4180 -0.2290  1.9175
  604MOL0     C81466   1.121   1.083   2.681  0.1888 -0.0405 -0.8842
  604MOL0     C81467   1.202   0.998   2.779 -0.4628  0.2367 -0.0449
  604MOL0     C81468   1.321   1.060   2.845  0.0485 -0.1082  0.0423
  604MOL0     C81469   1.419   1.099   2.745  0.2360 -0.2874  0.1046
  604MOL0     C81470   1.495   1.135   2.659 -0.5319 -0.1337  0.5046
  604MOL0     C81471   0.699   1.132   2.474  0.0709 -0.4616  0.5768
  604MOL0     C81472   0.593   1.100   2.386  0.1256 -0.5036  0.5370
  604MOL0     H81473   0.238   0.710   2.357 -0.3927  3.3929  0.8466
  604MOL0     H81474   0.017   0.662   2.235  0.3510 -2.6317  0.1216
  604MOL0     H81475   0.049   0.493   1.914 -0.2596 -2.0256  2.4586
  604MOL0     H81476  -0.083   0.483   2.036 -0.8623 -1.2172 -1.1495
  604MOL0     H81477  -0.103   0.559   1.739  1.0474 -3.3695 -2.2156
  604MOL0     H81478  -0.136   0.402   1.819 -1.8541 -0.2264 -1.2947
  604MOL0     H81479  -0.308   0.664   1.843  1.1723  1.3938  1.1485
  604MOL0     H81480  -0.340   0.533   1.738 -1.2534 -1.9219  0.9601
  604MOL0     H81481  -0.358   0.362   1.924  0.8113 -0.1634 -2.6507
  604MOL0     H81482  -0.357   0.511   2.021 -1.8409  0.1773 -0.3601
  604MOL0     H81483  -0.543   0.587   1.872 -2.4152  0.5759  1.7654
  604MOL0     H81484  -0.543   0.430   1.789  1.0485  2.6771 -1.2805
  604MOL0     H81485  -0.554   0.328   2.036 -0.8888 -0.1036 -2.8900
  604MOL0     H81486  -0.599   0.487   2.096 -0.3803  0.8214 -0.4356
  604MOL0     H81487  -0.784   0.479   1.931 -0.2538  0.8897  2.0145
  604MOL0     H81488  -0.745   0.319   1.885 -1.3118  1.4731 -0.8345
  604MOL0     H81489  -0.834   0.384   2.165 -3.9534  2.6159 -1.6886
  604MOL0     H81490  -0.783   0.221   2.118  0.0956  0.3120  1.0958
  604MOL0     H81491  -1.108   0.406   2.159 -0.4539  0.7299 -1.7030
  604MOL0     H81492  -1.323   0.294   2.157  0.2538  0.8142 -0.2972
  604MOL0     H81493  -1.359   0.379   2.015 -1.4428 -0.7598 -0.9115
  604MOL0     H81494  -1.393   0.081   2.024 -1.7059 -1.1078 -1.0144
  604MOL0     H81495  -1.419   0.186   1.887  3.7429 -0.8272 -0.1634
  604MOL0     H81496  -1.607   0.302   2.017 -0.8444  0.5532  3.2676
  604MOL0     H81497  -1.554   0.233   2.165 -0.2367 -1.6971  0.6054
  604MOL0     H81498  -1.638   0.014   2.099 -0.2386 -1.1763 -1.0905
  604MOL0     H81499  -1.677   0.078   1.931 -2.7745 -1.5845  0.6197
  604MOL0     H81500  -1.811  -0.108   1.984  0.7276  0.6905 -0.1080
  604MOL0     H81501  -2.031  -0.249   1.760 -2.6489 -1.7588 -0.1298
  604MOL0     H81502  -1.891  -0.282   1.860 -1.2993 -3.2711  0.9283
  604MOL0     H81503  -2.042  -0.327   1.927  1.7598 -0.0400  0.8127
  604MOL0     H81504  -2.458  -0.174   1.721  1.6267 -0.7921  1.9321
  604MOL0     H81505  -2.689  -0.264   1.652 -1.3692 -1.9338  0.4423
  604MOL0     H81506  -3.013  -0.256   1.969  0.3439  0.1905  1.0425
  604MOL0     H81507  -3.033  -0.100   1.871  1.5534 -0.2256 -0.6802
  604MOL0     H81508  -3.132  -0.231   1.690 -0.6893  1.1201  0.8913
  604MOL0     H81509  -3.120  -0.383   1.794  1.1543  0.6201  0.2265
  604MOL0     H81510  -3.346  -0.243   1.785  3.0903 -0.7956 -2.4741
  604MOL0     H81511  -3.260  -0.129   1.881  0.0791  0.3214 -0.4723
  604MOL0     H81512  -3.253  -0.412   1.973  3.3279  0.6730  0.7321
  604MOL0     H81513  -3.232  -0.253   2.057 -0.3281  0.2101 -0.2360
  604MOL0     H81514  -3.514  -0.358   1.958 -1.5610 -1.1144  1.5934
  604MOL0     H81515  -3.472  -0.204   2.046  0.5030 -0.7422  3.8072
  604MOL0     H81516  -3.402  -0.472   2.162  0.8991 -0.0261  0.0757
  604MOL0     H81517  -3.428  -0.313   2.236 -2.4179 -1.9637  2.4165
  604MOL0     H81518  -3.588  -0.501   2.273  0.0016 -0.6183 -0.7439
  604MOL0     H81519  -3.638  -0.498   2.105 -0.9632 -1.4762  0.7347
  604MOL0     H81520  -3.804  -0.403   2.207  0.5641 -0.5524  1.1641
  604MOL0     H81521  -3.723  -0.269   2.114 -1.6509 -0.1760 -0.0740
  604MOL0     H81522  -2.831  -0.107   2.039  0.1963 -0.1090  0.3528
  604MOL0     H81523  -2.596  -0.053   2.098  0.1788 -1.2081  0.1252
  604MOL0     H81524  -2.253   0.120   2.020 -0.1159 -0.2446 -0.2330
  604MOL0     H81525  -2.059   0.232   2.093 -0.8867  0.1226  0.1295
  604MOL0     H81526   0.175   0.773   1.870 -1.5491  1.8350  0.0858
  604MOL0     H81527   0.415   0.801   1.989  0.2278 -2.0170 -0.7687
  604MOL0     H81528   0.658   0.773   2.352  0.4262  0.5268  0.4468
  604MOL0     H81529   0.867   0.840   2.476 -0.8288 -0.7920 -1.2278
  604MOL0     H81530   0.978   0.926   2.687 -1.2651 -0.1424  1.6547
  604MOL0     H81531   1.053   0.963   2.528 -0.5340  1.7301  0.9035
  604MOL0     H81532   1.065   1.164   2.729  2.2060  2.1335 -1.9790
  604MOL0     H81533   1.186   1.136   2.611 -0.7330  2.0397 -0.2643
  604MOL0     H81534   1.233   0.913   2.717 -0.7505  1.0748 -1.3942
  604MOL0     H81535   1.132   0.959   2.853 -0.3154 -1.2530 -0.6457
  604MOL0     H81536   1.357   0.997   2.927  2.6742 -0.1473 -1.0572
  604MOL0     H81537   1.278   1.148   2.894 -0.6829 -1.0065  1.0581
  604MOL0     H81538   1.566   1.181   2.594 -2.0266  0.1494 -0.9887
  604MOL0     H81539   0.703   1.226   2.528  1.3678 -1.3937  2.1866
  604MOL0     H81540   0.534   1.189   2.363  1.4751  0.3012  0.1082
  605MOL0     O81541   4.577   9.230   8.942  0.2983 -0.0961 -0.5472
  605MOL0     C81542   4.652   9.209   9.031 -1.2826  0.6971 -0.7985
  605MOL0     O81543   4.626   9.212   9.168  0.7361  0.6734 -0.4891
  605MOL0     C81544   4.496   9.237   9.199 -0.1311 -0.1050  0.1785
  605MOL0     C81545   4.407   9.136   9.168  0.3754 -0.2812 -0.0272
  605MOL0     C81546   4.276   9.148   9.210 -0.0812 -0.3510  0.5187
  605MOL0     C81547   4.230   9.256   9.282  0.1288  0.5506  0.1085
  605MOL0     O81548   4.103   9.253   9.332 -0.1976  0.5014  0.9736
  605MOL0     C81549   4.057   9.383   9.375  0.7025 -0.6388  0.1232
  605MOL0     C81550   3.902   9.365   9.398 -0.3691  0.4645 -0.6841
  605MOL0     C81551   3.822   9.482   9.333  0.2324  0.9266  0.5274
  605MOL0     C81552   3.671   9.449   9.355 -0.7851  0.0103  0.2485
  605MOL0     C81553   3.573   9.560   9.338 -0.1259 -0.5278  0.3603
  605MOL0     C81554   3.553   9.583   9.190  0.5580 -0.1544 -0.3705
  605MOL0     C81555   3.424   9.668   9.163 -0.2744  0.9418 -0.0423
  605MOL0     C81556   3.370   9.678   9.026 -0.5550  1.3895  0.0687
  605MOL0     N81557   3.300   9.555   8.990 -0.2378  0.1313  0.5721
  605MOL0     C81558   3.193   9.499   9.054 -0.8828 -0.2798  0.9653
  605MOL0     C81559   3.183   9.374   8.993 -0.7834 -0.1842 -0.7460
  605MOL0     C81560   3.097   9.261   9.047  0.0242  0.4597  0.5564
  605MOL0     C81561   3.015   9.216   8.924 -0.7718 -0.0864  0.2671
  605MOL0     C81562   2.991   9.067   8.911 -0.6050 -0.2999 -0.6682
  605MOL0     C81563   2.887   9.014   9.006 -0.6223 -0.4430  0.1600
  605MOL0     O81564   2.804   8.905   8.952  0.1391 -0.3244  0.1574
  605MOL0     C81565   2.677   8.935   8.904 -0.8485  0.0837 -0.0348
  605MOL0     C81566   2.656   9.013   8.790  0.9571 -0.2530 -0.8028
  605MOL0     C81567   2.522   9.040   8.750 -0.7930  0.5188 -0.4618
  605MOL0     C81568   2.504   9.128   8.629  0.0327 -0.8329  0.9252
  605MOL0     C81569   2.410   8.978   8.819 -0.5368 -0.1705  0.3868
  605MOL0     C81570   2.266   8.970   8.769 -0.3356 -0.9596  0.4672
  605MOL0     O81571   2.166   8.953   8.860  0.1433 -0.4075 -0.1287
  605MOL0     C81572   2.041   8.955   8.804  0.1792 -0.1096 -0.3736
  605MOL0     C81573   1.967   8.845   8.767  0.5533 -0.5652  0.6430
  605MOL0     C81574   1.849   8.860   8.703 -0.4477 -0.3540  0.2018
  605MOL0     C81575   1.782   8.981   8.673  0.0129  0.3310  0.3710
  605MOL0     O81576   1.668   9.007   8.608  0.7020 -0.1119  0.1472
  605MOL0     C81577   1.597   8.895   8.549  0.4392  0.3523  0.0542
  605MOL0     C81578   1.513   8.827   8.660  0.5312  0.0362  1.1936
  605MOL0     C81579   1.398   8.734   8.614 -0.3627 -0.2664 -0.1865
  605MOL0     C81580   1.450   8.612   8.532  0.9019 -1.1399 -0.2616
  605MOL0     C81581   1.329   8.537   8.463 -0.8719  0.3762  0.6178
  605MOL0     C81582   1.376   8.434   8.365 -0.1605  0.3384  0.1204
  605MOL0     C81583   1.256   8.354   8.309 -0.7355 -0.2032  0.4784
  605MOL0     C81584   1.297   8.248   8.202 -0.5395 -0.3860  0.0951
  605MOL0    Cl81585   1.155   8.166   8.138 -0.1521 -0.5163 -0.5173
  605MOL0     C81586   1.855   9.090   8.725 -0.5844  0.4191  0.5083
  605MOL0     C81587   1.982   9.075   8.787 -0.1224 -0.3098  0.1263
  605MOL0     O81588   2.251   8.969   8.645  0.8605 -0.5096  0.1417
  605MOL0     C81589   2.436   8.910   8.937 -0.3892  0.1464  0.4647
  605MOL0     C81590   2.571   8.876   8.970  0.2938 -0.2527 -1.0003
  605MOL0     N81591   3.292   9.352   8.910  0.5696 -0.0480  0.7314
  605MOL0     N81592   3.358   9.459   8.907 -0.4258 -1.0113 -0.2123
  605MOL0     C81593   4.325   9.356   9.313  1.4283  0.1683 -0.3996
  605MOL0     C81594   4.455   9.348   9.272 -0.3524 -0.7122  0.1378
  605MOL0     C81595   4.800   9.208   9.012  0.4127  0.1990 -0.5422
  605MOL0     C81596   4.891   9.143   9.094 -0.1521 -0.4155 -0.3062
  605MOL0     C81597   5.027   9.148   9.070 -0.0968  0.7077  0.1698
  605MOL0     C81598   5.082   9.220   8.968  0.6227  0.2705  0.2700
  605MOL0     O81599   5.218   9.205   8.935  0.6649  0.1378  0.3756
  605MOL0     C81600   5.267   9.286   8.829  0.2041 -0.0371 -0.0774
  605MOL0     C81601   5.422   9.292   8.845  0.1351  0.2785  0.5590
  605MOL0     C81602   5.491   9.387   8.739 -0.3337  0.6925 -0.3216
  605MOL0     C81603   5.636   9.406   8.769 -0.6823  0.0777 -0.0272
  605MOL0     C81604   5.641   9.524   8.861  0.0630 -0.0263  0.4645
  605MOL0     C81605   5.638   9.626   8.928  0.4770  0.9032  0.0883
  605MOL0     C81606   4.983   9.285   8.883 -0.3042  1.3607 -0.6993
  605MOL0     C81607   4.846   9.287   8.908  0.5291 -0.0371 -0.0289
  605MOL0     H81608   4.438   9.047   9.114  1.0367  1.1839 -2.1894
  605MOL0     H81609   4.212   9.061   9.203  0.8030 -0.9464 -0.3720
  605MOL0     H81610   4.094   9.426   9.468  0.8343  3.8432 -1.7436
  605MOL0     H81611   4.069   9.461   9.299 -1.7890  1.9403  2.1669
  605MOL0     H81612   3.871   9.274   9.346 -0.7073  0.1151  0.1128
  605MOL0     H81613   3.880   9.370   9.505 -2.8318 -1.6228 -1.0022
  605MOL0     H81614   3.855   9.581   9.366  0.9077  1.0536 -0.4836
  605MOL0     H81615   3.841   9.471   9.226  1.9354 -3.4932  1.0852
  605MOL0     H81616   3.636   9.369   9.290 -1.0700 -1.9286  2.6612
  605MOL0     H81617   3.673   9.416   9.459  1.6472 -1.9201 -0.3278
  605MOL0     H81618   3.477   9.528   9.380  0.4048 -2.1189  0.4258
  605MOL0     H81619   3.602   9.652   9.389 -1.7740  0.1827  0.0892
  605MOL0     H81620   3.635   9.641   9.146  0.6064  2.5568  2.8058
  605MOL0     H81621   3.535   9.490   9.136  3.7816 -1.8527  1.2416
  605MOL0     H81622   3.342   9.640   9.230  1.1325 -1.7065  0.7130
  605MOL0     H81623   3.453   9.769   9.192  0.6438 -0.1062  3.1051
  605MOL0     H81624   3.447   9.695   8.950 -1.3746  0.3649 -1.0481
  605MOL0     H81625   3.300   9.762   9.021 -1.3204  0.8351  0.9972
  605MOL0     H81626   3.134   9.541   9.135  0.1403  1.3997  0.9070
  605MOL0     H81627   3.163   9.182   9.084  0.5672  0.0768 -1.1152
  605MOL0     H81628   3.042   9.299   9.133 -1.7946 -0.8420  0.0441
  605MOL0     H81629   3.057   9.236   8.825  0.2786 -1.8087  0.3202
  605MOL0     H81630   2.921   9.271   8.929 -0.5571  0.5490 -1.8163
  605MOL0     H81631   3.078   9.006   8.939 -1.1691 -0.3418  1.0971
  605MOL0     H81632   2.946   9.047   8.813 -3.8497 -2.1611  1.0316
  605MOL0     H81633   2.825   9.100   9.034  1.1543  0.9839 -0.0962
  605MOL0     H81634   2.926   8.987   9.105 -0.9710  1.5659  0.8983
  605MOL0     H81635   2.740   9.046   8.730  1.4455  0.1648  0.0886
  605MOL0     H81636   2.476   9.073   8.539 -2.1203  1.4181  0.1204
  605MOL0     H81637   2.430   9.205   8.651 -0.1765 -1.1869  1.4903
  605MOL0     H81638   2.601   9.167   8.599  0.1674 -2.6734 -1.3354
  605MOL0     H81639   2.008   8.746   8.785 -0.2027 -0.8573  0.8061
  605MOL0     H81640   1.813   8.771   8.652  1.9620  0.2158 -2.7252
  605MOL0     H81641   1.516   8.940   8.492  0.1400  2.7789  2.1881
  605MOL0     H81642   1.664   8.827   8.495 -0.8622 -0.8971 -0.0531
  605MOL0     H81643   1.585   8.769   8.719  0.3081 -3.6200 -1.7718
  605MOL0     H81644   1.465   8.904   8.722 -1.3809 -0.0726 -0.0801
  605MOL0     H81645   1.321   8.791   8.562  2.2187  1.3902 -2.4967
  605MOL0     H81646   1.358   8.694   8.708  2.1909 -1.5377  0.4435
  605MOL0     H81647   1.503   8.651   8.444 -0.1536  0.2205 -0.3428
  605MOL0     H81648   1.517   8.555   8.596  1.6693  3.0559  3.1963
  605MOL0     H81649   1.270   8.617   8.417  0.3610  1.1356  0.3111
  605MOL0     H81650   1.262   8.484   8.532 -2.6411  2.0225  0.2552
  605MOL0     H81651   1.419   8.478   8.274 -1.2088 -2.3470 -1.8235
  605MOL0     H81652   1.451   8.371   8.412  1.3355  1.0455 -1.2074
  605MOL0     H81653   1.191   8.433   8.271  1.8778  1.3107 -1.1172
  605MOL0     H81654   1.225   8.292   8.394  2.4351 -1.3684  0.8940
  605MOL0     H81655   1.360   8.173   8.251  0.5076  0.4901  0.1247
  605MOL0     H81656   1.358   8.292   8.123 -0.4631  1.3457  1.0779
  605MOL0     H81657   1.819   9.191   8.707  0.7555  0.4602 -2.6487
  605MOL0     H81658   2.040   9.163   8.815  2.3316 -1.8016 -0.0563
  605MOL0     H81659   2.356   8.864   8.995 -0.0502  0.7325  1.4149
  605MOL0     H81660   2.601   8.822   9.059 -1.1910 -0.6175 -0.6995
  605MOL0     H81661   4.298   9.437   9.380 -1.8251  0.7063 -2.1477
  605MOL0     H81662   4.532   9.420   9.295 -1.1287  0.6951 -1.4763
  605MOL0     H81663   4.849   9.077   9.169  0.9447 -0.0464  0.6594
  605MOL0     H81664   5.082   9.082   9.137 -2.3378 -0.0915  1.3229
  605MOL0     H81665   5.244   9.248   8.729 -0.0916 -0.1037  0.0156
  605MOL0     H81666   5.232   9.389   8.837 -0.1529 -0.3126  2.8425
  605MOL0     H81667   5.474   9.200   8.817 -0.4881 -0.0668  0.5415
  605MOL0     H81668   5.447   9.324   8.947  1.3181  4.7418 -0.8729
  605MOL0     H81669   5.429   9.475   8.722 -0.0771  0.4993 -2.4522
  605MOL0     H81670   5.500   9.344   8.639  0.4584  0.6416 -0.2374
  605MOL0     H81671   5.693   9.435   8.680  1.5915 -2.6017  0.4127
  605MOL0     H81672   5.690   9.317   8.802 -4.3392 -2.1442  0.5827
  605MOL0     H81673   5.638   9.723   8.973  1.3337  2.5056 -3.0529
  605MOL0     H81674   5.018   9.355   8.808  1.9302  0.6303 -0.4230
  605MOL0     H81675   4.789   9.351   8.842  1.3739  0.5270 -0.2314
  606MOL0     O81676   8.566   0.708   5.869 -0.5402 -0.0954  0.9890
  606MOL0     C81677   8.448   0.677   5.848  0.6920 -0.8879  0.2186
  606MOL0     O81678   8.365   0.728   5.750 -0.4071 -0.3905 -0.1435
  606MOL0     C81679   8.394   0.832   5.670 -0.8665 -0.3939  0.4390
  606MOL0     C81680   8.500   0.928   5.694  0.9363 -1.3517  0.1027
  606MOL0     C81681   8.504   1.035   5.598 -0.0517  0.1587  0.5198
  606MOL0     C81682   8.425   1.042   5.479 -0.0140  0.2477 -0.2424
  606MOL0     O81683   8.448   1.133   5.375  0.6405  0.7752  0.0881
  606MOL0     C81684   8.568   1.193   5.364  0.3916 -0.1704 -0.0269
  606MOL0     C81685   8.590   1.249   5.230 -0.1924  1.1573  0.1494
  606MOL0     C81686   8.516   1.385   5.210 -0.3847 -0.5595 -0.5281
  606MOL0     C81687   8.380   1.367   5.141 -0.5097  0.6260 -0.0977
  606MOL0     C81688   8.310   1.497   5.110 -0.0011 -0.0680 -0.2185
  606MOL0     C81689   8.167   1.482   5.065  0.0411  0.2580 -1.2473
  606MOL0     C81690   8.118   1.620   5.022  0.0849  0.0191  0.3150
  606MOL0     C81691   7.974   1.627   4.978  0.3168  0.0952  1.2949
  606MOL0     N81692   7.937   1.749   4.915  0.0541 -0.4282  0.3948
  606MOL0     C81693   7.852   1.770   4.809 -0.4077 -0.9745 -0.4330
  606MOL0     C81694   7.832   1.907   4.807  0.5580  0.2039 -0.2689
  606MOL0     C81695   7.743   1.991   4.712  0.3383  0.4140  0.7996
  606MOL0     C81696   7.597   1.999   4.760 -0.9203 -0.0290 -0.2366
  606MOL0     C81697   7.566   2.103   4.870 -0.2405 -0.2590  0.7219
  606MOL0     C81698   7.417   2.106   4.909 -0.9026 -0.3447 -0.4118
  606MOL0     O81699   7.334   2.173   4.818 -0.7955 -0.7040  0.5462
  606MOL0     C81700   7.202   2.193   4.848  0.0606 -0.9776  0.8247
  606MOL0     C81701   7.121   2.241   4.746  0.7278 -0.5193  0.0902
  606MOL0     C81702   6.990   2.274   4.758 -0.0070 -0.7368  0.1880
  606MOL0     C81703   6.928   2.361   4.645  0.7673 -0.5467 -0.3871
  606MOL0     C81704   6.924   2.251   4.874  0.1511  0.2808 -0.7887
  606MOL0     C81705   6.782   2.278   4.903 -0.2673 -0.5458  0.0240
  606MOL0     O81706   6.729   2.248   5.033  0.1696  0.6241 -0.0107
  606MOL0     C81707   6.587   2.240   5.038  0.3799  0.3673 -0.3348
  606MOL0     C81708   6.516   2.121   5.070  1.3794  0.5525 -0.8102
  606MOL0     C81709   6.371   2.121   5.081 -0.1351 -0.2315  0.2364
  606MOL0     C81710   6.299   2.234   5.057 -0.2682  0.0026 -0.5563
  606MOL0     O81711   6.160   2.230   5.051 -0.6266 -0.1159  0.6363
  606MOL0     C81712   6.095   2.334   5.128 -0.3831 -0.1939 -0.0702
  606MOL0     C81713   5.947   2.318   5.113 -0.7199 -0.2681  0.3586
  606MOL0     C81714   5.865   2.382   5.230 -0.6651 -0.3826  0.1028
  606MOL0     C81715   5.710   2.388   5.201 -0.3844 -0.5049 -0.5849
  606MOL0     C81716   5.660   2.483   5.311 -0.1974 -0.2867 -0.2080
  606MOL0     C81717   5.504   2.475   5.326  0.4437  0.1774  0.2291
  606MOL0     C81718   5.438   2.584   5.240 -0.3924  0.7616 -0.4003
  606MOL0     C81719   5.291   2.610   5.281  0.3248  0.0613 -0.9477
  606MOL0    Cl81720   5.191   2.468   5.287  0.4821 -0.0923 -0.7612
  606MOL0     C81721   6.368   2.354   5.048 -0.4175  0.4423  0.1518
  606MOL0     C81722   6.506   2.355   5.034 -0.0117  0.1956  0.4776
  606MOL0     O81723   6.712   2.313   4.809  0.3344  0.8384 -0.0785
  606MOL0     C81724   6.994   2.207   4.979 -0.4969  0.2343 -0.8363
  606MOL0     C81725   7.128   2.173   4.967  0.7354  0.3204  0.2958
  606MOL0     N81726   7.904   1.961   4.918 -0.0399  0.1073 -0.4950
  606MOL0     N81727   7.959   1.865   4.984 -0.3338 -0.4723  0.5490
  606MOL0     C81728   8.327   0.950   5.472  0.9596  0.3214  0.3834
  606MOL0     C81729   8.308   0.843   5.555  0.5879  0.4022 -0.2803
  606MOL0     C81730   8.363   0.589   5.942  0.0249  0.4779 -0.1405
  606MOL0     C81731   8.221   0.588   5.925  0.3031  0.0737 -0.7732
  606MOL0     C81732   8.140   0.509   6.006  0.5997  0.0784 -0.2120
  606MOL0     C81733   8.202   0.435   6.106 -0.2092  1.1732  0.4383
  606MOL0     O81734   8.110   0.356   6.172 -0.6245  0.6638  0.1569
  606MOL0     C81735   8.168   0.291   6.291  0.5411 -0.0659  0.2322
  606MOL0     C81736   8.049   0.254   6.381  0.4964  0.1860  0.2961
  606MOL0     C81737   7.997   0.360   6.482 -0.3442 -0.4965  0.7152
  606MOL0     C81738   7.891   0.310   6.584 -0.3547  0.4710 -0.1027
  606MOL0     C81739   7.756   0.307   6.529 -0.5403  0.2297 -0.5948
  606MOL0     C81740   7.644   0.314   6.486 -0.2639 -0.8880  0.0286
  606MOL0     C81741   8.342   0.455   6.130 -0.1168 -0.6712  0.3752
  606MOL0     C81742   8.426   0.527   6.049 -0.0034 -0.5068 -0.1749
  606MOL0     H81743   8.565   0.930   5.782  0.4982  0.3484  0.4266
  606MOL0     H81744   8.576   1.114   5.615 -1.1243  1.5211 -0.9000
  606MOL0     H81745   8.581   1.278   5.432 -3.1367  1.2765 -0.9392
  606MOL0     H81746   8.649   1.121   5.376 -0.2983 -1.0676 -0.6236
  606MOL0     H81747   8.696   1.265   5.207 -0.2269  1.6791  0.3387
  606MOL0     H81748   8.552   1.176   5.157  5.1707  1.4293 -3.4650
  606MOL0     H81749   8.511   1.446   5.301 -0.3828 -2.1262  0.5546
  606MOL0     H81750   8.567   1.450   5.138 -0.6807  0.3287  0.0544
  606MOL0     H81751   8.407   1.306   5.054  0.9578 -1.5716  1.7716
  606MOL0     H81752   8.312   1.310   5.206  0.3573  1.4512  1.6101
  606MOL0     H81753   8.313   1.557   5.202 -2.0040 -1.7023  1.0069
  606MOL0     H81754   8.363   1.546   5.028  0.5908 -2.1619 -1.1426
  606MOL0     H81755   8.160   1.410   4.983 -2.1214  1.4517 -2.2088
  606MOL0     H81756   8.109   1.438   5.147  2.3585 -0.3713  0.1236
  606MOL0     H81757   8.129   1.693   5.104  0.9497  3.2658 -2.4509
  606MOL0     H81758   8.179   1.651   4.937  2.3938 -1.9332  1.1162
  606MOL0     H81759   7.908   1.615   5.065 -0.9793  1.3737  0.5211
  606MOL0     H81760   7.962   1.542   4.911  0.1745  0.4207  0.9085
  606MOL0     H81761   7.814   1.694   4.741 -2.0119  0.1266 -0.8438
  606MOL0     H81762   7.795   2.086   4.696  1.4564 -0.5743 -2.0743
  606MOL0     H81763   7.733   1.949   4.612 -0.0261  1.1116  0.5413
  606MOL0     H81764   7.566   1.897   4.785 -0.6753 -0.9239 -3.2287
  606MOL0     H81765   7.535   2.025   4.673  1.2246  1.2293 -1.4645
  606MOL0     H81766   7.595   2.205   4.842 -2.2391  0.0396 -0.4422
  606MOL0     H81767   7.605   2.067   4.966 -1.2003 -0.1812  1.1564
  606MOL0     H81768   7.413   2.172   4.996  0.9929 -0.6868 -0.0177
  606MOL0     H81769   7.383   2.004   4.925 -0.8179 -0.3613 -0.3363
  606MOL0     H81770   7.171   2.267   4.653 -0.7615  2.6128  0.0486
  606MOL0     H81771   6.832   2.324   4.607  0.9355  0.2767 -1.6839
  606MOL0     H81772   6.923   2.467   4.672 -0.3080 -0.2393 -1.6591
  606MOL0     H81773   7.002   2.356   4.564 -0.5360 -0.0133 -1.6414
  606MOL0     H81774   6.568   2.032   5.103 -0.2805  0.4297  1.7603
  606MOL0     H81775   6.311   2.039   5.120 -1.4270  1.3540  1.7178
  606MOL0     H81776   6.137   2.319   5.228  2.5320  0.1966 -1.1264
  606MOL0     H81777   6.123   2.432   5.086  0.3328 -0.6558 -0.7095
  606MOL0     H81778   5.911   2.355   5.016 -0.6572  1.6940  1.0360
  606MOL0     H81779   5.926   2.211   5.124 -0.3097 -0.7091 -2.3006
  606MOL0     H81780   5.900   2.478   5.268 -0.8640 -0.4928  0.5726
  606MOL0     H81781   5.885   2.313   5.313  4.6815  1.0707  0.4094
  606MOL0     H81782   5.684   2.422   5.100  1.0617  1.1069 -0.4664
  606MOL0     H81783   5.667   2.288   5.214  0.4900 -1.0135 -1.3957
  606MOL0     H81784   5.697   2.583   5.286  1.2902 -0.4733  1.1304
  606MOL0     H81785   5.699   2.452   5.408 -1.8259  0.3929  0.6983
  606MOL0     H81786   5.456   2.381   5.295 -3.8185  2.2663 -0.3244
  606MOL0     H81787   5.465   2.500   5.425 -1.9657 -1.3207 -0.2380
  606MOL0     H81788   5.437   2.554   5.134 -1.7900  0.1511 -0.2353
  606MOL0     H81789   5.495   2.677   5.238 -0.7642  1.1116  2.0696
  606MOL0     H81790   5.246   2.672   5.202  0.8533  0.5602 -0.8663
  606MOL0     H81791   5.288   2.658   5.379  0.8086  0.2497 -1.0245
  606MOL0     H81792   6.303   2.440   5.034 -2.2633 -1.2129 -2.2808
  606MOL0     H81793   6.559   2.446   5.009  0.1034 -0.2929 -1.1969
  606MOL0     H81794   6.953   2.185   5.077  3.0303  1.0753  1.0122
  606MOL0     H81795   7.171   2.130   5.056  1.3197 -1.0016 -0.5925
  606MOL0     H81796   8.262   0.969   5.388  0.3401  4.7163  1.6179
  606MOL0     H81797   8.233   0.766   5.541  0.7243  0.0635  0.7154
  606MOL0     H81798   8.176   0.655   5.854  1.5899  1.6336 -0.1721
  606MOL0     H81799   8.032   0.502   5.999  0.7385 -1.1739 -1.6146
  606MOL0     H81800   8.210   0.197   6.254 -1.0198 -0.5639 -0.3604
  606MOL0     H81801   8.228   0.363   6.347 -1.7319  1.8755  0.3290
  606MOL0     H81802   8.085   0.165   6.433  1.6836  1.4538  1.7307
  606MOL0     H81803   7.959   0.231   6.322 -0.3252 -0.6926  1.8394
  606MOL0     H81804   7.965   0.451   6.430  0.7494 -0.3310  0.3143
  606MOL0     H81805   8.085   0.391   6.538 -0.8921  4.1090 -0.5559
  606MOL0     H81806   7.894   0.363   6.679 -0.0290 -0.8762  0.6722
  606MOL0     H81807   7.918   0.206   6.605 -0.0119  0.2815 -1.3814
  606MOL0     H81808   7.540   0.309   6.461 -0.3201  2.3675 -0.7660
  606MOL0     H81809   8.395   0.406   6.211 -0.3021 -2.3703 -0.4718
  606MOL0     H81810   8.526   0.555   6.079 -0.6760  2.2617 -0.2147
  607MOL0     O81811   4.997   3.513   0.616 -0.2809  0.5041  0.3510
  607MOL0     C81812   5.002   3.501   0.741  0.0863 -0.0923  0.7322
  607MOL0     O81813   4.901   3.445   0.816  0.6711  0.4884  0.5053
  607MOL0     C81814   4.792   3.412   0.746  0.6895 -0.0414 -0.2887
  607MOL0     C81815   4.774   3.289   0.685 -1.0675  0.4587 -1.1263
  607MOL0     C81816   4.665   3.268   0.606  0.9475  0.5578  0.2579
  607MOL0     C81817   4.561   3.361   0.599  1.1012  0.1554 -0.6702
  607MOL0     O81818   4.450   3.342   0.520 -1.1031  0.1607 -0.2563
  607MOL0     C81819   4.350   3.259   0.576  0.3293 -0.0094  0.1017
  607MOL0     C81820   4.228   3.355   0.565  0.1447 -0.0597 -0.6083
  607MOL0     C81821   4.087   3.304   0.603  0.0586  0.2633 -0.5430
  607MOL0     C81822   4.042   3.209   0.492 -0.0535 -0.5019 -0.4351
  607MOL0     C81823   3.906   3.140   0.523  0.2233  0.8966 -0.0494
  607MOL0     C81824   3.781   3.226   0.526 -0.9573  0.4507 -0.3160
  607MOL0     C81825   3.670   3.134   0.497  0.2697  1.1654  0.2463
  607MOL0     C81826   3.619   3.146   0.351 -0.0335 -0.4180  0.3687
  607MOL0     N81827   3.527   3.045   0.291  0.3117  0.9123  0.1234
  607MOL0     C81828   3.503   2.914   0.328  0.1310 -0.1399 -0.0711
  607MOL0     C81829   3.418   2.863   0.243 -0.0614  0.2442  0.2784
  607MOL0     C81830   3.352   2.729   0.259  0.2095 -0.4330  0.5065
  607MOL0     C81831   3.222   2.764   0.328  0.4476  0.4753 -0.0067
  607MOL0     C81832   3.143   2.633   0.351 -1.1145  0.7992  0.8080
  607MOL0     C81833   3.024   2.654   0.441  0.4671  0.3266  0.9825
  607MOL0     O81834   2.916   2.738   0.398  0.3774 -0.5940 -0.0058
  607MOL0     C81835   2.801   2.759   0.467  0.0182 -0.5804 -0.0950
  607MOL0     C81836   2.750   2.672   0.561  0.4895  0.5230 -0.1318
  607MOL0     C81837   2.627   2.700   0.633 -0.4353  0.5914 -0.4556
  607MOL0     C81838   2.576   2.598   0.739 -0.0235  0.0261  0.0466
  607MOL0     C81839   2.549   2.816   0.600  0.1566 -0.1693 -0.2430
  607MOL0     C81840   2.418   2.849   0.655 -0.5268  0.0327  0.1800
  607MOL0     O81841   2.329   2.895   0.565  0.7062 -0.0661 -0.4874
  607MOL0     C81842   2.196   2.891   0.600 -0.2177  0.2773  0.0786
  607MOL0     C81843   2.133   2.982   0.682 -0.7972 -0.4133  0.5110
  607MOL0     C81844   2.008   2.955   0.727 -0.8861 -0.3199  0.8772
  607MOL0     C81845   1.941   2.845   0.678 -0.0602 -0.1508 -0.0507
  607MOL0     O81846   1.802   2.828   0.698 -0.0185 -0.3328 -0.0663
  607MOL0     C81847   1.714   2.948   0.718  0.4632  0.1002 -0.9651
  607MOL0     C81848   1.574   2.902   0.660 -1.0141  0.1596 -0.2295
  607MOL0     C81849   1.464   3.004   0.668 -0.0737  0.3577  0.3117
  607MOL0     C81850   1.395   3.014   0.802  0.9980  0.2852  0.0509
  607MOL0     C81851   1.302   3.132   0.824  0.2127  0.1037  0.2359
  607MOL0     C81852   1.187   3.151   0.719  0.5131  0.4696 -0.8324
  607MOL0     C81853   1.084   3.256   0.764  0.8595  0.3896 -0.8124
  607MOL0     C81854   0.989   3.278   0.649 -0.2192 -0.7581  1.1092
  607MOL0    Cl81855   0.857   3.395   0.685 -0.0551  0.1115 -0.1001
  607MOL0     C81856   1.997   2.754   0.585  0.3113 -0.8638 -0.1866
  607MOL0     C81857   2.127   2.782   0.545 -0.3146 -0.1250 -0.2427
  607MOL0     O81858   2.396   2.826   0.772  0.0684 -0.0423  0.3771
  607MOL0     C81859   2.605   2.888   0.490 -0.2924 -0.2339 -0.5311
  607MOL0     C81860   2.728   2.871   0.430 -0.1126  0.7259  1.0713
  607MOL0     N81861   3.384   2.959   0.153 -0.5016  0.1535 -0.4651
  607MOL0     N81862   3.458   3.064   0.176 -1.0500  0.0938 -0.9386
  607MOL0     C81863   4.575   3.484   0.667 -0.3163 -0.5623  0.1086
  607MOL0     C81864   4.690   3.511   0.733 -0.4666  0.2364  0.7923
  607MOL0     C81865   5.109   3.581   0.812 -0.5357 -0.0599  0.3824
  607MOL0     C81866   5.210   3.654   0.746 -0.0962 -0.0469 -0.4586
  607MOL0     C81867   5.293   3.729   0.830 -0.3450  0.1554  0.3629
  607MOL0     C81868   5.287   3.736   0.968 -0.7466  0.3865 -0.8200
  607MOL0     O81869   5.382   3.821   1.028  0.3847 -0.3176  0.0762
  607MOL0     C81870   5.368   3.854   1.165  0.1475  0.0609  0.2541
  607MOL0     C81871   5.443   3.750   1.247  0.3801  0.3730  0.1036
  607MOL0     C81872   5.593   3.742   1.228  0.2956  0.0563 -0.5397
  607MOL0     C81873   5.631   3.650   1.351 -0.4902 -0.0661 -0.9960
  607MOL0     C81874   5.773   3.631   1.359  0.0560  0.6809 -0.2008
  607MOL0     C81875   5.897   3.632   1.349 -0.4390 -0.0969 -0.6198
  607MOL0     C81876   5.192   3.659   1.030 -0.3146 -0.8383  0.3689
  607MOL0     C81877   5.104   3.583   0.949 -0.6546  0.5793 -0.7404
  607MOL0     H81878   4.852   3.214   0.680 -0.6071  0.9098 -0.8740
  607MOL0     H81879   4.658   3.183   0.540  1.3525 -0.3504  1.3519
  607MOL0     H81880   4.339   3.165   0.521 -0.3167 -1.0853  1.9560
  607MOL0     H81881   4.374   3.231   0.679  0.5122 -2.8227 -0.5983
  607MOL0     H81882   4.246   3.438   0.634  1.1891  0.2541 -1.2271
  607MOL0     H81883   4.213   3.393   0.463  0.2928  0.6208 -0.3788
  607MOL0     H81884   4.105   3.237   0.689  0.2947 -1.2816 -1.7417
  607MOL0     H81885   4.014   3.381   0.627  0.3357  0.8143 -1.4595
  607MOL0     H81886   4.033   3.264   0.398 -1.3039 -0.5771 -0.3662
  607MOL0     H81887   4.110   3.125   0.472 -1.2292 -1.2404 -1.4985
  607MOL0     H81888   3.894   3.064   0.445 -1.0903  0.2459  0.7445
  607MOL0     H81889   3.919   3.073   0.608  3.1315 -0.9392 -1.7595
  607MOL0     H81890   3.776   3.284   0.619  1.4678  1.4427 -0.7349
  607MOL0     H81891   3.798   3.303   0.450  3.9161 -0.0238 -0.0485
  607MOL0     H81892   3.708   3.035   0.524  3.0254  2.0357 -0.1764
  607MOL0     H81893   3.583   3.152   0.562  0.3399  1.8764  0.1543
  607MOL0     H81894   3.701   3.150   0.279 -0.4851  0.3062 -0.1185
  607MOL0     H81895   3.578   3.247   0.345 -0.6224 -0.5267  2.0132
  607MOL0     H81896   3.548   2.874   0.419  1.7751  1.1821 -0.2473
  607MOL0     H81897   3.318   2.695   0.161 -0.9371  3.4818 -0.6113
  607MOL0     H81898   3.413   2.655   0.311  0.0077 -0.1196  1.1927
  607MOL0     H81899   3.163   2.828   0.262  0.3496  1.5690  1.0961
  607MOL0     H81900   3.243   2.814   0.424 -0.0136  1.5647 -0.4569
  607MOL0     H81901   3.201   2.547   0.387 -1.2159 -0.3676 -1.5969
  607MOL0     H81902   3.105   2.597   0.255  0.5119  2.5099 -0.5678
  607MOL0     H81903   3.047   2.684   0.543  0.2962  1.6666  0.6420
  607MOL0     H81904   2.980   2.556   0.463 -2.2068  1.0925 -0.4300
  607MOL0     H81905   2.795   2.575   0.580 -1.3303 -0.6948 -1.6273
  607MOL0     H81906   2.478   2.561   0.708 -1.9868  3.0891  2.0042
  607MOL0     H81907   2.640   2.511   0.755  1.1616  0.1371 -3.2877
  607MOL0     H81908   2.552   2.652   0.831 -1.9375 -0.4664 -0.1232
  607MOL0     H81909   2.196   3.066   0.708 -1.8398  0.4789  0.2585
  607MOL0     H81910   1.947   3.018   0.791 -2.9667 -0.5901 -0.7349
  607MOL0     H81911   1.710   2.970   0.826  1.9821  0.1533 -0.9011
  607MOL0     H81912   1.749   3.039   0.670 -1.1997  0.4845 -1.5226
  607MOL0     H81913   1.594   2.879   0.555  2.2935  1.9479 -0.1148
  607MOL0     H81914   1.539   2.808   0.706  0.5667 -1.4521 -2.1339
  607MOL0     H81915   1.395   2.981   0.586  1.3714 -1.1776 -0.5360
  607MOL0     H81916   1.503   3.105   0.649 -1.9715  0.7227 -2.1057
  607MOL0     H81917   1.340   2.920   0.813  2.7904 -0.8090  0.0997
  607MOL0     H81918   1.474   3.026   0.877 -0.9656  3.8430  1.7987
  607MOL0     H81919   1.356   3.225   0.841  0.0420  0.0347  1.2016
  607MOL0     H81920   1.254   3.114   0.921  0.0724  2.0029  0.5643
  607MOL0     H81921   1.231   3.188   0.626  2.4141 -1.9181 -0.9656
  607MOL0     H81922   1.145   3.052   0.697  1.7928 -0.4375  0.6409
  607MOL0     H81923   1.144   3.344   0.789  1.3791 -0.2273  0.1820
  607MOL0     H81924   1.026   3.224   0.851 -0.5356  1.1275 -1.4331
  607MOL0     H81925   0.939   3.183   0.629 -2.1115  0.2873  0.5627
  607MOL0     H81926   1.054   3.305   0.566 -0.7727 -1.8663  0.2958
  607MOL0     H81927   1.938   2.680   0.533  1.6935 -1.6578 -0.6875
  607MOL0     H81928   2.183   2.715   0.482  0.6763  1.1163 -0.7400
  607MOL0     H81929   2.553   2.975   0.451 -0.5967 -0.3013 -0.2718
  607MOL0     H81930   2.764   2.939   0.354  0.5549  0.5703  1.2428
  607MOL0     H81931   4.506   3.566   0.649  1.8118  1.5411  0.9778
  607MOL0     H81932   4.700   3.607   0.781 -1.3512  0.1613  1.1519
  607MOL0     H81933   5.219   3.655   0.638 -0.4028  1.6228 -0.4958
  607MOL0     H81934   5.373   3.782   0.778  0.1967 -2.4092 -1.6519
  607MOL0     H81935   5.408   3.955   1.180  0.3091  0.0800 -0.2944
  607MOL0     H81936   5.266   3.860   1.204  0.5041 -2.7168  1.9026
  607MOL0     H81937   5.404   3.649   1.234 -1.2445  0.7160  1.7313
  607MOL0     H81938   5.412   3.774   1.350  0.2772 -0.6628  0.3263
  607MOL0     H81939   5.632   3.842   1.244 -1.0078  0.6515 -0.9635
  607MOL0     H81940   5.617   3.689   1.136 -2.2089  0.4492 -1.4893
  607MOL0     H81941   5.587   3.550   1.346  0.3028 -0.5031  0.1339
  607MOL0     H81942   5.602   3.694   1.447  1.6765 -2.4937  0.9477
  607MOL0     H81943   6.002   3.636   1.331 -0.4387  0.4736 -0.4887
  607MOL0     H81944   5.187   3.650   1.138  2.9879 -1.4124  0.5692
  607MOL0     H81945   5.023   3.523   0.991 -0.7365  0.9973 -0.2895
  608MOL0     O81946   8.180   1.168   6.683 -0.4076  0.1928  1.2830
  608MOL0     C81947   8.251   1.147   6.781 -0.0862  0.5824 -0.2256
  608MOL0     O81948   8.198   1.101   6.908 -0.6721 -0.2469 -0.0163
  608MOL0     C81949   8.064   1.108   6.936 -0.6421 -0.4436 -0.9517
  608MOL0     C81950   7.981   1.214   6.887 -0.3688  0.2332  0.0480
  608MOL0     C81951   7.842   1.212   6.901 -0.4042 -0.3065 -0.1187
  608MOL0     C81952   7.783   1.117   6.992 -0.1175 -0.6179 -0.1571
  608MOL0     O81953   7.642   1.109   7.007 -0.0993 -0.0695 -0.0882
  608MOL0     C81954   7.580   1.023   7.107 -0.6373 -0.0807  0.7318
  608MOL0     C81955   7.424   1.018   7.108  0.1362  0.4482  0.5767
  608MOL0     C81956   7.348   1.029   6.973 -0.1236  0.2396  1.2917
  608MOL0     C81957   7.193   1.007   7.007 -0.6155  0.8360  0.8814
  608MOL0     C81958   7.094   1.035   6.894  0.0264 -0.4808  0.1196
  608MOL0     C81959   7.111   0.931   6.782  0.1862 -1.0179 -0.5839
  608MOL0     C81960   7.079   0.790   6.822  1.1953  0.3076 -0.0411
  608MOL0     C81961   7.028   0.708   6.696  0.2283 -0.1595 -0.2662
  608MOL0     N81962   6.885   0.741   6.647 -0.7680  0.5714 -0.4922
  608MOL0     C81963   6.860   0.815   6.531  0.0469  0.3239  0.2519
  608MOL0     C81964   6.725   0.795   6.518  0.0512 -0.7347 -0.7598
  608MOL0     C81965   6.635   0.842   6.402 -0.0534  0.6836 -0.2943
  608MOL0     C81966   6.482   0.836   6.430  0.6482 -0.4766  0.6208
  608MOL0     C81967   6.419   0.903   6.551  0.1019 -0.4720  0.2049
  608MOL0     C81968   6.344   0.804   6.649  0.3440  0.1851  0.9322
  608MOL0     O81969   6.257   0.717   6.581 -0.2397  0.2685 -0.0392
  608MOL0     C81970   6.128   0.745   6.562 -0.7151  0.5508  0.4904
  608MOL0     C81971   6.053   0.651   6.483  0.0007  0.7163 -0.8404
  608MOL0     C81972   5.919   0.671   6.447 -0.6833  0.9098 -0.1330
  608MOL0     C81973   5.862   0.556   6.377  1.2200 -0.0974  0.3522
  608MOL0     C81974   5.849   0.776   6.502 -0.8692  0.2666 -1.5136
  608MOL0     C81975   5.705   0.791   6.489  0.1016 -0.5499 -0.5358
  608MOL0     O81976   5.657   0.917   6.532  0.4443  0.2295 -0.5254
  608MOL0     C81977   5.529   0.958   6.497  0.3888 -0.8491 -0.2541
  608MOL0     C81978   5.506   1.050   6.393 -0.7689 -0.0067 -0.5236
  608MOL0     C81979   5.376   1.080   6.355 -0.6726 -0.5982 -0.5072
  608MOL0     C81980   5.266   1.021   6.430 -0.3802  0.4079 -0.2130
  608MOL0     O81981   5.131   1.049   6.384 -0.2581  0.4124 -0.9199
  608MOL0     C81982   5.022   1.016   6.481  0.1090  1.0358  0.4797
  608MOL0     C81983   4.891   1.093   6.444  0.1707 -1.2579 -0.0025
  608MOL0     C81984   4.828   1.145   6.580 -0.6634  0.7924 -0.2734
  608MOL0     C81985   4.772   1.023   6.656  0.9059  0.7115  0.4887
  608MOL0     C81986   4.687   1.057   6.785 -0.1559  0.2282  0.0324
  608MOL0     C81987   4.592   1.177   6.785 -0.3742  0.1201  0.2739
  608MOL0     C81988   4.526   1.206   6.922  0.5123  0.7822  0.0397
  608MOL0     C81989   4.390   1.141   6.913 -0.2589 -0.2139 -0.2153
  608MOL0    Cl81990   4.300   1.157   7.069  0.1133  0.3019 -0.3215
  608MOL0     C81991   5.283   0.923   6.527 -0.9112  0.2912 -0.6543
  608MOL0     C81992   5.422   0.892   6.563 -0.4274 -0.4548 -0.0720
  608MOL0     O81993   5.639   0.714   6.421  0.4455  0.9977  0.8787
  608MOL0     C81994   5.926   0.876   6.569 -0.7703 -0.8862 -0.1568
  608MOL0     C81995   6.061   0.864   6.593  0.1181 -0.0488  0.2418
  608MOL0     N81996   6.677   0.732   6.624  0.5052  0.8469  0.1591
  608MOL0     N81997   6.772   0.686   6.698  0.3126  0.8658 -0.3039
  608MOL0     C81998   7.875   1.026   7.042  0.1089  0.7066 -0.4295
  608MOL0     C81999   8.015   1.010   7.015 -0.6994  0.0261  0.0830
  608MOL0     C82000   8.393   1.177   6.769 -0.0666  0.1579  0.0513
  608MOL0     C82001   8.463   1.224   6.878  0.1683 -0.2994  0.4982
  608MOL0     C82002   8.600   1.248   6.870 -0.2472 -0.4207  0.6853
  608MOL0     C82003   8.667   1.212   6.761 -0.3520  0.2422 -0.1402
  608MOL0     O82004   8.797   1.228   6.759 -1.0139  0.0050 -1.2642
  608MOL0     C82005   8.876   1.202   6.877 -0.1106 -0.0060  0.6091
  608MOL0     C82006   9.023   1.213   6.853 -0.2044  0.5509 -0.4711
  608MOL0     C82007   9.088   1.187   6.989 -0.5052  0.3678  0.3890
  608MOL0     C82008   9.243   1.181   6.964  0.2699 -0.1808  0.4363
  608MOL0     C82009   9.283   1.308   6.913  0.2169 -1.1526  0.1583
  608MOL0     C82010   9.318   1.420   6.878  0.1721  0.5176  0.2747
  608MOL0     C82011   8.603   1.153   6.651 -0.6458 -0.1082  0.1298
  608MOL0     C82012   8.462   1.135   6.653 -0.2922 -0.4131  0.2017
  608MOL0     H82013   8.030   1.301   6.845  1.8392 -1.1656 -0.4414
  608MOL0     H82014   7.781   1.293   6.863 -0.8236  0.4748  2.0382
  608MOL0     H82015   7.616   0.922   7.088  1.1954  1.2695 -4.6954
  608MOL0     H82016   7.621   1.050   7.204  0.8471 -1.4702  0.5357
  608MOL0     H82017   7.398   0.927   7.162 -1.8058 -0.1248 -1.1850
  608MOL0     H82018   7.388   1.103   7.167 -1.3128 -0.6183  1.2826
  608MOL0     H82019   7.373   1.124   6.923 -1.0809 -1.2899 -2.4444
  608MOL0     H82020   7.387   0.954   6.904 -2.7696  0.4865 -0.6037
  608MOL0     H82021   7.176   0.905   7.041  1.1662 -0.1543 -0.9622
  608MOL0     H82022   7.167   1.063   7.097  2.5754  4.1378  0.0203
  608MOL0     H82023   6.989   1.029   6.924 -0.7789  2.7333 -1.6667
  608MOL0     H82024   7.113   1.134   6.854  0.5655 -1.1147 -1.2491
  608MOL0     H82025   7.032   0.958   6.711  1.8871  1.2339 -1.7494
  608MOL0     H82026   7.206   0.927   6.729  0.5974 -3.7803  0.1754
  608MOL0     H82027   7.163   0.739   6.870 -1.0321 -2.5620  1.1300
  608MOL0     H82028   7.003   0.779   6.900  2.8078 -2.1089  1.3297
  608MOL0     H82029   7.019   0.602   6.723 -2.9876  0.0964 -0.0244
  608MOL0     H82030   7.097   0.737   6.616 -0.2784  2.0849  0.0501
  608MOL0     H82031   6.926   0.860   6.458 -0.3241 -1.1308 -1.0499
  608MOL0     H82032   6.660   0.940   6.359 -0.9644  1.1306  0.1743
  608MOL0     H82033   6.651   0.762   6.329  1.8405  1.2188 -0.5083
  608MOL0     H82034   6.448   0.735   6.404 -1.9456  0.9055 -1.8566
  608MOL0     H82035   6.440   0.887   6.343  1.8650  0.1164  0.3501
  608MOL0     H82036   6.351   0.981   6.516  0.9530 -0.4158 -1.4363
  608MOL0     H82037   6.503   0.942   6.610  0.8891 -2.6020  0.5862
  608MOL0     H82038   6.303   0.855   6.736  3.0593 -0.8504  2.9939
  608MOL0     H82039   6.422   0.742   6.694 -0.6463 -1.5344  0.3734
  608MOL0     H82040   6.104   0.560   6.452  1.3936  1.5849 -1.1992
  608MOL0     H82041   5.821   0.591   6.282 -0.0839  1.8172  1.5438
  608MOL0     H82042   5.935   0.475   6.385  1.4953  0.2723  1.9954
  608MOL0     H82043   5.771   0.520   6.426  1.5865 -1.2690  0.2044
  608MOL0     H82044   5.593   1.092   6.344 -0.5214 -1.5579 -1.4718
  608MOL0     H82045   5.346   1.158   6.285 -2.6877  0.1357  1.0762
  608MOL0     H82046   4.996   0.909   6.486 -1.6621  1.4363  0.5773
  608MOL0     H82047   5.046   1.048   6.583 -0.7911  1.7406  0.4790
  608MOL0     H82048   4.918   1.182   6.387  0.2022  0.3808  2.4098
  608MOL0     H82049   4.822   1.042   6.376 -0.5386 -1.2640  0.7055
  608MOL0     H82050   4.746   1.214   6.558 -0.6088  0.4933 -1.4616
  608MOL0     H82051   4.902   1.197   6.643 -0.0418 -1.5632  1.0465
  608MOL0     H82052   4.710   0.961   6.590  0.4176 -1.2129  2.6305
  608MOL0     H82053   4.857   0.961   6.685 -0.2036 -0.8144  0.5737
  608MOL0     H82054   4.759   1.065   6.868 -1.0025 -5.0605  1.6501
  608MOL0     H82055   4.627   0.970   6.811  2.3124 -1.5728  0.0758
  608MOL0     H82056   4.649   1.270   6.778 -1.3858  0.8197  1.1767
  608MOL0     H82057   4.534   1.171   6.692  1.1982 -0.3942 -0.7294
  608MOL0     H82058   4.513   1.314   6.937 -2.7173  0.8329 -2.0267
  608MOL0     H82059   4.583   1.175   7.010  0.3520 -1.8532 -0.6893
  608MOL0     H82060   4.409   1.035   6.892  0.1770 -0.3711  0.9488
  608MOL0     H82061   4.324   1.187   6.838 -2.0032  0.2129  1.4784
  608MOL0     H82062   5.216   0.859   6.583  0.4120  1.2104  2.1725
  608MOL0     H82063   5.459   0.810   6.623 -1.2420  0.6359  2.0311
  608MOL0     H82064   5.880   0.965   6.611 -1.2729 -0.8487 -0.7747
  608MOL0     H82065   6.118   0.946   6.636 -0.3184  0.1373  0.4634
  608MOL0     H82066   7.846   0.937   7.095 -3.0761  0.9628 -1.5595
  608MOL0     H82067   8.086   0.934   7.046 -0.3336 -0.2249 -1.2917
  608MOL0     H82068   8.424   1.252   6.976 -1.8711 -1.6574  0.1278
  608MOL0     H82069   8.648   1.270   6.964 -1.2673 -0.8060  1.3131
  608MOL0     H82070   8.845   1.278   6.949 -0.8770  1.0106 -0.7553
  608MOL0     H82071   8.856   1.101   6.914  1.3119  0.5129  2.9812
  608MOL0     H82072   9.053   1.307   6.806 -2.0279  0.8045 -1.2290
  608MOL0     H82073   9.052   1.133   6.783 -3.2013 -2.3097  1.2931
  608MOL0     H82074   9.050   1.094   7.033 -0.4922 -0.7996 -1.9088
  608MOL0     H82075   9.058   1.260   7.065  1.3185  0.5576  0.9734
  608MOL0     H82076   9.266   1.098   6.896 -0.8577  0.1715 -0.3998
  608MOL0     H82077   9.294   1.164   7.060  0.3994  0.4211  0.4757
  608MOL0     H82078   9.351   1.518   6.848  0.8256  0.6496  1.3728
  608MOL0     H82079   8.669   1.151   6.565 -0.6286 -0.3770  0.1474
  608MOL0     H82080   8.417   1.096   6.562 -2.7318  1.2893  0.5672
  609MOL0     O82081   4.488   2.511   3.561 -0.3341 -0.0885 -0.4238
  609MOL0     C82082   4.600   2.500   3.620  0.0722 -0.4117 -0.1871
  609MOL0     O82083   4.715   2.464   3.557  0.3001 -0.2467  0.0562
  609MOL0     C82084   4.742   2.495   3.429  0.2428  0.3554  0.1223
  609MOL0     C82085   4.729   2.618   3.368 -0.4674 -1.0049  0.2504
  609MOL0     C82086   4.774   2.630   3.232  0.0959  0.5321 -0.2405
  609MOL0     C82087   4.818   2.518   3.157 -0.3491  0.0549  0.2403
  609MOL0     O82088   4.873   2.528   3.029 -0.3052 -0.6063  0.8062
  609MOL0     C82089   4.906   2.658   2.977  0.2867  0.2006  0.0671
  609MOL0     C82090   4.796   2.710   2.884  0.3852 -0.8459  0.8318
  609MOL0     C82091   4.797   2.643   2.751 -0.4278  0.0875  0.0712
  609MOL0     C82092   4.669   2.663   2.664 -0.3441  0.4868 -0.4033
  609MOL0     C82093   4.561   2.558   2.696 -1.0423 -0.6666  0.4728
  609MOL0     C82094   4.453   2.578   2.602  0.4058  0.4585  0.4553
  609MOL0     C82095   4.357   2.471   2.631 -0.2586 -0.4054 -0.1139
  609MOL0     C82096   4.229   2.500   2.564  0.0918  0.2116 -0.1469
  609MOL0     N82097   4.125   2.409   2.608 -0.5111 -0.6711  0.2371
  609MOL0     C82098   4.123   2.271   2.588  0.3975  0.4599 -0.0293
  609MOL0     C82099   3.997   2.228   2.624 -0.4043 -0.4152  0.2001
  609MOL0     C82100   3.955   2.081   2.635  0.4831  0.1384  0.1434
  609MOL0     C82101   3.809   2.051   2.606 -0.2236  0.5428 -0.3765
  609MOL0     C82102   3.787   1.908   2.648 -0.4138  0.4696 -0.2026
  609MOL0     C82103   3.654   1.867   2.584 -0.3005  0.6326 -0.4259
  609MOL0     O82104   3.538   1.931   2.640 -0.8083 -0.1218  0.5897
  609MOL0     C82105   3.412   1.891   2.598  1.0712 -0.0562 -0.8844
  609MOL0     C82106   3.301   1.932   2.685 -0.1282  0.0299  0.3576
  609MOL0     C82107   3.175   1.882   2.670 -0.1217  0.6997 -0.4493
  609MOL0     C82108   3.061   1.936   2.751  0.2291 -0.5766 -0.2639
  609MOL0     C82109   3.153   1.786   2.568  0.7423 -0.4895  0.7596
  609MOL0     C82110   3.016   1.733   2.529 -0.1026 -0.5451 -0.2770
  609MOL0     O82111   3.011   1.694   2.399  0.6546 -0.0345  0.0470
  609MOL0     C82112   2.894   1.689   2.319 -0.3397 -0.9903 -0.9303
  609MOL0     C82113   2.918   1.639   2.188  0.3987 -0.2172  0.6851
  609MOL0     C82114   2.813   1.633   2.095  0.4105  0.4065  0.2634
  609MOL0     C82115   2.684   1.669   2.127 -0.3348 -0.1570 -0.0252
  609MOL0     O82116   2.582   1.661   2.037 -0.0482  0.0882  0.2211
  609MOL0     C82117   2.562   1.785   1.965 -0.0275 -0.6915 -0.2604
  609MOL0     C82118   2.541   1.753   1.822 -0.5804  0.4319 -0.0517
  609MOL0     C82119   2.664   1.688   1.753 -0.0381  0.0548 -0.2542
  609MOL0     C82120   2.649   1.713   1.608  0.3722  0.6376  1.2885
  609MOL0     C82121   2.542   1.633   1.521 -0.4317 -0.7516  0.1484
  609MOL0     C82122   2.548   1.654   1.362  0.0318 -0.1111 -0.4565
  609MOL0     C82123   2.480   1.783   1.305 -0.3761  0.4662  0.5532
  609MOL0     C82124   2.525   1.921   1.354  0.2466 -0.7126 -0.4370
  609MOL0    Cl82125   2.705   1.941   1.345 -0.4321  0.3064  0.1817
  609MOL0     C82126   2.659   1.722   2.258 -0.5439  0.4766  1.3937
  609MOL0     C82127   2.767   1.725   2.354  0.0659 -0.7722  0.0233
  609MOL0     O82128   2.921   1.734   2.611  0.1547 -0.2657 -1.1973
  609MOL0     C82129   3.259   1.758   2.474  0.2581 -0.1485 -0.5072
  609MOL0     C82130   3.385   1.805   2.497 -0.5144  0.2794  0.1041
  609MOL0     N82131   3.934   2.334   2.676  0.6778 -0.1362 -0.5283
  609MOL0     N82132   4.007   2.436   2.666  0.1784 -0.0018  0.3510
  609MOL0     C82133   4.831   2.398   3.212 -0.8557  0.2690 -0.0310
  609MOL0     C82134   4.805   2.391   3.350  0.7361  0.2173 -0.3262
  609MOL0     C82135   4.599   2.508   3.769 -0.5438 -0.1021 -0.7066
  609MOL0     C82136   4.494   2.552   3.848  0.1210 -0.3537 -0.3931
  609MOL0     C82137   4.494   2.561   3.983 -0.1788 -0.1699 -0.1037
  609MOL0     C82138   4.606   2.535   4.050  0.5051 -0.2865 -0.9183
  609MOL0     O82139   4.608   2.541   4.190  0.0686 -0.3327  0.3548
  609MOL0     C82140   4.635   2.423   4.265 -0.0582 -0.3839 -0.1231
  609MOL0     C82141   4.575   2.446   4.404 -0.0685 -0.5468  0.6401
  609MOL0     C82142   4.537   2.319   4.486 -0.3406  0.6001  0.0061
  609MOL0     C82143   4.477   2.342   4.625  0.6646 -0.5149 -0.1710
  609MOL0     C82144   4.405   2.222   4.665 -0.6294 -0.5062  0.6577
  609MOL0     C82145   4.342   2.127   4.709  0.0949  0.5514 -0.2894
  609MOL0     C82146   4.722   2.491   3.977  0.7342  0.2707  0.0950
  609MOL0     C82147   4.721   2.484   3.837  0.9779  0.8176  0.4447
  609MOL0     H82148   4.684   2.696   3.427  0.1433  0.1750 -0.7898
  609MOL0     H82149   4.763   2.730   3.192  1.8039 -0.5668 -3.7850
  609MOL0     H82150   4.927   2.732   3.054 -0.9980  0.8739 -0.1923
  609MOL0     H82151   5.005   2.653   2.931  0.7575  1.1460  0.9299
  609MOL0     H82152   4.697   2.687   2.924  0.0461 -0.3113  0.3164
  609MOL0     H82153   4.826   2.815   2.883  1.8759 -1.1746  3.3391
  609MOL0     H82154   4.888   2.673   2.699  0.7633  1.3786  2.7187
  609MOL0     H82155   4.812   2.536   2.772  2.0206  0.1407 -1.0636
  609MOL0     H82156   4.634   2.765   2.679  2.6700  1.5060  0.3027
  609MOL0     H82157   4.700   2.651   2.559  0.3035  0.9385 -0.2677
  609MOL0     H82158   4.604   2.458   2.684  0.6990  0.2315 -1.3948
  609MOL0     H82159   4.533   2.596   2.794  1.2420  1.1533  0.5202
  609MOL0     H82160   4.415   2.679   2.620  0.2037  0.2559  1.1772
  609MOL0     H82161   4.479   2.558   2.497 -0.2993 -0.5158  0.4574
  609MOL0     H82162   4.395   2.373   2.603  3.3458  1.7305 -3.8005
  609MOL0     H82163   4.341   2.470   2.739  2.8120  3.5054  0.6164
  609MOL0     H82164   4.255   2.467   2.463 -0.3696  0.0878 -0.2281
  609MOL0     H82165   4.190   2.602   2.566 -0.8124 -0.1091 -0.7610
  609MOL0     H82166   4.204   2.210   2.549  2.8295  4.6954 -2.3851
  609MOL0     H82167   4.012   2.034   2.555  1.2547  1.9900 -0.4569
  609MOL0     H82168   3.988   2.059   2.737  0.6311  1.5444  0.4227
  609MOL0     H82169   3.787   2.061   2.499 -1.1145  1.7809 -0.1045
  609MOL0     H82170   3.746   2.109   2.674 -0.6640 -0.8099  0.4095
  609MOL0     H82171   3.789   1.886   2.755 -0.6313 -1.7169 -0.6079
  609MOL0     H82172   3.865   1.850   2.598  0.7320 -0.6243  2.6667
  609MOL0     H82173   3.643   1.759   2.593  3.9268  0.0496  0.0471
  609MOL0     H82174   3.664   1.895   2.479  2.6338  0.5406 -0.2674
  609MOL0     H82175   3.324   2.000   2.766  1.4791 -3.4560  3.1570
  609MOL0     H82176   3.051   1.885   2.848 -0.0257  0.0543  0.0503
  609MOL0     H82177   3.088   2.040   2.774  3.0668 -1.4812  0.8466
  609MOL0     H82178   2.961   1.929   2.706 -1.0192 -2.7571  2.5255
  609MOL0     H82179   3.016   1.618   2.145 -0.4626 -0.3011 -1.3387
  609MOL0     H82180   2.835   1.581   2.002  1.5509 -0.7082  1.1294
  609MOL0     H82181   2.470   1.838   1.995  2.7372  3.4061  1.9673
  609MOL0     H82182   2.645   1.856   1.974  0.5355 -1.0549 -2.1074
  609MOL0     H82183   2.454   1.687   1.816  1.8577 -3.0252  0.3994
  609MOL0     H82184   2.515   1.850   1.778  1.4227  1.5959  1.1827
  609MOL0     H82185   2.655   1.581   1.775 -2.2283  0.2996  0.2442
  609MOL0     H82186   2.757   1.727   1.796  0.9488 -2.3805 -0.0192
  609MOL0     H82187   2.613   1.815   1.591 -3.7548 -0.9140 -0.7993
  609MOL0     H82188   2.746   1.703   1.559 -1.4059  0.3250 -2.5238
  609MOL0     H82189   2.440   1.648   1.560  0.0959 -1.4464  1.9032
  609MOL0     H82190   2.560   1.526   1.533 -1.8694 -0.8331  2.3454
  609MOL0     H82191   2.654   1.663   1.336  0.2576  3.9871  1.0672
  609MOL0     H82192   2.526   1.557   1.318  3.0069 -1.8908  1.6407
  609MOL0     H82193   2.374   1.768   1.325 -0.3435 -3.2586 -1.1070
  609MOL0     H82194   2.488   1.775   1.196  0.5320 -0.3881  0.6623
  609MOL0     H82195   2.498   1.925   1.460  2.1988 -0.2588  0.0750
  609MOL0     H82196   2.481   2.003   1.297  1.8111  0.0692 -0.5459
  609MOL0     H82197   2.558   1.755   2.279 -0.6395  0.3366  1.1583
  609MOL0     H82198   2.735   1.773   2.447 -0.2159  0.8988 -0.8881
  609MOL0     H82199   3.248   1.715   2.375 -0.4900 -0.8533 -0.1242
  609MOL0     H82200   3.459   1.769   2.426  0.9175 -0.3282  1.8137
  609MOL0     H82201   4.874   2.318   3.153  2.8841  0.6923  1.8579
  609MOL0     H82202   4.839   2.303   3.404  3.7959  0.7890 -1.1495
  609MOL0     H82203   4.401   2.553   3.791  0.7387  1.6418 -1.4340
  609MOL0     H82204   4.412   2.602   4.042  2.1861  3.5163  1.0012
  609MOL0     H82205   4.585   2.335   4.222 -2.8795  0.3576  1.3876
  609MOL0     H82206   4.743   2.409   4.272  0.2474  0.8865 -1.7801
  609MOL0     H82207   4.480   2.497   4.384 -1.0303 -3.4001 -3.0725
  609MOL0     H82208   4.650   2.503   4.460  0.4788  0.3201 -0.9300
  609MOL0     H82209   4.626   2.260   4.506  0.3343  2.2105  2.1026
  609MOL0     H82210   4.462   2.275   4.419  2.6441  0.2684 -3.4277
  609MOL0     H82211   4.408   2.425   4.605  1.7110  0.2426 -0.7646
  609MOL0     H82212   4.550   2.366   4.702 -1.1248  2.5878  0.7526
  609MOL0     H82213   4.292   2.041   4.749  0.4245  0.7595  0.5932
  609MOL0     H82214   4.814   2.461   4.025  2.0306 -0.6314 -2.7614
  609MOL0     H82215   4.814   2.452   3.792  0.6586  0.8273 -0.2232
  610MOL0     O82216   2.563   3.031  10.557 -0.1076 -0.0304 -0.1199
  610MOL0     C82217   2.605   3.098  10.652  0.4386 -0.0330  0.5324
  610MOL0     O82218   2.529   3.164  10.746  0.1493  0.0938 -0.2031
  610MOL0     C82219   2.390   3.166  10.755  0.2174  0.9486  0.3683
  610MOL0     C82220   2.333   3.261  10.841 -0.1799  0.4255 -0.0705
  610MOL0     C82221   2.197   3.279  10.837 -0.2386  0.3497 -0.5020
  610MOL0     C82222   2.109   3.192  10.769 -0.5776  0.5411  0.1134
  610MOL0     O82223   1.972   3.216  10.789  0.6465 -0.2780  0.4123
  610MOL0     C82224   1.871   3.113  10.778 -0.5306  0.3697  0.7700
  610MOL0     C82225   1.884   3.014  10.899 -0.1990  0.9207  0.2601
  610MOL0     C82226   1.756   2.926  10.907 -0.2805 -0.6287  0.7355
  610MOL0     C82227   1.747   2.845  11.030 -0.2513  0.1830 -0.0288
  610MOL0     C82228   1.613   2.777  11.068  1.4611  0.1961 -0.6405
  610MOL0     C82229   1.492   2.878  11.088 -0.1181 -0.4155 -0.8574
  610MOL0     C82230   1.371   2.817  11.155 -0.0196  0.4490  0.1829
  610MOL0     C82231   1.265   2.925  11.193 -0.1984  0.5392 -0.8882
  610MOL0     N82232   1.149   2.864  11.259  0.4763  0.3448  0.2754
  610MOL0     C82233   1.067   2.760  11.208  0.7182  0.2398 -0.5676
  610MOL0     C82234   0.971   2.741  11.296  0.5642 -0.2104  1.3277
  610MOL0     C82235   0.853   2.649  11.291  0.1133  0.3156  0.8660
  610MOL0     C82236   0.732   2.717  11.216  0.4621 -0.7967  0.4553
  610MOL0     C82237   0.627   2.604  11.191  0.8537  0.1552 -0.8637
  610MOL0     C82238   0.491   2.654  11.132 -0.4025  0.3145 -0.5458
  610MOL0     O82239   0.432   2.742  11.225 -0.0846  0.3660 -0.1412
  610MOL0     C82240   0.323   2.817  11.198  0.6520 -0.4910  0.5724
  610MOL0     C82241   0.257   2.888  11.306  0.2692  0.1800  0.3729
  610MOL0     C82242   0.140   2.972  11.298 -0.3109  0.2631 -0.3430
  610MOL0     C82243   0.091   3.042  11.429  0.6967 -0.3343  0.6037
  610MOL0     C82244   0.080   2.980  11.167  0.6801 -0.0087  0.0923
  610MOL0     C82245  -0.041   3.050  11.129  0.7644  0.1074 -0.7404
  610MOL0     O82246  -0.129   3.069  11.234  0.2675  0.0795 -0.4466
  610MOL0     C82247  -0.220   3.180  11.231  0.0509 -0.1112  0.3123
  610MOL0     C82248  -0.351   3.144  11.245  0.2537  0.7209  0.1405
  610MOL0     C82249  -0.445   3.246  11.264  0.1283 -1.5447 -0.5586
  610MOL0     C82250  -0.410   3.379  11.261 -0.4081  0.7267  0.1475
  610MOL0     O82251  -0.507   3.471  11.266  0.3274 -0.3632 -0.0874
  610MOL0     C82252  -0.553   3.504  11.138  0.5286 -0.1564  1.0005
  610MOL0     C82253  -0.637   3.636  11.141  0.0770  0.6157 -0.0880
  610MOL0     C82254  -0.560   3.751  11.197 -0.1767 -0.1729  0.8207
  610MOL0     C82255  -0.628   3.888  11.161  0.1303  0.5686 -0.6288
  610MOL0     C82256  -0.536   4.008  11.197 -0.0094  0.2393  0.1206
  610MOL0     C82257  -0.552   4.062  11.340  0.4224 -0.0848 -0.1661
  610MOL0     C82258  -0.430   4.137  11.404  0.4311 -0.4900  0.2414
  610MOL0     C82259  -0.496   4.236  11.502  0.4624 -0.5429  0.0387
  610MOL0    Cl82260  -0.599   4.370  11.412 -0.2540 -1.0510  0.5461
  610MOL0     C82261  -0.274   3.423  11.252  0.0424 -0.0115 -0.5458
  610MOL0     C82262  -0.176   3.316  11.235  1.0876  0.1861  0.5715
  610MOL0     O82263  -0.060   3.089  11.014  0.0541  0.2216  0.1171
  610MOL0     C82264   0.143   2.916  11.052  0.2935  0.4749  0.3013
  610MOL0     C82265   0.263   2.837  11.073 -0.3787 -0.5461 -0.0828
  610MOL0     N82266   0.996   2.829  11.401  0.4351 -0.3097  0.3290
  610MOL0     N82267   1.106   2.894  11.383 -0.3034  0.1042 -0.3133
  610MOL0     C82268   2.160   3.092  10.686  0.3286  0.4337  0.4847
  610MOL0     C82269   2.300   3.081  10.677  0.4102  0.0800 -0.9834
  610MOL0     C82270   2.757   3.131  10.639 -0.5306 -0.6217 -0.3927
  610MOL0     C82271   2.847   3.066  10.549 -0.5602 -1.0267 -0.8783
  610MOL0     C82272   2.976   3.123  10.529  0.1322 -0.1955  0.4614
  610MOL0     C82273   3.014   3.234  10.588 -0.2492 -0.2817  0.0341
  610MOL0     O82274   3.141   3.295  10.551  0.7492  0.5098  0.3119
  610MOL0     C82275   3.211   3.237  10.438 -0.6800 -0.0156 -0.4003
  610MOL0     C82276   3.344   3.297  10.395 -0.5109 -0.1317 -0.6197
  610MOL0     C82277   3.436   3.340  10.522  0.7584  0.8470  0.0493
  610MOL0     C82278   3.548   3.424  10.478  0.1378 -0.3362 -0.1702
  610MOL0     C82279   3.654   3.420  10.582  0.6081 -0.7337  0.8317
  610MOL0     C82280   3.731   3.418  10.679  0.2487 -0.6554 -0.5806
  610MOL0     C82281   2.923   3.299  10.676 -0.1169 -0.4775  0.1383
  610MOL0     C82282   2.792   3.253  10.700 -0.4772  0.1416  0.2892
  610MOL0     H82283   2.397   3.316  10.909  1.2057  1.3676 -2.0277
  610MOL0     H82284   2.152   3.366  10.883  0.2460  0.4779 -0.2635
  610MOL0     H82285   1.773   3.160  10.778 -0.9244 -0.3108 -1.8401
  610MOL0     H82286   1.862   3.065  10.681  1.0513  3.6041 -1.1452
  610MOL0     H82287   1.968   2.948  10.875 -3.2539 -2.9084 -0.7876
  610MOL0     H82288   1.908   3.057  10.997  0.6651 -1.6694  1.2780
  610MOL0     H82289   1.672   2.997  10.907  0.3454  0.1174  0.6028
  610MOL0     H82290   1.748   2.869  10.814  0.8078  1.1198 -0.5005
  610MOL0     H82291   1.823   2.766  11.028  2.1532  2.1974  2.5677
  610MOL0     H82292   1.786   2.904  11.114 -0.3326 -0.3501  0.3909
  610MOL0     H82293   1.591   2.710  10.984  3.1465 -0.5128 -0.5584
  610MOL0     H82294   1.605   2.709  11.154 -3.0249 -0.4482 -1.3071
  610MOL0     H82295   1.525   2.964  11.148  0.3329 -0.8611 -0.4652
  610MOL0     H82296   1.460   2.920  10.992 -0.0465  3.1654  0.5005
  610MOL0     H82297   1.335   2.729  11.101  0.4313 -1.8099  3.2754
  610MOL0     H82298   1.403   2.771  11.249 -1.2298 -0.7005  0.0648
  610MOL0     H82299   1.231   2.977  11.103  0.5121  2.2501 -0.2246
  610MOL0     H82300   1.300   3.002  11.263 -4.3171  0.9958  0.9234
  610MOL0     H82301   1.093   2.704  11.118 -0.1503 -1.6829  0.3236
  610MOL0     H82302   0.884   2.563  11.230 -0.2925 -0.0507  1.1654
  610MOL0     H82303   0.833   2.614  11.393  2.9020 -4.0331  0.1637
  610MOL0     H82304   0.756   2.777  11.128  0.6659  1.5270  2.0178
  610MOL0     H82305   0.685   2.792  11.280  1.4357  0.0215  0.2295
  610MOL0     H82306   0.601   2.560  11.287 -2.6567  4.8855  0.7853
  610MOL0     H82307   0.660   2.519  11.131  1.1588 -2.7342  3.0574
  610MOL0     H82308   0.431   2.571  11.096 -2.4751  2.9162 -3.6583
  610MOL0     H82309   0.503   2.708  11.038 -0.5151  0.5703 -0.4157
  610MOL0     H82310   0.308   2.870  11.400 -0.8952  0.3627  1.0616
  610MOL0     H82311   0.077   3.148  11.406  1.0187 -0.5155 -0.4682
  610MOL0     H82312   0.006   2.993  11.478 -1.5045  2.5893  0.0160
  610MOL0     H82313   0.175   3.040  11.499  0.7684 -2.0661  0.5103
  610MOL0     H82314  -0.372   3.041  11.270 -1.8157  0.9345 -0.5130
  610MOL0     H82315  -0.551   3.241  11.287 -0.4148  2.7319 -1.2703
  610MOL0     H82316  -0.467   3.524  11.073  2.6498  0.6686  3.8803
  610MOL0     H82317  -0.621   3.427  11.100  3.4764 -3.6992  2.2729
  610MOL0     H82318  -0.660   3.666  11.038 -1.6880  1.3127  0.4726
  610MOL0     H82319  -0.730   3.625  11.198 -0.4130  0.7948 -0.8310
  610MOL0     H82320  -0.462   3.750  11.149  0.5503 -1.5433  2.2082
  610MOL0     H82321  -0.539   3.738  11.304  0.6050 -1.1489  0.5690
  610MOL0     H82322  -0.644   3.877  11.053  0.8195 -3.3689 -0.4450
  610MOL0     H82323  -0.720   3.889  11.221  0.9127  0.9546  0.5798
  610MOL0     H82324  -0.543   4.089  11.125  1.5224 -0.3132 -0.7056
  610MOL0     H82325  -0.428   3.989  11.189  0.2774  2.3039 -1.7632
  610MOL0     H82326  -0.643   4.122  11.334  0.0923 -0.7455 -3.4746
  610MOL0     H82327  -0.577   3.980  11.408  0.8007 -0.1497 -0.1022
  610MOL0     H82328  -0.374   4.195  11.330 -0.0143 -0.5228 -0.1297
  610MOL0     H82329  -0.361   4.071  11.457  1.0458  2.4185  3.4031
  610MOL0     H82330  -0.412   4.275  11.559  0.8485 -2.6346  1.0036
  610MOL0     H82331  -0.555   4.179  11.575 -2.2396  1.6841 -0.2131
  610MOL0     H82332  -0.256   3.530  11.248 -0.8846  0.1505 -0.4964
  610MOL0     H82333  -0.074   3.353  11.231  0.9646  0.4971  0.2808
  610MOL0     H82334   0.100   2.927  10.953  0.6537  1.4763  0.2404
  610MOL0     H82335   0.315   2.805  10.983  3.5236  2.5393  0.7863
  610MOL0     H82336   2.091   3.028  10.632  1.4040 -0.3400 -0.0225
  610MOL0     H82337   2.347   3.008  10.612  1.5721  1.4988 -1.8126
  610MOL0     H82338   2.824   2.968  10.509 -1.8563 -1.9317  1.8749
  610MOL0     H82339   3.044   3.067  10.466 -0.1172  0.8621 -0.7762
  610MOL0     H82340   3.245   3.143  10.484  0.8408 -0.5756 -2.5344
  610MOL0     H82341   3.148   3.212  10.353  0.1790 -0.4949 -0.9136
  610MOL0     H82342   3.338   3.391  10.340  4.9152 -0.7877 -2.9775
  610MOL0     H82343   3.402   3.230  10.332  0.7320  0.1800  0.1700
  610MOL0     H82344   3.471   3.243  10.558  1.6673  0.9283 -0.5775
  610MOL0     H82345   3.376   3.394  10.595 -0.8784  1.6172 -1.7707
  610MOL0     H82346   3.505   3.523  10.462 -0.8424 -0.6017  0.6549
  610MOL0     H82347   3.586   3.392  10.381 -1.2290 -1.5736 -0.3376
  610MOL0     H82348   3.797   3.426  10.763 -1.7415  1.5001  0.8994
  610MOL0     H82349   2.933   3.402  10.709  1.9837  0.6355 -3.4601
  610MOL0     H82350   2.723   3.306  10.765  0.1778 -0.3267  1.3973
  611MOL0     O82351  10.557   2.381   6.086 -0.1340  0.3726 -0.5495
  611MOL0     C82352  10.478   2.460   6.142 -0.1045 -0.1098 -0.2033
  611MOL0     O82353  10.356   2.426   6.194  0.1020 -0.8932 -0.4100
  611MOL0     C82354  10.305   2.306   6.166  0.3709  0.3309  0.7719
  611MOL0     C82355  10.172   2.298   6.135  0.0454  1.3019 -0.0878
  611MOL0     C82356  10.109   2.175   6.117 -0.2190  0.5690  0.8455
  611MOL0     C82357  10.182   2.051   6.136  1.6469  0.1489  0.2702
  611MOL0     O82358  10.130   1.930   6.118 -0.4487  0.1329  0.2923
  611MOL0     C82359   9.994   1.918   6.157  0.1464  0.3420  0.7767
  611MOL0     C82360   9.984   1.779   6.208  0.6153  1.3338 -0.5037
  611MOL0     C82361   9.971   1.670   6.101  0.0606  0.0920  1.2132
  611MOL0     C82362   9.819   1.628   6.080 -0.2217  0.0765 -0.3110
  611MOL0     C82363   9.809   1.539   5.951 -0.0877  0.4045  0.0805
  611MOL0     C82364   9.845   1.599   5.812 -0.8821 -0.9089 -1.2709
  611MOL0     C82365   9.814   1.506   5.694 -0.2522  0.6646 -0.9302
  611MOL0     C82366   9.783   1.585   5.565 -0.3125 -0.3899 -0.2654
  611MOL0     N82367   9.720   1.505   5.456  0.1152  0.7184 -0.1490
  611MOL0     C82368   9.783   1.413   5.382 -0.1622  0.4480 -0.2250
  611MOL0     C82369   9.688   1.354   5.306 -0.0533 -0.0122 -0.7692
  611MOL0     C82370   9.715   1.231   5.220 -1.2325 -0.8841  0.4386
  611MOL0     C82371   9.816   1.261   5.113 -0.3372 -0.1953  0.4245
  611MOL0     C82372   9.766   1.325   4.983 -0.2504 -0.0619 -0.2744
  611MOL0     C82373   9.742   1.215   4.884  0.9024 -0.5763  0.6888
  611MOL0     O82374   9.624   1.141   4.919 -0.0637  0.2937  0.6070
  611MOL0     C82375   9.546   1.078   4.827  0.3530 -1.1824  0.8002
  611MOL0     C82376   9.512   1.124   4.697 -0.0120  0.0188  0.1157
  611MOL0     C82377   9.432   1.045   4.614  0.6826  0.2600 -0.0766
  611MOL0     C82378   9.412   1.088   4.478  0.2870  1.6265 -0.7919
  611MOL0     C82379   9.373   0.927   4.654 -0.1487  0.2231 -0.3841
  611MOL0     C82380   9.302   0.821   4.576 -0.1869 -1.0312  0.5684
  611MOL0     O82381   9.179   0.794   4.597 -0.4005 -0.8376 -0.6163
  611MOL0     C82382   9.095   0.891   4.652 -1.0648 -0.3424  0.3490
  611MOL0     C82383   9.034   0.883   4.780 -0.3618 -0.4867  0.7637
  611MOL0     C82384   8.946   0.984   4.824 -0.3107 -0.1213 -0.1285
  611MOL0     C82385   8.915   1.096   4.741  0.2816 -0.0208 -0.6929
  611MOL0     O82386   8.839   1.187   4.802  0.4614 -0.0613  0.4415
  611MOL0     C82387   8.855   1.327   4.772  0.7144  0.2519  0.0527
  611MOL0     C82388   8.748   1.392   4.856  0.1055  0.0299  0.4464
  611MOL0     C82389   8.745   1.539   4.817 -0.0291 -0.5282  0.3496
  611MOL0     C82390   8.621   1.627   4.843 -0.1044  0.2542  0.1118
  611MOL0     C82391   8.658   1.764   4.823 -1.1317 -0.2699  0.8317
  611MOL0     C82392   8.563   1.864   4.761 -0.4429  0.5686 -0.0959
  611MOL0     C82393   8.436   1.866   4.851  0.6481 -0.0599  0.1955
  611MOL0     C82394   8.332   1.963   4.805 -0.8485 -0.7231  0.0126
  611MOL0    Cl82395   8.388   2.135   4.813 -0.0776 -0.4731 -0.0967
  611MOL0     C82396   8.974   1.100   4.616 -0.4188 -0.0530  0.7091
  611MOL0     C82397   9.067   1.007   4.568 -0.1012  0.4714 -0.1510
  611MOL0     O82398   9.380   0.741   4.520 -0.5243 -0.0492 -0.1433
  611MOL0     C82399   9.416   0.884   4.784  0.3997 -0.0388  0.5302
  611MOL0     C82400   9.504   0.957   4.861 -0.0435  0.5242 -0.1854
  611MOL0     N82401   9.565   1.415   5.334  0.5606  0.4901  0.1688
  611MOL0     N82402   9.586   1.498   5.434 -0.1570 -0.8162 -0.5342
  611MOL0     C82403  10.315   2.058   6.170 -0.3710  0.0678  0.0632
  611MOL0     C82404  10.374   2.185   6.189 -0.0880 -0.3006 -0.2511
  611MOL0     C82405  10.496   2.609   6.124 -0.9234  0.6281 -0.2462
  611MOL0     C82406  10.401   2.702   6.173 -0.0486 -0.2778 -0.7250
  611MOL0     C82407  10.424   2.842   6.164 -0.2877  0.7658 -0.0740
  611MOL0     C82408  10.535   2.891   6.097  0.3697 -0.2301  0.2592
  611MOL0     O82409  10.566   3.028   6.073 -0.3683 -0.0799  0.0065
  611MOL0     C82410  10.476   3.124   6.117  0.5915 -0.2320 -0.7754
  611MOL0     C82411  10.520   3.255   6.068 -0.2721  1.2996 -0.3715
  611MOL0     C82412  10.516   3.267   5.911  0.5741 -0.3596 -0.2087
  611MOL0     C82413  10.565   3.399   5.853 -0.0122 -0.5719  0.1607
  611MOL0     C82414  10.480   3.516   5.882 -0.1395 -1.0879  1.4572
  611MOL0     C82415  10.412   3.615   5.897  0.0482 -0.1396 -0.5688
  611MOL0     C82416  10.628   2.798   6.044  0.7327  0.1250 -0.4969
  611MOL0     C82417  10.611   2.665   6.070 -1.0877 -0.1854  0.4595
  611MOL0     H82418  10.120   2.392   6.119 -2.1332  0.9460  3.7129
  611MOL0     H82419  10.001   2.172   6.104 -0.0286 -1.2973 -0.9347
  611MOL0     H82420   9.976   1.994   6.234 -0.7528 -0.2187  1.1365
  611MOL0     H82421   9.922   1.936   6.077 -2.9958  1.8093  3.6626
  611MOL0     H82422  10.069   1.762   6.275  2.6029  2.5698 -2.5939
  611MOL0     H82423   9.895   1.762   6.269  1.7996 -1.2358  0.6529
  611MOL0     H82424  10.014   1.708   6.008  1.1972 -0.3383  1.5504
  611MOL0     H82425  10.034   1.588   6.137 -1.0003 -1.0919  0.4334
  611MOL0     H82426   9.786   1.569   6.165  2.0321 -2.0011 -0.7685
  611MOL0     H82427   9.751   1.712   6.063 -3.0365 -2.2645 -1.3726
  611MOL0     H82428   9.869   1.448   5.961 -0.4591  0.1708  0.2055
  611MOL0     H82429   9.703   1.512   5.946 -0.4851  2.0970 -1.9584
  611MOL0     H82430   9.792   1.694   5.800  2.1940  1.2981  0.9191
  611MOL0     H82431   9.951   1.627   5.817 -1.2393  0.3481  2.4555
  611MOL0     H82432   9.901   1.443   5.672 -1.9394 -2.1240 -0.1786
  611MOL0     H82433   9.735   1.438   5.727  0.7669 -0.9111 -1.5662
  611MOL0     H82434   9.878   1.619   5.524 -0.2815 -1.8068 -1.4708
  611MOL0     H82435   9.720   1.672   5.585 -0.1932 -0.3404 -0.1045
  611MOL0     H82436   9.886   1.380   5.371 -1.5235 -3.9986 -1.9447
  611MOL0     H82437   9.760   1.158   5.287  0.7753  4.4173  5.7434
  611MOL0     H82438   9.625   1.187   5.174  0.4041 -3.3750 -0.6108
  611MOL0     H82439   9.858   1.162   5.094  0.5987 -0.2055  2.3556
  611MOL0     H82440   9.895   1.316   5.164 -1.0132  0.8059  0.4389
  611MOL0     H82441   9.845   1.390   4.945  1.0210 -0.2334  1.8984
  611MOL0     H82442   9.686   1.398   4.997 -1.5700 -1.6366  0.9008
  611MOL0     H82443   9.835   1.157   4.879  2.9670  2.5240 -1.6948
  611MOL0     H82444   9.738   1.275   4.792  0.5084 -0.2197  0.9338
  611MOL0     H82445   9.558   1.218   4.671  1.4171  0.1118  2.6676
  611MOL0     H82446   9.416   1.197   4.474  3.0180  1.6302 -0.1417
  611MOL0     H82447   9.501   1.044   4.432  0.1700  1.4972 -0.8928
  611MOL0     H82448   9.323   1.046   4.429  1.4958 -0.5691 -1.2539
  611MOL0     H82449   9.053   0.797   4.843 -0.7293 -1.2529 -0.1463
  611MOL0     H82450   8.914   0.972   4.927  2.3522  3.0292  1.2353
  611MOL0     H82451   8.948   1.361   4.818  1.9021 -3.0674  0.4074
  611MOL0     H82452   8.850   1.338   4.663  1.8888 -0.1393 -0.0537
  611MOL0     H82453   8.649   1.347   4.842 -0.3086  0.9448  0.3837
  611MOL0     H82454   8.767   1.367   4.961 -2.2314 -0.8710  0.7332
  611MOL0     H82455   8.754   1.546   4.708 -1.9481  0.7452  0.2391
  611MOL0     H82456   8.833   1.576   4.871  2.2373 -1.9220 -2.1081
  611MOL0     H82457   8.549   1.589   4.771  1.1968 -1.7811 -0.1977
  611MOL0     H82458   8.593   1.600   4.945  2.2504 -1.4337  0.4101
  611MOL0     H82459   8.751   1.753   4.767 -1.4014 -0.2477  0.3796
  611MOL0     H82460   8.695   1.799   4.920  2.6122 -0.7842 -0.2538
  611MOL0     H82461   8.605   1.965   4.748 -0.8120  1.3984  3.9478
  611MOL0     H82462   8.537   1.844   4.657 -0.0342  3.1188 -0.7696
  611MOL0     H82463   8.463   1.891   4.954 -1.2413 -0.8985  0.9488
  611MOL0     H82464   8.384   1.770   4.852 -1.8893  1.1651 -1.4005
  611MOL0     H82465   8.238   1.957   4.860 -1.2639  0.5658 -0.5143
  611MOL0     H82466   8.308   1.943   4.700 -1.2322  0.3170 -0.1119
  611MOL0     H82467   8.939   1.183   4.555 -1.8878  0.5817  2.3393
  611MOL0     H82468   9.107   1.009   4.467  1.0342 -2.7207  0.1031
  611MOL0     H82469   9.368   0.794   4.823 -1.5816  0.0191 -1.5497
  611MOL0     H82470   9.526   0.916   4.959 -0.9521  1.0580  0.2603
  611MOL0     H82471  10.369   1.964   6.180  0.2166  0.0774 -2.4002
  611MOL0     H82472  10.468   2.193   6.243 -1.1698 -2.3330  2.1213
  611MOL0     H82473  10.314   2.666   6.227 -0.3011  0.0911 -0.8800
  611MOL0     H82474  10.350   2.912   6.202  0.0158  1.1187 -0.1232
  611MOL0     H82475  10.377   3.097   6.080 -0.2500 -2.0984  2.3861
  611MOL0     H82476  10.475   3.115   6.226 -0.9348 -1.1575 -0.8368
  611MOL0     H82477  10.627   3.268   6.090  0.7161  1.0490 -4.2255
  611MOL0     H82478  10.469   3.344   6.105 -0.1031  0.6584  1.5158
  611MOL0     H82479  10.408   3.268   5.896  0.3538 -2.1061  0.9789
  611MOL0     H82480  10.571   3.184   5.866  4.4224  2.4205 -1.2128
  611MOL0     H82481  10.579   3.390   5.745 -0.6612 -3.6557  0.2284
  611MOL0     H82482  10.654   3.424   5.911 -0.3966  2.2197 -0.3490
  611MOL0     H82483  10.354   3.699   5.932 -1.1944 -0.6883 -1.2272
  611MOL0     H82484  10.720   2.832   5.997 -0.8833  3.4957 -1.5384
  611MOL0     H82485  10.692   2.599   6.041 -1.2871  0.2180 -1.1025
  612MOL0     O82486   3.401   8.082   3.934 -0.1486  1.1923 -0.7538
  612MOL0     C82487   3.342   8.101   4.038  0.4242  0.4347 -0.6155
  612MOL0     O82488   3.395   8.158   4.153  0.1942  0.2664  0.1076
  612MOL0     C82489   3.525   8.204   4.139  0.3549 -0.3082 -0.6586
  612MOL0     C82490   3.626   8.138   4.220 -0.4644 -0.5097  0.0442
  612MOL0     C82491   3.754   8.184   4.200 -0.3103 -0.2753 -0.3197
  612MOL0     C82492   3.787   8.278   4.100  0.6387 -0.1864 -0.3968
  612MOL0     O82493   3.916   8.322   4.077 -0.3514  0.2604  0.4655
  612MOL0     C82494   3.959   8.292   3.940  0.3764 -0.3606 -0.1654
  612MOL0     C82495   4.103   8.326   3.907 -0.0141 -0.2926 -0.2642
  612MOL0     C82496   4.150   8.457   3.946  0.2385 -0.7211 -0.9337
  612MOL0     C82497   4.289   8.478   3.869  0.0599 -0.4049 -0.8239
  612MOL0     C82498   4.247   8.557   3.747  0.3759 -0.4402 -0.4768
  612MOL0     C82499   4.348   8.595   3.645 -0.6116 -0.1085  0.1167
  612MOL0     C82500   4.279   8.676   3.528 -0.9636 -0.5866  0.2637
  612MOL0     C82501   4.385   8.740   3.432 -0.0708 -0.6583 -0.2142
  612MOL0     N82502   4.467   8.643   3.357  0.3365 -0.2684  0.4944
  612MOL0     C82503   4.559   8.562   3.405 -0.1938  0.3693  0.5704
  612MOL0     C82504   4.594   8.476   3.309  0.6136 -0.1674 -0.4264
  612MOL0     C82505   4.699   8.378   3.333  0.2095  0.3986  0.2341
  612MOL0     C82506   4.840   8.441   3.312  0.1987  0.0742 -0.1468
  612MOL0     C82507   4.881   8.472   3.171 -0.4363  0.4083  0.5909
  612MOL0     C82508   5.036   8.501   3.169 -0.4290  0.2145  0.3170
  612MOL0     O82509   5.071   8.601   3.264  0.4023  0.6101 -0.9208
  612MOL0     C82510   5.197   8.625   3.318 -0.0605  0.4427  0.1143
  612MOL0     C82511   5.213   8.711   3.432  0.1372  0.3340  0.0239
  612MOL0     C82512   5.333   8.758   3.472  0.3230  0.3397  0.2819
  612MOL0     C82513   5.335   8.865   3.583 -0.0251 -0.0187 -0.2172
  612MOL0     C82514   5.446   8.716   3.394  0.1629 -0.3772  0.5264
  612MOL0     C82515   5.589   8.768   3.446 -0.4534 -0.2562  0.1001
  612MOL0     O82516   5.695   8.708   3.375  0.3902  0.0524 -0.0087
  612MOL0     C82517   5.822   8.739   3.412  0.4671  0.9712  0.1538
  612MOL0     C82518   5.882   8.861   3.377  0.7229  0.0507  0.1153
  612MOL0     C82519   6.010   8.892   3.424  0.2658  0.3407 -0.4976
  612MOL0     C82520   6.095   8.797   3.478 -0.9796  0.3581 -0.1054
  612MOL0     O82521   6.229   8.810   3.509  1.4909 -0.5141  0.0703
  612MOL0     C82522   6.291   8.938   3.469  0.0142 -0.1669 -0.7477
  612MOL0     C82523   6.435   8.942   3.512  0.0379  0.2643  0.1209
  612MOL0     C82524   6.504   9.079   3.486  0.1433  0.3201 -0.3244
  612MOL0     C82525   6.658   9.074   3.516  0.2824 -1.0005 -0.3296
  612MOL0     C82526   6.720   9.220   3.514 -0.3540  0.7736 -0.0677
  612MOL0     C82527   6.872   9.223   3.553 -0.4888  0.1078 -0.1042
  612MOL0     C82528   6.907   9.151   3.679  0.2716 -0.8835  0.6006
  612MOL0     C82529   7.041   9.189   3.738  0.1052  0.5811  0.7165
  612MOL0    Cl82530   7.185   9.100   3.669 -0.1999 -0.1281  0.0562
  612MOL0     C82531   6.033   8.672   3.515  0.5790  0.1753  0.3922
  612MOL0     C82532   5.896   8.644   3.474 -1.1992 -0.0313 -0.1502
  612MOL0     O82533   5.605   8.849   3.540  0.1625 -0.0044  0.1474
  612MOL0     C82534   5.432   8.626   3.284  0.1734  0.1155  0.2173
  612MOL0     C82535   5.308   8.573   3.250 -0.1898 -0.5661 -0.5215
  612MOL0     N82536   4.522   8.508   3.194 -0.5587 -0.4818  0.4756
  612MOL0     N82537   4.453   8.608   3.223  0.3738  0.5029  0.3216
  612MOL0     C82538   3.686   8.339   4.030 -0.0827 -0.4222  0.5891
  612MOL0     C82539   3.556   8.304   4.054 -0.3194 -0.8004 -0.7965
  612MOL0     C82540   3.216   8.035   4.052  0.5961  0.5248 -0.1432
  612MOL0     C82541   3.136   8.054   4.164 -0.7783  0.0473  0.3996
  612MOL0     C82542   3.009   7.995   4.173  0.0182  0.0535  0.2822
  612MOL0     C82543   2.958   7.914   4.079 -0.0529  0.1250  0.6517
  612MOL0     O82544   2.842   7.855   4.078 -0.4657  0.6098 -0.2142
  612MOL0     C82545   2.737   7.897   4.172  0.1721  0.3073 -0.6334
  612MOL0     C82546   2.610   7.831   4.118 -0.0746  0.1875 -0.3830
  612MOL0     C82547   2.496   7.839   4.213 -0.4495  0.1011  0.3012
  612MOL0     C82548   2.377   7.773   4.161 -0.0219 -0.3771 -0.1619
  612MOL0     C82549   2.301   7.856   4.070  0.3388  0.1975  0.2447
  612MOL0     C82550   2.242   7.927   3.987  0.3351 -0.7026 -0.1767
  612MOL0     C82551   3.045   7.887   3.972  0.2040  0.8557 -0.0122
  612MOL0     C82552   3.167   7.943   3.956 -0.1652 -0.3483 -0.1790
  612MOL0     H82553   3.607   8.054   4.286 -2.3693  0.6573  1.0595
  612MOL0     H82554   3.830   8.141   4.263  0.4950 -0.6090 -1.4873
  612MOL0     H82555   3.944   8.187   3.916  2.9042 -0.6012 -0.9626
  612MOL0     H82556   3.900   8.349   3.868  0.1206 -1.8769 -1.1901
  612MOL0     H82557   4.160   8.250   3.961 -2.0336 -1.6361  0.0867
  612MOL0     H82558   4.124   8.295   3.804 -0.9848 -1.3240 -0.1767
  612MOL0     H82559   4.081   8.532   3.907  0.8713  0.0801 -0.5444
  612MOL0     H82560   4.161   8.478   4.052  1.1495  1.1084 -1.3571
  612MOL0     H82561   4.364   8.533   3.926  0.1866 -1.8454  0.4639
  612MOL0     H82562   4.338   8.382   3.853  0.7023 -0.4436  1.0951
  612MOL0     H82563   4.170   8.503   3.690  2.9215 -2.6833 -2.0307
  612MOL0     H82564   4.207   8.650   3.787  1.6160 -0.5196  1.0638
  612MOL0     H82565   4.428   8.645   3.701 -0.9757 -2.9691  3.5123
  612MOL0     H82566   4.396   8.503   3.612 -1.9648 -0.2674 -1.5431
  612MOL0     H82567   4.214   8.611   3.467  1.3502 -2.1394 -0.7072
  612MOL0     H82568   4.220   8.757   3.571 -0.0921 -0.5484  1.4368
  612MOL0     H82569   4.452   8.815   3.476 -2.0054 -0.1052  2.0083
  612MOL0     H82570   4.336   8.798   3.353  2.2787 -3.2047 -3.8776
  612MOL0     H82571   4.598   8.577   3.506 -2.3203 -0.1251  1.5129
  612MOL0     H82572   4.680   8.327   3.427 -3.2063  0.7683 -0.1339
  612MOL0     H82573   4.705   8.300   3.256  0.1268  2.1724 -1.6622
  612MOL0     H82574   4.906   8.363   3.351 -0.7617 -1.3116 -1.2112
  612MOL0     H82575   4.839   8.524   3.382  2.3079  0.9947 -1.1022
  612MOL0     H82576   4.831   8.555   3.122  1.3887 -0.2612 -2.6983
  612MOL0     H82577   4.858   8.381   3.114 -1.7910  0.3803  1.1557
  612MOL0     H82578   5.060   8.526   3.065 -0.6816  0.4869  0.3227
  612MOL0     H82579   5.083   8.409   3.204 -1.7376 -0.1936  1.0432
  612MOL0     H82580   5.131   8.769   3.474  0.1557  1.1750 -1.0608
  612MOL0     H82581   5.236   8.873   3.629 -0.6576  2.2017 -1.7701
  612MOL0     H82582   5.408   8.845   3.662 -1.0877  0.4135  0.9077
  612MOL0     H82583   5.344   8.966   3.541 -2.0616  0.7442  1.0223
  612MOL0     H82584   5.819   8.924   3.315  3.2995  2.9763  0.2401
  612MOL0     H82585   6.041   8.991   3.391  3.0752  0.0250  0.8534
  612MOL0     H82586   6.293   8.946   3.360  3.9299 -1.9603 -0.9730
  612MOL0     H82587   6.231   9.016   3.517 -0.6656 -0.2558 -1.4414
  612MOL0     H82588   6.450   8.911   3.615  1.9600 -0.8168 -0.4369
  612MOL0     H82589   6.489   8.864   3.456  0.1085 -0.9780  1.8347
  612MOL0     H82590   6.451   9.156   3.542 -0.3754 -1.3856  1.6620
  612MOL0     H82591   6.502   9.095   3.378 -1.9800 -4.1841 -1.1689
  612MOL0     H82592   6.666   9.040   3.620 -2.1324  0.9947  0.6184
  612MOL0     H82593   6.717   9.007   3.454  1.6071 -0.6564  0.5145
  612MOL0     H82594   6.655   9.285   3.574 -2.2886 -0.5733 -0.6195
  612MOL0     H82595   6.717   9.260   3.413  3.6770  1.8920  0.0673
  612MOL0     H82596   6.924   9.178   3.468 -1.4811  0.8935 -1.1579
  612MOL0     H82597   6.892   9.330   3.562 -2.7252  0.4260  2.2145
  612MOL0     H82598   6.898   9.042   3.672 -0.6880 -0.8748  1.4727
  612MOL0     H82599   6.825   9.183   3.743 -0.5417 -2.0879  0.1982
  612MOL0     H82600   7.034   9.165   3.844  2.1537  1.8523  1.1694
  612MOL0     H82601   7.060   9.296   3.735  2.9000  0.1392 -0.9777
  612MOL0     H82602   6.074   8.601   3.587  0.2753 -0.9291 -0.4954
  612MOL0     H82603   5.847   8.554   3.509  0.9059 -0.7815  0.9880
  612MOL0     H82604   5.519   8.596   3.227 -2.0791 -0.2056 -3.3708
  612MOL0     H82605   5.300   8.510   3.161 -1.1305 -0.8323 -0.2654
  612MOL0     H82606   3.692   8.421   3.959 -2.1542 -0.1507  0.6550
  612MOL0     H82607   3.482   8.349   3.988 -0.1365 -0.6120 -0.8739
  612MOL0     H82608   3.180   8.107   4.247  1.1524 -2.2638  0.9774
  612MOL0     H82609   2.958   8.002   4.268  1.5259 -2.7995  1.4337
  612MOL0     H82610   2.760   7.871   4.276  0.9810  2.1468 -0.3291
  612MOL0     H82611   2.729   8.006   4.166  3.3599  0.5611 -1.9421
  612MOL0     H82612   2.632   7.725   4.101 -0.9448  0.0454 -0.6560
  612MOL0     H82613   2.582   7.861   4.016 -0.4075 -0.8094 -0.5982
  612MOL0     H82614   2.473   7.946   4.226  1.0726  0.4578  0.1784
  612MOL0     H82615   2.515   7.806   4.315 -0.3818  2.3492  1.0886
  612MOL0     H82616   2.312   7.747   4.246  3.1565 -1.0824  2.2250
  612MOL0     H82617   2.409   7.682   4.111  0.4339 -0.8640  0.9839
  612MOL0     H82618   2.191   7.982   3.910  0.1426 -0.9463 -0.2242
  612MOL0     H82619   3.005   7.823   3.894 -2.1960  0.5389  1.3578
  612MOL0     H82620   3.222   7.912   3.868 -3.8962  1.9082 -3.6606
  613MOL0     O82621   7.310   0.909   7.476  0.4218 -0.0156  0.3910
  613MOL0     C82622   7.234   0.869   7.563 -0.8776  0.0338 -0.0719
  613MOL0     O82623   7.100   0.856   7.557 -0.1023  0.0668 -0.1351
  613MOL0     C82624   7.036   0.887   7.445  0.8677  1.1251  0.7978
  613MOL0     C82625   6.954   1.001   7.429 -0.3398 -0.1677  0.0684
  613MOL0     C82626   6.883   1.036   7.314  0.2257 -0.2644  0.0173
  613MOL0     C82627   6.888   0.949   7.202 -0.1823 -0.1683 -0.8229
  613MOL0     O82628   6.820   0.960   7.089  0.0145  0.4259  0.5183
  613MOL0     C82629   6.697   1.025   7.079  0.4320  0.0587  0.2833
  613MOL0     C82630   6.627   0.965   6.954 -0.4971  0.3549  0.2060
  613MOL0     C82631   6.497   1.040   6.925  0.2880 -1.0940  0.6276
  613MOL0     C82632   6.517   1.177   6.869 -0.6427  0.0598 -0.4254
  613MOL0     C82633   6.392   1.247   6.819 -0.2541  0.3910 -0.3170
  613MOL0     C82634   6.432   1.389   6.769  0.6022 -0.5754  0.4548
  613MOL0     C82635   6.305   1.457   6.710 -0.1193 -0.1121 -0.3389
  613MOL0     C82636   6.332   1.611   6.692 -0.1144  0.2509  0.8865
  613MOL0     N82637   6.235   1.686   6.615 -0.5007  0.1116 -0.0187
  613MOL0     C82638   6.108   1.697   6.663  0.8307 -0.1292  0.1566
  613MOL0     C82639   6.033   1.727   6.556 -0.0354  0.6506 -0.4181
  613MOL0     C82640   5.882   1.742   6.537 -0.6504  0.4261  0.1691
  613MOL0     C82641   5.802   1.704   6.656  1.4888  0.4958  0.5131
  613MOL0     C82642   5.655   1.710   6.616 -0.8150  0.3530  0.9650
  613MOL0     C82643   5.579   1.722   6.749  0.4234 -0.0083  0.3989
  613MOL0     O82644   5.579   1.852   6.805  0.0124  0.0731 -0.2780
  613MOL0     C82645   5.494   1.873   6.913 -0.1441 -0.3150 -0.5696
  613MOL0     C82646   5.525   1.982   6.991  0.0215 -0.3027  0.2632
  613MOL0     C82647   5.446   2.021   7.101  0.6280  0.0944  1.1061
  613MOL0     C82648   5.490   2.148   7.172  0.2529 -0.0551 -1.0729
  613MOL0     C82649   5.340   1.949   7.134  0.4200 -0.0963 -1.0068
  613MOL0     C82650   5.262   1.967   7.259 -0.2910 -0.1239 -0.5671
  613MOL0     O82651   5.335   1.989   7.373  0.3382 -0.5686  0.3196
  613MOL0     C82652   5.294   2.057   7.483 -0.0435  0.2325 -0.2827
  613MOL0     C82653   5.169   2.123   7.496  0.1034  0.5732  0.3972
  613MOL0     C82654   5.140   2.194   7.610 -1.1185 -0.1608  0.1678
  613MOL0     C82655   5.230   2.193   7.720  0.1196 -0.1167  0.1649
  613MOL0     O82656   5.205   2.268   7.829 -0.0672  0.0030  0.6223
  613MOL0     C82657   5.219   2.411   7.824  0.3615  0.0089  0.9200
  613MOL0     C82658   5.077   2.471   7.826  0.2626 -0.3901  1.2112
  613MOL0     C82659   5.024   2.518   7.962 -0.3809  0.5064  0.3103
  613MOL0     C82660   4.988   2.396   8.051  0.4168  0.5307 -0.4320
  613MOL0     C82661   4.875   2.436   8.163 -0.1859 -0.3136  0.2906
  613MOL0     C82662   4.739   2.429   8.098  0.7293 -0.2061  0.5366
  613MOL0     C82663   4.630   2.442   8.199 -0.0035 -0.1745 -0.1961
  613MOL0     C82664   4.611   2.309   8.278 -0.7513 -0.4804 -0.3764
  613MOL0    Cl82665   4.454   2.292   8.355  0.6974 -0.5198 -0.0734
  613MOL0     C82666   5.347   2.123   7.704 -0.1621 -0.2527 -0.0189
  613MOL0     C82667   5.385   2.048   7.594 -0.0091 -0.3289 -0.3470
  613MOL0     O82668   5.145   1.966   7.252  0.0436  0.1029 -0.0584
  613MOL0     C82669   5.306   1.838   7.061 -0.7043  0.0782  0.8291
  613MOL0     C82670   5.392   1.790   6.955 -0.2456  0.0146 -0.6074
  613MOL0     N82671   6.126   1.749   6.452 -0.9586 -0.0319  0.4347
  613MOL0     N82672   6.244   1.708   6.477  0.3160  0.1151 -0.5429
  613MOL0     C82673   6.968   0.835   7.217  0.2002 -0.7224  0.0774
  613MOL0     C82674   7.043   0.799   7.334  0.7417  0.2973 -0.4254
  613MOL0     C82675   7.297   0.825   7.682 -0.1051 -0.7874 -0.0398
  613MOL0     C82676   7.430   0.846   7.699 -0.3077  0.1304  0.3384
  613MOL0     C82677   7.484   0.823   7.826  0.1513 -0.3170 -0.8625
  613MOL0     C82678   7.414   0.763   7.929  0.3599  0.8687 -0.1955
  613MOL0     O82679   7.455   0.739   8.057 -0.5951  1.1145  0.5106
  613MOL0     C82680   7.540   0.838   8.110  0.1922  0.1374  0.0067
  613MOL0     C82681   7.462   0.951   8.157 -0.0138 -0.7052 -0.4005
  613MOL0     C82682   7.551   1.074   8.181 -1.2593  0.3492  0.6213
  613MOL0     C82683   7.475   1.203   8.241  0.0289 -0.2033  0.4252
  613MOL0     C82684   7.419   1.153   8.376  0.5152 -0.3690  0.2625
  613MOL0     C82685   7.403   1.104   8.486 -0.1080 -0.2330 -0.7201
  613MOL0     C82686   7.284   0.715   7.903  0.2004 -0.7517  0.4792
  613MOL0     C82687   7.223   0.752   7.779  0.0824 -0.4315 -0.3459
  613MOL0     H82688   6.955   1.068   7.515  2.5125  2.2627 -1.6459
  613MOL0     H82689   6.815   1.118   7.294  1.0969  0.5087  0.1618
  613MOL0     H82690   6.629   1.004   7.163 -1.8072 -1.9065 -1.8697
  613MOL0     H82691   6.711   1.132   7.062  0.7936 -0.5151 -4.1432
  613MOL0     H82692   6.692   0.961   6.866 -1.2511 -0.8689 -0.3344
  613MOL0     H82693   6.609   0.858   6.966 -0.2670  0.2030 -0.7327
  613MOL0     H82694   6.426   0.977   6.870 -0.9245  0.7419  0.0009
  613MOL0     H82695   6.457   1.056   7.026 -1.2880 -1.7199  0.1257
  613MOL0     H82696   6.561   1.242   6.945 -0.8696  0.1779 -0.3930
  613MOL0     H82697   6.577   1.166   6.778  1.6443  2.1580  0.7032
  613MOL0     H82698   6.355   1.189   6.734 -0.9913 -0.6571  0.6916
  613MOL0     H82699   6.316   1.260   6.897  0.8028  6.4146  0.2409
  613MOL0     H82700   6.454   1.453   6.855  0.4614  0.3995 -0.2256
  613MOL0     H82701   6.517   1.385   6.700  0.8876 -0.1145  0.7770
  613MOL0     H82702   6.276   1.421   6.611  0.0749 -3.3644  0.6796
  613MOL0     H82703   6.223   1.443   6.781  0.4606 -1.3974  0.1014
  613MOL0     H82704   6.427   1.623   6.640 -0.7840  3.9762  0.2224
  613MOL0     H82705   6.345   1.648   6.795  2.4482  0.1844  0.6480
  613MOL0     H82706   6.069   1.659   6.756  1.4144  1.0136  0.8876
  613MOL0     H82707   5.877   1.848   6.510  5.8616  1.6671  2.1379
  613MOL0     H82708   5.851   1.662   6.469  0.4443  0.4108 -0.3308
  613MOL0     H82709   5.831   1.769   6.739  1.9858  1.2494 -0.2357
  613MOL0     H82710   5.818   1.598   6.679  0.4777 -0.3750 -2.3798
  613MOL0     H82711   5.620   1.623   6.559 -1.3064  1.1532  0.0014
  613MOL0     H82712   5.643   1.801   6.556  0.5108 -0.2696 -0.3114
  613MOL0     H82713   5.613   1.643   6.817 -0.7113 -1.1757 -0.3272
  613MOL0     H82714   5.476   1.699   6.721  1.1272  0.7168 -3.1993
  613MOL0     H82715   5.619   2.029   6.964  0.4783 -0.3883  1.6131
  613MOL0     H82716   5.409   2.219   7.188 -0.5409 -0.9386 -1.1247
  613MOL0     H82717   5.534   2.123   7.269 -1.0182  1.8459  0.0589
  613MOL0     H82718   5.572   2.201   7.122  2.4442 -0.9288  1.3509
  613MOL0     H82719   5.108   2.135   7.407  1.8341  0.5477 -0.8481
  613MOL0     H82720   5.044   2.244   7.607 -0.9085  0.3119  0.9238
  613MOL0     H82721   5.286   2.447   7.902  4.7397 -1.1018 -1.9911
  613MOL0     H82722   5.265   2.436   7.728 -0.8212  0.6874  0.5098
  613MOL0     H82723   5.081   2.556   7.757  2.0407  0.7202  2.5937
  613MOL0     H82724   5.006   2.400   7.784 -0.1507  1.6538 -1.8460
  613MOL0     H82725   4.939   2.584   7.943  1.7084  3.2964 -0.0511
  613MOL0     H82726   5.102   2.584   8.000  0.2484  1.7769 -2.8835
  613MOL0     H82727   4.946   2.316   7.989 -1.0246  0.9342 -0.0121
  613MOL0     H82728   5.082   2.365   8.097 -0.1884 -3.1262 -1.3484
  613MOL0     H82729   4.898   2.531   8.212  1.3829 -0.9417  0.8428
  613MOL0     H82730   4.879   2.367   8.247  0.7610 -2.9555 -1.7806
  613MOL0     H82731   4.725   2.511   8.026  3.5755 -1.7958 -2.0347
  613MOL0     H82732   4.724   2.336   8.043 -0.0283  0.6780 -0.8404
  613MOL0     H82733   4.540   2.468   8.142 -0.0292  0.2003  0.0110
  613MOL0     H82734   4.637   2.526   8.269  1.3296  0.5642 -1.1745
  613MOL0     H82735   4.693   2.312   8.351 -0.3637 -0.1964 -0.8221
  613MOL0     H82736   4.624   2.227   8.207 -1.9678 -0.7612 -0.2978
  613MOL0     H82737   5.417   2.131   7.787  0.3764 -0.5836 -0.4341
  613MOL0     H82738   5.479   1.994   7.583  0.5229 -0.0004  1.9419
  613MOL0     H82739   5.220   1.781   7.092  1.0060 -0.5197  5.1184
  613MOL0     H82740   5.355   1.696   6.917 -2.9567 -0.7962  3.3879
  613MOL0     H82741   6.955   0.768   7.132 -3.1773 -0.2223  0.0540
  613MOL0     H82742   7.111   0.715   7.337 -2.2542 -2.3864 -1.7209
  613MOL0     H82743   7.486   0.908   7.630 -2.0319  1.0563 -0.2862
  613MOL0     H82744   7.589   0.846   7.839 -0.6455  2.6634  1.3655
  613MOL0     H82745   7.593   0.797   8.197 -0.0539 -2.8406 -1.1466
  613MOL0     H82746   7.618   0.870   8.040  2.0328  0.9265  2.2827
  613MOL0     H82747   7.416   0.923   8.252 -0.9873  1.3423 -0.1951
  613MOL0     H82748   7.377   0.970   8.090 -1.3563 -3.3983  0.3803
  613MOL0     H82749   7.589   1.097   8.081 -0.2000 -0.9459  0.7037
  613MOL0     H82750   7.636   1.044   8.242  1.5546  0.6728 -2.8388
  613MOL0     H82751   7.388   1.233   8.182  0.3741 -3.1423 -1.8624
  613MOL0     H82752   7.534   1.292   8.263 -0.0368 -1.0216  4.7044
  613MOL0     H82753   7.385   1.061   8.583  3.5175 -0.6049 -0.0692
  613MOL0     H82754   7.235   0.667   7.988 -4.4851  0.1790 -1.4330
  613MOL0     H82755   7.124   0.716   7.751  0.6320 -1.2183 -1.3568
  614MOL0     O82756   6.171   7.288   4.000  0.4855 -0.8819  0.9757
  614MOL0     C82757   6.201   7.405   4.015  1.1170 -0.5818 -0.3788
  614MOL0     O82758   6.122   7.512   4.032 -0.1932 -0.5457 -0.4872
  614MOL0     C82759   5.990   7.496   4.065  0.6079 -0.7249 -0.2505
  614MOL0     C82760   5.943   7.397   4.152  0.5356 -1.6226 -0.7371
  614MOL0     C82761   5.805   7.394   4.186  0.0852  0.0629  0.8288
  614MOL0     C82762   5.711   7.491   4.140 -0.3347 -0.3079  0.1773
  614MOL0     O82763   5.578   7.500   4.170  0.2545  0.1550  0.0241
  614MOL0     C82764   5.521   7.397   4.256  0.0835  0.3270 -0.1475
  614MOL0     C82765   5.366   7.387   4.254  1.1692  0.3009 -0.2525
  614MOL0     C82766   5.280   7.514   4.256 -0.4059 -0.2687 -0.0762
  614MOL0     C82767   5.136   7.481   4.313 -0.4417  0.9496  0.5600
  614MOL0     C82768   5.072   7.377   4.220 -1.1948 -0.9248 -0.1323
  614MOL0     C82769   4.927   7.354   4.275  0.3913  0.7619 -0.0449
  614MOL0     C82770   4.878   7.226   4.207  0.2829 -0.6386  0.0879
  614MOL0     C82771   4.756   7.171   4.278  0.2619 -0.1585 -0.2971
  614MOL0     N82772   4.648   7.274   4.275 -0.3295 -0.3444  0.3193
  614MOL0     C82773   4.554   7.277   4.178  1.3080  0.1637 -0.0245
  614MOL0     C82774   4.480   7.382   4.232 -0.0431  1.4412 -1.2861
  614MOL0     C82775   4.368   7.437   4.145 -0.1315  0.0481 -0.2241
  614MOL0     C82776   4.258   7.488   4.238  0.5968 -0.6804  1.0944
  614MOL0     C82777   4.126   7.501   4.157  0.3460  0.4292 -0.3269
  614MOL0     C82778   4.008   7.573   4.233 -0.7954 -0.3274 -0.6669
  614MOL0     O82779   3.956   7.495   4.340  0.0992  0.1278 -0.5440
  614MOL0     C82780   3.818   7.481   4.361 -0.3787  1.4791 -0.1060
  614MOL0     C82781   3.773   7.390   4.457 -0.2454  0.5868  0.1186
  614MOL0     C82782   3.643   7.353   4.480  0.8634 -0.8908 -0.4856
  614MOL0     C82783   3.618   7.237   4.576  0.2219 -0.3369  0.0222
  614MOL0     C82784   3.543   7.402   4.398  0.3964 -1.1430 -0.4792
  614MOL0     C82785   3.403   7.366   4.421  0.4955  0.3959  0.0977
  614MOL0     O82786   3.337   7.315   4.315 -0.4564  0.5791 -0.5376
  614MOL0     C82787   3.203   7.295   4.308  0.6773 -0.4247  0.1882
  614MOL0     C82788   3.157   7.226   4.196 -0.6993  0.3436 -0.8143
  614MOL0     C82789   3.026   7.171   4.197  0.0577 -0.1927  0.4967
  614MOL0     C82790   2.941   7.202   4.297  1.5326 -1.0541  0.3656
  614MOL0     O82791   2.808   7.153   4.292  0.2881 -0.2176  0.3316
  614MOL0     C82792   2.749   7.109   4.418 -0.4739 -0.6049 -0.1587
  614MOL0     C82793   2.668   6.978   4.404 -0.1971  0.1179  0.5580
  614MOL0     C82794   2.759   6.862   4.428 -0.4788  0.1532  0.0608
  614MOL0     C82795   2.696   6.731   4.371  0.2610  0.6420  0.5323
  614MOL0     C82796   2.776   6.607   4.365  0.3205  0.6233  0.0014
  614MOL0     C82797   2.727   6.492   4.273 -0.4730 -0.7222 -0.0878
  614MOL0     C82798   2.822   6.370   4.289 -0.5403  0.0363 -0.6630
  614MOL0     C82799   2.938   6.385   4.188 -0.0585  0.4395  0.0790
  614MOL0    Cl82800   3.069   6.266   4.219 -0.2019 -0.2640 -0.3185
  614MOL0     C82801   2.981   7.283   4.396 -0.5747  0.2188  0.8269
  614MOL0     C82802   3.115   7.329   4.404 -0.0323  0.1899  0.4041
  614MOL0     O82803   3.363   7.374   4.537 -0.1342 -0.2443  0.0838
  614MOL0     C82804   3.573   7.505   4.305 -0.4816  0.7359 -1.1328
  614MOL0     C82805   3.710   7.541   4.290  0.5169  0.8481  1.1689
  614MOL0     N82806   4.529   7.421   4.358  0.1687  0.0779 -0.1339
  614MOL0     N82807   4.637   7.358   4.375 -0.0423 -0.0893 -0.2892
  614MOL0     C82808   5.767   7.584   4.045 -0.1493 -0.7913  0.6780
  614MOL0     C82809   5.896   7.593   4.014  0.5190 -0.2343 -0.4555
  614MOL0     C82810   6.341   7.424   4.013  0.0076 -0.2808 -0.3037
  614MOL0     C82811   6.432   7.319   3.978  0.5131  1.1726 -0.3044
  614MOL0     C82812   6.560   7.352   3.956 -0.4253  0.1987  0.8370
  614MOL0     C82813   6.620   7.487   3.979 -0.9184 -0.5960 -0.4609
  614MOL0     O82814   6.750   7.528   3.960  0.4760 -0.8848  1.5049
  614MOL0     C82815   6.856   7.437   3.911 -0.1397  0.0303 -0.2702
  614MOL0     C82816   6.894   7.354   4.037 -0.3858  0.8189  0.7831
  614MOL0     C82817   6.944   7.445   4.149 -0.1197 -0.6897 -0.5663
  614MOL0     C82818   6.983   7.371   4.284  0.1973 -0.0195  0.1240
  614MOL0     C82819   7.044   7.479   4.374 -0.0380 -0.1764 -0.3303
  614MOL0     C82820   7.086   7.564   4.451 -0.1874 -0.4827 -0.6642
  614MOL0     C82821   6.524   7.585   4.011  0.1638  0.5722 -0.0427
  614MOL0     C82822   6.388   7.558   4.029 -0.4131 -0.2000 -0.4116
  614MOL0     H82823   6.021   7.347   4.208 -0.5328 -0.6966  1.6867
  614MOL0     H82824   5.773   7.302   4.234 -2.2251 -4.0408 -6.8534
  614MOL0     H82825   5.558   7.298   4.227  0.2740  0.6868 -1.1789
  614MOL0     H82826   5.543   7.427   4.359 -1.0329  3.0087 -0.6142
  614MOL0     H82827   5.345   7.340   4.158 -1.2516 -0.4796  0.5917
  614MOL0     H82828   5.325   7.327   4.336 -1.6870 -0.7793 -2.3147
  614MOL0     H82829   5.326   7.589   4.321 -1.6336 -2.0860  3.1437
  614MOL0     H82830   5.263   7.552   4.156  1.5829  3.0093  0.6839
  614MOL0     H82831   5.137   7.438   4.414  3.6682  2.0441  1.1799
  614MOL0     H82832   5.098   7.582   4.329 -2.0103  0.6928 -1.1863
  614MOL0     H82833   5.077   7.410   4.116  1.9837 -2.4408 -0.5736
  614MOL0     H82834   5.132   7.285   4.222  2.1961  0.9953 -2.5148
  614MOL0     H82835   4.944   7.342   4.383 -2.7273  1.9107  0.6988
  614MOL0     H82836   4.851   7.431   4.261 -3.0443 -2.1185  1.2022
  614MOL0     H82837   4.852   7.250   4.103  3.4172 -1.4580 -1.0008
  614MOL0     H82838   4.955   7.148   4.208 -0.3275 -1.3259 -1.9136
  614MOL0     H82839   4.784   7.148   4.382 -1.0328 -1.7835 -0.2696
  614MOL0     H82840   4.733   7.074   4.233  1.4947  0.5053 -2.5311
  614MOL0     H82841   4.544   7.230   4.081 -1.2821 -0.8385  0.6384
  614MOL0     H82842   4.400   7.514   4.076  0.4800  0.6492  0.7051
  614MOL0     H82843   4.324   7.350   4.095 -4.1203  1.7946 -0.1516
  614MOL0     H82844   4.266   7.589   4.278 -0.8500  1.1491 -2.7015
  614MOL0     H82845   4.234   7.409   4.311  0.6591 -2.4070 -0.6653
  614MOL0     H82846   4.103   7.398   4.128  1.8639 -0.0727  0.1464
  614MOL0     H82847   4.151   7.562   4.070 -3.7406  3.7723  0.5280
  614MOL0     H82848   3.923   7.589   4.166 -0.4859 -0.7709 -1.1747
  614MOL0     H82849   4.042   7.673   4.262  1.6017 -0.8644 -1.3442
  614MOL0     H82850   3.844   7.337   4.521 -0.5098  1.5418  1.2506
  614MOL0     H82851   3.615   7.266   4.681  1.9395  0.1322 -0.0379
  614MOL0     H82852   3.533   7.172   4.550  0.8115 -1.4334  0.7539
  614MOL0     H82853   3.707   7.174   4.568  0.5004 -0.3383  2.4096
  614MOL0     H82854   3.236   7.196   4.129  0.0355 -1.1063  0.6166
  614MOL0     H82855   3.000   7.110   4.111  2.1770 -0.9821  0.3577
  614MOL0     H82856   2.830   7.092   4.489 -2.3749 -2.7810  1.6476
  614MOL0     H82857   2.684   7.185   4.461  1.0534 -1.3798  4.0236
  614MOL0     H82858   2.584   6.976   4.475  0.8867  4.1117  2.2265
  614MOL0     H82859   2.629   6.981   4.302 -0.6121  0.6617  0.7277
  614MOL0     H82860   2.782   6.846   4.533  0.6999 -1.8018 -0.4544
  614MOL0     H82861   2.860   6.880   4.389  1.1233 -2.8144  2.4274
  614MOL0     H82862   2.617   6.691   4.435  0.2060  0.1777  0.1803
  614MOL0     H82863   2.651   6.755   4.274 -2.1194  3.1400  2.1002
  614MOL0     H82864   2.762   6.562   4.464 -1.6969  0.0742 -0.4758
  614MOL0     H82865   2.880   6.628   4.341  0.2643 -0.7653 -1.6516
  614MOL0     H82866   2.622   6.472   4.296 -0.3676 -0.4676  0.6521
  614MOL0     H82867   2.724   6.523   4.168 -1.5232 -3.2088 -0.8721
  614MOL0     H82868   2.761   6.281   4.272 -2.9846  0.5645  3.6815
  614MOL0     H82869   2.863   6.362   4.390  0.8099 -2.0081 -1.3303
  614MOL0     H82870   2.981   6.486   4.185  0.0208  0.4732  1.5381
  614MOL0     H82871   2.900   6.368   4.087  1.6059 -0.0314 -0.4864
  614MOL0     H82872   2.915   7.315   4.476 -1.3022  1.2287 -0.1503
  614MOL0     H82873   3.131   7.386   4.494 -3.5867  1.4632  0.3760
  614MOL0     H82874   3.499   7.559   4.247  0.1978 -1.5228 -4.4061
  614MOL0     H82875   3.734   7.627   4.228  0.2513 -0.6610 -1.1425
  614MOL0     H82876   5.694   7.652   4.002  0.5825 -1.2053 -1.3249
  614MOL0     H82877   5.938   7.680   3.966  2.5889 -0.2871  1.0831
  614MOL0     H82878   6.403   7.217   3.953 -1.7344  1.7458 -0.2576
  614MOL0     H82879   6.624   7.273   3.920 -2.1417 -1.7351  1.7837
  614MOL0     H82880   6.818   7.373   3.831 -2.2852  1.8314 -0.8114
  614MOL0     H82881   6.930   7.509   3.877 -0.6675  0.2521 -0.9652
  614MOL0     H82882   6.975   7.290   4.002 -1.3213  0.4875 -0.9041
  614MOL0     H82883   6.809   7.293   4.067 -0.6393  0.7828  0.0121
  614MOL0     H82884   6.862   7.514   4.171 -0.2511 -1.5273  2.0037
  614MOL0     H82885   7.034   7.497   4.116 -0.9158  0.1818 -1.3954
  614MOL0     H82886   7.055   7.297   4.249 -0.8708 -0.8595 -0.3577
  614MOL0     H82887   6.903   7.311   4.327 -1.4273  0.6384 -1.8314
  614MOL0     H82888   7.117   7.649   4.509  0.0036 -0.6899 -0.4636
  614MOL0     H82889   6.551   7.690   4.012  0.8469  0.4627 -2.2341
  614MOL0     H82890   6.330   7.648   4.046  2.0614  1.6744 -1.1923
  615MOL0     O82891   5.192   4.033   4.881  0.1110  0.2947  0.3323
  615MOL0     C82892   5.141   4.051   4.991  0.2398  0.2571  0.0530
  615MOL0     O82893   5.012   4.076   5.017  0.4501  0.4673  0.6396
  615MOL0     C82894   4.922   4.060   4.919  0.1075  0.4261  1.0325
  615MOL0     C82895   4.943   4.091   4.780 -0.9731  0.5670 -0.3124
  615MOL0     C82896   4.834   4.052   4.695  0.4912  0.5354 -0.0884
  615MOL0     C82897   4.707   4.005   4.739 -0.2288 -1.3930 -0.4405
  615MOL0     O82898   4.602   3.987   4.653 -0.1632 -0.5133  0.0202
  615MOL0     C82899   4.616   4.033   4.512  0.3374  0.4392  0.0410
  615MOL0     C82900   4.491   3.997   4.431  0.2490 -0.3397  0.2677
  615MOL0     C82901   4.397   4.126   4.411  0.3337 -0.2788  0.4635
  615MOL0     C82902   4.274   4.091   4.324  0.9039 -0.3485 -1.2924
  615MOL0     C82903   4.171   4.207   4.319 -0.3209  0.7042  0.9300
  615MOL0     C82904   4.046   4.183   4.237 -0.0342  0.1049 -0.9965
  615MOL0     C82905   3.953   4.088   4.320  0.7005 -0.5779 -0.3241
  615MOL0     C82906   3.832   4.039   4.243 -0.8811  0.1226  0.2205
  615MOL0     N82907   3.736   3.968   4.335 -0.3803 -0.1170 -0.4757
  615MOL0     C82908   3.685   3.843   4.304  0.5253  0.4167  0.2325
  615MOL0     C82909   3.575   3.833   4.379  0.9881  0.0595  0.6532
  615MOL0     C82910   3.477   3.720   4.392 -0.3303  0.2193  0.1575
  615MOL0     C82911   3.388   3.696   4.265 -0.7150 -0.2916 -1.3023
  615MOL0     C82912   3.322   3.822   4.207  0.3873  0.2832 -0.8742
  615MOL0     C82913   3.222   3.893   4.307 -0.2128 -0.4786 -0.1874
  615MOL0     O82914   3.175   4.022   4.262  0.1398  0.1581  0.6372
  615MOL0     C82915   3.085   4.101   4.326  1.0591  0.7129 -0.1850
  615MOL0     C82916   3.053   4.085   4.467 -0.2796  0.2984  0.0543
  615MOL0     C82917   2.939   4.153   4.522  0.0988  0.2085  0.2372
  615MOL0     C82918   2.908   4.116   4.663  0.3234 -0.0433 -0.4763
  615MOL0     C82919   2.878   4.258   4.446 -0.3827 -0.0791  0.4152
  615MOL0     C82920   2.781   4.350   4.512 -0.3381 -0.5913  0.9781
  615MOL0     O82921   2.704   4.297   4.611  0.6242 -0.1662  0.2683
  615MOL0     C82922   2.621   4.383   4.688  0.1771  0.4847 -0.0702
  615MOL0     C82923   2.664   4.508   4.729 -0.1794  0.1158 -0.6621
  615MOL0     C82924   2.576   4.607   4.779 -0.8041 -0.3443 -0.8739
  615MOL0     C82925   2.449   4.567   4.811 -0.1564 -0.0292  1.0861
  615MOL0     O82926   2.387   4.671   4.879 -0.0933  0.2472 -0.6467
  615MOL0     C82927   2.275   4.629   4.969 -1.1389  0.2046  0.5085
  615MOL0     C82928   2.267   4.731   5.083 -0.4427 -0.3702  0.6057
  615MOL0     C82929   2.122   4.761   5.135 -0.3344 -1.0390 -0.8848
  615MOL0     C82930   2.140   4.890   5.221  0.3862 -0.6613  0.1591
  615MOL0     C82931   2.017   4.939   5.288 -0.3991 -0.1043  0.0353
  615MOL0     C82932   1.962   4.850   5.391  0.2377  0.1764 -0.1135
  615MOL0     C82933   1.868   4.914   5.492  0.4902  0.4376  0.1817
  615MOL0     C82934   1.731   4.858   5.462 -0.3561 -1.1483  0.2477
  615MOL0    Cl82935   1.601   4.945   5.556  0.2464 -0.2789  0.2835
  615MOL0     C82936   2.394   4.449   4.760  0.3218 -0.4802 -0.4236
  615MOL0     C82937   2.483   4.359   4.697 -0.5637  0.1075  0.1674
  615MOL0     O82938   2.755   4.451   4.449  1.3510  0.5548  0.3042
  615MOL0     C82939   2.923   4.280   4.314  0.0017 -0.1068 -0.3649
  615MOL0     C82940   3.020   4.198   4.258  1.1602 -0.3689 -0.0123
  615MOL0     N82941   3.554   3.947   4.448 -0.4996 -0.0624 -0.1517
  615MOL0     N82942   3.665   4.021   4.432  0.3855  0.4947  0.3134
  615MOL0     C82943   4.695   3.969   4.867 -0.5709 -0.7672 -0.4493
  615MOL0     C82944   4.804   3.997   4.961  0.9015  0.7260  0.0528
  615MOL0     C82945   5.238   4.072   5.112  0.6938 -1.0715 -1.1334
  615MOL0     C82946   5.198   4.122   5.243 -0.0850 -0.0870  0.1307
  615MOL0     C82947   5.299   4.142   5.341 -0.7482 -0.3877 -0.7169
  615MOL0     C82948   5.432   4.107   5.317 -1.7597  0.6947  0.2458
  615MOL0     O82949   5.526   4.153   5.407 -0.1873 -0.3129  0.7749
  615MOL0     C82950   5.582   4.282   5.379  0.2721  0.3934  0.3419
  615MOL0     C82951   5.688   4.282   5.264 -0.7091 -0.2243  0.1072
  615MOL0     C82952   5.811   4.190   5.284 -0.4054 -0.8555  0.0952
  615MOL0     C82953   5.896   4.180   5.160  0.6802  0.2071  0.9817
  615MOL0     C82954   5.838   4.085   5.067  0.0192  0.2093  0.2355
  615MOL0     C82955   5.788   4.004   4.992  0.2487 -0.4497 -0.2525
  615MOL0     C82956   5.477   4.046   5.192  1.2219  0.1483 -0.8245
  615MOL0     C82957   5.369   4.036   5.091 -0.1584  0.3949  0.2369
  615MOL0     H82958   5.028   4.145   4.738  0.6927 -0.2864  1.7791
  615MOL0     H82959   4.849   4.056   4.587 -3.3261  3.1979 -0.7530
  615MOL0     H82960   4.612   4.142   4.520 -0.7055  0.3253  1.4417
  615MOL0     H82961   4.699   3.991   4.454  1.2935  1.9200  0.2672
  615MOL0     H82962   4.518   3.969   4.328 -3.1807 -2.2859 -0.2721
  615MOL0     H82963   4.432   3.915   4.472 -2.0320 -0.6742 -3.1928
  615MOL0     H82964   4.369   4.162   4.511 -2.0669  0.3611 -0.3642
  615MOL0     H82965   4.453   4.201   4.353  1.1826 -0.6390  0.7983
  615MOL0     H82966   4.314   4.067   4.225  2.8608  0.9087 -0.8715
  615MOL0     H82967   4.227   3.999   4.361  0.0032 -0.4282 -2.5499
  615MOL0     H82968   4.138   4.229   4.421  0.5125  2.7929  0.7816
  615MOL0     H82969   4.215   4.290   4.263 -0.9032 -0.4076 -1.2962
  615MOL0     H82970   3.992   4.278   4.228  0.7668  0.6146 -0.5790
  615MOL0     H82971   4.060   4.133   4.141 -0.5093  0.8648 -1.4725
  615MOL0     H82972   4.004   3.996   4.350  0.3862 -0.9249 -0.8395
  615MOL0     H82973   3.927   4.137   4.415 -1.8770 -1.3546 -0.5512
  615MOL0     H82974   3.870   3.978   4.162 -1.0730  1.5329 -0.9727
  615MOL0     H82975   3.790   4.125   4.190 -0.2082 -0.2047 -0.8640
  615MOL0     H82976   3.724   3.763   4.242 -3.0731 -0.6291 -0.9321
  615MOL0     H82977   3.541   3.631   4.398 -0.5988 -0.0635 -0.9002
  615MOL0     H82978   3.414   3.749   4.476  0.4524 -1.4649  1.3936
  615MOL0     H82979   3.326   3.609   4.290  4.1157 -3.6902  0.5385
  615MOL0     H82980   3.462   3.655   4.195  0.4477 -0.7430  0.1155
  615MOL0     H82981   3.268   3.785   4.119  0.3540  1.5717 -1.4207
  615MOL0     H82982   3.397   3.894   4.172 -2.2488  2.1015 -3.2150
  615MOL0     H82983   3.258   3.901   4.410  1.4822  1.8143 -0.8883
  615MOL0     H82984   3.135   3.827   4.311 -0.8975  0.4620  2.4485
  615MOL0     H82985   3.110   4.017   4.528  0.9134  1.4178  0.2426
  615MOL0     H82986   2.808   4.075   4.683 -0.7754  2.8892  0.6040
  615MOL0     H82987   2.981   4.048   4.709  2.4442  2.3696 -0.0624
  615MOL0     H82988   2.919   4.212   4.714 -0.8563 -0.8251  1.3465
  615MOL0     H82989   2.770   4.532   4.733  0.4711 -2.4982  2.5764
  615MOL0     H82990   2.626   4.698   4.811 -0.9674  0.1373 -1.9428
  615MOL0     H82991   2.178   4.643   4.920 -0.8837  1.8387  0.4171
  615MOL0     H82992   2.282   4.527   5.009 -1.2069  1.5007  4.0893
  615MOL0     H82993   2.345   4.705   5.155  0.8743 -1.8804 -1.2683
  615MOL0     H82994   2.307   4.826   5.047  0.9767 -0.5728  1.5721
  615MOL0     H82995   2.080   4.680   5.196 -2.4235  1.3071  1.0090
  615MOL0     H82996   2.042   4.775   5.061  0.8862  1.3863 -1.8453
  615MOL0     H82997   2.225   4.892   5.290 -1.0797 -3.1454  2.2359
  615MOL0     H82998   2.164   4.969   5.149  0.4565  0.1387  1.0285
  615MOL0     H82999   1.936   4.966   5.219  0.6092  1.5816 -0.5497
  615MOL0     H83000   2.055   5.023   5.346 -0.2203 -1.6435  2.2512
  615MOL0     H83001   1.911   4.766   5.345 -1.9343  2.1044 -1.4707
  615MOL0     H83002   2.046   4.812   5.451  0.4696 -2.0848 -1.7776
  615MOL0     H83003   1.871   5.023   5.479  0.6175  0.2771 -1.2109
  615MOL0     H83004   1.891   4.896   5.598  2.5598 -0.6746 -0.4051
  615MOL0     H83005   1.718   4.756   5.499  0.3621 -0.6890  1.8966
  615MOL0     H83006   1.712   4.858   5.355  2.7982 -0.1306 -0.4250
  615MOL0     H83007   2.288   4.428   4.761 -0.5720  3.2454 -1.7078
  615MOL0     H83008   2.438   4.264   4.670  0.8710 -0.4812 -0.2115
  615MOL0     H83009   2.891   4.369   4.261  2.3700  1.1749  0.1846
  615MOL0     H83010   3.048   4.229   4.158  0.2796  0.1986 -0.0941
  615MOL0     H83011   4.598   3.934   4.902 -0.4600  2.2739  3.6717
  615MOL0     H83012   4.776   3.971   5.063 -2.7343 -4.2836 -1.7690
  615MOL0     H83013   5.102   4.166   5.265  1.4406  3.3083  0.7221
  615MOL0     H83014   5.272   4.199   5.429 -1.7434 -0.8180 -0.7366
  615MOL0     H83015   5.506   4.349   5.338  1.2536  0.5487 -1.2827
  615MOL0     H83016   5.614   4.318   5.477 -2.1093 -0.5099  1.5357
  615MOL0     H83017   5.729   4.383   5.254 -1.9523  0.2699 -0.0989
  615MOL0     H83018   5.642   4.266   5.166 -1.3716  2.5638 -0.1130
  615MOL0     H83019   5.775   4.091   5.315  2.7400 -1.9616  0.5871
  615MOL0     H83020   5.868   4.239   5.363 -1.8639 -2.6489  2.3899
  615MOL0     H83021   6.000   4.148   5.170  0.5341 -0.5241  0.2444
  615MOL0     H83022   5.897   4.280   5.116 -2.1466  0.0055  0.2959
  615MOL0     H83023   5.746   3.938   4.919  0.6686 -1.1834  0.1500
  615MOL0     H83024   5.580   4.014   5.180  2.0414  0.9921  2.8192
  615MOL0     H83025   5.386   3.973   5.005 -0.3255 -0.4324  0.8044
  616MOL0     O83026   5.941   5.022   0.015  0.0841 -0.2423  0.6653
  616MOL0     C83027   5.970   4.952  -0.079 -0.6037  0.0518 -0.0872
  616MOL0     O83028   5.885   4.920  -0.189  0.0078 -0.1701  0.1020
  616MOL0     C83029   5.745   4.936  -0.198 -0.4590 -0.0414  0.4582
  616MOL0     C83030   5.666   4.988  -0.095  0.2784  0.7484  0.0211
  616MOL0     C83031   5.529   4.998  -0.123  0.5373  0.5543 -0.0435
  616MOL0     C83032   5.475   4.958  -0.250  0.3145 -0.1242 -0.1903
  616MOL0     O83033   5.337   4.964  -0.270 -0.5692 -0.1633 -0.0009
  616MOL0     C83034   5.274   5.084  -0.241 -0.4409  0.5123 -1.2306
  616MOL0     C83035   5.127   5.077  -0.301  0.1627 -0.3097 -0.4165
  616MOL0     C83036   5.067   5.215  -0.313 -0.0171 -0.0209 -0.1316
  616MOL0     C83037   4.950   5.227  -0.409 -0.2841  0.9627  0.3590
  616MOL0     C83038   4.903   5.374  -0.409 -0.2109  0.5463 -0.8199
  616MOL0     C83039   4.769   5.385  -0.485 -0.6295  0.6735  0.1183
  616MOL0     C83040   4.646   5.334  -0.409 -0.4210 -0.4273  0.5708
  616MOL0     C83041   4.605   5.405  -0.288 -0.6414 -0.0876  0.5350
  616MOL0     N83042   4.457   5.421  -0.281 -0.4930  0.8339  0.4184
  616MOL0     C83043   4.369   5.346  -0.199  0.2424 -0.3151  0.5604
  616MOL0     C83044   4.248   5.393  -0.238 -0.3957  0.6659 -0.9135
  616MOL0     C83045   4.118   5.344  -0.180 -0.4719 -0.5786 -0.1379
  616MOL0     C83046   4.036   5.253  -0.270 -0.3302  0.1143  0.1644
  616MOL0     C83047   3.882   5.259  -0.240  0.7199 -0.6056  0.1324
  616MOL0     C83048   3.808   5.404  -0.256 -0.7500  0.2668 -0.0982
  616MOL0     O83049   3.686   5.374  -0.187 -0.0536 -0.0930 -0.0782
  616MOL0     C83050   3.573   5.394  -0.264  0.2192  0.3824  0.1473
  616MOL0     C83051   3.546   5.306  -0.369  1.0392  0.7454  0.0517
  616MOL0     C83052   3.425   5.311  -0.443  0.2631 -0.7723 -0.2097
  616MOL0     C83053   3.397   5.208  -0.543  0.4132 -0.0241 -0.4207
  616MOL0     C83054   3.328   5.408  -0.412 -0.3271  0.8170  0.0831
  616MOL0     C83055   3.194   5.421  -0.471 -0.8036  0.2685 -0.3842
  616MOL0     O83056   3.121   5.525  -0.405 -0.0799  0.1594 -0.4211
  616MOL0     C83057   2.985   5.514  -0.423  0.7275  0.1086  0.3116
  616MOL0     C83058   2.931   5.543  -0.550  0.2362  0.7303  0.4726
  616MOL0     C83059   2.784   5.540  -0.570 -0.8788 -0.6767  0.3505
  616MOL0     C83060   2.692   5.510  -0.464  0.1545  0.1057 -0.3551
  616MOL0     O83061   2.552   5.503  -0.484 -0.4749  0.4660  0.4813
  616MOL0     C83062   2.460   5.498  -0.377 -0.4457  0.0144  0.0807
  616MOL0     C83063   2.312   5.481  -0.404 -0.6896  0.1606 -0.5265
  616MOL0     C83064   2.249   5.608  -0.466 -0.5573  0.7730  0.7311
  616MOL0     C83065   2.107   5.570  -0.523  0.0439 -0.0375 -0.0053
  616MOL0     C83066   2.061   5.678  -0.622  0.2063 -0.6782 -0.1375
  616MOL0     C83067   2.013   5.811  -0.558 -0.0555 -0.2504  0.5875
  616MOL0     C83068   1.947   5.903  -0.666 -0.9434 -0.5022 -0.4260
  616MOL0     C83069   1.967   6.051  -0.615  0.2924  0.4859  0.5299
  616MOL0    Cl83070   1.915   6.155  -0.753 -0.0853 -0.6300  0.6813
  616MOL0     C83071   2.750   5.469  -0.346 -0.0262 -0.7168  0.1665
  616MOL0     C83072   2.890   5.484  -0.324 -0.6724  1.0401 -0.1130
  616MOL0     O83073   3.158   5.360  -0.572  0.3765 -0.5557 -0.0755
  616MOL0     C83074   3.371   5.506  -0.316 -0.3646  0.0839  0.0797
  616MOL0     C83075   3.491   5.503  -0.247 -0.2789  0.5379  0.6296
  616MOL0     N83076   4.262   5.491  -0.335  0.2550 -0.4448 -0.0678
  616MOL0     N83077   4.384   5.499  -0.366  0.3817  0.1488 -0.4804
  616MOL0     C83078   5.556   4.894  -0.342  0.2064  0.6521 -0.1663
  616MOL0     C83079   5.693   4.893  -0.318 -0.0809 -0.0787  0.2816
  616MOL0     C83080   6.113   4.908  -0.089 -0.2833  0.9134 -1.1043
  616MOL0     C83081   6.156   4.804  -0.183 -0.9751 -0.2999  0.3062
  616MOL0     C83082   6.286   4.748  -0.179  0.6829  0.1184 -0.0037
  616MOL0     C83083   6.383   4.797  -0.075  0.5478  1.0796 -0.0911
  616MOL0     O83084   6.506   4.756  -0.081 -0.3383  0.1220 -0.5942
  616MOL0     C83085   6.538   4.641  -0.160 -1.1707 -0.8835  0.5720
  616MOL0     C83086   6.686   4.592  -0.154 -0.1206  0.2411 -0.5970
  616MOL0     C83087   6.775   4.668  -0.256 -1.1169 -0.7765 -0.1699
  616MOL0     C83088   6.894   4.572  -0.309 -0.2334 -0.4000 -1.2477
  616MOL0     C83089   6.966   4.636  -0.419  0.8290 -0.5578 -0.3331
  616MOL0     C83090   7.019   4.701  -0.512  0.6717  0.3528 -0.1423
  616MOL0     C83091   6.340   4.892   0.013  0.1260  0.1026  0.4850
  616MOL0     C83092   6.213   4.951   0.011  0.7118  0.4708  0.3551
  616MOL0     H83093   5.696   5.026   0.002 -1.1474  1.3535  0.2491
  616MOL0     H83094   5.457   5.023  -0.045  1.7559 -0.5652  1.4989
  616MOL0     H83095   5.267   5.098  -0.133 -2.3053  1.1215 -1.3852
  616MOL0     H83096   5.318   5.172  -0.288  2.3229  0.3151  0.7453
  616MOL0     H83097   5.136   5.024  -0.396 -1.1765  1.2664 -1.4793
  616MOL0     H83098   5.062   5.023  -0.232 -0.9293  2.6114  0.9942
  616MOL0     H83099   5.047   5.261  -0.216  0.0282 -0.7652  0.2354
  616MOL0     H83100   5.136   5.285  -0.360 -0.8862  0.2821 -1.0082
  616MOL0     H83101   4.974   5.179  -0.504 -0.3115  1.3675  0.1486
  616MOL0     H83102   4.874   5.167  -0.357  1.9741 -0.4440  2.2509
  616MOL0     H83103   4.893   5.401  -0.303 -0.0717  2.9557 -1.3605
  616MOL0     H83104   4.982   5.431  -0.459  0.8329  2.9019  3.0914
  616MOL0     H83105   4.768   5.493  -0.502  1.7542  0.3827 -2.7140
  616MOL0     H83106   4.778   5.339  -0.584  0.5663  2.7487 -0.8010
  616MOL0     H83107   4.568   5.350  -0.484 -0.8821  1.0173  1.3275
  616MOL0     H83108   4.654   5.225  -0.395  0.4085 -0.3613  0.6999
  616MOL0     H83109   4.648   5.505  -0.302 -2.0399  0.2345 -2.2931
  616MOL0     H83110   4.647   5.363  -0.196 -0.3145 -1.9351 -0.4114
  616MOL0     H83111   4.397   5.275  -0.123 -2.4077 -2.7221 -0.5516
  616MOL0     H83112   4.134   5.295  -0.083 -0.4029  0.4057  0.3670
  616MOL0     H83113   4.057   5.430  -0.148 -1.3721 -2.1404  2.7197
  616MOL0     H83114   4.070   5.151  -0.254  0.5689  0.6613  1.9856
  616MOL0     H83115   4.049   5.281  -0.375 -0.4695 -1.0545 -0.1806
  616MOL0     H83116   3.865   5.223  -0.138  0.0604  1.3918  0.7921
  616MOL0     H83117   3.841   5.193  -0.316 -0.0117 -0.9601  0.8168
  616MOL0     H83118   3.795   5.427  -0.361  2.3823  0.3528 -0.5675
  616MOL0     H83119   3.866   5.486  -0.214  1.2454 -0.5578 -1.0900
  616MOL0     H83120   3.614   5.227  -0.397 -0.6493  0.0381 -2.4191
  616MOL0     H83121   3.453   5.115  -0.526  4.0972  2.2001  0.6120
  616MOL0     H83122   3.296   5.171  -0.525  0.0692  0.5430 -1.1008
  616MOL0     H83123   3.401   5.242  -0.647 -0.7360  0.5432 -0.2980
  616MOL0     H83124   2.992   5.583  -0.631 -4.5649  0.5886 -3.6722
  616MOL0     H83125   2.747   5.549  -0.671  2.5664 -0.4942 -1.0461
  616MOL0     H83126   2.484   5.414  -0.312 -1.4196 -0.1796  0.1988
  616MOL0     H83127   2.468   5.586  -0.311 -1.2952  0.3797 -0.2913
  616MOL0     H83128   2.302   5.393  -0.467 -4.7931 -0.7377  1.0824
  616MOL0     H83129   2.265   5.458  -0.308 -0.9842  2.1011 -0.1632
  616MOL0     H83130   2.307   5.645  -0.550  1.0762  1.0921  1.9446
  616MOL0     H83131   2.248   5.690  -0.394 -1.4932  1.4234  0.0022
  616MOL0     H83132   2.121   5.479  -0.581  0.6693  1.3818 -2.1747
  616MOL0     H83133   2.042   5.555  -0.436  1.2762  1.5116  1.2399
  616MOL0     H83134   1.983   5.636  -0.686 -1.8284 -0.4298  2.0608
  616MOL0     H83135   2.143   5.704  -0.690  0.8161 -1.1131  0.4150
  616MOL0     H83136   1.939   5.784  -0.482 -1.1367 -0.8293 -0.6370
  616MOL0     H83137   2.100   5.856  -0.510 -0.0966  0.5538 -0.0806
  616MOL0     H83138   1.840   5.889  -0.677 -0.9844 -1.7156  1.1200
  616MOL0     H83139   2.013   5.900  -0.754  3.5783  1.6289  2.4790
  616MOL0     H83140   2.069   6.070  -0.583  0.7657  0.8614 -1.1018
  616MOL0     H83141   1.908   6.069  -0.525  1.7246  0.4557  1.5017
  616MOL0     H83142   2.676   5.444  -0.271 -2.5343 -1.3014 -2.3369
  616MOL0     H83143   2.922   5.432  -0.235 -1.1359 -3.4074 -2.2595
  616MOL0     H83144   3.300   5.579  -0.276 -0.0027  2.6667 -3.5219
  616MOL0     H83145   3.496   5.567  -0.160  3.1277  1.0046  0.2421
  616MOL0     H83146   5.516   4.852  -0.434 -0.0533 -0.7025  0.5492
  616MOL0     H83147   5.765   4.849  -0.386 -0.9917 -2.4012  0.7409
  616MOL0     H83148   6.090   4.767  -0.261  0.2997  2.2265 -2.1428
  616MOL0     H83149   6.310   4.680  -0.261  0.2150 -1.9031  1.4661
  616MOL0     H83150   6.474   4.559  -0.126  0.9710 -1.5841  3.2098
  616MOL0     H83151   6.524   4.671  -0.265 -1.4759 -3.6554 -0.2728
  616MOL0     H83152   6.678   4.486  -0.179  3.3813 -0.3668  0.2624
  616MOL0     H83153   6.732   4.597  -0.055  0.6785  0.1783 -0.9554
  616MOL0     H83154   6.823   4.755  -0.209  0.9931 -1.0661 -1.6349
  616MOL0     H83155   6.707   4.705  -0.333  0.5829 -0.7703 -1.7392
  616MOL0     H83156   6.857   4.480  -0.355  4.1607 -1.8142 -2.3563
  616MOL0     H83157   6.965   4.543  -0.230 -1.8460  0.2533  0.5340
  616MOL0     H83158   7.036   4.763  -0.597  2.4854 -0.9801 -0.8172
  616MOL0     H83159   6.416   4.928   0.082  0.5903 -1.2995  0.7470
  616MOL0     H83160   6.177   5.019   0.088  0.0835 -0.6297  1.0705
  617MOL0     O83161   8.390   9.217   5.649  0.3441  0.2030  0.0472
  617MOL0     C83162   8.351   9.276   5.551  0.2974 -0.2310  0.5861
  617MOL0     O83163   8.318   9.405   5.546 -0.0730 -1.0339 -0.3207
  617MOL0     C83164   8.323   9.468   5.667 -0.1619  1.1379 -0.8841
  617MOL0     C83165   8.248   9.426   5.781 -0.3115 -0.7378  0.0045
  617MOL0     C83166   8.253   9.493   5.898  0.3536  0.1769  0.1920
  617MOL0     C83167   8.323   9.608   5.913  0.3015  0.2196 -0.1872
  617MOL0     O83168   8.323   9.682   6.029  0.2322  0.5848  0.6214
  617MOL0     C83169   8.199   9.688   6.100  0.0756 -0.0791 -0.1314
  617MOL0     C83170   8.220   9.814   6.185 -0.2191 -0.4692 -0.5693
  617MOL0     C83171   8.107   9.861   6.280 -0.1481  1.6614 -0.2732
  617MOL0     C83172   8.153   9.986   6.353  0.1727  0.2541 -1.2971
  617MOL0     C83173   8.035  10.037   6.442 -0.1474  0.4579 -0.2495
  617MOL0     C83174   8.093  10.162   6.514 -0.7865 -0.4587  0.3644
  617MOL0     C83175   7.994  10.249   6.589 -0.4290 -1.1136  0.0078
  617MOL0     C83176   7.920  10.194   6.712 -0.5308 -0.1891 -0.5743
  617MOL0     N83177   7.805  10.272   6.758  0.2318  0.1775  1.0930
  617MOL0     C83178   7.797  10.323   6.885 -0.7934 -0.2165 -0.0581
  617MOL0     C83179   7.690  10.398   6.883  0.2650  0.4717  0.5927
  617MOL0     C83180   7.633  10.454   7.013  0.3435 -0.7545 -0.1772
  617MOL0     C83181   7.494  10.513   6.993  0.8565 -0.0941 -0.0957
  617MOL0     C83182   7.386  10.408   6.949 -0.2638  0.5329 -0.6936
  617MOL0     C83183   7.275  10.393   7.055 -0.2193  0.1961 -0.3659
  617MOL0     O83184   7.192  10.512   7.049  0.3885  0.1688  0.7210
  617MOL0     C83185   7.069  10.495   7.085  0.4487  0.2081 -0.7444
  617MOL0     C83186   6.961  10.518   6.999  0.0426 -0.2924  0.0120
  617MOL0     C83187   6.830  10.530   7.053 -0.9701  0.1695  0.2140
  617MOL0     C83188   6.727  10.578   6.955  0.2076  0.7245 -0.3190
  617MOL0     C83189   6.809  10.497   7.187 -0.3424 -1.0067 -0.5193
  617MOL0     C83190   6.679  10.512   7.255  0.8503 -0.1764  0.0002
  617MOL0     O83191   6.688  10.552   7.388  0.1944  0.2819  0.2075
  617MOL0     C83192   6.580  10.529   7.469  0.0295 -0.1430  0.1668
  617MOL0     C83193   6.528  10.641   7.541  0.0751  0.6146 -0.1177
  617MOL0     C83194   6.420  10.630   7.628  0.7054  0.0500  1.2753
  617MOL0     C83195   6.360  10.500   7.649  0.1911 -0.0139  0.4458
  617MOL0     O83196   6.253  10.466   7.728 -0.0891 -0.6113  0.1360
  617MOL0     C83197   6.181  10.549   7.811  0.0151 -0.1893 -0.4839
  617MOL0     C83198   6.081  10.627   7.723 -0.4738  0.0845 -0.5965
  617MOL0     C83199   5.966  10.701   7.799 -0.4393 -0.6304  0.2273
  617MOL0     C83200   5.882  10.793   7.696 -0.3078  0.3635 -0.0108
  617MOL0     C83201   5.736  10.746   7.666  0.6569 -0.3378 -0.8437
  617MOL0     C83202   5.654  10.855   7.603 -1.0091  0.0914 -0.5040
  617MOL0     C83203   5.690  10.899   7.464  0.8562 -1.0496  0.2759
  617MOL0     C83204   5.687  10.786   7.361 -0.1088  0.4362  0.0932
  617MOL0    Cl83205   5.717  10.860   7.192  0.3850  0.3097 -0.3694
  617MOL0     C83206   6.429  10.389   7.582  1.2023 -0.4062 -0.3747
  617MOL0     C83207   6.532  10.398   7.499  0.0907 -0.2284 -0.8529
  617MOL0     O83208   6.575  10.486   7.199 -0.3030  0.1268  1.1962
  617MOL0     C83209   6.917  10.463   7.276 -0.3223 -0.5044  0.0348
  617MOL0     C83210   7.046  10.456   7.220  0.8051 -0.7056 -0.9557
  617MOL0     N83211   7.642  10.399   6.755  0.0438 -0.2625  0.2280
  617MOL0     N83212   7.711  10.325   6.674 -0.2442  0.4323  0.2883
  617MOL0     C83213   8.389   9.656   5.808  0.6315  0.8191  0.1556
  617MOL0     C83214   8.389   9.592   5.683  1.1208  0.6045  0.6192
  617MOL0     C83215   8.355   9.207   5.423 -0.2436  0.3385  0.1567
  617MOL0     C83216   8.390   9.070   5.412  0.3707 -0.6788  0.4048
  617MOL0     C83217   8.402   9.007   5.279  0.9657 -0.1062 -0.6869
  617MOL0     C83218   8.363   9.073   5.166  0.5251  0.3746 -0.1353
  617MOL0     O83219   8.358   8.996   5.054  0.7452 -0.1365 -0.0447
  617MOL0     C83220   8.408   9.051   4.935 -1.0395  0.6194  0.1024
  617MOL0     C83221   8.447   8.940   4.827  0.3653 -0.2654 -0.4091
  617MOL0     C83222   8.575   8.864   4.865  0.7437  0.0038  0.5546
  617MOL0     C83223   8.701   8.933   4.818 -0.5192  0.3184  0.0035
  617MOL0     C83224   8.804   8.824   4.810 -0.2120  0.5327 -0.9335
  617MOL0     C83225   8.884   8.738   4.809 -0.5190  0.6549 -0.5973
  617MOL0     C83226   8.314   9.203   5.177 -0.2364 -0.2079 -0.4600
  617MOL0     C83227   8.319   9.274   5.297 -0.2168  0.4297 -0.7483
  617MOL0     H83228   8.183   9.339   5.779 -1.6570  0.2591 -0.6723
  617MOL0     H83229   8.191   9.455   5.979 -0.9164  0.0956 -0.7963
  617MOL0     H83230   8.122   9.698   6.023 -1.6461 -4.8453  0.6238
  617MOL0     H83231   8.172   9.602   6.162 -1.4877  2.3182  2.7374
  617MOL0     H83232   8.304   9.801   6.253 -0.4438  1.6005  0.1722
  617MOL0     H83233   8.236   9.902   6.121  0.1854  0.2726  0.5257
  617MOL0     H83234   8.019   9.873   6.216  0.1668 -2.8333 -1.9441
  617MOL0     H83235   8.081   9.780   6.349 -4.3020 -1.1697 -4.5251
  617MOL0     H83236   8.242   9.960   6.412 -1.5088 -0.3551  1.1425
  617MOL0     H83237   8.162  10.072   6.286  0.8167 -0.4396 -2.1063
  617MOL0     H83238   7.945  10.050   6.382  0.1049 -2.4689 -1.4269
  617MOL0     H83239   8.013   9.957   6.513 -3.5008  0.9030 -0.6542
  617MOL0     H83240   8.177  10.138   6.579  0.8326 -2.5044 -2.2377
  617MOL0     H83241   8.132  10.234   6.440  1.0930 -0.6307  1.1326
  617MOL0     H83242   8.055  10.334   6.619 -0.7746 -0.6107 -0.6850
  617MOL0     H83243   7.923  10.267   6.508 -0.7533  0.0126  0.5351
  617MOL0     H83244   7.991  10.169   6.792 -1.6141 -1.7080 -0.0403
  617MOL0     H83245   7.889  10.094   6.681 -0.1952  0.2428 -2.4379
  617MOL0     H83246   7.870  10.317   6.965 -1.1879  1.9185  0.5242
  617MOL0     H83247   7.640  10.382   7.094 -1.9034  0.7628  1.4754
  617MOL0     H83248   7.708  10.530   7.037 -2.8941  2.5123  0.4521
  617MOL0     H83249   7.503  10.584   6.910 -0.0584  0.3247  0.1500
  617MOL0     H83250   7.474  10.571   7.084 -1.1209  2.2211 -1.8796
  617MOL0     H83251   7.438  10.312   6.952  0.4754  0.9444  0.4633
  617MOL0     H83252   7.342  10.431   6.852  1.7340  3.1265 -1.0894
  617MOL0     H83253   7.321  10.381   7.154 -1.2116 -0.4415  0.0275
  617MOL0     H83254   7.219  10.300   7.041 -1.5616  1.0383 -0.8159
  617MOL0     H83255   6.965  10.542   6.893  0.1697  1.7244  0.4255
  617MOL0     H83256   6.692  10.676   6.987 -0.9298 -0.1688  1.2752
  617MOL0     H83257   6.776  10.587   6.857  0.9182  0.9026  0.0465
  617MOL0     H83258   6.641  10.511   6.951  0.5762  0.1646  0.7704
  617MOL0     H83259   6.581  10.732   7.516  1.3331  0.8407  2.9156
  617MOL0     H83260   6.372  10.714   7.675 -2.6522 -0.2625 -1.2514
  617MOL0     H83261   6.110  10.497   7.877  0.2238  0.5769  0.3755
  617MOL0     H83262   6.241  10.627   7.860 -0.8689  2.0168 -2.6857
  617MOL0     H83263   6.142  10.698   7.667  1.6309  0.2082  1.6878
  617MOL0     H83264   6.040  10.545   7.664 -3.5583 -0.9312  2.6150
  617MOL0     H83265   6.021  10.769   7.865  2.2448 -1.2642 -1.2104
  617MOL0     H83266   5.897  10.633   7.851  0.2541 -0.2314  1.7408
  617MOL0     H83267   5.866  10.886   7.751 -1.2927 -1.0788  2.3079
  617MOL0     H83268   5.943  10.809   7.606  0.9819  0.3253  0.8274
  617MOL0     H83269   5.686  10.701   7.753  0.8292 -3.2783 -2.1430
  617MOL0     H83270   5.753  10.658   7.603  2.1635 -2.8830  2.7734
  617MOL0     H83271   5.549  10.826   7.593 -1.2172  0.7478 -0.2773
  617MOL0     H83272   5.659  10.942   7.670 -0.8424 -0.0206 -0.3678
  617MOL0     H83273   5.784  10.952   7.449 -0.2679  0.8375 -0.4628
  617MOL0     H83274   5.616  10.967   7.421  0.8643 -1.1020  0.1778
  617MOL0     H83275   5.593  10.731   7.368 -0.8349  1.3545 -1.8470
  617MOL0     H83276   5.769  10.718   7.387 -0.8343 -0.4038  0.2096
  617MOL0     H83277   6.376  10.295   7.585 -1.2373  0.8802 -0.5287
  617MOL0     H83278   6.555  10.309   7.442  0.0121  0.0916 -1.3900
  617MOL0     H83279   6.896  10.446   7.381 -1.2054 -2.0375 -0.3572
  617MOL0     H83280   7.126  10.436   7.291 -0.0809 -0.6606  0.0741
  617MOL0     H83281   8.439   9.752   5.798  1.1084  0.3862 -2.3577
  617MOL0     H83282   8.436   9.650   5.604  1.0828  1.2669  1.0745
  617MOL0     H83283   8.413   9.003   5.495  0.7681 -0.3580  0.5578
  617MOL0     H83284   8.434   8.904   5.276  5.5011  1.0315  0.2798
  617MOL0     H83285   8.342   9.123   4.886 -2.8416 -1.9123 -1.4586
  617MOL0     H83286   8.499   9.108   4.958  0.7577 -1.4259 -1.4893
  617MOL0     H83287   8.456   8.977   4.724 -4.6030  2.2164 -0.2536
  617MOL0     H83288   8.363   8.871   4.814  0.3092 -0.4787  0.9132
  617MOL0     H83289   8.567   8.767   4.815 -1.3660  0.6847 -0.5898
  617MOL0     H83290   8.579   8.840   4.971 -0.1333 -2.9198  0.0204
  617MOL0     H83291   8.735   9.003   4.894  1.6120 -1.5351  0.8900
  617MOL0     H83292   8.694   8.978   4.718  0.4029  1.7125  0.5402
  617MOL0     H83293   8.951   8.654   4.805 -0.5303  0.6764 -3.3789
  617MOL0     H83294   8.290   9.261   5.089  2.6823  1.6636 -0.1576
  617MOL0     H83295   8.295   9.378   5.279  0.7476  0.9471  0.7367
  618MOL0     O83296   2.807  10.243   5.656 -0.0576 -0.4329  0.3612
  618MOL0     C83297   2.828  10.365   5.635  0.8692  0.5402  0.5651
  618MOL0     O83298   2.821  10.431   5.518 -0.0567  0.0156  0.2144
  618MOL0     C83299   2.744  10.375   5.411 -0.4266 -0.4648  0.0082
  618MOL0     C83300   2.608  10.403   5.403  0.2528  0.9790  0.0228
  618MOL0     C83301   2.528  10.362   5.290 -0.1927 -0.0628 -0.9365
  618MOL0     C83302   2.586  10.290   5.189 -1.2987 -0.4638  0.9875
  618MOL0     O83303   2.518  10.289   5.068 -0.5470  0.6246 -0.4268
  618MOL0     C83304   2.572  10.240   4.950  0.1003 -0.0077  0.4235
  618MOL0     C83305   2.479  10.268   4.836  0.2658 -0.5451  0.6606
  618MOL0     C83306   2.363  10.178   4.820  0.7741  0.6427 -0.1733
  618MOL0     C83307   2.353  10.120   4.685 -0.6812  0.4177 -0.4846
  618MOL0     C83308   2.222  10.050   4.676  1.3184  0.4827  0.2585
  618MOL0     C83309   2.181  10.044   4.528 -0.7301  0.2169 -0.3597
  618MOL0     C83310   2.061   9.946   4.506 -0.4696  0.5148  0.5748
  618MOL0     C83311   2.077   9.856   4.375  0.0408  0.4840 -0.5665
  618MOL0     N83312   2.043   9.926   4.247  0.1702 -1.2412 -0.6098
  618MOL0     C83313   1.970  10.044   4.238 -0.2294  0.6472 -0.4132
  618MOL0     C83314   1.956  10.066   4.110 -0.1079  0.3242 -0.0114
  618MOL0     C83315   1.888  10.185   4.055  0.3361  0.1746 -0.6315
  618MOL0     C83316   1.820  10.179   3.925 -0.1862 -0.4495  1.0954
  618MOL0     C83317   1.689  10.090   3.929  0.5575 -0.7842  0.4704
  618MOL0     C83318   1.565  10.185   3.951 -0.0407  0.4935  0.6578
  618MOL0     O83319   1.438  10.119   3.943 -0.3411 -0.1092  0.0543
  618MOL0     C83320   1.320  10.189   3.947 -0.1371  0.7129  0.0009
  618MOL0     C83321   1.301  10.321   3.925 -0.4062 -1.1335 -0.4061
  618MOL0     C83322   1.174  10.372   3.923  0.8358  0.7424 -0.1662
  618MOL0     C83323   1.162  10.516   3.880  0.6750  0.3055  0.0649
  618MOL0     C83324   1.059  10.294   3.957 -0.3018  0.2134 -0.5524
  618MOL0     C83325   0.918  10.332   3.973  0.1364  0.1271 -0.4585
  618MOL0     O83326   0.816  10.243   3.974  0.0575  0.7370 -0.2349
  618MOL0     C83327   0.684  10.285   3.991 -0.5365 -0.0033  0.0037
  618MOL0     C83328   0.587  10.196   3.938 -0.1036 -0.1181 -0.0210
  618MOL0     C83329   0.452  10.221   3.950  0.3457  0.3615 -0.2236
  618MOL0     C83330   0.402  10.340   4.014 -0.7344  0.0883 -0.4328
  618MOL0     O83331   0.270  10.379   4.023 -0.0021 -0.3019  0.5456
  618MOL0     C83332   0.169  10.296   3.959 -0.2338 -0.2506  0.2298
  618MOL0     C83333   0.042  10.382   3.948  0.0203  0.1876 -0.1852
  618MOL0     C83334  -0.071  10.301   3.883 -0.4408  0.3186  0.2064
  618MOL0     C83335  -0.141  10.368   3.764 -0.6902  0.2860  0.4886
  618MOL0     C83336  -0.282  10.305   3.737  0.4132  1.2426 -0.7347
  618MOL0     C83337  -0.345  10.366   3.620 -0.0374 -0.6736  0.4077
  618MOL0     C83338  -0.488  10.344   3.601 -0.3229  1.1374  0.0783
  618MOL0     C83339  -0.546  10.417   3.465 -0.4958  0.6791  0.7460
  618MOL0    Cl83340  -0.703  10.352   3.438  0.1871  0.6523  0.1601
  618MOL0     C83341   0.500  10.429   4.052  0.3364 -0.1380  0.2299
  618MOL0     C83342   0.633  10.409   4.049  0.0265  1.0308 -0.6348
  618MOL0     O83343   0.897  10.453   3.974 -0.0527  0.4838  0.9883
  618MOL0     C83344   1.082  10.159   3.967  0.5516  0.3316 -1.2953
  618MOL0     C83345   1.207  10.104   3.963  0.3654  0.6427  0.2861
  618MOL0     N83346   2.014   9.959   4.045  0.4380 -0.7295  0.7552
  618MOL0     N83347   2.083   9.887   4.126 -0.5749 -0.0547  0.3098
  618MOL0     C83348   2.724  10.255   5.197  0.1668 -0.7859 -0.5266
  618MOL0     C83349   2.802  10.309   5.304 -0.0382 -0.0547 -0.5975
  618MOL0     C83350   2.867  10.446   5.747 -0.8965  0.1817 -0.2130
  618MOL0     C83351   2.852  10.388   5.875  0.4148  0.4933  0.6450
  618MOL0     C83352   2.880  10.456   5.990  0.4112 -0.4479  0.2423
  618MOL0     C83353   2.941  10.577   5.981  0.2747  0.2507 -0.7834
  618MOL0     O83354   2.996  10.644   6.088 -0.4086 -0.0642 -0.6224
  618MOL0     C83355   2.967  10.605   6.229 -0.0067  0.3033 -0.1112
  618MOL0     C83356   3.012  10.718   6.334  0.4228  0.5828 -0.1604
  618MOL0     C83357   3.002  10.678   6.484 -0.0187 -0.1741  1.4864
  618MOL0     C83358   3.053  10.539   6.517 -0.1669  0.2664 -0.0212
  618MOL0     C83359   3.186  10.516   6.458  0.1924 -0.6483  0.1959
  618MOL0     C83360   3.295  10.513   6.412 -0.7048 -0.1191 -0.5203
  618MOL0     C83361   2.959  10.640   5.865  0.1948 -0.6900  0.9599
  618MOL0     C83362   2.920  10.582   5.743  0.1524 -0.1331 -0.8018
  618MOL0     H83363   2.576  10.467   5.485  0.3330  0.6967  0.2768
  618MOL0     H83364   2.423  10.388   5.282 -0.0527  0.2586 -1.8388
  618MOL0     H83365   2.663  10.298   4.930  0.5546 -0.3580  1.3969
  618MOL0     H83366   2.593  10.133   4.950  0.6898  0.0957 -0.2493
  618MOL0     H83367   2.451  10.374   4.842  0.2485 -0.5263  0.2545
  618MOL0     H83368   2.544  10.260   4.748 -0.7454  0.2022 -0.1755
  618MOL0     H83369   2.368  10.093   4.889  1.7212  1.8602  1.3391
  618MOL0     H83370   2.274  10.238   4.843 -0.9841 -2.4253  1.7171
  618MOL0     H83371   2.372  10.192   4.604 -2.8808  0.3130 -1.1639
  618MOL0     H83372   2.437  10.051   4.672 -0.8699 -0.3196  1.8468
  618MOL0     H83373   2.227   9.951   4.722  0.6129 -0.4647 -1.5723
  618MOL0     H83374   2.136  10.102   4.720  1.1054  0.6624 -0.3634
  618MOL0     H83375   2.142  10.145   4.508  1.3359  0.9590 -0.9406
  618MOL0     H83376   2.268  10.010   4.472  1.0203 -2.3147  3.4712
  618MOL0     H83377   2.071   9.868   4.583  1.0951 -1.8136 -1.7966
  618MOL0     H83378   1.966   9.999   4.508  0.2312  2.1149 -2.3819
  618MOL0     H83379   1.999   9.780   4.368  0.5947 -0.0543 -0.9439
  618MOL0     H83380   2.170   9.799   4.373 -1.7090 -2.5342 -1.0359
  618MOL0     H83381   1.935  10.096   4.326 -0.0161 -0.0252  0.0794
  618MOL0     H83382   1.821  10.221   4.133  0.6946 -1.5881  0.5650
  618MOL0     H83383   1.969  10.257   4.047  1.6059 -1.1494 -0.1404
  618MOL0     H83384   1.888  10.121   3.862 -1.8478  1.1159 -2.4115
  618MOL0     H83385   1.803  10.276   3.877  2.5994 -0.6161 -0.4581
  618MOL0     H83386   1.693  10.013   4.006  1.5810 -2.5283 -1.2384
  618MOL0     H83387   1.674  10.036   3.835 -1.6205  1.4216 -0.5808
  618MOL0     H83388   1.570  10.264   3.875  0.5587 -1.1232 -1.0528
  618MOL0     H83389   1.584  10.242   4.042  0.5552  0.0868  0.7955
  618MOL0     H83390   1.381  10.388   3.895 -0.7109 -2.1827 -3.9657
  618MOL0     H83391   1.252  10.564   3.840 -0.7291  1.6706 -1.6410
  618MOL0     H83392   1.086  10.517   3.801  1.5550 -1.0249 -0.8512
  618MOL0     H83393   1.129  10.570   3.969  1.4636 -1.5248  1.5535
  618MOL0     H83394   0.624  10.109   3.885  0.5825  0.8692 -1.2211
  618MOL0     H83395   0.383  10.151   3.905 -2.4379  0.4561  3.4019
  618MOL0     H83396   0.192  10.282   3.853 -0.1173  2.2067 -0.1356
  618MOL0     H83397   0.149  10.196   4.000 -1.0371 -1.4477 -2.7995
  618MOL0     H83398   0.010  10.435   4.038  0.6631  1.3520 -0.6291
  618MOL0     H83399   0.075  10.465   3.885 -1.6428  3.5409  2.9854
  618MOL0     H83400  -0.144  10.286   3.963 -1.3822 -3.4596 -1.1413
  618MOL0     H83401  -0.038  10.198   3.867 -1.5941  0.3717 -3.5448
  618MOL0     H83402  -0.156  10.476   3.772 -0.7154  0.5257 -1.9290
  618MOL0     H83403  -0.086  10.345   3.672 -2.3264  1.0798 -0.7297
  618MOL0     H83404  -0.340  10.328   3.827  1.0657  1.0529 -0.2553
  618MOL0     H83405  -0.283  10.197   3.727 -1.1945  1.0875  0.6391
  618MOL0     H83406  -0.348  10.473   3.639 -2.1605 -0.3680 -1.2335
  618MOL0     H83407  -0.279  10.341   3.537  0.4431 -0.9427  0.8621
  618MOL0     H83408  -0.544  10.386   3.685 -0.1278  0.4810  0.5455
  618MOL0     H83409  -0.506  10.236   3.594 -1.2081  1.2577  0.3237
  618MOL0     H83410  -0.490  10.395   3.374 -1.6887 -1.5987  0.4717
  618MOL0     H83411  -0.554  10.526   3.471  0.2556  0.7691  0.1852
  618MOL0     H83412   0.463  10.518   4.103  1.2962 -0.2576  1.1612
  618MOL0     H83413   0.679  10.496   4.094 -0.9077  1.5648 -0.6825
  618MOL0     H83414   1.006  10.084   3.982 -0.4591  1.8980  2.7696
  618MOL0     H83415   1.216   9.997   3.980 -2.0980  0.2886 -0.2805
  618MOL0     H83416   2.788  10.212   5.120  1.5735  0.3029 -0.0180
  618MOL0     H83417   2.910  10.297   5.310  0.8942  5.7676  1.5666
  618MOL0     H83418   2.809  10.291   5.893  0.3509  0.4816  0.4295
  618MOL0     H83419   2.852  10.405   6.081 -2.3808  1.6206  0.6875
  618MOL0     H83420   2.859  10.592   6.238  0.1688 -1.3282 -0.0246
  618MOL0     H83421   3.031  10.519   6.250  0.3640  1.0433  1.9865
  618MOL0     H83422   2.949  10.807   6.323  0.5403  0.6728 -0.1006
  618MOL0     H83423   3.117  10.737   6.313  0.5412  1.3646  1.0308
  618MOL0     H83424   2.900  10.681   6.521  0.0681  0.7340  1.6836
  618MOL0     H83425   3.064  10.751   6.537 -0.9011  0.1125  2.1345
  618MOL0     H83426   2.979  10.470   6.475  1.0983  0.7378 -3.4123
  618MOL0     H83427   3.054  10.531   6.626 -3.8460  0.0955  0.1420
  618MOL0     H83428   3.394  10.514   6.369 -0.2437  2.2581  0.4241
  618MOL0     H83429   2.998  10.741   5.870 -0.7741 -0.0145 -2.4225
  618MOL0     H83430   2.932  10.639   5.651 -0.9081 -0.7679 -1.3620
  619MOL0     O83431   7.554   2.725  10.669  1.2476  0.0701 -0.9563
  619MOL0     C83432   7.561   2.767  10.787 -0.0406  0.2312 -0.8465
  619MOL0     O83433   7.680   2.787  10.857  0.1678 -0.3857 -0.6085
  619MOL0     C83434   7.800   2.769  10.798 -0.4103  1.0040  0.8694
  619MOL0     C83435   7.842   2.643  10.763  0.4863  0.6209 -0.3750
  619MOL0     C83436   7.971   2.622  10.718 -0.7707  0.2327  0.4253
  619MOL0     C83437   8.061   2.724  10.700 -0.2243  0.2598 -0.5757
  619MOL0     O83438   8.186   2.700  10.642  0.3495  0.0925 -0.3505
  619MOL0     C83439   8.256   2.805  10.578 -0.2416 -0.2551  0.6302
  619MOL0     C83440   8.374   2.741  10.509  1.1972 -0.0646 -0.1083
  619MOL0     C83441   8.463   2.851  10.446 -0.5283 -0.1491  0.3269
  619MOL0     C83442   8.562   2.789  10.352  0.0596 -0.2289  0.5229
  619MOL0     C83443   8.668   2.887  10.307  0.2528 -0.0957  0.3673
  619MOL0     C83444   8.616   3.015  10.235 -0.9020 -0.5100  0.1936
  619MOL0     C83445   8.729   3.107  10.180  0.1786 -0.5156 -0.9691
  619MOL0     C83446   8.798   3.041  10.056  0.9639 -0.4436 -0.0883
  619MOL0     N83447   8.926   3.119  10.029  0.5566 -0.7097  0.1276
  619MOL0     C83448   9.045   3.059   9.992  0.6149  0.1308  1.0375
  619MOL0     C83449   9.140   3.158  10.008  0.0292  0.3447  0.2308
  619MOL0     C83450   9.281   3.140   9.975  0.9839  0.2686  0.3805
  619MOL0     C83451   9.360   3.188  10.090 -0.7127 -0.6739 -0.5568
  619MOL0     C83452   9.353   3.086  10.208  0.3155 -0.0305 -0.1922
  619MOL0     C83453   9.366   3.148  10.339 -0.0967 -1.0791 -1.2360
  619MOL0     O83454   9.335   3.053  10.446 -0.3535 -0.8983  0.1287
  619MOL0     C83455   9.440   2.985  10.509  0.1024 -0.3047 -0.2163
  619MOL0     C83456   9.406   2.920  10.622 -0.6451  0.6625 -0.5399
  619MOL0     C83457   9.505   2.840  10.694  0.3531 -1.0789  0.7447
  619MOL0     C83458   9.467   2.783  10.828  0.1877 -0.0973  0.2574
  619MOL0     C83459   9.635   2.824  10.646 -1.3865  0.1173 -0.3604
  619MOL0     C83460   9.738   2.734  10.710  0.1797 -0.0241  0.0594
  619MOL0     O83461   9.870   2.759  10.671  0.4027 -0.5623 -1.0468
  619MOL0     C83462   9.973   2.709  10.747  0.2945  0.0284 -0.1106
  619MOL0     C83463  10.084   2.788  10.748  0.2183 -0.1044 -0.5213
  619MOL0     C83464  10.200   2.757  10.831  0.6449 -0.2327  0.0319
  619MOL0     C83465  10.199   2.638  10.905 -0.6399  0.7192 -0.5575
  619MOL0     O83466  10.303   2.584  10.984 -0.3139 -0.2866  0.1002
  619MOL0     C83467  10.429   2.645  10.964  0.0620  0.5372 -0.8163
  619MOL0     C83468  10.524   2.586  11.071  0.4399 -0.0063  0.3255
  619MOL0     C83469  10.658   2.667  11.079  1.0346  0.7187  0.0902
  619MOL0     C83470  10.760   2.589  11.159 -0.3854  0.4317 -0.5516
  619MOL0     C83471  10.874   2.681  11.193  0.2911 -0.8721  0.2032
  619MOL0     C83472  11.000   2.619  11.263 -0.1835 -0.1245 -0.5275
  619MOL0     C83473  11.107   2.731  11.262  0.7800 -0.3385 -0.1944
  619MOL0     C83474  11.214   2.702  11.373 -0.1850  0.0117  0.1088
  619MOL0    Cl83475  11.164   2.737  11.546 -0.0137  0.0035 -0.0248
  619MOL0     C83476  10.094   2.547  10.894 -0.4741 -0.6726 -0.1344
  619MOL0     C83477   9.985   2.583  10.810 -0.6324  0.2495 -0.5246
  619MOL0     O83478   9.694   2.642  10.784  0.8536 -0.9602  0.3766
  619MOL0     C83479   9.666   2.886  10.525  0.3631  0.1080  0.6191
  619MOL0     C83480   9.566   2.967  10.459 -0.8297 -0.1018 -0.4595
  619MOL0     N83481   9.077   3.274  10.039  0.1311 -0.2846 -0.3805
  619MOL0     N83482   8.947   3.248  10.063  0.1197  0.6616 -0.0360
  619MOL0     C83483   8.021   2.857  10.741  1.1113  0.0681  0.2015
  619MOL0     C83484   7.879   2.886  10.777 -0.1540  0.6533 -0.8304
  619MOL0     C83485   7.436   2.805  10.851  0.5538 -0.3807  0.0698
  619MOL0     C83486   7.313   2.782  10.798  0.2583  0.4241  0.5711
  619MOL0     C83487   7.194   2.809  10.863  0.2173  1.0941  0.1231
  619MOL0     C83488   7.197   2.869  10.993 -1.1825 -0.1579 -0.6141
  619MOL0     O83489   7.086   2.901  11.069  0.8223 -0.2602 -0.0178
  619MOL0     C83490   6.950   2.883  11.010  0.5044  0.5977  0.2759
  619MOL0     C83491   6.863   2.823  11.121 -0.2581 -0.0002  0.6435
  619MOL0     C83492   6.820   2.923  11.216  0.4166  0.1977 -0.2401
  619MOL0     C83493   6.732   2.870  11.319  0.0817  0.1873  0.1727
  619MOL0     C83494   6.729   2.960  11.441  0.7222  0.0127 -1.0501
  619MOL0     C83495   6.722   3.042  11.529 -0.3289  0.4706 -0.5042
  619MOL0     C83496   7.322   2.896  11.049  0.5226 -0.0469 -0.3839
  619MOL0     C83497   7.438   2.863  10.979 -0.1068  0.0645 -0.1418
  619MOL0     H83498   7.763   2.570  10.774  1.3802 -0.6286 -1.8041
  619MOL0     H83499   7.985   2.518  10.690  2.1993  0.4654  0.7497
  619MOL0     H83500   8.195   2.871  10.514  1.2806  2.1739  1.5284
  619MOL0     H83501   8.307   2.870  10.650 -2.2072  2.7403 -0.4788
  619MOL0     H83502   8.426   2.684  10.586  0.1323  1.6319  1.9931
  619MOL0     H83503   8.338   2.678  10.428  2.0253  0.9852 -1.3418
  619MOL0     H83504   8.409   2.930  10.393 -0.4206  1.2712  2.2176
  619MOL0     H83505   8.520   2.903  10.523 -0.8560  2.3544 -0.9981
  619MOL0     H83506   8.605   2.697  10.394 -0.0977 -0.4413  0.2248
  619MOL0     H83507   8.509   2.755  10.262  0.8532  2.8554 -1.2396
  619MOL0     H83508   8.713   2.916  10.402 -0.7449 -5.6444  2.9594
  619MOL0     H83509   8.737   2.837  10.238 -0.6969  1.7050 -2.0507
  619MOL0     H83510   8.556   2.987  10.149  0.5526  0.4069 -1.1830
  619MOL0     H83511   8.566   3.081  10.307 -0.3772  0.2487 -0.1260
  619MOL0     H83512   8.696   3.205  10.144 -2.2451 -1.3789 -1.2709
  619MOL0     H83513   8.811   3.125  10.250  0.9341 -0.8752 -1.7334
  619MOL0     H83514   8.722   3.044   9.977 -1.6109  0.2670  2.2840
  619MOL0     H83515   8.820   2.938  10.085  0.7542 -0.3212  0.5244
  619MOL0     H83516   9.062   2.970   9.933  2.2998  1.5074 -0.7077
  619MOL0     H83517   9.288   3.033   9.952 -0.4754  0.4825 -1.3147
  619MOL0     H83518   9.302   3.208   9.892 -1.8849  0.3004 -0.4436
  619MOL0     H83519   9.332   3.289  10.124 -0.5282 -0.1862 -1.7866
  619MOL0     H83520   9.466   3.186  10.064 -0.8048  0.4957 -1.1018
  619MOL0     H83521   9.436   3.015  10.207  0.2752 -0.4154  4.5380
  619MOL0     H83522   9.254   3.040  10.203  1.3813 -2.3256 -2.5442
  619MOL0     H83523   9.292   3.227  10.353  1.9766  0.6182  1.0776
  619MOL0     H83524   9.463   3.198  10.349 -0.3501 -0.8970  0.7864
  619MOL0     H83525   9.310   2.929  10.672 -1.1618  1.2452 -1.6065
  619MOL0     H83526   9.381   2.837  10.868  2.1658  2.8918  0.7655
  619MOL0     H83527   9.432   2.679  10.823  0.0434 -0.0793  0.7970
  619MOL0     H83528   9.546   2.801  10.902 -0.1579 -0.3592  0.7000
  619MOL0     H83529  10.078   2.872  10.680  1.2154 -0.8698 -1.5907
  619MOL0     H83530  10.272   2.838  10.827 -0.0874  0.4976  1.2183
  619MOL0     H83531  10.466   2.616  10.865  0.2641 -2.0842 -0.0421
  619MOL0     H83532  10.421   2.754  10.965 -0.3121  0.5805 -3.2277
  619MOL0     H83533  10.471   2.593  11.166 -1.7920  0.0100 -0.8533
  619MOL0     H83534  10.549   2.482  11.049 -0.7503  0.0890 -1.8030
  619MOL0     H83535  10.629   2.756  11.136 -4.2761 -0.5224 -0.0987
  619MOL0     H83536  10.699   2.684  10.979  1.4571 -2.9908 -0.5172
  619MOL0     H83537  10.732   2.535  11.250  3.0830 -0.3689  0.1813
  619MOL0     H83538  10.802   2.518  11.087  2.5140  1.4726  0.0026
  619MOL0     H83539  10.832   2.760  11.256  1.1998 -2.5765  3.1534
  619MOL0     H83540  10.912   2.726  11.100 -1.5673 -3.5211 -2.0029
  619MOL0     H83541  10.969   2.576  11.359  2.7261 -2.1181 -0.3332
  619MOL0     H83542  11.040   2.541  11.197  0.5017  0.0642 -0.3429
  619MOL0     H83543  11.049   2.819  11.292  0.3756  0.3966 -2.8884
  619MOL0     H83544  11.149   2.735  11.161  1.1176  0.7191 -0.0235
  619MOL0     H83545  11.304   2.761  11.356 -0.6349  0.3938 -1.0707
  619MOL0     H83546  11.247   2.598  11.370 -1.8878 -0.5417 -0.4904
  619MOL0     H83547  10.085   2.461  10.960  1.8594 -0.6042  0.3575
  619MOL0     H83548   9.903   2.513  10.819 -1.0040  0.8316  0.8734
  619MOL0     H83549   9.767   2.882  10.486  0.9477  2.8519  1.5832
  619MOL0     H83550   9.585   3.003  10.358  2.5713 -1.2896 -0.3922
  619MOL0     H83551   8.103   2.928  10.746 -0.4282  1.8622  1.6450
  619MOL0     H83552   7.836   2.984  10.796 -0.6863  0.4046 -0.7509
  619MOL0     H83553   7.291   2.731  10.705  0.6751  0.5616  0.3947
  619MOL0     H83554   7.107   2.776  10.808  0.9355 -0.4473 -0.1429
  619MOL0     H83555   6.904   2.978  10.983 -1.4011 -0.0028  1.2145
  619MOL0     H83556   6.945   2.833  10.913  1.1242  1.4800 -0.2300
  619MOL0     H83557   6.920   2.745  11.172 -2.2197 -2.0114 -0.0848
  619MOL0     H83558   6.775   2.771  11.082 -0.0455 -1.5628  2.1270
  619MOL0     H83559   6.765   3.009  11.176 -0.1733  0.0657  0.2717
  619MOL0     H83560   6.908   2.953  11.274  0.1634 -1.1415  0.8825
  619MOL0     H83561   6.759   2.767  11.344  2.4570  0.6970 -0.0879
  619MOL0     H83562   6.630   2.868  11.278  0.5779 -0.5243 -1.0920
  619MOL0     H83563   6.707   3.126  11.594  2.2946  1.6908 -1.3717
  619MOL0     H83564   7.331   2.937  11.150  1.8453 -3.1139  0.8550
  619MOL0     H83565   7.535   2.880  11.025  0.5218 -0.4166 -1.2236
  620MOL0     O83566   6.139   1.616   0.032  0.6010 -0.0523 -0.1958
  620MOL0     C83567   6.221   1.682   0.092 -0.0823  0.6920  0.2679
  620MOL0     O83568   6.199   1.798   0.153 -0.0571  0.0851  0.4211
  620MOL0     C83569   6.080   1.860   0.149  0.3178  0.4959 -0.1954
  620MOL0     C83570   6.056   1.931   0.027 -0.4257  1.1543 -0.6978
  620MOL0     C83571   5.941   2.007   0.007 -0.2640 -0.3600  0.1365
  620MOL0     C83572   5.845   2.017   0.115  0.3012  0.2021 -0.5004
  620MOL0     O83573   5.734   2.096   0.113 -0.2844  0.2096 -0.5905
  620MOL0     C83574   5.728   2.196   0.019  0.1819  0.4696 -0.2304
  620MOL0     C83575   5.644   2.317   0.067 -0.3519  0.3173  1.0220
  620MOL0     C83576   5.654   2.425  -0.042 -0.4114 -0.7647 -0.1346
  620MOL0     C83577   5.576   2.555  -0.001  0.7808 -0.8220 -0.5603
  620MOL0     C83578   5.620   2.678  -0.090 -0.3208  0.6865 -0.0329
  620MOL0     C83579   5.565   2.813  -0.036 -0.7361 -0.7714 -0.0599
  620MOL0     C83580   5.666   2.899   0.041 -0.2316 -0.1399 -0.0357
  620MOL0     C83581   5.593   3.025   0.096 -0.0477  0.4377 -0.4832
  620MOL0     N83582   5.634   3.083   0.219 -0.3416  0.1465  1.2030
  620MOL0     C83583   5.764   3.073   0.274  0.0141 -0.0674 -0.7217
  620MOL0     C83584   5.758   3.131   0.394  0.7340  0.0511  0.7799
  620MOL0     C83585   5.878   3.144   0.481  0.1262  0.2761 -1.0967
  620MOL0     C83586   5.926   3.291   0.498  0.1199  0.5601  0.3893
  620MOL0     C83587   6.020   3.322   0.383 -0.4090 -0.4391  0.3889
  620MOL0     C83588   6.098   3.458   0.403 -0.5236  0.8609  0.0079
  620MOL0     O83589   6.006   3.574   0.422  0.9026  0.4621 -0.4401
  620MOL0     C83590   5.926   3.616   0.317 -0.1941 -0.4331 -1.0064
  620MOL0     C83591   5.833   3.717   0.347 -0.1705 -0.1578 -0.0022
  620MOL0     C83592   5.746   3.773   0.253 -0.4445 -0.7409  0.2842
  620MOL0     C83593   5.649   3.880   0.316 -0.1629 -0.2090  0.6438
  620MOL0     C83594   5.748   3.728   0.115 -0.8674 -0.3456 -0.5212
  620MOL0     C83595   5.653   3.780   0.013  0.0625  0.1462 -0.0355
  620MOL0     O83596   5.672   3.743  -0.121 -0.4740  0.1436 -0.5536
  620MOL0     C83597   5.568   3.776  -0.202  0.5093 -0.4862  0.7814
  620MOL0     C83598   5.594   3.868  -0.307 -0.7108 -0.0026 -0.3619
  620MOL0     C83599   5.492   3.910  -0.392  0.4118 -0.5810 -0.3655
  620MOL0     C83600   5.354   3.864  -0.379 -0.6418 -0.3763  0.1943
  620MOL0     O83601   5.243   3.914  -0.446 -0.0771 -0.6105  0.2407
  620MOL0     C83602   5.257   3.978  -0.572 -0.8907 -0.1878  0.5832
  620MOL0     C83603   5.141   3.935  -0.662 -0.4468  0.0944 -0.7233
  620MOL0     C83604   5.159   4.004  -0.804 -0.4799 -0.5951  0.2435
  620MOL0     C83605   5.108   4.147  -0.786 -0.3608 -0.1350  0.6300
  620MOL0     C83606   5.070   4.195  -0.928  0.2563 -0.0928 -0.4058
  620MOL0     C83607   5.008   4.335  -0.921 -0.0831  0.3744  0.2616
  620MOL0     C83608   4.955   4.376  -1.059  0.3360 -0.2109  0.6548
  620MOL0     C83609   4.866   4.502  -1.068 -0.5656  0.3886 -0.0065
  620MOL0    Cl83610   4.935   4.649  -1.010 -0.2390  0.1521  0.0264
  620MOL0     C83611   5.328   3.777  -0.267 -0.4422  0.7340  1.1183
  620MOL0     C83612   5.433   3.727  -0.192 -0.6074  0.1035 -0.8796
  620MOL0     O83613   5.560   3.853   0.049 -0.4366  0.7007 -0.0897
  620MOL0     C83614   5.854   3.640   0.084  0.4334  0.8828 -0.9752
  620MOL0     C83615   5.942   3.591   0.183 -0.1899 -0.7775  1.3034
  620MOL0     N83616   5.631   3.176   0.418 -0.9356 -0.0458 -0.1213
  620MOL0     N83617   5.557   3.148   0.313  0.5570  0.3071 -0.0766
  620MOL0     C83618   5.869   1.942   0.228  1.2986 -0.1652 -0.4090
  620MOL0     C83619   5.984   1.865   0.243 -0.0528 -0.4226  0.5149
  620MOL0     C83620   6.362   1.608   0.099 -0.0733 -0.5043 -0.6793
  620MOL0     C83621   6.461   1.670   0.169  0.5152 -1.0255 -0.2735
  620MOL0     C83622   6.589   1.602   0.173  0.5029  0.1114 -0.3454
  620MOL0     C83623   6.603   1.477   0.126 -0.0822  0.1795 -0.6568
  620MOL0     O83624   6.725   1.408   0.130  0.2648  0.2926  0.3819
  620MOL0     C83625   6.852   1.485   0.162  0.7254 -0.6108  0.4735
  620MOL0     C83626   6.890   1.548   0.027 -0.5876 -0.4575  0.5517
  620MOL0     C83627   7.021   1.629   0.034  1.0454  0.2051  0.3218
  620MOL0     C83628   7.135   1.538   0.002 -0.2072  1.1729 -0.4207
  620MOL0     C83629   7.123   1.488  -0.140 -0.2344  0.5604 -0.7618
  620MOL0     C83630   7.105   1.451  -0.252 -0.2052 -0.1398  0.6651
  620MOL0     C83631   6.495   1.422   0.058  0.7218  0.8001 -0.5803
  620MOL0     C83632   6.376   1.489   0.045  0.5370  0.6044 -0.7947
  620MOL0     H83633   6.131   1.919  -0.051 -1.0392 -3.7165 -0.8175
  620MOL0     H83634   5.934   2.048  -0.094 -1.7662  1.3411  0.8674
  620MOL0     H83635   5.827   2.232  -0.013  0.1300  0.7744 -0.0483
  620MOL0     H83636   5.674   2.146  -0.061  0.3500  2.1696 -1.4759
  620MOL0     H83637   5.536   2.305   0.081 -0.3741 -0.3280  0.3634
  620MOL0     H83638   5.693   2.354   0.157  0.6244 -1.3022  1.1905
  620MOL0     H83639   5.762   2.437  -0.055 -0.1075 -1.5964  1.4555
  620MOL0     H83640   5.606   2.381  -0.130 -1.2602  0.2874 -0.2163
  620MOL0     H83641   5.472   2.536  -0.028  0.3551  0.6698 -0.1166
  620MOL0     H83642   5.583   2.573   0.107  0.1691  1.2827 -0.8274
  620MOL0     H83643   5.729   2.687  -0.093 -0.0113 -1.7796  1.2006
  620MOL0     H83644   5.596   2.659  -0.195 -0.5825  0.3459  0.0881
  620MOL0     H83645   5.535   2.872  -0.122  0.8369 -0.5780 -0.5099
  620MOL0     H83646   5.490   2.786   0.040 -0.6344 -1.0260 -0.0492
  620MOL0     H83647   5.711   2.840   0.121  0.3746 -1.6382 -1.4390
  620MOL0     H83648   5.750   2.930  -0.021 -1.2242 -1.6868 -2.2683
  620MOL0     H83649   5.487   3.001   0.109 -0.5549  0.3818 -3.7808
  620MOL0     H83650   5.593   3.101   0.017  1.8888 -2.0398 -3.0415
  620MOL0     H83651   5.853   3.023   0.237  1.0044  0.5701  0.7314
  620MOL0     H83652   5.844   3.103   0.577  0.6740 -0.7450 -1.3341
  620MOL0     H83653   5.965   3.084   0.453 -0.1795 -1.3529  1.1287
  620MOL0     H83654   5.989   3.295   0.588 -1.9615  1.1784  1.8911
  620MOL0     H83655   5.854   3.372   0.506  1.7176  2.3955 -2.2810
  620MOL0     H83656   5.976   3.336   0.284  2.3451 -0.5685 -0.9557
  620MOL0     H83657   6.101   3.248   0.371 -0.8435 -0.8176 -0.3023
  620MOL0     H83658   6.156   3.463   0.311 -2.1855  0.1310 -1.1323
  620MOL0     H83659   6.166   3.445   0.488  0.0568  2.5947 -0.1555
  620MOL0     H83660   5.831   3.747   0.451  2.3161 -3.0738  1.0381
  620MOL0     H83661   5.546   3.848   0.335 -0.1750 -1.9213 -1.7752
  620MOL0     H83662   5.693   3.926   0.404 -1.2706  1.0326  0.5764
  620MOL0     H83663   5.647   3.962   0.244  0.4741 -2.0884 -1.6618
  620MOL0     H83664   5.696   3.901  -0.326 -0.5184  0.5650  1.4439
  620MOL0     H83665   5.519   3.989  -0.461  1.1468 -1.1977 -0.8057
  620MOL0     H83666   5.249   4.086  -0.560  0.1508  0.1793 -1.6430
  620MOL0     H83667   5.350   3.969  -0.629 -1.2396 -1.7112  0.2179
  620MOL0     H83668   5.143   3.826  -0.665  1.8335 -0.0145  1.2252
  620MOL0     H83669   5.048   3.966  -0.615 -0.3204  0.0555 -0.4456
  620MOL0     H83670   5.096   3.951  -0.876  1.1886 -2.2366 -0.1047
  620MOL0     H83671   5.261   4.010  -0.844 -0.4774  0.2486  0.3535
  620MOL0     H83672   5.020   4.160  -0.722 -0.2619  1.5407  0.4584
  620MOL0     H83673   5.179   4.216  -0.741 -0.9268  1.9068 -1.4210
  620MOL0     H83674   4.987   4.134  -0.966 -1.0518 -0.7233  3.1480
  620MOL0     H83675   5.150   4.183  -1.002  0.4579 -0.5649 -0.1166
  620MOL0     H83676   4.935   4.341  -0.840 -0.9266  0.7606 -0.4984
  620MOL0     H83677   5.086   4.409  -0.900  0.8969 -0.0116 -1.7707
  620MOL0     H83678   4.904   4.291  -1.105  1.1288 -0.0208 -0.6424
  620MOL0     H83679   5.035   4.392  -1.132 -0.5126 -1.4548 -0.5857
  620MOL0     H83680   4.782   4.491  -1.000 -0.2795  1.8570  0.6325
  620MOL0     H83681   4.822   4.517  -1.167  0.4765  0.5795 -0.4516
  620MOL0     H83682   5.224   3.756  -0.245 -1.2825  3.5554  0.2169
  620MOL0     H83683   5.423   3.660  -0.107 -0.5787 -1.4487 -2.0322
  620MOL0     H83684   5.873   3.605  -0.017 -0.8341 -1.6473 -0.4194
  620MOL0     H83685   6.026   3.526   0.158 -0.2842 -0.1958 -0.6622
  620MOL0     H83686   5.801   1.962   0.310  0.4515  0.4052 -1.2433
  620MOL0     H83687   6.006   1.815   0.337  0.5317 -0.9461  0.1109
  620MOL0     H83688   6.448   1.762   0.225  1.4964 -0.4863 -0.8953
  620MOL0     H83689   6.664   1.665   0.219  1.9554  2.7318 -5.5755
  620MOL0     H83690   6.829   1.564   0.234 -0.9509 -0.5375 -0.0978
  620MOL0     H83691   6.930   1.414   0.190 -0.6071 -2.2181  0.2654
  620MOL0     H83692   6.813   1.622   0.004 -0.5145 -0.2308  1.0244
  620MOL0     H83693   6.894   1.467  -0.047  0.8605 -0.4273  0.5628
  620MOL0     H83694   7.030   1.676   0.132 -3.3561  1.0389  0.5429
  620MOL0     H83695   7.006   1.720  -0.024 -4.8308 -1.2144 -1.0621
  620MOL0     H83696   7.144   1.455   0.072  2.9614  2.2986  0.6468
  620MOL0     H83697   7.232   1.586   0.009 -0.8630  2.2601  3.4693
  620MOL0     H83698   7.106   1.404  -0.348  0.7714  0.8382  0.1690
  620MOL0     H83699   6.510   1.322   0.019 -2.3448  0.3111 -0.7521
  620MOL0     H83700   6.302   1.429  -0.006  1.4720 -0.1182 -1.3285
  621MOL0     O83701   4.396   9.116   3.150 -0.3147  0.4004 -0.1731
  621MOL0     C83702   4.453   9.003   3.134  0.0012 -0.5004 -0.3247
  621MOL0     O83703   4.385   8.884   3.097 -0.1787 -0.5429  0.1204
  621MOL0     C83704   4.267   8.891   3.025 -0.1981 -0.3762 -0.4622
  621MOL0     C83705   4.174   8.790   3.055 -0.2539  0.5520  0.8335
  621MOL0     C83706   4.047   8.788   2.980 -0.5615  0.5061 -0.0463
  621MOL0     C83707   4.027   8.871   2.872  0.1259  0.3928 -0.5709
  621MOL0     O83708   3.907   8.864   2.813  0.6074  0.2149  0.3597
  621MOL0     C83709   3.914   8.860   2.666 -0.8142  0.7599 -1.2755
  621MOL0     C83710   3.870   8.724   2.611  1.1417 -0.1809  0.6135
  621MOL0     C83711   3.869   8.737   2.463  0.0439 -0.3318 -0.4675
  621MOL0     C83712   4.007   8.765   2.394  0.6573  0.4219 -0.4946
  621MOL0     C83713   4.030   8.662   2.274  0.2205  1.0892 -0.1046
  621MOL0     C83714   4.176   8.666   2.219  0.4791 -0.0724 -0.4267
  621MOL0     C83715   4.274   8.579   2.304  1.5669  0.8804 -0.2179
  621MOL0     C83716   4.418   8.573   2.253 -0.2095  0.1549  0.2366
  621MOL0     N83717   4.510   8.488   2.329 -0.5988  0.1586 -0.4119
  621MOL0     C83718   4.602   8.532   2.421  0.4603  0.1357 -0.3706
  621MOL0     C83719   4.651   8.414   2.471 -0.5390 -0.7030 -0.6067
  621MOL0     C83720   4.767   8.395   2.568  0.1113  0.4118 -0.3292
  621MOL0     C83721   4.723   8.295   2.678 -0.0482 -0.1480  0.4202
  621MOL0     C83722   4.803   8.296   2.809 -0.5165  0.4884  0.2107
  621MOL0     C83723   4.949   8.263   2.793  0.8111  0.2516 -0.2484
  621MOL0     O83724   5.001   8.382   2.737  0.0951 -0.3387 -0.1464
  621MOL0     C83725   5.126   8.389   2.719 -0.0648  0.2882 -0.3131
  621MOL0     C83726   5.169   8.442   2.592 -0.1292  0.2010 -0.3399
  621MOL0     C83727   5.298   8.465   2.553 -0.5994 -0.5449 -0.1198
  621MOL0     C83728   5.319   8.507   2.412  0.3514  1.3655  0.5234
  621MOL0     C83729   5.403   8.437   2.652  0.4275  0.6813  0.3166
  621MOL0     C83730   5.540   8.467   2.631 -2.1668 -1.3307  0.4368
  621MOL0     O83731   5.642   8.378   2.675  0.3756 -0.2019  1.3593
  621MOL0     C83732   5.774   8.407   2.641 -0.0069  0.4504  0.3201
  621MOL0     C83733   5.824   8.435   2.514  0.4674  0.5307 -0.3858
  621MOL0     C83734   5.957   8.434   2.491 -0.8458  0.1851  0.3297
  621MOL0     C83735   6.056   8.402   2.585 -0.0525  0.8689  0.0885
  621MOL0     O83736   6.180   8.395   2.539  0.2968  0.9461  0.2991
  621MOL0     C83737   6.293   8.360   2.623  0.2235  0.2883 -0.3091
  621MOL0     C83738   6.410   8.310   2.536 -0.8802 -0.5953 -0.4357
  621MOL0     C83739   6.537   8.328   2.620  0.0016  0.4311 -0.1328
  621MOL0     C83740   6.656   8.309   2.532  0.1993  0.1782  0.2864
  621MOL0     C83741   6.776   8.253   2.610  0.0363 -0.4112  0.4114
  621MOL0     C83742   6.896   8.260   2.512 -0.5218  0.2129 -0.2079
  621MOL0     C83743   7.010   8.186   2.573 -0.2145 -0.8756 -0.0869
  621MOL0     C83744   7.118   8.172   2.468 -0.4057  0.2485 -0.1202
  621MOL0    Cl83745   7.270   8.082   2.516  0.3313  0.0740 -0.7618
  621MOL0     C83746   6.010   8.372   2.710  1.0810 -0.2175 -0.9848
  621MOL0     C83747   5.868   8.375   2.736 -0.1182 -0.3656 -0.0877
  621MOL0     O83748   5.554   8.580   2.582  0.1414 -0.7365 -0.6082
  621MOL0     C83749   5.364   8.388   2.770  0.4460 -0.2329 -0.0398
  621MOL0     C83750   5.231   8.365   2.811  0.7719 -0.0748 -0.3736
  621MOL0     N83751   4.585   8.312   2.416  0.0295 -0.1054  0.4880
  621MOL0     N83752   4.499   8.355   2.327 -0.3726  0.5622  0.1234
  621MOL0     C83753   4.124   8.967   2.837 -0.1729 -0.4224 -0.0245
  621MOL0     C83754   4.247   8.976   2.917  0.3553 -0.2090  0.0890
  621MOL0     C83755   4.594   8.984   3.200 -1.0624 -0.1678  0.7263
  621MOL0     C83756   4.671   8.866   3.191 -0.1956 -0.4163  0.6175
  621MOL0     C83757   4.804   8.854   3.242 -0.5710  0.2948 -0.1573
  621MOL0     C83758   4.862   8.966   3.310 -0.6498  0.1482  0.0552
  621MOL0     O83759   4.988   8.941   3.366  0.4440 -1.2637  0.0096
  621MOL0     C83760   5.057   9.050   3.432  0.4821 -0.0806 -0.3857
  621MOL0     C83761   5.108   9.150   3.324 -0.0810 -0.7901  0.5549
  621MOL0     C83762   5.260   9.140   3.298 -0.1565  0.1963 -0.3746
  621MOL0     C83763   5.304   9.243   3.194 -0.0108 -0.0787  0.7850
  621MOL0     C83764   5.273   9.210   3.056  1.0985 -0.0939  0.0267
  621MOL0     C83765   5.258   9.177   2.939  0.3881 -0.0839  0.0757
  621MOL0     C83766   4.791   9.083   3.315  0.3463  0.1711 -0.3850
  621MOL0     C83767   4.662   9.090   3.268  0.2685 -1.1012 -0.0018
  621MOL0     H83768   4.189   8.733   3.146 -2.2447  0.9799  1.4855
  621MOL0     H83769   3.970   8.725   3.023  0.7646 -0.7042  0.6712
  621MOL0     H83770   3.851   8.938   2.622 -2.4481  0.9681  1.2198
  621MOL0     H83771   4.017   8.874   2.633 -0.7775  3.3963 -0.2807
  621MOL0     H83772   3.937   8.637   2.623  0.5263 -0.9041 -0.8660
  621MOL0     H83773   3.767   8.696   2.635  1.4332 -1.4024  0.5525
  621MOL0     H83774   3.828   8.647   2.417 -1.2179 -1.2592  2.2755
  621MOL0     H83775   3.799   8.820   2.449  0.6497  0.3155  0.2917
  621MOL0     H83776   4.014   8.869   2.364  1.3610  1.6058  3.1858
  621MOL0     H83777   4.098   8.749   2.454  1.3319  1.1271 -1.3076
  621MOL0     H83778   3.990   8.562   2.289 -0.4497  1.5904  1.7176
  621MOL0     H83779   3.972   8.708   2.193 -1.1120  0.0089  0.1970
  621MOL0     H83780   4.179   8.636   2.114  0.6952  1.7665 -0.9925
  621MOL0     H83781   4.207   8.771   2.231  1.3736 -0.4074  0.3792
  621MOL0     H83782   4.280   8.619   2.405 -2.0384  1.9269 -0.2988
  621MOL0     H83783   4.231   8.478   2.311  0.1722  1.4474 -0.2523
  621MOL0     H83784   4.449   8.676   2.271 -0.2628 -0.0010  1.3296
  621MOL0     H83785   4.424   8.544   2.148 -0.8519  1.7984 -0.2688
  621MOL0     H83786   4.617   8.637   2.443 -2.7452  0.3492  1.3268
  621MOL0     H83787   4.853   8.361   2.509 -1.1145 -0.6311 -1.5691
  621MOL0     H83788   4.785   8.487   2.624 -0.2532 -0.6748  1.6622
  621MOL0     H83789   4.732   8.195   2.635  0.9743 -0.7698  1.9733
  621MOL0     H83790   4.622   8.312   2.716 -0.7770  0.5046 -1.6899
  621MOL0     H83791   4.764   8.219   2.876  1.1790 -3.3817 -2.8838
  621MOL0     H83792   4.800   8.397   2.851 -0.7052  0.5067  0.1524
  621MOL0     H83793   4.956   8.174   2.730 -0.1257  1.8921 -2.8544
  621MOL0     H83794   4.988   8.241   2.893 -0.4579 -1.0067  0.0074
  621MOL0     H83795   5.098   8.476   2.518 -0.0844  1.3534  0.1195
  621MOL0     H83796   5.424   8.536   2.398  1.3384 -2.2147 -0.5855
  621MOL0     H83797   5.293   8.423   2.347 -0.1934  2.4028 -0.6367
  621MOL0     H83798   5.250   8.587   2.385 -0.3769  1.4454  2.4739
  621MOL0     H83799   5.753   8.448   2.433 -1.3558  0.3050  1.1093
  621MOL0     H83800   5.977   8.460   2.388 -0.3376 -1.1084  0.0939
  621MOL0     H83801   6.317   8.446   2.686 -1.9192  0.0458  0.9219
  621MOL0     H83802   6.278   8.278   2.694  2.0043 -0.7506 -1.0396
  621MOL0     H83803   6.394   8.204   2.513  1.2343 -0.4575 -3.1264
  621MOL0     H83804   6.421   8.371   2.446 -1.3305  1.0176  0.5611
  621MOL0     H83805   6.529   8.246   2.691  0.3360  0.3068 -0.2390
  621MOL0     H83806   6.541   8.432   2.656 -1.5154  1.8335 -3.5822
  621MOL0     H83807   6.622   8.240   2.454 -1.6633 -1.4316  2.3680
  621MOL0     H83808   6.688   8.404   2.489 -2.5570  1.7532  1.4208
  621MOL0     H83809   6.749   8.148   2.626  0.0177 -0.0661  3.2594
  621MOL0     H83810   6.788   8.301   2.708 -0.7428  2.1690 -0.6737
  621MOL0     H83811   6.872   8.202   2.422  2.7558 -1.8334  0.0740
  621MOL0     H83812   6.923   8.360   2.476 -1.8521 -0.4159 -3.3529
  621MOL0     H83813   6.978   8.085   2.603 -1.3466 -0.4896  0.0594
  621MOL0     H83814   7.045   8.234   2.665 -0.5737 -1.7568  0.5373
  621MOL0     H83815   7.150   8.274   2.442  0.9474 -0.5547 -1.7903
  621MOL0     H83816   7.077   8.109   2.389  0.3174 -0.3275 -0.0487
  621MOL0     H83817   6.074   8.332   2.787  0.1354 -1.5314 -0.8356
  621MOL0     H83818   5.834   8.344   2.834  1.7117  0.8865  1.0088
  621MOL0     H83819   5.435   8.351   2.844  0.1827 -2.1509 -0.7055
  621MOL0     H83820   5.196   8.330   2.908 -0.5685 -1.7582 -1.3950
  621MOL0     H83821   4.116   9.017   2.741  1.7175  0.7348  0.3620
  621MOL0     H83822   4.327   9.039   2.880  0.4690 -0.4733 -0.1204
  621MOL0     H83823   4.621   8.784   3.139 -1.0940  0.5165 -0.0275
  621MOL0     H83824   4.863   8.765   3.223 -0.5671 -0.2595  2.1653
  621MOL0     H83825   4.990   9.106   3.499  1.6446 -0.1933  0.9143
  621MOL0     H83826   5.146   9.012   3.483  1.1205  1.0701 -0.6141
  621MOL0     H83827   5.081   9.249   3.361  2.2073 -0.5716  1.8588
  621MOL0     H83828   5.051   9.135   3.232  2.9571  1.9006 -2.0344
  621MOL0     H83829   5.291   9.038   3.276  2.3079  0.4159  1.5702
  621MOL0     H83830   5.304   9.161   3.396 -0.1420 -0.2403 -0.2888
  621MOL0     H83831   5.412   9.253   3.195 -0.0749  1.5835 -1.6514
  621MOL0     H83832   5.263   9.341   3.218  2.4958  1.3894 -0.5471
  621MOL0     H83833   5.238   9.121   2.850  2.0565 -0.6245  0.0045
  621MOL0     H83834   4.817   9.179   3.358  0.4987 -0.5393  1.1446
  621MOL0     H83835   4.614   9.187   3.274  1.4047 -0.5853  0.9187
  622MOL0     O83836   5.392   8.734   3.918  0.3545 -0.1080 -0.4614
  622MOL0     C83837   5.461   8.645   3.973 -0.0012  0.1880 -0.8053
  622MOL0     O83838   5.413   8.556   4.067  0.0752  0.2449  0.3651
  622MOL0     C83839   5.282   8.566   4.112  0.8095 -0.5330  0.1225
  622MOL0     C83840   5.165   8.517   4.051 -0.3100  1.6079 -0.0468
  622MOL0     C83841   5.037   8.542   4.092  0.1969  0.1156 -0.3358
  622MOL0     C83842   5.012   8.620   4.209 -0.0685 -0.1613 -0.0107
  622MOL0     O83843   4.892   8.659   4.254 -0.6045  0.0622 -0.2062
  622MOL0     C83844   4.779   8.617   4.174 -0.0594 -0.2523 -0.6922
  622MOL0     C83845   4.647   8.649   4.246  0.8627 -0.2303  0.3825
  622MOL0     C83846   4.537   8.629   4.141  1.2807 -0.5011  0.0279
  622MOL0     C83847   4.394   8.666   4.195 -0.1956 -0.2488 -0.5308
  622MOL0     C83848   4.336   8.560   4.302  0.8847  0.3264 -0.7025
  622MOL0     C83849   4.193   8.598   4.331 -0.2459 -0.1242  0.1838
  622MOL0     C83850   4.127   8.517   4.448  0.8735  0.3325  0.7506
  622MOL0     C83851   3.991   8.575   4.470  0.1558 -0.3863  0.8445
  622MOL0     N83852   3.896   8.496   4.549  0.2329 -0.4608 -0.0998
  622MOL0     C83853   3.797   8.413   4.512  0.3247  0.6348 -0.0441
  622MOL0     C83854   3.738   8.371   4.623 -0.1739  0.2175  0.3212
  622MOL0     C83855   3.624   8.274   4.651 -0.3771 -0.0117  0.6648
  622MOL0     C83856   3.502   8.354   4.654 -0.3595  0.7773 -0.5537
  622MOL0     C83857   3.388   8.254   4.669  0.8704 -0.5629  0.4361
  622MOL0     C83858   3.257   8.302   4.605 -0.1834  1.1478 -0.4663
  622MOL0     O83859   3.159   8.257   4.688 -0.2348 -0.4072 -0.4568
  622MOL0     C83860   3.033   8.230   4.645  0.6220  0.3308 -0.1108
  622MOL0     C83861   2.955   8.147   4.726  0.1615 -0.3426  0.0926
  622MOL0     C83862   2.827   8.107   4.686  0.0756 -0.3163  0.4750
  622MOL0     C83863   2.759   8.022   4.786 -0.5515 -0.4117  1.1900
  622MOL0     C83864   2.773   8.142   4.561 -0.2449 -0.4468 -0.3090
  622MOL0     C83865   2.639   8.096   4.514 -0.2448  0.1867 -1.4033
  622MOL0     O83866   2.547   8.060   4.603 -0.1370  0.1554 -0.7669
  622MOL0     C83867   2.415   8.021   4.562  0.1594 -1.0436  0.4245
  622MOL0     C83868   2.370   7.888   4.569  0.0819  0.2271 -0.0509
  622MOL0     C83869   2.244   7.860   4.518 -0.6804 -0.1056 -1.0001
  622MOL0     C83870   2.166   7.965   4.474 -1.0225  0.2732 -0.4561
  622MOL0     O83871   2.045   7.940   4.423 -0.6952 -0.1424  0.0180
  622MOL0     C83872   1.942   7.912   4.519 -0.4371 -0.2826  1.2125
  622MOL0     C83873   1.834   7.851   4.426  0.4820 -0.4568 -0.2693
  622MOL0     C83874   1.875   7.710   4.380  0.2700  0.0875  0.0390
  622MOL0     C83875   1.773   7.634   4.308  0.4477  0.4287  0.7316
  622MOL0     C83876   1.705   7.717   4.202  0.9378  0.1204  0.5934
  622MOL0     C83877   1.585   7.632   4.149  0.5746  0.7823  0.1201
  622MOL0     C83878   1.459   7.634   4.241  0.2364 -0.5787 -0.4688
  622MOL0     C83879   1.367   7.523   4.186 -0.4331 -0.1557 -0.0957
  622MOL0    Cl83880   1.221   7.526   4.288 -0.1248 -0.4487 -0.5656
  622MOL0     C83881   2.221   8.095   4.461  0.3699  0.4616  0.9024
  622MOL0     C83882   2.339   8.120   4.503  0.1739 -0.0371 -0.2496
  622MOL0     O83883   2.618   8.107   4.400 -0.2757  0.2948 -0.3069
  622MOL0     C83884   2.857   8.228   4.485  0.1798  0.2495  1.6023
  622MOL0     C83885   2.978   8.276   4.526 -0.3666  0.3206  0.3762
  622MOL0     N83886   3.801   8.437   4.738  0.3848 -0.0201  0.1199
  622MOL0     N83887   3.896   8.509   4.688 -0.0617 -0.0417  1.0675
  622MOL0     C83888   5.129   8.664   4.286  0.2185  0.8695  0.5138
  622MOL0     C83889   5.258   8.633   4.234  0.2261 -0.2617  0.6389
  622MOL0     C83890   5.604   8.629   3.930 -0.0481  0.6166 -0.4391
  622MOL0     C83891   5.667   8.711   3.838  1.1310 -1.1653 -0.5067
  622MOL0     C83892   5.794   8.689   3.806  0.1512  0.6626 -0.0265
  622MOL0     C83893   5.876   8.587   3.863 -0.2489  0.7307  0.3062
  622MOL0     O83894   6.007   8.577   3.826  0.2813 -0.6860  0.3290
  622MOL0     C83895   6.086   8.471   3.869 -0.0470 -0.4765 -0.0063
  622MOL0     C83896   6.230   8.495   3.835  0.0824 -0.1236  0.0413
  622MOL0     C83897   6.293   8.618   3.895  0.8392  0.0915 -0.2480
  622MOL0     C83898   6.405   8.665   3.795 -0.2786  0.1154  0.3766
  622MOL0     C83899   6.447   8.794   3.851 -0.6216  0.3319  1.2626
  622MOL0     C83900   6.495   8.900   3.873  0.2486 -0.3695 -0.0711
  622MOL0     C83901   5.813   8.505   3.955  0.1865 -0.3032 -0.4817
  622MOL0     C83902   5.682   8.523   3.988  0.2830  0.7272 -0.0373
  622MOL0     H83903   5.176   8.456   3.962 -1.8376  1.5579 -0.2276
  622MOL0     H83904   4.962   8.492   4.031 -2.8706  1.1262  2.2914
  622MOL0     H83905   4.789   8.659   4.074  3.4856  1.9443  0.3937
  622MOL0     H83906   4.781   8.510   4.151 -0.7126  0.0844 -2.4575
  622MOL0     H83907   4.631   8.589   4.336 -2.6169 -1.9748 -1.1740
  622MOL0     H83908   4.639   8.755   4.274  1.2199 -0.4006  1.1644
  622MOL0     H83909   4.551   8.693   4.053 -0.5145 -2.3436 -1.7328
  622MOL0     H83910   4.524   8.523   4.118  0.0415 -0.1236 -1.1876
  622MOL0     H83911   4.390   8.766   4.239 -2.9072 -0.8606  0.8321
  622MOL0     H83912   4.325   8.657   4.111  1.7300  0.4544 -2.2810
  622MOL0     H83913   4.345   8.457   4.268 -2.0040  0.2806 -1.5912
  622MOL0     H83914   4.401   8.571   4.389  1.7437  0.9947 -1.4062
  622MOL0     H83915   4.207   8.703   4.357 -0.7122  0.1685 -0.7022
  622MOL0     H83916   4.139   8.601   4.236  2.9199  1.4124 -1.7594
  622MOL0     H83917   4.120   8.420   4.397  1.2088 -0.8722  2.8419
  622MOL0     H83918   4.186   8.510   4.540  0.4229 -0.3699  0.9961
  622MOL0     H83919   3.938   8.592   4.375 -2.1651  0.0513  2.1369
  622MOL0     H83920   4.007   8.675   4.513 -0.0121  0.1808 -0.3619
  622MOL0     H83921   3.777   8.391   4.408 -2.4257  0.8794  0.3472
  622MOL0     H83922   3.618   8.211   4.561  0.1309  1.2968 -0.3230
  622MOL0     H83923   3.630   8.216   4.744  2.0652  0.1385  0.6605
  622MOL0     H83924   3.482   8.419   4.569  0.1901  0.7183 -0.7276
  622MOL0     H83925   3.502   8.416   4.745 -2.0975  0.0130  0.0169
  622MOL0     H83926   3.377   8.237   4.777  1.1377  0.5253  0.6397
  622MOL0     H83927   3.404   8.156   4.622 -1.9030 -0.5878 -0.6271
  622MOL0     H83928   3.249   8.250   4.509  2.5997 -1.5104  0.5695
  622MOL0     H83929   3.253   8.410   4.589 -3.8640  1.1526 -0.5098
  622MOL0     H83930   2.997   8.112   4.820  1.2487 -1.4184 -0.7557
  622MOL0     H83931   2.726   7.932   4.733  2.9335 -1.1736  0.0503
  622MOL0     H83932   2.820   7.988   4.870  2.4456  1.0308 -0.2617
  622MOL0     H83933   2.686   8.082   4.840  0.9487  0.3369  2.4558
  622MOL0     H83934   2.436   7.811   4.607  0.1354 -1.6879 -3.5369
  622MOL0     H83935   2.195   7.764   4.529  0.9454 -0.6504  3.9870
  622MOL0     H83936   1.983   7.848   4.598  0.8392 -0.8083  0.1453
  622MOL0     H83937   1.891   8.000   4.562 -1.1541  0.2227 -0.5958
  622MOL0     H83938   1.742   7.855   4.485  0.6410 -0.0998 -0.0373
  622MOL0     H83939   1.829   7.909   4.334  2.5799  1.5437  0.7749
  622MOL0     H83940   1.899   7.657   4.473  0.1052 -2.4864 -1.2726
  622MOL0     H83941   1.968   7.700   4.322  0.6426 -2.0423  0.8953
  622MOL0     H83942   1.828   7.556   4.255  2.2369  1.6460  0.6825
  622MOL0     H83943   1.707   7.596   4.387  0.5099  1.9129  1.5359
  622MOL0     H83944   1.761   7.735   4.110 -0.9631 -1.9274 -1.0858
  622MOL0     H83945   1.666   7.814   4.234  0.1160 -0.3782  1.1508
  622MOL0     H83946   1.566   7.660   4.045 -1.5453 -0.8885 -0.0187
  622MOL0     H83947   1.616   7.527   4.148 -2.8695 -0.3700 -1.1782
  622MOL0     H83948   1.416   7.735   4.240  3.4616  0.9181 -1.3995
  622MOL0     H83949   1.473   7.611   4.347 -0.3733 -2.6069 -0.7831
  622MOL0     H83950   1.418   7.426   4.191 -1.6444 -0.8000  0.2772
  622MOL0     H83951   1.327   7.545   4.087 -0.0036  1.0869 -0.0111
  622MOL0     H83952   2.166   8.181   4.426 -2.6655 -1.9989 -0.8089
  622MOL0     H83953   2.369   8.224   4.493 -1.9568  0.5993 -0.4553
  622MOL0     H83954   2.829   8.259   4.384  0.0433  4.3321  2.7087
  622MOL0     H83955   3.035   8.347   4.466  0.0466 -0.3171  0.0100
  622MOL0     H83956   5.115   8.732   4.369 -0.4148 -0.2593  1.3572
  622MOL0     H83957   5.341   8.671   4.293 -0.0564 -2.1490  2.3928
  622MOL0     H83958   5.606   8.781   3.782 -0.5339 -0.9611  1.4391
  622MOL0     H83959   5.828   8.757   3.728 -1.1211  2.2451  0.7173
  622MOL0     H83960   6.087   8.465   3.978 -3.5330  0.9219  0.2293
  622MOL0     H83961   6.048   8.374   3.834 -0.0093 -0.7309  0.6533
  622MOL0     H83962   6.234   8.496   3.726  1.8289  0.9145  0.0733
  622MOL0     H83963   6.286   8.404   3.860 -0.5532 -0.0395  1.9599
  622MOL0     H83964   6.334   8.597   3.994 -0.3312  2.3170  0.7944
  622MOL0     H83965   6.229   8.707   3.901  3.7853  2.6112 -2.4475
  622MOL0     H83966   6.385   8.662   3.687  0.4259 -3.1081  0.2345
  622MOL0     H83967   6.484   8.591   3.812 -0.1775  0.5876  2.1758
  622MOL0     H83968   6.537   8.997   3.891  0.4521 -0.0502 -1.9887
  622MOL0     H83969   5.855   8.423   4.011 -0.3111  1.8024  3.3602
  622MOL0     H83970   5.631   8.455   4.056  3.1281 -0.4579  1.0447
  623MOL0     O83971  10.011   0.900  11.277  0.3436 -0.0520 -0.3311
  623MOL0     C83972  10.088   0.876  11.366  0.3439 -0.4043 -1.0415
  623MOL0     O83973  10.058   0.875  11.497  0.3386 -0.3282 -0.5760
  623MOL0     C83974   9.944   0.920  11.546 -0.0704  0.4348 -0.3276
  623MOL0     C83975   9.916   0.851  11.666  0.6155 -0.7499 -0.2962
  623MOL0     C83976   9.793   0.872  11.730  0.2978  0.4318  0.0341
  623MOL0     C83977   9.688   0.961  11.674  0.5513  0.0542 -0.2488
  623MOL0     O83978   9.553   0.968  11.717 -0.0859  0.1203  0.5252
  623MOL0     C83979   9.530   0.884  11.824 -0.7891  0.4459 -0.9724
  623MOL0     C83980   9.382   0.872  11.855  0.1109  0.2070 -0.2113
  623MOL0     C83981   9.324   1.001  11.913  0.7513  0.5453  1.5151
  623MOL0     C83982   9.208   0.987  12.001 -0.0962 -0.6848 -0.3699
  623MOL0     C83983   9.109   0.880  11.947  0.1805 -0.1557  0.4391
  623MOL0     C83984   8.967   0.889  12.013 -1.0226 -0.3103  0.0984
  623MOL0     C83985   8.988   0.862  12.165  0.1934  0.2675  0.7050
  623MOL0     C83986   8.863   0.876  12.250 -0.5093  0.3157 -0.8183
  623MOL0     N83987   8.773   0.754  12.256 -0.4765  0.4123  0.1999
  623MOL0     C83988   8.797   0.640  12.317 -0.1727  0.1059  0.4587
  623MOL0     C83989   8.689   0.557  12.280 -0.2198  0.4578  0.1996
  623MOL0     C83990   8.684   0.411  12.312  0.3748 -0.1593 -0.4788
  623MOL0     C83991   8.647   0.372  12.464  0.6325 -0.4872  0.5975
  623MOL0     C83992   8.530   0.437  12.533  0.9789 -0.0714  1.0435
  623MOL0     C83993   8.400   0.401  12.463 -0.1090 -0.4503  0.4564
  623MOL0     O83994   8.351   0.274  12.484  0.0394  0.1900 -0.4013
  623MOL0     C83995   8.225   0.250  12.430  0.3757 -0.3819  0.4520
  623MOL0     C83996   8.190   0.117  12.425 -0.2721 -1.0074  0.4767
  623MOL0     C83997   8.066   0.077  12.363 -0.7025  0.5509 -0.1210
  623MOL0     C83998   8.036  -0.074  12.378 -0.3237  0.1302 -0.8285
  623MOL0     C83999   7.973   0.168  12.307 -0.3525  0.1686  0.0554
  623MOL0     C84000   7.848   0.132  12.249  0.1324 -0.2014 -0.3644
  623MOL0     O84001   7.747   0.094  12.338  1.0291 -0.5847 -0.4090
  623MOL0     C84002   7.624   0.039  12.297  0.0446 -0.0399  0.8968
  623MOL0     C84003   7.589  -0.009  12.170 -0.5047  0.3811 -0.6235
  623MOL0     C84004   7.462  -0.075  12.148 -0.4371 -0.6322  0.8517
  623MOL0     C84005   7.370  -0.074  12.252 -1.5530 -1.3208 -0.5904
  623MOL0     O84006   7.241  -0.116  12.216  0.3298 -0.1677 -0.1675
  623MOL0     C84007   7.156  -0.174  12.323 -0.8079  0.5600  0.2179
  623MOL0     C84008   7.011  -0.188  12.292  1.2482  0.1598  0.8515
  623MOL0     C84009   6.982  -0.314  12.218  0.4632  0.3871  0.1713
  623MOL0     C84010   6.945  -0.434  12.314 -0.9116 -0.9779 -0.0394
  623MOL0     C84011   6.886  -0.547  12.229  0.3318  0.1268 -0.0937
  623MOL0     C84012   6.737  -0.530  12.211 -0.9572  0.1679  0.1662
  623MOL0     C84013   6.679  -0.656  12.154 -0.8560  0.3448 -0.8209
  623MOL0     C84014   6.544  -0.626  12.094 -0.5710 -1.4145  0.0197
  623MOL0    Cl84015   6.439  -0.586  12.218  0.3414  0.1857 -0.0201
  623MOL0     C84016   7.407  -0.020  12.375  0.0875 -0.0044 -0.6486
  623MOL0     C84017   7.534   0.034  12.398  0.0640  0.1557 -0.6359
  623MOL0     O84018   7.842   0.146  12.129 -0.9564  0.5892  0.2159
  623MOL0     C84019   8.018   0.306  12.312  0.5721 -0.2341 -0.3984
  623MOL0     C84020   8.138   0.347  12.373 -0.3332 -0.0855 -0.2848
  623MOL0     N84021   8.593   0.635  12.232 -0.1014  0.5144 -0.1841
  623MOL0     N84022   8.639   0.756  12.227  0.1704  0.3737 -0.7701
  623MOL0     C84023   9.735   1.031  11.559  0.5504  0.8098  0.3906
  623MOL0     C84024   9.851   1.021  11.503 -0.1921  0.0807  0.0917
  623MOL0     C84025  10.223   0.838  11.333  0.9796  0.6731 -0.8881
  623MOL0     C84026  10.271   0.816  11.199  0.1109 -0.3697  0.2319
  623MOL0     C84027  10.402   0.772  11.169  0.0615  0.5698 -0.4721
  623MOL0     C84028  10.498   0.771  11.269  0.3671  0.5140 -0.2978
  623MOL0     O84029  10.625   0.734  11.223  0.0336  0.1666  0.4435
  623MOL0     C84030  10.737   0.757  11.312  1.0259 -1.2139  0.0039
  623MOL0     C84031  10.800   0.632  11.370  0.9550 -0.3408  0.2770
  623MOL0     C84032  10.955   0.662  11.394 -0.3898 -0.1871  0.5062
  623MOL0     C84033  11.017   0.562  11.489 -0.5981 -0.0328  0.7880
  623MOL0     C84034  10.961   0.574  11.625  0.3606  0.4520  0.1098
  623MOL0     C84035  10.922   0.580  11.739 -0.3791 -0.3091 -0.5498
  623MOL0     C84036  10.455   0.780  11.408  0.4446  0.5310  0.0665
  623MOL0     C84037  10.325   0.822  11.432  0.5089 -0.9336 -1.2329
  623MOL0     H84038   9.997   0.799  11.716  0.5849 -0.6572 -0.1503
  623MOL0     H84039   9.773   0.808  11.815 -1.0972  1.4590  0.5257
  623MOL0     H84040   9.559   0.782  11.795  1.6903  1.4984 -2.5553
  623MOL0     H84041   9.593   0.916  11.908 -1.4176 -2.1817  0.6327
  623MOL0     H84042   9.324   0.842  11.767  1.1384  0.5532 -1.0241
  623MOL0     H84043   9.361   0.788  11.922  2.1528  1.8423  2.7219
  623MOL0     H84044   9.403   1.064  11.956 -0.0304  3.5556 -1.1405
  623MOL0     H84045   9.293   1.049  11.820 -3.5532 -0.9841  1.9613
  623MOL0     H84046   9.248   0.964  12.100 -0.1642  1.0575  0.0893
  623MOL0     H84047   9.166   1.088  12.004  2.9552  0.7426 -1.6123
  623MOL0     H84048   9.090   0.892  11.839 -0.1788 -1.3726  0.3473
  623MOL0     H84049   9.149   0.778  11.952  0.7301 -0.0533 -1.2456
  623MOL0     H84050   8.931   0.990  11.993 -0.8014 -0.3127 -0.3144
  623MOL0     H84051   8.897   0.814  11.973 -0.4690 -0.3764 -0.7835
  623MOL0     H84052   9.034   0.763  12.171 -1.1676 -0.4268  0.1226
  623MOL0     H84053   9.049   0.943  12.205  3.4303 -1.3244 -0.6229
  623MOL0     H84054   8.806   0.964  12.219 -2.0718 -0.3827 -0.0188
  623MOL0     H84055   8.889   0.898  12.354 -0.3960  0.8754 -0.9619
  623MOL0     H84056   8.884   0.621  12.380 -0.7953  2.3730  2.1243
  623MOL0     H84057   8.621   0.353  12.243  0.3861 -1.5836  0.6596
  623MOL0     H84058   8.783   0.377  12.278  1.3920  2.3109 -0.1393
  623MOL0     H84059   8.737   0.386  12.525 -0.0730 -2.0381  2.0775
  623MOL0     H84060   8.624   0.265  12.463 -1.3332 -0.1180 -1.0787
  623MOL0     H84061   8.543   0.544  12.511 -0.0263 -0.4008 -1.6663
  623MOL0     H84062   8.532   0.417  12.640 -0.2831 -1.6032  0.8153
  623MOL0     H84063   8.411   0.425  12.357  0.3746  1.3346  0.8731
  623MOL0     H84064   8.328   0.471  12.507  1.5669 -0.4418  3.4748
  623MOL0     H84065   8.260   0.048  12.471 -0.5139 -1.8650 -0.3965
  623MOL0     H84066   8.102  -0.096  12.463  0.1353  1.6537 -0.7635
  623MOL0     H84067   7.933  -0.102  12.403 -0.2534 -0.7669 -1.4778
  623MOL0     H84068   8.056  -0.130  12.286 -1.5460 -3.2529  0.7845
  623MOL0     H84069   7.665   0.004  12.094 -0.2140 -0.3189 -0.4632
  623MOL0     H84070   7.430  -0.130  12.060  1.1969  0.5431 -0.5251
  623MOL0     H84071   7.194  -0.270  12.359  5.4763  1.8855 -1.6914
  623MOL0     H84072   7.166  -0.110  12.411  2.3058 -0.2060  0.5247
  623MOL0     H84073   6.953  -0.162  12.381 -0.2263  3.4904 -0.8919
  623MOL0     H84074   6.981  -0.114  12.217 -2.2345  1.1243  2.9528
  623MOL0     H84075   7.062  -0.354  12.156 -3.3415 -1.1332 -4.4351
  623MOL0     H84076   6.896  -0.296  12.152  1.2771  0.1432 -0.9770
  623MOL0     H84077   7.030  -0.486  12.359  0.3878 -1.1742 -2.5593
  623MOL0     H84078   6.869  -0.406  12.388 -1.4740 -1.0941 -0.5615
  623MOL0     H84079   6.892  -0.643  12.281  0.7835  0.4876  0.5344
  623MOL0     H84080   6.932  -0.568  12.131 -2.7666 -1.2992 -1.3866
  623MOL0     H84081   6.682  -0.493  12.298 -1.2399  2.8181 -1.0102
  623MOL0     H84082   6.722  -0.457  12.130 -0.1292  1.0883  0.8122
  623MOL0     H84083   6.657  -0.718  12.242 -1.0050  2.1600  0.4684
  623MOL0     H84084   6.734  -0.717  12.081 -0.9293 -1.7759  0.7764
  623MOL0     H84085   6.522  -0.701  12.017 -0.5629  2.2880 -3.9211
  623MOL0     H84086   6.537  -0.539  12.029 -0.3123 -2.0684 -0.9119
  623MOL0     H84087   7.340  -0.012  12.460 -2.0121  1.6560 -2.3875
  623MOL0     H84088   7.561   0.077  12.494 -1.9239  1.6505 -0.6864
  623MOL0     H84089   7.954   0.383  12.270 -0.7011 -1.7382 -1.3024
  623MOL0     H84090   8.157   0.454  12.374 -1.3784  0.1030  0.1179
  623MOL0     H84091   9.670   1.105  11.513 -2.2492 -1.9099 -0.3822
  623MOL0     H84092   9.882   1.071  11.411 -0.5455 -0.8071 -0.5287
  623MOL0     H84093  10.208   0.845  11.116 -1.0291 -1.3889  0.7114
  623MOL0     H84094  10.428   0.773  11.063  2.0834  1.9466 -0.0200
  623MOL0     H84095  10.803   0.830  11.263 -2.3469  1.9195 -0.3185
  623MOL0     H84096  10.696   0.819  11.392 -1.6299 -1.0157 -1.4054
  623MOL0     H84097  10.775   0.545  11.308  2.7615 -1.3474  0.9121
  623MOL0     H84098  10.749   0.619  11.466  0.6916 -1.2509  0.0303
  623MOL0     H84099  10.973   0.763  11.430 -0.5925  0.3992 -0.9647
  623MOL0     H84100  11.003   0.654  11.296  1.1501 -3.4391  1.3665
  623MOL0     H84101  11.126   0.570  11.491 -0.7028  1.6505  1.5103
  623MOL0     H84102  10.984   0.464  11.453  1.3730  0.3704 -2.4372
  623MOL0     H84103  10.867   0.610  11.825  1.2675  1.2734  0.0184
  623MOL0     H84104  10.515   0.766  11.498  2.6919  0.4527 -1.3700
  623MOL0     H84105  10.297   0.852  11.533  0.2006 -0.5878 -1.4187
  624MOL0     O84106   6.214   6.189   9.121  0.1458  0.8905  0.0698
  624MOL0     C84107   6.312   6.260   9.112 -0.6409  0.6865 -0.8755
  624MOL0     O84108   6.315   6.381   9.168 -0.1856 -0.4881  0.0514
  624MOL0     C84109   6.211   6.449   9.223 -0.0146 -0.0808 -0.2352
  624MOL0     C84110   6.076   6.423   9.241  0.3298 -0.4034 -0.2888
  624MOL0     C84111   5.990   6.519   9.300  0.4977  0.6906 -0.3554
  624MOL0     C84112   6.046   6.631   9.367 -1.5502 -0.2859  0.3521
  624MOL0     O84113   5.982   6.730   9.432  0.7044 -0.3604 -0.1582
  624MOL0     C84114   5.841   6.705   9.456 -0.4576  0.3971 -0.1764
  624MOL0     C84115   5.787   6.833   9.523  0.1799  0.5412  0.1573
  624MOL0     C84116   5.639   6.824   9.558  0.0830 -0.3539  0.0262
  624MOL0     C84117   5.607   6.721   9.660  0.6853 -0.5534  0.4082
  624MOL0     C84118   5.457   6.733   9.699 -0.4412 -0.2243 -0.4247
  624MOL0     C84119   5.461   6.809   9.834 -0.4662 -0.1932  0.3238
  624MOL0     C84120   5.333   6.852   9.903  0.5527 -0.2303 -0.7807
  624MOL0     C84121   5.257   6.957   9.821 -0.0798 -0.4409 -0.1499
  624MOL0     N84122   5.129   6.913   9.761  0.3306 -0.0727  0.0754
  624MOL0     C84123   5.031   6.831   9.811  0.0762  0.0839 -0.3166
  624MOL0     C84124   4.909   6.861   9.757 -0.3342 -0.1950  0.3746
  624MOL0     C84125   4.770   6.798   9.778  0.2288  0.4697 -1.2591
  624MOL0     C84126   4.689   6.777   9.648  0.3273 -0.3495  0.7325
  624MOL0     C84127   4.742   6.657   9.561  0.0040  0.1749 -0.2292
  624MOL0     C84128   4.887   6.660   9.519  0.2618 -0.3541 -0.1898
  624MOL0     O84129   4.972   6.596   9.603 -0.3803 -0.2578 -0.6630
  624MOL0     C84130   5.101   6.563   9.569  0.3562 -0.0977  0.0085
  624MOL0     C84131   5.171   6.474   9.644  0.2875  0.2323 -0.8642
  624MOL0     C84132   5.295   6.418   9.616 -0.0530 -0.3285 -0.3959
  624MOL0     C84133   5.343   6.306   9.704 -0.9020 -0.1054 -0.7547
  624MOL0     C84134   5.360   6.470   9.497  0.3365 -0.0782 -0.2723
  624MOL0     C84135   5.483   6.420   9.450 -0.1810  0.6280 -0.3752
  624MOL0     O84136   5.521   6.448   9.318  0.3793 -0.2016 -0.2675
  624MOL0     C84137   5.611   6.361   9.256 -0.2093 -0.1838 -0.4325
  624MOL0     C84138   5.630   6.223   9.282  0.5019  1.0468  0.8374
  624MOL0     C84139   5.721   6.150   9.208 -0.5941  0.5059 -0.9234
  624MOL0     C84140   5.783   6.210   9.095  0.1582 -0.7213 -0.3522
  624MOL0     O84141   5.871   6.148   9.005 -0.5656 -0.3914 -0.6034
  624MOL0     C84142   5.922   6.017   9.039  0.8442  0.3852  0.0482
  624MOL0     C84143   5.996   5.955   8.927  0.3125  0.5339  0.9256
  624MOL0     C84144   5.911   5.960   8.801  0.6185  0.4745  0.5509
  624MOL0     C84145   5.977   5.875   8.687  0.0413 -0.5950  0.7262
  624MOL0     C84146   5.883   5.875   8.562  0.2056 -0.8315 -0.0039
  624MOL0     C84147   5.926   5.768   8.450  0.8765  0.2757 -0.2538
  624MOL0     C84148   5.839   5.784   8.331 -0.5503 -0.2769 -0.1766
  624MOL0     C84149   5.858   5.668   8.229 -1.1764 -0.2670  0.4099
  624MOL0    Cl84150   5.725   5.554   8.243 -0.3147 -0.5786 -0.0050
  624MOL0     C84151   5.749   6.344   9.056  0.0713  0.4257  0.6246
  624MOL0     C84152   5.673   6.417   9.145 -0.0038 -0.1412  0.1104
  624MOL0     O84153   5.547   6.344   9.527 -0.2183  0.0963  0.2613
  624MOL0     C84154   5.295   6.573   9.426 -0.4161 -0.4089  0.5470
  624MOL0     C84155   5.167   6.609   9.459 -0.4278 -0.1322  0.5323
  624MOL0     N84156   4.940   6.973   9.681  0.2147  0.4482  0.3025
  624MOL0     N84157   5.062   7.000   9.680  0.3468  0.4108 -0.6782
  624MOL0     C84158   6.186   6.653   9.359  0.2276 -0.8589  0.5112
  624MOL0     C84159   6.262   6.561   9.291  0.1186  0.2977  0.0195
  624MOL0     C84160   6.437   6.206   9.051  0.0619  0.0303  0.1180
  624MOL0     C84161   6.445   6.070   9.008  0.4939 -0.2434  0.2536
  624MOL0     C84162   6.564   6.017   8.967  0.4644  0.2116  0.2440
  624MOL0     C84163   6.673   6.101   8.936  0.4955  0.0670 -0.3991
  624MOL0     O84164   6.791   6.031   8.905 -0.5728 -1.1614  0.2052
  624MOL0     C84165   6.914   6.103   8.890 -0.7962 -0.6113 -0.5184
  624MOL0     C84166   6.996   6.095   9.021  0.5735 -0.5163 -1.3606
  624MOL0     C84167   6.929   6.179   9.130 -0.1850 -0.5879  0.7108
  624MOL0     C84168   7.010   6.216   9.246 -0.3605 -0.4203 -0.9761
  624MOL0     C84169   7.042   6.109   9.343  0.9981  0.3642 -0.3504
  624MOL0     C84170   7.046   6.031   9.437  0.3059  0.5061  0.7119
  624MOL0     C84171   6.652   6.241   8.949  0.3388  0.0127 -0.1905
  624MOL0     C84172   6.541   6.291   9.012 -0.0670 -0.1468 -0.4645
  624MOL0     H84173   6.036   6.331   9.200 -1.0138  1.1110 -2.6400
  624MOL0     H84174   5.883   6.504   9.292  0.6612 -0.7550 -0.0851
  624MOL0     H84175   5.786   6.685   9.364 -2.6214  3.7270  0.2536
  624MOL0     H84176   5.833   6.611   9.513  0.5142 -0.3730 -1.2684
  624MOL0     H84177   5.838   6.842   9.619  0.6319 -1.3135  0.1242
  624MOL0     H84178   5.802   6.917   9.454  1.2111  0.1957 -0.0528
  624MOL0     H84179   5.625   6.926   9.593  1.1613  1.4381 -4.1061
  624MOL0     H84180   5.577   6.824   9.467 -0.8704 -1.7567  0.6271
  624MOL0     H84181   5.622   6.622   9.616 -0.7078 -0.3393 -0.6128
  624MOL0     H84182   5.675   6.734   9.746  0.7935  3.1377 -0.0370
  624MOL0     H84183   5.404   6.792   9.624 -0.5824  0.4495  0.1916
  624MOL0     H84184   5.417   6.637   9.732 -2.7166  1.7292  3.3400
  624MOL0     H84185   5.494   6.737   9.910 -0.0383  0.2192  0.5362
  624MOL0     H84186   5.523   6.899   9.829 -1.2176  0.4903  2.2721
  624MOL0     H84187   5.267   6.764   9.911 -0.6057  0.7285  0.7398
  624MOL0     H84188   5.354   6.884  10.005  3.4338 -3.4625 -0.1659
  624MOL0     H84189   5.316   7.010   9.746  2.0331  1.3775  2.5841
  624MOL0     H84190   5.237   7.043   9.886 -1.4391  1.7999 -3.3139
  624MOL0     H84191   5.033   6.750   9.883 -1.8392  0.6963  0.5119
  624MOL0     H84192   4.788   6.706   9.834  0.7957  1.8906  1.0576
  624MOL0     H84193   4.715   6.871   9.838  0.6669  2.8930 -3.6404
  624MOL0     H84194   4.691   6.871   9.592  1.4449 -1.6154 -1.4800
  624MOL0     H84195   4.586   6.756   9.677 -0.6180  1.7344 -0.8913
  624MOL0     H84196   4.674   6.640   9.477 -1.1646  0.2412  0.6768
  624MOL0     H84197   4.738   6.567   9.622  1.1903  0.0556 -0.2949
  624MOL0     H84198   4.921   6.763   9.509  0.8347 -0.4058  1.0613
  624MOL0     H84199   4.900   6.609   9.422  0.3150  0.9811 -0.9081
  624MOL0     H84200   5.114   6.454   9.734 -0.0927  0.8302 -0.9647
  624MOL0     H84201   5.413   6.343   9.779 -1.3892  0.1528 -0.4214
  624MOL0     H84202   5.260   6.255   9.754 -0.0704 -1.4910 -0.7356
  624MOL0     H84203   5.397   6.224   9.656  0.8750 -0.6061  1.9458
  624MOL0     H84204   5.579   6.168   9.361 -0.4019 -0.8935 -1.0009
  624MOL0     H84205   5.746   6.049   9.238 -5.1010 -0.1328  1.4885
  624MOL0     H84206   5.985   6.021   9.128  0.6300  1.4712  0.1671
  624MOL0     H84207   5.837   5.950   9.051  0.0590  0.8507 -2.3371
  624MOL0     H84208   6.092   6.003   8.904  0.0331 -0.8852 -4.4734
  624MOL0     H84209   6.016   5.851   8.952  0.7574  0.4840  0.3677
  624MOL0     H84210   5.880   6.057   8.761  1.1839  0.8107  0.9201
  624MOL0     H84211   5.821   5.910   8.837 -0.1899  0.4325 -1.3885
  624MOL0     H84212   6.079   5.905   8.661 -0.9834  0.9119 -2.0944
  624MOL0     H84213   5.974   5.769   8.713  1.1488 -0.8890 -0.2451
  624MOL0     H84214   5.879   5.971   8.509 -1.7710 -0.5982  0.4955
  624MOL0     H84215   5.783   5.844   8.594  0.0021  0.7283  0.9959
  624MOL0     H84216   6.032   5.790   8.434  0.7792 -0.5488 -2.3404
  624MOL0     H84217   5.919   5.667   8.490 -0.8699 -0.2099 -1.6539
  624MOL0     H84218   5.874   5.876   8.284 -1.6587 -0.1403 -0.7796
  624MOL0     H84219   5.737   5.817   8.354 -0.0984  1.9655 -1.1313
  624MOL0     H84220   5.953   5.616   8.249 -0.2259  1.6947  1.2066
  624MOL0     H84221   5.854   5.706   8.126 -1.2678 -0.5132  0.3203
  624MOL0     H84222   5.804   6.388   8.974  2.4707 -1.9696  0.8391
  624MOL0     H84223   5.671   6.524   9.129 -1.6346 -0.2942 -0.9747
  624MOL0     H84224   5.329   6.622   9.335  1.2827 -0.7061  0.9977
  624MOL0     H84225   5.118   6.686   9.399 -0.1701  0.1367  0.6643
  624MOL0     H84226   6.216   6.746   9.406  1.0468 -0.8841  0.0601
  624MOL0     H84227   6.368   6.584   9.281 -0.0919  0.7771 -1.3521
  624MOL0     H84228   6.351   6.017   9.021  0.4371 -0.2896 -0.3145
  624MOL0     H84229   6.576   5.911   8.950  2.4790  0.3845  0.2873
  624MOL0     H84230   6.981   6.052   8.820  1.3920  2.1821 -0.6462
  624MOL0     H84231   6.898   6.204   8.849  0.9385 -0.2434 -0.3397
  624MOL0     H84232   7.096   6.137   9.004  1.1897 -1.6106 -0.5651
  624MOL0     H84233   7.009   5.992   9.053 -0.1765 -0.9889 -2.5165
  624MOL0     H84234   6.846   6.129   9.180 -1.0511  0.6997  0.6042
  624MOL0     H84235   6.894   6.272   9.084  2.2114  2.1813  3.9306
  624MOL0     H84236   6.955   6.292   9.302 -2.7569 -2.0861 -0.9125
  624MOL0     H84237   7.102   6.271   9.224 -1.0724  1.0488 -0.4202
  624MOL0     H84238   7.044   5.977   9.529 -2.1706  0.1851  0.5345
  624MOL0     H84239   6.733   6.307   8.918  0.2112  0.7860  1.0680
  624MOL0     H84240   6.533   6.394   9.045  3.1961  1.2536 -3.4676
  625MOL0     O84241   5.582   9.164   9.942 -0.2464 -0.1512 -0.8447
  625MOL0     C84242   5.559   9.256  10.018 -0.1110  0.7033 -0.2218
  625MOL0     O84243   5.449   9.336  10.018 -0.1630 -0.0909  0.0579
  625MOL0     C84244   5.348   9.321   9.928 -0.1042 -1.4353  0.4904
  625MOL0     C84245   5.301   9.438   9.871  0.3657  1.2428 -0.9095
  625MOL0     C84246   5.207   9.438   9.774  0.8084 -0.0014  0.5048
  625MOL0     C84247   5.155   9.313   9.722  0.4845 -0.8699  0.1828
  625MOL0     O84248   5.052   9.299   9.628 -0.1630 -0.1015  0.3745
  625MOL0     C84249   4.921   9.329   9.680 -0.3760  0.8500 -0.2508
  625MOL0     C84250   4.871   9.458   9.612  0.0600 -0.3571 -0.1891
  625MOL0     C84251   4.858   9.444   9.459  0.0134  0.4153  0.2530
  625MOL0     C84252   4.938   9.545   9.394  0.1115 -0.0012  0.2071
  625MOL0     C84253   4.932   9.528   9.238  0.8240 -0.5259 -0.1021
  625MOL0     C84254   5.033   9.620   9.164  0.2784 -0.0051 -0.3636
  625MOL0     C84255   5.176   9.565   9.143  0.7294 -0.6700  0.0934
  625MOL0     C84256   5.268   9.667   9.077  0.4913  0.5693  0.3383
  625MOL0     N84257   5.306   9.773   9.171  0.7059 -0.5149 -0.0875
  625MOL0     C84258   5.387   9.766   9.280  0.7122  0.2178 -0.0847
  625MOL0     C84259   5.391   9.895   9.328  0.3553  0.0632 -0.1945
  625MOL0     C84260   5.484   9.953   9.434  0.5406  0.4668  1.5664
  625MOL0     C84261   5.544   9.842   9.519  0.1996 -0.7362 -0.0577
  625MOL0     C84262   5.616   9.909   9.627  0.0001 -0.1501  0.3296
  625MOL0     C84263   5.668   9.830   9.745 -0.2111  0.3203 -0.4765
  625MOL0     O84264   5.759   9.725   9.712  0.2704 -1.0494  0.0048
  625MOL0     C84265   5.864   9.700   9.798 -0.4223  0.1039 -0.5290
  625MOL0     C84266   5.867   9.730   9.941  0.2060 -0.7035  0.0723
  625MOL0     C84267   5.981   9.712  10.024 -0.6232 -0.2165  0.0279
  625MOL0     C84268   5.975   9.759  10.167 -1.0534 -0.3805 -0.7503
  625MOL0     C84269   6.093   9.642   9.971 -0.8070  0.7541 -0.4957
  625MOL0     C84270   6.216   9.601  10.053  0.5044  0.7404  0.6033
  625MOL0     O84271   6.317   9.549   9.976 -0.7072  0.1659  0.5125
  625MOL0     C84272   6.443   9.534  10.019 -0.3270  0.4852 -0.3745
  625MOL0     C84273   6.526   9.469   9.924 -0.0227  0.8699  0.1777
  625MOL0     C84274   6.665   9.446   9.954  0.8448  0.0906  0.2328
  625MOL0     C84275   6.721   9.486  10.071 -0.1043  0.6033 -0.5756
  625MOL0     O84276   6.854   9.472  10.096  0.1556 -0.0292 -0.2542
  625MOL0     C84277   6.925   9.354  10.049 -0.0204 -0.0450  0.0889
  625MOL0     C84278   7.060   9.340  10.123 -0.7180  0.5601 -0.2010
  625MOL0     C84279   7.135   9.209  10.080 -0.5959  0.7967 -0.8432
  625MOL0     C84280   7.201   9.243   9.943  1.6612  0.9092 -0.2328
  625MOL0     C84281   7.292   9.128   9.879  0.5962  0.0850  0.1936
  625MOL0     C84282   7.394   9.074   9.975 -0.5469 -0.8527  0.4489
  625MOL0     C84283   7.511   9.170  10.003  0.2060  0.7477  0.0650
  625MOL0     C84284   7.619   9.096  10.076 -0.1675  1.0488 -0.0366
  625MOL0    Cl84285   7.717   8.987   9.964 -0.0135 -0.0903 -0.1775
  625MOL0     C84286   6.640   9.540  10.169 -0.0845 -0.2879 -0.3660
  625MOL0     C84287   6.506   9.578  10.138  0.1430  0.1032 -0.6363
  625MOL0     O84288   6.207   9.588  10.178  0.4285 -0.7309  0.5122
  625MOL0     C84289   6.086   9.617   9.834  0.7725  0.0194  0.7071
  625MOL0     C84290   5.978   9.639   9.747  1.1735  0.3950  0.6521
  625MOL0     N84291   5.300   9.969   9.255 -1.7353 -0.8285 -0.0160
  625MOL0     N84292   5.250   9.899   9.163 -0.1683  0.4770  0.1396
  625MOL0     C84293   5.205   9.199   9.768 -0.0784 -0.6878  0.1052
  625MOL0     C84294   5.298   9.202   9.870 -0.2282  0.4266  0.6232
  625MOL0     C84295   5.669   9.300  10.106  0.0882 -0.6029  0.4046
  625MOL0     C84296   5.649   9.396  10.200  0.8109  0.3651 -0.7534
  625MOL0     C84297   5.754   9.431  10.292  0.8555  0.1012 -0.0456
  625MOL0     C84298   5.878   9.380  10.276 -0.2504  0.6749  0.3462
  625MOL0     O84299   5.978   9.419  10.367  0.7425 -0.2162 -0.3396
  625MOL0     C84300   5.988   9.315  10.469  0.0906 -0.5583 -0.3287
  625MOL0     C84301   6.114   9.347  10.544  0.1885  0.1604 -0.5512
  625MOL0     C84302   6.241   9.292  10.472  0.5127 -0.4307  0.5568
  625MOL0     C84303   6.366   9.308  10.556  0.9449  0.6787  0.8899
  625MOL0     C84304   6.379   9.212  10.662 -0.0093  0.1776 -0.3164
  625MOL0     C84305   6.403   9.133  10.751 -0.1773 -0.2933  0.2059
  625MOL0     C84306   5.892   9.282  10.178 -0.3631  0.4682 -0.1485
  625MOL0     C84307   5.790   9.237  10.098 -0.1990 -0.2949 -0.2380
  625MOL0     H84308   5.355   9.525   9.907  0.2496  0.4980  1.1871
  625MOL0     H84309   5.170   9.536   9.746  0.9649 -0.4665 -1.4617
  625MOL0     H84310   4.864   9.237   9.661  1.5944 -0.5603  0.3156
  625MOL0     H84311   4.932   9.338   9.789  0.9720 -1.7945 -0.0812
  625MOL0     H84312   4.775   9.489   9.655  0.5694  0.3898  0.4450
  625MOL0     H84313   4.945   9.535   9.635 -0.1829  0.9593 -3.3345
  625MOL0     H84314   4.914   9.353   9.436  2.6993  1.3796  2.3819
  625MOL0     H84315   4.753   9.452   9.430 -0.0518  1.8578  0.7798
  625MOL0     H84316   4.899   9.645   9.418  1.5423  0.7177 -0.3600
  625MOL0     H84317   5.042   9.544   9.426  1.3856  1.1846 -3.4477
  625MOL0     H84318   4.962   9.425   9.215  1.4114 -0.1295 -1.1944
  625MOL0     H84319   4.831   9.548   9.203  0.7840 -0.3337  0.1186
  625MOL0     H84320   4.991   9.633   9.064 -0.7773  1.3357  0.2194
  625MOL0     H84321   5.037   9.719   9.211 -1.7424 -0.1000  0.1156
  625MOL0     H84322   5.222   9.540   9.240  1.6566  0.4156 -0.0455
  625MOL0     H84323   5.170   9.477   9.078  2.3750 -0.3116 -0.6061
  625MOL0     H84324   5.210   9.716   8.999 -2.1810 -2.3914  0.2480
  625MOL0     H84325   5.358   9.625   9.029  0.3183 -2.2180  2.1989
  625MOL0     H84326   5.456   9.690   9.316  1.2123  0.3619 -0.7241
  625MOL0     H84327   5.570   9.996   9.382 -0.3153  2.9739  2.1143
  625MOL0     H84328   5.430  10.030   9.489 -1.2495 -0.6102  1.4190
  625MOL0     H84329   5.610   9.775   9.464 -0.7586 -1.8547  0.1081
  625MOL0     H84330   5.460   9.800   9.576 -0.2400  1.4862  1.0629
  625MOL0     H84331   5.557   9.991   9.669 -1.3028 -1.0175  0.2340
  625MOL0     H84332   5.711   9.956   9.599  0.9145 -0.2108  2.9935
  625MOL0     H84333   5.586   9.790   9.805 -1.4696 -0.1587 -2.4195
  625MOL0     H84334   5.721   9.907   9.802  1.2036 -2.1620  1.7750
  625MOL0     H84335   5.776   9.769   9.986 -0.9892  0.6945 -3.2566
  625MOL0     H84336   5.965   9.687  10.248  1.0456  0.6738  0.5257
  625MOL0     H84337   6.073   9.806  10.180 -0.6596 -1.5906  0.8407
  625MOL0     H84338   5.887   9.824  10.176 -1.4421 -0.4591 -3.2515
  625MOL0     H84339   6.469   9.442   9.835  2.5131 -1.7940 -0.8058
  625MOL0     H84340   6.729   9.407   9.875  0.3771 -2.0463  0.8335
  625MOL0     H84341   6.853   9.273  10.061 -1.2080  0.9922  0.2195
  625MOL0     H84342   6.938   9.361   9.941  2.2427 -0.1988  0.2980
  625MOL0     H84343   7.119   9.432  10.121  1.6170 -0.8413 -2.0682
  625MOL0     H84344   7.040   9.340  10.231  2.7263  2.9551  0.6315
  625MOL0     H84345   7.066   9.129  10.052 -0.6116 -0.4106  2.3398
  625MOL0     H84346   7.209   9.185  10.156 -1.2755  1.5550  0.0747
  625MOL0     H84347   7.127   9.250   9.863  1.2416  2.2790  0.2572
  625MOL0     H84348   7.246   9.342   9.942  0.2308  1.5905 -1.3266
  625MOL0     H84349   7.333   9.176   9.791  0.3932  0.6757  0.4159
  625MOL0     H84350   7.223   9.044   9.863 -1.1882  1.0990  2.0368
  625MOL0     H84351   7.357   9.029  10.068 -0.3797 -1.4300  0.2403
  625MOL0     H84352   7.433   8.991   9.916 -1.1952 -0.6426 -0.2959
  625MOL0     H84353   7.466   9.248  10.066  2.6999  1.8219  0.6447
  625MOL0     H84354   7.544   9.222   9.913 -1.8139  1.3839 -0.3640
  625MOL0     H84355   7.573   9.043  10.160 -1.4995  0.0444 -1.3344
  625MOL0     H84356   7.702   9.158  10.111 -0.1931  2.2252 -1.9674
  625MOL0     H84357   6.672   9.583  10.264 -1.4992 -1.8452  0.8671
  625MOL0     H84358   6.449   9.628  10.216 -0.1017  0.4506 -1.0343
  625MOL0     H84359   6.178   9.573   9.797  3.4533  1.9521  4.4411
  625MOL0     H84360   5.982   9.611   9.642  1.9382  1.0929  0.4891
  625MOL0     H84361   5.167   9.103   9.733 -2.4436  0.8823 -1.9920
  625MOL0     H84362   5.353   9.110   9.888 -0.2655 -0.6348 -3.5914
  625MOL0     H84363   5.551   9.438  10.217  0.7764  0.0369 -0.0958
  625MOL0     H84364   5.737   9.503  10.371 -2.9438 -0.6770  0.0225
  625MOL0     H84365   5.913   9.336  10.545  0.2820  0.4303 -0.4005
  625MOL0     H84366   5.991   9.212  10.430 -1.3271 -0.3709 -0.9859
  625MOL0     H84367   6.097   9.310  10.645 -4.6557  1.1154 -0.7894
  625MOL0     H84368   6.119   9.455  10.558  1.9831  0.1981 -1.1591
  625MOL0     H84369   6.243   9.352  10.381 -1.9771  0.9425  1.3068
  625MOL0     H84370   6.241   9.183  10.461  2.1839 -0.5112  1.0657
  625MOL0     H84371   6.373   9.405  10.605  1.9771  0.0937  1.9626
  625MOL0     H84372   6.458   9.285  10.501  0.3489 -1.7349  0.7557
  625MOL0     H84373   6.436   9.045  10.802 -0.2991  0.0067  0.8166
  625MOL0     H84374   5.987   9.234  10.159  0.5488  2.0127  0.2992
  625MOL0     H84375   5.818   9.164  10.022 -0.1134 -0.3058 -0.1961
  626MOL0     O84376   1.716  11.061   6.654  0.3030 -1.1114 -0.0326
  626MOL0     C84377   1.768  11.103   6.549  0.0534 -0.2710  0.6061
  626MOL0     O84378   1.896  11.154   6.528  0.6847  0.0096 -0.3770
  626MOL0     C84379   1.989  11.162   6.629 -0.6069 -0.2619  0.1369
  626MOL0     C84380   1.975  11.115   6.764 -0.0761 -0.3003 -0.3201
  626MOL0     C84381   2.083  11.112   6.852  1.3267 -0.4230  0.2273
  626MOL0     C84382   2.212  11.141   6.810 -0.7824 -0.4839 -0.5082
  626MOL0     O84383   2.322  11.155   6.899 -0.2632 -0.0966 -0.7889
  626MOL0     C84384   2.298  11.128   7.034 -0.0807  0.5189 -0.6642
  626MOL0     C84385   2.423  11.148   7.113  0.2137  0.5234  0.5533
  626MOL0     C84386   2.419  11.107   7.265 -0.0265 -0.4192  0.0226
  626MOL0     C84387   2.303  11.180   7.345  0.4278  0.3843 -1.0810
  626MOL0     C84388   2.312  11.144   7.493  0.4729  1.0183  0.1267
  626MOL0     C84389   2.197  11.201   7.580 -0.2785  0.0726 -0.3211
  626MOL0     C84390   2.210  11.149   7.725 -0.6785  0.4464 -0.1064
  626MOL0     C84391   2.092  11.189   7.808  0.2115 -0.1866  0.0423
  626MOL0     N84392   2.106  11.330   7.867  0.0586 -0.2806 -0.0058
  626MOL0     C84393   2.221  11.383   7.925  0.5912  0.6855  0.5913
  626MOL0     C84394   2.183  11.491   7.996  0.8306  0.8756  0.0231
  626MOL0     C84395   2.283  11.563   8.083  0.1807  0.0302 -0.2250
  626MOL0     C84396   2.313  11.704   8.003 -0.2952  0.0606  0.6643
  626MOL0     C84397   2.414  11.680   7.879  0.1463  0.1812 -0.5370
  626MOL0     C84398   2.481  11.813   7.831 -0.6739  0.3424  0.2148
  626MOL0     O84399   2.614  11.829   7.880  0.6805  0.3774  0.1503
  626MOL0     C84400   2.715  11.738   7.839  0.3797  0.3092  0.3156
  626MOL0     C84401   2.839  11.753   7.892 -0.9948 -0.1560 -0.0971
  626MOL0     C84402   2.950  11.672   7.865  0.6001  1.1531 -0.2971
  626MOL0     C84403   3.082  11.712   7.914  1.2999 -0.9831 -0.4383
  626MOL0     C84404   2.932  11.558   7.774  0.2005  0.5714  0.4150
  626MOL0     C84405   3.041  11.473   7.730  0.2367 -0.8580  0.3620
  626MOL0     O84406   3.158  11.462   7.795 -0.4218 -0.7204  0.8390
  626MOL0     C84407   3.231  11.351   7.771 -1.4177 -0.2503 -0.3883
  626MOL0     C84408   3.227  11.242   7.861  0.0032  0.1913  0.8224
  626MOL0     C84409   3.318  11.138   7.851 -0.1408  0.4444  0.2993
  626MOL0     C84410   3.413  11.143   7.750 -0.6501  0.3842  0.6409
  626MOL0     O84411   3.495  11.029   7.751  0.4026  0.1692  0.2699
  626MOL0     C84412   3.575  11.001   7.632 -0.0273  0.2123 -0.2055
  626MOL0     C84413   3.625  10.863   7.655 -0.8080  0.0961  0.2060
  626MOL0     C84414   3.524  10.754   7.665 -0.5063 -0.3090  0.8452
  626MOL0     C84415   3.612  10.622   7.647  0.0829 -0.4981  0.5563
  626MOL0     C84416   3.544  10.491   7.678  0.4155 -0.7869 -0.5818
  626MOL0     C84417   3.472  10.426   7.561  0.6693 -0.1312 -0.3429
  626MOL0     C84418   3.405  10.289   7.599  0.3955 -0.4150  0.5295
  626MOL0     C84419   3.354  10.203   7.484 -0.0764 -0.2843  0.1233
  626MOL0    Cl84420   3.207  10.316   7.422  0.1130  0.4098  0.1496
  626MOL0     C84421   3.406  11.246   7.655 -0.2591  0.5385  0.2985
  626MOL0     C84422   3.318  11.350   7.664  0.8386  0.7331  0.5677
  626MOL0     O84423   3.020  11.418   7.616 -0.1635 -0.5100 -0.2962
  626MOL0     C84424   2.799  11.543   7.719 -0.2538  0.1606 -0.7979
  626MOL0     C84425   2.692  11.623   7.754 -0.9039 -0.3693 -0.8707
  626MOL0     N84426   2.052  11.513   7.981 -0.0322  0.1835 -0.3876
  626MOL0     N84427   2.003  11.413   7.911 -0.0614 -0.0251  1.3285
  626MOL0     C84428   2.219  11.190   6.682 -0.3988 -0.2439 -0.7103
  626MOL0     C84429   2.114  11.204   6.595 -0.5746 -0.2925 -0.4552
  626MOL0     C84430   1.677  11.118   6.436  0.4526  0.4564 -0.1057
  626MOL0     C84431   1.541  11.149   6.453 -0.5443  0.0749 -0.0194
  626MOL0     C84432   1.447  11.150   6.344  0.6596 -0.1765 -1.1208
  626MOL0     C84433   1.503  11.123   6.212  0.3694 -0.0570  0.9113
  626MOL0     O84434   1.440  11.128   6.089 -0.0384  0.6277 -0.3652
  626MOL0     C84435   1.312  11.072   6.075  0.2510 -0.4144 -0.1976
  626MOL0     C84436   1.303  10.956   5.973  0.8458 -0.2208  1.1416
  626MOL0     C84437   1.365  10.822   6.022  0.1418 -0.5304 -0.2149
  626MOL0     C84438   1.321  10.701   5.939  0.6442 -0.8956  0.4750
  626MOL0     C84439   1.408  10.588   5.970  0.5408  0.1079 -0.4725
  626MOL0     C84440   1.473  10.489   5.999  0.3731  0.2615  0.2130
  626MOL0     C84441   1.639  11.098   6.200  0.3368  0.4271 -0.0817
  626MOL0     C84442   1.731  11.092   6.309  0.3729 -0.8102  0.2486
  626MOL0     H84443   1.877  11.100   6.808  0.0923  0.2047  0.2394
  626MOL0     H84444   2.060  11.098   6.957 -0.4158  0.5773  0.0093
  626MOL0     H84445   2.215  11.192   7.065 -1.1823 -0.2799 -1.8944
  626MOL0     H84446   2.279  11.021   7.038 -4.0653  0.7882 -4.5575
  626MOL0     H84447   2.508  11.099   7.065 -0.2770  0.8599 -0.6782
  626MOL0     H84448   2.444  11.255   7.117 -0.7719  0.8712 -1.9817
  626MOL0     H84449   2.421  10.999   7.280 -0.2649 -0.3350  0.7262
  626MOL0     H84450   2.516  11.143   7.302 -0.3387  0.5064 -0.0307
  626MOL0     H84451   2.295  11.287   7.328 -0.2105  0.3231 -1.1844
  626MOL0     H84452   2.206  11.144   7.311  0.4152 -0.8230  0.1586
  626MOL0     H84453   2.306  11.035   7.494 -1.2727  0.9387 -3.5469
  626MOL0     H84454   2.408  11.175   7.534  0.6759 -0.1378  0.5632
  626MOL0     H84455   2.198  11.310   7.588  2.1265  0.0582  0.7065
  626MOL0     H84456   2.108  11.175   7.522 -0.4950  0.6368 -0.2536
  626MOL0     H84457   2.216  11.040   7.729  0.8309  0.5414  1.2130
  626MOL0     H84458   2.309  11.173   7.765 -1.6810  0.8544  2.2724
  626MOL0     H84459   2.076  11.124   7.894 -1.7392  2.3917  1.7570
  626MOL0     H84460   1.995  11.190   7.757 -1.1138  2.4244  2.3355
  626MOL0     H84461   2.320  11.340   7.918 -0.3813 -2.0340  1.8877
  626MOL0     H84462   2.235  11.576   8.180 -1.5762  0.0204 -1.0419
  626MOL0     H84463   2.369  11.499   8.104 -1.6125 -2.2495  0.5657
  626MOL0     H84464   2.354  11.764   8.084 -1.8370 -0.6046  1.9975
  626MOL0     H84465   2.220  11.748   7.965  1.9195  3.5979 -1.1775
  626MOL0     H84466   2.361  11.637   7.794 -0.3171 -0.9088  0.2844
  626MOL0     H84467   2.490  11.604   7.900 -0.3609 -0.7556 -2.0027
  626MOL0     H84468   2.420  11.903   7.846 -0.6085  0.0725  2.5312
  626MOL0     H84469   2.494  11.794   7.724 -1.1661 -2.0650  0.5108
  626MOL0     H84470   2.847  11.841   7.954 -3.8769  0.3647 -0.3215
  626MOL0     H84471   3.119  11.625   7.968  1.5978 -0.5120  0.1249
  626MOL0     H84472   3.159  11.738   7.840  3.2178 -2.4888  0.9342
  626MOL0     H84473   3.074  11.792   7.989  3.4043 -2.9406  2.0771
  626MOL0     H84474   3.153  11.239   7.940 -0.2777 -0.9552  0.5276
  626MOL0     H84475   3.311  11.047   7.910 -1.1935  0.5423  0.3312
  626MOL0     H84476   3.519  11.010   7.539 -0.5222  1.9071  0.2273
  626MOL0     H84477   3.658  11.070   7.617  2.0751 -2.5798 -3.1409
  626MOL0     H84478   3.676  10.841   7.561 -0.7576 -1.4003  0.5527
  626MOL0     H84479   3.709  10.855   7.725  2.8238  0.7064 -3.6657
  626MOL0     H84480   3.453  10.755   7.581  1.8114  1.7491 -1.2839
  626MOL0     H84481   3.481  10.739   7.764 -0.9830  1.2379  0.9001
  626MOL0     H84482   3.640  10.624   7.541  0.5169  0.4194  0.6843
  626MOL0     H84483   3.702  10.639   7.706 -0.6449  1.5510  1.1779
  626MOL0     H84484   3.481  10.514   7.764  1.0646  1.3051 -0.6096
  626MOL0     H84485   3.624  10.431   7.722  1.1844  0.3207 -0.4307
  626MOL0     H84486   3.397  10.501   7.533  2.3482  0.7366 -2.9573
  626MOL0     H84487   3.537  10.414   7.474 -1.5436 -0.9130 -2.0193
  626MOL0     H84488   3.316  10.310   7.659 -0.8332 -0.4089 -1.1963
  626MOL0     H84489   3.476  10.231   7.658  0.7629  0.3936  0.8894
  626MOL0     H84490   3.317  10.104   7.511 -0.1054 -0.3904 -0.3032
  626MOL0     H84491   3.432  10.191   7.409  1.0859  1.4695  0.9882
  626MOL0     H84492   3.462  11.240   7.562 -1.9246  0.7722 -0.7709
  626MOL0     H84493   3.326  11.422   7.583  1.0636 -1.1869 -1.2109
  626MOL0     H84494   2.782  11.477   7.634 -0.5875 -1.4632  0.4796
  626MOL0     H84495   2.596  11.621   7.703 -3.2910  1.7636  3.0189
  626MOL0     H84496   2.312  11.229   6.641 -0.2402  0.1691  0.0113
  626MOL0     H84497   2.132  11.243   6.495 -2.0121 -2.4891 -1.6822
  626MOL0     H84498   1.516  11.157   6.559  2.3390 -1.8480  0.9374
  626MOL0     H84499   1.342  11.152   6.370  0.4617 -1.8290 -1.6744
  626MOL0     H84500   1.288  11.029   6.173  2.7949 -0.3448  0.5391
  626MOL0     H84501   1.237  11.150   6.059  1.2178  1.0599  1.9744
  626MOL0     H84502   1.349  10.988   5.879 -2.3006 -2.5789 -1.4285
  626MOL0     H84503   1.198  10.938   5.947  0.8726 -0.3145  1.0993
  626MOL0     H84504   1.337  10.791   6.122  0.6906 -1.1844 -0.2573
  626MOL0     H84505   1.475  10.828   6.016  0.1228 -0.5644 -0.6157
  626MOL0     H84506   1.315  10.731   5.834 -2.1394 -0.5174  0.6760
  626MOL0     H84507   1.215  10.680   5.960 -0.2504  3.7746  1.7762
  626MOL0     H84508   1.524  10.398   6.025 -0.2701 -0.2331 -0.2391
  626MOL0     H84509   1.679  11.063   6.105  0.7104 -2.6009  1.0762
  626MOL0     H84510   1.833  11.059   6.300  1.3856  0.7165  3.9199
  627MOL0     O84511   4.404   9.558   2.436  0.0532  0.3605 -0.6451
  627MOL0     C84512   4.449   9.451   2.405 -0.0647  1.0512  0.7229
  627MOL0     O84513   4.435   9.334   2.476 -0.0847 -0.6900  0.0210
  627MOL0     C84514   4.351   9.341   2.583 -0.1255 -0.3468 -0.0110
  627MOL0     C84515   4.377   9.417   2.702 -0.1771  0.3287 -0.0063
  627MOL0     C84516   4.282   9.415   2.806 -0.1848  0.5220  0.3310
  627MOL0     C84517   4.168   9.332   2.796 -0.3352  0.0163 -0.2574
  627MOL0     O84518   4.086   9.336   2.910 -0.5029 -0.0710  0.7565
  627MOL0     C84519   3.945   9.314   2.892 -0.5547  0.0014  0.0382
  627MOL0     C84520   3.878   9.365   3.015  0.4175 -0.2360 -0.0610
  627MOL0     C84521   3.850   9.252   3.117 -0.1694 -0.4932  0.8513
  627MOL0     C84522   3.976   9.184   3.168 -0.2365  0.1249 -0.2529
  627MOL0     C84523   3.958   9.045   3.238  0.5197  0.1264  0.2040
  627MOL0     C84524   3.850   9.044   3.347 -0.3333  1.0598 -0.4869
  627MOL0     C84525   3.874   9.133   3.468  0.4173  0.1802  0.7091
  627MOL0     C84526   3.969   9.055   3.565 -0.4318 -0.2411  0.2975
  627MOL0     N84527   3.888   8.955   3.645  0.3727 -0.3023 -0.0591
  627MOL0     C84528   3.775   8.981   3.713 -0.0713 -0.6417  0.2415
  627MOL0     C84529   3.725   8.871   3.759  0.6374  0.4608 -1.1892
  627MOL0     C84530   3.615   8.860   3.861 -0.4326  0.1937  0.9056
  627MOL0     C84531   3.528   8.736   3.839 -0.6546 -0.6357 -1.0465
  627MOL0     C84532   3.388   8.748   3.903 -0.3387  0.1961 -0.4018
  627MOL0     C84533   3.287   8.648   3.847 -0.1164  0.2412 -0.6067
  627MOL0     O84534   3.168   8.711   3.883 -0.0482 -0.5577 -0.6513
  627MOL0     C84535   3.062   8.680   3.800  0.8703 -0.5845 -0.3057
  627MOL0     C84536   2.975   8.779   3.780  0.4769  0.2696 -0.5399
  627MOL0     C84537   2.866   8.765   3.700  0.5584 -0.9604 -0.2476
  627MOL0     C84538   2.779   8.893   3.683  0.5152 -0.5002 -0.8238
  627MOL0     C84539   2.836   8.637   3.644  0.3570 -0.1220  0.6308
  627MOL0     C84540   2.707   8.608   3.559 -0.3820  0.4635  0.1568
  627MOL0     O84541   2.677   8.476   3.521  0.7241 -0.1036  0.2168
  627MOL0     C84542   2.560   8.454   3.458 -0.3050 -0.8425  0.4789
  627MOL0     C84543   2.446   8.534   3.460 -0.3869  0.0217 -0.3481
  627MOL0     C84544   2.337   8.503   3.381 -0.2835 -0.1912  0.2157
  627MOL0     C84545   2.337   8.388   3.302 -0.3253  0.0811  0.4361
  627MOL0     O84546   2.225   8.344   3.246 -0.5593 -1.3898  0.4064
  627MOL0     C84547   2.220   8.241   3.146 -0.3643 -0.1169 -0.1150
  627MOL0     C84548   2.076   8.234   3.108  0.4673  0.0748 -0.4520
  627MOL0     C84549   2.017   8.129   3.017  0.1042  0.2277 -0.6860
  627MOL0     C84550   1.890   8.176   2.957 -0.3310 -0.1327  0.9951
  627MOL0     C84551   1.802   8.063   2.909 -0.2497  0.5534  0.1051
  627MOL0     C84552   1.661   8.112   2.861  0.1709 -0.2322 -0.6204
  627MOL0     C84553   1.583   7.992   2.812  0.7549  0.7204 -0.5162
  627MOL0     C84554   1.431   8.000   2.788  0.0208 -0.9810 -0.2186
  627MOL0    Cl84555   1.408   8.131   2.676 -0.3640 -0.2161  0.0214
  627MOL0     C84556   2.460   8.308   3.289 -0.2019 -0.1445 -0.4465
  627MOL0     C84557   2.568   8.341   3.378  0.2110 -0.1445 -0.3109
  627MOL0     O84558   2.646   8.712   3.516  0.1248 -0.0563 -0.2720
  627MOL0     C84559   2.920   8.526   3.682  0.6647 -0.8098  0.1620
  627MOL0     C84560   3.029   8.551   3.754 -0.2939 -0.2803 -0.5285
  627MOL0     N84561   3.802   8.774   3.714  0.5614  0.2951 -0.1582
  627MOL0     N84562   3.899   8.817   3.645  0.1380 -0.2266 -0.2271
  627MOL0     C84563   4.146   9.270   2.677  1.7674  0.3753 -0.2107
  627MOL0     C84564   4.230   9.272   2.572 -0.3681  0.0799 -0.0748
  627MOL0     C84565   4.506   9.431   2.268 -1.0053  0.1704  0.2183
  627MOL0     C84566   4.586   9.321   2.248  0.0646 -0.1438  0.4694
  627MOL0     C84567   4.674   9.318   2.150 -0.1194 -0.1589  0.7767
  627MOL0     C84568   4.694   9.433   2.064 -0.2253 -0.7996 -1.2555
  627MOL0     O84569   4.807   9.444   1.988 -0.4440 -0.2979 -0.3080
  627MOL0     C84570   4.813   9.550   1.895  0.8013 -0.3563 -0.1881
  627MOL0     C84571   4.953   9.565   1.843 -0.0231  0.1591  0.7500
  627MOL0     C84572   4.996   9.438   1.767 -0.1965 -0.0002  0.5056
  627MOL0     C84573   5.144   9.446   1.722  0.0728  1.1132  0.1053
  627MOL0     C84574   5.170   9.558   1.625 -0.4135  0.7816  0.2413
  627MOL0     C84575   5.204   9.646   1.545 -0.0171  0.2635  0.2929
  627MOL0     C84576   4.604   9.544   2.092  0.2264 -0.0840  1.0215
  627MOL0     C84577   4.528   9.544   2.199  0.4095 -0.8164 -0.4224
  627MOL0     H84578   4.465   9.479   2.717  0.3971 -0.1494 -1.2037
  627MOL0     H84579   4.312   9.477   2.890 -0.4714 -1.1409  1.7176
  627MOL0     H84580   3.913   9.372   2.805 -3.0250  0.0496  0.8950
  627MOL0     H84581   3.914   9.212   2.868 -4.2957  1.3056 -1.5271
  627MOL0     H84582   3.928   9.454   3.055 -3.5250  1.7650  0.9450
  627MOL0     H84583   3.782   9.404   2.982  0.2191 -0.2370  0.5079
  627MOL0     H84584   3.803   9.286   3.210 -1.1349 -0.0595  0.2132
  627MOL0     H84585   3.788   9.176   3.069 -2.1701  1.0262  0.9347
  627MOL0     H84586   4.042   9.158   3.084 -0.9776  1.4121 -1.2785
  627MOL0     H84587   4.036   9.241   3.240  0.3465 -3.0984  2.0121
  627MOL0     H84588   3.925   8.977   3.159  1.9049  3.2530 -3.3430
  627MOL0     H84589   4.056   9.010   3.272 -0.5089 -4.5906 -0.8909
  627MOL0     H84590   3.758   9.082   3.302  0.0211  1.8094 -0.5982
  627MOL0     H84591   3.838   8.945   3.392 -0.3650  1.3529  0.1589
  627MOL0     H84592   3.915   9.229   3.437 -3.1013  1.7141  0.3680
  627MOL0     H84593   3.778   9.154   3.515  0.3546  0.1668  0.5867
  627MOL0     H84594   4.017   9.118   3.641  0.5827 -0.5256 -0.0799
  627MOL0     H84595   4.038   8.996   3.503 -2.7004 -0.4906 -2.1505
  627MOL0     H84596   3.744   9.083   3.734 -1.1850 -0.4279 -2.1230
  627MOL0     H84597   3.669   8.860   3.956 -1.9561  3.9715  1.9506
  627MOL0     H84598   3.563   8.955   3.844  1.8852  1.1984 -1.2609
  627MOL0     H84599   3.583   8.654   3.887 -0.0405  1.5604  2.3773
  627MOL0     H84600   3.519   8.727   3.730 -1.0684  2.7180 -1.3838
  627MOL0     H84601   3.347   8.849   3.887 -0.5503 -0.1739 -2.4261
  627MOL0     H84602   3.400   8.738   4.012  0.8500  1.2291 -0.4234
  627MOL0     H84603   3.296   8.550   3.894  0.1014  0.4521 -0.2024
  627MOL0     H84604   3.302   8.631   3.740 -1.5303  1.6566 -1.0752
  627MOL0     H84605   3.014   8.877   3.809 -1.7874  1.4535 -1.2278
  627MOL0     H84606   2.675   8.866   3.708 -0.2577  4.5202  2.9915
  627MOL0     H84607   2.823   8.965   3.753 -0.6290 -0.4540 -0.1150
  627MOL0     H84608   2.784   8.920   3.577  3.6320 -0.7903 -0.8408
  627MOL0     H84609   2.427   8.624   3.517  0.4869  0.9167 -1.4210
  627MOL0     H84610   2.243   8.557   3.374 -1.1791 -1.7873 -0.5423
  627MOL0     H84611   2.294   8.262   3.068  0.4521 -0.2396  0.6149
  627MOL0     H84612   2.247   8.153   3.204  1.9688  1.1278  0.8260
  627MOL0     H84613   2.024   8.228   3.204  0.7906  0.1056 -0.2715
  627MOL0     H84614   2.054   8.332   3.065 -0.8977 -0.0765 -0.1224
  627MOL0     H84615   2.003   8.041   3.080 -2.8119  0.6824 -0.5491
  627MOL0     H84616   2.084   8.100   2.936 -1.1254 -0.6621 -1.4158
  627MOL0     H84617   1.829   8.235   3.026 -1.6275  0.4717 -0.6121
  627MOL0     H84618   1.916   8.227   2.864 -2.7262 -1.7215 -0.6586
  627MOL0     H84619   1.792   8.002   2.999  0.4746  0.3647  0.0640
  627MOL0     H84620   1.861   8.006   2.836  2.8246  1.0517  2.0370
  627MOL0     H84621   1.612   8.152   2.951  1.6249  1.0486 -0.3576
  627MOL0     H84622   1.652   8.183   2.778 -3.5850  0.0813 -0.1376
  627MOL0     H84623   1.608   7.903   2.869  0.2222 -0.4938 -2.1012
  627MOL0     H84624   1.622   7.973   2.712  0.5211  0.2791 -0.5240
  627MOL0     H84625   1.388   8.014   2.888  0.1650 -1.6482 -0.0583
  627MOL0     H84626   1.387   7.910   2.745  1.4029 -1.5049 -0.6108
  627MOL0     H84627   2.471   8.221   3.225  2.4932 -1.2156  1.2626
  627MOL0     H84628   2.663   8.289   3.385 -0.0722 -0.4201  3.2485
  627MOL0     H84629   2.887   8.425   3.659 -0.5891 -0.0631 -1.5574
  627MOL0     H84630   3.093   8.470   3.788 -1.1772 -0.6958  0.1814
  627MOL0     H84631   4.055   9.220   2.645 -0.1582  2.5954  1.4921
  627MOL0     H84632   4.208   9.214   2.483 -0.9656  1.2984 -0.7423
  627MOL0     H84633   4.597   9.230   2.307 -0.6218 -0.0085  0.8149
  627MOL0     H84634   4.734   9.228   2.143 -0.1019 -0.4727  3.6909
  627MOL0     H84635   4.758   9.516   1.806  2.8113 -0.0700 -1.5919
  627MOL0     H84636   4.771   9.644   1.932 -1.4636 -1.8349  1.2905
  627MOL0     H84637   5.013   9.586   1.932 -0.0906  1.4733  0.5157
  627MOL0     H84638   4.953   9.653   1.777 -2.0561 -0.1697  0.2329
  627MOL0     H84639   4.939   9.415   1.676 -1.1120  0.8746  0.8398
  627MOL0     H84640   4.981   9.354   1.835  0.1900 -0.5061 -0.0350
  627MOL0     H84641   5.160   9.363   1.651 -0.8502  1.0287 -0.0196
  627MOL0     H84642   5.212   9.431   1.806  1.7198 -3.5960 -1.6899
  627MOL0     H84643   5.208   9.724   1.472  2.2251  0.7346  0.8365
  627MOL0     H84644   4.614   9.641   2.043  2.2766 -0.2022  1.1057
  627MOL0     H84645   4.475   9.636   2.222 -1.3286 -1.6969 -0.7352
  628MOL0     O84646   5.035   1.099   9.430  0.5891  0.0628 -0.1736
  628MOL0     C84647   5.015   1.036   9.529  0.1875  0.0335 -1.0357
  628MOL0     O84648   4.896   0.988   9.580 -0.0273 -0.6221 -0.4802
  628MOL0     C84649   4.778   1.053   9.538 -0.2425  0.2672  0.1982
  628MOL0     C84650   4.708   1.018   9.422  0.0293  0.6673  0.1592
  628MOL0     C84651   4.585   1.076   9.388 -0.5156  0.6603  0.8714
  628MOL0     C84652   4.527   1.176   9.469  0.0423  0.1338 -0.1530
  628MOL0     O84653   4.409   1.235   9.452  0.4564 -0.3793 -0.4225
  628MOL0     C84654   4.322   1.176   9.351 -0.1581  0.8915 -0.2949
  628MOL0     C84655   4.265   1.042   9.399  0.7053 -0.5130 -0.5509
  628MOL0     C84656   4.122   1.006   9.344 -0.2382 -0.3127  0.2539
  628MOL0     C84657   4.092   0.861   9.370  0.1281  1.0137 -0.4264
  628MOL0     C84658   3.943   0.824   9.339  0.0665 -0.3078 -0.4743
  628MOL0     C84659   3.883   0.833   9.194  0.2100 -0.2668 -0.2464
  628MOL0     C84660   3.966   0.746   9.088 -0.7090  0.7047 -0.4096
  628MOL0     C84661   3.905   0.747   8.938 -0.3195  0.1560 -0.0477
  628MOL0     N84662   3.766   0.702   8.937  0.2417  0.1768 -0.4512
  628MOL0     C84663   3.704   0.583   8.964  1.0718 -0.0360  0.1764
  628MOL0     C84664   3.571   0.613   8.949  0.1095 -0.7607  0.4153
  628MOL0     C84665   3.451   0.519   8.968 -0.8526 -0.9039  0.8399
  628MOL0     C84666   3.343   0.585   9.060  0.5353 -0.0940  0.7073
  628MOL0     C84667   3.240   0.662   8.969  0.4769  0.2386 -0.4257
  628MOL0     C84668   3.113   0.717   9.043  0.6274  0.3188 -0.6183
  628MOL0     O84669   3.017   0.778   8.964  0.7135  1.2830 -0.2685
  628MOL0     C84670   2.900   0.826   9.029 -0.3319 -0.2516  0.0740
  628MOL0     C84671   2.882   0.962   9.041  0.3102 -0.3560 -0.2582
  628MOL0     C84672   2.763   1.013   9.098  0.3409 -0.2012 -0.0980
  628MOL0     C84673   2.752   1.165   9.090  1.1238  0.4095  0.0624
  628MOL0     C84674   2.683   0.927   9.172 -0.3945  0.1796 -0.7540
  628MOL0     C84675   2.567   0.963   9.252  0.0720 -0.3045 -1.4178
  628MOL0     O84676   2.473   0.864   9.287 -0.0911 -0.4681 -0.5529
  628MOL0     C84677   2.374   0.906   9.370  0.4116 -0.4131  0.2506
  628MOL0     C84678   2.247   0.920   9.315  0.1568 -0.1736 -0.6479
  628MOL0     C84679   2.146   0.992   9.388 -0.6515  0.6510 -0.6451
  628MOL0     C84680   2.169   1.021   9.522  0.6559 -0.4362  0.7764
  628MOL0     O84681   2.069   1.079   9.603 -0.1951 -0.0641 -0.6040
  628MOL0     C84682   1.962   1.150   9.534 -0.1046 -0.0002  0.0750
  628MOL0     C84683   1.916   1.263   9.627  0.4245 -0.4408  0.4983
  628MOL0     C84684   1.799   1.352   9.568 -0.2045  0.4288 -0.0452
  628MOL0     C84685   1.865   1.426   9.448 -0.0823  0.6310 -0.2963
  628MOL0     C84686   1.777   1.542   9.391  0.5683  0.7393  0.2074
  628MOL0     C84687   1.846   1.627   9.283 -0.2504 -0.1696 -0.2862
  628MOL0     C84688   1.889   1.547   9.158 -0.1574  0.6709 -0.1429
  628MOL0     C84689   1.877   1.629   9.033  0.1214  0.7568 -0.8830
  628MOL0    Cl84690   1.883   1.499   8.903 -0.0113  0.3222 -0.2146
  628MOL0     C84691   2.285   0.995   9.580 -0.1650  0.1321 -0.2718
  628MOL0     C84692   2.396   0.946   9.505  0.0863  0.3616  0.5895
  628MOL0     O84693   2.576   1.073   9.306 -0.2063  0.4606 -0.4407
  628MOL0     C84694   2.712   0.787   9.164  0.1884  0.3265 -1.1247
  628MOL0     C84695   2.819   0.737   9.096  0.2823 -0.3775  0.4014
  628MOL0     N84696   3.551   0.748   8.924 -0.8001 -0.1688  0.9370
  628MOL0     N84697   3.675   0.796   8.908 -0.1653 -0.1265 -0.6334
  628MOL0     C84698   4.596   1.213   9.579 -0.1696 -0.8964 -0.0237
  628MOL0     C84699   4.721   1.155   9.619  0.0544  0.4909 -0.4617
  628MOL0     C84700   5.142   0.993   9.597  0.9546 -0.0229 -0.6681
  628MOL0     C84701   5.130   0.920   9.720 -0.9854 -0.7374 -0.5166
  628MOL0     C84702   5.246   0.878   9.789  0.9794  0.7698 -0.1979
  628MOL0     C84703   5.368   0.904   9.736  0.3235  0.7885 -0.1474
  628MOL0     O84704   5.475   0.862   9.809 -0.6382  0.3057 -0.4876
  628MOL0     C84705   5.611   0.869   9.775  0.2124 -0.7101  0.9620
  628MOL0     C84706   5.705   0.815   9.879 -0.0010 -0.6702  0.2293
  628MOL0     C84707   5.856   0.855   9.854  0.0339  0.0015 -0.3037
  628MOL0     C84708   5.929   0.754   9.751  0.4909  0.2499  0.2745
  628MOL0     C84709   5.889   0.787   9.612  0.1269 -0.2225 -0.1343
  628MOL0     C84710   5.866   0.833   9.499 -0.2313 -0.0894  0.7964
  628MOL0     C84711   5.381   0.966   9.610  0.2912  0.0174  0.3194
  628MOL0     C84712   5.264   1.006   9.540  0.1549 -0.5941 -1.7336
  628MOL0     H84713   4.760   0.946   9.359  1.6636  0.1347  2.0083
  628MOL0     H84714   4.530   1.040   9.302  1.1447  3.4650 -1.5325
  628MOL0     H84715   4.242   1.250   9.341 -0.0741  1.2819  1.6642
  628MOL0     H84716   4.375   1.173   9.255  2.5268 -0.1313  1.1129
  628MOL0     H84717   4.332   0.959   9.374  2.2375  1.2394 -2.5244
  628MOL0     H84718   4.253   1.043   9.508 -0.9041 -2.8154 -0.6049
  628MOL0     H84719   4.051   1.075   9.391 -0.1889 -0.5527  0.6960
  628MOL0     H84720   4.128   1.009   9.235  0.8241 -2.7251  0.1686
  628MOL0     H84721   4.155   0.803   9.301 -1.1296 -2.3777  1.0831
  628MOL0     H84722   4.125   0.847   9.473 -0.0333  0.3112 -0.4717
  628MOL0     H84723   3.924   0.725   9.381 -0.4703 -0.2496 -0.5748
  628MOL0     H84724   3.882   0.891   9.400  1.5906 -0.3438  1.1816
  628MOL0     H84725   3.779   0.798   9.198  0.7659 -1.9150  0.9107
  628MOL0     H84726   3.887   0.938   9.164  3.3424 -0.1057  0.3890
  628MOL0     H84727   4.072   0.774   9.090 -0.0617 -1.5533 -0.6860
  628MOL0     H84728   3.967   0.638   9.106  0.7800  0.4767 -1.6257
  628MOL0     H84729   3.964   0.686   8.869 -1.7410 -0.0903 -1.1039
  628MOL0     H84730   3.920   0.848   8.897 -0.2047 -0.2435 -1.0295
  628MOL0     H84731   3.748   0.489   8.996  1.6918  0.1932 -0.0062
  628MOL0     H84732   3.414   0.498   8.867  2.1068 -3.5517  0.1867
  628MOL0     H84733   3.486   0.425   9.011  0.2217 -1.0488 -0.3091
  628MOL0     H84734   3.402   0.644   9.130 -0.5277 -0.3990  1.8898
  628MOL0     H84735   3.293   0.520   9.132  2.3691 -3.6213 -0.9286
  628MOL0     H84736   3.207   0.605   8.882 -2.8270  0.6090  0.4323
  628MOL0     H84737   3.282   0.749   8.918 -2.2483  2.7068  1.2609
  628MOL0     H84738   3.155   0.794   9.108 -0.6090  1.2071 -0.8526
  628MOL0     H84739   3.063   0.644   9.108 -0.1942 -0.0416 -1.6195
  628MOL0     H84740   2.951   1.033   8.997  1.7522 -0.8370  1.1070
  628MOL0     H84741   2.753   1.211   9.190 -3.1632  0.2845  0.3536
  628MOL0     H84742   2.826   1.214   9.027  0.8563 -0.5496 -1.0288
  628MOL0     H84743   2.655   1.184   9.043 -0.1805 -1.2677  1.8945
  628MOL0     H84744   2.226   0.885   9.214  1.5363  0.5470 -1.2129
  628MOL0     H84745   2.045   1.013   9.352 -0.7064  2.7165  0.5603
  628MOL0     H84746   2.009   1.177   9.439 -1.7803 -2.7163 -1.6453
  628MOL0     H84747   1.879   1.086   9.505  1.0266 -1.9145  0.9034
  628MOL0     H84748   1.881   1.227   9.725  2.4563  1.9460  2.2271
  628MOL0     H84749   2.010   1.315   9.650  1.1601 -2.3377  2.0763
  628MOL0     H84750   1.760   1.418   9.646 -1.0927  0.0336 -0.1347
  628MOL0     H84751   1.704   1.304   9.542  0.1715 -0.0844 -0.4923
  628MOL0     H84752   1.963   1.470   9.468  0.9320 -0.4542 -2.4842
  628MOL0     H84753   1.882   1.356   9.366  3.2336  2.2304 -1.1404
  628MOL0     H84754   1.748   1.616   9.467  3.7908  0.5561  1.7778
  628MOL0     H84755   1.686   1.509   9.339  1.8146  1.2588 -2.4602
  628MOL0     H84756   1.772   1.700   9.250  3.1040  2.4759 -2.6687
  628MOL0     H84757   1.935   1.680   9.319  0.7183 -0.9771 -1.4283
  628MOL0     H84758   1.819   1.466   9.138  1.2092 -0.4752 -0.4246
  628MOL0     H84759   1.991   1.519   9.185 -0.7265  0.1506  1.5849
  628MOL0     H84760   1.967   1.691   9.024  1.1668 -0.1717  2.0998
  628MOL0     H84761   1.783   1.684   9.025  0.0325  0.4274 -2.3475
  628MOL0     H84762   2.289   1.018   9.687 -1.4390 -0.7586 -0.0107
  628MOL0     H84763   2.494   0.942   9.550 -0.6235 -0.0923  2.1466
  628MOL0     H84764   2.645   0.712   9.205 -0.1425  0.5049 -1.3350
  628MOL0     H84765   2.859   0.636   9.085  2.6900  0.6311 -0.8006
  628MOL0     H84766   4.550   1.287   9.643  0.5835 -1.9134  1.7634
  628MOL0     H84767   4.779   1.187   9.705  1.1051  0.0482 -0.9779
  628MOL0     H84768   5.034   0.896   9.765 -0.9835 -1.3339 -0.8272
  628MOL0     H84769   5.225   0.830   9.884 -2.0542  1.1747 -0.5492
  628MOL0     H84770   5.631   0.805   9.688  3.4652  0.2401  0.8834
  628MOL0     H84771   5.652   0.968   9.750  2.6304 -1.8315  0.1679
  628MOL0     H84772   5.699   0.706   9.881  3.4353 -0.9303  1.1911
  628MOL0     H84773   5.668   0.856   9.974 -1.6395 -0.9865 -0.2339
  628MOL0     H84774   5.908   0.848   9.950 -0.5625 -1.4269 -0.0531
  628MOL0     H84775   5.880   0.954   9.816  4.2750 -1.4160 -1.9553
  628MOL0     H84776   5.916   0.651   9.785 -0.6465  0.4425  0.4835
  628MOL0     H84777   6.037   0.772   9.754  0.5711  0.5647 -2.2887
  628MOL0     H84778   5.853   0.870   9.400  0.4000 -1.2100  0.2831
  628MOL0     H84779   5.480   0.989   9.572  0.8909 -1.4773  0.9095
  628MOL0     H84780   5.272   1.053   9.443 -1.3347  1.8297 -0.7715
  629MOL0     O84781  11.026   9.341   9.084 -0.2125 -0.5865  0.3852
  629MOL0     C84782  10.984   9.390   8.976  0.3483  0.4984  0.4561
  629MOL0     O84783  10.855   9.374   8.929  0.1573  0.9604  0.2134
  629MOL0     C84784  10.758   9.315   9.007  0.2455 -0.1147  0.6864
  629MOL0     C84785  10.625   9.358   9.005 -0.1402  0.2457  0.0380
  629MOL0     C84786  10.523   9.283   9.065 -0.3167  0.5283  0.4434
  629MOL0     C84787  10.547   9.169   9.135  0.5678 -0.4008  0.9887
  629MOL0     O84788  10.450   9.107   9.217  0.3756 -0.1136  0.3025
  629MOL0     C84789  10.497   9.026   9.323  0.9740 -0.1363  0.5568
  629MOL0     C84790  10.402   9.043   9.448 -0.0336  0.1822  0.1667
  629MOL0     C84791  10.482   9.032   9.578  0.1808  0.8071 -0.2214
  629MOL0     C84792  10.394   9.044   9.702  0.5705  0.7058  0.6884
  629MOL0     C84793  10.474   9.050   9.833 -0.5361 -0.5778 -0.3095
  629MOL0     C84794  10.511   8.908   9.871  0.0268  0.7319  0.2778
  629MOL0     C84795  10.584   8.906  10.012  0.5519 -1.1026  1.3973
  629MOL0     C84796  10.641   8.768  10.038  0.6335 -0.8355 -0.8068
  629MOL0     N84797  10.540   8.668  10.026 -0.3407  0.4314 -0.4604
  629MOL0     C84798  10.416   8.683  10.079  0.8755 -0.1379 -0.1452
  629MOL0     C84799  10.340   8.574  10.037  0.7215  0.2841 -0.1507
  629MOL0     C84800  10.207   8.533  10.088 -0.5956  0.4921 -0.0986
  629MOL0     C84801  10.106   8.523   9.979  0.0919  0.3331 -0.4107
  629MOL0     C84802   9.968   8.482  10.044 -0.9651  0.6060  0.0171
  629MOL0     C84803   9.851   8.463   9.945 -0.6405  0.2088  0.6090
  629MOL0     O84804   9.905   8.361   9.850  0.3456 -0.2719 -0.0345
  629MOL0     C84805   9.823   8.325   9.751  0.2075  0.0537 -0.7108
  629MOL0     C84806   9.871   8.232   9.662  0.1245  0.3941 -0.1228
  629MOL0     C84807   9.788   8.175   9.563 -0.6809 -1.1366  0.2045
  629MOL0     C84808   9.851   8.070   9.472 -0.1565 -0.1450  0.3651
  629MOL0     C84809   9.652   8.212   9.550  0.5229 -0.6038 -0.4837
  629MOL0     C84810   9.552   8.153   9.450 -0.0451  0.0742 -1.2769
  629MOL0     O84811   9.539   8.019   9.448  0.0363  0.7038  0.0968
  629MOL0     C84812   9.511   7.951   9.328 -0.3339 -0.2703 -0.0287
  629MOL0     C84813   9.385   7.942   9.269  0.9981  0.4576 -0.0948
  629MOL0     C84814   9.346   7.874   9.154 -0.6316 -0.0636 -0.0138
  629MOL0     C84815   9.455   7.806   9.086  0.7506 -0.6916 -0.4049
  629MOL0     O84816   9.417   7.757   8.968  0.1719  0.1676 -0.0077
  629MOL0     C84817   9.484   7.644   8.917  0.0590  0.0443  0.0759
  629MOL0     C84818   9.412   7.510   8.959  0.6351 -0.1079 -0.0958
  629MOL0     C84819   9.288   7.457   8.881 -0.0253  0.2285 -0.6806
  629MOL0     C84820   9.309   7.445   8.727  0.0085  0.4627 -0.4887
  629MOL0     C84821   9.202   7.375   8.641 -0.5000 -0.9693 -1.0997
  629MOL0     C84822   9.152   7.239   8.662  0.1342  0.6706 -0.1305
  629MOL0     C84823   9.021   7.213   8.584 -0.3156  0.6380  0.1224
  629MOL0     C84824   8.981   7.067   8.580  0.7789  0.1701 -0.4001
  629MOL0    Cl84825   8.809   7.036   8.525 -0.1856  0.1897 -0.1130
  629MOL0     C84826   9.583   7.836   9.125  0.0884  0.6251 -0.8426
  629MOL0     C84827   9.617   7.900   9.251 -0.1538  0.4766  0.0022
  629MOL0     O84828   9.488   8.235   9.383 -0.1448 -0.6133 -0.5107
  629MOL0     C84829   9.599   8.298   9.647 -0.3239 -0.2261  0.4029
  629MOL0     C84830   9.683   8.346   9.750 -0.1996  0.6159  0.3656
  629MOL0     N84831  10.416   8.512   9.944 -0.5626  0.6274  0.2020
  629MOL0     N84832  10.534   8.559   9.938  0.0774 -0.6822 -0.2200
  629MOL0     C84833  10.678   9.118   9.121  0.5542 -0.1756  0.3177
  629MOL0     C84834  10.774   9.186   9.056  0.0807 -0.1295 -0.2955
  629MOL0     C84835  11.088   9.468   8.899  0.7074 -0.5740  0.2740
  629MOL0     C84836  11.222   9.457   8.931  0.3950  0.5348 -0.8798
  629MOL0     C84837  11.317   9.541   8.878 -0.2744 -0.6424  0.2545
  629MOL0     C84838  11.286   9.632   8.772 -0.3542 -0.1807 -0.1466
  629MOL0     O84839  11.390   9.700   8.702 -0.8908  0.6927 -0.4134
  629MOL0     C84840  11.524   9.667   8.734  0.5047 -0.1655 -0.0847
  629MOL0     C84841  11.634   9.731   8.657  0.5260  0.0484 -0.8147
  629MOL0     C84842  11.634   9.705   8.506  0.0616 -0.0641 -0.3892
  629MOL0     C84843  11.719   9.808   8.427 -0.2829  0.8622  0.1015
  629MOL0     C84844  11.862   9.783   8.445 -0.7239  1.3874  0.8004
  629MOL0     C84845  11.977   9.776   8.464 -0.7077 -0.4240 -0.4464
  629MOL0     C84846  11.152   9.625   8.723 -0.1630 -0.2143  0.4933
  629MOL0     C84847  11.055   9.544   8.789 -0.6119  0.1941 -1.0384
  629MOL0     H84848  10.599   9.454   8.961 -0.9460 -0.6149 -1.4650
  629MOL0     H84849  10.417   9.298   9.085 -0.5338 -0.7176  0.2977
  629MOL0     H84850  10.496   8.923   9.287 -0.9722  0.7566 -2.3116
  629MOL0     H84851  10.597   9.058   9.355  0.8164  1.3296 -0.3181
  629MOL0     H84852  10.354   9.141   9.445 -0.8003 -0.2066 -0.5053
  629MOL0     H84853  10.319   8.973   9.448  1.4496 -1.6605  0.0377
  629MOL0     H84854  10.544   8.942   9.573 -1.6041 -0.4862  0.2269
  629MOL0     H84855  10.548   9.119   9.576 -0.6725  1.4711 -0.2720
  629MOL0     H84856  10.330   9.133   9.698 -1.2302 -0.5675 -0.1668
  629MOL0     H84857  10.342   8.948   9.708  3.7331 -1.2146 -0.0487
  629MOL0     H84858  10.563   9.113   9.825 -0.8903 -0.0760 -0.3059
  629MOL0     H84859  10.399   9.086   9.903 -2.5646  2.2784 -3.6051
  629MOL0     H84860  10.412   8.861   9.876 -0.9381  2.3175 -1.9309
  629MOL0     H84861  10.562   8.862   9.786 -0.6587  0.5715 -0.0620
  629MOL0     H84862  10.673   8.968  10.002 -0.2539 -0.1281  0.0225
  629MOL0     H84863  10.523   8.941  10.096  1.8034  1.0374  1.4877
  629MOL0     H84864  10.681   8.767  10.140 -1.9367 -0.3026  0.2722
  629MOL0     H84865  10.722   8.750   9.967  1.3059  0.8449 -0.5047
  629MOL0     H84866  10.392   8.749  10.162 -0.1216  1.3752 -1.5741
  629MOL0     H84867  10.213   8.437  10.139  0.4115  1.2329  1.2578
  629MOL0     H84868  10.169   8.596  10.170 -4.2908 -1.9391  0.2731
  629MOL0     H84869  10.139   8.449   9.906  0.4167  1.3329 -1.3074
  629MOL0     H84870  10.098   8.617   9.923 -3.3206  1.3395  1.4715
  629MOL0     H84871   9.946   8.555  10.122  1.1244 -0.7454  2.0028
  629MOL0     H84872   9.986   8.382  10.083 -1.9874  0.2181 -0.4749
  629MOL0     H84873   9.821   8.556   9.897 -1.0283 -0.5554 -0.6908
  629MOL0     H84874   9.766   8.412   9.991  0.2213  0.3071  2.3767
  629MOL0     H84875   9.973   8.198   9.670 -0.1607 -1.0139 -1.7563
  629MOL0     H84876   9.934   8.014   9.516  0.3115  0.6792  0.5614
  629MOL0     H84877   9.774   7.993   9.468  1.5518 -1.8970 -0.4854
  629MOL0     H84878   9.893   8.112   9.380  1.1050 -0.2412  0.8633
  629MOL0     H84879   9.305   7.998   9.317  0.5732 -0.0862 -0.1499
  629MOL0     H84880   9.244   7.853   9.124  0.0356 -3.2744 -0.3692
  629MOL0     H84881   9.491   7.643   8.808 -1.6486  0.0900 -0.0627
  629MOL0     H84882   9.582   7.645   8.965 -0.3053 -1.1328  0.8857
  629MOL0     H84883   9.488   7.432   8.947  1.2280  0.5040 -0.3707
  629MOL0     H84884   9.379   7.511   9.064  0.6299 -1.5416 -0.0614
  629MOL0     H84885   9.199   7.513   8.912  0.1172  1.1871 -1.9220
  629MOL0     H84886   9.265   7.356   8.916  0.7279 -0.1745 -1.3217
  629MOL0     H84887   9.342   7.534   8.673  1.0016 -0.3590 -1.2632
  629MOL0     H84888   9.393   7.377   8.712 -1.1149 -1.2610  0.6461
  629MOL0     H84889   9.247   7.376   8.541  1.1924  1.8830 -0.4023
  629MOL0     H84890   9.118   7.442   8.661 -0.6385 -2.1728  3.8223
  629MOL0     H84891   9.229   7.170   8.625  0.8331 -2.0522  5.3366
  629MOL0     H84892   9.135   7.213   8.767 -2.6128 -1.6398 -1.0189
  629MOL0     H84893   9.032   7.254   8.483  0.1512 -0.6889 -0.3795
  629MOL0     H84894   8.935   7.266   8.627  0.7246  2.2840  0.2787
  629MOL0     H84895   8.995   7.017   8.677 -0.7737  0.1141 -0.1758
  629MOL0     H84896   9.042   7.013   8.507  1.0290 -3.3976  2.1433
  629MOL0     H84897   9.669   7.798   9.071 -0.4334 -1.8419 -0.0682
  629MOL0     H84898   9.722   7.899   9.280  0.1051  1.5793 -0.8386
  629MOL0     H84899   9.498   8.338   9.640 -0.0847  0.3389  0.0372
  629MOL0     H84900   9.625   8.395   9.827 -1.1487 -0.5846  0.4556
  629MOL0     H84901  10.719   9.036   9.178  2.7494  1.4031  1.1467
  629MOL0     H84902  10.867   9.131   9.053 -0.4744 -1.2255  1.1794
  629MOL0     H84903  11.256   9.380   9.000 -0.0608 -1.7123 -3.0224
  629MOL0     H84904  11.417   9.518   8.915 -0.9421 -0.2455  2.4496
  629MOL0     H84905  11.533   9.691   8.840 -0.4406 -0.3963  0.0547
  629MOL0     H84906  11.539   9.560   8.719  0.6327 -0.1928  0.2205
  629MOL0     H84907  11.719   9.674   8.698 -0.7648 -3.0895 -2.1537
  629MOL0     H84908  11.645   9.838   8.675 -3.0934  0.3080  0.7746
  629MOL0     H84909  11.528   9.712   8.480 -0.0839  0.5301  0.3555
  629MOL0     H84910  11.677   9.607   8.483  0.5078  0.3075 -1.1699
  629MOL0     H84911  11.689   9.909   8.457  2.5653  1.5430  1.0032
  629MOL0     H84912  11.681   9.789   8.327 -0.0328  3.0415 -0.4625
  629MOL0     H84913  12.080   9.765   8.493 -0.7455  1.3905  0.5425
  629MOL0     H84914  11.124   9.670   8.629 -0.4731 -1.7842 -0.1954
  629MOL0     H84915  10.952   9.556   8.760 -1.0498 -1.6354 -0.3815
  630MOL0     O84916   8.974   8.539   8.338  0.2625 -0.0288  0.3023
  630MOL0     C84917   9.070   8.585   8.410  0.0755 -0.0198 -0.8610
  630MOL0     O84918   9.058   8.703   8.484 -0.4577 -0.2492  0.1454
  630MOL0     C84919   8.936   8.771   8.471  0.2399 -0.4528  0.2179
  630MOL0     C84920   8.847   8.783   8.573  0.5133  0.3592  0.5677
  630MOL0     C84921   8.734   8.862   8.566 -0.3668  0.0549  0.8728
  630MOL0     C84922   8.712   8.933   8.450  0.8885  0.1224  0.8278
  630MOL0     O84923   8.614   9.023   8.446  0.0848  0.0505 -0.0938
  630MOL0     C84924   8.530   9.005   8.327  0.3452  0.0847  0.3721
  630MOL0     C84925   8.381   9.046   8.374 -0.6937 -0.1183 -0.1465
  630MOL0     C84926   8.311   8.928   8.442 -0.1731  0.6774 -0.7984
  630MOL0     C84927   8.244   8.832   8.350  0.3219 -0.4750 -0.0797
  630MOL0     C84928   8.186   8.707   8.406 -0.3133  0.0290 -0.2813
  630MOL0     C84929   8.126   8.613   8.304 -0.7302  1.1600  0.6759
  630MOL0     C84930   8.100   8.474   8.369  1.4043  1.0325 -1.1419
  630MOL0     C84931   8.217   8.386   8.399  0.6862 -0.0769 -0.5024
  630MOL0     N84932   8.277   8.330   8.287 -0.2543 -0.7076  0.8100
  630MOL0     C84933   8.376   8.392   8.210 -0.0662  0.0088 -0.0025
  630MOL0     C84934   8.404   8.287   8.119 -0.1465 -0.5589 -0.2782
  630MOL0     C84935   8.502   8.294   8.004 -1.7906 -0.5621  0.1926
  630MOL0     C84936   8.497   8.419   7.921  0.2460  0.6038  0.8347
  630MOL0     C84937   8.367   8.431   7.850 -0.4296 -0.5302  0.1994
  630MOL0     C84938   8.366   8.551   7.763 -0.9366  0.4026  0.3530
  630MOL0     O84939   8.247   8.531   7.686  0.9248 -0.5542  0.8706
  630MOL0     C84940   8.118   8.578   7.727 -0.0941  0.2282  0.1111
  630MOL0     C84941   8.071   8.616   7.850  0.3312 -0.1336 -0.1747
  630MOL0     C84942   7.933   8.655   7.876  0.5186 -0.4609  0.1993
  630MOL0     C84943   7.901   8.691   8.025  0.0079  0.2057 -0.2385
  630MOL0     C84944   7.835   8.637   7.777 -0.0537 -0.3818 -0.1077
  630MOL0     C84945   7.680   8.652   7.802  0.0692 -0.4606  0.1303
  630MOL0     O84946   7.608   8.637   7.688 -0.2863  0.6737 -0.1283
  630MOL0     C84947   7.470   8.626   7.688  0.3445 -0.6295  0.5384
  630MOL0     C84948   7.418   8.503   7.657  0.5464  0.1928 -0.2747
  630MOL0     C84949   7.276   8.481   7.651  0.8086 -0.4293  0.0601
  630MOL0     C84950   7.182   8.588   7.671  0.3171 -0.5804  0.4777
  630MOL0     O84951   7.048   8.590   7.643  0.7389  0.3733  0.2364
  630MOL0     C84952   7.018   8.660   7.519 -0.0848 -0.5771 -0.1253
  630MOL0     C84953   6.890   8.609   7.458  0.4068 -0.1968  0.3560
  630MOL0     C84954   6.906   8.464   7.435 -0.1309  0.8066 -0.4942
  630MOL0     C84955   6.789   8.413   7.357 -0.4708 -0.3697 -1.0247
  630MOL0     C84956   6.670   8.363   7.441  0.6988 -1.0864  0.5702
  630MOL0     C84957   6.551   8.337   7.340  0.6057  0.2456  0.2994
  630MOL0     C84958   6.426   8.302   7.407  0.0536 -0.3097  0.7478
  630MOL0     C84959   6.332   8.246   7.301 -0.3819 -0.1733 -0.0834
  630MOL0    Cl84960   6.182   8.233   7.383  0.1022  0.1861 -0.0018
  630MOL0     C84961   7.240   8.713   7.711 -0.9336  0.1978 -0.3488
  630MOL0     C84962   7.378   8.727   7.711 -0.0387  0.3026 -0.4389
  630MOL0     O84963   7.638   8.659   7.915  0.6462 -0.5716 -0.5059
  630MOL0     C84964   7.887   8.608   7.645  0.4905  0.4987 -0.1234
  630MOL0     C84965   8.025   8.582   7.629  0.1339  0.3489  0.5347
  630MOL0     N84966   8.310   8.185   8.133 -0.4321  0.0298  0.6553
  630MOL0     N84967   8.248   8.200   8.238  0.7697  0.1587 -0.5117
  630MOL0     C84968   8.799   8.917   8.338  0.5555  0.3995  0.0844
  630MOL0     C84969   8.906   8.827   8.345 -0.1244  0.0175  0.9322
  630MOL0     C84970   9.185   8.499   8.415 -0.1358  0.6392 -0.0527
  630MOL0     C84971   9.200   8.377   8.356  0.7509  0.3676 -0.8371
  630MOL0     C84972   9.318   8.317   8.341  0.6259  0.0755 -0.0000
  630MOL0     C84973   9.436   8.377   8.380 -0.0160  0.2452  0.0836
  630MOL0     O84974   9.548   8.300   8.369 -0.0797  0.0981 -0.8111
  630MOL0     C84975   9.669   8.363   8.377 -0.7343 -0.0956 -0.5449
  630MOL0     C84976   9.774   8.270   8.320  0.1783  0.6183 -0.0440
  630MOL0     C84977   9.909   8.342   8.314  0.2623  0.5242 -0.0469
  630MOL0     C84978  10.034   8.264   8.267 -0.2714  1.0206  0.0861
  630MOL0     C84979  10.081   8.184   8.376  1.0449 -0.1610 -0.0440
  630MOL0     C84980  10.098   8.097   8.455  0.7932 -0.6953 -0.1583
  630MOL0     C84981   9.424   8.507   8.440 -0.0135  0.2346 -0.6725
  630MOL0     C84982   9.301   8.562   8.461  1.0276 -0.6326 -0.2082
  630MOL0     H84983   8.862   8.732   8.667 -0.5013  0.5029  0.8101
  630MOL0     H84984   8.653   8.889   8.633  1.5441  3.9676  1.8918
  630MOL0     H84985   8.558   9.082   8.254 -1.4812  0.7691  0.3253
  630MOL0     H84986   8.533   8.903   8.288  0.4272  0.2527 -0.0647
  630MOL0     H84987   8.396   9.130   8.442  1.4969 -0.3498 -0.2433
  630MOL0     H84988   8.314   9.085   8.297  2.0662 -0.9506 -3.2235
  630MOL0     H84989   8.380   8.865   8.498  0.4026  0.5263 -1.6506
  630MOL0     H84990   8.229   8.974   8.498 -2.8209  0.8875 -4.4358
  630MOL0     H84991   8.169   8.886   8.291 -1.2996 -1.7884  0.7234
  630MOL0     H84992   8.326   8.800   8.284  0.1913 -1.1287  0.0700
  630MOL0     H84993   8.272   8.655   8.450  0.5910  1.5886 -0.1221
  630MOL0     H84994   8.117   8.740   8.483  0.3776  0.0480  0.3388
  630MOL0     H84995   8.028   8.656   8.286 -0.6797  1.1190  0.2941
  630MOL0     H84996   8.173   8.604   8.206 -1.1927  2.1642  0.3505
  630MOL0     H84997   8.053   8.489   8.466  0.0371 -3.1286 -0.9842
  630MOL0     H84998   8.029   8.416   8.309 -0.0094  1.0477  0.4533
  630MOL0     H84999   8.187   8.309   8.470  0.2377  1.6232  1.2679
  630MOL0     H85000   8.293   8.441   8.456  3.0656 -1.3445 -2.2689
  630MOL0     H85001   8.439   8.478   8.230  1.9041 -0.7930 -2.2762
  630MOL0     H85002   8.602   8.284   8.046 -1.8686 -2.7264 -0.0004
  630MOL0     H85003   8.484   8.208   7.938 -1.4326  0.7160 -1.6239
  630MOL0     H85004   8.582   8.413   7.853  0.1485 -3.3084  0.8594
  630MOL0     H85005   8.514   8.501   7.992 -0.4823  0.4005  1.2651
  630MOL0     H85006   8.278   8.433   7.913 -0.8864  0.4835 -0.4334
  630MOL0     H85007   8.346   8.350   7.779 -0.8698  0.2499 -0.5885
  630MOL0     H85008   8.452   8.550   7.695 -0.5957  0.3469  0.7802
  630MOL0     H85009   8.381   8.642   7.823  5.4008 -0.0126  0.0268
  630MOL0     H85010   8.145   8.604   7.928  0.6147 -0.4656 -0.4924
  630MOL0     H85011   7.837   8.778   8.041  1.8968  1.4788  0.6981
  630MOL0     H85012   7.867   8.597   8.069  3.4619 -0.4820  1.2646
  630MOL0     H85013   7.993   8.703   8.082 -0.0109 -1.9816  0.3281
  630MOL0     H85014   7.484   8.418   7.651 -0.6026 -0.7609  0.1978
  630MOL0     H85015   7.243   8.381   7.627 -2.5870  0.4513  0.5118
  630MOL0     H85016   7.005   8.766   7.540  1.0569 -0.4348 -0.0513
  630MOL0     H85017   7.094   8.645   7.441  0.1360 -0.9488  0.1559
  630MOL0     H85018   6.805   8.628   7.524  0.1871  1.2363 -0.2983
  630MOL0     H85019   6.875   8.657   7.361 -0.6019 -1.1480  0.0192
  630MOL0     H85020   6.903   8.429   7.539 -1.7446  5.8362  1.4489
  630MOL0     H85021   7.001   8.444   7.385 -0.0537 -2.5585  0.7119
  630MOL0     H85022   6.742   8.495   7.303 -1.0296  0.7732  1.0771
  630MOL0     H85023   6.827   8.333   7.292 -1.0014  0.6176 -2.5878
  630MOL0     H85024   6.636   8.444   7.506  0.9987 -1.6636  1.4755
  630MOL0     H85025   6.686   8.275   7.505 -0.9104 -1.3743  0.6249
  630MOL0     H85026   6.539   8.420   7.270  0.9673 -1.1634 -1.5202
  630MOL0     H85027   6.594   8.257   7.279  1.7779  0.3313  0.9762
  630MOL0     H85028   6.381   8.395   7.443 -3.2938 -1.6968  0.5254
  630MOL0     H85029   6.437   8.234   7.492  0.5719  1.1793  1.9139
  630MOL0     H85030   6.373   8.151   7.265  1.2907  0.9469 -1.2681
  630MOL0     H85031   6.324   8.316   7.217  1.9403 -2.4068 -2.3799
  630MOL0     H85032   7.168   8.792   7.729  0.0800  1.0334  0.1293
  630MOL0     H85033   7.406   8.829   7.735  0.2140  0.5754 -1.8245
  630MOL0     H85034   7.818   8.601   7.562 -0.6094  1.8649  0.6364
  630MOL0     H85035   8.058   8.538   7.535 -2.1715  1.0598 -0.6954
  630MOL0     H85036   8.788   8.972   8.246  1.5556  1.9536  0.8433
  630MOL0     H85037   8.965   8.826   8.254 -3.9594 -0.0705 -1.7570
  630MOL0     H85038   9.110   8.332   8.313  1.6613 -0.8024 -1.5840
  630MOL0     H85039   9.299   8.220   8.295 -0.4760  0.1604  0.2518
  630MOL0     H85040   9.665   8.462   8.330 -0.4039 -1.0027 -2.5890
  630MOL0     H85041   9.674   8.362   8.486 -0.6685 -2.8600 -0.4925
  630MOL0     H85042   9.748   8.209   8.233 -1.3408 -1.3018  1.6288
  630MOL0     H85043   9.797   8.198   8.399  0.8837  0.4225 -0.4124
  630MOL0     H85044   9.931   8.392   8.409 -1.7742  0.5758  0.4418
  630MOL0     H85045   9.889   8.425   8.246 -2.7766  2.2740  2.6889
  630MOL0     H85046  10.110   8.337   8.239  0.3214  0.6453  0.6995
  630MOL0     H85047  10.009   8.199   8.183 -1.1585 -0.2433  1.2670
  630MOL0     H85048  10.118   8.031   8.537  1.9396  1.7883  1.6950
  630MOL0     H85049   9.519   8.546   8.473  1.1029 -1.6041 -1.5749
  630MOL0     H85050   9.304   8.664   8.499 -0.0381  0.0607 -1.8885
  631MOL0     O85051  10.661   8.356  11.376 -0.3696 -0.2663  0.0059
  631MOL0     C85052  10.700   8.238  11.338  0.8945 -0.0925 -0.2819
  631MOL0     O85053  10.631   8.126  11.350 -0.5387 -0.4686 -0.2775
  631MOL0     C85054  10.498   8.146  11.367  0.6585  0.1635 -0.8610
  631MOL0     C85055  10.432   8.175  11.489 -0.8272 -0.6295 -0.0657
  631MOL0     C85056  10.302   8.204  11.493 -0.1588 -0.1691 -0.5339
  631MOL0     C85057  10.225   8.186  11.381  0.8111 -0.7912 -0.7920
  631MOL0     O85058  10.090   8.197  11.373 -0.9282  0.9249 -0.0009
  631MOL0     C85059  10.007   8.172  11.492  0.0992  0.5748 -0.1981
  631MOL0     C85060   9.863   8.142  11.440 -0.4059  0.0791 -0.5095
  631MOL0     C85061   9.760   8.261  11.458  0.3606  0.6510  0.3604
  631MOL0     C85062   9.622   8.198  11.417 -0.2130 -0.3807  0.6807
  631MOL0     C85063   9.514   8.299  11.385  1.0430 -0.2615 -0.2134
  631MOL0     C85064   9.376   8.233  11.347 -0.2929  0.4043 -1.4605
  631MOL0     C85065   9.315   8.167  11.464 -0.5401  1.3878 -0.9872
  631MOL0     C85066   9.169   8.144  11.444 -1.1740  0.1496  0.2709
  631MOL0     N85067   9.118   8.033  11.528 -0.1270 -0.4691  1.0764
  631MOL0     C85068   9.182   7.913  11.566 -0.1112 -0.4388  1.5823
  631MOL0     C85069   9.088   7.843  11.618  0.6494  0.0305 -0.2087
  631MOL0     C85070   9.114   7.705  11.669 -0.4523  0.1267  0.3617
  631MOL0     C85071   9.179   7.613  11.568 -0.1665 -0.1306  0.4139
  631MOL0     C85072   9.132   7.472  11.589  0.5765  0.0594  0.0777
  631MOL0     C85073   9.242   7.390  11.668  0.0018  0.2551 -0.0095
  631MOL0     O85074   9.265   7.442  11.797 -0.6021 -0.3564  0.1799
  631MOL0     C85075   9.169   7.470  11.894 -0.7010  0.3550 -0.3219
  631MOL0     C85076   9.044   7.402  11.900 -1.2382  1.8356  0.7366
  631MOL0     C85077   8.970   7.399  12.024 -0.7292  0.8517  0.2355
  631MOL0     C85078   8.858   7.294  12.030  0.6274 -0.6230 -0.2166
  631MOL0     C85079   9.002   7.494  12.129  0.0931  0.0895  0.6345
  631MOL0     C85080   8.909   7.510  12.243 -0.3304 -0.8680 -0.0569
  631MOL0     O85081   8.936   7.623  12.320  0.3963 -0.0569 -0.4277
  631MOL0     C85082   8.841   7.669  12.412  0.9969  0.6786  0.3661
  631MOL0     C85083   8.760   7.766  12.359  0.0479  0.5752  0.1955
  631MOL0     C85084   8.657   7.805  12.442 -0.2140 -0.9051  0.8086
  631MOL0     C85085   8.646   7.758  12.575  0.6399 -0.1707 -0.2393
  631MOL0     O85086   8.541   7.799  12.653 -0.3080  0.2027 -0.1188
  631MOL0     C85087   8.505   7.746  12.785  0.0606 -0.0448 -0.0391
  631MOL0     C85088   8.374   7.805  12.827 -0.0931 -0.2972 -0.3362
  631MOL0     C85089   8.257   7.761  12.736 -0.2927 -0.1413 -0.4279
  631MOL0     C85090   8.155   7.871  12.722 -0.0460  0.0564 -0.6770
  631MOL0     C85091   8.040   7.839  12.634  1.0307  0.5243  0.7680
  631MOL0     C85092   7.944   7.947  12.625 -0.1951 -0.0793 -0.2787
  631MOL0     C85093   7.833   7.906  12.524 -0.4700 -0.0394 -0.6883
  631MOL0     C85094   7.728   8.013  12.502 -0.4556  0.4690 -0.4271
  631MOL0    Cl85095   7.618   7.953  12.382 -0.0511  0.0014 -0.5419
  631MOL0     C85096   8.747   7.673  12.625  0.5431 -0.8082  0.0018
  631MOL0     C85097   8.836   7.620  12.536  0.5855  0.2857  0.0994
  631MOL0     O85098   8.819   7.433  12.261  1.1260  0.1858  0.3414
  631MOL0     C85099   9.128   7.559  12.125  0.7620  0.2250 -0.6931
  631MOL0     C85100   9.197   7.550  12.005 -0.1536 -0.1374  0.2346
  631MOL0     N85101   8.974   7.924  11.634 -0.5980  0.9919  0.1368
  631MOL0     N85102   8.991   8.038  11.575  0.2148 -0.1162  0.0570
  631MOL0     C85103  10.282   8.162  11.256 -0.3226 -0.3829 -0.7388
  631MOL0     C85104  10.422   8.132  11.250 -0.9308 -0.5967  0.1533
  631MOL0     C85105  10.833   8.228  11.287 -0.3097  1.1310 -0.7694
  631MOL0     C85106  10.896   8.107  11.317  0.1878 -0.1765  0.3277
  631MOL0     C85107  11.017   8.083  11.250 -0.4608  0.9300 -0.3917
  631MOL0     C85108  11.083   8.177  11.171  0.5892 -0.8242 -0.4105
  631MOL0     O85109  11.206   8.143  11.121 -0.4055  0.2935 -0.3924
  631MOL0     C85110  11.294   8.249  11.091  0.6964  0.6134 -0.7572
  631MOL0     C85111  11.433   8.196  11.036  0.0104  0.5978  0.5730
  631MOL0     C85112  11.430   8.173  10.885 -0.7978 -0.0126  0.0736
  631MOL0     C85113  11.437   8.295  10.798  0.1665  0.7964  0.1687
  631MOL0     C85114  11.447   8.254  10.654 -1.3154 -0.1777  0.0435
  631MOL0     C85115  11.473   8.223  10.541 -0.2115 -1.7101  0.2174
  631MOL0     C85116  11.028   8.312  11.162 -0.0344 -0.2901  0.0565
  631MOL0     C85117  10.895   8.327  11.214 -0.6649  0.1048 -0.3416
  631MOL0     H85118  10.480   8.176  11.586 -2.5890 -0.6492  0.8553
  631MOL0     H85119  10.252   8.226  11.587  1.0540 -2.7979  0.8494
  631MOL0     H85120  10.043   8.076  11.530  1.6937  0.8494 -0.9230
  631MOL0     H85121  10.006   8.239  11.578  2.3973 -3.2643  3.1660
  631MOL0     H85122   9.891   8.110  11.339  3.6886 -0.2696  0.5670
  631MOL0     H85123   9.828   8.058  11.501 -0.7609  1.4934  1.3130
  631MOL0     H85124   9.760   8.291  11.563  2.6456 -2.6514  1.4824
  631MOL0     H85125   9.787   8.343  11.390 -0.1558 -0.0378 -0.7087
  631MOL0     H85126   9.635   8.140  11.325  2.2087  0.5880  0.3382
  631MOL0     H85127   9.590   8.131  11.498 -2.2229  0.0235  0.2734
  631MOL0     H85128   9.498   8.374  11.462  3.3707  1.6754 -1.4923
  631MOL0     H85129   9.551   8.347  11.294 -2.2211  1.5386 -0.7451
  631MOL0     H85130   9.301   8.308  11.317  0.6576  1.0974 -2.1431
  631MOL0     H85131   9.393   8.160  11.268  2.4999 -0.6748  0.0116
  631MOL0     H85132   9.368   8.071  11.464  4.3507  3.6955  1.0102
  631MOL0     H85133   9.347   8.222  11.553  0.0136 -2.2083  1.2830
  631MOL0     H85134   9.155   8.130  11.337 -0.4753  0.1264  0.1826
  631MOL0     H85135   9.117   8.237  11.471 -2.4367 -1.2686  3.2348
  631MOL0     H85136   9.287   7.891  11.545  0.0644  0.4506  1.4592
  631MOL0     H85137   9.181   7.716  11.755 -0.4481 -0.4702  0.4352
  631MOL0     H85138   9.022   7.662  11.709 -0.7687 -1.4138 -1.8423
  631MOL0     H85139   9.284   7.638  11.553 -0.6588  3.1117  1.5103
  631MOL0     H85140   9.143   7.630  11.466  1.8289 -0.2575 -0.3517
  631MOL0     H85141   9.112   7.437  11.487  2.1415  0.8246 -0.5297
  631MOL0     H85142   9.042   7.456  11.649  2.0429  1.2807  2.7842
  631MOL0     H85143   9.328   7.395  11.600 -0.0564  2.0672  0.0076
  631MOL0     H85144   9.218   7.284  11.684 -0.6792  0.4239  0.0737
  631MOL0     H85145   9.032   7.326  11.824 -3.0461  1.4175  1.3848
  631MOL0     H85146   8.761   7.343  12.045  2.1554  1.9902  2.2564
  631MOL0     H85147   8.847   7.238  11.937 -0.1805 -2.6033  1.0015
  631MOL0     H85148   8.868   7.219  12.109 -3.0194 -1.3055 -0.2123
  631MOL0     H85149   8.769   7.818  12.264 -1.7668  0.5169 -0.0402
  631MOL0     H85150   8.596   7.883  12.398  1.0777  0.5142  1.4758
  631MOL0     H85151   8.495   7.637  12.780  2.8571 -0.9786  5.4789
  631MOL0     H85152   8.583   7.769  12.859  0.0578  0.9840 -0.3413
  631MOL0     H85153   8.368   7.790  12.935  3.3100  0.6065  0.0724
  631MOL0     H85154   8.388   7.912  12.814  3.0527 -0.5028  0.5891
  631MOL0     H85155   8.203   7.675  12.776 -2.3233 -0.1443 -2.9277
  631MOL0     H85156   8.297   7.733  12.638 -0.7610  1.8003 -1.2103
  631MOL0     H85157   8.110   7.890  12.821  0.2429  1.4850 -0.7899
  631MOL0     H85158   8.193   7.966  12.682 -1.4590  0.8584 -0.2275
  631MOL0     H85159   7.984   7.749  12.658 -2.4182  1.5553 -2.4542
  631MOL0     H85160   8.083   7.813  12.537 -2.2573  0.8573 -0.8885
  631MOL0     H85161   7.889   7.974  12.716 -0.8124  1.5196 -1.0865
  631MOL0     H85162   7.988   8.039  12.586 -0.2134 -0.4522 -1.2014
  631MOL0     H85163   7.788   7.812  12.557  0.6472 -0.0208  1.0112
  631MOL0     H85164   7.884   7.892  12.428 -0.2178  2.0393 -0.8973
  631MOL0     H85165   7.779   8.105  12.472  2.1989 -0.5151  0.7250
  631MOL0     H85166   7.678   8.028  12.598 -1.5555  0.2952 -0.9599
  631MOL0     H85167   8.749   7.647  12.730  0.0595  2.0270  0.7990
  631MOL0     H85168   8.902   7.540  12.568 -0.7319  0.1623  2.7096
  631MOL0     H85169   9.142   7.621  12.214 -3.4595  1.3131 -0.5742
  631MOL0     H85170   9.290   7.600  11.980  0.6423 -2.6394 -2.3045
  631MOL0     H85171  10.212   8.157  11.173 -0.5942 -1.2294 -0.4685
  631MOL0     H85172  10.454   8.107  11.149  0.2443  4.1371 -0.8711
  631MOL0     H85173  10.843   8.029  11.371  2.3615 -0.6742  1.8692
  631MOL0     H85174  11.072   7.993  11.276  0.5122  1.7933  0.6311
  631MOL0     H85175  11.251   8.324  11.024  1.7480  1.0712 -0.9414
  631MOL0     H85176  11.318   8.297  11.187  3.2182 -3.2627  0.8035
  631MOL0     H85177  11.467   8.102  11.082  0.5499 -0.0034 -0.9554
  631MOL0     H85178  11.516   8.261  11.064 -0.3640  0.7292  1.3984
  631MOL0     H85179  11.340   8.118  10.858  0.4955 -1.8919 -0.6223
  631MOL0     H85180  11.519   8.118  10.855  0.6034  2.2343 -0.1546
  631MOL0     H85181  11.529   8.348  10.819  0.6061  0.6903 -1.3432
  631MOL0     H85182  11.351   8.362  10.811 -0.8494 -0.1107 -1.4502
  631MOL0     H85183  11.509   8.192  10.445 -1.4636  0.2886 -0.9811
  631MOL0     H85184  11.072   8.395  11.108 -1.7968  1.5428  1.2805
  631MOL0     H85185  10.862   8.429  11.199  2.5799  1.2178 -0.7520
  632MOL0     O85186   2.782  10.405   6.672  0.2185 -0.1142 -0.2947
  632MOL0     C85187   2.742  10.304   6.740 -0.9263 -0.3545 -0.7402
  632MOL0     O85188   2.693  10.195   6.690  0.2066 -0.2508 -0.2725
  632MOL0     C85189   2.679  10.173   6.559  0.3643 -0.0728 -0.6396
  632MOL0     C85190   2.787  10.203   6.473  0.1445  1.0673 -0.2485
  632MOL0     C85191   2.780  10.194   6.337 -0.0699 -0.6253  0.2513
  632MOL0     C85192   2.671  10.141   6.287  0.5792  0.0771  0.8370
  632MOL0     O85193   2.673  10.124   6.156 -0.1266 -0.1598  0.0834
  632MOL0     C85194   2.584  10.016   6.096 -0.3680 -0.2442  0.0623
  632MOL0     C85195   2.640   9.990   5.957 -0.7976  0.4673  0.4217
  632MOL0     C85196   2.559   9.892   5.870 -0.0800  0.2540  0.6252
  632MOL0     C85197   2.572   9.912   5.717  0.6093  0.1577 -1.1029
  632MOL0     C85198   2.509  10.046   5.665  0.1944  0.1735 -0.8525
  632MOL0     C85199   2.509  10.074   5.519 -0.7326  0.9951  0.3899
  632MOL0     C85200   2.467   9.945   5.431 -0.0234 -0.3717 -0.1745
  632MOL0     C85201   2.461   9.978   5.281 -0.2844 -0.4036  0.2338
  632MOL0     N85202   2.397   9.877   5.195  0.0373  0.2439  0.4182
  632MOL0     C85203   2.460   9.768   5.146  0.5673 -0.3550  0.0785
  632MOL0     C85204   2.381   9.718   5.047  0.3864  0.0849  0.2570
  632MOL0     C85205   2.401   9.577   4.987  0.5169  0.3857  0.3075
  632MOL0     C85206   2.282   9.544   4.889  0.0060 -0.5700 -0.0051
  632MOL0     C85207   2.325   9.431   4.788  0.3976  0.8533  0.1860
  632MOL0     C85208   2.210   9.362   4.703 -1.3110 -0.7310  1.0528
  632MOL0     O85209   2.117   9.306   4.799 -0.4157  0.5652  0.0488
  632MOL0     C85210   1.999   9.262   4.755  0.2265  0.1627  0.4440
  632MOL0     C85211   1.946   9.284   4.625 -0.3610  0.3370  0.0199
  632MOL0     C85212   1.819   9.238   4.583  0.5791 -0.5473 -0.2684
  632MOL0     C85213   1.764   9.267   4.446 -0.1059 -0.6459  0.0250
  632MOL0     C85214   1.741   9.170   4.686 -0.1400 -0.2567 -0.5361
  632MOL0     C85215   1.595   9.134   4.677  0.1190 -0.2850  0.3088
  632MOL0     O85216   1.523   9.143   4.794  0.5977 -0.3414 -0.2474
  632MOL0     C85217   1.392   9.103   4.779 -0.0767  0.5889  0.1077
  632MOL0     C85218   1.360   8.977   4.815  0.5673  0.1226 -0.4876
  632MOL0     C85219   1.221   8.935   4.814  1.6931  0.5991 -0.1962
  632MOL0     C85220   1.121   9.021   4.768  0.4643  0.2274 -0.1666
  632MOL0     O85221   0.992   8.975   4.761  0.2554  0.1175 -0.3321
  632MOL0     C85222   0.919   9.001   4.641 -0.1097  0.0729 -0.0890
  632MOL0     C85223   0.767   9.035   4.669  0.3213 -0.0691 -0.8011
  632MOL0     C85224   0.736   9.136   4.779  0.4317 -0.8461 -0.0373
  632MOL0     C85225   0.583   9.184   4.772 -0.6104 -1.3045 -0.6720
  632MOL0     C85226   0.554   9.280   4.891  0.0984 -0.4009  0.6548
  632MOL0     C85227   0.643   9.409   4.888 -1.1985  0.5837  0.3979
  632MOL0     C85228   0.599   9.495   5.003  0.2355 -0.0156 -0.5301
  632MOL0     C85229   0.654   9.632   5.003  0.5534 -0.4316  0.1893
  632MOL0    Cl85230   0.603   9.701   5.162 -0.0744 -0.3190 -0.1802
  632MOL0     C85231   1.162   9.149   4.721  0.2414  0.3852  1.0168
  632MOL0     C85232   1.294   9.192   4.731 -0.1581  0.2102  0.0078
  632MOL0     O85233   1.555   9.096   4.569  0.0618  0.0443  1.1696
  632MOL0     C85234   1.795   9.141   4.810  0.2061  0.8353 -0.3920
  632MOL0     C85235   1.915   9.186   4.849  0.5039 -0.4576 -0.1518
  632MOL0     N85236   2.273   9.802   5.034 -0.6232  0.1073 -0.2660
  632MOL0     N85237   2.276   9.892   5.124  0.1426  0.2782  0.3068
  632MOL0     C85238   2.562  10.091   6.366 -0.5404  0.1266 -0.8170
  632MOL0     C85239   2.570  10.108   6.511  0.0556 -0.1082  0.3853
  632MOL0     C85240   2.747  10.311   6.888 -0.8493  0.8740  0.0790
  632MOL0     C85241   2.809  10.420   6.962  0.5570 -0.8867  0.2887
  632MOL0     C85242   2.810  10.422   7.100 -0.1538 -0.1813 -0.7115
  632MOL0     C85243   2.763  10.309   7.174  0.4683  1.1623 -1.0842
  632MOL0     O85244   2.766  10.302   7.311 -0.0627  0.3771 -0.2704
  632MOL0     C85245   2.885  10.354   7.373  0.0235 -0.5765 -0.3174
  632MOL0     C85246   2.838  10.451   7.480 -0.3136 -0.4555  0.4145
  632MOL0     C85247   2.945  10.561   7.496 -0.3205 -0.3364  0.0287
  632MOL0     C85248   2.916  10.637   7.619 -0.5946  0.2356  0.5331
  632MOL0     C85249   3.045  10.711   7.640 -0.5445 -0.0612 -0.4128
  632MOL0     C85250   3.139  10.780   7.668 -0.4511 -0.5455 -0.7056
  632MOL0     C85251   2.708  10.204   7.103  0.0185 -0.9566 -0.3615
  632MOL0     C85252   2.695  10.207   6.967 -0.1478 -0.2085  0.4096
  632MOL0     H85253   2.876  10.248   6.517  0.9837 -2.8679  2.5755
  632MOL0     H85254   2.864  10.230   6.279  2.6198 -2.8155  2.5223
  632MOL0     H85255   2.593   9.925   6.156  3.0387  0.6666  1.2131
  632MOL0     H85256   2.481  10.051   6.090  0.0746  0.7936 -2.8516
  632MOL0     H85257   2.650  10.091   5.914  2.0125 -1.0026 -2.8574
  632MOL0     H85258   2.742   9.952   5.967  0.5056  3.6071  0.3319
  632MOL0     H85259   2.590   9.790   5.893  1.5158  0.2939 -1.1545
  632MOL0     H85260   2.452   9.882   5.889 -0.0941  0.4364  0.6484
  632MOL0     H85261   2.679   9.912   5.691  0.5491  3.8872 -1.9057
  632MOL0     H85262   2.526   9.823   5.674  2.0030 -2.0620  1.6266
  632MOL0     H85263   2.404  10.050   5.697  0.2976 -2.2574 -0.0311
  632MOL0     H85264   2.543  10.129   5.727  0.6948 -2.1411  2.2167
  632MOL0     H85265   2.438  10.151   5.486 -3.6075 -1.1556  1.1385
  632MOL0     H85266   2.611  10.107   5.497  0.7170 -0.9769  3.5426
  632MOL0     H85267   2.528   9.855   5.434 -1.0551 -1.2875 -3.1135
  632MOL0     H85268   2.366   9.930   5.471 -0.1307  1.1221  0.1719
  632MOL0     H85269   2.560   9.994   5.238 -1.1082  2.1379 -0.8784
  632MOL0     H85270   2.402  10.069   5.273 -1.4042 -1.1088  0.1463
  632MOL0     H85271   2.551   9.725   5.185  1.9375 -0.5233 -2.9784
  632MOL0     H85272   2.492   9.573   4.926  0.1741 -3.7852 -0.2711
  632MOL0     H85273   2.405   9.495   5.059  0.2676 -0.7460 -0.9065
  632MOL0     H85274   2.241   9.630   4.835  2.0755  2.9236  3.4669
  632MOL0     H85275   2.198   9.507   4.949 -1.6455  2.3900 -0.2755
  632MOL0     H85276   2.375   9.351   4.845  0.6988 -0.2610 -1.5634
  632MOL0     H85277   2.409   9.460   4.725  0.3624  2.4814  0.8436
  632MOL0     H85278   2.252   9.287   4.636 -1.8037 -1.1768  1.2331
  632MOL0     H85279   2.168   9.446   4.649  3.4040  0.6984 -0.9248
  632MOL0     H85280   1.989   9.358   4.559  0.7110  0.2109  0.5578
  632MOL0     H85281   1.663   9.307   4.455  1.0053  1.9440  2.5785
  632MOL0     H85282   1.817   9.349   4.396 -0.8320 -1.0829 -1.5167
  632MOL0     H85283   1.773   9.177   4.385  0.7457 -1.1873  0.9175
  632MOL0     H85284   1.430   8.908   4.861 -0.5474 -1.5097 -1.1151
  632MOL0     H85285   1.194   8.832   4.835  0.9685  0.6780 -0.6997
  632MOL0     H85286   0.958   9.089   4.589 -1.1098  1.2331  1.0495
  632MOL0     H85287   0.928   8.925   4.564  0.4523 -1.1864  1.1759
  632MOL0     H85288   0.730   9.068   4.571 -0.0996  0.3176 -0.5124
  632MOL0     H85289   0.710   8.947   4.698 -0.2268  1.5726  3.8709
  632MOL0     H85290   0.808   9.218   4.774  0.9804 -1.2341  1.2114
  632MOL0     H85291   0.751   9.094   4.879 -1.5565  1.7125  1.4662
  632MOL0     H85292   0.564   9.231   4.675 -0.8289  1.1878  0.5115
  632MOL0     H85293   0.521   9.095   4.765 -0.1398 -1.5290 -2.8193
  632MOL0     H85294   0.567   9.223   4.984 -2.4481 -0.8819  0.7921
  632MOL0     H85295   0.452   9.316   4.873  0.5970 -0.4180 -2.8682
  632MOL0     H85296   0.749   9.390   4.905 -1.0110  1.4488  0.2257
  632MOL0     H85297   0.631   9.474   4.801  1.1963 -1.1255 -1.3452
  632MOL0     H85298   0.629   9.452   5.099 -5.3722 -0.2154  1.5012
  632MOL0     H85299   0.491   9.508   5.015  0.3717  0.9924 -0.2880
  632MOL0     H85300   0.611   9.682   4.916  3.1535  0.1017 -0.8645
  632MOL0     H85301   0.762   9.644   5.007  0.7343 -1.1001 -1.9152
  632MOL0     H85302   1.082   9.218   4.695  0.6877  0.2269 -0.8628
  632MOL0     H85303   1.320   9.295   4.711 -2.9627  0.4750 -3.1223
  632MOL0     H85304   1.738   9.073   4.872 -0.8654  3.3234  1.5143
  632MOL0     H85305   1.959   9.167   4.947 -0.4014 -0.8954  0.1748
  632MOL0     H85306   2.474  10.048   6.319 -0.6196  1.5963 -2.0915
  632MOL0     H85307   2.486  10.066   6.565 -0.4682 -2.0641 -1.7985
  632MOL0     H85308   2.863  10.493   6.904 -0.6185 -0.2949 -0.0875
  632MOL0     H85309   2.856  10.508   7.147  0.8314  0.5381 -2.8630
  632MOL0     H85310   2.929  10.273   7.432  1.2942  0.4475  0.2021
  632MOL0     H85311   2.953  10.402   7.303 -0.4927  0.3620 -0.1933
  632MOL0     H85312   2.824  10.393   7.572  1.2239  0.9022  1.5762
  632MOL0     H85313   2.744  10.493   7.443 -0.6577 -0.7390  0.9474
  632MOL0     H85314   2.936  10.641   7.422 -2.0581  0.5046  1.0842
  632MOL0     H85315   3.050  10.529   7.497 -0.5402 -1.1753  2.5083
  632MOL0     H85316   2.898  10.570   7.703 -1.7194  0.7421  0.7108
  632MOL0     H85317   2.820  10.689   7.606 -0.3465  0.3104 -1.3169
  632MOL0     H85318   3.224  10.837   7.700  0.9376 -1.5268 -2.4421
  632MOL0     H85319   2.669  10.120   7.160 -0.2419 -0.3607  0.3561
  632MOL0     H85320   2.630  10.133   6.921  0.2806 -0.6282  0.4607
  633MOL0     O85321   6.206   5.769   3.549  0.2723 -0.0958  0.1381
  633MOL0     C85322   6.184   5.659   3.493  0.4353  0.7049 -0.0663
  633MOL0     O85323   6.060   5.611   3.455  0.1817  0.2067 -0.1106
  633MOL0     C85324   5.954   5.687   3.488  0.9301  0.4571  0.2853
  633MOL0     C85325   5.877   5.764   3.392  0.5223  0.5666 -1.3050
  633MOL0     C85326   5.762   5.831   3.441 -0.7571  0.0890  0.5871
  633MOL0     C85327   5.735   5.831   3.580  0.3292 -0.5149 -0.0618
  633MOL0     O85328   5.626   5.913   3.615 -0.3758  0.7178  0.0997
  633MOL0     C85329   5.569   5.919   3.737 -0.1527  0.4628  0.3734
  633MOL0     C85330   5.496   6.053   3.738  0.0654 -0.9567 -0.3477
  633MOL0     C85331   5.509   6.135   3.860 -1.1487  0.2067 -0.0587
  633MOL0     C85332   5.464   6.275   3.854 -0.4173  0.8872  0.2541
  633MOL0     C85333   5.470   6.347   3.989  0.8268  0.8951  0.2015
  633MOL0     C85334   5.429   6.496   3.995  0.2538 -0.4101 -0.1458
  633MOL0     C85335   5.522   6.563   3.894  0.4586 -1.3827  0.3417
  633MOL0     C85336   5.490   6.724   3.901  0.7683  1.2054  0.0996
  633MOL0     N85337   5.558   6.785   3.784  0.5851  0.1315 -0.5427
  633MOL0     C85338   5.673   6.848   3.798 -1.0366  0.3441  0.5697
  633MOL0     C85339   5.698   6.917   3.683 -0.4851  0.1664  0.3190
  633MOL0     C85340   5.813   7.016   3.668 -0.5713  0.1857 -1.0655
  633MOL0     C85341   5.945   6.965   3.728 -0.0237  0.4594  0.7164
  633MOL0     C85342   6.054   7.068   3.702  0.1931  0.5624 -0.6859
  633MOL0     C85343   6.191   7.009   3.737 -0.1814 -0.6597  0.2134
  633MOL0     O85344   6.286   7.083   3.657 -0.4202 -0.2909 -0.3025
  633MOL0     C85345   6.418   7.066   3.683  0.4786  0.5153  0.2831
  633MOL0     C85346   6.476   6.974   3.778 -0.0062 -0.2768 -0.9490
  633MOL0     C85347   6.616   6.983   3.798  0.8855  0.1461 -0.1940
  633MOL0     C85348   6.664   6.878   3.893 -0.5197  0.1957 -1.0760
  633MOL0     C85349   6.699   7.072   3.740  0.2884 -0.3308  0.8434
  633MOL0     C85350   6.843   7.091   3.774  0.3731  0.3104  0.7149
  633MOL0     O85351   6.909   7.149   3.668 -0.2854 -0.1649 -0.0277
  633MOL0     C85352   7.043   7.176   3.661 -0.2433 -0.7712  0.7142
  633MOL0     C85353   7.150   7.105   3.717 -0.4052  0.5596 -0.3811
  633MOL0     C85354   7.284   7.135   3.682 -0.1733  0.0601  0.2988
  633MOL0     C85355   7.317   7.234   3.583  1.7098  0.6815  0.1990
  633MOL0     O85356   7.441   7.258   3.535 -0.3424 -0.8964  0.2614
  633MOL0     C85357   7.553   7.261   3.627 -0.3780  0.2810 -0.8922
  633MOL0     C85358   7.674   7.311   3.548  0.3349 -0.8172 -0.2213
  633MOL0     C85359   7.764   7.206   3.488  0.1797  0.2283 -0.2449
  633MOL0     C85360   7.880   7.262   3.401 -0.3620 -0.4235  0.4742
  633MOL0     C85361   7.960   7.144   3.337  0.6777 -0.1375 -0.3104
  633MOL0     C85362   8.060   7.192   3.240 -1.0302 -1.0443 -0.0614
  633MOL0     C85363   8.133   7.082   3.153 -0.5513  0.4501  0.1837
  633MOL0     C85364   8.229   7.136   3.051  0.4301 -0.4704 -2.0566
  633MOL0    Cl85365   8.128   7.241   2.942  0.0564  0.0390 -0.2442
  633MOL0     C85366   7.204   7.301   3.525 -0.1989  0.8355 -0.3887
  633MOL0     C85367   7.076   7.271   3.568  0.3474 -0.1742  0.2053
  633MOL0     O85368   6.884   7.063   3.884  0.0767  0.2526  0.7334
  633MOL0     C85369   6.635   7.163   3.646  0.3286 -0.1224 -0.3804
  633MOL0     C85370   6.500   7.156   3.617  0.5271 -0.0223 -0.6296
  633MOL0     N85371   5.585   6.894   3.607  0.0670 -0.3238  0.5830
  633MOL0     N85372   5.499   6.831   3.673  0.0812 -0.2430 -0.2520
  633MOL0     C85373   5.803   5.751   3.671 -0.1454 -0.3641 -0.1783
  633MOL0     C85374   5.913   5.672   3.620  0.3864  0.0503 -0.4598
  633MOL0     C85375   6.306   5.581   3.455  0.8209  0.2653  0.4818
  633MOL0     C85376   6.435   5.635   3.467 -0.3117  0.3312  0.6023
  633MOL0     C85377   6.552   5.570   3.421 -0.1231  0.0980  0.0344
  633MOL0     C85378   6.537   5.445   3.364  0.2890 -0.4087 -0.5356
  633MOL0     O85379   6.633   5.350   3.333  0.2430  0.1916 -0.1137
  633MOL0     C85380   6.773   5.384   3.328 -0.0042  0.3286  0.2663
  633MOL0     C85381   6.866   5.265   3.290  0.3773 -0.4966 -0.2693
  633MOL0     C85382   6.813   5.202   3.163 -0.1402  0.2031 -0.1485
  633MOL0     C85383   6.830   5.058   3.138  0.4837 -0.0106  0.5444
  633MOL0     C85384   6.972   5.029   3.149  0.3070  1.3744  0.0987
  633MOL0     C85385   7.087   4.995   3.171  0.6840 -0.7694 -0.2608
  633MOL0     C85386   6.405   5.391   3.354  0.9129 -0.1588  1.0492
  633MOL0     C85387   6.295   5.457   3.402 -0.1025  1.2257  0.1311
  633MOL0     H85388   5.894   5.766   3.285 -2.3161  2.8024 -1.8184
  633MOL0     H85389   5.703   5.907   3.390  0.0751  1.9886  2.2874
  633MOL0     H85390   5.492   5.847   3.767 -0.6531  1.1058  0.6540
  633MOL0     H85391   5.652   5.920   3.809  0.4577 -0.6200 -0.2909
  633MOL0     H85392   5.543   6.128   3.674 -0.3872  0.3446  0.7904
  633MOL0     H85393   5.392   6.031   3.710  0.0919 -1.5210 -0.0351
  633MOL0     H85394   5.451   6.087   3.940 -0.6767 -1.6091 -0.7580
  633MOL0     H85395   5.612   6.122   3.894 -1.5066 -1.5712  0.4680
  633MOL0     H85396   5.536   6.321   3.785 -0.2520 -0.9585 -0.8677
  633MOL0     H85397   5.364   6.270   3.809 -0.0318 -0.6227 -0.4961
  633MOL0     H85398   5.406   6.293   4.059  1.9181 -0.4732  0.1920
  633MOL0     H85399   5.570   6.346   4.034 -0.1642  0.9482  2.5079
  633MOL0     H85400   5.331   6.505   3.947  1.1048  0.2634 -1.8440
  633MOL0     H85401   5.427   6.539   4.096  0.7518  1.3702 -0.8658
  633MOL0     H85402   5.625   6.537   3.920  0.4352 -1.2594  0.5563
  633MOL0     H85403   5.512   6.521   3.793 -0.2476 -0.5927  0.0710
  633MOL0     H85404   5.525   6.774   3.992  1.6091  0.4292  0.2224
  633MOL0     H85405   5.383   6.737   3.886  0.7000 -0.8070 -1.4677
  633MOL0     H85406   5.747   6.839   3.878  0.2784  1.2999 -0.4921
  633MOL0     H85407   5.826   7.033   3.561  0.6248  1.0683 -0.7954
  633MOL0     H85408   5.781   7.110   3.715 -0.0836  1.2309 -2.7221
  633MOL0     H85409   5.959   6.867   3.681 -0.6291  0.5424  0.3593
  633MOL0     H85410   5.936   6.952   3.837 -1.2235  0.2555  0.6067
  633MOL0     H85411   6.044   7.167   3.748 -0.1818  1.6754 -3.0082
  633MOL0     H85412   6.039   7.093   3.597 -2.2406 -0.2681 -0.6010
  633MOL0     H85413   6.199   6.904   3.707 -0.6184 -0.7256  0.3228
  633MOL0     H85414   6.199   7.007   3.846 -1.6209 -1.1184  0.3256
  633MOL0     H85415   6.418   6.910   3.844 -0.7571  2.7791  1.5837
  633MOL0     H85416   6.755   6.834   3.849  0.8152  2.2867 -0.5233
  633MOL0     H85417   6.709   6.926   3.980 -0.8831 -1.3641  0.0230
  633MOL0     H85418   6.592   6.800   3.921 -1.2606  0.9861 -0.7564
  633MOL0     H85419   7.135   7.027   3.790  3.0455  1.4896  1.5181
  633MOL0     H85420   7.362   7.079   3.734  1.9341  2.5872  0.0546
  633MOL0     H85421   7.544   7.324   3.716 -0.4527 -1.9482  0.7710
  633MOL0     H85422   7.572   7.162   3.671 -3.5220  0.1265  0.4617
  633MOL0     H85423   7.651   7.390   3.476  3.6528  0.7681  0.2842
  633MOL0     H85424   7.735   7.358   3.625 -1.2335 -1.0897  1.2334
  633MOL0     H85425   7.693   7.142   3.434 -0.1088 -0.6355  1.1023
  633MOL0     H85426   7.800   7.148   3.573  2.2625  0.3369 -1.0101
  633MOL0     H85427   7.840   7.324   3.320  0.4064 -1.0206 -0.3898
  633MOL0     H85428   7.941   7.329   3.462 -1.3667  2.0657 -1.1179
  633MOL0     H85429   7.899   7.078   3.274 -0.3843  1.1130 -0.6204
  633MOL0     H85430   7.990   7.087   3.425  1.6113  0.8601  0.0331
  633MOL0     H85431   8.023   7.265   3.168 -0.6473 -0.7719  0.0173
  633MOL0     H85432   8.134   7.247   3.298 -2.4213  1.1475 -0.2395
  633MOL0     H85433   8.069   7.014   3.097 -1.3940  1.1606  0.2614
  633MOL0     H85434   8.199   7.025   3.220 -1.9934  0.9552  2.1539
  633MOL0     H85435   8.278   7.049   3.005  0.0045 -3.6520  2.8281
  633MOL0     H85436   8.300   7.206   3.096 -1.1836 -1.6087  2.8506
  633MOL0     H85437   7.219   7.376   3.448  0.6959  0.8689 -0.1938
  633MOL0     H85438   6.994   7.335   3.537  1.0650  2.1536  2.7164
  633MOL0     H85439   6.695   7.247   3.612 -1.6099  1.9362  1.0134
  633MOL0     H85440   6.450   7.221   3.547 -1.6476 -2.6109 -1.6525
  633MOL0     H85441   5.776   5.738   3.775 -0.4759  2.0737  0.0991
  633MOL0     H85442   5.970   5.633   3.704 -1.9580  0.5543  1.4735
  633MOL0     H85443   6.449   5.738   3.499  0.8082  1.5483 -3.1684
  633MOL0     H85444   6.650   5.610   3.444  0.6528 -2.9215  2.5384
  633MOL0     H85445   6.798   5.463   3.257 -1.8904  0.1931 -0.6045
  633MOL0     H85446   6.805   5.413   3.429  0.8065 -0.5374  0.2704
  633MOL0     H85447   6.850   5.198   3.375 -0.4085  0.3012  0.2279
  633MOL0     H85448   6.969   5.300   3.278  0.3881  0.8642  2.7324
  633MOL0     H85449   6.854   5.259   3.079 -1.9229  1.5543 -0.1830
  633MOL0     H85450   6.705   5.221   3.159 -0.1323  0.1183 -1.0758
  633MOL0     H85451   6.796   5.035   3.037 -0.5862  1.9757  0.3898
  633MOL0     H85452   6.756   4.998   3.192  0.5002  0.8053  1.5175
  633MOL0     H85453   7.186   4.975   3.205 -0.2840 -1.7181  2.2927
  633MOL0     H85454   6.381   5.292   3.319  0.4341 -0.1440  1.3360
  633MOL0     H85455   6.196   5.412   3.401  0.5758 -0.5055  2.3264
  634MOL0     O85456   5.533   3.441   8.614 -0.3604 -0.1253  0.0349
  634MOL0     C85457   5.518   3.320   8.610  0.0249 -0.4820  0.4043
  634MOL0     O85458   5.415   3.251   8.675 -0.0961  0.1601 -0.1095
  634MOL0     C85459   5.335   3.332   8.743 -0.3462 -0.1280 -0.5578
  634MOL0     C85460   5.364   3.348   8.882 -0.0429  0.1753 -0.5216
  634MOL0     C85461   5.273   3.415   8.975  0.4877 -0.1102 -0.5965
  634MOL0     C85462   5.164   3.480   8.918 -0.3299 -0.2166  0.2009
  634MOL0     O85463   5.077   3.560   8.988  0.5530  1.0947 -0.1026
  634MOL0     C85464   5.038   3.513   9.120 -0.6132 -0.1487 -0.4688
  634MOL0     C85465   4.982   3.368   9.111 -0.7269  0.6689 -0.0151
  634MOL0     C85466   4.857   3.353   9.023 -0.1107 -0.1282  0.5305
  634MOL0     C85467   4.787   3.224   9.057 -0.2479  0.6988  0.4655
  634MOL0     C85468   4.661   3.214   8.959 -0.2106  0.9686 -0.6802
  634MOL0     C85469   4.567   3.092   8.980  0.2333 -0.1123  0.0029
  634MOL0     C85470   4.509   3.062   9.116  0.7540 -0.4894 -0.6462
  634MOL0     C85471   4.382   3.150   9.138 -0.5128  1.0263  1.0344
  634MOL0     N85472   4.259   3.090   9.083  0.5439 -0.1226 -0.7538
  634MOL0     C85473   4.223   2.956   9.102 -0.3543  0.8340 -0.0876
  634MOL0     C85474   4.110   2.945   9.020 -1.0170  0.1856 -0.5714
  634MOL0     C85475   4.015   2.835   8.989  1.0057 -0.3291 -0.9662
  634MOL0     C85476   4.097   2.709   8.950  0.2373 -0.2629 -0.2630
  634MOL0     C85477   4.027   2.591   8.994  0.1467  0.2849  0.0647
  634MOL0     C85478   3.921   2.554   8.892  0.2286 -0.5820 -0.5078
  634MOL0     O85479   3.818   2.651   8.861  1.5011 -1.0787 -0.5450
  634MOL0     C85480   3.693   2.628   8.926 -1.1020 -0.5284  0.4370
  634MOL0     C85481   3.696   2.644   9.061  0.2024  0.2226 -0.7886
  634MOL0     C85482   3.588   2.608   9.141  0.1569 -0.3872 -0.4065
  634MOL0     C85483   3.598   2.626   9.290 -0.0026 -0.4065 -0.1617
  634MOL0     C85484   3.469   2.563   9.076  0.6552 -0.1432  0.2862
  634MOL0     C85485   3.351   2.543   9.146  0.9026 -0.1366 -0.3902
  634MOL0     O85486   3.278   2.434   9.106  0.7564 -0.3273  0.0641
  634MOL0     C85487   3.145   2.434   9.153 -0.6851  0.9615  1.2584
  634MOL0     C85488   3.040   2.476   9.078 -0.0701  0.0964  0.1622
  634MOL0     C85489   2.906   2.475   9.123  0.3241  0.7715  0.4685
  634MOL0     C85490   2.877   2.419   9.249 -1.5934 -0.0217  0.8074
  634MOL0     O85491   2.753   2.417   9.278  0.7704  0.1962 -0.2408
  634MOL0     C85492   2.705   2.301   9.355 -0.6688  0.1886  0.5534
  634MOL0     C85493   2.725   2.165   9.296  0.2883  0.4153  0.4787
  634MOL0     C85494   2.639   2.153   9.168  0.2564  0.2290 -0.6467
  634MOL0     C85495   2.555   2.020   9.171  0.1013  0.2313 -0.1735
  634MOL0     C85496   2.451   1.993   9.065  0.9793 -0.7062  0.3460
  634MOL0     C85497   2.359   2.120   9.034  0.5452 -0.4796  0.5447
  634MOL0     C85498   2.251   2.101   8.926 -0.0490 -0.5802  0.5169
  634MOL0     C85499   2.145   2.006   8.981 -0.3454 -0.2825 -0.1153
  634MOL0    Cl85500   2.043   2.105   9.088  0.4722  0.1715  0.0032
  634MOL0     C85501   2.989   2.376   9.329  0.9304  0.1345  0.7123
  634MOL0     C85502   3.117   2.381   9.282 -1.1651  0.3343 -0.1140
  634MOL0     O85503   3.308   2.641   9.215  0.3940  0.3412  0.6329
  634MOL0     C85504   3.463   2.568   8.933 -0.3362  0.1693  0.1798
  634MOL0     C85505   3.577   2.596   8.855  0.0173  0.2495  0.6282
  634MOL0     N85506   4.094   3.063   8.958 -0.4291 -0.5465  0.3818
  634MOL0     N85507   4.174   3.156   8.999  0.0331 -0.2885 -0.4277
  634MOL0     C85508   5.140   3.475   8.778  0.8269  0.1219  0.4096
  634MOL0     C85509   5.226   3.402   8.691 -0.0704 -0.4556  0.2034
  634MOL0     C85510   5.627   3.247   8.548 -0.7185 -0.2410 -0.1022
  634MOL0     C85511   5.748   3.304   8.499 -1.3386  1.0342  0.3191
  634MOL0     C85512   5.849   3.213   8.458  0.0698 -0.7157  0.0013
  634MOL0     C85513   5.841   3.074   8.454 -0.2971  0.0188  0.2668
  634MOL0     O85514   5.962   3.014   8.418  0.2534  0.1265  0.5276
  634MOL0     C85515   5.960   2.873   8.390  0.3942 -0.1125 -0.0609
  634MOL0     C85516   6.102   2.825   8.350 -0.3315  0.1035  0.2040
  634MOL0     C85517   6.207   2.808   8.459 -0.5212 -0.4182  0.0378
  634MOL0     C85518   6.265   2.939   8.527 -0.1673 -0.5746  0.6502
  634MOL0     C85519   6.367   2.881   8.622 -0.5188  0.9761  0.2075
  634MOL0     C85520   6.432   2.827   8.704  0.1903  0.2667  0.5476
  634MOL0     C85521   5.719   3.022   8.487  0.2496 -0.3451  0.2262
  634MOL0     C85522   5.616   3.107   8.541  0.3897 -0.5970  0.8595
  634MOL0     H85523   5.446   3.288   8.920  1.6191  2.2906 -0.6431
  634MOL0     H85524   5.291   3.419   9.082 -0.4428 -2.8307 -0.2733
  634MOL0     H85525   5.128   3.516   9.181 -1.1178  1.3392  0.2629
  634MOL0     H85526   4.967   3.575   9.176 -0.2997 -0.0460 -0.1845
  634MOL0     H85527   5.051   3.294   9.070 -2.3311 -1.4093  0.8673
  634MOL0     H85528   4.952   3.332   9.210 -0.2512  0.4354  0.0492
  634MOL0     H85529   4.796   3.443   9.032  2.4014  1.7030  0.3686
  634MOL0     H85530   4.883   3.342   8.917  2.3219 -0.4623  1.1174
  634MOL0     H85531   4.856   3.141   9.042  3.0114  3.1800  0.7382
  634MOL0     H85532   4.746   3.230   9.158  1.0397  1.4179  0.9632
  634MOL0     H85533   4.602   3.304   8.978 -2.4343 -0.4538 -0.5011
  634MOL0     H85534   4.696   3.199   8.856  2.0707 -1.0454  0.2768
  634MOL0     H85535   4.485   3.111   8.910  0.6925  1.2273 -0.1991
  634MOL0     H85536   4.627   3.006   8.951  0.7328 -0.4101  1.7896
  634MOL0     H85537   4.479   2.958   9.132 -3.7168  0.7241  0.2768
  634MOL0     H85538   4.587   3.091   9.187 -0.3409  1.2189 -0.0685
  634MOL0     H85539   4.396   3.252   9.100  3.3078  0.1688 -0.2989
  634MOL0     H85540   4.377   3.146   9.247 -1.3496 -0.4743  0.9704
  634MOL0     H85541   4.270   2.872   9.152  0.1234  0.4613 -1.1483
  634MOL0     H85542   3.955   2.808   9.077  1.2853 -3.3795 -1.5869
  634MOL0     H85543   3.948   2.862   8.907 -0.0686  0.6210  0.1873
  634MOL0     H85544   4.198   2.711   8.992 -0.1302  0.5923  0.6009
  634MOL0     H85545   4.109   2.698   8.842 -0.5931 -0.0400 -0.3828
  634MOL0     H85546   3.973   2.595   9.089 -0.9291 -1.1029 -0.4631
  634MOL0     H85547   4.092   2.504   9.006 -0.7907 -0.3992  0.2667
  634MOL0     H85548   3.870   2.460   8.914 -0.8531  0.1645  0.3531
  634MOL0     H85549   3.978   2.528   8.802  0.3650  2.4251 -1.4256
  634MOL0     H85550   3.785   2.682   9.109  0.2648 -0.9436  0.0823
  634MOL0     H85551   3.567   2.726   9.322 -0.4549 -0.4463 -0.4604
  634MOL0     H85552   3.542   2.560   9.357  0.3147  0.9275  1.4628
  634MOL0     H85553   3.699   2.598   9.321  0.1956 -3.3022 -2.9047
  634MOL0     H85554   3.077   2.500   8.979  0.1365 -0.1115  0.1872
  634MOL0     H85555   2.824   2.510   9.061  0.0811  0.2159  0.4608
  634MOL0     H85556   2.766   2.302   9.446  1.8905  1.3104 -1.0491
  634MOL0     H85557   2.601   2.320   9.383 -0.4353  0.0334  1.5418
  634MOL0     H85558   2.828   2.148   9.264 -0.0892 -0.2306 -0.4369
  634MOL0     H85559   2.720   2.087   9.372  1.4845 -2.9405 -2.6196
  634MOL0     H85560   2.699   2.155   9.076 -1.8752  1.8058 -2.0958
  634MOL0     H85561   2.560   2.228   9.175  0.1995  0.0471  1.0864
  634MOL0     H85562   2.628   1.938   9.171 -1.2195 -0.9819  0.1657
  634MOL0     H85563   2.508   2.013   9.270 -2.1925  1.0168 -1.1344
  634MOL0     H85564   2.388   1.910   9.099 -0.5702  0.1605 -0.3333
  634MOL0     H85565   2.501   1.965   8.973  1.1303 -2.9469  1.0497
  634MOL0     H85566   2.315   2.162   9.125  2.0438 -0.6801  1.4027
  634MOL0     H85567   2.419   2.204   8.996  1.3843 -0.8193  1.0751
  634MOL0     H85568   2.292   2.066   8.831 -0.7126 -0.2294  0.1005
  634MOL0     H85569   2.211   2.202   8.919  1.0504 -0.1665 -0.1621
  634MOL0     H85570   2.191   1.925   9.039 -1.2442  0.4149  1.6531
  634MOL0     H85571   2.088   1.964   8.897  0.6919 -0.3128 -0.8275
  634MOL0     H85572   2.961   2.338   9.427 -2.8247  0.0702 -0.2482
  634MOL0     H85573   3.201   2.344   9.339 -0.5370  2.5141  0.4549
  634MOL0     H85574   3.365   2.552   8.888 -0.4187  2.3821 -0.5529
  634MOL0     H85575   3.568   2.611   8.748  0.3036  3.1871  0.9307
  634MOL0     H85576   5.055   3.523   8.729 -0.4011 -1.1681  1.1788
  634MOL0     H85577   5.203   3.409   8.585  2.7118  2.3739 -0.3444
  634MOL0     H85578   5.751   3.413   8.499  0.6827  1.0193  1.2373
  634MOL0     H85579   5.943   3.259   8.428  1.5847 -3.5370 -0.0013
  634MOL0     H85580   5.917   2.818   8.475  0.5168 -1.9387 -1.1183
  634MOL0     H85581   5.886   2.850   8.313 -1.4042  3.1417  0.5188
  634MOL0     H85582   6.134   2.891   8.269  2.5726 -0.5854  0.6563
  634MOL0     H85583   6.083   2.727   8.307 -1.2747  0.7501 -0.9099
  634MOL0     H85584   6.290   2.746   8.423  2.2647  3.0225 -0.0111
  634MOL0     H85585   6.159   2.747   8.536  0.2678 -1.8536 -0.5809
  634MOL0     H85586   6.183   2.988   8.581  0.3231 -0.8932  1.7021
  634MOL0     H85587   6.309   3.007   8.453 -0.2060 -0.4347  0.7562
  634MOL0     H85588   6.487   2.766   8.773  1.1835  1.2003  0.5996
  634MOL0     H85589   5.707   2.914   8.490  0.0059 -0.3045  1.8324
  634MOL0     H85590   5.522   3.064   8.575 -0.5903 -0.7312 -1.7485
  635MOL0     O85591   8.021   6.836   8.846 -0.3775  0.0822 -0.8475
  635MOL0     C85592   7.988   6.952   8.834 -0.2947  0.7257  0.2144
  635MOL0     O85593   7.874   7.007   8.887  0.9025 -0.1044 -0.5518
  635MOL0     C85594   7.789   6.927   8.968  0.3002 -0.2856  0.3903
  635MOL0     C85595   7.730   6.996   9.081  0.7914 -0.0242 -0.1021
  635MOL0     C85596   7.638   6.921   9.162 -0.3321 -0.4441 -0.2137
  635MOL0     C85597   7.608   6.785   9.132 -0.0889 -0.7088 -0.5378
  635MOL0     O85598   7.519   6.713   9.211  0.9077 -0.2603  0.4704
  635MOL0     C85599   7.404   6.788   9.266 -0.5313  0.5472  0.4015
  635MOL0     C85600   7.285   6.696   9.286  1.4370 -0.7828 -0.6935
  635MOL0     C85601   7.188   6.766   9.394  0.1751 -0.9223  0.1429
  635MOL0     C85602   7.076   6.658   9.430 -0.0344  0.4597 -0.0176
  635MOL0     C85603   7.126   6.554   9.527 -0.1548 -0.0677 -0.0711
  635MOL0     C85604   7.004   6.473   9.572  0.4872  0.3638  0.8423
  635MOL0     C85605   7.043   6.364   9.664  0.0362  0.3534 -0.3308
  635MOL0     C85606   6.925   6.314   9.737  1.2964  0.9763 -0.0487
  635MOL0     N85607   6.885   6.406   9.845  0.2918 -0.5249 -0.5408
  635MOL0     C85608   6.908   6.390   9.988  0.3458  0.7302 -0.9868
  635MOL0     C85609   6.835   6.489  10.040  1.0305 -0.3193 -0.2611
  635MOL0     C85610   6.831   6.536  10.183  0.3113  0.9784 -0.2002
  635MOL0     C85611   6.786   6.418  10.278  0.0716  0.2049 -0.0062
  635MOL0     C85612   6.759   6.462  10.415 -0.9058 -0.1679 -0.7048
  635MOL0     C85613   6.721   6.355  10.517 -0.3073 -0.2364 -0.5796
  635MOL0     O85614   6.579   6.365  10.526 -0.3369  0.0261  0.4818
  635MOL0     C85615   6.510   6.252  10.550 -0.0124 -0.0395 -0.6900
  635MOL0     C85616   6.370   6.280  10.542 -0.2669 -0.5247  1.0050
  635MOL0     C85617   6.272   6.182  10.560  0.9359 -0.4388 -0.4514
  635MOL0     C85618   6.124   6.215  10.568 -0.0370 -0.1653  0.3353
  635MOL0     C85619   6.314   6.049  10.587  0.1662 -0.6085  0.6517
  635MOL0     C85620   6.226   5.927  10.617  0.0915 -0.3580 -0.1181
  635MOL0     O85621   6.267   5.803  10.570  0.5451  0.9894  0.0347
  635MOL0     C85622   6.186   5.692  10.585 -0.0179  0.2609 -0.4561
  635MOL0     C85623   6.055   5.698  10.529 -0.4690 -0.1531  0.0130
  635MOL0     C85624   5.988   5.577  10.517  0.3771 -0.5317 -0.3846
  635MOL0     C85625   6.043   5.460  10.577  0.2266 -0.4802  0.6886
  635MOL0     O85626   5.987   5.337  10.562 -0.1344  0.5649  0.1432
  635MOL0     C85627   5.954   5.271  10.682  0.1064  1.3345 -0.0305
  635MOL0     C85628   5.852   5.159  10.653 -0.9640  0.3135 -1.1017
  635MOL0     C85629   5.708   5.214  10.637 -0.5757  0.2709  0.3767
  635MOL0     C85630   5.607   5.101  10.641  1.1542 -0.3217 -0.4895
  635MOL0     C85631   5.457   5.133  10.634  0.5130 -0.3733 -0.3155
  635MOL0     C85632   5.374   5.008  10.646 -0.2604 -0.1241  0.3103
  635MOL0     C85633   5.226   5.045  10.663 -0.1708 -0.0953  0.1394
  635MOL0     C85634   5.130   4.946  10.615 -0.5361 -0.4529  0.0927
  635MOL0    Cl85635   4.968   5.030  10.599 -0.3063  0.1103 -0.1950
  635MOL0     C85636   6.169   5.460  10.632 -0.1600 -0.0841 -0.5493
  635MOL0     C85637   6.247   5.573  10.627  0.1007 -0.9554  0.7607
  635MOL0     O85638   6.124   5.941  10.684  0.1842 -0.5023  0.2920
  635MOL0     C85639   6.454   6.026  10.587  0.2324  0.4005 -0.2028
  635MOL0     C85640   6.552   6.121  10.564 -0.5542  0.2406 -1.4717
  635MOL0     N85641   6.745   6.536   9.943  0.6360  0.2029 -0.2057
  635MOL0     N85642   6.784   6.497   9.829  0.5562  0.4838 -0.2339
  635MOL0     C85643   7.673   6.723   9.021 -0.3540 -0.8446 -0.4545
  635MOL0     C85644   7.757   6.799   8.935 -0.2934  0.7380  0.2530
  635MOL0     C85645   8.077   7.037   8.745  0.3674 -1.1540 -0.1340
  635MOL0     C85646   8.194   6.992   8.684  0.2193  0.0599 -0.0635
  635MOL0     C85647   8.263   7.074   8.589 -0.2008  0.4206  0.3665
  635MOL0     C85648   8.212   7.203   8.559 -0.0409 -0.1329  0.3581
  635MOL0     O85649   8.279   7.274   8.464  0.3545  0.0420  0.4527
  635MOL0     C85650   8.330   7.401   8.515  0.4032 -0.0525  0.4709
  635MOL0     C85651   8.466   7.433   8.457 -0.3295  0.0035 -1.0537
  635MOL0     C85652   8.571   7.352   8.527 -0.7283 -0.5191  0.1374
  635MOL0     C85653   8.702   7.391   8.475 -0.0299 -0.4921  0.3870
  635MOL0     C85654   8.724   7.340   8.338  0.6307 -0.0713  0.5622
  635MOL0     C85655   8.742   7.316   8.221 -0.3505  0.1584  0.6014
  635MOL0     C85656   8.100   7.254   8.630  0.4125 -0.9151  0.3099
  635MOL0     C85657   8.038   7.169   8.718  0.4911  0.7331 -0.4654
  635MOL0     H85658   7.759   7.099   9.098  0.0718  0.5838 -2.2620
  635MOL0     H85659   7.597   6.979   9.244 -0.6763 -3.7854  2.1778
  635MOL0     H85660   7.438   6.843   9.354  0.3223  0.2007  0.2976
  635MOL0     H85661   7.374   6.855   9.185 -0.4241 -0.1107 -0.1951
  635MOL0     H85662   7.229   6.682   9.193  0.0480  4.4490 -1.0000
  635MOL0     H85663   7.318   6.598   9.320  3.2792 -0.3027 -0.9620
  635MOL0     H85664   7.249   6.792   9.481  1.2740 -2.6539 -0.0442
  635MOL0     H85665   7.155   6.852   9.336  0.5434 -2.1947 -2.0583
  635MOL0     H85666   6.991   6.717   9.464 -0.2105  1.8574 -2.5545
  635MOL0     H85667   7.041   6.612   9.337  1.5609 -0.6525 -0.0997
  635MOL0     H85668   7.205   6.488   9.489  0.8572 -0.2047  2.1140
  635MOL0     H85669   7.156   6.606   9.619  0.3324  0.6108 -0.5961
  635MOL0     H85670   6.931   6.540   9.617  1.4520  1.4657  0.8105
  635MOL0     H85671   6.952   6.430   9.486 -1.1560  1.5189  1.2133
  635MOL0     H85672   7.081   6.271   9.621 -1.0861 -1.5898  2.5455
  635MOL0     H85673   7.117   6.399   9.737 -1.4320  0.1583  1.3322
  635MOL0     H85674   6.954   6.216   9.775  1.6342  0.9946 -0.2573
  635MOL0     H85675   6.846   6.299   9.664  0.3239 -0.4241  1.2338
  635MOL0     H85676   6.975   6.317  10.031 -0.1456  0.6108 -0.4163
  635MOL0     H85677   6.931   6.571  10.212  1.7437  0.2066 -3.7205
  635MOL0     H85678   6.756   6.616  10.188 -0.8335 -0.0186 -0.9556
  635MOL0     H85679   6.868   6.346  10.279 -1.4086 -1.5682 -0.8902
  635MOL0     H85680   6.692   6.371  10.246 -0.3991  0.6312  0.7113
  635MOL0     H85681   6.694   6.550  10.408  1.9121  2.1456  0.0317
  635MOL0     H85682   6.850   6.514  10.445 -0.9294  0.7085 -2.0697
  635MOL0     H85683   6.772   6.369  10.613 -0.5513 -2.8873 -0.0034
  635MOL0     H85684   6.756   6.258  10.480 -2.3665 -1.0646 -0.4706
  635MOL0     H85685   6.327   6.380  10.537 -0.0869 -0.5067 -1.1589
  635MOL0     H85686   6.072   6.147  10.499 -0.0996  1.7624 -1.6257
  635MOL0     H85687   6.076   6.197  10.664 -1.7061  1.6900 -0.0915
  635MOL0     H85688   6.105   6.317  10.534 -1.7103 -0.1252  1.3203
  635MOL0     H85689   6.035   5.792  10.479  2.6207 -0.6398 -2.4284
  635MOL0     H85690   5.890   5.569  10.472  0.5660  0.1654 -0.9629
  635MOL0     H85691   6.043   5.212  10.706 -0.5092  0.9215  1.3557
  635MOL0     H85692   5.929   5.345  10.759  0.3831  2.1586 -0.7210
  635MOL0     H85693   5.867   5.099  10.563  1.8660 -0.1903 -0.3906
  635MOL0     H85694   5.858   5.094  10.741 -0.4647  1.6453 -0.1239
  635MOL0     H85695   5.704   5.263  10.539  1.7413  1.4930  0.8368
  635MOL0     H85696   5.697   5.294  10.710  0.5033 -1.7840  2.9169
  635MOL0     H85697   5.634   5.020  10.573  1.0514 -1.5857  0.9234
  635MOL0     H85698   5.626   5.064  10.742 -1.6970  0.4646  0.4140
  635MOL0     H85699   5.439   5.190  10.542  2.7501 -0.7551 -1.0593
  635MOL0     H85700   5.418   5.182  10.723 -1.9943 -0.9428 -1.0155
  635MOL0     H85701   5.393   4.949  10.556  1.3700 -2.3234  1.9687
  635MOL0     H85702   5.409   4.953  10.734 -2.4809 -2.1602  0.0304
  635MOL0     H85703   5.197   5.143  10.623 -1.3117 -0.9601 -1.2383
  635MOL0     H85704   5.209   5.051  10.771 -1.4000 -0.0418 -0.0455
  635MOL0     H85705   5.132   4.866  10.690  2.2720  2.3059  3.2838
  635MOL0     H85706   5.171   4.917  10.518  1.5400  2.8028 -0.1689
  635MOL0     H85707   6.214   5.364  10.653  1.7911 -0.5853 -5.5721
  635MOL0     H85708   6.353   5.575  10.649 -0.1974  1.5512  2.3948
  635MOL0     H85709   6.486   5.923  10.593 -1.5977 -0.2162 -0.2823
  635MOL0     H85710   6.656   6.090  10.559 -0.6322 -0.7026  1.0716
  635MOL0     H85711   7.652   6.620   8.995 -0.0260 -0.9765 -0.2023
  635MOL0     H85712   7.795   6.746   8.849 -0.2601  0.6837  0.3017
  635MOL0     H85713   8.216   6.887   8.701 -3.1452 -0.7944 -0.1356
  635MOL0     H85714   8.358   7.038   8.552  0.9025  2.8213  0.6268
  635MOL0     H85715   8.248   7.468   8.489  0.1451 -0.1895  0.9191
  635MOL0     H85716   8.335   7.401   8.625 -0.3002  0.7966  0.5060
  635MOL0     H85717   8.489   7.540   8.463 -2.6017  0.4577  0.4981
  635MOL0     H85718   8.478   7.404   8.352  1.4477 -0.4113 -0.7694
  635MOL0     H85719   8.559   7.245   8.510 -0.3512 -0.8155  1.6153
  635MOL0     H85720   8.568   7.370   8.635 -0.9744  0.4981 -0.0314
  635MOL0     H85721   8.773   7.354   8.549 -1.1275 -0.4511  1.4968
  635MOL0     H85722   8.698   7.500   8.463  0.0154 -0.7198 -2.3174
  635MOL0     H85723   8.750   7.285   8.118 -4.7131 -2.8161  0.8810
  635MOL0     H85724   8.053   7.351   8.614  0.5183 -0.9112  0.0106
  635MOL0     H85725   7.949   7.208   8.766  1.4937  0.7458  1.4809
  636MOL0     O85726   4.774   3.515   7.634  0.2232  0.1476 -0.5261
  636MOL0     C85727   4.742   3.396   7.637  0.2990 -0.3307  0.0799
  636MOL0     O85728   4.633   3.345   7.568 -0.5870 -0.3306 -0.0492
  636MOL0     C85729   4.568   3.430   7.478  0.5556  0.0815 -0.8844
  636MOL0     C85730   4.423   3.433   7.491 -0.0259  0.0711  0.3286
  636MOL0     C85731   4.358   3.516   7.407 -0.2271  0.4074 -0.1000
  636MOL0     C85732   4.418   3.594   7.305  0.0343  0.2106  0.2136
  636MOL0     O85733   4.345   3.663   7.218 -0.2493 -0.0960  0.5558
  636MOL0     C85734   4.373   3.634   7.080  0.5815  0.1610 -0.2093
  636MOL0     C85735   4.302   3.509   7.031  0.0961 -0.1420  0.1570
  636MOL0     C85736   4.300   3.506   6.874  0.0239  0.0760 -0.0585
  636MOL0     C85737   4.251   3.633   6.801  0.0120  0.2058 -0.1128
  636MOL0     C85738   4.211   3.616   6.654 -0.0642  0.4975  0.8557
  636MOL0     C85739   4.324   3.619   6.553 -0.2548 -0.7606  0.1302
  636MOL0     C85740   4.270   3.637   6.401  0.1515  0.4030  0.2246
  636MOL0     C85741   4.376   3.701   6.310  0.0101  0.5130  0.3556
  636MOL0     N85742   4.312   3.786   6.203  0.9163 -0.2583 -0.0348
  636MOL0     C85743   4.232   3.895   6.242 -0.7337 -0.1527 -0.8740
  636MOL0     C85744   4.135   3.903   6.142 -0.2031  0.1977  0.5523
  636MOL0     C85745   4.014   3.997   6.132  0.6769 -0.0375 -0.2599
  636MOL0     C85746   3.962   4.045   5.996  0.1751 -0.3297  1.6578
  636MOL0     C85747   3.890   4.176   6.019  0.3118 -0.7919  0.1524
  636MOL0     C85748   3.740   4.149   6.063 -0.3432  0.2132  0.8664
  636MOL0     O85749   3.669   4.103   5.943  0.5668  0.6116  0.4393
  636MOL0     C85750   3.533   4.094   5.948  0.4159 -0.2608 -0.0706
  636MOL0     C85751   3.460   4.200   5.892  0.9652  0.3801 -1.0511
  636MOL0     C85752   3.320   4.194   5.898 -0.5689 -0.1165 -0.3398
  636MOL0     C85753   3.254   4.324   5.858 -0.5746  0.3296 -0.8756
  636MOL0     C85754   3.257   4.077   5.942 -0.1239 -0.6345 -0.8126
  636MOL0     C85755   3.113   4.068   5.947 -0.0786  0.2678  0.4862
  636MOL0     O85756   3.066   3.957   5.896 -0.0602  0.3344  0.7888
  636MOL0     C85757   2.934   3.920   5.886  0.1966  0.1979  0.6470
  636MOL0     C85758   2.829   4.003   5.873  0.0410 -0.5738  0.1403
  636MOL0     C85759   2.696   3.954   5.890  0.3880 -0.4172 -0.1072
  636MOL0     C85760   2.675   3.817   5.914  0.9516 -0.3447  0.4763
  636MOL0     O85761   2.540   3.784   5.940 -0.4451  0.4968 -0.5067
  636MOL0     C85762   2.511   3.642   5.912 -0.2888  0.4069  0.1483
  636MOL0     C85763   2.369   3.631   5.864  0.9821 -0.1823 -0.2017
  636MOL0     C85764   2.350   3.502   5.779 -0.4659 -0.8466  0.0559
  636MOL0     C85765   2.213   3.506   5.711 -0.2209  0.5036 -0.7445
  636MOL0     C85766   2.182   3.368   5.650  0.6356 -0.2089 -0.2043
  636MOL0     C85767   2.065   3.375   5.549  0.8453  0.1569 -0.3284
  636MOL0     C85768   1.941   3.439   5.604 -0.7584  0.7035  0.2960
  636MOL0     C85769   1.805   3.407   5.550  0.0839 -0.7055 -0.5706
  636MOL0    Cl85770   1.790   3.511   5.398  0.4173 -0.3571 -0.0089
  636MOL0     C85771   2.787   3.724   5.927 -1.2285 -0.8616 -0.2420
  636MOL0     C85772   2.918   3.784   5.910 -0.0835 -0.3057 -0.5773
  636MOL0     O85773   3.050   4.154   5.994  0.0504 -0.2486  0.4997
  636MOL0     C85774   3.334   3.965   5.968 -0.9710 -0.0944  0.2022
  636MOL0     C85775   3.469   3.968   5.979 -0.7968 -0.9529  1.1415
  636MOL0     N85776   4.166   3.810   6.047  0.0776 -0.2024  0.3334
  636MOL0     N85777   4.269   3.740   6.088  0.2140  0.0137 -0.2887
  636MOL0     C85778   4.557   3.589   7.297  0.2739  0.7712 -0.3270
  636MOL0     C85779   4.630   3.494   7.373  0.3727 -0.4428  0.5479
  636MOL0     C85780   4.830   3.307   7.705  0.5963  0.4589  0.3228
  636MOL0     C85781   4.820   3.177   7.661  0.1037 -0.6749 -0.2905
  636MOL0     C85782   4.919   3.078   7.697  0.8480 -0.9174 -0.0772
  636MOL0     C85783   5.018   3.114   7.785  0.0569 -0.5779  0.3799
  636MOL0     O85784   5.112   3.039   7.837  0.7746  0.2846  0.1603
  636MOL0     C85785   5.118   2.903   7.813  0.0254 -0.5685 -0.0106
  636MOL0     C85786   5.235   2.832   7.888  0.3156 -0.2569  0.2599
  636MOL0     C85787   5.233   2.846   8.043  0.2472 -0.8290 -0.5905
  636MOL0     C85788   5.357   2.775   8.108  0.2918  0.3592 -0.0938
  636MOL0     C85789   5.474   2.857   8.122 -0.8319  0.0233 -0.4048
  636MOL0     C85790   5.580   2.918   8.120  0.3546  0.5629  0.3477
  636MOL0     C85791   5.024   3.246   7.840 -0.3557 -0.7010  0.1675
  636MOL0     C85792   4.931   3.345   7.799 -0.3385  0.2479 -0.7901
  636MOL0     H85793   4.388   3.361   7.564  1.1848  1.0360  1.9345
  636MOL0     H85794   4.250   3.524   7.416 -0.2842 -0.1239 -0.2539
  636MOL0     H85795   4.337   3.723   7.029 -1.9970  1.2475  3.1114
  636MOL0     H85796   4.479   3.624   7.053  1.6704  1.6389  2.9182
  636MOL0     H85797   4.362   3.423   7.063 -1.5254 -1.8041 -1.0976
  636MOL0     H85798   4.196   3.502   7.054 -0.9869  0.9197 -3.8502
  636MOL0     H85799   4.406   3.495   6.846  0.2148 -1.0517  1.0129
  636MOL0     H85800   4.247   3.416   6.842  0.8566 -0.1207 -0.9746
  636MOL0     H85801   4.162   3.668   6.854  0.0822 -1.4155  1.1531
  636MOL0     H85802   4.321   3.715   6.818  0.3283  0.1340 -1.0300
  636MOL0     H85803   4.169   3.516   6.636 -3.0609  1.8824 -0.4630
  636MOL0     H85804   4.135   3.691   6.632 -1.9250 -1.4551  0.2853
  636MOL0     H85805   4.394   3.700   6.576 -1.2566  0.6217 -1.4518
  636MOL0     H85806   4.370   3.520   6.554  0.6621 -0.4434 -2.3721
  636MOL0     H85807   4.241   3.539   6.363 -0.8790  0.4799  0.7830
  636MOL0     H85808   4.178   3.696   6.405 -0.3360 -0.3960  1.6900
  636MOL0     H85809   4.433   3.619   6.265 -1.0369 -0.6880  1.1275
  636MOL0     H85810   4.446   3.753   6.376  0.6938 -0.8895  0.7705
  636MOL0     H85811   4.235   3.956   6.332  1.2208 -0.7970 -0.4532
  636MOL0     H85812   3.936   3.938   6.179  1.0577 -0.0957  0.3110
  636MOL0     H85813   4.025   4.084   6.198  0.9338  1.8895 -2.6927
  636MOL0     H85814   3.909   3.963   5.947 -0.0148  1.2625 -1.0226
  636MOL0     H85815   4.044   4.078   5.931  0.0512  1.5817  2.4234
  636MOL0     H85816   3.897   4.234   5.927  0.9065 -0.4961  0.3816
  636MOL0     H85817   3.940   4.247   6.085 -2.0604  2.7676 -1.5597
  636MOL0     H85818   3.698   4.237   6.113 -1.9642  0.3629 -0.6363
  636MOL0     H85819   3.735   4.064   6.132  1.4571 -1.3648 -0.8036
  636MOL0     H85820   3.517   4.288   5.863  1.9450 -0.0135 -0.3831
  636MOL0     H85821   3.155   4.311   5.812 -0.9986  2.1518 -0.5479
  636MOL0     H85822   3.258   4.382   5.951 -2.2694 -1.4075  0.3685
  636MOL0     H85823   3.318   4.368   5.781  0.8421  0.1075  0.1295
  636MOL0     H85824   2.844   4.110   5.864  2.4364 -0.8641  0.1774
  636MOL0     H85825   2.609   4.019   5.882  0.0412 -0.9842 -1.0964
  636MOL0     H85826   2.581   3.610   5.834  2.4184 -1.6982  3.1783
  636MOL0     H85827   2.524   3.590   6.007  1.7643 -0.9133 -0.7729
  636MOL0     H85828   2.319   3.606   5.958  3.8584 -0.9827  1.2352
  636MOL0     H85829   2.329   3.723   5.822  1.3319 -0.0863 -0.3284
  636MOL0     H85830   2.367   3.412   5.839 -1.2667 -1.4706 -0.6320
  636MOL0     H85831   2.415   3.496   5.691 -0.5163  0.2979 -0.0658
  636MOL0     H85832   2.138   3.522   5.789  0.2050  0.4258 -0.3127
  636MOL0     H85833   2.203   3.598   5.653  5.6856  1.2085 -1.1850
  636MOL0     H85834   2.167   3.295   5.730  2.4865  1.8287  2.1556
  636MOL0     H85835   2.270   3.338   5.591 -1.1051 -1.3186 -2.3987
  636MOL0     H85836   2.105   3.435   5.467  1.7012 -0.9343 -0.7399
  636MOL0     H85837   2.043   3.277   5.505 -2.7059  1.4364 -1.7943
  636MOL0     H85838   1.951   3.548   5.605 -0.9060  0.7407  2.7931
  636MOL0     H85839   1.937   3.396   5.704  1.6393 -1.8840 -0.5929
  636MOL0     H85840   1.728   3.442   5.619  0.8363  1.6508 -0.8424
  636MOL0     H85841   1.801   3.298   5.541  0.8118 -0.8967  1.1206
  636MOL0     H85842   2.772   3.624   5.967  1.3403 -0.7558  1.1698
  636MOL0     H85843   3.002   3.716   5.917  1.0332  1.0176 -0.7174
  636MOL0     H85844   3.285   3.871   5.991 -3.4787  1.2719  0.7965
  636MOL0     H85845   3.529   3.879   5.996  4.4933  2.2191  1.2021
  636MOL0     H85846   4.616   3.657   7.236 -1.8982  1.8649 -1.3003
  636MOL0     H85847   4.738   3.480   7.369  0.1492 -3.7517  2.3255
  636MOL0     H85848   4.750   3.149   7.583 -0.0425 -2.6718  0.4939
  636MOL0     H85849   4.910   2.972   7.679 -2.4009 -1.5000  3.7229
  636MOL0     H85850   5.023   2.856   7.841  0.1783 -1.1587 -0.4577
  636MOL0     H85851   5.139   2.904   7.705  0.4810  0.5869  0.0660
  636MOL0     H85852   5.322   2.888   7.854 -0.7405  1.1341 -0.2238
  636MOL0     H85853   5.235   2.725   7.864  2.5387 -0.3740  0.6417
  636MOL0     H85854   5.143   2.795   8.079  0.7888 -0.3712  1.5668
  636MOL0     H85855   5.239   2.949   8.077  2.4499 -0.9197 -0.6055
  636MOL0     H85856   5.399   2.695   8.046  0.3329  0.8813 -0.7469
  636MOL0     H85857   5.337   2.737   8.208  1.7364  0.9496  0.4541
  636MOL0     H85858   5.671   2.970   8.101  1.6325 -1.6347  0.0655
  636MOL0     H85859   5.099   3.273   7.914 -0.1275 -0.2656 -0.2117
  636MOL0     H85860   4.932   3.449   7.831 -3.6231  0.3026 -0.5687
  637MOL0     O85861   7.753   4.156   2.535  0.1575 -0.4235 -0.3862
  637MOL0     C85862   7.838   4.143   2.449  0.7488  0.5413 -0.0099
  637MOL0     O85863   7.825   4.200   2.326  0.3284  0.2286 -0.4437
  637MOL0     C85864   7.717   4.277   2.293  0.4847 -0.5770  0.4156
  637MOL0     C85865   7.677   4.390   2.364  0.1038 -0.0007 -0.6514
  637MOL0     C85866   7.578   4.478   2.322  0.1851 -0.1005 -0.1932
  637MOL0     C85867   7.496   4.448   2.214 -0.8197  2.2153 -0.7422
  637MOL0     O85868   7.388   4.523   2.177  0.9587  0.0887  0.3294
  637MOL0     C85869   7.274   4.469   2.107 -0.4918 -0.0325 -0.2240
  637MOL0     C85870   7.280   4.500   1.956  0.0413  0.3818 -0.3842
  637MOL0     C85871   7.151   4.444   1.890 -1.1366  0.1057  0.8701
  637MOL0     C85872   7.128   4.508   1.756  0.1558 -0.4080 -0.0932
  637MOL0     C85873   6.997   4.462   1.694  0.6705  0.1449  0.3467
  637MOL0     C85874   6.871   4.504   1.769 -0.6256 -0.6742  0.8855
  637MOL0     C85875   6.761   4.419   1.710 -0.5040  0.4783 -0.3014
  637MOL0     C85876   6.634   4.450   1.772  0.4152  0.1601  0.3762
  637MOL0     N85877   6.528   4.368   1.713 -0.1080 -1.1185  0.3571
  637MOL0     C85878   6.482   4.394   1.584 -1.4536  0.2695 -0.5063
  637MOL0     C85879   6.398   4.292   1.554  0.6334  0.2581  0.3782
  637MOL0     C85880   6.330   4.268   1.423  0.9277  0.1793 -0.1369
  637MOL0     C85881   6.262   4.396   1.362 -0.8611  0.2721  0.6126
  637MOL0     C85882   6.179   4.333   1.252  0.5008 -0.3656  0.6511
  637MOL0     C85883   6.110   4.434   1.160  0.5600  0.0474 -0.1509
  637MOL0     O85884   5.984   4.467   1.218 -0.4279 -0.0566  0.5620
  637MOL0     C85885   5.880   4.507   1.131 -0.5583 -0.4771 -0.2503
  637MOL0     C85886   5.884   4.528   0.987  0.7256 -0.6985 -0.6173
  637MOL0     C85887   5.758   4.573   0.933  0.1279 -0.3664 -0.0103
  637MOL0     C85888   5.778   4.593   0.782 -0.5746 -0.5813 -0.1762
  637MOL0     C85889   5.644   4.606   1.002  0.3420 -0.1286 -0.5257
  637MOL0     C85890   5.517   4.635   0.932 -0.8730  0.6421 -0.0099
  637MOL0     O85891   5.443   4.739   0.969  0.1978  0.4262  0.2528
  637MOL0     C85892   5.312   4.759   0.933  0.1985 -0.0873  0.2117
  637MOL0     C85893   5.240   4.852   1.006 -0.1673 -0.6317  0.7131
  637MOL0     C85894   5.113   4.897   0.973 -0.7688 -0.2226  0.4493
  637MOL0     C85895   5.042   4.833   0.866 -0.1129 -0.3484  0.3415
  637MOL0     O85896   4.913   4.876   0.856 -0.2757 -0.1716 -0.7217
  637MOL0     C85897   4.823   4.813   0.760  0.5692  0.5499 -0.3745
  637MOL0     C85898   4.683   4.870   0.762 -0.7478  0.0070  0.1963
  637MOL0     C85899   4.671   4.986   0.661 -0.5145 -0.2927 -0.0006
  637MOL0     C85900   4.664   4.928   0.518  0.0316  0.3380 -0.2130
  637MOL0     C85901   4.643   5.041   0.418 -0.4140 -0.4717 -0.3874
  637MOL0     C85902   4.505   5.119   0.423  0.7308 -0.4999  0.2754
  637MOL0     C85903   4.385   5.029   0.394  0.4627  0.0619 -0.0228
  637MOL0     C85904   4.260   5.110   0.367 -0.3335  0.6551  0.4602
  637MOL0    Cl85905   4.241   5.242   0.487  0.3343 -0.4295 -0.1562
  637MOL0     C85906   5.108   4.730   0.795  0.2723 -0.1974  0.0307
  637MOL0     C85907   5.245   4.701   0.822  0.1431 -0.9132 -0.6960
  637MOL0     O85908   5.481   4.544   0.858  0.0085 -0.3323 -0.0153
  637MOL0     C85909   5.647   4.580   1.145 -0.1065 -0.6013  0.4424
  637MOL0     C85910   5.761   4.530   1.207  0.1085 -0.9048  0.3936
  637MOL0     N85911   6.394   4.212   1.658  0.3837  0.2534 -0.4561
  637MOL0     N85912   6.483   4.243   1.748  0.6537 -0.1943 -0.6017
  637MOL0     C85913   7.532   4.324   2.142  1.0146 -0.2943 -0.5740
  637MOL0     C85914   7.644   4.253   2.175 -0.2520 -0.0176 -0.6355
  637MOL0     C85915   7.954   4.072   2.483 -0.5869  0.5168 -0.4177
  637MOL0     C85916   7.960   3.995   2.598 -0.8471  0.8546  1.3118
  637MOL0     C85917   8.077   3.928   2.638 -0.8340 -0.3802  0.6673
  637MOL0     C85918   8.199   3.944   2.569  0.2376 -0.1456 -1.1201
  637MOL0     O85919   8.308   3.882   2.631  0.3575 -0.2500 -0.2703
  637MOL0     C85920   8.436   3.869   2.568 -0.0389  0.3032  0.2196
  637MOL0     C85921   8.438   3.725   2.501 -0.1323  0.1027 -1.0716
  637MOL0     C85922   8.590   3.700   2.477 -0.7750  0.6974  0.1946
  637MOL0     C85923   8.625   3.556   2.420  0.2859  0.6603 -0.0262
  637MOL0     C85924   8.776   3.543   2.417  1.0969 -0.4366  0.3301
  637MOL0     C85925   8.898   3.530   2.432 -0.4296 -0.2322 -0.1151
  637MOL0     C85926   8.189   4.004   2.450 -0.3348 -0.4780  0.5189
  637MOL0     C85927   8.067   4.064   2.400  0.0877 -0.1200  0.7372
  637MOL0     H85928   7.726   4.427   2.454 -2.8506 -1.8921  1.9577
  637MOL0     H85929   7.568   4.575   2.368  1.9038  0.5022 -0.9958
  637MOL0     H85930   7.265   4.362   2.125 -0.7170 -0.1713 -1.1178
  637MOL0     H85931   7.188   4.523   2.149 -1.2007 -0.7766 -0.6864
  637MOL0     H85932   7.300   4.607   1.947 -0.0771  0.8003  2.9352
  637MOL0     H85933   7.368   4.445   1.923  0.7114  0.4609  1.1655
  637MOL0     H85934   7.172   4.338   1.879  1.2238  0.7785 -2.7274
  637MOL0     H85935   7.062   4.442   1.953 -1.1792 -0.4856  0.7897
  637MOL0     H85936   7.140   4.616   1.772  2.8033 -0.7379  0.7051
  637MOL0     H85937   7.203   4.470   1.685  0.4384 -1.2930  0.6623
  637MOL0     H85938   6.995   4.500   1.591  1.1878 -0.0149  0.2753
  637MOL0     H85939   7.000   4.353   1.688 -0.3098  0.1739 -2.1452
  637MOL0     H85940   6.880   4.488   1.877 -1.5105 -0.4912  0.9911
  637MOL0     H85941   6.854   4.610   1.747  2.1810 -0.2793  0.1632
  637MOL0     H85942   6.766   4.434   1.601  0.4262 -2.5847 -0.7758
  637MOL0     H85943   6.783   4.313   1.725 -1.9180  0.1774 -0.2319
  637MOL0     H85944   6.616   4.553   1.737 -0.8988 -0.7379 -1.8262
  637MOL0     H85945   6.647   4.455   1.880 -0.1537  0.4289  0.4397
  637MOL0     H85946   6.511   4.477   1.522 -4.1356  0.4816 -1.5912
  637MOL0     H85947   6.418   4.238   1.366  2.8260  0.2559  2.5944
  637MOL0     H85948   6.251   4.194   1.437 -2.2005  3.5258  1.6511
  637MOL0     H85949   6.340   4.467   1.334  1.9164 -2.8962 -0.3405
  637MOL0     H85950   6.194   4.446   1.431  0.0631  1.1187  0.9274
  637MOL0     H85951   6.097   4.274   1.295 -1.4080  1.7179  0.0958
  637MOL0     H85952   6.236   4.263   1.192 -1.1164 -0.8594 -0.3838
  637MOL0     H85953   6.100   4.380   1.065  0.8723  2.1356 -1.4668
  637MOL0     H85954   6.175   4.518   1.133  1.3991 -1.0065 -1.6035
  637MOL0     H85955   5.969   4.510   0.922  0.6848  0.7415 -1.1013
  637MOL0     H85956   5.714   4.671   0.740  2.4002  2.7095  0.9202
  637MOL0     H85957   5.877   4.628   0.752 -0.4459 -0.1646  0.6939
  637MOL0     H85958   5.760   4.496   0.735  1.1178 -0.6270 -0.7939
  637MOL0     H85959   5.285   4.895   1.095 -0.6288  0.5792  0.3802
  637MOL0     H85960   5.064   4.978   1.024  0.6688  1.0844 -0.1790
  637MOL0     H85961   4.865   4.822   0.660 -2.5687 -0.4271 -1.9009
  637MOL0     H85962   4.819   4.706   0.780  0.1890  0.5951 -0.2038
  637MOL0     H85963   4.610   4.790   0.743 -0.8808 -0.0487  0.9278
  637MOL0     H85964   4.663   4.907   0.863 -0.1030 -2.2277  1.2050
  637MOL0     H85965   4.756   5.054   0.667 -1.4919  1.2881 -2.5079
  637MOL0     H85966   4.571   5.028   0.674 -1.3426 -1.2060 -2.7009
  637MOL0     H85967   4.757   4.871   0.502 -1.9383 -3.4304  0.4950
  637MOL0     H85968   4.591   4.847   0.503 -0.9228  1.6546 -3.6391
  637MOL0     H85969   4.651   4.995   0.319  2.0314 -0.3028 -0.3296
  637MOL0     H85970   4.722   5.114   0.435 -0.4734 -0.5179  0.1088
  637MOL0     H85971   4.479   5.160   0.521 -0.7579 -1.8275  0.4852
  637MOL0     H85972   4.515   5.198   0.348 -0.1429 -1.2156 -0.6177
  637MOL0     H85973   4.378   4.959   0.477 -0.0507 -1.7407 -1.5329
  637MOL0     H85974   4.407   4.962   0.311  0.1292  2.2104 -1.9668
  637MOL0     H85975   4.171   5.048   0.359  0.5502 -0.5762 -0.1042
  637MOL0     H85976   4.280   5.141   0.264  1.9623  0.9069  0.9223
  637MOL0     H85977   5.066   4.694   0.701 -0.1750  3.8229 -1.4984
  637MOL0     H85978   5.289   4.627   0.756  3.9342  1.3093 -0.9449
  637MOL0     H85979   5.554   4.584   1.201  0.9442  1.9692  2.2328
  637MOL0     H85980   5.762   4.512   1.314 -0.3525  4.1865  1.5310
  637MOL0     H85981   7.465   4.292   2.062  0.1297  0.4264 -0.1489
  637MOL0     H85982   7.681   4.172   2.114  0.5231 -0.7074  0.7011
  637MOL0     H85983   7.872   3.970   2.657 -0.1347 -1.4545  1.5260
  637MOL0     H85984   8.092   3.872   2.729 -0.0308 -0.8803  0.2409
  637MOL0     H85985   8.460   3.939   2.488  1.2300 -2.6769 -2.1820
  637MOL0     H85986   8.510   3.888   2.646  0.3699  2.3817 -0.6176
  637MOL0     H85987   8.366   3.718   2.420 -3.7479  2.1783  1.7061
  637MOL0     H85988   8.413   3.644   2.571  0.9021  0.8366  0.1947
  637MOL0     H85989   8.637   3.724   2.573  1.8641  1.3327 -1.1631
  637MOL0     H85990   8.639   3.770   2.408  2.4146 -0.9727  0.5754
  637MOL0     H85991   8.589   3.546   2.317  2.7059 -0.5567 -0.8259
  637MOL0     H85992   8.585   3.481   2.488  1.2432 -0.0754 -0.2612
  637MOL0     H85993   9.003   3.524   2.450 -0.5773 -2.6016  0.3049
  637MOL0     H85994   8.280   4.010   2.390 -1.1850 -0.6876 -0.8187
  637MOL0     H85995   8.061   4.097   2.297  0.3848 -1.9326  0.1050
  638MOL0     O85996   3.145   6.013   6.484 -0.4888  0.6251 -0.3885
  638MOL0     C85997   3.169   5.950   6.593  0.1727  0.6634  1.0079
  638MOL0     O85998   3.096   5.854   6.650 -0.0132  0.5397 -0.3691
  638MOL0     C85999   2.981   5.807   6.593  0.2398 -0.2647  1.2417
  638MOL0     C86000   2.977   5.775   6.457 -0.9201  0.2294  0.2433
  638MOL0     C86001   2.866   5.718   6.398 -0.7643 -0.3993 -0.6884
  638MOL0     C86002   2.747   5.702   6.477  0.3906 -1.0092  1.0444
  638MOL0     O86003   2.628   5.663   6.422  0.4118  0.2061  0.0100
  638MOL0     C86004   2.626   5.610   6.293 -0.6985  0.2986  0.7860
  638MOL0     C86005   2.497   5.524   6.249  0.1477 -0.1588 -0.4370
  638MOL0     C86006   2.370   5.610   6.252  0.6964 -1.2589 -0.3547
  638MOL0     C86007   2.244   5.536   6.217  0.2726  0.3451  0.2963
  638MOL0     C86008   2.128   5.635   6.247  0.8702  0.7440 -0.2269
  638MOL0     C86009   2.135   5.767   6.180  0.8392 -0.0133  0.2677
  638MOL0     C86010   2.004   5.841   6.186 -1.6914  0.2040  0.2225
  638MOL0     C86011   2.016   5.994   6.201 -0.5418 -0.1758  0.6974
  638MOL0     N86012   2.089   6.055   6.091  0.2477  0.4108  0.2618
  638MOL0     C86013   2.212   6.100   6.099 -0.8286 -0.7827 -0.6080
  638MOL0     C86014   2.243   6.136   5.974  0.1088  0.8585  0.3742
  638MOL0     C86015   2.360   6.207   5.908  0.7215  0.7162 -0.1660
  638MOL0     C86016   2.359   6.360   5.928  0.0743 -0.7861 -0.4345
  638MOL0     C86017   2.376   6.400   6.080 -1.3182 -1.0487  0.4397
  638MOL0     C86018   2.522   6.370   6.128 -0.0378 -0.3919 -0.0493
  638MOL0     O86019   2.602   6.493   6.129 -0.2680 -0.3079  0.5867
  638MOL0     C86020   2.722   6.512   6.201 -0.7361  0.1850  0.5929
  638MOL0     C86021   2.789   6.395   6.238 -0.8330  0.7257 -0.3503
  638MOL0     C86022   2.921   6.397   6.275  0.2955  0.1530 -0.9603
  638MOL0     C86023   2.979   6.256   6.312 -0.2593 -0.8807 -0.0189
  638MOL0     C86024   2.986   6.524   6.285  0.2001 -0.5403  0.5613
  638MOL0     C86025   3.132   6.534   6.324 -0.8351  0.4103  0.2025
  638MOL0     O86026   3.169   6.453   6.430 -0.3854 -0.4857 -0.3385
  638MOL0     C86027   3.305   6.429   6.444 -0.9036  0.4930  0.6661
  638MOL0     C86028   3.384   6.500   6.526 -0.7304  0.0817  0.3465
  638MOL0     C86029   3.526   6.492   6.514  0.5298 -0.4257 -0.7426
  638MOL0     C86030   3.596   6.395   6.438  1.0657 -0.5921  0.1424
  638MOL0     O86031   3.730   6.365   6.430  1.2130 -1.1760 -0.3966
  638MOL0     C86032   3.815   6.462   6.497 -1.0205 -0.0244 -0.1958
  638MOL0     C86033   3.960   6.460   6.453  0.2526 -0.8109  0.9330
  638MOL0     C86034   3.977   6.412   6.308 -1.1025  0.6917 -0.4949
  638MOL0     C86035   4.119   6.432   6.275 -0.7038  0.0717 -0.4814
  638MOL0     C86036   4.156   6.362   6.140  0.1582  0.3584  0.0912
  638MOL0     C86037   4.311   6.372   6.096 -0.6235 -0.9158 -0.1935
  638MOL0     C86038   4.400   6.288   6.191  0.5769  0.6584  1.1357
  638MOL0     C86039   4.544   6.288   6.157  0.0506  0.9617  0.1380
  638MOL0    Cl86040   4.573   6.169   6.023  0.3332  0.1913  0.2254
  638MOL0     C86041   3.511   6.323   6.355  0.6466  0.2081 -0.3534
  638MOL0     C86042   3.375   6.341   6.354  0.0694  0.0453  0.4826
  638MOL0     O86043   3.204   6.625   6.283  0.4470  0.4338  0.2183
  638MOL0     C86044   2.924   6.644   6.256  1.1708  0.4173  0.1868
  638MOL0     C86045   2.787   6.632   6.210 -0.6399 -0.4452 -0.7634
  638MOL0     N86046   2.130   6.135   5.899  0.6041  0.4468 -0.6362
  638MOL0     N86047   2.037   6.075   5.968  0.2562 -0.3972 -0.0037
  638MOL0     C86048   2.744   5.735   6.613  0.1513  0.2931  0.8846
  638MOL0     C86049   2.861   5.795   6.663  0.1894 -0.4209  0.0236
  638MOL0     C86050   3.290   5.991   6.671 -0.6722  0.4768 -0.3563
  638MOL0     C86051   3.389   6.080   6.623  0.0035 -0.2135 -0.2282
  638MOL0     C86052   3.501   6.115   6.711 -0.3570  0.6995  0.2625
  638MOL0     C86053   3.515   6.070   6.843 -0.8690  0.0817 -0.0539
  638MOL0     O86054   3.625   6.120   6.914  0.1898 -0.4761  0.4214
  638MOL0     C86055   3.599   6.178   7.048 -0.7935  0.2625 -0.0672
  638MOL0     C86056   3.693   6.293   7.066  0.0128  0.5705 -0.4809
  638MOL0     C86057   3.650   6.412   6.984 -0.3230 -0.0103  0.4902
  638MOL0     C86058   3.755   6.529   7.013  0.8226 -0.0382  0.3106
  638MOL0     C86059   3.897   6.511   6.977  0.2034  0.4306  0.4798
  638MOL0     C86060   4.013   6.500   6.933 -0.8047  0.3515 -0.1752
  638MOL0     C86061   3.416   5.983   6.887 -0.1428  0.3513  0.4728
  638MOL0     C86062   3.314   5.941   6.803 -0.1770 -0.2332 -0.2503
  638MOL0     H86063   3.064   5.776   6.392 -0.3221 -1.4868  0.9505
  638MOL0     H86064   2.868   5.686   6.295  0.3196 -0.6898 -0.5967
  638MOL0     H86065   2.625   5.693   6.223 -0.5592 -0.0698  0.3398
  638MOL0     H86066   2.712   5.544   6.279 -1.0355  0.2894 -1.6581
  638MOL0     H86067   2.492   5.491   6.145 -1.4476 -2.2034  0.2281
  638MOL0     H86068   2.484   5.443   6.321 -1.2492  0.6509  0.2555
  638MOL0     H86069   2.360   5.646   6.355 -1.5740  0.7190 -1.1639
  638MOL0     H86070   2.381   5.700   6.190 -1.3071  0.5578  1.7419
  638MOL0     H86071   2.247   5.512   6.110  2.6149 -0.1423  0.4081
  638MOL0     H86072   2.226   5.442   6.269  0.5570 -1.5626 -2.8054
  638MOL0     H86073   2.043   5.577   6.212  2.5192 -2.0545  0.1015
  638MOL0     H86074   2.112   5.652   6.354 -0.7030  2.5208 -0.7012
  638MOL0     H86075   2.203   5.825   6.244 -1.1538 -0.2350  2.7311
  638MOL0     H86076   2.156   5.758   6.073 -1.6956 -0.1233 -0.2906
  638MOL0     H86077   1.947   5.808   6.099 -1.2231 -1.6298  0.5775
  638MOL0     H86078   1.953   5.802   6.275 -1.8096 -2.6807 -1.0192
  638MOL0     H86079   2.067   6.009   6.297  0.3466  3.1078 -0.1781
  638MOL0     H86080   1.914   6.031   6.211 -0.2538  0.0021  4.3903
  638MOL0     H86081   2.281   6.098   6.183 -0.5967  1.6893 -0.6608
  638MOL0     H86082   2.441   6.156   5.961  0.5032 -0.9472 -1.3524
  638MOL0     H86083   2.363   6.186   5.800 -2.5369 -1.3544  0.0002
  638MOL0     H86084   2.264   6.401   5.892 -0.7488  0.3468  2.6854
  638MOL0     H86085   2.438   6.403   5.867  1.2026  0.0490  1.5122
  638MOL0     H86086   2.308   6.348   6.148 -2.2044 -1.4379 -0.7151
  638MOL0     H86087   2.352   6.507   6.084  2.4150  0.1308 -2.2813
  638MOL0     H86088   2.566   6.292   6.065  0.0411 -0.7918  0.4927
  638MOL0     H86089   2.525   6.332   6.230 -0.2014  0.4802  0.2896
  638MOL0     H86090   2.741   6.299   6.222  1.2719 -0.3647 -0.4179
  638MOL0     H86091   2.923   6.169   6.278 -2.1625 -1.1692  3.3374
  638MOL0     H86092   3.077   6.256   6.264  0.9319  2.8759  1.9393
  638MOL0     H86093   3.004   6.253   6.419  2.1411  0.5518 -0.4666
  638MOL0     H86094   3.340   6.582   6.581  2.5214  0.3439  2.8204
  638MOL0     H86095   3.584   6.555   6.581 -0.0708  0.6722 -1.2444
  638MOL0     H86096   3.783   6.564   6.474 -1.4004 -0.2747 -0.7787
  638MOL0     H86097   3.813   6.445   6.605 -2.1099  2.6997  0.2992
  638MOL0     H86098   4.002   6.560   6.463  0.3147 -0.6117 -1.0754
  638MOL0     H86099   4.026   6.396   6.513  0.3195 -1.6341  0.0102
  638MOL0     H86100   3.912   6.472   6.244 -3.5452  0.1900  1.3940
  638MOL0     H86101   3.945   6.309   6.291 -0.0016  0.2089  0.1743
  638MOL0     H86102   4.141   6.539   6.274  1.2572 -0.1551  2.7911
  638MOL0     H86103   4.196   6.393   6.342 -0.5647  1.5311  0.2438
  638MOL0     H86104   4.105   6.423   6.065  0.5651  2.4293  1.4375
  638MOL0     H86105   4.122   6.258   6.136  0.7829  0.1793 -1.4614
  638MOL0     H86106   4.334   6.351   5.991  0.8374  0.1390 -0.1193
  638MOL0     H86107   4.346   6.475   6.106 -2.2100 -0.4444  0.8292
  638MOL0     H86108   4.362   6.185   6.192  3.2007 -0.3919  2.5314
  638MOL0     H86109   4.375   6.326   6.290 -1.3345 -1.7423  1.6743
  638MOL0     H86110   4.606   6.247   6.238 -1.9640 -0.3543  1.0808
  638MOL0     H86111   4.579   6.391   6.145  0.9805  0.6091 -0.2772
  638MOL0     H86112   3.560   6.244   6.299 -1.4041 -1.1756 -0.2955
  638MOL0     H86113   3.327   6.282   6.277  1.7324  1.4955 -1.7781
  638MOL0     H86114   2.974   6.741   6.261  1.5415  0.1936  0.9564
  638MOL0     H86115   2.735   6.721   6.175  0.8011  1.0943  0.7927
  638MOL0     H86116   2.660   5.730   6.682  0.2667  0.4830  1.0384
  638MOL0     H86117   2.873   5.832   6.764  0.1417 -0.1365 -0.0716
  638MOL0     H86118   3.398   6.112   6.520 -2.3196 -0.5228 -0.5742
  638MOL0     H86119   3.578   6.178   6.668  0.0857 -0.7467 -1.1701
  638MOL0     H86120   3.495   6.211   7.040 -0.7114  0.0114 -3.1616
  638MOL0     H86121   3.618   6.103   7.126 -0.3745  1.2222  0.7822
  638MOL0     H86122   3.789   6.256   7.028  0.5543 -0.9116  2.1293
  638MOL0     H86123   3.691   6.328   7.170 -0.6897  0.0958 -0.3324
  638MOL0     H86124   3.548   6.444   7.006  0.1214  1.6855  0.1787
  638MOL0     H86125   3.655   6.397   6.876  3.1019  0.2534  0.5229
  638MOL0     H86126   3.742   6.573   7.113 -2.0649  2.0045 -0.8139
  638MOL0     H86127   3.715   6.611   6.953  2.0999  0.5504  0.2192
  638MOL0     H86128   4.114   6.483   6.902 -0.1359  1.4785  1.2261
  638MOL0     H86129   3.420   5.937   6.985  0.5012 -1.9389 -0.5781
  638MOL0     H86130   3.254   5.855   6.833  3.3619 -2.1652  1.9277
  639MOL0     O86131   6.337  11.078   8.794  0.2784 -0.3652  0.1634
  639MOL0     C86132   6.258  11.020   8.724 -0.3667 -0.3839  0.1153
  639MOL0     O86133   6.122  11.019   8.729 -0.7892  0.4669  0.1103
  639MOL0     C86134   6.055  11.106   8.814  0.0766  0.3137 -0.0620
  639MOL0     C86135   5.934  11.066   8.868  0.3704  0.4702 -0.5202
  639MOL0     C86136   5.840  11.158   8.928  0.0270  0.4470 -0.5572
  639MOL0     C86137   5.872  11.290   8.937 -0.5303 -0.1696  0.1377
  639MOL0     O86138   5.796  11.386   8.983  0.2490  0.2375  0.0934
  639MOL0     C86139   5.672  11.357   9.047 -0.5068 -0.4005 -0.0032
  639MOL0     C86140   5.626  11.483   9.128 -0.3106  0.5141 -0.6428
  639MOL0     C86141   5.530  11.444   9.236  0.3238 -0.8349 -0.1734
  639MOL0     C86142   5.435  11.564   9.262 -0.1069  0.6530  0.6353
  639MOL0     C86143   5.284  11.529   9.249  0.2498 -0.5936  0.3023
  639MOL0     C86144   5.231  11.467   9.385 -0.6390 -0.2595 -0.2640
  639MOL0     C86145   5.081  11.446   9.382 -0.1167 -1.2387 -0.4099
  639MOL0     C86146   5.010  11.470   9.510  0.2476  0.2192  0.4241
  639MOL0     N86147   4.866  11.462   9.486 -0.2780 -0.3172 -0.1630
  639MOL0     C86148   4.790  11.345   9.479 -0.6604 -1.0393  0.4143
  639MOL0     C86149   4.660  11.388   9.469 -0.9657 -0.2349  0.0654
  639MOL0     C86150   4.553  11.296   9.489  0.4335 -0.1270 -0.2641
  639MOL0     C86151   4.457  11.357   9.594  0.3421  0.8225 -0.1244
  639MOL0     C86152   4.355  11.251   9.651 -0.6138  0.0231  0.1257
  639MOL0     C86153   4.236  11.210   9.557  0.3045 -0.3106  0.2605
  639MOL0     O86154   4.120  11.279   9.615  0.0953 -0.5788 -0.1705
  639MOL0     C86155   4.027  11.208   9.694 -0.4073 -0.5212  0.4949
  639MOL0     C86156   4.060  11.117   9.797 -0.8083 -0.1886 -0.8841
  639MOL0     C86157   3.969  11.056   9.880  0.3596  0.6316 -0.4232
  639MOL0     C86158   4.033  10.966   9.999  0.2500 -0.2651 -0.3139
  639MOL0     C86159   3.830  11.077   9.861  0.2044  0.7181  0.6026
  639MOL0     C86160   3.718  11.026   9.943 -0.0041 -0.3706  0.6288
  639MOL0     O86161   3.591  11.054   9.890 -0.7643  0.1421  0.6686
  639MOL0     C86162   3.478  10.995   9.932 -0.1123 -0.2795  0.6143
  639MOL0     C86163   3.353  11.050   9.924 -0.4709  0.1615 -0.3239
  639MOL0     C86164   3.234  10.980   9.932 -0.3917 -0.4795 -0.1292
  639MOL0     C86165   3.234  10.847   9.965 -1.1147  0.2645 -0.1366
  639MOL0     O86166   3.104  10.791   9.972 -0.1775  0.2530  0.6672
  639MOL0     C86167   3.104  10.659  10.024  0.2113  1.0893 -0.0895
  639MOL0     C86168   2.961  10.596  10.015  0.6951  1.2034 -0.3890
  639MOL0     C86169   2.968  10.447   9.984  0.0623 -0.1204  0.5380
  639MOL0     C86170   2.832  10.391   9.930  0.0257 -0.0908  0.2767
  639MOL0     C86171   2.838  10.238   9.959  0.3700  0.1285  0.5804
  639MOL0     C86172   2.723  10.149   9.898  0.0078 -0.2290 -0.0882
  639MOL0     C86173   2.723  10.144   9.744  0.2428  0.2844 -0.5032
  639MOL0     C86174   2.595  10.085   9.697  0.8874 -0.1551 -0.2745
  639MOL0    Cl86175   2.592   9.911   9.738  0.0131  0.5442 -0.2541
  639MOL0     C86176   3.363  10.782   9.986 -1.1160  0.5466 -1.0620
  639MOL0     C86177   3.475  10.856   9.968 -0.0322  0.2574  0.0587
  639MOL0     O86178   3.744  10.964  10.043 -0.2441  0.0105 -0.2501
  639MOL0     C86179   3.794  11.162   9.753  0.6006 -0.4901  0.4030
  639MOL0     C86180   3.890  11.236   9.678 -0.2074  0.3365  0.2352
  639MOL0     N86181   4.667  11.530   9.454 -0.4256  0.8342  0.4210
  639MOL0     N86182   4.794  11.567   9.467 -0.0897  0.1695 -0.4358
  639MOL0     C86183   6.006  11.330   8.909  0.7147  0.3587 -0.5008
  639MOL0     C86184   6.093  11.239   8.840 -0.3616  0.2513  0.0824
  639MOL0     C86185   6.312  10.924   8.623 -0.2033 -1.1793 -0.5405
  639MOL0     C86186   6.447  10.882   8.636 -0.8600  0.5387 -0.2931
  639MOL0     C86187   6.499  10.789   8.547  0.4567  0.0979  0.5734
  639MOL0     C86188   6.418  10.734   8.447 -0.7643 -0.3686  0.1701
  639MOL0     O86189   6.472  10.639   8.365 -0.0107  0.0122 -0.2129
  639MOL0     C86190   6.405  10.602   8.246 -0.2598 -0.4909  0.2376
  639MOL0     C86191   6.490  10.520   8.159 -0.9436  0.1058  0.1894
  639MOL0     C86192   6.424  10.430   8.058  0.6342 -0.1931  0.1811
  639MOL0     C86193   6.516  10.382   7.942  0.6966  0.0505 -0.3616
  639MOL0     C86194   6.630  10.293   7.982  0.7121 -1.0584 -0.1634
  639MOL0     C86195   6.734  10.246   8.027 -0.1698 -0.0540  0.3688
  639MOL0     C86196   6.288  10.786   8.427  0.3524  0.4382 -0.0324
  639MOL0     C86197   6.238  10.880   8.518  0.6271 -0.2370 -0.9401
  639MOL0     H86198   5.895  10.966   8.851 -1.2290  0.6084  1.8628
  639MOL0     H86199   5.744  11.120   8.962  0.8187 -1.5505 -0.3653
  639MOL0     H86200   5.599  11.319   8.976 -1.0206 -0.5076  0.5788
  639MOL0     H86201   5.693  11.289   9.131 -2.2935  0.2797  1.0459
  639MOL0     H86202   5.712  11.536   9.169  0.3772  0.0526 -1.4525
  639MOL0     H86203   5.582  11.543   9.048 -4.9482 -1.4709  0.0896
  639MOL0     H86204   5.465  11.358   9.213  0.8713 -1.5704  0.9529
  639MOL0     H86205   5.583  11.443   9.332  0.4897  2.9845 -0.0629
  639MOL0     H86206   5.456  11.623   9.352 -2.3886 -0.0772  1.7174
  639MOL0     H86207   5.456  11.627   9.176  4.4888 -1.6551 -0.2373
  639MOL0     H86208   5.241  11.629   9.232  2.6163  0.2935 -0.8111
  639MOL0     H86209   5.261  11.476   9.156  3.0722 -1.8093  0.2119
  639MOL0     H86210   5.274  11.372   9.417 -0.8596 -0.5922 -0.9461
  639MOL0     H86211   5.260  11.534   9.467 -0.9028  0.8380 -1.0513
  639MOL0     H86212   5.039  11.514   9.307  1.2374  0.3307  0.1795
  639MOL0     H86213   5.061  11.345   9.346 -0.2771 -1.0662 -0.8154
  639MOL0     H86214   5.037  11.566   9.556  1.1378  1.6210 -2.7405
  639MOL0     H86215   5.036  11.390   9.580 -0.3883  0.9641  1.5511
  639MOL0     H86216   4.835  11.248   9.499  2.1067  0.1232  0.2478
  639MOL0     H86217   4.502  11.273   9.395 -1.3159  3.2111 -0.2747
  639MOL0     H86218   4.583  11.204   9.541  0.3578 -0.9858 -1.6894
  639MOL0     H86219   4.402  11.443   9.555 -1.4226 -0.2690 -0.1528
  639MOL0     H86220   4.518  11.392   9.679  0.4408  2.1598 -0.7159
  639MOL0     H86221   4.326  11.261   9.756  1.5941 -1.8652  1.0094
  639MOL0     H86222   4.418  11.161   9.653 -3.4104 -2.0646 -0.2772
  639MOL0     H86223   4.223  11.102   9.558  0.3122 -0.3506 -1.6464
  639MOL0     H86224   4.247  11.244   9.454 -2.6940  1.0878  0.2900
  639MOL0     H86225   4.166  11.101   9.811 -0.6208  1.8408  0.5034
  639MOL0     H86226   3.976  10.873  10.006  0.6056 -0.5418 -0.9877
  639MOL0     H86227   4.138  10.942   9.979 -0.2828 -0.8100 -2.7357
  639MOL0     H86228   4.021  11.020  10.094  1.6643  2.6211 -1.6365
  639MOL0     H86229   3.332  11.153   9.900 -0.8704  0.1750  0.0696
  639MOL0     H86230   3.138  11.031   9.928  0.0024  0.9468  3.7490
  639MOL0     H86231   3.173  10.588   9.977 -0.2700  0.5363  0.0287
  639MOL0     H86232   3.132  10.645  10.129  0.7749 -5.3082 -0.7293
  639MOL0     H86233   2.913  10.606  10.113  0.1902  0.3584 -0.5396
  639MOL0     H86234   2.891  10.649   9.950 -1.9030  0.3865  1.5476
  639MOL0     H86235   3.012  10.382  10.061 -0.1976 -2.0018 -0.8514
  639MOL0     H86236   3.034  10.430   9.899  0.2787 -2.2631  1.0657
  639MOL0     H86237   2.761  10.431  10.002  2.6448  3.0422  1.3262
  639MOL0     H86238   2.801  10.413   9.827 -1.6576 -3.1982 -0.0347
  639MOL0     H86239   2.832  10.217  10.066  0.7081  1.5397  0.8963
  639MOL0     H86240   2.936  10.200   9.928 -1.3707 -3.7829 -0.6948
  639MOL0     H86241   2.733  10.047   9.935 -1.6568 -0.6389 -0.6868
  639MOL0     H86242   2.628  10.190   9.933  0.0440  0.2764 -0.5565
  639MOL0     H86243   2.806  10.074   9.723 -0.7073 -1.1436  0.3550
  639MOL0     H86244   2.730  10.245   9.703 -1.3150  0.5069 -0.2500
  639MOL0     H86245   2.584  10.096   9.589  3.3094 -0.0743 -0.5754
  639MOL0     H86246   2.511  10.139   9.741 -0.9876 -1.7169 -1.7482
  639MOL0     H86247   3.368  10.676  10.008 -2.1736  0.5954 -0.5242
  639MOL0     H86248   3.571  10.807   9.978  0.9347  2.3235  1.7693
  639MOL0     H86249   3.690  11.190   9.739  0.2646 -0.9772  1.7126
  639MOL0     H86250   3.858  11.303   9.599 -1.8093  0.8944  1.3175
  639MOL0     H86251   6.037  11.434   8.919 -1.2229  0.7511  2.3296
  639MOL0     H86252   6.185  11.281   8.800 -1.1138  1.5737 -0.2922
  639MOL0     H86253   6.507  10.924   8.716 -1.4515 -1.5018  1.2918
  639MOL0     H86254   6.602  10.756   8.543  0.9790  1.5808  1.2803
  639MOL0     H86255   6.334  10.524   8.272  0.6864 -0.5804  2.8226
  639MOL0     H86256   6.357  10.685   8.192  0.3191  1.6828  2.8291
  639MOL0     H86257   6.549  10.452   8.221 -1.3112  0.5416  1.0350
  639MOL0     H86258   6.562  10.591   8.119 -2.1668  2.3582  1.7594
  639MOL0     H86259   6.342  10.482   8.008 -1.3160 -2.5061  0.7847
  639MOL0     H86260   6.384  10.342   8.108 -0.5009  1.4650  2.3328
  639MOL0     H86261   6.565  10.465   7.890 -2.3495  1.7280 -0.7625
  639MOL0     H86262   6.457  10.319   7.874 -1.4491  3.3878 -1.8514
  639MOL0     H86263   6.825  10.217   8.075 -1.3421 -0.6049  2.4013
  639MOL0     H86264   6.232  10.771   8.335 -1.6191  2.8052  0.6867
  639MOL0     H86265   6.135  10.911   8.502 -0.2356 -1.7696  1.1100
  640MOL0     O86266   8.964   2.237   9.477  0.6086 -0.6721  0.0735
  640MOL0     C86267   9.043   2.237   9.565 -0.7819 -0.0329 -0.2265
  640MOL0     O86268   9.020   2.241   9.699  0.7877 -0.0136  0.0765
  640MOL0     C86269   8.880   2.242   9.731  0.0182 -0.2677 -0.4685
  640MOL0     C86270   8.820   2.368   9.773 -0.3033  0.7606 -0.1799
  640MOL0     C86271   8.679   2.370   9.811 -0.5576  0.4426  0.2363
  640MOL0     C86272   8.603   2.253   9.791 -1.8840  1.2394 -0.1821
  640MOL0     O86273   8.476   2.247   9.846 -0.5110  0.0444  0.4810
  640MOL0     C86274   8.459   2.155   9.959 -0.0389 -0.0752 -0.3273
  640MOL0     C86275   8.328   2.097   9.945  0.0647 -0.4845 -0.1434
  640MOL0     C86276   8.308   2.006  10.078  0.0349  0.4101  0.2369
  640MOL0     C86277   8.177   1.933  10.081  0.4517  0.2240  0.0037
  640MOL0     C86278   8.047   2.016  10.073 -0.4226  0.6232  0.6757
  640MOL0     C86279   7.915   1.948  10.032 -0.0076 -0.2393 -0.6569
  640MOL0     C86280   7.808   2.054  10.055 -0.1894  0.2186 -1.0081
  640MOL0     C86281   7.668   2.031  10.005 -0.5104 -1.5268  0.5085
  640MOL0     N86282   7.575   2.141  10.024 -0.2607 -0.4397 -0.6021
  640MOL0     C86283   7.474   2.156  10.116  0.8090  0.8913 -1.4286
  640MOL0     C86284   7.441   2.286  10.103  0.0360 -0.3079 -0.3204
  640MOL0     C86285   7.331   2.358  10.181  0.8207  0.6800 -0.5098
  640MOL0     C86286   7.392   2.454  10.287  1.0098  0.6619  0.5393
  640MOL0     C86287   7.277   2.551  10.337 -0.2589 -0.6352  0.3338
  640MOL0     C86288   7.128   2.489  10.354 -0.8774  0.0319  0.1877
  640MOL0     O86289   7.030   2.596  10.369  0.4420 -0.6931 -0.2078
  640MOL0     C86290   6.935   2.567  10.459 -0.3668  0.3157  0.6003
  640MOL0     C86291   6.958   2.567  10.599  1.1963 -0.0548  0.7187
  640MOL0     C86292   6.836   2.573  10.677  0.7697 -0.4563 -0.0556
  640MOL0     C86293   6.845   2.595  10.826 -1.3703  0.0518 -0.4722
  640MOL0     C86294   6.698   2.568  10.626  0.2821 -0.5682 -0.1433
  640MOL0     C86295   6.578   2.577  10.701  0.4113 -0.4359 -0.1423
  640MOL0     O86296   6.477   2.636  10.639  0.6038 -0.0523  0.4400
  640MOL0     C86297   6.388   2.701  10.724 -0.1318  0.4689  0.2336
  640MOL0     C86298   6.425   2.812  10.801 -0.2317  0.7757  0.4102
  640MOL0     C86299   6.326   2.876  10.877  0.0503  0.2511  0.1370
  640MOL0     C86300   6.199   2.830  10.898  0.1200 -0.9604  0.5048
  640MOL0     O86301   6.113   2.915  10.976 -0.4991  0.3035  0.1060
  640MOL0     C86302   5.973   2.892  10.981  0.2473  0.4566 -0.8877
  640MOL0     C86303   5.887   2.926  10.852 -0.0665  0.5813  0.4910
  640MOL0     C86304   5.923   3.058  10.777  1.4176  0.5414  0.6713
  640MOL0     C86305   6.029   3.047  10.668  0.1061 -0.7893  0.1826
  640MOL0     C86306   6.049   3.182  10.593 -0.6159 -0.1201  0.8213
  640MOL0     C86307   6.160   3.155  10.482 -0.0182 -0.1990 -0.3055
  640MOL0     C86308   6.203   3.281  10.413  0.4260  0.1734 -0.6494
  640MOL0     C86309   6.330   3.261  10.325 -0.4051  0.2223 -0.2756
  640MOL0    Cl86310   6.398   3.418  10.284  0.3308 -0.1217  0.0420
  640MOL0     C86311   6.164   2.725  10.814  0.4381 -0.5630  0.0445
  640MOL0     C86312   6.256   2.659  10.733  0.1489 -0.0452  0.1127
  640MOL0     O86313   6.566   2.498  10.796 -0.3588 -0.1496 -0.2039
  640MOL0     C86314   6.693   2.553  10.490  0.1587 -0.5414  0.7594
  640MOL0     C86315   6.805   2.562  10.410  0.5234 -0.1021  0.1176
  640MOL0     N86316   7.506   2.338   9.994  0.5550 -0.5649  0.0870
  640MOL0     N86317   7.595   2.255   9.960 -0.6114 -0.0607  0.2422
  640MOL0     C86318   8.660   2.138   9.743 -0.1214  0.2776 -0.4530
  640MOL0     C86319   8.802   2.127   9.723  0.7921  0.2502 -0.2520
  640MOL0     C86320   9.183   2.246   9.523 -0.1194  0.5091  0.1674
  640MOL0     C86321   9.284   2.290   9.622  0.3212  0.0723 -0.3476
  640MOL0     C86322   9.413   2.309   9.585 -0.8579  0.2296 -0.6075
  640MOL0     C86323   9.454   2.275   9.457 -0.1298  0.0817 -0.1576
  640MOL0     O86324   9.587   2.296   9.424 -0.1577  0.1098  0.0834
  640MOL0     C86325   9.648   2.188   9.359  0.2087 -0.6569 -0.1199
  640MOL0     C86326   9.796   2.215   9.351 -0.0362 -0.1074  0.5665
  640MOL0     C86327   9.845   2.209   9.490 -0.9632 -0.4618 -0.1192
  640MOL0     C86328   9.986   2.275   9.501  0.4737  0.4296 -0.2274
  640MOL0     C86329  10.083   2.238   9.398  0.1253  0.4742  0.2445
  640MOL0     C86330  10.170   2.196   9.318  0.1301  0.7757 -0.6998
  640MOL0     C86331   9.363   2.239   9.358 -0.3923  0.1537 -0.1889
  640MOL0     C86332   9.230   2.236   9.385  0.9575 -0.3631 -0.0132
  640MOL0     H86333   8.884   2.456   9.770 -0.7647  1.0933 -2.9367
  640MOL0     H86334   8.635   2.460   9.855 -3.4182 -2.0768  3.1188
  640MOL0     H86335   8.532   2.073   9.957 -0.9506 -1.1623 -6.1610
  640MOL0     H86336   8.463   2.210  10.053  0.8508  0.6189 -0.7573
  640MOL0     H86337   8.258   2.181   9.939 -0.3196 -0.8743 -1.6435
  640MOL0     H86338   8.317   2.041   9.852  0.5229  4.1245 -3.3362
  640MOL0     H86339   8.386   1.932  10.095  0.4339  1.1683  1.9172
  640MOL0     H86340   8.320   2.080  10.158  1.1718  0.5471 -0.0435
  640MOL0     H86341   8.180   1.859  10.000  1.7090  1.8221 -1.4795
  640MOL0     H86342   8.175   1.879  10.176 -2.2146  2.6496  1.4916
  640MOL0     H86343   8.049   2.050  10.177  3.2599  0.2192  0.8701
  640MOL0     H86344   8.059   2.093   9.996  1.2211 -0.5633 -0.3414
  640MOL0     H86345   7.913   1.907   9.931 -1.9599  0.3786 -0.9191
  640MOL0     H86346   7.895   1.864  10.099 -3.6712  0.8756 -0.0996
  640MOL0     H86347   7.803   2.073  10.163  3.7851 -0.3188 -0.5906
  640MOL0     H86348   7.831   2.149  10.006 -0.2533  0.9328  0.2886
  640MOL0     H86349   7.616   1.945  10.048 -1.7040 -0.0658  2.1127
  640MOL0     H86350   7.692   2.003   9.902  0.9797 -0.0315  0.4102
  640MOL0     H86351   7.436   2.086  10.189  4.3252  0.2633 -0.0418
  640MOL0     H86352   7.264   2.412  10.113  1.4775  0.7758 -1.0981
  640MOL0     H86353   7.273   2.272  10.214 -0.9160 -0.2121 -5.1546
  640MOL0     H86354   7.468   2.509  10.230  1.4308 -0.7251 -0.2752
  640MOL0     H86355   7.444   2.406  10.371  3.5820  2.0452 -0.1508
  640MOL0     H86356   7.243   2.616  10.256  0.6166 -0.9732 -0.3187
  640MOL0     H86357   7.317   2.610  10.421  0.3319  0.7366 -0.8770
  640MOL0     H86358   7.129   2.421  10.439  3.3150 -0.2344  0.1189
  640MOL0     H86359   7.100   2.436  10.263 -2.3508  2.2248 -0.7327
  640MOL0     H86360   7.056   2.585  10.642  0.6402  0.9793  1.6082
  640MOL0     H86361   6.816   2.502  10.877  4.1333 -2.7702 -1.6324
  640MOL0     H86362   6.949   2.609  10.857 -0.3858 -2.3799 -2.3271
  640MOL0     H86363   6.788   2.684  10.853 -1.0402  0.3587 -0.7851
  640MOL0     H86364   6.525   2.855  10.804 -0.5698  1.7499 -1.2632
  640MOL0     H86365   6.359   2.970  10.920  1.8564 -1.0189  1.6802
  640MOL0     H86366   5.959   2.787  11.007  0.4765  0.7044  0.2822
  640MOL0     H86367   5.939   2.955  11.064  1.2618  2.9444 -2.2327
  640MOL0     H86368   5.909   2.835  10.796  2.1516  0.1367  1.9514
  640MOL0     H86369   5.781   2.924  10.881 -0.1005 -1.4006  0.3910
  640MOL0     H86370   5.958   3.136  10.845  0.1113  1.0245  0.8338
  640MOL0     H86371   5.832   3.105  10.736  0.5161 -0.9438  0.8994
  640MOL0     H86372   6.122   3.026  10.723  0.2778 -3.2154 -0.9140
  640MOL0     H86373   6.002   2.967  10.599 -0.0114 -2.5986  2.2438
  640MOL0     H86374   6.079   3.263  10.661  2.2379 -0.7218  0.4129
  640MOL0     H86375   5.955   3.219  10.550 -0.7728  2.0349  2.8172
  640MOL0     H86376   6.244   3.097  10.521  1.4392  0.0195 -2.8929
  640MOL0     H86377   6.112   3.095  10.404 -1.3492  0.8973 -0.3706
  640MOL0     H86378   6.230   3.358  10.487  0.0848 -0.5042  0.1884
  640MOL0     H86379   6.115   3.322  10.363 -1.8943 -0.4162  2.5809
  640MOL0     H86380   6.315   3.194  10.240 -0.8252 -1.1077  0.8201
  640MOL0     H86381   6.410   3.208  10.377  0.2551 -0.2352 -1.7118
  640MOL0     H86382   6.060   2.696  10.804  0.1217 -0.3851  2.3076
  640MOL0     H86383   6.219   2.580  10.669 -0.2294  2.1251 -2.5566
  640MOL0     H86384   6.598   2.542  10.439  0.8055 -1.8861 -0.2352
  640MOL0     H86385   6.793   2.560  10.302  1.6114 -2.2761 -0.0270
  640MOL0     H86386   8.614   2.040   9.739  2.3711 -1.0293  0.8605
  640MOL0     H86387   8.853   2.032   9.716 -1.7174 -1.4137  2.0397
  640MOL0     H86388   9.260   2.304   9.727 -0.7612  1.9214 -0.7860
  640MOL0     H86389   9.473   2.355   9.663 -5.5032  0.7357  3.1828
  640MOL0     H86390   9.629   2.091   9.405 -1.3402  0.4560  1.7988
  640MOL0     H86391   9.605   2.186   9.258  1.6781  2.4783 -0.9384
  640MOL0     H86392   9.811   2.311   9.301 -3.1301 -1.4135 -3.4334
  640MOL0     H86393   9.846   2.138   9.292 -5.0316 -2.4809 -1.1969
  640MOL0     H86394   9.868   2.105   9.517 -0.3010 -0.3870 -0.3800
  640MOL0     H86395   9.773   2.253   9.560  0.7188 -2.0198  2.8059
  640MOL0     H86396  10.021   2.256   9.603 -0.3589 -0.3567 -0.0739
  640MOL0     H86397   9.970   2.382   9.512  1.8569  0.5353  1.1862
  640MOL0     H86398  10.243   2.148   9.256  0.9573  0.6977  0.2987
  640MOL0     H86399   9.398   2.208   9.261 -0.2555 -0.3158  0.0086
  640MOL0     H86400   9.152   2.226   9.310  0.0002 -0.6980  0.9917
  641MOL0     O86401   0.458   3.895   2.646  0.5450  0.8476  0.0986
  641MOL0     C86402   0.470   3.785   2.594  0.2779 -0.3606  0.0746
  641MOL0     O86403   0.564   3.688   2.631 -0.6228  1.2442 -0.2022
  641MOL0     C86404   0.630   3.711   2.752  0.8160  0.4778 -0.2798
  641MOL0     C86405   0.716   3.818   2.763 -0.1093 -0.2094  0.1630
  641MOL0     C86406   0.780   3.843   2.883 -0.2838 -0.1639 -0.0329
  641MOL0     C86407   0.780   3.762   2.993  0.4079  0.3380  0.9972
  641MOL0     O86408   0.862   3.803   3.098 -0.0153 -1.2757 -0.1456
  641MOL0     C86409   0.952   3.710   3.144 -1.0484 -0.8407  0.3994
  641MOL0     C86410   1.079   3.738   3.061 -1.0054 -0.0521 -0.1637
  641MOL0     C86411   1.210   3.751   3.141 -1.1468 -0.1649  0.2298
  641MOL0     C86412   1.202   3.859   3.251  0.3464  0.4783  0.0576
  641MOL0     C86413   1.342   3.913   3.293  0.4719 -0.3599 -0.0729
  641MOL0     C86414   1.410   3.809   3.388  0.1747  0.5400 -0.0200
  641MOL0     C86415   1.563   3.835   3.397 -0.1671  0.4838  0.4409
  641MOL0     C86416   1.620   3.743   3.507  0.3066  0.1987 -0.4931
  641MOL0     N86417   1.763   3.761   3.511 -0.3165  0.8707  0.2010
  641MOL0     C86418   1.833   3.852   3.595 -0.2340  0.0273  0.0637
  641MOL0     C86419   1.969   3.818   3.579 -0.1907 -0.5669 -0.0227
  641MOL0     C86420   2.096   3.887   3.628  0.3736  0.1079 -0.1660
  641MOL0     C86421   2.068   3.987   3.745  0.1115  0.1771 -0.0761
  641MOL0     C86422   2.180   4.087   3.769 -0.2193 -0.0697  0.6644
  641MOL0     C86423   2.304   4.014   3.826 -0.9209  0.1038  0.0957
  641MOL0     O86424   2.284   3.986   3.966 -0.7935  0.0916  0.2558
  641MOL0     C86425   2.310   3.856   3.998 -0.1193  0.5677 -0.9715
  641MOL0     C86426   2.201   3.779   4.051  0.6619 -0.1117  0.1997
  641MOL0     C86427   2.217   3.649   4.088 -0.2888  0.4307 -0.6779
  641MOL0     C86428   2.100   3.584   4.150  0.0928 -0.4829 -0.6075
  641MOL0     C86429   2.335   3.587   4.071 -0.4912 -0.1162 -0.5704
  641MOL0     C86430   2.366   3.448   4.109  0.3850  0.2863  0.1499
  641MOL0     O86431   2.457   3.425   4.204 -0.6714  0.2121 -0.2087
  641MOL0     C86432   2.455   3.301   4.270 -0.7491 -0.5610 -0.8277
  641MOL0     C86433   2.335   3.240   4.303 -0.5250  0.1210  0.1707
  641MOL0     C86434   2.331   3.101   4.347  0.4673 -0.3668  0.2356
  641MOL0     C86435   2.443   3.022   4.357  0.5362 -0.7136 -0.2192
  641MOL0     O86436   2.441   2.886   4.386 -0.2614  0.2540 -0.2517
  641MOL0     C86437   2.313   2.819   4.390 -0.3062  0.0905 -0.8609
  641MOL0     C86438   2.332   2.664   4.393 -0.0456 -0.6362  0.7093
  641MOL0     C86439   2.322   2.601   4.250  0.5785 -0.5042 -0.0471
  641MOL0     C86440   2.362   2.453   4.265 -0.2998  0.6920  0.3858
  641MOL0     C86441   2.416   2.379   4.140  0.3582 -0.2079  0.5319
  641MOL0     C86442   2.562   2.421   4.118  0.6968  0.0401 -0.1596
  641MOL0     C86443   2.592   2.344   3.978 -0.1809 -0.1901  1.2362
  641MOL0     C86444   2.744   2.337   3.939  0.3331  0.1485 -0.7149
  641MOL0    Cl86445   2.794   2.504   3.903  0.0902  0.4683  0.1227
  641MOL0     C86446   2.565   3.095   4.335 -0.2158  0.9869 -0.4621
  641MOL0     C86447   2.573   3.221   4.280  0.1233  0.4300  0.5428
  641MOL0     O86448   2.316   3.362   4.047 -0.1141 -0.8881 -0.1197
  641MOL0     C86449   2.448   3.664   4.023  0.2199  0.2227  0.0637
  641MOL0     C86450   2.432   3.800   3.981 -0.4429 -0.4890 -0.3034
  641MOL0     N86451   1.978   3.712   3.490  0.7684  0.5329 -0.3806
  641MOL0     N86452   1.854   3.679   3.448  0.4226  0.5902  0.8670
  641MOL0     C86453   0.692   3.646   2.989  0.1850 -0.7817  0.4617
  641MOL0     C86454   0.615   3.630   2.871 -0.5147  0.1777 -0.3260
  641MOL0     C86455   0.380   3.754   2.483 -0.5906  0.2315  0.4041
  641MOL0     C86456   0.412   3.630   2.403 -1.0315 -0.6650 -0.3094
  641MOL0     C86457   0.328   3.595   2.305  0.5709  0.2639  0.1671
  641MOL0     C86458   0.201   3.654   2.287 -0.1759  0.0039 -0.4339
  641MOL0     O86459   0.113   3.607   2.201 -0.1524 -0.4367 -0.2848
  641MOL0     C86460   0.104   3.462   2.184 -0.6988  0.3735  0.5808
  641MOL0     C86461   0.058   3.381   2.303 -0.7924 -0.2717  0.0575
  641MOL0     C86462  -0.056   3.437   2.377 -0.3149  0.4810  0.1471
  641MOL0     C86463  -0.191   3.418   2.300  0.1470  0.6164 -0.1397
  641MOL0     C86464  -0.296   3.476   2.373 -0.5956  0.0166 -0.4975
  641MOL0     C86465  -0.387   3.512   2.446 -0.3290  0.2120 -0.1103
  641MOL0     C86466   0.164   3.766   2.369  0.1311 -0.5020  0.0012
  641MOL0     C86467   0.262   3.824   2.455 -0.1793  0.0597 -0.9619
  641MOL0     H86468   0.734   3.887   2.682  2.7856 -0.4413  0.5094
  641MOL0     H86469   0.849   3.926   2.889  1.1450 -1.1038 -2.2083
  641MOL0     H86470   0.956   3.731   3.252 -3.2015 -0.1992  0.4094
  641MOL0     H86471   0.908   3.611   3.132 -4.2495  0.4155  0.7808
  641MOL0     H86472   1.092   3.669   2.978  1.4945 -1.0253  0.9159
  641MOL0     H86473   1.071   3.836   3.013  2.5396  0.6203  0.3225
  641MOL0     H86474   1.252   3.663   3.190 -1.6425  0.8858  2.6609
  641MOL0     H86475   1.283   3.783   3.066 -0.8971 -3.5002 -1.1433
  641MOL0     H86476   1.123   3.930   3.224  0.6369  0.9924  0.5481
  641MOL0     H86477   1.157   3.802   3.333 -1.2044 -0.3186 -1.2687
  641MOL0     H86478   1.390   3.925   3.196  1.8059 -0.6206  0.5385
  641MOL0     H86479   1.327   4.017   3.324  3.9397  0.3353 -0.4303
  641MOL0     H86480   1.378   3.821   3.492 -2.0807 -0.5042 -0.5449
  641MOL0     H86481   1.391   3.707   3.354 -2.0464  1.1113 -0.6547
  641MOL0     H86482   1.609   3.807   3.302 -1.5550  0.0909 -0.1546
  641MOL0     H86483   1.591   3.938   3.418  1.9099  0.3020 -1.1065
  641MOL0     H86484   1.606   3.636   3.487  2.6064 -0.2150 -0.2067
  641MOL0     H86485   1.570   3.764   3.602 -0.3851  0.0529 -0.8219
  641MOL0     H86486   1.782   3.929   3.653 -3.3973  1.3375 -4.0051
  641MOL0     H86487   2.173   3.813   3.653  0.9502  1.1479  1.2519
  641MOL0     H86488   2.148   3.935   3.544 -0.3902 -1.7190 -1.7748
  641MOL0     H86489   2.052   3.922   3.832  0.9432 -2.6472 -1.8861
  641MOL0     H86490   1.975   4.038   3.719  0.4620  0.9975  0.2363
  641MOL0     H86491   2.135   4.161   3.836 -0.4284 -0.0929  0.5484
  641MOL0     H86492   2.219   4.138   3.680  3.3086 -0.4242  1.8512
  641MOL0     H86493   2.388   4.084   3.827 -3.4377  3.6484  4.7277
  641MOL0     H86494   2.330   3.927   3.765  2.4973  1.0711 -0.0116
  641MOL0     H86495   2.105   3.827   4.061  0.3625 -0.3352 -1.3864
  641MOL0     H86496   2.127   3.560   4.253  1.5116  0.3210 -0.7666
  641MOL0     H86497   2.020   3.659   4.155  1.2134  0.8666 -1.8471
  641MOL0     H86498   2.078   3.496   4.090  1.9064  0.5297 -2.9361
  641MOL0     H86499   2.239   3.284   4.278 -1.0848 -0.5129  1.1458
  641MOL0     H86500   2.231   3.065   4.367 -1.1156  1.7376 -3.0349
  641MOL0     H86501   2.265   2.836   4.486  1.3751 -3.6516  0.8520
  641MOL0     H86502   2.247   2.846   4.307 -0.4133  0.9882 -0.4915
  641MOL0     H86503   2.429   2.637   4.434  1.6363 -0.8414 -2.9728
  641MOL0     H86504   2.256   2.625   4.461 -0.5190  1.1599  1.2793
  641MOL0     H86505   2.390   2.652   4.181  1.1269 -0.1227  0.7563
  641MOL0     H86506   2.218   2.603   4.218  0.4372  0.3031  0.4262
  641MOL0     H86507   2.421   2.431   4.355  0.6831 -2.5563 -0.8946
  641MOL0     H86508   2.270   2.401   4.292  0.7204 -0.9568  0.8362
  641MOL0     H86509   2.351   2.401   4.054  1.4110  0.1028 -0.2099
  641MOL0     H86510   2.415   2.271   4.162  0.6425 -0.6542 -1.3990
  641MOL0     H86511   2.566   2.529   4.105  0.1344  0.0255 -0.4806
  641MOL0     H86512   2.629   2.400   4.202 -0.5561  0.4966  0.9756
  641MOL0     H86513   2.531   2.385   3.897 -0.5168 -0.9563  1.0949
  641MOL0     H86514   2.560   2.240   3.980 -1.0474 -0.1845 -3.2705
  641MOL0     H86515   2.756   2.272   3.852 -2.3320 -0.8502 -0.4264
  641MOL0     H86516   2.809   2.299   4.018  1.9667  1.5411 -1.3178
  641MOL0     H86517   2.648   3.029   4.360 -0.2024  1.7653  1.6971
  641MOL0     H86518   2.666   3.258   4.239  0.7340  1.2025  2.5035
  641MOL0     H86519   2.545   3.616   4.026  0.3198  0.3716 -0.6255
  641MOL0     H86520   2.516   3.857   3.940 -3.2841  2.0727 -3.1370
  641MOL0     H86521   0.682   3.571   3.067 -0.1610  0.6767  1.8599
  641MOL0     H86522   0.541   3.552   2.882 -2.0092  1.7361  1.4992
  641MOL0     H86523   0.504   3.572   2.407 -1.2778 -0.9990  1.2708
  641MOL0     H86524   0.359   3.520   2.233  3.3692  0.6100  0.9150
  641MOL0     H86525   0.047   3.442   2.093 -0.1482 -1.2053  0.5585
  641MOL0     H86526   0.203   3.424   2.156 -0.5072  2.4028 -1.8228
  641MOL0     H86527   0.140   3.396   2.374 -0.1903  0.2026 -0.7226
  641MOL0     H86528   0.050   3.273   2.286  0.2924 -0.1416 -1.4651
  641MOL0     H86529  -0.036   3.543   2.395  1.6455  0.1180  0.3102
  641MOL0     H86530  -0.053   3.379   2.470  1.0045  0.1645 -0.0781
  641MOL0     H86531  -0.201   3.309   2.290  2.8702  0.1770  1.0603
  641MOL0     H86532  -0.187   3.453   2.196  0.8429 -0.5744 -0.5300
  641MOL0     H86533  -0.461   3.561   2.506 -1.6012  1.1445 -2.2913
  641MOL0     H86534   0.059   3.792   2.361 -0.0736 -1.3543 -0.2159
  641MOL0     H86535   0.226   3.899   2.525  1.9171  0.4760 -0.2292
  642MOL0     O86536   4.748   9.882   0.354  0.1004 -0.1424  0.8796
  642MOL0     C86537   4.711   9.922   0.246  0.7309  0.5860  0.5210
  642MOL0     O86538   4.777   9.908   0.130 -0.0972 -0.6271 -0.3272
  642MOL0     C86539   4.903   9.858   0.133 -0.2992 -1.1867  0.5914
  642MOL0     C86540   5.006   9.949   0.158  0.5647 -0.6802 -1.0136
  642MOL0     C86541   5.137   9.898   0.163 -0.3947  0.5080  0.0101
  642MOL0     C86542   5.169   9.762   0.150  0.5995  0.1775 -0.4408
  642MOL0     O86543   5.301   9.737   0.158  0.0367  0.1684  0.1224
  642MOL0     C86544   5.346   9.594   0.157 -0.5680 -0.5250  0.2346
  642MOL0     C86545   5.497   9.593   0.175  0.1231  0.3639 -0.2594
  642MOL0     C86546   5.582   9.652   0.053  0.7742  0.2059 -0.6408
  642MOL0     C86547   5.715   9.573   0.036  0.4353 -0.7106 -1.0192
  642MOL0     C86548   5.766   9.591  -0.109  0.9370  0.5630 -0.7960
  642MOL0     C86549   5.829   9.726  -0.129 -0.2125 -1.1563  0.1877
  642MOL0     C86550   5.884   9.735  -0.276 -0.5620  0.1735 -0.0983
  642MOL0     C86551   5.933   9.880  -0.300 -0.0399 -0.1244 -0.0598
  642MOL0     N86552   5.999   9.898  -0.428  0.8138 -0.4978  0.5165
  642MOL0     C86553   6.071   9.804  -0.503 -0.0933 -0.0101 -0.6841
  642MOL0     C86554   6.102   9.858  -0.621  0.2842  0.3749 -0.0056
  642MOL0     C86555   6.199   9.795  -0.709  0.1637 -0.7737  0.5932
  642MOL0     C86556   6.341   9.836  -0.665 -0.1863  0.5527  0.3545
  642MOL0     C86557   6.461   9.750  -0.711  0.2067 -0.4044  0.4718
  642MOL0     C86558   6.476   9.733  -0.863 -1.2428  0.0404  0.0656
  642MOL0     O86559   6.558   9.626  -0.907  0.0904  0.2706  0.3058
  642MOL0     C86560   6.689   9.613  -0.857 -0.3970  0.0032  1.1101
  642MOL0     C86561   6.746   9.494  -0.845  0.4574 -0.3812 -0.1480
  642MOL0     C86562   6.876   9.478  -0.786 -0.3577  0.1592  0.6768
  642MOL0     C86563   6.923   9.333  -0.769 -0.4171  0.5182  0.4648
  642MOL0     C86564   6.954   9.591  -0.739 -0.4859 -0.7628  0.2908
  642MOL0     C86565   7.093   9.598  -0.678  0.6704 -0.0177 -0.7184
  642MOL0     O86566   7.131   9.725  -0.635 -0.0679  0.5142 -0.4358
  642MOL0     C86567   7.258   9.750  -0.592 -0.1658 -0.1274 -0.4006
  642MOL0     C86568   7.303   9.880  -0.606  0.6580 -0.5781 -0.4205
  642MOL0     C86569   7.428   9.913  -0.557 -0.3988 -0.4826  0.0472
  642MOL0     C86570   7.509   9.814  -0.500 -0.7400 -0.1501  0.4855
  642MOL0     O86571   7.630   9.842  -0.447 -0.5487 -0.3372 -0.3986
  642MOL0     C86572   7.712   9.941  -0.520  0.7919  0.5299 -1.0763
  642MOL0     C86573   7.855   9.906  -0.492  0.4049 -1.1081  1.0885
  642MOL0     C86574   7.886   9.897  -0.346  0.6059  0.2955  0.3740
  642MOL0     C86575   8.039   9.877  -0.320 -0.0762 -1.3193 -0.5225
  642MOL0     C86576   8.040   9.831  -0.173  0.7381 -0.3252  0.0490
  642MOL0     C86577   8.163   9.860  -0.086  0.0822 -0.2564 -0.3308
  642MOL0     C86578   8.290   9.783  -0.114 -0.3849  0.4297 -0.5081
  642MOL0     C86579   8.326   9.683  -0.003  0.5286  0.0333 -0.5258
  642MOL0    Cl86580   8.365   9.771   0.153  0.3370  0.3470 -0.3643
  642MOL0     C86581   7.454   9.688  -0.481  0.1834 -0.4205 -0.1421
  642MOL0     C86582   7.332   9.652  -0.526 -0.6157 -0.4323  0.1465
  642MOL0     O86583   7.160   9.496  -0.688  0.2999  0.6100 -0.5462
  642MOL0     C86584   6.897   9.714  -0.772  0.3796 -0.7300 -0.1418
  642MOL0     C86585   6.769   9.721  -0.824 -0.5210 -0.2975 -0.0594
  642MOL0     N86586   6.032   9.979  -0.627 -0.6724 -0.7394 -0.0394
  642MOL0     N86587   5.977  10.009  -0.513 -0.0251  0.4509 -0.0037
  642MOL0     C86588   5.063   9.669   0.123  0.0467  0.5941 -0.5553
  642MOL0     C86589   4.928   9.723   0.120 -1.4411 -0.4063 -1.3401
  642MOL0     C86590   4.590  10.006   0.250 -0.5204  0.6796 -0.1352
  642MOL0     C86591   4.560  10.096   0.150  0.2898 -0.1287  0.1919
  642MOL0     C86592   4.454  10.174   0.161  0.1298 -0.3568  0.7860
  642MOL0     C86593   4.365  10.165   0.269 -0.3186  0.6508 -0.5407
  642MOL0     O86594   4.258  10.246   0.261 -0.4536  0.0916  0.6915
  642MOL0     C86595   4.152  10.243   0.350  0.2321  0.4176 -0.2702
  642MOL0     C86596   4.177  10.320   0.484  0.6035  0.5429  0.9687
  642MOL0     C86597   4.091  10.273   0.600  0.4219 -0.2633  0.4412
  642MOL0     C86598   4.092  10.362   0.729 -0.2368 -0.1426 -0.3938
  642MOL0     C86599   4.062  10.503   0.690 -0.3345 -0.4905  0.3078
  642MOL0     C86600   4.040  10.619   0.659  0.0557 -1.6378  0.0897
  642MOL0     C86601   4.393  10.073   0.373 -0.3764 -0.2288  1.2356
  642MOL0     C86602   4.510   9.996   0.369 -0.2162 -0.8379  0.1547
  642MOL0     H86603   4.988  10.053   0.183  0.8454 -1.1084  1.2124
  642MOL0     H86604   5.215   9.971   0.185  1.5753 -0.8840 -2.0049
  642MOL0     H86605   5.300   9.549   0.245 -0.1594  1.0967  1.3308
  642MOL0     H86606   5.321   9.547   0.061  1.2020  0.2583 -0.6644
  642MOL0     H86607   5.522   9.639   0.271 -1.2776  0.5238  0.0442
  642MOL0     H86608   5.530   9.489   0.186  1.9441  1.1273  2.2791
  642MOL0     H86609   5.518   9.639  -0.035 -2.1002 -1.4253  1.5391
  642MOL0     H86610   5.599   9.760   0.062 -1.7141  0.5528  0.4839
  642MOL0     H86611   5.792   9.612   0.103 -0.3617  1.0205 -1.0739
  642MOL0     H86612   5.703   9.466   0.056  2.2815 -1.1667 -2.0564
  642MOL0     H86613   5.834   9.511  -0.139 -0.2489  0.2712 -2.8811
  642MOL0     H86614   5.687   9.580  -0.183  0.5269  0.3460 -0.3238
  642MOL0     H86615   5.768   9.817  -0.123  1.6251  0.0394  2.1490
  642MOL0     H86616   5.908   9.740  -0.054 -0.0947  1.9845 -0.3947
  642MOL0     H86617   5.973   9.673  -0.270  1.0502  2.3801  0.1190
  642MOL0     H86618   5.808   9.698  -0.345  2.1634 -1.3152 -2.4748
  642MOL0     H86619   5.991   9.908  -0.212 -0.8983  0.4798  0.3355
  642MOL0     H86620   5.854   9.955  -0.309  1.4559  1.6291  0.7343
  642MOL0     H86621   6.102   9.703  -0.478  0.4390  0.3302  0.0854
  642MOL0     H86622   6.187   9.687  -0.703 -1.8759 -0.5086  2.3443
  642MOL0     H86623   6.182   9.829  -0.812 -2.5675  1.6927  1.7519
  642MOL0     H86624   6.335   9.851  -0.556  0.1055  0.3404  0.4013
  642MOL0     H86625   6.367   9.937  -0.700  1.0775  0.2740  0.4228
  642MOL0     H86626   6.468   9.650  -0.665  3.5178 -0.6756 -0.3888
  642MOL0     H86627   6.554   9.791  -0.671  0.8060 -0.2894 -0.9802
  642MOL0     H86628   6.506   9.830  -0.903 -0.6975 -0.3955 -0.6151
  642MOL0     H86629   6.383   9.704  -0.913 -1.2018 -2.4673  1.2817
  642MOL0     H86630   6.708   9.396  -0.870  2.0561 -1.0394 -0.1460
  642MOL0     H86631   7.020   9.335  -0.820 -0.3894  4.1818  0.3975
  642MOL0     H86632   6.921   9.291  -0.668 -2.6991 -1.9736 -0.5190
  642MOL0     H86633   6.864   9.264  -0.829  0.1139  0.2450  0.2535
  642MOL0     H86634   7.240   9.956  -0.652  0.3453  0.3430  1.4164
  642MOL0     H86635   7.464  10.015  -0.565 -0.7640 -0.4664 -1.5831
  642MOL0     H86636   7.694   9.938  -0.628  0.3399 -0.0317 -0.9857
  642MOL0     H86637   7.688  10.045  -0.495 -2.3993  0.0812 -1.8778
  642MOL0     H86638   7.873   9.813  -0.546 -0.6440 -0.1771 -0.9966
  642MOL0     H86639   7.924   9.971  -0.547 -0.0549  0.9769  2.8516
  642MOL0     H86640   7.845   9.809  -0.296  0.0377  0.6602  0.5595
  642MOL0     H86641   7.842   9.984  -0.297 -2.7943 -1.7752  1.3690
  642MOL0     H86642   8.075   9.792  -0.378 -0.2058 -1.3115 -0.6137
  642MOL0     H86643   8.112   9.959  -0.332 -0.2758 -1.5194 -4.1334
  642MOL0     H86644   8.015   9.726  -0.156  0.6438  0.0511  2.5845
  642MOL0     H86645   7.950   9.876  -0.131 -0.3450 -2.5425  0.2347
  642MOL0     H86646   8.182   9.968  -0.092 -0.6454 -0.1912 -1.8887
  642MOL0     H86647   8.139   9.831   0.017  1.3357 -3.1608 -0.7774
  642MOL0     H86648   8.366   9.857  -0.141 -1.8323  2.3304  0.3852
  642MOL0     H86649   8.275   9.719  -0.202 -0.6510  1.7513 -1.4576
  642MOL0     H86650   8.408   9.621  -0.038  1.3415  0.8616 -0.1377
  642MOL0     H86651   8.250   9.604   0.002  0.6920 -0.0818  0.4261
  642MOL0     H86652   7.506   9.615  -0.420  0.6841  1.5365  1.9027
  642MOL0     H86653   7.296   9.553  -0.498 -1.7869  0.7431  3.2840
  642MOL0     H86654   6.934   9.812  -0.746  0.3655 -0.6445 -0.4381
  642MOL0     H86655   6.731   9.822  -0.835 -0.5551 -0.1527  1.2977
  642MOL0     H86656   5.078   9.562   0.110 -1.2877  0.2786  0.3600
  642MOL0     H86657   4.841   9.664   0.095 -2.7908  1.9433 -2.5381
  642MOL0     H86658   4.636  10.113   0.074 -1.0196  0.0260 -1.1157
  642MOL0     H86659   4.443  10.248   0.082 -0.4647 -0.8571  0.3942
  642MOL0     H86660   4.061  10.287   0.308  0.0184 -0.9739 -1.3384
  642MOL0     H86661   4.138  10.137   0.372  0.9159 -0.1292 -2.2184
  642MOL0     H86662   4.152  10.426   0.468 -0.2344  0.4234  1.4181
  642MOL0     H86663   4.285  10.317   0.501  0.3795  0.8812  2.6266
  642MOL0     H86664   4.121  10.170   0.622  2.2885  0.4365  1.4183
  642MOL0     H86665   3.989  10.261   0.563  1.1221 -2.7799 -0.8959
  642MOL0     H86666   4.189  10.362   0.779 -0.9858  0.0799  1.1275
  642MOL0     H86667   4.026  10.330   0.810  1.1256  0.2513  0.9093
  642MOL0     H86668   4.018  10.714   0.614 -2.2365 -2.7072 -1.2232
  642MOL0     H86669   4.327  10.058   0.457 -2.7963  0.5880 -0.4097
  642MOL0     H86670   4.532   9.930   0.453  2.3606  0.8447  0.9188
  643MOL0     O86671   0.830   6.761   0.901 -0.0721 -0.1008 -0.0491
  643MOL0     C86672   0.842   6.840   0.997  0.5740 -0.7059 -0.1735
  643MOL0     O86673   0.754   6.859   1.095  0.0445 -0.7224  0.4662
  643MOL0     C86674   0.637   6.788   1.087 -1.0021 -0.6765 -0.4805
  643MOL0     C86675   0.543   6.799   0.981  0.5957 -0.7269  0.6090
  643MOL0     C86676   0.413   6.734   0.990  0.0374 -0.3971  0.5574
  643MOL0     C86677   0.392   6.639   1.090  0.1810  0.4756  1.0373
  643MOL0     O86678   0.284   6.555   1.105  0.1187 -0.2741 -0.0788
  643MOL0     C86679   0.185   6.544   0.991  0.6258 -0.3685 -0.0175
  643MOL0     C86680   0.063   6.468   1.036  1.0971  0.1169 -0.7989
  643MOL0     C86681  -0.051   6.485   0.939  0.0082  0.6591 -0.2192
  643MOL0     C86682  -0.146   6.370   0.963  0.5565 -0.3887  0.0980
  643MOL0     C86683  -0.260   6.381   0.867 -0.1776 -0.0069  0.2876
  643MOL0     C86684  -0.334   6.246   0.866  0.4349  0.8453  0.5654
  643MOL0     C86685  -0.383   6.220   0.724  0.1325  0.0448  0.5608
  643MOL0     C86686  -0.292   6.143   0.629 -0.2187 -0.4954 -0.1836
  643MOL0     N86687  -0.283   6.003   0.675 -1.1332 -0.4443 -0.2662
  643MOL0     C86688  -0.189   5.950   0.754 -0.4378 -0.2051  0.2043
  643MOL0     C86689  -0.212   5.814   0.750  0.1077 -0.1363 -0.9531
  643MOL0     C86690  -0.136   5.709   0.831  0.0119 -0.6339  0.8975
  643MOL0     C86691   0.020   5.735   0.860 -0.5211  1.0120  0.1188
  643MOL0     C86692   0.104   5.606   0.882  0.4950  0.5892 -0.1194
  643MOL0     C86693   0.252   5.635   0.916 -0.4661 -0.5771 -0.2432
  643MOL0     O86694   0.326   5.704   0.814 -0.1215 -0.5715 -0.5863
  643MOL0     C86695   0.462   5.695   0.822  0.5393  0.3064  0.5402
  643MOL0     C86696   0.527   5.706   0.945 -0.6829 -0.5565 -0.0636
  643MOL0     C86697   0.667   5.686   0.962 -1.2497 -0.6470 -0.6472
  643MOL0     C86698   0.722   5.710   1.104 -0.3415 -0.7394  0.5317
  643MOL0     C86699   0.735   5.644   0.845 -1.2048  0.0751 -0.1927
  643MOL0     C86700   0.887   5.615   0.852  0.5634  0.6004  0.6768
  643MOL0     O86701   0.941   5.551   0.735  0.0497  0.1011 -0.4104
  643MOL0     C86702   1.071   5.519   0.739  0.2167  0.3418 -0.0214
  643MOL0     C86703   1.113   5.387   0.726 -0.4618 -0.0243  0.4021
  643MOL0     C86704   1.254   5.351   0.730 -0.2854 -0.5553 -0.0196
  643MOL0     C86705   1.347   5.460   0.745  0.6613  1.0027  0.5407
  643MOL0     O86706   1.485   5.440   0.763  0.2296  0.1398  0.1332
  643MOL0     C86707   1.571   5.490   0.664 -0.3548  0.3038  0.1226
  643MOL0     C86708   1.715   5.416   0.661 -0.0943 -0.6680 -0.6155
  643MOL0     C86709   1.802   5.497   0.575 -0.2253 -0.1607  0.6902
  643MOL0     C86710   1.941   5.427   0.554 -0.4156 -0.9800  0.1154
  643MOL0     C86711   2.029   5.511   0.463  0.0489  0.2515 -0.1180
  643MOL0     C86712   2.174   5.489   0.490 -1.0531 -0.0145  0.1244
  643MOL0     C86713   2.243   5.364   0.440  0.0147 -0.1093  0.5314
  643MOL0     C86714   2.396   5.354   0.479  0.2675 -0.2352  0.6198
  643MOL0    Cl86715   2.437   5.188   0.498  0.0384  0.0773 -0.0827
  643MOL0     C86716   1.298   5.593   0.748 -0.3191 -0.6300 -0.1133
  643MOL0     C86717   1.163   5.626   0.738  0.4595  0.3858  0.3480
  643MOL0     O86718   0.949   5.644   0.950  0.1209 -0.4696 -0.5051
  643MOL0     C86719   0.666   5.625   0.725 -0.5528 -0.6678 -0.0682
  643MOL0     C86720   0.534   5.666   0.708 -0.2577 -0.0317  0.2412
  643MOL0     N86721  -0.324   5.793   0.680  0.3710  0.4423  0.0839
  643MOL0     N86722  -0.361   5.906   0.627 -0.1371 -0.0782 -0.3556
  643MOL0     C86723   0.489   6.624   1.193  0.4134  0.2815  1.1032
  643MOL0     C86724   0.609   6.702   1.192 -0.0738  0.0186 -0.1920
  643MOL0     C86725   0.964   6.918   1.013 -0.8691  0.3647  0.5123
  643MOL0     C86726   0.967   7.031   1.100 -0.6698  0.4456  0.7639
  643MOL0     C86727   1.079   7.103   1.115 -1.5826 -0.1549 -0.6404
  643MOL0     C86728   1.203   7.071   1.060  0.2248 -0.2886 -0.2943
  643MOL0     O86729   1.314   7.146   1.058  0.0466 -0.5331 -0.0582
  643MOL0     C86730   1.313   7.277   1.107 -0.6988  0.4161  0.0898
  643MOL0     C86731   1.343   7.291   1.262 -0.7186  0.7754 -0.1859
  643MOL0     C86732   1.494   7.269   1.283 -0.4856  0.1866 -0.0191
  643MOL0     C86733   1.531   7.284   1.432 -0.8324  0.1294  0.4404
  643MOL0     C86734   1.476   7.170   1.503  0.7101  1.3784  0.5155
  643MOL0     C86735   1.435   7.056   1.537  0.9857 -0.0886 -0.5042
  643MOL0     C86736   1.204   6.956   0.979  0.4178  0.3557  0.1213
  643MOL0     C86737   1.088   6.879   0.958  0.8125  0.4381  0.7726
  643MOL0     H86738   0.562   6.848   0.886  2.5646 -2.2017  0.1750
  643MOL0     H86739   0.336   6.740   0.914  1.9452  2.7211 -1.3836
  643MOL0     H86740   0.139   6.640   0.963  0.4472 -0.6413 -0.6725
  643MOL0     H86741   0.234   6.507   0.901 -1.1113  0.2584 -1.2850
  643MOL0     H86742   0.087   6.363   1.055  1.3092  0.2425 -0.3473
  643MOL0     H86743   0.028   6.501   1.134  1.4084 -1.9987  0.0781
  643MOL0     H86744  -0.108   6.578   0.952 -0.4683  0.5891 -1.7251
  643MOL0     H86745  -0.021   6.477   0.834  0.2679 -1.7833 -0.0185
  643MOL0     H86746  -0.087   6.284   0.930  0.6413  0.3853 -1.9316
  643MOL0     H86747  -0.192   6.365   1.062 -3.4045  1.2980 -1.4690
  643MOL0     H86748  -0.329   6.457   0.905 -2.0616 -0.3959 -2.0962
  643MOL0     H86749  -0.225   6.416   0.769 -1.2639 -1.1685 -0.5360
  643MOL0     H86750  -0.257   6.173   0.893  1.1437  0.4178 -2.2912
  643MOL0     H86751  -0.414   6.238   0.940 -1.2807 -2.5153 -1.3925
  643MOL0     H86752  -0.471   6.158   0.742 -1.4463  2.0286  0.0256
  643MOL0     H86753  -0.424   6.311   0.679 -0.3777 -0.4287  0.0679
  643MOL0     H86754  -0.192   6.184   0.639 -0.0237 -1.1182  0.4599
  643MOL0     H86755  -0.346   6.165   0.536 -1.0344 -1.6268 -0.0054
  643MOL0     H86756  -0.110   6.010   0.798 -0.0050  1.5084 -2.6827
  643MOL0     H86757  -0.183   5.691   0.929 -0.2966  1.0702  1.0956
  643MOL0     H86758  -0.135   5.624   0.762 -3.9551  0.1506 -0.3793
  643MOL0     H86759   0.030   5.794   0.951 -0.8659  1.9223 -0.4244
  643MOL0     H86760   0.060   5.805   0.787  1.5399  0.8786  1.0622
  643MOL0     H86761   0.105   5.546   0.791 -0.7504 -3.0107  2.0184
  643MOL0     H86762   0.057   5.550   0.964  1.7507 -0.1829  0.1184
  643MOL0     H86763   0.292   5.536   0.941  1.5771  1.0547  4.0617
  643MOL0     H86764   0.271   5.690   1.008  4.4601  1.5537 -2.1935
  643MOL0     H86765   0.481   5.716   1.043 -0.1310 -0.7894  0.2264
  643MOL0     H86766   0.771   5.617   1.134  0.6849 -0.0649  0.9925
  643MOL0     H86767   0.792   5.794   1.109 -1.0585 -0.0879 -0.0743
  643MOL0     H86768   0.642   5.727   1.177  1.4071 -1.9431  2.8735
  643MOL0     H86769   1.045   5.309   0.694  0.1208 -0.4924  0.2907
  643MOL0     H86770   1.305   5.256   0.719  2.3233  0.2468  3.2182
  643MOL0     H86771   1.543   5.490   0.558  0.6651  1.1277 -0.1673
  643MOL0     H86772   1.571   5.600   0.671 -2.9895  0.8272 -4.2734
  643MOL0     H86773   1.754   5.431   0.763  0.2527  0.1542 -0.8611
  643MOL0     H86774   1.703   5.313   0.628  3.6816 -0.7113 -2.3968
  643MOL0     H86775   1.810   5.602   0.603  2.4968  1.4929 -4.8323
  643MOL0     H86776   1.752   5.503   0.478 -0.2343 -0.3296  0.6834
  643MOL0     H86777   1.997   5.425   0.647  1.2683 -0.6778 -0.8419
  643MOL0     H86778   1.921   5.327   0.516 -0.4155 -1.3373  1.0525
  643MOL0     H86779   2.005   5.615   0.487  0.1293  0.0745  0.7579
  643MOL0     H86780   2.011   5.501   0.356  0.3606  0.3494 -0.1799
  643MOL0     H86781   2.218   5.571   0.431  2.9862 -0.8815  1.6211
  643MOL0     H86782   2.202   5.512   0.593  1.8774  0.4592 -0.6859
  643MOL0     H86783   2.229   5.355   0.332 -0.2673 -2.4256  0.7164
  643MOL0     H86784   2.190   5.277   0.480 -0.6920  0.3398  0.5873
  643MOL0     H86785   2.408   5.409   0.573  1.4966 -0.3586  0.5518
  643MOL0     H86786   2.470   5.393   0.408  0.7042 -1.6895  0.2347
  643MOL0     H86787   1.373   5.671   0.757 -0.0577 -0.8966  0.0431
  643MOL0     H86788   1.129   5.729   0.742  2.0343  0.9435  0.0725
  643MOL0     H86789   0.723   5.605   0.635 -2.2352  0.8519 -1.5600
  643MOL0     H86790   0.486   5.678   0.612 -1.3210 -1.0633  0.6179
  643MOL0     H86791   0.479   6.543   1.265  1.4916  1.1823  2.3047
  643MOL0     H86792   0.673   6.695   1.279 -1.8687  0.0848  1.2005
  643MOL0     H86793   0.876   7.065   1.149 -2.2681 -2.3007 -0.0198
  643MOL0     H86794   1.077   7.187   1.183 -2.7290  1.1595 -2.2140
  643MOL0     H86795   1.393   7.332   1.057 -1.0110  0.1813 -0.6823
  643MOL0     H86796   1.222   7.329   1.077 -0.1974  1.2402 -0.0146
  643MOL0     H86797   1.291   7.230   1.337  1.5503 -0.9180  0.1061
  643MOL0     H86798   1.322   7.395   1.288  0.9710  0.8585  0.9928
  643MOL0     H86799   1.558   7.330   1.219 -0.5024 -0.6594 -0.8443
  643MOL0     H86800   1.509   7.165   1.253  0.6864  0.0689  0.9209
  643MOL0     H86801   1.497   7.383   1.465 -0.9016  0.9429 -1.8522
  643MOL0     H86802   1.639   7.279   1.448 -1.0008 -1.5905  1.2193
  643MOL0     H86803   1.421   6.951   1.557  0.5553  0.1684  0.5836
  643MOL0     H86804   1.294   6.916   0.933 -0.9946 -1.6608 -1.0518
  643MOL0     H86805   1.084   6.785   0.903 -1.8762  0.4977  0.7686
  644MOL0     O86806   5.403   1.235   3.472 -0.4569  0.1798 -0.3404
  644MOL0     C86807   5.395   1.358   3.475  1.3067 -0.1292 -0.8260
  644MOL0     O86808   5.313   1.432   3.558 -0.8284 -0.0201 -0.8529
  644MOL0     C86809   5.253   1.394   3.679 -0.3047 -0.1053  0.7381
  644MOL0     C86810   5.174   1.495   3.733  0.9267 -0.8101  0.6980
  644MOL0     C86811   5.107   1.481   3.855 -0.0222  0.4772 -0.6792
  644MOL0     C86812   5.112   1.359   3.924 -1.4023  0.0027  0.1375
  644MOL0     O86813   5.045   1.323   4.042 -0.3475  0.5563 -0.2411
  644MOL0     C86814   4.908   1.310   4.017  0.7154 -0.4125 -0.4748
  644MOL0     C86815   4.875   1.163   3.982  0.3117 -0.7581 -0.2391
  644MOL0     C86816   4.728   1.130   4.001 -0.2056  0.4356  0.7443
  644MOL0     C86817   4.692   1.006   3.919 -0.1817  0.1689 -0.1408
  644MOL0     C86818   4.557   0.958   3.960  0.0321  0.5191  0.1374
  644MOL0     C86819   4.511   0.843   3.868 -0.3497 -0.8067 -0.9667
  644MOL0     C86820   4.385   0.772   3.908  0.1906 -0.1861 -0.1355
  644MOL0     C86821   4.261   0.859   3.929  0.4987  0.7972  1.3017
  644MOL0     N86822   4.154   0.765   3.943  0.0040 -0.2648 -0.1228
  644MOL0     C86823   4.021   0.807   3.939 -0.1831 -0.7202  1.6937
  644MOL0     C86824   3.940   0.709   3.990  0.5312  0.1811  0.4193
  644MOL0     C86825   3.791   0.696   4.006  0.1308 -0.0230 -0.4380
  644MOL0     C86826   3.729   0.556   3.972  0.1716 -0.5293  0.0658
  644MOL0     C86827   3.744   0.447   4.075 -0.7399  0.8933  0.2816
  644MOL0     C86828   3.665   0.483   4.206  0.0125 -0.9438 -0.2450
  644MOL0     O86829   3.522   0.515   4.178 -0.0541  0.5096  0.2490
  644MOL0     C86830   3.421   0.424   4.180  0.0552 -0.7525 -0.3575
  644MOL0     C86831   3.298   0.473   4.147  0.3916 -0.2832 -0.4861
  644MOL0     C86832   3.188   0.383   4.148  0.3746 -0.0326  0.2426
  644MOL0     C86833   3.046   0.441   4.101  0.7080  0.5703  0.6532
  644MOL0     C86834   3.208   0.248   4.175  0.2840  0.2941 -0.5434
  644MOL0     C86835   3.099   0.144   4.175  0.6544 -0.0026  0.0726
  644MOL0     O86836   3.133   0.026   4.226 -0.4230  0.3206  0.1217
  644MOL0     C86837   3.052  -0.084   4.237 -0.5796  0.7661 -0.0510
  644MOL0     C86838   2.911  -0.073   4.230 -0.6716  0.2320 -0.2320
  644MOL0     C86839   2.838  -0.190   4.229  0.1303 -0.1971  0.1867
  644MOL0     C86840   2.898  -0.315   4.231 -0.1008 -0.5619  0.1204
  644MOL0     O86841   2.826  -0.432   4.218 -0.1874  0.2940  0.3711
  644MOL0     C86842   2.804  -0.495   4.342  0.4006  0.8381 -0.3527
  644MOL0     C86843   2.676  -0.584   4.349 -0.7145 -0.5425 -0.1434
  644MOL0     C86844   2.684  -0.661   4.483 -0.9964  0.2709  0.2364
  644MOL0     C86845   2.567  -0.767   4.483 -0.5832 -0.4610 -0.4627
  644MOL0     C86846   2.421  -0.713   4.462 -0.3494 -1.4653 -0.2560
  644MOL0     C86847   2.328  -0.836   4.485 -0.6723  0.8056 -0.1356
  644MOL0     C86848   2.321  -0.938   4.365 -0.8277 -0.5608 -0.1599
  644MOL0     C86849   2.182  -0.941   4.294 -0.1568  0.8307  0.8628
  644MOL0    Cl86850   2.035  -1.010   4.382  0.4722  0.1552  0.5266
  644MOL0     C86851   3.035  -0.328   4.246 -0.7860 -1.0197 -0.7066
  644MOL0     C86852   3.117  -0.208   4.241 -0.7744 -0.5918 -0.0899
  644MOL0     O86853   2.994   0.177   4.133 -0.5366 -0.1744  0.4801
  644MOL0     C86854   3.334   0.199   4.202 -0.0741 -0.2974 -1.5356
  644MOL0     C86855   3.441   0.289   4.202  0.0086 -0.0457  0.8975
  644MOL0     N86856   4.027   0.620   4.037 -0.6894 -0.6361  0.0631
  644MOL0     N86857   4.154   0.650   4.016 -0.1291 -0.0512 -0.6005
  644MOL0     C86858   5.201   1.265   3.874 -0.2010 -0.0209  0.1094
  644MOL0     C86859   5.273   1.288   3.762 -0.0340  0.7928 -0.5028
  644MOL0     C86860   5.474   1.443   3.384 -0.9622 -0.6384 -0.3181
  644MOL0     C86861   5.424   1.566   3.338  0.1679 -0.8112  0.1351
  644MOL0     C86862   5.487   1.634   3.231 -0.2631  0.0245 -0.2703
  644MOL0     C86863   5.616   1.583   3.176 -0.0554 -0.2302 -0.2372
  644MOL0     O86864   5.672   1.642   3.068 -0.2893 -0.1576  0.1842
  644MOL0     C86865   5.802   1.581   3.025  0.3591 -0.2684 -0.1403
  644MOL0     C86866   5.850   1.661   2.903  0.0532 -0.2754 -0.5449
  644MOL0     C86867   5.952   1.593   2.811 -0.0894  0.5196 -0.3066
  644MOL0     C86868   5.995   1.674   2.686 -1.0328  0.0337  0.2091
  644MOL0     C86869   5.883   1.684   2.586  0.0168 -0.0234  0.4624
  644MOL0     C86870   5.800   1.677   2.499  0.7568  1.1004 -0.4751
  644MOL0     C86871   5.659   1.466   3.234 -1.0462  0.4494 -0.0710
  644MOL0     C86872   5.587   1.397   3.329 -0.2050 -0.0529 -0.0964
  644MOL0     H86873   5.161   1.588   3.679 -0.7398 -0.9851  0.7239
  644MOL0     H86874   5.065   1.567   3.905  0.6101 -0.8539  2.3825
  644MOL0     H86875   4.859   1.333   4.113 -0.5747 -1.5603 -0.8136
  644MOL0     H86876   4.875   1.382   3.941  0.3144 -2.6792 -2.5694
  644MOL0     H86877   4.903   1.150   3.876  2.7331  1.7924 -0.0422
  644MOL0     H86878   4.934   1.103   4.051 -0.1796  0.2156  1.0513
  644MOL0     H86879   4.710   1.107   4.107 -1.5546  0.3342  0.5010
  644MOL0     H86880   4.664   1.216   3.980  1.2283  1.1719 -0.8631
  644MOL0     H86881   4.697   1.039   3.815  0.3714  0.1272 -0.1304
  644MOL0     H86882   4.765   0.927   3.937 -0.8586 -1.0562 -2.3526
  644MOL0     H86883   4.555   0.928   4.065 -0.6672  0.8372  0.2214
  644MOL0     H86884   4.489   1.044   3.960  0.2560  0.7029 -0.8858
  644MOL0     H86885   4.504   0.878   3.764 -1.9203 -0.0609 -0.6394
  644MOL0     H86886   4.590   0.767   3.867  1.8598  1.3611 -0.1599
  644MOL0     H86887   4.369   0.709   3.820  1.2838  1.2105 -1.3994
  644MOL0     H86888   4.411   0.710   3.995  2.3565  0.0042 -0.5959
  644MOL0     H86889   4.242   0.930   3.847 -3.1465 -2.2475 -0.8090
  644MOL0     H86890   4.273   0.910   4.025  0.7501  5.3213 -0.8687
  644MOL0     H86891   4.003   0.908   3.905 -1.6536 -1.2075  0.9133
  644MOL0     H86892   3.780   0.733   4.108  3.2115 -0.5135  0.1811
  644MOL0     H86893   3.737   0.760   3.935  1.9172  0.0925 -1.7594
  644MOL0     H86894   3.772   0.522   3.877  0.3039 -1.4039  0.4350
  644MOL0     H86895   3.623   0.576   3.952 -0.1755 -2.8854 -0.7822
  644MOL0     H86896   3.850   0.439   4.100 -0.7691 -2.9679 -0.2265
  644MOL0     H86897   3.707   0.353   4.035  0.6283  1.2471 -1.9594
  644MOL0     H86898   3.695   0.567   4.268 -5.5182  1.1545  0.0953
  644MOL0     H86899   3.673   0.391   4.265  1.0099 -0.6062  0.1644
  644MOL0     H86900   3.291   0.578   4.121  3.1304  0.3775  1.0617
  644MOL0     H86901   3.053   0.550   4.099 -2.2473  0.8394 -2.1631
  644MOL0     H86902   3.033   0.410   3.997  1.0583 -0.4167  0.8835
  644MOL0     H86903   2.957   0.402   4.152 -2.0153  1.1999 -3.1742
  644MOL0     H86904   2.857   0.021   4.230  0.5540  0.9768  1.3485
  644MOL0     H86905   2.730  -0.190   4.218  0.0819  0.6167  0.6153
  644MOL0     H86906   2.890  -0.561   4.354 -0.5446 -0.3214  0.3235
  644MOL0     H86907   2.803  -0.422   4.423  0.4837 -0.0191  0.4500
  644MOL0     H86908   2.582  -0.531   4.332 -0.2337  0.2216 -0.4662
  644MOL0     H86909   2.686  -0.666   4.278  3.2380 -0.7027  0.3715
  644MOL0     H86910   2.669  -0.595   4.569  1.3373  0.0867  0.8527
  644MOL0     H86911   2.780  -0.712   4.498  0.0858  2.6525  2.0748
  644MOL0     H86912   2.588  -0.844   4.408  0.6274 -0.6763  0.0810
  644MOL0     H86913   2.564  -0.824   4.577 -0.9911 -2.3300 -1.5486
  644MOL0     H86914   2.415  -0.674   4.360 -1.5427 -1.9699 -0.3926
  644MOL0     H86915   2.406  -0.629   4.531  2.0428  0.4609 -1.8989
  644MOL0     H86916   2.353  -0.879   4.582 -2.3318  0.5441  0.2052
  644MOL0     H86917   2.224  -0.807   4.499 -1.1506 -0.4152 -1.0043
  644MOL0     H86918   2.340  -1.042   4.392  1.8295 -0.2819 -0.7234
  644MOL0     H86919   2.397  -0.906   4.294  2.0440 -2.1530  2.0110
  644MOL0     H86920   2.180  -0.992   4.197 -2.6953 -0.6033  1.5793
  644MOL0     H86921   2.150  -0.840   4.267 -0.2049  0.4284 -0.7262
  644MOL0     H86922   3.079  -0.428   4.248 -0.7752 -1.0008  0.8223
  644MOL0     H86923   3.224  -0.213   4.253 -0.9563 -0.5236  1.8686
  644MOL0     H86924   3.357   0.094   4.213  0.2182 -0.0739  0.2463
  644MOL0     H86925   3.536   0.244   4.226 -0.4001 -3.2607 -2.6602
  644MOL0     H86926   5.206   1.172   3.930 -2.1609  0.5682  1.3785
  644MOL0     H86927   5.340   1.205   3.745 -0.2211 -0.0486  2.3977
  644MOL0     H86928   5.327   1.603   3.372  1.3564  0.8162  1.9549
  644MOL0     H86929   5.443   1.728   3.199  1.4606  1.1380  0.5392
  644MOL0     H86930   5.881   1.573   3.100  0.0120 -5.0324  0.0617
  644MOL0     H86931   5.780   1.477   2.997 -2.8082  0.1502  0.3383
  644MOL0     H86932   5.882   1.761   2.932 -1.4057  0.2013 -0.4733
  644MOL0     H86933   5.757   1.676   2.848 -0.6472  0.1064  0.6979
  644MOL0     H86934   5.909   1.500   2.773 -1.3317  0.5614  0.9268
  644MOL0     H86935   6.032   1.568   2.880 -0.2650  2.0215  0.4911
  644MOL0     H86936   6.088   1.633   2.645  0.8230  2.2062  1.9729
  644MOL0     H86937   6.016   1.778   2.713 -1.8427  0.6393 -1.3463
  644MOL0     H86938   5.725   1.655   2.426 -0.5075 -1.0939  1.3251
  644MOL0     H86939   5.754   1.418   3.212 -0.7204  0.0383  1.9889
  644MOL0     H86940   5.627   1.301   3.363 -0.5971  0.6107  2.4523
  645MOL0     O86941   9.725   6.182   4.054 -0.7765 -0.1333 -0.4103
  645MOL0     C86942   9.778   6.264   3.985  0.2922  0.5465 -0.8005
  645MOL0     O86943   9.712   6.368   3.932 -0.3689 -0.2663 -0.3932
  645MOL0     C86944   9.578   6.366   3.908 -0.2525 -0.9580  0.0194
  645MOL0     C86945   9.505   6.480   3.945 -0.2050  1.0028 -0.5667
  645MOL0     C86946   9.368   6.480   3.911  0.4325 -0.3960 -1.2866
  645MOL0     C86947   9.309   6.366   3.882  0.7321  0.3886  0.5215
  645MOL0     O86948   9.169   6.360   3.886  0.3244  0.2567  0.6349
  645MOL0     C86949   9.101   6.271   3.791 -0.1243 -0.1249 -0.6617
  645MOL0     C86950   8.955   6.298   3.774 -0.3677  0.1267 -0.2481
  645MOL0     C86951   8.927   6.427   3.698  1.0881 -1.2530 -0.6363
  645MOL0     C86952   8.775   6.447   3.690  0.1584  0.4429  0.0246
  645MOL0     C86953   8.735   6.592   3.677  0.4305 -0.0421 -0.0648
  645MOL0     C86954   8.580   6.622   3.657  0.2640 -0.8710 -0.4295
  645MOL0     C86955   8.533   6.617   3.513  0.9912  1.0541  0.2934
  645MOL0     C86956   8.384   6.570   3.519 -0.3116 -1.3748  0.2397
  645MOL0     N86957   8.356   6.437   3.575 -0.0547  0.5175 -0.2809
  645MOL0     C86958   8.437   6.324   3.548 -0.9733  0.4174 -0.6827
  645MOL0     C86959   8.384   6.229   3.629  0.6967  0.6541 -0.6581
  645MOL0     C86960   8.435   6.090   3.622 -0.3502 -0.2525  0.6522
  645MOL0     C86961   8.552   6.055   3.712 -0.2211 -0.1907  0.5446
  645MOL0     C86962   8.511   6.036   3.856 -0.8748  0.3326 -0.0368
  645MOL0     C86963   8.624   5.979   3.941 -0.4701  0.6962 -0.2480
  645MOL0     O86964   8.728   6.077   3.960  0.0389  0.8471 -0.4560
  645MOL0     C86965   8.845   6.000   3.983  0.1057  0.2609  0.7585
  645MOL0     C86966   8.890   5.966   4.104  0.4118  0.1667 -1.4437
  645MOL0     C86967   9.015   5.904   4.117 -0.3888  0.1099  0.0057
  645MOL0     C86968   9.069   5.902   4.260  0.0906  0.5320 -0.1961
  645MOL0     C86969   9.093   5.881   4.001  0.0613  0.0026  0.7467
  645MOL0     C86970   9.246   5.846   3.998 -0.1028  0.0102  0.4182
  645MOL0     O86971   9.294   5.831   3.865  0.2006  0.1989 -0.1855
  645MOL0     C86972   9.434   5.830   3.848 -0.5369  0.8936  0.7112
  645MOL0     C86973   9.470   5.717   3.775  0.6361 -0.5261  0.5485
  645MOL0     C86974   9.602   5.684   3.765 -0.0263  1.3070 -0.4371
  645MOL0     C86975   9.697   5.761   3.816 -0.8834 -0.2583  0.1509
  645MOL0     O86976   9.828   5.726   3.811  0.5937 -0.7566  1.1997
  645MOL0     C86977   9.872   5.592   3.780  0.2402 -0.6616  0.1862
  645MOL0     C86978  10.023   5.592   3.781  0.6314  0.5413  0.6600
  645MOL0     C86979  10.084   5.464   3.705 -0.7404  0.2846  0.0650
  645MOL0     C86980  10.236   5.449   3.704 -0.5269  0.8075 -0.3988
  645MOL0     C86981  10.276   5.325   3.641  0.2092  0.3711  0.5781
  645MOL0     C86982  10.426   5.297   3.621 -0.2086 -0.5439 -0.1377
  645MOL0     C86983  10.472   5.190   3.524  0.1294  0.8730  0.4881
  645MOL0     C86984  10.438   5.052   3.588 -0.4304 -0.4495 -0.0530
  645MOL0    Cl86985  10.493   4.928   3.466  0.2955  0.1258 -0.2534
  645MOL0     C86986   9.661   5.869   3.898 -0.2827 -0.0508  0.1772
  645MOL0     C86987   9.529   5.905   3.914  0.5772 -0.8742 -0.2288
  645MOL0     O86988   9.314   5.838   4.103  0.1127  0.6156  0.0398
  645MOL0     C86989   9.031   5.900   3.876 -0.1746  0.1739  0.5784
  645MOL0     C86990   8.905   5.967   3.863 -0.8294  0.1863  0.1200
  645MOL0     N86991   8.265   6.281   3.691  0.4602  0.4836  0.0395
  645MOL0     N86992   8.263   6.409   3.664  0.8770  0.8466  0.2227
  645MOL0     C86993   9.375   6.247   3.844 -0.9653 -0.7394  0.4486
  645MOL0     C86994   9.515   6.256   3.855 -0.0483 -0.3079  1.0821
  645MOL0     C86995   9.922   6.271   3.970 -0.8959 -0.3254 -0.1297
  645MOL0     C86996   9.997   6.171   4.034  0.0511  0.3522  0.9932
  645MOL0     C86997  10.143   6.177   4.031 -0.4703 -0.0434 -0.4850
  645MOL0     C86998  10.203   6.281   3.957 -0.4380 -0.8713  0.0737
  645MOL0     O86999  10.336   6.302   3.988  0.5720 -0.0710  0.0043
  645MOL0     C87000  10.420   6.402   3.910  0.6130 -0.4924 -0.1749
  645MOL0     C87001  10.570   6.376   3.944 -0.2486  0.0239 -0.8304
  645MOL0     C87002  10.669   6.413   3.835 -0.5904 -0.5101  0.1155
  645MOL0     C87003  10.809   6.375   3.860  0.1525  0.6789 -0.0480
  645MOL0     C87004  10.890   6.377   3.736 -0.0170  0.3666 -0.6966
  645MOL0     C87005  10.951   6.388   3.631  0.3289  0.1241  0.3713
  645MOL0     C87006  10.124   6.376   3.885 -0.8850 -0.2369 -0.5698
  645MOL0     C87007   9.984   6.367   3.891 -0.5455 -0.1949 -0.2623
  645MOL0     H87008   9.554   6.569   3.985  1.6515 -0.5864  0.8814
  645MOL0     H87009   9.307   6.568   3.932 -0.9494 -1.2625 -1.5447
  645MOL0     H87010   9.134   6.296   3.690 -2.1942 -0.3401 -1.4480
  645MOL0     H87011   9.121   6.167   3.818 -1.1245 -0.0106  0.6308
  645MOL0     H87012   8.907   6.217   3.719 -1.1194  0.9138 -0.7920
  645MOL0     H87013   8.909   6.299   3.873 -0.1802  2.2078 -0.1236
  645MOL0     H87014   8.970   6.515   3.747  0.7062 -1.6640  0.4640
  645MOL0     H87015   8.973   6.419   3.599 -0.1961 -0.3569 -1.3399
  645MOL0     H87016   8.727   6.393   3.608 -1.0012  0.5133  0.6343
  645MOL0     H87017   8.724   6.417   3.781 -3.5411  4.6031 -0.3442
  645MOL0     H87018   8.765   6.638   3.771  4.3680 -0.2698 -1.0269
  645MOL0     H87019   8.801   6.645   3.607  1.2301  1.2159  1.5616
  645MOL0     H87020   8.515   6.557   3.716 -0.4988 -0.1826 -0.4953
  645MOL0     H87021   8.565   6.726   3.690  3.8604 -0.0173 -1.0103
  645MOL0     H87022   8.555   6.703   3.449  0.9989  1.6347  1.0612
  645MOL0     H87023   8.585   6.535   3.462 -0.2909  0.2473  0.2299
  645MOL0     H87024   8.360   6.573   3.413  2.0155 -1.3221 -0.3420
  645MOL0     H87025   8.338   6.658   3.565  2.4602  1.1830 -1.4862
  645MOL0     H87026   8.525   6.308   3.488  0.2361  0.0410  1.1315
  645MOL0     H87027   8.339   6.039   3.637 -1.9374  1.5926 -2.3071
  645MOL0     H87028   8.448   6.074   3.515 -3.5321 -0.7175  0.2242
  645MOL0     H87029   8.617   6.142   3.701 -3.1421  2.0434 -0.4916
  645MOL0     H87030   8.598   5.962   3.679  0.3125  0.4078 -0.4230
  645MOL0     H87031   8.419   5.976   3.862 -0.1865 -0.6238  1.4216
  645MOL0     H87032   8.488   6.137   3.891 -3.1150  0.7893 -2.4689
  645MOL0     H87033   8.655   5.893   3.881 -2.9150 -0.6218  0.2611
  645MOL0     H87034   8.572   5.959   4.035 -1.2587  2.1689 -0.3279
  645MOL0     H87035   8.850   6.017   4.191  1.1596 -2.1652  0.3382
  645MOL0     H87036   9.171   5.941   4.256  0.8936 -1.4481 -0.0664
  645MOL0     H87037   9.007   5.962   4.327 -4.3794 -2.5628 -1.1382
  645MOL0     H87038   9.070   5.799   4.297 -1.6223  0.7086  0.4245
  645MOL0     H87039   9.391   5.652   3.737  2.1059 -2.1838  0.2003
  645MOL0     H87040   9.618   5.594   3.707 -3.3678  1.2607 -1.4850
  645MOL0     H87041   9.837   5.513   3.847  0.1088 -1.2499 -0.5616
  645MOL0     H87042   9.838   5.573   3.678  4.3063 -0.7374 -1.3396
  645MOL0     H87043  10.048   5.682   3.723 -0.6510  0.5148  0.0336
  645MOL0     H87044  10.046   5.599   3.888 -3.5825  1.0867  1.7054
  645MOL0     H87045  10.041   5.452   3.605 -2.1997  1.2576  0.5345
  645MOL0     H87046  10.041   5.383   3.764  1.6707  0.3036  1.9904
  645MOL0     H87047  10.267   5.531   3.639 -0.2091  1.4804  0.5686
  645MOL0     H87048  10.279   5.447   3.805 -1.5181  0.5533  0.0255
  645MOL0     H87049  10.241   5.329   3.538  3.8427  1.4573 -0.7847
  645MOL0     H87050  10.238   5.238   3.695  3.0048  0.6103  3.2682
  645MOL0     H87051  10.468   5.393   3.588 -2.9028 -0.1912 -3.0070
  645MOL0     H87052  10.470   5.294   3.721 -1.0673  3.0079  0.5045
  645MOL0     H87053  10.581   5.197   3.521  0.0289  2.4596 -0.1134
  645MOL0     H87054  10.435   5.198   3.421 -0.9547  0.7265  0.8470
  645MOL0     H87055  10.331   5.029   3.600 -0.6726  0.7103  0.0928
  645MOL0     H87056  10.485   5.042   3.686  2.7096  1.0532 -1.2536
  645MOL0     H87057   9.744   5.916   3.949  0.7658 -1.5249 -0.0927
  645MOL0     H87058   9.487   5.992   3.964  1.2911 -0.9617  0.5326
  645MOL0     H87059   9.095   5.880   3.790 -0.5310 -1.3168  0.6243
  645MOL0     H87060   8.863   5.993   3.767  0.4932  3.9129  0.3972
  645MOL0     H87061   9.321   6.156   3.820  1.1975 -1.1177 -4.2860
  645MOL0     H87062   9.568   6.165   3.830  0.4114  0.1124  0.4983
  645MOL0     H87063   9.942   6.096   4.089 -0.2017  1.7891  2.7947
  645MOL0     H87064  10.216   6.121   4.088 -0.5348 -2.4562 -2.5964
  645MOL0     H87065  10.399   6.415   3.803 -1.2445  0.7661  0.2882
  645MOL0     H87066  10.398   6.500   3.954 -1.0095 -2.8419  4.9930
  645MOL0     H87067  10.570   6.267   3.939  2.2474 -0.0081 -2.1170
  645MOL0     H87068  10.604   6.419   4.038  0.8203 -0.5457 -0.9358
  645MOL0     H87069  10.683   6.521   3.818  1.2382  0.7218  6.7154
  645MOL0     H87070  10.634   6.370   3.740 -0.2849 -2.0960  0.6953
  645MOL0     H87071  10.787   6.271   3.887 -1.0155  0.7708 -0.5678
  645MOL0     H87072  10.850   6.419   3.951 -0.1968 -0.5620  0.7425
  645MOL0     H87073  11.013   6.399   3.544 -0.8179 -1.6303 -0.7348
  645MOL0     H87074  10.168   6.443   3.812 -1.0209  0.5491  0.0629
  645MOL0     H87075   9.929   6.437   3.830 -1.2432 -2.0968 -1.9227
  646MOL0     O87076   1.718   0.056   7.725  0.2426  0.8273 -0.1042
  646MOL0     C87077   1.684  -0.062   7.721  0.0653  0.3590  0.6337
  646MOL0     O87078   1.597  -0.125   7.807 -0.0285 -0.5180  0.1156
  646MOL0     C87079   1.538  -0.040   7.895 -0.0626  0.2327 -1.0921
  646MOL0     C87080   1.605   0.043   7.988  0.5214 -0.0976 -0.5449
  646MOL0     C87081   1.529   0.098   8.099  0.1479  0.4557 -0.5645
  646MOL0     C87082   1.397   0.072   8.119 -0.4312 -0.2837 -0.8355
  646MOL0     O87083   1.337   0.140   8.228  0.3725  0.6714 -0.2004
  646MOL0     C87084   1.219   0.213   8.204  0.2841 -0.5252 -0.4171
  646MOL0     C87085   1.105   0.149   8.287  0.0197 -0.2596 -0.5029
  646MOL0     C87086   0.968   0.157   8.228 -0.5103 -0.6555 -0.6422
  646MOL0     C87087   0.867   0.154   8.345 -1.2149  0.1480  0.3311
  646MOL0     C87088   0.731   0.186   8.299  0.1195  0.0354  0.0044
  646MOL0     C87089   0.629   0.181   8.414 -0.4935  0.1541 -0.0779
  646MOL0     C87090   0.621   0.049   8.486  0.3628 -0.3472 -0.1159
  646MOL0     C87091   0.631   0.073   8.635 -0.0262 -1.1113 -1.2248
  646MOL0     N87092   0.624  -0.054   8.713  0.5733 -0.1767  0.4568
  646MOL0     C87093   0.722  -0.154   8.722  0.0336  0.6320  1.0647
  646MOL0     C87094   0.662  -0.249   8.789  0.0807  0.2081 -0.8407
  646MOL0     C87095   0.722  -0.379   8.812  0.0179 -0.0403  0.6708
  646MOL0     C87096   0.729  -0.465   8.682 -0.1159  0.6421  0.4207
  646MOL0     C87097   0.798  -0.597   8.718 -0.0195 -0.1433  0.3986
  646MOL0     C87098   0.814  -0.678   8.594 -0.0966 -0.6676  1.0070
  646MOL0     O87099   0.910  -0.606   8.505 -0.3773 -0.4768  0.3917
  646MOL0     C87100   0.864  -0.523   8.406 -0.8811 -0.6039  0.2669
  646MOL0     C87101   0.942  -0.413   8.368  0.5458  0.4171 -0.2800
  646MOL0     C87102   0.905  -0.322   8.268  0.3412 -0.0628 -0.3130
  646MOL0     C87103   1.010  -0.219   8.237  1.0329 -0.4935 -0.3499
  646MOL0     C87104   0.782  -0.339   8.194 -0.4005  0.3754 -1.0246
  646MOL0     C87105   0.740  -0.257   8.078 -0.4995  0.8321 -0.3364
  646MOL0     O87106   0.825  -0.160   8.035 -0.2917  0.2328  0.0227
  646MOL0     C87107   0.841  -0.137   7.902  0.3070  0.4512  0.4372
  646MOL0     C87108   0.879  -0.239   7.813 -0.7970  0.1272  0.6069
  646MOL0     C87109   0.924  -0.206   7.686 -0.4868 -0.2696 -0.6499
  646MOL0     C87110   0.920  -0.074   7.639  0.0809 -0.5416  0.0590
  646MOL0     O87111   0.962  -0.051   7.512 -0.5970  0.5646 -0.0695
  646MOL0     C87112   0.951   0.083   7.461  0.1641  0.1322  0.1796
  646MOL0     C87113   1.010   0.074   7.316  0.2155 -0.1429 -0.5419
  646MOL0     C87114   0.942  -0.022   7.224 -0.0486 -0.7282 -0.0321
  646MOL0     C87115   1.005   0.002   7.085 -0.5442 -0.0578 -0.0525
  646MOL0     C87116   0.945  -0.105   6.992  0.5364 -1.0269 -0.3824
  646MOL0     C87117   0.992  -0.094   6.842 -0.8551 -0.1038 -0.0753
  646MOL0     C87118   1.127  -0.154   6.824 -0.3021 -0.3501 -0.5041
  646MOL0     C87119   1.177  -0.145   6.684  0.2506 -0.0488  0.6408
  646MOL0    Cl87120   1.079  -0.215   6.560 -0.2212 -0.5596  0.1412
  646MOL0     C87121   0.890   0.033   7.730  0.0914  0.6528 -0.4479
  646MOL0     C87122   0.844  -0.007   7.860 -0.2033 -0.4788 -0.5163
  646MOL0     O87123   0.629  -0.280   8.022  0.4025 -0.6186  0.3988
  646MOL0     C87124   0.705  -0.451   8.238 -2.0058 -0.2258 -0.1947
  646MOL0     C87125   0.744  -0.539   8.342  0.5333  0.9186  0.1318
  646MOL0     N87126   0.525  -0.211   8.816  0.0932  0.0505  0.4167
  646MOL0     N87127   0.505  -0.096   8.762 -0.3744  0.5951 -0.1707
  646MOL0     C87128   1.331  -0.002   8.025  0.7407 -1.0609 -0.7795
  646MOL0     C87129   1.400  -0.066   7.922 -0.8009  0.8061 -0.0964
  646MOL0     C87130   1.731  -0.139   7.603 -0.6177  0.8905  0.1987
  646MOL0     C87131   1.836  -0.091   7.519  0.0748  1.1570 -0.4624
  646MOL0     C87132   1.860  -0.157   7.396  0.7556  0.0878 -0.2197
  646MOL0     C87133   1.809  -0.284   7.364  0.1403 -0.5999  0.2732
  646MOL0     O87134   1.860  -0.346   7.252  0.0729  0.3258  0.3039
  646MOL0     C87135   1.828  -0.480   7.215  0.6162 -0.2120 -0.6194
  646MOL0     C87136   1.950  -0.557   7.224 -0.2555  0.7375  0.0381
  646MOL0     C87137   1.989  -0.572   7.368 -0.9409  0.1621  0.2572
  646MOL0     C87138   2.124  -0.651   7.394  1.3022  0.0887  0.7571
  646MOL0     C87139   2.146  -0.663   7.532 -0.1872  0.5638 -1.0478
  646MOL0     C87140   2.182  -0.693   7.646  0.1400  0.2162 -0.8108
  646MOL0     C87141   1.725  -0.337   7.462  0.4348  0.0275  0.2077
  646MOL0     C87142   1.679  -0.262   7.570 -0.2032 -0.9563  0.8066
  646MOL0     H87143   1.712   0.062   7.977  0.5241  1.0208  0.9604
  646MOL0     H87144   1.578   0.169   8.164 -1.8259  0.1064  1.4072
  646MOL0     H87145   1.227   0.320   8.227 -0.7332 -0.3824 -0.6855
  646MOL0     H87146   1.188   0.207   8.099 -3.2003 -2.8747  0.5517
  646MOL0     H87147   1.126   0.043   8.304 -2.2814 -0.5358  1.1005
  646MOL0     H87148   1.110   0.200   8.384 -0.6162 -0.1218 -0.5391
  646MOL0     H87149   0.962   0.251   8.173  3.1261  2.3098  3.3119
  646MOL0     H87150   0.948   0.081   8.152 -0.3855  0.2336 -1.5879
  646MOL0     H87151   0.864   0.060   8.401  1.4902  0.3458  0.9450
  646MOL0     H87152   0.892   0.236   8.413 -4.2562  1.1379  0.4272
  646MOL0     H87153   0.737   0.291   8.267  1.1481 -0.8472 -3.0154
  646MOL0     H87154   0.694   0.124   8.217  0.4402 -1.6132  1.0630
  646MOL0     H87155   0.654   0.255   8.491 -2.1946 -0.7276  1.4301
  646MOL0     H87156   0.532   0.211   8.373  0.0820  1.2870 -0.6629
  646MOL0     H87157   0.527  -0.003   8.465 -0.0177  0.0263  0.5977
  646MOL0     H87158   0.692  -0.028   8.454  1.2578 -0.8698  2.8378
  646MOL0     H87159   0.551   0.140   8.668 -0.6566 -1.7263 -1.4913
  646MOL0     H87160   0.726   0.123   8.656 -1.0360 -0.3825  2.2864
  646MOL0     H87161   0.817  -0.160   8.669 -0.3535  3.0776 -0.0412
  646MOL0     H87162   0.819  -0.361   8.858 -0.7874  1.7442  1.8048
  646MOL0     H87163   0.659  -0.426   8.889  0.3532  0.7145  1.4225
  646MOL0     H87164   0.790  -0.413   8.608 -1.8631  0.9416 -0.8597
  646MOL0     H87165   0.626  -0.481   8.649  0.1291 -1.0269  0.3735
  646MOL0     H87166   0.747  -0.655   8.796  0.5700 -2.8132 -1.0875
  646MOL0     H87167   0.892  -0.568   8.765 -0.9206  1.2901  1.3824
  646MOL0     H87168   0.713  -0.696   8.554 -0.4108  0.6637  1.1590
  646MOL0     H87169   0.850  -0.776   8.627 -0.7482 -1.1570  0.3252
  646MOL0     H87170   1.038  -0.401   8.417  0.1687 -0.1740  0.6108
  646MOL0     H87171   0.977  -0.127   8.286  3.8000 -0.2512  1.2624
  646MOL0     H87172   1.105  -0.243   8.283  1.5040  1.4336 -0.2209
  646MOL0     H87173   1.021  -0.214   8.128  0.1615  1.4128 -0.4040
  646MOL0     H87174   0.885  -0.343   7.843  1.0802  0.0815  0.2007
  646MOL0     H87175   0.957  -0.289   7.625 -1.4917 -1.0370 -0.1823
  646MOL0     H87176   0.844   0.107   7.453  0.4146  1.0771 -0.6125
  646MOL0     H87177   1.015   0.149   7.521  0.7111 -0.5041  0.3010
  646MOL0     H87178   1.013   0.177   7.280 -3.2800  0.1609 -0.2693
  646MOL0     H87179   1.113   0.039   7.329  0.0101 -0.2009  1.1372
  646MOL0     H87180   0.833  -0.013   7.216 -0.0574 -0.6154  0.2070
  646MOL0     H87181   0.959  -0.125   7.256 -0.4574 -0.0197  2.7481
  646MOL0     H87182   0.970   0.101   7.053 -3.0290 -0.7146  0.4083
  646MOL0     H87183   1.114  -0.007   7.087 -0.6896 -2.5296  2.6127
  646MOL0     H87184   0.836  -0.109   6.991  0.4663  0.4743 -1.2808
  646MOL0     H87185   0.985  -0.202   7.024  2.6244 -0.5341 -1.3199
  646MOL0     H87186   0.920  -0.153   6.784 -0.1037 -1.9081  0.7510
  646MOL0     H87187   0.989   0.010   6.809  0.5452  0.0410  0.2301
  646MOL0     H87188   1.127  -0.256   6.863  3.1154 -0.2214  0.1375
  646MOL0     H87189   1.198  -0.125   6.902  2.0013 -4.7519 -0.6153
  646MOL0     H87190   1.264  -0.211   6.679  0.0938 -0.1956 -0.6131
  646MOL0     H87191   1.201  -0.040   6.664  2.1547 -0.9618 -2.5108
  646MOL0     H87192   0.896   0.139   7.708  1.8630  0.5330 -0.7014
  646MOL0     H87193   0.830   0.064   7.941 -1.8046 -0.7694 -0.5071
  646MOL0     H87194   0.608  -0.474   8.193 -2.4024 -1.9347  1.4095
  646MOL0     H87195   0.677  -0.622   8.362  1.5548 -0.3805 -1.5988
  646MOL0     H87196   1.224  -0.015   8.037  0.9220 -0.5891  2.3613
  646MOL0     H87197   1.345  -0.129   7.853 -1.4739  1.3262 -0.0525
  646MOL0     H87198   1.881   0.005   7.539  3.0757 -0.2429  0.0594
  646MOL0     H87199   1.931  -0.110   7.330 -0.2411  0.4770 -1.0392
  646MOL0     H87200   1.744  -0.519   7.271  2.1590 -1.7049  0.7556
  646MOL0     H87201   1.791  -0.482   7.112 -0.2520  1.2936 -0.3596
  646MOL0     H87202   2.030  -0.505   7.169  0.1156  1.0479  0.8527
  646MOL0     H87203   1.939  -0.655   7.176 -0.1792  0.4762  0.5489
  646MOL0     H87204   1.914  -0.628   7.424 -1.0702 -1.1965 -1.1984
  646MOL0     H87205   2.023  -0.478   7.413  0.4652 -0.6433  0.9270
  646MOL0     H87206   2.206  -0.607   7.337 -0.3114 -0.6845 -2.3974
  646MOL0     H87207   2.094  -0.744   7.345 -0.4197  1.2381 -0.5281
  646MOL0     H87208   2.225  -0.726   7.739 -2.2210 -0.6038  0.0620
  646MOL0     H87209   1.680  -0.434   7.440 -2.9608  1.8182 -1.4775
  646MOL0     H87210   1.593  -0.304   7.622 -2.3565 -0.1347 -1.8674
  647MOL0     O87211   3.960   6.917   0.530  0.2675 -0.2133  0.0306
  647MOL0     C87212   4.001   6.876   0.634  0.3114 -0.1617 -0.2649
  647MOL0     O87213   3.924   6.844   0.744  0.6604 -0.0960 -0.2783
  647MOL0     C87214   3.791   6.864   0.735  0.0774 -1.2574  0.1206
  647MOL0     C87215   3.707   6.764   0.703  0.0387  0.4330  0.4516
  647MOL0     C87216   3.568   6.780   0.685 -1.2419 -0.6401  0.0157
  647MOL0     C87217   3.511   6.910   0.680 -0.0668  0.3408  0.5821
  647MOL0     O87218   3.373   6.929   0.644 -0.7887 -0.3696 -0.0151
  647MOL0     C87219   3.335   7.062   0.603 -0.5995 -0.4757 -1.0405
  647MOL0     C87220   3.206   7.047   0.525  0.8851  0.3508  0.8869
  647MOL0     C87221   3.070   7.069   0.594  0.4784 -0.2529  0.3931
  647MOL0     C87222   2.962   7.098   0.490 -0.3344  0.3262 -0.0888
  647MOL0     C87223   2.828   7.142   0.545 -0.3062 -0.1351  0.4465
  647MOL0     C87224   2.763   7.042   0.644 -0.5770 -0.2981  0.1365
  647MOL0     C87225   2.624   7.071   0.702 -0.0492 -0.0092  0.0446
  647MOL0     C87226   2.569   6.949   0.787  0.3318  0.8345  0.3225
  647MOL0     N87227   2.647   6.926   0.904 -0.8135 -0.0373  0.1699
  647MOL0     C87228   2.697   6.816   0.966  0.3561 -0.0643 -0.7011
  647MOL0     C87229   2.747   6.854   1.092  0.2819  0.3021 -0.4641
  647MOL0     C87230   2.781   6.767   1.212 -0.1220  0.0658 -0.0042
  647MOL0     C87231   2.666   6.664   1.235 -1.0806  1.1104  0.1597
  647MOL0     C87232   2.706   6.527   1.183  0.2891 -0.3499  0.2631
  647MOL0     C87233   2.576   6.436   1.162  0.7760 -0.7137  0.9048
  647MOL0     O87234   2.488   6.470   1.055  0.2698  0.0795  1.2596
  647MOL0     C87235   2.368   6.536   1.078  0.4216 -0.1874  0.0312
  647MOL0     C87236   2.281   6.548   0.975 -0.0270  0.4218 -0.2903
  647MOL0     C87237   2.151   6.592   0.994  0.2146 -0.0225  0.2652
  647MOL0     C87238   2.062   6.579   0.873  0.7279 -0.2441  0.3124
  647MOL0     C87239   2.101   6.634   1.119 -0.7481  0.5580 -0.4750
  647MOL0     C87240   1.963   6.679   1.152  0.7254 -0.3207  0.1577
  647MOL0     O87241   1.927   6.690   1.281 -0.6838  0.3251 -0.5636
  647MOL0     C87242   1.796   6.703   1.309 -0.3906 -0.0831  0.5235
  647MOL0     C87243   1.719   6.594   1.330  0.0223  0.1494  0.6856
  647MOL0     C87244   1.576   6.607   1.345 -0.4281  0.1389  1.0342
  647MOL0     C87245   1.509   6.729   1.341 -0.1341 -0.9204 -0.1759
  647MOL0     O87246   1.380   6.735   1.384 -0.3720  0.0144 -0.0424
  647MOL0     C87247   1.306   6.839   1.314  0.4135 -0.4287 -0.4634
  647MOL0     C87248   1.151   6.823   1.318 -0.2789 -0.5929 -0.6090
  647MOL0     C87249   1.108   6.809   1.462 -0.5270  0.8139  0.4210
  647MOL0     C87250   0.962   6.846   1.485  0.8645 -1.1747 -0.3449
  647MOL0     C87251   0.926   6.806   1.633  0.1144 -0.1351  1.1097
  647MOL0     C87252   0.926   6.651   1.646  0.3716  1.3072 -0.1057
  647MOL0     C87253   0.839   6.613   1.772  0.2945 -0.5133 -0.0438
  647MOL0     C87254   0.840   6.469   1.825 -0.1674  0.3259  0.3987
  647MOL0    Cl87255   0.722   6.450   1.958 -0.0887 -0.1285  0.1667
  647MOL0     C87256   1.595   6.839   1.326 -0.2111  0.7556 -0.5762
  647MOL0     C87257   1.728   6.825   1.314 -0.2405 -0.1265  0.4064
  647MOL0     O87258   1.882   6.699   1.059  0.3579 -0.1993  0.1154
  647MOL0     C87259   2.195   6.624   1.222  0.0572  0.5452  0.1654
  647MOL0     C87260   2.321   6.577   1.200  0.2160 -0.1330  0.3472
  647MOL0     N87261   2.736   6.989   1.091 -0.3122 -0.7860 -0.0464
  647MOL0     N87262   2.675   7.033   0.989 -0.5762 -0.2722  0.2789
  647MOL0     C87263   3.588   7.018   0.723  0.3868  0.6101 -0.0861
  647MOL0     C87264   3.727   6.989   0.753  0.0785  0.4348 -0.5815
  647MOL0     C87265   4.152   6.854   0.626  0.6359  0.2336  0.4225
  647MOL0     C87266   4.221   6.806   0.737 -0.3006 -1.0233 -0.0231
  647MOL0     C87267   4.360   6.775   0.730 -0.6120 -0.6838  0.0377
  647MOL0     C87268   4.431   6.793   0.617  0.0764 -0.4162  0.2829
  647MOL0     O87269   4.552   6.741   0.616 -0.3869  0.2740 -0.2877
  647MOL0     C87270   4.661   6.806   0.556  0.8596  0.0461 -0.5583
  647MOL0     C87271   4.796   6.742   0.580  0.3003 -0.2738 -0.4441
  647MOL0     C87272   4.911   6.794   0.490  0.6730 -1.4947  0.3210
  647MOL0     C87273   4.950   6.940   0.533  0.9245  0.4293  0.1778
  647MOL0     C87274   5.049   6.991   0.442 -0.3894  0.3811 -0.1402
  647MOL0     C87275   5.123   7.034   0.356  1.1754 -1.2825  0.1299
  647MOL0     C87276   4.367   6.837   0.496  0.2417 -0.1637 -0.5023
  647MOL0     C87277   4.228   6.868   0.500  0.7379  0.9281  0.2886
  647MOL0     H87278   3.754   6.668   0.683 -0.6083 -0.0362  1.1401
  647MOL0     H87279   3.515   6.689   0.658 -0.7555 -0.0984 -3.1339
  647MOL0     H87280   3.314   7.126   0.690 -1.9657 -0.7938 -1.1272
  647MOL0     H87281   3.407   7.113   0.538 -0.3527  2.4712  1.3092
  647MOL0     H87282   3.212   7.119   0.443 -1.1538  1.7553  1.8585
  647MOL0     H87283   3.198   6.942   0.497  0.9834 -0.0300  2.2295
  647MOL0     H87284   3.045   6.980   0.653  2.4163 -1.6624 -0.7671
  647MOL0     H87285   3.075   7.149   0.668  0.4864 -0.5253  0.6938
  647MOL0     H87286   2.992   7.173   0.416 -0.8979 -0.1494 -0.8116
  647MOL0     H87287   2.949   7.003   0.437  0.9222 -0.0447  0.2335
  647MOL0     H87288   2.831   7.243   0.586  0.7805 -0.5273  1.4089
  647MOL0     H87289   2.758   7.145   0.461 -1.0694  1.4708  1.1091
  647MOL0     H87290   2.756   6.943   0.597 -2.8693 -0.8562  1.4984
  647MOL0     H87291   2.835   7.039   0.726  1.0717  1.4030 -1.1508
  647MOL0     H87292   2.629   7.161   0.763  1.9898 -0.3206  0.4064
  647MOL0     H87293   2.556   7.094   0.620  0.1036  3.6660  0.7653
  647MOL0     H87294   2.578   6.857   0.729  0.9328  1.0458  0.0603
  647MOL0     H87295   2.467   6.970   0.818  0.4837  1.1012  0.6526
  647MOL0     H87296   2.679   6.712   0.942 -2.4946  0.1408  0.1964
  647MOL0     H87297   2.877   6.717   1.202 -0.9863 -2.2096  2.1590
  647MOL0     H87298   2.778   6.834   1.299 -1.2525  0.5444 -0.3951
  647MOL0     H87299   2.569   6.688   1.190 -2.2899 -2.3033  0.6850
  647MOL0     H87300   2.643   6.650   1.341  0.3447  0.4825  0.4078
  647MOL0     H87301   2.776   6.484   1.256  0.2750 -0.3876  0.2547
  647MOL0     H87302   2.769   6.528   1.094 -0.3937 -0.7998 -0.2313
  647MOL0     H87303   2.528   6.423   1.260  0.9083  1.2209  1.2805
  647MOL0     H87304   2.627   6.342   1.140 -0.6785 -1.1804 -0.6391
  647MOL0     H87305   2.308   6.511   0.876 -0.9628  1.0993 -0.8099
  647MOL0     H87306   2.121   6.562   0.783 -2.9525  2.2411 -2.8666
  647MOL0     H87307   1.981   6.506   0.882 -2.4372  2.6438 -2.2779
  647MOL0     H87308   2.009   6.674   0.862  1.1560  0.4519  3.2014
  647MOL0     H87309   1.776   6.502   1.320  2.5107  1.6046  0.7734
  647MOL0     H87310   1.517   6.516   1.352 -0.5693  0.2411  1.1771
  647MOL0     H87311   1.328   6.936   1.358  0.5909 -1.2512  1.3480
  647MOL0     H87312   1.347   6.842   1.212 -0.6426 -2.5893 -1.0144
  647MOL0     H87313   1.112   6.919   1.283 -0.3184  0.0909  1.1902
  647MOL0     H87314   1.115   6.740   1.257 -0.1988 -0.1805 -1.2345
  647MOL0     H87315   1.159   6.887   1.520  0.3540 -0.0997  0.8930
  647MOL0     H87316   1.133   6.709   1.499  2.0363  0.1671 -2.7013
  647MOL0     H87317   0.937   6.951   1.470 -1.3155 -1.5013  0.7033
  647MOL0     H87318   0.895   6.790   1.419 -1.3145  0.9736 -0.0766
  647MOL0     H87319   0.822   6.839   1.645  0.1906  0.9938 -0.7393
  647MOL0     H87320   0.990   6.859   1.703  2.0373 -2.1212  0.9469
  647MOL0     H87321   0.897   6.599   1.555 -1.8880  2.0876  0.1137
  647MOL0     H87322   1.020   6.601   1.669 -1.1361 -1.1272  1.1711
  647MOL0     H87323   0.733   6.634   1.753 -0.1150 -4.1597 -2.9043
  647MOL0     H87324   0.865   6.679   1.855 -0.7943 -1.6084  1.2201
  647MOL0     H87325   0.944   6.438   1.842 -0.2741  0.3428  1.1208
  647MOL0     H87326   0.803   6.399   1.750  1.7735  0.6143 -0.8933
  647MOL0     H87327   1.560   6.942   1.338 -1.9707  0.3797 -2.1237
  647MOL0     H87328   1.790   6.909   1.285  1.6677 -1.4155  0.5264
  647MOL0     H87329   2.173   6.655   1.323  0.4833 -1.2198  0.8271
  647MOL0     H87330   2.387   6.568   1.286  0.9102 -3.7329 -0.4129
  647MOL0     H87331   3.552   7.120   0.729  0.6983  0.7145  0.0292
  647MOL0     H87332   3.801   7.063   0.782  1.5956 -1.3109  0.2064
  647MOL0     H87333   4.170   6.800   0.833  1.5355 -1.2539  0.9720
  647MOL0     H87334   4.404   6.740   0.823  2.2078 -0.4711 -1.1210
  647MOL0     H87335   4.642   6.817   0.449  0.5876  1.5628 -0.3703
  647MOL0     H87336   4.664   6.912   0.584  0.9299 -0.4224  1.3406
  647MOL0     H87337   4.787   6.636   0.555  3.1195 -0.9597  0.9995
  647MOL0     H87338   4.825   6.743   0.686 -0.3979  0.9657 -0.2532
  647MOL0     H87339   4.895   6.793   0.382  1.3744 -1.4449  0.2104
  647MOL0     H87340   4.990   6.724   0.519  1.5697 -0.0214  1.6227
  647MOL0     H87341   4.994   6.945   0.633  4.6907  0.5344 -1.2938
  647MOL0     H87342   4.861   7.003   0.530 -1.2950 -2.5042 -2.0961
  647MOL0     H87343   5.189   7.092   0.294  0.3208 -0.2522  0.1511
  647MOL0     H87344   4.410   6.835   0.396  0.8377  0.3138 -0.2636
  647MOL0     H87345   4.173   6.898   0.412 -0.4959  1.0475  1.0783
  648MOL0     O87346   2.131   8.719   7.044 -0.4823 -0.4487  0.4167
  648MOL0     C87347   2.155   8.647   7.143  0.3054 -0.6932 -0.0892
  648MOL0     O87348   2.092   8.670   7.270 -0.1064 -0.6047  0.4329
  648MOL0     C87349   2.004   8.773   7.273 -0.0140  0.3739  1.1611
  648MOL0     C87350   2.045   8.897   7.320 -0.3677 -0.2470 -0.2115
  648MOL0     C87351   1.947   9.002   7.323 -0.9549  0.8461  0.3899
  648MOL0     C87352   1.816   8.984   7.274  0.6509  1.2787  0.4748
  648MOL0     O87353   1.731   9.096   7.272 -0.4082 -0.4496  0.2833
  648MOL0     C87354   1.591   9.066   7.286 -0.4685  0.2785  0.4889
  648MOL0     C87355   1.527   9.186   7.369  0.2282 -0.7047 -0.3852
  648MOL0     C87356   1.372   9.190   7.382 -0.1453  0.2280  0.8460
  648MOL0     C87357   1.313   9.193   7.245 -0.3900 -0.0660  0.6528
  648MOL0     C87358   1.180   9.272   7.233 -0.4026  0.5096  0.0410
  648MOL0     C87359   1.194   9.420   7.245 -0.7168  0.2413 -0.0912
  648MOL0     C87360   1.078   9.496   7.316 -0.4053  0.8161 -0.6871
  648MOL0     C87361   1.068   9.488   7.475 -0.2638  0.6136  0.4456
  648MOL0     N87362   0.924   9.483   7.525 -0.4999 -0.2768 -0.4038
  648MOL0     C87363   0.881   9.383   7.607  0.2434 -0.4591  0.5886
  648MOL0     C87364   0.748   9.408   7.606  1.2804  0.0675 -0.6532
  648MOL0     C87365   0.655   9.333   7.702  0.1564  0.5051 -0.3735
  648MOL0     C87366   0.630   9.187   7.665 -0.0342 -0.3148 -0.0632
  648MOL0     C87367   0.563   9.177   7.529 -0.1312  1.1941 -0.1562
  648MOL0     C87368   0.483   9.047   7.522 -0.1906 -0.7142 -0.4313
  648MOL0     O87369   0.391   9.058   7.407 -0.5095  0.2420  0.0206
  648MOL0     C87370   0.265   9.111   7.434 -0.8903  0.2077 -0.1352
  648MOL0     C87371   0.222   9.194   7.534 -0.0327 -0.2120 -0.3981
  648MOL0     C87372   0.099   9.255   7.545  0.8902 -0.2838 -0.0668
  648MOL0     C87373   0.096   9.363   7.654 -0.1703  0.8910  0.0319
  648MOL0     C87374   0.001   9.222   7.452 -0.4539  0.1963  0.8862
  648MOL0     C87375  -0.147   9.273   7.456  0.2285  0.1506 -0.0469
  648MOL0     O87376  -0.228   9.206   7.374  0.5758  0.5893  0.3602
  648MOL0     C87377  -0.361   9.243   7.380 -0.7903  0.5675  0.0575
  648MOL0     C87378  -0.403   9.340   7.295 -0.6038 -0.4773  0.4841
  648MOL0     C87379  -0.536   9.392   7.296  0.0045  0.8894  0.0584
  648MOL0     C87380  -0.625   9.332   7.386 -0.6283 -0.1272 -0.5540
  648MOL0     O87381  -0.755   9.375   7.399  0.0272 -0.3729  0.3590
  648MOL0     C87382  -0.773   9.495   7.484 -0.3741  0.0041 -0.6539
  648MOL0     C87383  -0.797   9.610   7.393  0.7415 -0.6664 -0.1915
  648MOL0     C87384  -0.947   9.619   7.339  0.1000  0.5384 -0.3074
  648MOL0     C87385  -0.962   9.720   7.222 -0.9776 -0.1679  0.2080
  648MOL0     C87386  -1.104   9.717   7.175 -0.4084 -0.0068  0.5422
  648MOL0     C87387  -1.144   9.823   7.070  0.5327  0.2543  0.3304
  648MOL0     C87388  -1.296   9.807   7.033  0.4329  0.5891 -0.3835
  648MOL0     C87389  -1.301   9.768   6.883  0.0579 -0.3262 -0.8432
  648MOL0    Cl87390  -1.452   9.673   6.840 -0.0340 -0.1524 -0.4516
  648MOL0     C87391  -0.576   9.233   7.479  0.5822 -1.0213  0.5468
  648MOL0     C87392  -0.446   9.191   7.475 -0.0700 -0.4223 -0.5853
  648MOL0     O87393  -0.168   9.364   7.532  1.3394 -0.2586 -0.2535
  648MOL0     C87394   0.037   9.127   7.347 -0.9852  0.2901 -0.4837
  648MOL0     C87395   0.168   9.073   7.338 -0.4907 -0.6473  0.1354
  648MOL0     N87396   0.711   9.513   7.521 -0.0988  0.2212 -0.0471
  648MOL0     N87397   0.823   9.557   7.473  0.2769 -0.1078 -0.0612
  648MOL0     C87398   1.783   8.856   7.218  0.6597 -0.4542  0.4820
  648MOL0     C87399   1.871   8.749   7.225 -0.9117  0.5519 -0.2436
  648MOL0     C87400   2.208   8.516   7.126  0.0068 -0.1267  1.1711
  648MOL0     C87401   2.205   8.408   7.228  0.3027  0.4946 -0.1595
  648MOL0     C87402   2.257   8.281   7.218 -0.2798 -0.4112  0.1859
  648MOL0     C87403   2.315   8.249   7.101  0.3502 -0.0289 -0.0870
  648MOL0     O87404   2.368   8.129   7.076 -0.2416  0.4265 -0.6594
  648MOL0     C87405   2.418   8.048   7.181  0.3515  0.2497 -1.2560
  648MOL0     C87406   2.445   7.905   7.120  0.4413 -0.7691 -1.0742
  648MOL0     C87407   2.589   7.887   7.067 -0.5599  0.2291 -0.1090
  648MOL0     C87408   2.703   7.877   7.172 -1.3292  0.3333  0.5804
  648MOL0     C87409   2.832   7.870   7.108 -0.7785  0.0839  0.3340
  648MOL0     C87410   2.943   7.889   7.064  0.2196 -0.7240  0.5797
  648MOL0     C87411   2.320   8.340   6.989  0.0435 -0.3216  0.1559
  648MOL0     C87412   2.276   8.479   7.003 -0.2404  0.2475  0.0991
  648MOL0     H87413   2.144   8.919   7.358 -0.5107 -0.6418  0.4074
  648MOL0     H87414   1.973   9.105   7.343  0.6250  0.6289 -0.3911
  648MOL0     H87415   1.553   9.050   7.185  0.1523  0.6801  0.1823
  648MOL0     H87416   1.566   8.974   7.338  1.0559  1.2545  3.1480
  648MOL0     H87417   1.560   9.182   7.474  2.5118  2.2349 -0.8777
  648MOL0     H87418   1.569   9.278   7.327 -0.2949  0.1039  0.8141
  648MOL0     H87419   1.314   9.111   7.430 -0.4938 -0.7780 -1.1657
  648MOL0     H87420   1.337   9.280   7.433 -4.1938 -0.6252 -0.1014
  648MOL0     H87421   1.384   9.239   7.176  0.5481 -2.8382 -0.3338
  648MOL0     H87422   1.304   9.088   7.215 -1.4279  0.8829 -2.7352
  648MOL0     H87423   1.142   9.260   7.131  3.8822 -0.7588 -1.6123
  648MOL0     H87424   1.110   9.231   7.306 -1.4955 -1.8881 -2.1929
  648MOL0     H87425   1.287   9.446   7.296 -0.1782 -1.7341 -0.0067
  648MOL0     H87426   1.194   9.468   7.146  0.6958  4.2321  1.6375
  648MOL0     H87427   1.081   9.605   7.308  0.0939  0.9092  0.5364
  648MOL0     H87428   0.985   9.452   7.278 -0.1593  0.1000 -0.4875
  648MOL0     H87429   1.122   9.576   7.512 -2.0274  2.8909 -1.9956
  648MOL0     H87430   1.112   9.394   7.511 -2.0004 -0.1059  0.8127
  648MOL0     H87431   0.936   9.301   7.651  0.9095  0.3115  1.2256
  648MOL0     H87432   0.684   9.350   7.807 -3.2030  2.9347  0.3413
  648MOL0     H87433   0.555   9.376   7.710 -0.4674 -1.1525  2.1317
  648MOL0     H87434   0.577   9.131   7.742  0.6049 -0.5610  0.2111
  648MOL0     H87435   0.729   9.142   7.653  0.3887  1.1357 -3.0975
  648MOL0     H87436   0.635   9.174   7.446 -1.9095 -2.1245 -1.7700
  648MOL0     H87437   0.503   9.264   7.502 -1.8744 -0.0009 -0.3073
  648MOL0     H87438   0.436   9.014   7.615  1.1070  3.5365  2.0020
  648MOL0     H87439   0.561   8.974   7.501  2.3717  1.2794  1.4229
  648MOL0     H87440   0.305   9.213   7.601 -0.2114  1.2969 -0.5573
  648MOL0     H87441   0.041   9.315   7.735 -0.1919  1.0100  0.0877
  648MOL0     H87442   0.197   9.387   7.692 -0.3590  0.6509  0.7053
  648MOL0     H87443   0.050   9.456   7.620 -2.9498  0.9433  3.3528
  648MOL0     H87444  -0.324   9.390   7.239 -1.4986 -0.5830 -0.9423
  648MOL0     H87445  -0.564   9.476   7.233  0.1250  2.0921  1.5386
  648MOL0     H87446  -0.839   9.497   7.571 -0.6118  0.9546 -0.8534
  648MOL0     H87447  -0.674   9.497   7.531 -0.1530 -2.3886 -0.8471
  648MOL0     H87448  -0.783   9.707   7.441 -1.0146 -1.5054  2.1998
  648MOL0     H87449  -0.729   9.609   7.308 -0.0974 -2.4981 -0.9041
  648MOL0     H87450  -1.014   9.640   7.423 -0.0769 -0.1225 -0.2785
  648MOL0     H87451  -0.973   9.520   7.301 -2.9582  1.1030  0.0885
  648MOL0     H87452  -0.922   9.818   7.250  0.0903 -0.9627  1.5434
  648MOL0     H87453  -0.904   9.677   7.140 -2.0022 -1.8445  0.3133
  648MOL0     H87454  -1.165   9.713   7.266 -1.4537 -3.9192 -0.1408
  648MOL0     H87455  -1.136   9.624   7.126 -0.2299  0.2104  0.0003
  648MOL0     H87456  -1.137   9.917   7.127 -2.0707 -0.3830  1.8448
  648MOL0     H87457  -1.072   9.823   6.987 -1.7114  4.9103 -2.0094
  648MOL0     H87458  -1.359   9.894   7.052  0.4225  0.1659  1.8694
  648MOL0     H87459  -1.336   9.722   7.088 -1.6916 -0.1260 -2.8335
  648MOL0     H87460  -1.213   9.707   6.859  0.0555 -1.6438  2.1528
  648MOL0     H87461  -1.300   9.857   6.818 -0.9383 -1.1363 -2.0302
  648MOL0     H87462  -0.642   9.189   7.553 -2.7318  0.4739 -1.2718
  648MOL0     H87463  -0.409   9.117   7.546 -0.1384  2.5924  2.8935
  648MOL0     H87464  -0.039   9.093   7.278 -0.2181 -1.2708 -0.6208
  648MOL0     H87465   0.187   9.016   7.249 -2.7705 -1.1827 -0.0882
  648MOL0     H87466   1.684   8.836   7.179  0.9344  0.4266 -0.7463
  648MOL0     H87467   1.850   8.647   7.194  0.4563  0.4419 -0.8889
  648MOL0     H87468   2.155   8.429   7.322  0.7737  0.8340  0.0116
  648MOL0     H87469   2.241   8.216   7.304 -0.9580  1.1316  1.2804
  648MOL0     H87470   2.510   8.076   7.233 -0.3517 -0.4310  0.4184
  648MOL0     H87471   2.348   8.039   7.265 -1.5660 -0.6991 -2.8865
  648MOL0     H87472   2.372   7.894   7.039  0.4409  0.7804 -1.3317
  648MOL0     H87473   2.422   7.833   7.199  1.4259 -1.2257 -1.1855
  648MOL0     H87474   2.607   7.960   6.987 -0.2939  0.7503  0.4258
  648MOL0     H87475   2.593   7.796   7.005 -0.4906  2.2218 -3.2773
  648MOL0     H87476   2.690   7.795   7.243  0.9728  0.2955  1.0392
  648MOL0     H87477   2.702   7.969   7.231 -0.0136  1.9137 -1.7155
  648MOL0     H87478   3.042   7.895   7.023 -0.4034 -4.7465 -2.0620
  648MOL0     H87479   2.359   8.301   6.896  0.3034 -2.0820  0.9755
  648MOL0     H87480   2.303   8.546   6.922  1.7139  1.3679  1.5895
  649MOL0     O87481   6.164   8.386   9.931  0.0566  0.3155 -0.0299
  649MOL0     C87482   6.152   8.321  10.032 -0.1471 -0.3566 -0.0651
  649MOL0     O87483   6.124   8.185  10.038  0.4646 -0.0956  0.6255
  649MOL0     C87484   6.103   8.122   9.911 -0.0937 -0.4381 -0.6813
  649MOL0     C87485   5.991   8.157   9.842  0.6112  0.5007  0.5703
  649MOL0     C87486   5.966   8.097   9.721 -0.3721 -0.1717  0.6055
  649MOL0     C87487   6.054   7.996   9.671  0.8632 -0.5630 -0.7120
  649MOL0     O87488   6.038   7.942   9.546  0.7487 -0.1306  0.9686
  649MOL0     C87489   5.922   7.982   9.463 -0.1826 -0.9978 -0.0843
  649MOL0     C87490   5.922   7.904   9.341 -0.1616 -0.5715  0.5964
  649MOL0     C87491   5.840   7.980   9.229  1.1988 -0.7414  0.1552
  649MOL0     C87492   5.687   7.955   9.257 -0.1074  0.2413  0.8867
  649MOL0     C87493   5.591   8.047   9.181 -0.8767  0.6129  0.6436
  649MOL0     C87494   5.527   8.168   9.254  0.7323 -0.3233 -0.3339
  649MOL0     C87495   5.420   8.252   9.163  0.2912  0.6080 -0.2599
  649MOL0     C87496   5.400   8.381   9.227  0.0008 -1.1902 -1.1429
  649MOL0     N87497   5.308   8.399   9.334 -0.4336  0.1960  0.8601
  649MOL0     C87498   5.197   8.314   9.351  0.3908  0.2866  0.2683
  649MOL0     C87499   5.147   8.374   9.461  0.1273 -0.4548  0.3121
  649MOL0     C87500   5.015   8.333   9.531  0.6126  0.2564  0.8782
  649MOL0     C87501   4.903   8.322   9.423  0.0233  0.0815  0.4803
  649MOL0     C87502   4.847   8.456   9.381  0.5011 -0.1616  0.5202
  649MOL0     C87503   4.762   8.532   9.487  0.3239  0.4029 -0.0687
  649MOL0     O87504   4.636   8.464   9.507 -0.4595 -0.4004 -0.5428
  649MOL0     C87505   4.547   8.506   9.600  0.5872 -1.0641  0.4954
  649MOL0     C87506   4.561   8.613   9.679  0.1142  0.0644  0.4192
  649MOL0     C87507   4.452   8.659   9.760  0.3702  0.3800 -0.5940
  649MOL0     C87508   4.471   8.773   9.846 -0.9651 -0.1431 -0.3967
  649MOL0     C87509   4.330   8.583   9.746  0.3098 -0.7997  0.2351
  649MOL0     C87510   4.203   8.638   9.814  0.4144 -0.3952  0.4192
  649MOL0     O87511   4.110   8.543   9.826 -0.0052  0.0386 -1.0243
  649MOL0     C87512   3.997   8.573   9.908  0.3063 -0.0889  0.1301
  649MOL0     C87513   3.999   8.650  10.027  0.6520  0.3374  1.2927
  649MOL0     C87514   3.881   8.679  10.089 -0.1217  0.0378  0.0304
  649MOL0     C87515   3.754   8.633  10.040 -0.0373 -0.0304  0.3122
  649MOL0     O87516   3.646   8.659  10.115 -0.3265 -0.1410 -0.5813
  649MOL0     C87517   3.540   8.563  10.122 -0.2867  0.2934  0.5390
  649MOL0     C87518   3.456   8.589  10.245 -0.3515 -0.3387 -0.0375
  649MOL0     C87519   3.316   8.508  10.239 -0.1102  0.5480 -0.8893
  649MOL0     C87520   3.291   8.439  10.365 -0.5677 -0.4428  0.4192
  649MOL0     C87521   3.145   8.387  10.384  0.0189  0.2085  0.2569
  649MOL0     C87522   3.130   8.259  10.477  0.4053  0.3769 -0.3172
  649MOL0     C87523   2.983   8.237  10.518  0.2824  0.5577 -0.3697
  649MOL0     C87524   2.985   8.146  10.643  0.4634 -0.8470  0.3686
  649MOL0    Cl87525   3.036   8.227  10.795 -0.6489 -0.5102 -0.3294
  649MOL0     C87526   3.757   8.559   9.922  0.6651  0.8172  1.0278
  649MOL0     C87527   3.876   8.518   9.863  0.7213  0.6252  1.3784
  649MOL0     O87528   4.189   8.760   9.843  0.2865  0.6263  0.1694
  649MOL0     C87529   4.322   8.466   9.671 -0.1349  0.3027 -0.3967
  649MOL0     C87530   4.429   8.427   9.591 -0.3207 -0.3163 -0.0443
  649MOL0     N87531   5.232   8.469   9.513  0.4501  0.1466  0.5793
  649MOL0     N87532   5.342   8.472   9.444  0.7391  1.1864 -0.1354
  649MOL0     C87533   6.167   7.965   9.747  1.1462  0.2545 -0.8530
  649MOL0     C87534   6.190   8.027   9.873 -0.4665  0.7855 -0.7120
  649MOL0     C87535   6.189   8.378  10.167 -0.9093  0.0563  0.3695
  649MOL0     C87536   6.159   8.314  10.285 -0.1663 -0.2370 -0.1628
  649MOL0     C87537   6.217   8.357  10.404  0.2188  0.6968 -0.3905
  649MOL0     C87538   6.286   8.476  10.414 -0.0471  0.0376 -0.3617
  649MOL0     O87539   6.328   8.506  10.542 -0.0520 -0.5604 -1.0571
  649MOL0     C87540   6.390   8.641  10.576  0.0872 -0.0407 -0.6508
  649MOL0     C87541   6.402   8.647  10.727 -0.6546  0.3731  0.0567
  649MOL0     C87542   6.521   8.563  10.782 -1.0584  0.2441 -0.2733
  649MOL0     C87543   6.663   8.578  10.709 -0.4450 -0.0960  0.1176
  649MOL0     C87544   6.711   8.718  10.710 -0.2950  0.5292 -0.7176
  649MOL0     C87545   6.741   8.833  10.699 -0.2400 -0.4898 -0.2302
  649MOL0     C87546   6.304   8.551  10.300 -0.4071 -0.4094  0.1778
  649MOL0     C87547   6.258   8.502  10.176  0.0725 -0.4354  0.4491
  649MOL0     H87548   5.932   8.238   9.884  0.3598  0.4494  0.3142
  649MOL0     H87549   5.879   8.134   9.666  0.2160  0.2398 -0.0590
  649MOL0     H87550   5.825   7.978   9.514 -0.4540  0.1507 -0.4955
  649MOL0     H87551   5.919   8.084   9.424 -1.9126 -1.5380 -1.5041
  649MOL0     H87552   6.026   7.888   9.309  0.0333  3.2869 -1.2931
  649MOL0     H87553   5.865   7.811   9.346 -0.9729 -0.1294 -0.2337
  649MOL0     H87554   5.864   8.087   9.230 -2.2401  0.1449  1.5160
  649MOL0     H87555   5.860   7.945   9.127 -0.8984 -0.0660 -0.5551
  649MOL0     H87556   5.651   7.858   9.221 -3.9093  1.9567 -0.4741
  649MOL0     H87557   5.669   7.957   9.365 -3.0659 -3.4341  0.6741
  649MOL0     H87558   5.653   8.097   9.106 -1.2565 -2.7891 -2.2203
  649MOL0     H87559   5.509   7.992   9.134  0.0382  0.5222 -0.9306
  649MOL0     H87560   5.461   8.133   9.334 -0.3959 -1.8646 -1.8340
  649MOL0     H87561   5.598   8.235   9.303 -2.2237  2.1779  0.8480
  649MOL0     H87562   5.457   8.259   9.060  0.5805 -1.4322 -0.3423
  649MOL0     H87563   5.330   8.194   9.141  1.4167 -0.5780 -2.0210
  649MOL0     H87564   5.380   8.449   9.144  0.3691 -0.0877 -0.3594
  649MOL0     H87565   5.496   8.413   9.270 -1.4481  0.2478  1.2672
  649MOL0     H87566   5.162   8.232   9.290 -0.6325  1.2691 -0.4905
  649MOL0     H87567   5.018   8.232   9.574 -1.5562  0.4137  1.4788
  649MOL0     H87568   4.982   8.408   9.603 -2.9926  0.9475 -1.2593
  649MOL0     H87569   4.822   8.261   9.464  0.8890  0.0443  2.2549
  649MOL0     H87570   4.942   8.273   9.334  0.9539 -0.4995  1.1893
  649MOL0     H87571   4.782   8.449   9.293 -0.3402  0.0571  1.1052
  649MOL0     H87572   4.929   8.524   9.354 -0.1979  0.4630 -0.1129
  649MOL0     H87573   4.767   8.636   9.453 -2.1127  0.0390 -1.8204
  649MOL0     H87574   4.819   8.531   9.581 -0.3881 -1.6240  0.3904
  649MOL0     H87575   4.656   8.662   9.697 -1.2562  2.2675  2.2753
  649MOL0     H87576   4.577   8.793   9.866 -0.9075 -2.1014  1.5418
  649MOL0     H87577   4.444   8.862   9.789  1.0000  0.8652  0.1432
  649MOL0     H87578   4.421   8.767   9.943 -1.9716  2.3238 -0.6940
  649MOL0     H87579   4.097   8.671  10.069  1.3887 -0.3441 -0.0252
  649MOL0     H87580   3.898   8.732  10.183 -4.0672 -0.1447  1.0567
  649MOL0     H87581   3.474   8.562  10.035 -0.7479 -0.3135  0.8817
  649MOL0     H87582   3.590   8.466  10.132  1.1698  0.9928  0.1469
  649MOL0     H87583   3.509   8.564  10.337 -2.2647 -2.9662  0.4517
  649MOL0     H87584   3.426   8.692  10.268 -1.0677 -0.3918 -0.6897
  649MOL0     H87585   3.328   8.428  10.165 -0.8013  0.2141 -0.6397
  649MOL0     H87586   3.230   8.573  10.219 -0.8680  0.0784  0.7347
  649MOL0     H87587   3.371   8.367  10.383 -1.6246 -2.6480 -2.8256
  649MOL0     H87588   3.305   8.513  10.445 -3.1534 -0.7038  1.2087
  649MOL0     H87589   3.103   8.364  10.286  1.1209  3.9842 -1.2967
  649MOL0     H87590   3.083   8.469  10.422  1.0461  1.7798 -1.3021
  649MOL0     H87591   3.171   8.170  10.427 -2.8525 -0.0162 -2.6559
  649MOL0     H87592   3.190   8.286  10.564 -0.9452  0.2140  0.6963
  649MOL0     H87593   2.924   8.190  10.440 -0.1458  2.9003 -1.5649
  649MOL0     H87594   2.930   8.332  10.532  0.8459  0.8262 -0.0069
  649MOL0     H87595   3.052   8.063  10.618  0.1235 -1.3769  1.1651
  649MOL0     H87596   2.885   8.103  10.660  0.2670 -1.3022 -1.6829
  649MOL0     H87597   3.660   8.531   9.883  0.9656 -1.4942  1.7649
  649MOL0     H87598   3.888   8.451   9.778  0.8464 -0.5918  2.3241
  649MOL0     H87599   4.227   8.413   9.662  0.2413 -0.1848 -1.8410
  649MOL0     H87600   4.428   8.340   9.525  0.4670 -1.1288  0.9839
  649MOL0     H87601   6.233   7.885   9.715  3.0519  2.2606 -2.3156
  649MOL0     H87602   6.272   7.990   9.933 -1.2737  2.4072  1.5117
  649MOL0     H87603   6.106   8.219  10.277  0.8814 -0.7921 -0.6913
  649MOL0     H87604   6.202   8.304  10.498 -0.4290  2.9222  0.8155
  649MOL0     H87605   6.474   8.665  10.510  0.2046 -0.7937 -0.7752
  649MOL0     H87606   6.317   8.715  10.542  1.0310  0.9864 -0.4951
  649MOL0     H87607   6.304   8.612  10.761 -2.1158  0.4296 -3.6795
  649MOL0     H87608   6.418   8.748  10.765  1.5439 -0.6838  2.2391
  649MOL0     H87609   6.475   8.464  10.773 -0.3747  0.0888 -2.9643
  649MOL0     H87610   6.528   8.561  10.891  0.6983  0.0213 -0.3680
  649MOL0     H87611   6.644   8.536  10.610  2.0606 -2.6597  0.5966
  649MOL0     H87612   6.735   8.513  10.759  2.2765  0.9844 -2.1050
  649MOL0     H87613   6.780   8.932  10.688  0.6805 -0.6822  1.1020
  649MOL0     H87614   6.360   8.644  10.292 -1.4644  0.1121 -1.7302
  649MOL0     H87615   6.288   8.544  10.081  3.4892 -0.8746  1.2083
  650MOL0     O87616   1.885   3.728   0.241 -0.4831 -0.4380  0.1728
  650MOL0     C87617   1.840   3.665   0.148 -0.1948 -0.1075 -0.0865
  650MOL0     O87618   1.909   3.595   0.058 -0.1003  0.6501 -0.0899
  650MOL0     C87619   2.039   3.556   0.091  0.5422  0.9860  0.0466
  650MOL0     C87620   2.079   3.420   0.090  0.3465 -0.4405 -0.5046
  650MOL0     C87621   2.217   3.388   0.122  0.9325  0.2959  0.8990
  650MOL0     C87622   2.316   3.490   0.126 -0.1063  0.5540  0.2595
  650MOL0     O87623   2.440   3.449   0.152 -0.5296  0.5253  0.3924
  650MOL0     C87624   2.518   3.524   0.237 -0.0883 -0.8596  0.4462
  650MOL0     C87625   2.608   3.424   0.314  0.4489 -0.3931 -0.2266
  650MOL0     C87626   2.536   3.356   0.431 -1.2298  0.9022  0.8999
  650MOL0     C87627   2.627   3.258   0.510 -0.4229  1.1662  0.0696
  650MOL0     C87628   2.565   3.181   0.625  0.5614  0.7103  0.4515
  650MOL0     C87629   2.507   3.259   0.743 -0.8290 -0.2087  0.4138
  650MOL0     C87630   2.492   3.172   0.867 -0.5652 -0.7639 -0.1815
  650MOL0     C87631   2.506   3.237   1.009 -0.1389  0.4470 -0.3941
  650MOL0     N87632   2.481   3.132   1.107  0.0838  0.3638  0.0238
  650MOL0     C87633   2.376   3.041   1.104  0.1982  0.4762 -0.0122
  650MOL0     C87634   2.394   2.972   1.218  0.2566 -0.1966 -0.5122
  650MOL0     C87635   2.326   2.838   1.260 -0.3447  0.4200 -0.2067
  650MOL0     C87636   2.177   2.842   1.292  0.5830 -0.4963  0.6324
  650MOL0     C87637   2.141   2.923   1.413 -0.4428  0.2312 -0.3665
  650MOL0     C87638   2.001   2.972   1.410  0.1894 -0.2815  0.3951
  650MOL0     O87639   1.982   3.071   1.514 -0.5458 -0.3652  0.7574
  650MOL0     C87640   1.859   3.139   1.512  0.7408  0.5965  0.1949
  650MOL0     C87641   1.749   3.058   1.515  0.3431 -0.5812  0.1701
  650MOL0     C87642   1.617   3.108   1.515 -0.3132 -0.3999  0.3652
  650MOL0     C87643   1.503   3.003   1.512  0.0241 -0.8562 -0.1026
  650MOL0     C87644   1.605   3.247   1.542 -0.1715  0.5498 -0.2569
  650MOL0     C87645   1.471   3.319   1.537  0.0955  0.2455  0.2354
  650MOL0     O87646   1.350   3.250   1.537 -0.3903  1.1133 -0.1658
  650MOL0     C87647   1.238   3.322   1.574 -0.4698  0.0004  0.8138
  650MOL0     C87648   1.216   3.385   1.692 -0.2565 -0.6783 -0.9178
  650MOL0     C87649   1.095   3.444   1.725  0.6657 -0.1368 -0.3948
  650MOL0     C87650   0.987   3.415   1.643  0.1303 -0.4600  0.6961
  650MOL0     O87651   0.866   3.474   1.667  0.1160  0.0340  0.1059
  650MOL0     C87652   0.782   3.522   1.561 -0.5855  0.3838  0.8677
  650MOL0     C87653   0.667   3.585   1.629  0.4770  0.2558  0.0533
  650MOL0     C87654   0.573   3.654   1.525 -0.2218 -0.4983 -1.4471
  650MOL0     C87655   0.480   3.747   1.597  0.3650 -0.7918  0.0237
  650MOL0     C87656   0.375   3.830   1.511 -0.3887  0.3870  0.7893
  650MOL0     C87657   0.429   3.941   1.424  0.4937  0.6547  1.4603
  650MOL0     C87658   0.459   4.069   1.501 -0.2451 -0.7433 -0.3947
  650MOL0     C87659   0.494   4.185   1.395  0.8054 -0.8841 -0.1124
  650MOL0    Cl87660   0.577   4.329   1.464  0.0870 -0.0098 -0.2044
  650MOL0     C87661   1.010   3.361   1.515 -0.6059 -0.2201 -0.2125
  650MOL0     C87662   1.138   3.319   1.481 -0.6244  0.3515  0.1277
  650MOL0     O87663   1.479   3.442   1.554  0.4091  0.3276 -0.1678
  650MOL0     C87664   1.725   3.323   1.546 -0.1818  0.0120 -1.0064
  650MOL0     C87665   1.849   3.272   1.530  0.6324  0.0880 -0.0463
  650MOL0     N87666   2.500   3.031   1.293  0.5003 -0.3485 -0.1041
  650MOL0     N87667   2.559   3.114   1.217  0.3385 -1.2423 -1.5552
  650MOL0     C87668   2.266   3.627   0.114  0.1196  0.0570 -0.2418
  650MOL0     C87669   2.138   3.660   0.105  0.5582 -0.4920  0.5250
  650MOL0     C87670   1.690   3.663   0.136 -0.4657 -1.0178  0.7283
  650MOL0     C87671   1.604   3.733   0.228 -0.0436 -0.3194  0.3808
  650MOL0     C87672   1.467   3.727   0.204  0.5035 -0.8221  0.2607
  650MOL0     C87673   1.413   3.653   0.097 -0.5032 -0.5247 -0.0856
  650MOL0     O87674   1.277   3.655   0.065 -0.8631  0.2369 -0.2403
  650MOL0     C87675   1.241   3.737  -0.042 -0.5750 -0.4916  0.7157
  650MOL0     C87676   1.191   3.879  -0.007  0.8475  0.7807 -0.6204
  650MOL0     C87677   1.143   3.950  -0.133  0.2085 -0.3190  0.1650
  650MOL0     C87678   1.062   4.085  -0.110 -0.4305  0.1784 -0.6654
  650MOL0     C87679   1.034   4.126  -0.249 -0.9480 -0.2768 -0.0994
  650MOL0     C87680   1.010   4.175  -0.361 -0.3300  0.2564 -0.0465
  650MOL0     C87681   1.498   3.579   0.011  0.5947  0.2296  1.7415
  650MOL0     C87682   1.634   3.582   0.028  0.5637 -0.5363 -0.7142
  650MOL0     H87683   1.999   3.347   0.081  1.5933 -1.5858 -4.6526
  650MOL0     H87684   2.262   3.290   0.132 -0.7804 -1.4456 -4.6372
  650MOL0     H87685   2.590   3.585   0.183  1.8618 -3.4596 -0.0923
  650MOL0     H87686   2.455   3.583   0.304 -2.3752 -2.8101  0.1577
  650MOL0     H87687   2.642   3.346   0.245 -1.2896 -1.5875  0.1897
  650MOL0     H87688   2.691   3.484   0.352 -2.2432  1.4745  3.3580
  650MOL0     H87689   2.505   3.435   0.500  0.4944  2.1230  0.3381
  650MOL0     H87690   2.451   3.308   0.382 -0.7998  0.1741  0.8449
  650MOL0     H87691   2.667   3.182   0.442  1.3987  0.3959  1.8951
  650MOL0     H87692   2.716   3.315   0.541  0.6163 -0.3052 -0.0746
  650MOL0     H87693   2.475   3.128   0.592  0.5287 -1.1078  3.0711
  650MOL0     H87694   2.636   3.107   0.664  0.2907  0.2806  0.1353
  650MOL0     H87695   2.572   3.341   0.776 -0.3410 -0.7385  0.7862
  650MOL0     H87696   2.414   3.300   0.703  1.1716  2.1896 -2.1977
  650MOL0     H87697   2.387   3.143   0.854  0.1612 -2.7092 -2.4801
  650MOL0     H87698   2.563   3.089   0.872  3.4871  2.4848  3.8069
  650MOL0     H87699   2.442   3.325   1.008 -0.4804  0.1967 -0.7793
  650MOL0     H87700   2.613   3.255   1.024 -0.3916  1.5413  0.1354
  650MOL0     H87701   2.310   3.023   1.021 -3.5756  0.6560  2.6796
  650MOL0     H87702   2.355   2.751   1.200  0.0459  2.2799 -2.9425
  650MOL0     H87703   2.363   2.803   1.357 -1.0266 -2.7526 -0.9899
  650MOL0     H87704   2.143   2.740   1.307  3.8338 -2.5847 -3.9374
  650MOL0     H87705   2.117   2.879   1.208 -0.6468 -2.3692  0.6404
  650MOL0     H87706   2.205   3.011   1.421  0.8315 -0.5341 -1.6746
  650MOL0     H87707   2.166   2.865   1.502  1.1720 -2.6108 -2.5158
  650MOL0     H87708   1.941   2.884   1.437 -0.0595  0.7807  3.8947
  650MOL0     H87709   1.985   3.007   1.308 -0.5183 -1.3713  0.1203
  650MOL0     H87710   1.762   2.951   1.506 -1.1276 -0.6814 -1.3206
  650MOL0     H87711   1.533   2.898   1.514  2.6237 -0.2219 -1.0126
  650MOL0     H87712   1.436   3.009   1.598 -0.1403  0.8979 -0.3143
  650MOL0     H87713   1.437   3.017   1.426 -0.4414  3.7601  0.7358
  650MOL0     H87714   1.289   3.405   1.769  0.1225 -1.6749 -0.9922
  650MOL0     H87715   1.079   3.488   1.823  1.5850 -0.2855 -0.1716
  650MOL0     H87716   0.829   3.596   1.496 -2.4602 -0.6699 -1.8702
  650MOL0     H87717   0.744   3.446   1.492  1.6209  1.7353 -2.0610
  650MOL0     H87718   0.609   3.510   1.683 -1.2115  2.1729  1.0293
  650MOL0     H87719   0.705   3.660   1.698  0.0873  0.3916  0.1204
  650MOL0     H87720   0.511   3.583   1.469 -1.4930 -0.2166 -0.4413
  650MOL0     H87721   0.627   3.713   1.451  1.4407  0.4232  0.4135
  650MOL0     H87722   0.416   3.681   1.657 -0.6109  1.3896  1.4776
  650MOL0     H87723   0.533   3.825   1.651 -0.5816  1.1828 -1.7501
  650MOL0     H87724   0.287   3.869   1.561 -0.4849 -0.9009  1.6578
  650MOL0     H87725   0.339   3.759   1.436  2.8027 -0.2339 -0.3423
  650MOL0     H87726   0.513   3.912   1.360 -2.2899  0.2230 -2.3427
  650MOL0     H87727   0.355   3.972   1.350 -0.4191 -2.4862  0.8986
  650MOL0     H87728   0.549   4.059   1.562 -0.1053 -1.7015 -0.7468
  650MOL0     H87729   0.370   4.085   1.562  1.1977  0.8872  1.4115
  650MOL0     H87730   0.397   4.208   1.350  0.0992 -1.7496  0.9246
  650MOL0     H87731   0.565   4.147   1.320  0.6218 -1.0461 -0.2040
  650MOL0     H87732   0.929   3.366   1.443  1.3941  0.5275 -2.5795
  650MOL0     H87733   1.164   3.265   1.390 -0.2582  0.0390  0.4153
  650MOL0     H87734   1.726   3.427   1.577 -0.5834 -0.2279 -0.1411
  650MOL0     H87735   1.936   3.336   1.541  0.9959 -0.4194  0.0427
  650MOL0     H87736   2.334   3.712   0.105  0.6692 -0.6389 -4.1055
  650MOL0     H87737   2.120   3.764   0.083  2.2638 -0.1820  0.5030
  650MOL0     H87738   1.631   3.801   0.308 -1.5244 -2.4568  2.8773
  650MOL0     H87739   1.400   3.792   0.259 -0.3971 -0.0849 -1.5991
  650MOL0     H87740   1.328   3.751  -0.106 -0.6478 -3.1267 -0.0830
  650MOL0     H87741   1.163   3.678  -0.090  0.9382 -2.2314  0.3095
  650MOL0     H87742   1.261   3.937   0.054  0.1571 -1.6972  2.8250
  650MOL0     H87743   1.104   3.856   0.056 -2.2033 -0.4394 -4.8220
  650MOL0     H87744   1.075   3.878  -0.181  1.9593 -1.1659 -1.1860
  650MOL0     H87745   1.230   3.967  -0.197  1.2262 -0.5238  1.4565
  650MOL0     H87746   1.128   4.160  -0.066  3.6689 -1.2049 -3.8312
  650MOL0     H87747   0.966   4.072  -0.059 -0.2191  0.4789 -0.1846
  650MOL0     H87748   0.997   4.208  -0.462 -1.6955  0.3126  0.1259
  650MOL0     H87749   1.452   3.513  -0.062  0.4074  1.3663  0.8050
  650MOL0     H87750   1.699   3.524  -0.037  0.3596  0.0760 -1.4892
  651MOL0     O87751   0.404   8.720   2.674  0.6586 -0.0065  0.4602
  651MOL0     C87752   0.517   8.733   2.723 -0.2667 -0.4532 -0.2914
  651MOL0     O87753   0.556   8.696   2.847  0.2756  0.3978 -0.3068
  651MOL0     C87754   0.481   8.619   2.931  0.1998 -0.0938 -0.6905
  651MOL0     C87755   0.382   8.529   2.891  0.5836  0.5104  0.6303
  651MOL0     C87756   0.317   8.445   2.984  0.6390  0.4206 -0.3692
  651MOL0     C87757   0.352   8.453   3.121  0.0231 -0.6432 -1.0663
  651MOL0     O87758   0.280   8.382   3.221 -0.8769  0.2423  0.7102
  651MOL0     C87759   0.145   8.335   3.196 -1.0203 -0.0430  0.2336
  651MOL0     C87760   0.072   8.343   3.330 -0.9837  1.3273  0.3589
  651MOL0     C87761  -0.080   8.309   3.326  0.7658  0.1793  0.0571
  651MOL0     C87762  -0.105   8.154   3.320  0.0803  0.4095 -0.0582
  651MOL0     C87763  -0.246   8.109   3.381 -0.4497 -0.2044  0.5335
  651MOL0     C87764  -0.250   7.952   3.389  0.5433 -0.1814 -0.1179
  651MOL0     C87765  -0.394   7.904   3.393  0.0315 -0.1121 -0.2845
  651MOL0     C87766  -0.416   7.766   3.440  0.1303  0.3901 -0.1139
  651MOL0     N87767  -0.559   7.726   3.461  0.4857  0.3322 -0.3217
  651MOL0     C87768  -0.634   7.739   3.581  0.3074 -0.0586  0.7595
  651MOL0     C87769  -0.744   7.657   3.552  0.6435  0.4815 -0.2806
  651MOL0     C87770  -0.862   7.639   3.651  0.6601 -0.6825 -0.7965
  651MOL0     C87771  -0.821   7.603   3.794 -0.3278  0.2277 -0.1909
  651MOL0     C87772  -0.908   7.645   3.915  0.8400 -0.4342 -0.2923
  651MOL0     C87773  -0.886   7.561   4.038  0.4248  0.3401  0.1841
  651MOL0     O87774  -0.964   7.600   4.151  0.5986 -0.2437  0.2838
  651MOL0     C87775  -1.101   7.583   4.139  0.0166  0.3410  0.4487
  651MOL0     C87776  -1.168   7.678   4.217  0.7492 -0.4487 -1.0152
  651MOL0     C87777  -1.306   7.677   4.233 -0.4804  0.1237  1.0534
  651MOL0     C87778  -1.377   7.774   4.334 -0.1633  0.5323 -0.2616
  651MOL0     C87779  -1.383   7.583   4.164 -0.2601 -0.0259 -0.7039
  651MOL0     C87780  -1.529   7.577   4.183  0.2905 -0.1901 -0.5976
  651MOL0     O87781  -1.587   7.580   4.305  0.8015 -0.2163  0.3930
  651MOL0     C87782  -1.719   7.560   4.321  0.3432 -0.3007  0.1140
  651MOL0     C87783  -1.826   7.638   4.260  0.4828  0.3124 -1.0406
  651MOL0     C87784  -1.961   7.614   4.299  0.5175 -0.2363  0.0206
  651MOL0     C87785  -1.996   7.512   4.386 -0.5485 -0.0959 -0.5826
  651MOL0     O87786  -2.126   7.486   4.423 -0.1512  0.2792  0.5971
  651MOL0     C87787  -2.223   7.522   4.322 -0.5204 -0.7458 -0.8308
  651MOL0     C87788  -2.365   7.490   4.377 -0.6084 -0.6273 -0.4050
  651MOL0     C87789  -2.442   7.392   4.284 -0.7479 -0.4405  0.1926
  651MOL0     C87790  -2.368   7.263   4.285  0.4740  0.0826 -0.1528
  651MOL0     C87791  -2.421   7.177   4.169 -0.7159 -0.1779 -0.2019
  651MOL0     C87792  -2.382   7.032   4.169  1.1676  0.1400  0.8448
  651MOL0     C87793  -2.490   6.947   4.104  0.0114 -0.0920 -0.2350
  651MOL0     C87794  -2.461   6.797   4.109  0.5632 -0.1496  1.0660
  651MOL0    Cl87795  -2.307   6.773   4.028 -0.1394 -0.0259  0.1652
  651MOL0     C87796  -1.894   7.428   4.430  0.8645  0.1165 -0.0611
  651MOL0     C87797  -1.769   7.451   4.399  0.4298 -1.2953 -0.4044
  651MOL0     O87798  -1.591   7.594   4.083  0.0652 -0.2020  0.4371
  651MOL0     C87799  -1.316   7.494   4.072  0.2773 -0.3351  0.9024
  651MOL0     C87800  -1.175   7.494   4.060  0.2161  0.2094  0.4672
  651MOL0     N87801  -0.738   7.601   3.430  0.2253  0.6485 -0.6738
  651MOL0     N87802  -0.623   7.639   3.377 -0.1716  0.7829 -0.5147
  651MOL0     C87803   0.453   8.534   3.161 -0.0456 -0.8519  0.0155
  651MOL0     C87804   0.527   8.615   3.069  0.7062 -0.6291  0.1595
  651MOL0     C87805   0.621   8.779   2.626 -0.2358  0.7878 -0.8387
  651MOL0     C87806   0.596   8.825   2.499  0.1470 -0.7235  0.0113
  651MOL0     C87807   0.705   8.867   2.413 -0.2881  0.6881  0.4224
  651MOL0     C87808   0.835   8.884   2.455 -0.2094  0.8183  0.7523
  651MOL0     O87809   0.935   8.916   2.367  1.0487  0.2606  0.3651
  651MOL0     C87810   0.927   9.026   2.278  0.3828  0.9057 -0.2426
  651MOL0     C87811   1.061   9.097   2.263  0.3190  1.3703  0.8004
  651MOL0     C87812   1.149   9.027   2.161  0.0611  0.3358  0.2541
  651MOL0     C87813   1.107   9.039   2.013 -0.3564  0.1137 -0.1564
  651MOL0     C87814   1.206   8.977   1.932  0.7303  0.9386 -0.1412
  651MOL0     C87815   1.283   8.922   1.855 -0.2846 -0.2792 -0.8715
  651MOL0     C87816   0.858   8.838   2.579 -0.3204 -0.0660 -0.6519
  651MOL0     C87817   0.756   8.783   2.661 -0.9505 -0.0557  0.7568
  651MOL0     H87818   0.358   8.509   2.787  2.9138 -2.0853  0.4781
  651MOL0     H87819   0.239   8.381   2.943  0.8817  0.1206 -0.3677
  651MOL0     H87820   0.087   8.390   3.121  2.5502 -2.3666 -4.8832
  651MOL0     H87821   0.141   8.229   3.168 -0.3876 -0.5534  1.9324
  651MOL0     H87822   0.127   8.270   3.389  1.7135  3.5797  0.8457
  651MOL0     H87823   0.092   8.444   3.367  0.9961  0.8619  0.6625
  651MOL0     H87824  -0.114   8.332   3.428  1.0697 -2.0970  0.7408
  651MOL0     H87825  -0.138   8.363   3.251  0.9186 -1.1230 -1.0503
  651MOL0     H87826  -0.107   8.127   3.214 -0.9333 -1.0121  0.3083
  651MOL0     H87827  -0.022   8.105   3.373  0.4851 -2.0706 -2.7417
  651MOL0     H87828  -0.261   8.154   3.479 -1.3304  1.6984 -0.4304
  651MOL0     H87829  -0.325   8.140   3.312 -1.8381 -0.6516  1.8823
  651MOL0     H87830  -0.199   7.900   3.307 -0.8258  0.3637 -1.3593
  651MOL0     H87831  -0.198   7.926   3.482 -0.5698 -0.1008  0.5417
  651MOL0     H87832  -0.453   7.971   3.457  1.6935  2.1038 -0.9347
  651MOL0     H87833  -0.437   7.908   3.292 -0.6963  0.9330  0.0567
  651MOL0     H87834  -0.364   7.751   3.535 -0.0221 -0.8526 -0.2123
  651MOL0     H87835  -0.370   7.700   3.366 -0.3972  1.1941 -1.1826
  651MOL0     H87836  -0.616   7.793   3.674 -1.4538  2.6203 -0.3682
  651MOL0     H87837  -0.917   7.733   3.649 -0.8301 -1.5080 -0.0083
  651MOL0     H87838  -0.935   7.565   3.617  0.1641 -0.0547 -1.1068
  651MOL0     H87839  -0.733   7.666   3.812  0.1931 -0.5341 -0.0232
  651MOL0     H87840  -0.793   7.499   3.810 -0.7384  0.0654 -0.5257
  651MOL0     H87841  -1.007   7.627   3.871  1.3228 -0.0290 -1.6069
  651MOL0     H87842  -0.892   7.750   3.941  0.7435  0.1147 -2.2876
  651MOL0     H87843  -0.779   7.569   4.059  0.2589  1.9474  0.5065
  651MOL0     H87844  -0.892   7.454   4.015  4.2364  0.4890 -2.4765
  651MOL0     H87845  -1.104   7.750   4.267 -0.8118  0.3696 -0.1203
  651MOL0     H87846  -1.420   7.728   4.423 -0.0487  0.0009 -0.4743
  651MOL0     H87847  -1.304   7.841   4.380 -1.8936  0.3112  3.0733
  651MOL0     H87848  -1.454   7.840   4.294 -1.1849 -1.0655 -1.0173
  651MOL0     H87849  -1.808   7.720   4.191 -1.1576  0.5288 -1.2555
  651MOL0     H87850  -2.036   7.672   4.246  4.1362  2.6977 -2.3762
  651MOL0     H87851  -2.233   7.631   4.318 -1.1947 -0.7843 -0.4017
  651MOL0     H87852  -2.209   7.482   4.221 -1.7066 -1.6188 -0.6800
  651MOL0     H87853  -2.362   7.445   4.476 -0.6672 -2.0342 -1.0213
  651MOL0     H87854  -2.420   7.581   4.402  2.8718  1.5369  0.0723
  651MOL0     H87855  -2.435   7.442   4.187  1.7875 -0.8344  0.1119
  651MOL0     H87856  -2.545   7.372   4.314 -0.7908 -2.1493 -0.9667
  651MOL0     H87857  -2.260   7.269   4.268  1.1941 -2.9030  2.4848
  651MOL0     H87858  -2.390   7.229   4.386 -1.1364  2.7842  0.5144
  651MOL0     H87859  -2.387   7.217   4.073 -2.8148 -0.1366 -0.9934
  651MOL0     H87860  -2.530   7.186   4.166 -0.9399 -1.0694  2.3356
  651MOL0     H87861  -2.287   7.021   4.115  1.4633 -0.9788  1.5627
  651MOL0     H87862  -2.364   7.003   4.273 -1.1901  0.6428  1.4437
  651MOL0     H87863  -2.507   6.971   3.999  0.6837  0.9817 -0.1078
  651MOL0     H87864  -2.592   6.965   4.141 -0.4550 -1.1249 -0.9705
  651MOL0     H87865  -2.536   6.738   4.055  1.4132  1.4457 -2.1103
  651MOL0     H87866  -2.448   6.755   4.209  1.2405 -5.3262 -0.8801
  651MOL0     H87867  -1.919   7.343   4.492 -0.7573 -1.4077 -2.6017
  651MOL0     H87868  -1.696   7.386   4.445  0.2492 -0.8218  0.5647
  651MOL0     H87869  -1.384   7.426   4.022 -0.1383 -1.8368  3.3603
  651MOL0     H87870  -1.130   7.428   3.987  0.9840  0.4223  0.7444
  651MOL0     H87871   0.474   8.547   3.267 -0.2754  1.6269 -0.1832
  651MOL0     H87872   0.613   8.673   3.101  0.3212  1.5197 -2.3664
  651MOL0     H87873   0.496   8.823   2.459 -0.4142 -0.3550  1.3265
  651MOL0     H87874   0.669   8.894   2.314 -1.0202  0.2902  0.5653
  651MOL0     H87875   0.895   8.995   2.178 -0.5778  1.6927 -0.2051
  651MOL0     H87876   0.846   9.093   2.310 -0.3417 -0.4824  0.9049
  651MOL0     H87877   1.098   9.097   2.366  0.8470 -0.0693  0.6308
  651MOL0     H87878   1.050   9.200   2.228  0.5973  0.6042 -1.7629
  651MOL0     H87879   1.160   8.920   2.179 -0.5627 -0.2209 -2.2655
  651MOL0     H87880   1.248   9.074   2.156  0.3460 -0.3818 -2.1148
  651MOL0     H87881   1.103   9.147   1.990  2.6504  0.2213 -0.5088
  651MOL0     H87882   1.011   8.991   1.990  0.3657 -0.5009 -2.1067
  651MOL0     H87883   1.340   8.871   1.779 -0.5348  0.5963 -1.6757
  651MOL0     H87884   0.960   8.839   2.617 -1.0237  0.8936  1.3688
  651MOL0     H87885   0.791   8.734   2.752  1.4774  1.8429  0.9339
  652MOL0     O87886   1.281   5.587   9.294 -0.3165  0.0248 -0.3506
  652MOL0     C87887   1.376   5.621   9.228  0.1943  0.5984  0.8364
  652MOL0     O87888   1.362   5.672   9.096 -0.6513  0.4279 -0.4152
  652MOL0     C87889   1.242   5.707   9.049 -0.4624 -0.5019 -0.1115
  652MOL0     C87890   1.218   5.648   8.926  0.2008 -0.8646  0.0470
  652MOL0     C87891   1.111   5.698   8.844  0.1325  0.1232 -0.0907
  652MOL0     C87892   1.037   5.806   8.884 -0.3822 -0.3443  0.0747
  652MOL0     O87893   0.943   5.861   8.805  0.9322  0.1744  0.2436
  652MOL0     C87894   0.808   5.844   8.851 -0.6299 -0.5352 -0.0201
  652MOL0     C87895   0.724   5.895   8.734  0.4532 -0.9410 -0.1226
  652MOL0     C87896   0.573   5.865   8.755 -1.4554  0.2486  0.1905
  652MOL0     C87897   0.491   5.888   8.630  0.6592 -0.0532  0.7287
  652MOL0     C87898   0.344   5.919   8.661  0.7938  0.3567 -0.0302
  652MOL0     C87899   0.268   5.799   8.720 -0.0189  0.5670  0.9414
  652MOL0     C87900   0.122   5.804   8.746 -0.1169 -0.1945  0.6927
  652MOL0     C87901   0.083   5.927   8.824  0.4820 -0.9104  0.1293
  652MOL0     N87902  -0.055   5.933   8.871  0.4693  0.3756  0.1328
  652MOL0     C87903  -0.144   5.835   8.901 -1.0576 -0.3872  0.3202
  652MOL0     C87904  -0.257   5.894   8.946 -0.9888  0.0701 -0.7911
  652MOL0     C87905  -0.374   5.820   9.003 -1.0949 -0.1521 -1.0307
  652MOL0     C87906  -0.506   5.893   9.026 -0.0744  0.3966 -1.0177
  652MOL0     C87907  -0.614   5.807   9.089  0.2163  0.0765  0.4662
  652MOL0     C87908  -0.742   5.888   9.106  1.1184  0.8641 -0.0562
  652MOL0     O87909  -0.714   5.973   9.215  0.0382 -0.8759  0.0179
  652MOL0     C87910  -0.819   6.044   9.273  0.5565  0.3869  0.7382
  652MOL0     C87911  -0.941   6.079   9.214 -0.2057  0.8735  0.6437
  652MOL0     C87912  -1.037   6.167   9.275 -0.2802 -0.2586  0.8563
  652MOL0     C87913  -1.167   6.189   9.196 -0.9143  0.2967  0.1698
  652MOL0     C87914  -0.998   6.227   9.392 -0.0917 -0.2901  0.0970
  652MOL0     C87915  -1.073   6.335   9.463 -0.1352 -1.0054  0.4297
  652MOL0     O87916  -1.032   6.382   9.583  0.1734 -0.4283  0.4820
  652MOL0     C87917  -1.098   6.486   9.645  0.0168  0.0041 -0.3318
  652MOL0     C87918  -1.166   6.457   9.765 -0.0104 -1.0753 -0.8951
  652MOL0     C87919  -1.232   6.573   9.826 -0.2351  0.4430 -0.2150
  652MOL0     C87920  -1.236   6.701   9.777 -0.4754  0.4871  0.3312
  652MOL0     O87921  -1.298   6.787   9.865  0.2842  0.8965  0.0051
  652MOL0     C87922  -1.326   6.919   9.802 -1.4614  0.1749 -0.6908
  652MOL0     C87923  -1.447   6.920   9.706  0.0435 -1.1824  0.0543
  652MOL0     C87924  -1.566   6.841   9.749 -1.0852  0.9304 -0.6243
  652MOL0     C87925  -1.697   6.923   9.739  0.2746 -0.1197  0.0538
  652MOL0     C87926  -1.823   6.831   9.739  0.5750  0.3232 -0.2540
  652MOL0     C87927  -1.953   6.913   9.707 -0.3004 -0.2066  0.8526
  652MOL0     C87928  -2.090   6.842   9.734 -0.1034 -0.0658 -0.4820
  652MOL0     C87929  -2.130   6.828   9.876  0.8679  0.0243  0.0410
  652MOL0    Cl87930  -2.130   6.980   9.970  0.0237  0.0662 -0.2360
  652MOL0     C87931  -1.173   6.719   9.648 -0.0368 -1.4032  0.3487
  652MOL0     C87932  -1.093   6.618   9.596 -0.1025  0.2479  0.1654
  652MOL0     O87933  -1.167   6.377   9.400 -0.2569  0.2525 -0.6126
  652MOL0     C87934  -0.873   6.188   9.451  0.0903  0.1454 -0.0731
  652MOL0     C87935  -0.787   6.105   9.390 -0.6332  0.3479 -0.8386
  652MOL0     N87936  -0.245   6.031   8.941 -0.3311  0.3899  0.4986
  652MOL0     N87937  -0.126   6.050   8.897 -0.3153  0.0938  0.4327
  652MOL0     C87938   1.061   5.860   9.008  0.0200 -0.8858 -0.5938
  652MOL0     C87939   1.160   5.810   9.091 -0.4571  0.8218 -0.4132
  652MOL0     C87940   1.514   5.572   9.264  0.7208  0.0153  0.3194
  652MOL0     C87941   1.631   5.574   9.181  0.6233 -0.2807  1.1869
  652MOL0     C87942   1.749   5.535   9.236 -0.8324  0.6239  0.2984
  652MOL0     C87943   1.762   5.474   9.364  0.5788  0.2330 -0.4766
  652MOL0     O87944   1.881   5.442   9.414  0.0669  0.0200 -0.0842
  652MOL0     C87945   1.999   5.502   9.371 -0.3971  0.8968 -0.4572
  652MOL0     C87946   2.116   5.454   9.448 -0.2453  0.1244 -0.2694
  652MOL0     C87947   2.246   5.525   9.432 -0.1814  0.2875 -0.0390
  652MOL0     C87948   2.281   5.537   9.284  0.9579 -0.6244  0.2336
  652MOL0     C87949   2.316   5.410   9.223  1.3279  0.5763 -0.2310
  652MOL0     C87950   2.344   5.323   9.149  0.7096 -0.5301 -0.1774
  652MOL0     C87951   1.647   5.457   9.434 -0.2112  0.2550 -0.0893
  652MOL0     C87952   1.527   5.510   9.391  0.1347  0.3626 -0.0418
  652MOL0     H87953   1.281   5.561   8.908  0.6778 -0.5150  0.0301
  652MOL0     H87954   1.100   5.656   8.744 -1.0513  2.4415 -0.9984
  652MOL0     H87955   0.781   5.745   8.889 -1.3433 -0.9633 -1.5401
  652MOL0     H87956   0.782   5.916   8.928  1.7778  1.2978 -0.8170
  652MOL0     H87957   0.747   5.999   8.707 -0.9641  0.3237  3.0431
  652MOL0     H87958   0.769   5.843   8.649  1.1203  0.6270 -0.7701
  652MOL0     H87959   0.561   5.765   8.796 -1.0962  0.6075  1.2106
  652MOL0     H87960   0.537   5.937   8.830  1.0216  0.1203  1.6236
  652MOL0     H87961   0.535   5.974   8.579 -2.0404 -0.1788 -2.0274
  652MOL0     H87962   0.492   5.799   8.567 -3.6722  2.8515 -4.1666
  652MOL0     H87963   0.332   6.002   8.731 -2.7134 -0.6510  0.7929
  652MOL0     H87964   0.293   5.932   8.565  1.8882 -1.3034 -0.8951
  652MOL0     H87965   0.292   5.714   8.655  1.8661  0.5023  1.6653
  652MOL0     H87966   0.312   5.786   8.819  1.4434  0.0566  0.2565
  652MOL0     H87967   0.062   5.802   8.654  0.3541 -2.7947  0.3800
  652MOL0     H87968   0.111   5.706   8.793 -1.4528 -0.5267 -0.2526
  652MOL0     H87969   0.095   6.018   8.765 -3.2197 -0.5666 -0.3488
  652MOL0     H87970   0.142   5.935   8.916 -4.4599  0.8424  3.5605
  652MOL0     H87971  -0.119   5.729   8.893  2.0594  0.3980 -1.8576
  652MOL0     H87972  -0.383   5.730   8.942  0.0088 -0.3457 -0.9301
  652MOL0     H87973  -0.338   5.777   9.097  0.5831  2.7554 -0.2010
  652MOL0     H87974  -0.542   5.921   8.927  0.5017  0.5388 -1.1892
  652MOL0     H87975  -0.486   5.983   9.085  0.7199 -1.7443  2.2661
  652MOL0     H87976  -0.582   5.759   9.182  3.1344 -1.6188 -1.2558
  652MOL0     H87977  -0.630   5.723   9.021 -0.5938  1.7533 -1.5414
  652MOL0     H87978  -0.822   5.816   9.127  0.6593  0.7598 -2.0142
  652MOL0     H87979  -0.767   5.943   9.016  0.3998  1.3522  0.4308
  652MOL0     H87980  -0.952   6.040   9.113 -0.9926  1.1741  0.6052
  652MOL0     H87981  -1.173   6.109   9.122  1.5313  0.7150 -0.5749
  652MOL0     H87982  -1.259   6.194   9.255 -1.2740  1.2898 -0.4537
  652MOL0     H87983  -1.164   6.284   9.142  1.0175  0.1607 -0.0357
  652MOL0     H87984  -1.154   6.358   9.808 -0.5929 -1.5567 -1.7896
  652MOL0     H87985  -1.292   6.551   9.914  0.2722  2.0063  0.5540
  652MOL0     H87986  -1.342   7.000   9.874  0.4650  0.5425 -0.6310
  652MOL0     H87987  -1.246   6.951   9.735 -2.8024  2.5824 -1.2323
  652MOL0     H87988  -1.478   7.025   9.707 -0.5869 -1.3734  0.8429
  652MOL0     H87989  -1.423   6.893   9.602 -1.8314  0.7629 -0.9552
  652MOL0     H87990  -1.545   6.790   9.843 -0.2712  0.8920 -0.8196
  652MOL0     H87991  -1.571   6.755   9.682  2.4459  0.4075 -0.4039
  652MOL0     H87992  -1.711   6.993   9.821 -4.1875  1.7933 -2.0026
  652MOL0     H87993  -1.690   6.987   9.651  2.8806  1.3769  1.2257
  652MOL0     H87994  -1.846   6.788   9.837  1.2782 -1.3102 -0.7772
  652MOL0     H87995  -1.811   6.748   9.668  4.1659 -0.9124  1.5427
  652MOL0     H87996  -1.957   7.006   9.764  3.7281 -0.2684  1.5412
  652MOL0     H87997  -1.965   6.946   9.604  0.1518  1.8245  1.4165
  652MOL0     H87998  -2.091   6.743   9.688  0.0950 -0.1861 -0.2353
  652MOL0     H87999  -2.169   6.903   9.689  1.8507  2.0350 -1.2981
  652MOL0     H88000  -2.059   6.765   9.931  0.0892 -2.4305 -1.6062
  652MOL0     H88001  -2.226   6.776   9.877  0.6459  0.3277  3.0193
  652MOL0     H88002  -1.170   6.816   9.600  0.0532 -1.3804  0.3995
  652MOL0     H88003  -1.036   6.651   9.510  0.0182  2.9124  1.1678
  652MOL0     H88004  -0.831   6.235   9.540  1.7035 -0.8418 -0.2875
  652MOL0     H88005  -0.696   6.093   9.448 -2.3019 -1.2949  1.6561
  652MOL0     H88006   0.994   5.943   9.027 -1.3205 -2.4356  2.0465
  652MOL0     H88007   1.162   5.863   9.186  2.7176 -1.0403  0.7243
  652MOL0     H88008   1.637   5.627   9.087 -1.8696  0.3808  1.3286
  652MOL0     H88009   1.836   5.549   9.173 -0.8094 -0.6342  0.0219
  652MOL0     H88010   2.029   5.485   9.267  2.6691  3.3804 -0.1283
  652MOL0     H88011   2.012   5.605   9.406  0.2718  1.0248 -1.0444
  652MOL0     H88012   2.138   5.349   9.426  1.2932  0.9975 -3.5787
  652MOL0     H88013   2.090   5.464   9.554  0.0072  2.3888 -0.3775
  652MOL0     H88014   2.328   5.471   9.480  0.5084  2.4127  1.3723
  652MOL0     H88015   2.232   5.624   9.476 -1.5067 -0.7658  2.0607
  652MOL0     H88016   2.371   5.597   9.271  0.8577 -0.4029  0.5194
  652MOL0     H88017   2.204   5.594   9.231  0.2307 -1.3249  0.5174
  652MOL0     H88018   2.385   5.241   9.093  1.9152  0.6983 -1.1637
  652MOL0     H88019   1.666   5.395   9.521  0.9946 -0.3706 -0.7596
  652MOL0     H88020   1.445   5.494   9.459 -0.9990 -0.1943 -1.4974
  653MOL0     O88021   9.008  11.137   2.261 -0.1544 -0.0147 -0.1731
  653MOL0     C88022   9.048  11.021   2.236 -0.1784 -0.4600 -0.5623
  653MOL0     O88023   8.974  10.908   2.243 -0.5573  0.2138 -0.2448
  653MOL0     C88024   8.845  10.902   2.272 -0.3314 -0.2509  0.9861
  653MOL0     C88025   8.757  10.986   2.201 -0.4237  0.4371 -0.3235
  653MOL0     C88026   8.620  10.981   2.222  0.1272  0.3306 -0.5400
  653MOL0     C88027   8.579  10.907   2.333  0.7151  0.3683 -0.4552
  653MOL0     O88028   8.448  10.907   2.379  0.1132 -0.0316 -0.3755
  653MOL0     C88029   8.337  10.963   2.296  0.3066 -0.1229 -0.9572
  653MOL0     C88030   8.310  11.111   2.335 -0.7269 -1.0808  0.2034
  653MOL0     C88031   8.250  11.116   2.473  0.2983  0.3122 -0.5624
  653MOL0     C88032   8.229  11.260   2.510 -1.0570 -0.1390 -0.2941
  653MOL0     C88033   8.168  11.274   2.656 -0.2499 -0.1881  0.9113
  653MOL0     C88034   8.125  11.416   2.680 -0.2263 -0.9231 -0.7875
  653MOL0     C88035   8.077  11.458   2.820  0.0641 -0.4333  0.1146
  653MOL0     C88036   7.948  11.388   2.874  0.3046  0.2710  0.0242
  653MOL0     N88037   7.825  11.433   2.802 -0.8386 -1.0237 -1.1026
  653MOL0     C88038   7.763  11.548   2.827  1.1815 -0.1200  0.3254
  653MOL0     C88039   7.638  11.529   2.766 -1.0712  0.1907 -0.3542
  653MOL0     C88040   7.527  11.627   2.748  0.0485 -0.7229  0.5684
  653MOL0     C88041   7.411  11.578   2.829  0.5182  0.1961  0.6770
  653MOL0     C88042   7.326  11.472   2.756 -0.1993 -0.5220  0.6407
  653MOL0     C88043   7.177  11.481   2.804 -0.5975  0.4368  0.6906
  653MOL0     O88044   7.091  11.587   2.737 -0.3243  0.6753  0.7338
  653MOL0     C88045   6.969  11.616   2.801  0.0416  0.9861  0.4690
  653MOL0     C88046   6.902  11.528   2.885  0.2621  0.6776 -1.0134
  653MOL0     C88047   6.776  11.556   2.942 -1.0769  0.6113  0.4047
  653MOL0     C88048   6.712  11.438   3.013  0.1380  0.6550  0.3467
  653MOL0     C88049   6.725  11.685   2.923 -0.0328 -0.3214  0.0175
  653MOL0     C88050   6.595  11.740   2.985 -0.2269  0.1102 -0.1090
  653MOL0     O88051   6.533  11.660   3.079  1.0547 -0.7017  0.3644
  653MOL0     C88052   6.409  11.701   3.121  0.8625  0.0106 -1.6388
  653MOL0     C88053   6.396  11.790   3.233 -0.1035 -0.1199 -0.6502
  653MOL0     C88054   6.270  11.814   3.295  0.8620  0.6105 -0.5009
  653MOL0     C88055   6.152  11.763   3.232 -0.8988  0.0193  0.5905
  653MOL0     O88056   6.027  11.778   3.289 -0.0210  0.0230  0.2380
  653MOL0     C88057   6.018  11.884   3.390  0.1894  0.2129 -0.3494
  653MOL0     C88058   5.885  11.865   3.465  0.2094  0.1369 -0.7516
  653MOL0     C88059   5.878  11.731   3.535  0.9519 -0.4392  0.9986
  653MOL0     C88060   5.750  11.740   3.632 -0.1714  0.1787  0.2214
  653MOL0     C88061   5.710  11.597   3.674  1.7234  0.4900 -0.4200
  653MOL0     C88062   5.581  11.548   3.598 -0.4602 -0.8029  0.6156
  653MOL0     C88063   5.547  11.409   3.628 -0.4720 -0.7382 -0.0821
  653MOL0     C88064   5.414  11.375   3.555  0.6682  0.0622  0.1955
  653MOL0    Cl88065   5.370  11.204   3.597  0.4248 -0.3219  0.0742
  653MOL0     C88066   6.167  11.683   3.118  0.0587 -1.0548 -0.4401
  653MOL0     C88067   6.290  11.653   3.063 -0.1776  0.7612  0.0627
  653MOL0     O88068   6.561  11.855   2.958 -0.6427 -0.0615 -0.0567
  653MOL0     C88069   6.789  11.779   2.840 -0.0633 -1.2032 -0.3111
  653MOL0     C88070   6.916  11.745   2.777  0.8382 -0.7170 -0.7602
  653MOL0     N88071   7.627  11.395   2.728 -0.4702  0.6596  0.1025
  653MOL0     N88072   7.747  11.349   2.730 -0.0945  0.4133  1.0173
  653MOL0     C88073   8.670  10.826   2.399 -0.8608 -0.2329 -0.3901
  653MOL0     C88074   8.802  10.824   2.371 -0.7249  0.0273 -0.2356
  653MOL0     C88075   9.191  11.011   2.232  0.1544 -0.5463  0.6234
  653MOL0     C88076   9.251  10.887   2.223 -0.7397 -0.4747 -0.0609
  653MOL0     C88077   9.390  10.881   2.201 -0.1550  0.4993 -0.0674
  653MOL0     C88078   9.479  10.986   2.227  0.1644  0.1051  0.1955
  653MOL0     O88079   9.620  10.969   2.238 -0.2042 -0.4309 -0.7760
  653MOL0     C88080   9.674  10.862   2.306  0.7407  0.5703 -0.0118
  653MOL0     C88081   9.822  10.888   2.319  0.4010  0.2407 -0.4507
  653MOL0     C88082   9.859  10.995   2.419 -0.0122  0.0095  0.7083
  653MOL0     C88083  10.008  11.044   2.407  0.4906  0.8118 -0.6133
  653MOL0     C88084  10.109  10.942   2.422 -0.1520 -0.1145  0.4656
  653MOL0     C88085  10.186  10.853   2.433  0.0769 -1.1415 -0.2334
  653MOL0     C88086   9.420  11.111   2.231 -0.1025  0.3510  0.7238
  653MOL0     C88087   9.281  11.125   2.233  0.1203 -0.7420 -1.1737
  653MOL0     H88088   8.797  11.044   2.118 -0.0197  2.0197  0.9227
  653MOL0     H88089   8.551  11.033   2.156 -0.1162  0.3067 -0.3000
  653MOL0     H88090   8.360  10.961   2.189 -1.4584  0.0275 -1.3710
  653MOL0     H88091   8.237  10.919   2.306  0.8111 -1.4582 -1.5750
  653MOL0     H88092   8.403  11.167   2.344 -0.0586 -2.0977 -0.1707
  653MOL0     H88093   8.235  11.155   2.269 -0.0623 -3.0802 -2.0000
  653MOL0     H88094   8.148  11.078   2.467 -0.3925  2.1056 -0.9597
  653MOL0     H88095   8.291  11.057   2.555  2.0602  1.5267 -0.5028
  653MOL0     H88096   8.320  11.320   2.497  0.0603 -1.5802  0.6137
  653MOL0     H88097   8.157  11.308   2.442 -0.5783  0.4515 -0.3922
  653MOL0     H88098   8.091  11.196   2.655 -0.2177 -0.2226 -0.2131
  653MOL0     H88099   8.246  11.250   2.730 -0.2574 -2.6294  0.2213
  653MOL0     H88100   8.210  11.482   2.659 -0.8857 -0.5554 -2.5091
  653MOL0     H88101   8.041  11.434   2.612 -0.4768  0.4809 -0.1505
  653MOL0     H88102   8.162  11.428   2.881  0.6517 -0.8917 -0.9035
  653MOL0     H88103   8.068  11.566   2.833  0.6792 -0.2426 -0.9360
  653MOL0     H88104   7.936  11.399   2.982 -1.2899 -2.0365  0.1679
  653MOL0     H88105   7.947  11.279   2.859 -0.2670  0.0329  1.6030
  653MOL0     H88106   7.781  11.647   2.866 -3.1739  0.8383  0.3728
  653MOL0     H88107   7.559  11.727   2.777 -2.6911  0.4696 -0.1447
  653MOL0     H88108   7.501  11.639   2.642  0.3371 -0.9384  0.4730
  653MOL0     H88109   7.338  11.658   2.842  0.3802  0.0088  1.1092
  653MOL0     H88110   7.439  11.560   2.934 -2.6108  0.1075  1.5907
  653MOL0     H88111   7.366  11.371   2.774 -2.0100 -1.3191  0.4770
  653MOL0     H88112   7.337  11.478   2.647  0.1147 -0.5720  0.6669
  653MOL0     H88113   7.182  11.497   2.913  1.1314 -0.3164  0.7438
  653MOL0     H88114   7.126  11.385   2.795 -1.6284  0.9691  0.7194
  653MOL0     H88115   6.954  11.434   2.905  0.7805  1.0391 -0.6489
  653MOL0     H88116   6.729  11.438   3.121 -1.3855 -0.7620  0.6171
  653MOL0     H88117   6.604  11.445   3.001  0.2430  2.5860  0.1309
  653MOL0     H88118   6.752  11.344   2.974 -1.9364 -0.3654  0.5884
  653MOL0     H88119   6.483  11.835   3.280  1.6665 -0.7562 -3.1228
  653MOL0     H88120   6.269  11.861   3.393 -1.4195 -1.6947  0.7136
  653MOL0     H88121   6.094  11.889   3.468 -1.1422  0.3608  0.9943
  653MOL0     H88122   6.016  11.975   3.330 -1.3999  0.0078 -0.6652
  653MOL0     H88123   5.884  11.952   3.531  2.0335 -1.1045  1.0057
  653MOL0     H88124   5.800  11.854   3.397 -0.4333  1.4361 -0.1877
  653MOL0     H88125   5.970  11.712   3.590  1.3048 -1.1016  0.2060
  653MOL0     H88126   5.853  11.655   3.460  2.2154  1.7406 -1.8391
  653MOL0     H88127   5.773  11.795   3.724 -1.0194  0.4884  0.2607
  653MOL0     H88128   5.675  11.803   3.583  0.3388 -0.4087 -1.3685
  653MOL0     H88129   5.677  11.592   3.779 -4.4511  2.1303 -1.8999
  653MOL0     H88130   5.796  11.530   3.658  1.2496 -0.1395 -0.3936
  653MOL0     H88131   5.496  11.608   3.633 -1.4332 -1.2255 -0.9308
  653MOL0     H88132   5.582  11.565   3.490 -1.3351  1.8641  0.9321
  653MOL0     H88133   5.530  11.391   3.735 -0.1434  0.8339  0.2716
  653MOL0     H88134   5.626  11.339   3.600  0.6903  0.8174 -0.8756
  653MOL0     H88135   5.417  11.392   3.447 -2.7434  1.6839  0.2274
  653MOL0     H88136   5.325  11.433   3.583 -1.6920 -2.7003 -1.0742
  653MOL0     H88137   6.076  11.626   3.101  0.7521 -1.9755 -1.1595
  653MOL0     H88138   6.302  11.584   2.980 -1.6132  2.0158 -1.2438
  653MOL0     H88139   6.751  11.880   2.829 -0.7545 -1.6240 -2.2647
  653MOL0     H88140   6.978  11.813   2.719  3.0959 -3.7974 -2.2618
  653MOL0     H88141   8.646  10.752   2.475  1.1720  0.2478  0.7931
  653MOL0     H88142   8.860  10.747   2.421 -2.9331 -3.9338 -3.1517
  653MOL0     H88143   9.189  10.799   2.210 -0.7403 -0.3518 -0.9461
  653MOL0     H88144   9.438  10.788   2.174 -0.9760  0.6433 -2.2069
  653MOL0     H88145   9.636  10.852   2.408  3.4841  0.1887  1.0577
  653MOL0     H88146   9.656  10.777   2.240 -1.0424  2.5845 -2.2932
  653MOL0     H88147   9.860  10.915   2.220  0.1797  0.6293 -0.4332
  653MOL0     H88148   9.856  10.791   2.356 -3.1201 -2.2264 -2.9135
  653MOL0     H88149   9.847  10.953   2.519  0.4310 -1.4210  0.1841
  653MOL0     H88150   9.796  11.084   2.413 -1.3607 -0.8703  1.3504
  653MOL0     H88151  10.018  11.117   2.488  0.4614  1.6388 -1.3407
  653MOL0     H88152  10.020  11.094   2.310 -0.5152  1.3442 -0.4700
  653MOL0     H88153  10.262  10.783   2.462  0.2424 -0.6687  0.4984
  653MOL0     H88154   9.493  11.188   2.251  0.0652  0.2383  0.5419
  653MOL0     H88155   9.259  11.227   2.260 -1.6659 -1.9336  2.5382
  654MOL0     O88156   1.586   8.564   2.965  0.8148  0.0050 -0.1509
  654MOL0     C88157   1.628   8.661   2.918 -0.1392 -0.4574  0.8303
  654MOL0     O88158   1.566   8.739   2.821  0.5749 -0.0753 -0.2169
  654MOL0     C88159   1.445   8.700   2.758  0.4215 -1.0099 -0.1806
  654MOL0     C88160   1.407   8.573   2.737  0.5500  0.0637 -0.2527
  654MOL0     C88161   1.291   8.552   2.663  0.2028 -0.0562  0.2325
  654MOL0     C88162   1.219   8.658   2.600  0.8800 -0.3561 -0.2545
  654MOL0     O88163   1.112   8.630   2.524  0.2943 -0.6142  0.2783
  654MOL0     C88164   1.024   8.531   2.577  0.4234  0.6786  0.5657
  654MOL0     C88165   0.909   8.485   2.472 -0.4778 -0.2981  1.0980
  654MOL0     C88166   0.797   8.415   2.547  0.1451 -0.0848 -0.2013
  654MOL0     C88167   0.667   8.439   2.465 -0.1464 -0.6386 -0.0382
  654MOL0     C88168   0.555   8.359   2.525 -0.0136  0.7624  0.3664
  654MOL0     C88169   0.437   8.381   2.432  0.2749 -0.6734  0.3005
  654MOL0     C88170   0.313   8.304   2.478  0.2148  0.2500  0.9360
  654MOL0     C88171   0.205   8.317   2.367  0.6321  0.6618 -0.2778
  654MOL0     N88172   0.223   8.210   2.267  0.3920  0.3378 -0.7054
  654MOL0     C88173   0.113   8.142   2.211  0.6206 -1.2454  0.0290
  654MOL0     C88174   0.159   8.065   2.112  0.3883  0.3100  0.3671
  654MOL0     C88175   0.078   7.953   2.045  0.9876 -1.5782  0.5543
  654MOL0     C88176  -0.025   7.903   2.145 -0.3095 -0.3295 -0.5167
  654MOL0     C88177  -0.113   7.796   2.088 -0.3061 -1.0401  0.3517
  654MOL0     C88178  -0.244   7.841   2.023  0.2768  0.9052 -0.0464
  654MOL0     O88179  -0.329   7.898   2.129  0.4155  0.0745  0.0572
  654MOL0     C88180  -0.456   7.835   2.135  0.9236 -0.2498 -0.4656
  654MOL0     C88181  -0.529   7.814   2.023  0.7446  0.3407 -0.1195
  654MOL0     C88182  -0.670   7.806   2.025  0.3097 -0.1677  0.5835
  654MOL0     C88183  -0.747   7.807   1.895 -0.6092  0.0435  0.9445
  654MOL0     C88184  -0.736   7.799   2.152  0.0848  0.9734 -0.3432
  654MOL0     C88185  -0.883   7.817   2.166  0.6104 -0.3163 -0.3739
  654MOL0     O88186  -0.952   7.745   2.261  0.2985 -0.1047 -0.1772
  654MOL0     C88187  -1.087   7.762   2.262 -0.4436 -1.2609 -0.6863
  654MOL0     C88188  -1.154   7.859   2.333 -0.4089 -0.1984  0.0013
  654MOL0     C88189  -1.289   7.891   2.311 -0.5839 -0.5803  0.2653
  654MOL0     C88190  -1.362   7.819   2.216  0.0166  0.4513  0.0878
  654MOL0     O88191  -1.494   7.849   2.183  0.3450 -0.3347 -0.0929
  654MOL0     C88192  -1.519   7.983   2.152  0.5781 -1.1398 -0.4434
  654MOL0     C88193  -1.662   8.010   2.097  0.1003  0.4939  0.1460
  654MOL0     C88194  -1.698   7.924   1.970 -1.2667 -0.0402  0.2609
  654MOL0     C88195  -1.618   7.960   1.843  0.7119  0.3784  0.1536
  654MOL0     C88196  -1.635   7.851   1.739 -0.3551 -0.1840  0.1233
  654MOL0     C88197  -1.597   7.898   1.592  0.5653 -0.1661 -0.8787
  654MOL0     C88198  -1.633   7.798   1.481  0.2749 -0.5558  0.4853
  654MOL0     C88199  -1.785   7.773   1.462  0.1461  0.1974 -0.8402
  654MOL0    Cl88200  -1.862   7.913   1.379 -0.1107 -0.1239  0.2026
  654MOL0     C88201  -1.309   7.708   2.167  0.5116  0.8141  0.4035
  654MOL0     C88202  -1.170   7.679   2.185  0.1108 -0.5392  0.7782
  654MOL0     O88203  -0.933   7.907   2.095 -0.6147  0.3691 -0.1771
  654MOL0     C88204  -0.660   7.800   2.273 -0.3316  1.2426  0.7133
  654MOL0     C88205  -0.522   7.829   2.259  0.5092  1.0919  0.2519
  654MOL0     N88206   0.291   8.082   2.117  0.0516  0.3368 -0.0908
  654MOL0     N88207   0.332   8.165   2.204 -0.1027  1.1559  0.4059
  654MOL0     C88208   1.259   8.785   2.621 -0.1878 -0.6345  0.5615
  654MOL0     C88209   1.378   8.807   2.696  0.0736  0.7568 -0.1773
  654MOL0     C88210   1.763   8.702   2.942 -0.0717 -0.4998 -1.1773
  654MOL0     C88211   1.800   8.841   2.924 -0.4683  1.0402  0.5622
  654MOL0     C88212   1.929   8.882   2.960  0.4320  0.1744  0.1345
  654MOL0     C88213   2.016   8.795   3.011 -0.2589  0.7612 -0.2439
  654MOL0     O88214   2.138   8.850   3.035 -0.3426  0.0025 -0.3145
  654MOL0     C88215   2.236   8.779   3.114  0.2008 -0.1558  0.2613
  654MOL0     C88216   2.300   8.880   3.198  0.6599 -0.5198  0.5366
  654MOL0     C88217   2.424   8.826   3.276 -0.1011  0.1543 -0.5006
  654MOL0     C88218   2.511   8.942   3.323 -0.0386 -0.0386 -1.1680
  654MOL0     C88219   2.444   9.030   3.427 -0.2894 -0.2609  0.1912
  654MOL0     C88220   2.363   9.096   3.480  1.0489  0.0993 -1.0758
  654MOL0     C88221   1.982   8.658   3.020 -0.9631 -0.9300  0.2099
  654MOL0     C88222   1.854   8.610   2.994 -0.2209  0.1253 -0.2741
  654MOL0     H88223   1.460   8.484   2.772  1.3313  1.6934  3.1018
  654MOL0     H88224   1.273   8.452   2.625 -2.0815  0.3173  0.1489
  654MOL0     H88225   1.080   8.440   2.597  4.2720  2.1670 -2.2457
  654MOL0     H88226   0.981   8.561   2.673 -1.2554  1.4457 -0.3752
  654MOL0     H88227   0.879   8.572   2.413  1.1752 -0.8203 -0.5914
  654MOL0     H88228   0.946   8.409   2.403  0.5959  1.3200 -0.1924
  654MOL0     H88229   0.817   8.308   2.556  0.9032  0.0182 -0.6067
  654MOL0     H88230   0.772   8.439   2.650 -1.5045 -2.0573 -0.0779
  654MOL0     H88231   0.644   8.545   2.467 -3.2975 -1.2504  0.7086
  654MOL0     H88232   0.696   8.418   2.362  1.7583  3.3947 -0.5037
  654MOL0     H88233   0.590   8.256   2.534 -1.7101  0.2159  1.1638
  654MOL0     H88234   0.541   8.390   2.629  3.2432  3.8198  0.0895
  654MOL0     H88235   0.399   8.483   2.428 -1.0592 -1.1693 -0.1286
  654MOL0     H88236   0.469   8.353   2.332  0.7371 -2.0669  0.8044
  654MOL0     H88237   0.333   8.199   2.498 -0.3614 -0.4917 -1.9357
  654MOL0     H88238   0.272   8.342   2.573  0.5706 -3.5651  2.7892
  654MOL0     H88239   0.206   8.417   2.324 -2.2299  2.8263  3.9406
  654MOL0     H88240   0.113   8.295   2.423  2.1989 -4.4660  0.8683
  654MOL0     H88241   0.012   8.145   2.251  0.5698 -1.6920 -0.0633
  654MOL0     H88242   0.028   7.990   1.955 -0.5262  0.1995  2.0357
  654MOL0     H88243   0.144   7.868   2.027 -0.2590 -3.0073  2.3625
  654MOL0     H88244  -0.091   7.982   2.184 -1.0139 -0.9405 -0.4466
  654MOL0     H88245   0.045   7.870   2.223 -1.2139 -2.9640 -0.7334
  654MOL0     H88246  -0.140   7.731   2.172  1.5145 -0.8685  1.0986
  654MOL0     H88247  -0.054   7.731   2.023  0.4667  0.1189 -0.1275
  654MOL0     H88248  -0.298   7.759   1.974 -0.8966  1.0156  1.0188
  654MOL0     H88249  -0.231   7.917   1.945 -1.7427 -0.4645 -1.8398
  654MOL0     H88250  -0.493   7.825   1.921 -0.4552  0.3310 -0.5638
  654MOL0     H88251  -0.846   7.760   1.898 -0.8414 -0.6156 -4.9768
  654MOL0     H88252  -0.750   7.909   1.855  1.3856 -0.0408  0.4615
  654MOL0     H88253  -0.694   7.744   1.822  0.4470 -0.9871  2.5323
  654MOL0     H88254  -1.101   7.893   2.421 -0.5407 -3.0821  1.2748
  654MOL0     H88255  -1.327   7.969   2.376  2.1382 -0.2657  1.6052
  654MOL0     H88256  -1.507   8.039   2.245  0.0667 -0.7188 -0.6238
  654MOL0     H88257  -1.451   8.022   2.076  0.0636 -1.1762 -0.9291
  654MOL0     H88258  -1.732   7.980   2.175 -0.8036  0.6179 -0.5935
  654MOL0     H88259  -1.679   8.116   2.073  0.3609  0.9145  1.7101
  654MOL0     H88260  -1.805   7.928   1.951 -1.2180 -2.1537 -0.6240
  654MOL0     H88261  -1.680   7.818   1.987  1.1870  0.2762  0.0318
  654MOL0     H88262  -1.655   8.051   1.797 -0.7437  0.5708  1.6135
  654MOL0     H88263  -1.512   7.960   1.873  0.2582 -0.3784  1.8729
  654MOL0     H88264  -1.740   7.821   1.734 -0.4215 -0.0373  0.5817
  654MOL0     H88265  -1.574   7.765   1.768  2.2591  0.9940 -1.4547
  654MOL0     H88266  -1.653   7.990   1.577  0.3087 -0.2721 -0.5903
  654MOL0     H88267  -1.491   7.919   1.574  0.3656  2.3307  0.3860
  654MOL0     H88268  -1.587   7.703   1.509  2.3773 -0.0367 -0.9847
  654MOL0     H88269  -1.591   7.824   1.384  0.2625 -0.9581  0.3698
  654MOL0     H88270  -1.840   7.746   1.552  0.3089  0.6751 -0.5957
  654MOL0     H88271  -1.806   7.686   1.399  2.0158 -1.1570  0.3187
  654MOL0     H88272  -1.366   7.645   2.100 -0.2808  1.3027  0.5981
  654MOL0     H88273  -1.135   7.594   2.127 -1.1971 -1.3901  1.2015
  654MOL0     H88274  -0.694   7.802   2.376 -0.0345 -2.5653  1.0236
  654MOL0     H88275  -0.459   7.867   2.338  0.9880  1.5185 -0.3175
  654MOL0     H88276   1.207   8.868   2.574  0.9270 -0.1071  0.2438
  654MOL0     H88277   1.404   8.909   2.721  0.6306  0.1268  1.9709
  654MOL0     H88278   1.726   8.913   2.889 -0.8161  1.4849  2.1406
  654MOL0     H88279   1.945   8.989   2.952 -0.5000  0.2816 -0.3944
  654MOL0     H88280   2.194   8.703   3.181 -0.0176  0.9601  1.4356
  654MOL0     H88281   2.318   8.736   3.057 -0.7676  0.7145 -1.9055
  654MOL0     H88282   2.224   8.922   3.264 -2.1419 -2.0844 -1.4613
  654MOL0     H88283   2.335   8.956   3.128 -0.2852 -1.4220 -0.9908
  654MOL0     H88284   2.493   8.769   3.213  1.3829  1.4892 -0.1429
  654MOL0     H88285   2.386   8.767   3.359 -0.8599  1.4610  0.0968
  654MOL0     H88286   2.541   9.014   3.246  1.3658  0.0401 -0.5682
  654MOL0     H88287   2.601   8.898   3.368  0.4893  0.8649 -1.2991
  654MOL0     H88288   2.293   9.173   3.507 -0.0159 -0.8241 -1.1376
  654MOL0     H88289   2.047   8.581   3.061 -0.3060 -0.5298 -0.0624
  654MOL0     H88290   1.838   8.506   3.022 -1.6283  0.4351  0.1770
  655MOL0     O88291   2.046   8.238   8.440 -0.3641 -0.2868 -0.1316
  655MOL0     C88292   1.981   8.144   8.388 -0.2955 -0.0235 -0.6341
  655MOL0     O88293   1.862   8.154   8.335 -0.6906 -1.3205  1.0598
  655MOL0     C88294   1.823   8.283   8.296  0.1424 -0.3798 -0.3818
  655MOL0     C88295   1.803   8.297   8.161  0.4462  0.2075 -0.2260
  655MOL0     C88296   1.744   8.406   8.102 -0.3983 -0.3629 -0.1035
  655MOL0     C88297   1.719   8.516   8.177 -0.0916 -0.4742  0.2183
  655MOL0     O88298   1.687   8.626   8.107 -0.0473  0.0378 -0.4735
  655MOL0     C88299   1.701   8.754   8.172 -0.4227  0.3063 -0.6776
  655MOL0     C88300   1.699   8.877   8.089 -0.0591 -0.0493  0.5064
  655MOL0     C88301   1.811   8.857   7.978  0.6145  0.0228 -0.2005
  655MOL0     C88302   1.767   8.778   7.849  0.3069 -0.3438  0.2162
  655MOL0     C88303   1.883   8.712   7.777 -0.2356  0.5400 -0.0437
  655MOL0     C88304   1.833   8.651   7.637  0.2011  0.6243  0.3679
  655MOL0     C88305   1.940   8.577   7.556 -0.7762  0.1997 -0.6578
  655MOL0     C88306   2.021   8.479   7.638  0.3204 -0.4650  0.6809
  655MOL0     N88307   1.949   8.363   7.683  0.1926  0.8484  0.1308
  655MOL0     C88308   1.888   8.273   7.597  0.4050  1.0360 -0.6761
  655MOL0     C88309   1.803   8.197   7.669  1.5622  0.8225  0.3109
  655MOL0     C88310   1.705   8.092   7.615  0.2704 -0.0572 -0.4598
  655MOL0     C88311   1.572   8.141   7.561 -0.1280 -0.4356 -0.2212
  655MOL0     C88312   1.456   8.152   7.648 -0.0849  0.7727 -0.3826
  655MOL0     C88313   1.460   8.259   7.748 -1.0136 -1.6148 -0.4973
  655MOL0     O88314   1.330   8.305   7.787 -0.1066  0.0437  1.0960
  655MOL0     C88315   1.311   8.410   7.866 -0.1005 -0.7096  0.5045
  655MOL0     C88316   1.181   8.442   7.895 -1.0736  0.4151  0.2404
  655MOL0     C88317   1.140   8.552   7.977  0.2833  1.2950 -0.2067
  655MOL0     C88318   0.991   8.572   7.995  0.2680 -0.5716  0.7849
  655MOL0     C88319   1.245   8.629   8.039 -0.3478 -0.5708  0.6700
  655MOL0     C88320   1.226   8.739   8.128 -0.1384  0.8687 -0.2415
  655MOL0     O88321   1.330   8.827   8.157  0.8344  1.1081  0.3293
  655MOL0     C88322   1.315   8.938   8.246 -0.1395  0.0821 -0.1043
  655MOL0     C88323   1.405   9.042   8.228 -0.7780  0.4410 -0.3892
  655MOL0     C88324   1.410   9.154   8.315 -0.1454  0.2192 -0.0797
  655MOL0     C88325   1.314   9.164   8.415  0.5204 -0.2654 -0.3046
  655MOL0     O88326   1.324   9.256   8.513 -0.6014  0.1238 -0.0223
  655MOL0     C88327   1.450   9.265   8.581 -0.2050  0.1400 -0.2409
  655MOL0     C88328   1.456   9.353   8.701  0.0307  0.5765 -0.2325
  655MOL0     C88329   1.399   9.273   8.826 -0.3548  0.2804  0.1764
  655MOL0     C88330   1.259   9.211   8.810 -1.2127 -0.3152  0.0293
  655MOL0     C88331   1.194   9.130   8.923  0.0660 -0.5664  0.0459
  655MOL0     C88332   1.037   9.088   8.907 -0.0371  0.2255  0.2787
  655MOL0     C88333   0.990   9.039   8.777 -0.1553  0.1725 -0.6402
  655MOL0     C88334   0.841   9.017   8.780 -0.0209  0.5150  0.3465
  655MOL0    Cl88335   0.779   8.956   8.619  0.8808  0.1769 -0.0086
  655MOL0     C88336   1.219   9.064   8.431  0.0929 -0.4514  0.7337
  655MOL0     C88337   1.225   8.947   8.354 -0.6327  0.9852 -0.9290
  655MOL0     O88338   1.113   8.749   8.177 -0.2854 -0.1629  0.1205
  655MOL0     C88339   1.381   8.587   8.010 -0.6995  0.8336  0.0560
  655MOL0     C88340   1.417   8.489   7.923 -1.1119 -0.5198 -0.1422
  655MOL0     N88341   1.803   8.243   7.799  0.1615  1.3279  0.2512
  655MOL0     N88342   1.888   8.337   7.802 -0.0584  0.1711 -0.6192
  655MOL0     C88343   1.726   8.504   8.320  1.2535 -0.3961  0.0886
  655MOL0     C88344   1.781   8.392   8.377  0.1296  0.3018  0.4486
  655MOL0     C88345   2.034   8.006   8.417 -0.3869 -0.1195 -0.6978
  655MOL0     C88346   1.960   7.889   8.408 -0.4798  0.0013 -0.4446
  655MOL0     C88347   2.021   7.760   8.428 -0.7937  0.0499 -0.3055
  655MOL0     C88348   2.155   7.754   8.458 -0.6978  0.6432  0.2899
  655MOL0     O88349   2.198   7.627   8.476  0.3788  0.8522  0.6413
  655MOL0     C88350   2.340   7.600   8.506  1.4445  0.6184  0.1738
  655MOL0     C88351   2.426   7.644   8.387 -0.0207 -0.4847 -0.4565
  655MOL0     C88352   2.577   7.666   8.413  0.2059  0.7017  0.0129
  655MOL0     C88353   2.657   7.537   8.422 -0.1507 -0.0685  0.0410
  655MOL0     C88354   2.630   7.449   8.536 -0.7783  0.3405  0.1768
  655MOL0     C88355   2.616   7.377   8.634  0.3302 -0.0435  0.9584
  655MOL0     C88356   2.226   7.872   8.481 -0.2708 -0.0949 -1.0674
  655MOL0     C88357   2.175   7.992   8.454  0.4615 -0.7039  0.1792
  655MOL0     H88358   1.823   8.217   8.090  0.5524  0.9592 -1.0496
  655MOL0     H88359   1.726   8.420   7.995 -1.6893 -2.8014 -0.2801
  655MOL0     H88360   1.611   8.764   8.233  1.8462  2.0909  2.6632
  655MOL0     H88361   1.791   8.760   8.234  0.5471  1.2545 -2.1099
  655MOL0     H88362   1.604   8.868   8.035 -0.0893  2.6655 -0.0354
  655MOL0     H88363   1.708   8.970   8.146  0.3553 -0.2244  0.7297
  655MOL0     H88364   1.831   8.959   7.942 -1.4478  1.4078  2.2087
  655MOL0     H88365   1.907   8.827   8.021 -0.3191  0.3723  2.2906
  655MOL0     H88366   1.693   8.699   7.866  0.1507  0.1067  1.7935
  655MOL0     H88367   1.713   8.844   7.780  2.9617 -1.1954 -2.8984
  655MOL0     H88368   1.967   8.774   7.747 -0.6578 -0.9789 -5.2592
  655MOL0     H88369   1.912   8.625   7.837 -2.1653  0.4235  0.8063
  655MOL0     H88370   1.745   8.589   7.658  1.0953 -1.2845 -1.1730
  655MOL0     H88371   1.798   8.733   7.575 -1.4386  0.2672  0.7662
  655MOL0     H88372   1.902   8.531   7.464 -3.1145 -2.1032  1.3037
  655MOL0     H88373   2.006   8.655   7.519 -0.7295  1.7183  2.2803
  655MOL0     H88374   2.071   8.531   7.721  4.8448 -0.5337 -1.6712
  655MOL0     H88375   2.103   8.457   7.569  1.4981  1.2669  1.4354
  655MOL0     H88376   1.896   8.268   7.489 -0.1691 -0.4369 -0.6763
  655MOL0     H88377   1.769   8.049   7.537  1.5586 -0.9673  1.0367
  655MOL0     H88378   1.691   8.020   7.696  4.3663  2.4642  2.9629
  655MOL0     H88379   1.548   8.074   7.478  0.1886 -0.7170 -0.0870
  655MOL0     H88380   1.590   8.237   7.512 -0.0177 -0.4451 -0.1995
  655MOL0     H88381   1.431   8.056   7.694  2.2609 -0.1722 -0.9594
  655MOL0     H88382   1.370   8.157   7.580 -0.0706 -4.1192 -1.1165
  655MOL0     H88383   1.518   8.342   7.706 -2.2525 -0.1528  0.5723
  655MOL0     H88384   1.508   8.221   7.839 -0.1491  2.7773  1.1360
  655MOL0     H88385   1.111   8.369   7.858 -0.7800 -0.2920  1.0482
  655MOL0     H88386   0.967   8.678   7.987  0.2953 -0.5932  0.3605
  655MOL0     H88387   0.944   8.521   7.910  2.6077  0.6891 -1.4029
  655MOL0     H88388   0.968   8.531   8.094 -2.3661  0.5652  0.7452
  655MOL0     H88389   1.468   9.035   8.140 -1.6557  1.0376 -1.0765
  655MOL0     H88390   1.479   9.234   8.294 -1.2826  0.6053 -2.8346
  655MOL0     H88391   1.477   9.166   8.618  0.4144 -1.4300 -4.3040
  655MOL0     H88392   1.529   9.300   8.514  0.6538  0.7073  1.0276
  655MOL0     H88393   1.564   9.365   8.712 -0.2349  0.8308  4.0328
  655MOL0     H88394   1.409   9.450   8.684 -0.7814  0.3917  0.8665
  655MOL0     H88395   1.391   9.350   8.903  2.7240  0.7966  0.0667
  655MOL0     H88396   1.463   9.193   8.863  1.7099  1.2896 -1.0388
  655MOL0     H88397   1.187   9.293   8.797  1.0718  1.6426 -0.9465
  655MOL0     H88398   1.266   9.138   8.728  0.0707 -0.1106 -0.0589
  655MOL0     H88399   1.185   9.195   9.011  1.2440  0.1836 -0.3664
  655MOL0     H88400   1.259   9.043   8.937  1.3671 -0.0441 -2.3319
  655MOL0     H88401   1.008   9.016   8.984 -1.5474 -1.3237 -1.6349
  655MOL0     H88402   0.989   9.183   8.931 -0.7375  0.5849 -2.2236
  655MOL0     H88403   1.027   8.938   8.758 -2.6186 -1.6561  3.1029
  655MOL0     H88404   1.021   9.101   8.692  2.5736  3.0618  2.1628
  655MOL0     H88405   0.796   9.113   8.807 -1.6501  0.5407 -2.1609
  655MOL0     H88406   0.808   8.946   8.856 -0.3919 -0.4022 -0.6618
  655MOL0     H88407   1.154   9.074   8.517 -1.1924  2.6921 -0.4824
  655MOL0     H88408   1.158   8.864   8.372 -0.2627  0.5450 -1.5239
  655MOL0     H88409   1.457   8.649   8.058  1.2127 -0.5894 -0.9893
  655MOL0     H88410   1.522   8.469   7.908 -1.1597 -0.0940 -1.1185
  655MOL0     H88411   1.706   8.586   8.389  2.2952 -1.2794  1.4970
  655MOL0     H88412   1.782   8.379   8.485  3.2761 -0.5897  0.4237
  655MOL0     H88413   1.854   7.896   8.385 -0.6115  2.1687  0.5911
  655MOL0     H88414   1.953   7.677   8.412  0.0602 -1.0070  1.3595
  655MOL0     H88415   2.380   7.652   8.593 -0.7220 -4.4837  4.7846
  655MOL0     H88416   2.351   7.494   8.528  0.0808  0.7031  1.3976
  655MOL0     H88417   2.398   7.742   8.346  2.9693  0.4522 -0.4976
  655MOL0     H88418   2.414   7.569   8.309 -2.6971  1.4093 -2.0521
  655MOL0     H88419   2.592   7.741   8.492  1.5583 -1.9687  2.4521
  655MOL0     H88420   2.624   7.713   8.326  0.4997 -0.8579 -0.7020
  655MOL0     H88421   2.757   7.576   8.442 -0.4280  1.2511 -0.9801
  655MOL0     H88422   2.663   7.485   8.326  0.8206  3.4595 -1.9957
  655MOL0     H88423   2.605   7.313   8.719  3.0326 -2.5430 -0.4194
  655MOL0     H88424   2.329   7.868   8.516 -0.7571  0.5801  0.5405
  655MOL0     H88425   2.237   8.080   8.468 -3.0420  2.0099  0.0975
  656MOL0     O88426   3.414   1.480   2.328 -0.2061  0.0816  0.7962
  656MOL0     C88427   3.322   1.407   2.285 -0.0361  0.2652 -0.4661
  656MOL0     O88428   3.277   1.293   2.344 -0.4085 -0.8108 -0.3293
  656MOL0     C88429   3.314   1.262   2.472 -0.0497  0.5344 -0.2069
  656MOL0     C88430   3.290   1.343   2.582  0.3171  0.8084 -0.1081
  656MOL0     C88431   3.337   1.294   2.704 -0.2189 -0.1858 -0.3547
  656MOL0     C88432   3.397   1.171   2.729 -0.8184  0.2209 -0.0758
  656MOL0     O88433   3.433   1.143   2.853  0.0632 -0.0090 -0.6240
  656MOL0     C88434   3.504   1.016   2.867  0.1177 -0.2347 -0.0754
  656MOL0     C88435   3.524   0.987   3.008  0.4163  0.2316  0.0552
  656MOL0     C88436   3.392   0.992   3.090  0.3557  0.1994  1.3630
  656MOL0     C88437   3.434   0.946   3.229  0.7067 -0.2223  0.4071
  656MOL0     C88438   3.306   0.920   3.305 -0.9177 -0.0658 -0.0103
  656MOL0     C88439   3.359   0.897   3.452 -0.4347  0.4053  0.6239
  656MOL0     C88440   3.249   0.853   3.541  0.3533 -0.6514 -0.5171
  656MOL0     C88441   3.273   0.884   3.689 -0.1257  0.3956  0.6086
  656MOL0     N88442   3.153   0.850   3.768 -0.5967 -0.0153 -0.0282
  656MOL0     C88443   3.033   0.919   3.753  0.0881 -0.3533  0.1680
  656MOL0     C88444   2.955   0.851   3.840 -1.2843 -0.6835  1.1956
  656MOL0     C88445   2.810   0.873   3.876 -0.0748 -0.1523  0.8135
  656MOL0     C88446   2.781   1.009   3.936 -0.3982 -0.4163  1.2139
  656MOL0     C88447   2.662   1.014   4.040 -0.5256  0.6187 -0.1678
  656MOL0     C88448   2.530   0.958   3.988 -0.0882  0.1800  0.5757
  656MOL0     O88449   2.430   0.998   4.082  0.1901  0.0599  0.1235
  656MOL0     C88450   2.297   0.966   4.056  0.4790 -0.4104  0.1860
  656MOL0     C88451   2.204   1.013   4.150  0.7140 -0.8416 -0.1300
  656MOL0     C88452   2.069   0.977   4.143  0.0706 -0.6647  1.2771
  656MOL0     C88453   1.967   1.032   4.240  0.4797 -0.0171 -0.5287
  656MOL0     C88454   2.026   0.905   4.030 -1.3401  0.3674  0.5926
  656MOL0     C88455   1.887   0.864   4.016 -0.2025  0.1835 -0.3612
  656MOL0     O88456   1.860   0.740   3.959  0.5252 -0.3907 -0.3655
  656MOL0     C88457   1.731   0.696   3.937  0.1959 -0.6168 -0.6401
  656MOL0     C88458   1.649   0.666   4.045  0.0267 -0.9682  0.4123
  656MOL0     C88459   1.526   0.609   4.014 -0.4304 -0.2743  0.1985
  656MOL0     C88460   1.487   0.578   3.880 -0.4016 -0.0487 -1.1696
  656MOL0     O88461   1.366   0.518   3.857  0.2365  0.8158 -0.2277
  656MOL0     C88462   1.261   0.502   3.958 -0.9554 -0.9544  0.0613
  656MOL0     C88463   1.124   0.489   3.891 -0.3606 -1.0588 -0.5108
  656MOL0     C88464   1.102   0.599   3.784  0.0490 -0.8957 -1.3154
  656MOL0     C88465   0.952   0.623   3.740 -0.2351  0.2664 -0.2833
  656MOL0     C88466   0.888   0.494   3.676 -1.0535  0.5952 -0.1897
  656MOL0     C88467   0.762   0.527   3.607  0.0716 -0.3591  0.0872
  656MOL0     C88468   0.712   0.410   3.520 -0.5031  0.0286 -0.6049
  656MOL0     C88469   0.567   0.406   3.502  1.2533 -0.1910 -0.6292
  656MOL0    Cl88470   0.508   0.551   3.412  0.3378 -0.0116  0.6049
  656MOL0     C88471   1.579   0.596   3.780 -0.1618  0.2708 -0.3392
  656MOL0     C88472   1.700   0.658   3.808  0.1088 -0.5093 -0.0276
  656MOL0     O88473   1.798   0.946   4.038  0.2024 -0.2770 -0.3104
  656MOL0     C88474   2.119   0.871   3.926  0.1216 -0.5386 -0.1682
  656MOL0     C88475   2.257   0.890   3.943 -0.3653  0.6038 -0.2031
  656MOL0     N88476   3.026   0.737   3.891  0.5172 -0.1954  0.0051
  656MOL0     N88477   3.140   0.732   3.836 -0.2295 -0.0203 -0.2294
  656MOL0     C88478   3.414   1.093   2.615  0.6889  0.1868  0.0082
  656MOL0     C88479   3.382   1.136   2.483 -0.1596  0.4176  0.1416
  656MOL0     C88480   3.252   1.436   2.160  0.8214 -0.0653 -0.2331
  656MOL0     C88481   3.266   1.556   2.091  0.9745 -0.1000 -0.4214
  656MOL0     C88482   3.201   1.569   1.966  0.4786 -0.4872  0.2437
  656MOL0     C88483   3.115   1.474   1.913  0.3264  0.0754 -0.5190
  656MOL0     O88484   3.056   1.504   1.799 -0.5338  0.4863 -0.2811
  656MOL0     C88485   3.004   1.397   1.720  0.0084 -0.2808  0.1892
  656MOL0     C88486   2.954   1.448   1.590 -0.6586 -0.1731  0.0028
  656MOL0     C88487   2.912   1.323   1.512  0.5272 -0.8935  0.3518
  656MOL0     C88488   2.841   1.377   1.382 -0.5687 -0.2749 -0.0524
  656MOL0     C88489   2.923   1.477   1.304  0.5749 -0.4521  0.5679
  656MOL0     C88490   2.993   1.557   1.243 -0.1531  0.3322  0.1606
  656MOL0     C88491   3.091   1.358   1.985 -0.9140 -0.3345  0.0629
  656MOL0     C88492   3.156   1.333   2.106 -0.0901  0.2547  0.0909
  656MOL0     H88493   3.229   1.429   2.555 -4.5108 -2.5717 -1.6285
  656MOL0     H88494   3.312   1.344   2.797 -2.5989 -2.0328  0.0869
  656MOL0     H88495   3.448   0.930   2.830 -0.0661  0.1430 -0.7008
  656MOL0     H88496   3.602   1.026   2.821 -0.8013 -0.0290 -2.0890
  656MOL0     H88497   3.559   0.883   3.005  0.0161  0.0944 -3.1156
  656MOL0     H88498   3.590   1.055   3.063  0.4829 -0.4744  0.8674
  656MOL0     H88499   3.342   1.089   3.080 -1.4567 -0.9686 -2.5985
  656MOL0     H88500   3.316   0.920   3.059  0.2234  0.1134  1.8759
  656MOL0     H88501   3.507   0.867   3.245 -1.0006 -1.7437  1.1751
  656MOL0     H88502   3.486   1.031   3.274  0.6327  1.3711 -2.3275
  656MOL0     H88503   3.236   1.004   3.298 -0.5653  0.2296  0.0427
  656MOL0     H88504   3.259   0.832   3.259 -0.7827 -0.5813  0.8270
  656MOL0     H88505   3.433   0.818   3.435 -1.0425  0.1222 -0.9099
  656MOL0     H88506   3.407   0.986   3.494  0.2445  0.3748 -0.0406
  656MOL0     H88507   3.160   0.910   3.510 -0.3902 -0.1067  2.3197
  656MOL0     H88508   3.219   0.750   3.519 -0.4045 -0.6276  0.3539
  656MOL0     H88509   3.302   0.988   3.708  1.1875 -0.0125  0.9357
  656MOL0     H88510   3.358   0.824   3.722 -0.5099 -0.7829 -0.4419
  656MOL0     H88511   3.018   1.017   3.709  0.7287  0.1696  1.0902
  656MOL0     H88512   2.749   0.859   3.787  2.4512  0.4471 -1.1308
  656MOL0     H88513   2.781   0.800   3.952 -0.4896 -1.2683 -0.3932
  656MOL0     H88514   2.754   1.081   3.858  1.7798 -1.2486 -0.4161
  656MOL0     H88515   2.877   1.043   3.976  0.5540  1.1792 -2.0859
  656MOL0     H88516   2.651   1.120   4.066 -0.3294  0.4487  0.6390
  656MOL0     H88517   2.684   0.956   4.131 -2.4340  0.3056  0.1320
  656MOL0     H88518   2.539   0.849   3.975 -2.1974 -0.1862  1.6283
  656MOL0     H88519   2.495   0.998   3.893 -2.6499 -0.7338  1.0328
  656MOL0     H88520   2.234   1.087   4.223 -2.7682  0.8522 -0.2086
  656MOL0     H88521   1.894   0.957   4.271 -0.3219  1.0249  0.1525
  656MOL0     H88522   2.018   1.072   4.327  1.3417  1.1679 -1.5473
  656MOL0     H88523   1.915   1.123   4.208 -0.9950 -0.4939  0.4112
  656MOL0     H88524   1.678   0.702   4.143  1.1984 -0.2712 -0.1717
  656MOL0     H88525   1.471   0.590   4.106  0.5060  1.4865  1.1764
  656MOL0     H88526   1.288   0.413   4.015  4.7234  0.0850 -0.4160
  656MOL0     H88527   1.259   0.588   4.026  0.6303  0.5426 -1.6788
  656MOL0     H88528   1.114   0.396   3.833 -1.1877 -0.7191 -0.9221
  656MOL0     H88529   1.046   0.486   3.967  0.9940  0.1144  0.9901
  656MOL0     H88530   1.158   0.591   3.690 -1.7675 -1.4587 -2.3968
  656MOL0     H88531   1.141   0.689   3.833  1.2580 -2.6182  1.0494
  656MOL0     H88532   0.894   0.662   3.824 -0.0551 -0.8973  0.4024
  656MOL0     H88533   0.959   0.709   3.672 -0.7836  0.3064 -0.2887
  656MOL0     H88534   0.870   0.417   3.752  0.1759 -0.2176 -0.6999
  656MOL0     H88535   0.967   0.463   3.607  1.2479  4.2298  0.4900
  656MOL0     H88536   0.688   0.556   3.683  0.3471 -3.3097  1.6153
  656MOL0     H88537   0.774   0.616   3.545  0.9207 -1.3930 -1.2954
  656MOL0     H88538   0.739   0.313   3.562 -0.2976 -0.9083 -2.7597
  656MOL0     H88539   0.753   0.422   3.420  0.9009  1.6907  0.1147
  656MOL0     H88540   0.529   0.393   3.604  3.5400  0.3276  0.3480
  656MOL0     H88541   0.546   0.314   3.446  1.2931  0.3229 -1.5005
  656MOL0     H88542   1.540   0.561   3.685 -0.4548  1.3623 -0.6403
  656MOL0     H88543   1.785   0.662   3.740  0.8633  0.5645  0.9302
  656MOL0     H88544   2.093   0.814   3.837  1.7788  0.1350 -1.1197
  656MOL0     H88545   2.330   0.854   3.872 -0.7215 -0.5453 -0.0079
  656MOL0     H88546   3.463   0.998   2.637  1.1027  0.9301  2.6725
  656MOL0     H88547   3.399   1.068   2.400  0.2047  1.5307 -0.7266
  656MOL0     H88548   3.323   1.635   2.138  0.3554 -1.0628  2.1280
  656MOL0     H88549   3.223   1.668   1.928  2.1152 -0.5499  0.9544
  656MOL0     H88550   3.082   1.320   1.711 -2.9932 -3.3668 -1.5923
  656MOL0     H88551   2.925   1.345   1.774  2.0364  0.3372  4.0977
  656MOL0     H88552   3.041   1.491   1.538  0.3346 -2.1889 -0.1087
  656MOL0     H88553   2.867   1.511   1.608 -0.7480  0.0863 -1.2260
  656MOL0     H88554   2.841   1.259   1.564 -1.7335  2.2460  1.4920
  656MOL0     H88555   3.001   1.261   1.495  0.8051 -0.8906  1.6505
  656MOL0     H88556   2.753   1.434   1.414  0.0516  0.6854 -0.0037
  656MOL0     H88557   2.802   1.295   1.322  0.8302 -0.2447 -1.0670
  656MOL0     H88558   3.041   1.636   1.188 -2.1292  1.5592  0.0901
  656MOL0     H88559   3.024   1.278   1.956 -0.7235 -1.0287  1.4426
  656MOL0     H88560   3.125   1.241   2.154 -2.0845  0.5285 -0.5703
  657MOL0     O88561   7.345   1.457   0.844 -0.5540 -0.3966  0.1575
  657MOL0     C88562   7.442   1.521   0.890 -1.0054 -0.8741  0.4551
  657MOL0     O88563   7.568   1.480   0.922  0.1999 -0.3112 -0.3775
  657MOL0     C88564   7.596   1.347   0.932 -0.4190  0.0994 -0.3798
  657MOL0     C88565   7.699   1.286   0.860 -0.1162  0.1993  0.4825
  657MOL0     C88566   7.724   1.152   0.870  0.4350 -0.4837  0.0065
  657MOL0     C88567   7.649   1.066   0.949 -0.6430 -0.0186 -0.3928
  657MOL0     O88568   7.648   0.923   0.968  0.0384  0.2089 -0.5150
  657MOL0     C88569   7.761   0.846   0.916 -0.3999  0.0583  0.9582
  657MOL0     C88570   7.729   0.818   0.765  0.3248  0.1711 -0.5712
  657MOL0     C88571   7.676   0.673   0.750 -0.3603  0.3051  0.9225
  657MOL0     C88572   7.530   0.645   0.791 -0.4712 -0.3953 -0.5010
  657MOL0     C88573   7.531   0.501   0.847  0.1883  0.2947  1.0170
  657MOL0     C88574   7.554   0.380   0.757  0.0216 -1.5934  0.0307
  657MOL0     C88575   7.458   0.390   0.638 -0.0745  0.2931 -0.9114
  657MOL0     C88576   7.497   0.278   0.537  0.7976  0.2126  0.2932
  657MOL0     N88577   7.426   0.301   0.405  0.6967  0.1996 -0.2533
  657MOL0     C88578   7.475   0.254   0.284  0.0770 -0.0437 -0.6539
  657MOL0     C88579   7.369   0.285   0.198 -0.2477  1.0008  0.6206
  657MOL0     C88580   7.387   0.273   0.050 -1.2149 -0.3903 -0.1998
  657MOL0     C88581   7.284   0.189  -0.019  0.0135 -0.0057 -1.1129
  657MOL0     C88582   7.322   0.186  -0.167  0.3748  0.9628  0.5315
  657MOL0     C88583   7.220   0.098  -0.226  0.1134 -1.0517 -0.1672
  657MOL0     O88584   7.215   0.112  -0.363  0.5845 -0.4062  0.2787
  657MOL0     C88585   7.306   0.045  -0.452 -0.9378 -0.4722 -0.3021
  657MOL0     C88586   7.301   0.074  -0.589  0.3182 -0.2368 -0.0714
  657MOL0     C88587   7.377   0.015  -0.686 -0.5143  0.2358 -0.3521
  657MOL0     C88588   7.374   0.073  -0.823  0.2829 -0.5149 -0.2277
  657MOL0     C88589   7.479  -0.082  -0.646  0.0981 -1.3374 -0.9941
  657MOL0     C88590   7.573  -0.141  -0.746  0.6505  1.4449  0.5836
  657MOL0     O88591   7.569  -0.112  -0.877  0.6945 -0.5183  0.0985
  657MOL0     C88592   7.648  -0.174  -0.963  0.6746 -0.0311  0.2118
  657MOL0     C88593   7.601  -0.289  -1.035 -0.8062  0.2460 -0.6466
  657MOL0     C88594   7.688  -0.342  -1.129  0.8887  0.0908 -0.0141
  657MOL0     C88595   7.818  -0.291  -1.152 -0.3291  0.3325  0.0986
  657MOL0     O88596   7.878  -0.327  -1.268 -0.8330  0.0349  0.0888
  657MOL0     C88597   8.008  -0.269  -1.291 -0.6040 -0.6448 -0.7318
  657MOL0     C88598   8.079  -0.348  -1.398 -0.6768  0.8272 -0.6547
  657MOL0     C88599   8.188  -0.281  -1.488  0.3845 -0.5559  0.5173
  657MOL0     C88600   8.286  -0.394  -1.531  0.6285 -0.0665  0.1502
  657MOL0     C88601   8.374  -0.359  -1.651 -0.6935  0.2363  0.1088
  657MOL0     C88602   8.441  -0.218  -1.637  0.5985  0.2803 -0.3657
  657MOL0     C88603   8.556  -0.203  -1.527  0.2905  0.3225  1.0102
  657MOL0     C88604   8.640  -0.073  -1.556 -0.0211 -0.2363  0.4539
  657MOL0    Cl88605   8.677  -0.054  -1.723  0.0579 -0.0886  0.4709
  657MOL0     C88606   7.860  -0.184  -1.071  0.1159 -0.6462 -0.1757
  657MOL0     C88607   7.775  -0.122  -0.984  0.9449 -0.9917 -0.1983
  657MOL0     O88608   7.663  -0.214  -0.697 -0.0602 -0.5495  0.0186
  657MOL0     C88609   7.484  -0.120  -0.509  0.0142  0.4010 -0.5946
  657MOL0     C88610   7.402  -0.054  -0.417 -0.6746  0.3198 -0.5104
  657MOL0     N88611   7.262   0.334   0.275 -0.1233 -0.2791 -0.4383
  657MOL0     N88612   7.292   0.332   0.401  1.2696  0.6037  0.1834
  657MOL0     C88613   7.546   1.133   1.021 -0.0151 -0.8184  0.5739
  657MOL0     C88614   7.519   1.269   1.012  0.7761 -0.3336  0.0041
  657MOL0     C88615   7.395   1.660   0.906  0.1534 -0.7842  0.4092
  657MOL0     C88616   7.273   1.710   0.867  1.3300 -0.4952  0.0948
  657MOL0     C88617   7.240   1.852   0.884 -0.8093  0.0576 -0.7162
  657MOL0     C88618   7.333   1.932   0.954  0.2390  0.2631  0.5149
  657MOL0     O88619   7.316   2.064   0.979 -0.5556 -0.4466  0.2304
  657MOL0     C88620   7.240   2.100   1.087 -0.4823 -0.4653 -0.4306
  657MOL0     C88621   7.337   2.103   1.211 -0.0076  0.5578 -0.4664
  657MOL0     C88622   7.454   2.194   1.185  0.2039 -0.1189  0.6745
  657MOL0     C88623   7.534   2.204   1.308 -1.1031  0.6689 -0.0785
  657MOL0     C88624   7.623   2.086   1.327 -0.2600 -0.7264  0.7266
  657MOL0     C88625   7.690   1.988   1.325 -0.1394  0.9519  0.1175
  657MOL0     C88626   7.451   1.879   1.000 -1.0941  1.3503 -0.5071
  657MOL0     C88627   7.492   1.750   0.973  0.7144 -1.1017 -0.8514
  657MOL0     H88628   7.758   1.358   0.804  0.9708  0.4655  1.8989
  657MOL0     H88629   7.810   1.111   0.818  2.5610  2.8753  0.5797
  657MOL0     H88630   7.852   0.905   0.924 -0.2036  0.0334 -0.6108
  657MOL0     H88631   7.774   0.750   0.967 -0.7363 -1.4355 -1.5742
  657MOL0     H88632   7.659   0.887   0.716  0.6442 -0.9086 -2.6963
  657MOL0     H88633   7.820   0.823   0.705 -0.3943 -3.7900 -2.3770
  657MOL0     H88634   7.672   0.652   0.643 -1.0888  0.1300  0.9813
  657MOL0     H88635   7.745   0.611   0.807 -1.2185  0.0235  1.6806
  657MOL0     H88636   7.503   0.716   0.870  0.5866  1.5936 -1.8084
  657MOL0     H88637   7.462   0.657   0.706 -1.3984 -0.3866  0.2294
  657MOL0     H88638   7.609   0.493   0.924  0.1385  0.1212  1.0499
  657MOL0     H88639   7.435   0.490   0.898 -0.2858  2.0019  0.5740
  657MOL0     H88640   7.655   0.370   0.717 -0.2594 -1.4607 -0.7357
  657MOL0     H88641   7.540   0.291   0.820 -0.6868 -2.6214 -1.5030
  657MOL0     H88642   7.355   0.389   0.675  1.1570 -1.1836  3.0212
  657MOL0     H88643   7.467   0.489   0.593 -1.4889  0.0481 -1.7983
  657MOL0     H88644   7.462   0.177   0.563 -2.9472  1.1239 -0.5979
  657MOL0     H88645   7.604   0.270   0.519  0.4669 -1.2970 -1.2973
  657MOL0     H88646   7.573   0.216   0.256  0.1733  1.4510 -2.6394
  657MOL0     H88647   7.405   0.368  -0.002 -1.1073 -0.8709 -1.0769
  657MOL0     H88648   7.489   0.235   0.034 -1.7766 -1.2614 -2.0819
  657MOL0     H88649   7.182   0.217   0.006 -0.1032  0.1173 -1.7338
  657MOL0     H88650   7.287   0.087   0.020  3.5099  0.8375  1.3140
  657MOL0     H88651   7.418   0.135  -0.183 -0.2115 -0.0172  0.0571
  657MOL0     H88652   7.331   0.286  -0.210 -0.5693 -0.3744 -3.0910
  657MOL0     H88653   7.121   0.126  -0.190  0.2354 -2.5440  1.4753
  657MOL0     H88654   7.231  -0.005  -0.189  2.1878 -0.4593  0.9980
  657MOL0     H88655   7.224   0.138  -0.629 -0.8367 -1.6398 -0.2001
  657MOL0     H88656   7.314   0.164  -0.825  1.5672  0.3470 -1.4975
  657MOL0     H88657   7.469   0.113  -0.859 -0.7676  2.2545 -0.1337
  657MOL0     H88658   7.336  -0.001  -0.895  1.6570  0.0570 -1.6046
  657MOL0     H88659   7.503  -0.333  -1.024 -1.0996  0.7706 -1.1005
  657MOL0     H88660   7.643  -0.403  -1.206 -0.3355  2.0675 -0.9455
  657MOL0     H88661   8.000  -0.162  -1.309  1.3863 -0.4344 -0.6155
  657MOL0     H88662   8.075  -0.278  -1.205  0.0432  0.2084 -1.1388
  657MOL0     H88663   8.114  -0.440  -1.350 -1.9000  1.4009  1.4274
  657MOL0     H88664   8.004  -0.374  -1.473  0.8683  0.8617 -2.2702
  657MOL0     H88665   8.243  -0.206  -1.431 -0.9611  1.6463 -0.8900
  657MOL0     H88666   8.143  -0.234  -1.577 -0.1409 -0.6394  0.7370
  657MOL0     H88667   8.345  -0.420  -1.443  0.2006 -0.9760  0.1804
  657MOL0     H88668   8.235  -0.488  -1.553  0.4699  0.1898 -0.6129
  657MOL0     H88669   8.328  -0.380  -1.748  0.3455 -0.5499 -0.2382
  657MOL0     H88670   8.452  -0.435  -1.654  0.5204  1.4664 -0.7259
  657MOL0     H88671   8.493  -0.209  -1.733 -1.6019  0.5812 -1.6042
  657MOL0     H88672   8.375  -0.131  -1.634  1.5718  1.0583 -0.9073
  657MOL0     H88673   8.618  -0.291  -1.545 -3.6179 -2.5770  0.3374
  657MOL0     H88674   8.513  -0.216  -1.427  0.4527  0.8640  1.1549
  657MOL0     H88675   8.730  -0.075  -1.495  0.1253  1.8326  0.3736
  657MOL0     H88676   8.584   0.013  -1.520 -0.1997 -0.8168  1.6256
  657MOL0     H88677   7.958  -0.138  -1.079 -0.1157 -0.4261 -2.4101
  657MOL0     H88678   7.795  -0.032  -0.927 -4.7546 -0.0593  0.9162
  657MOL0     H88679   7.556  -0.187  -0.464 -0.1260  1.1441  0.8031
  657MOL0     H88680   7.420  -0.070  -0.311  1.0506 -0.7882 -0.9425
  657MOL0     H88681   7.474   1.079   1.082 -1.6538 -0.7251 -1.2055
  657MOL0     H88682   7.443   1.309   1.078 -3.8279 -0.0180 -4.7770
  657MOL0     H88683   7.188   1.657   0.826  0.7578  0.9208 -0.6100
  657MOL0     H88684   7.144   1.892   0.851 -1.1017 -0.2752 -0.2907
  657MOL0     H88685   7.198   2.200   1.072  0.5676  0.0590  0.0388
  657MOL0     H88686   7.163   2.026   1.110  0.2783 -0.4819  2.4132
  657MOL0     H88687   7.375   2.001   1.229  1.5487  1.4888  2.0510
  657MOL0     H88688   7.284   2.118   1.306  1.5140 -1.4655  0.8015
  657MOL0     H88689   7.416   2.290   1.150 -1.3935 -0.7414  0.6315
  657MOL0     H88690   7.511   2.162   1.097  1.4811 -1.2071  1.8547
  657MOL0     H88691   7.475   2.221   1.399  2.0772 -1.5925  2.6632
  657MOL0     H88692   7.606   2.286   1.298  0.4472 -0.4841  1.0456
  657MOL0     H88693   7.745   1.896   1.335 -0.9167  0.6639  2.2309
  657MOL0     H88694   7.527   1.944   1.043 -0.6984  0.6574 -0.1374
  657MOL0     H88695   7.588   1.709   1.002 -0.2638 -2.6894  0.2954
  658MOL0     O88696   3.263   5.554   7.701  0.9143 -0.3547 -0.2502
  658MOL0     C88697   3.325   5.503   7.605  0.5898  0.3816  0.5329
  658MOL0     O88698   3.263   5.472   7.489  0.2202 -0.3347  1.2280
  658MOL0     C88699   3.158   5.552   7.453 -1.1945  0.6898 -0.5056
  658MOL0     C88700   3.184   5.682   7.395  0.1511 -0.3777  0.1817
  658MOL0     C88701   3.073   5.749   7.349 -0.1018 -0.6075 -0.1289
  658MOL0     C88702   2.949   5.709   7.376  0.0567 -0.1257 -0.7075
  658MOL0     O88703   2.840   5.777   7.325 -0.0443  0.0873 -0.0659
  658MOL0     C88704   2.741   5.702   7.247  0.1436 -0.1788  0.4471
  658MOL0     C88705   2.671   5.816   7.167 -0.2998 -0.8447 -0.5948
  658MOL0     C88706   2.547   5.795   7.089 -0.2334 -0.2425  0.0687
  658MOL0     C88707   2.572   5.746   6.950  1.3598  0.9874 -0.5091
  658MOL0     C88708   2.445   5.698   6.884  0.3051 -0.2199  0.2050
  658MOL0     C88709   2.369   5.809   6.810 -0.0256  0.2176 -0.4930
  658MOL0     C88710   2.286   5.739   6.706 -0.9935  0.3232 -0.3074
  658MOL0     C88711   2.204   5.833   6.620 -0.6504 -0.1586 -0.9011
  658MOL0     N88712   2.293   5.925   6.538  0.5984 -0.2885  0.0554
  658MOL0     C88713   2.420   5.910   6.476 -1.1220  0.3150 -0.0077
  658MOL0     C88714   2.434   6.021   6.400 -0.1438  0.2147  0.7041
  658MOL0     C88715   2.556   6.034   6.320  0.8338 -0.3602  0.1353
  658MOL0     C88716   2.667   6.097   6.421  0.1637  0.2553 -0.6356
  658MOL0     C88717   2.612   6.214   6.510 -0.2665 -0.0251 -0.5464
  658MOL0     C88718   2.730   6.263   6.601 -0.7084  0.6052 -0.4785
  658MOL0     O88719   2.764   6.160   6.688 -0.7458  0.6163  0.2849
  658MOL0     C88720   2.878   6.171   6.772  1.0880  0.1884 -0.1162
  658MOL0     C88721   2.985   6.264   6.777  0.4366  0.4816  0.6249
  658MOL0     C88722   3.080   6.257   6.878 -1.1042 -0.3818 -0.0999
  658MOL0     C88723   3.201   6.349   6.882  0.8545 -0.3248  0.8208
  658MOL0     C88724   3.063   6.162   6.983 -0.3083 -0.8626  0.3964
  658MOL0     C88725   3.164   6.133   7.094 -0.0826  0.2191 -0.0746
  658MOL0     O88726   3.229   6.245   7.148  0.1184 -0.5011 -0.3464
  658MOL0     C88727   3.327   6.245   7.254  1.2825 -0.3640  0.4061
  658MOL0     C88728   3.378   6.372   7.278 -1.2754  0.5361  0.2930
  658MOL0     C88729   3.473   6.390   7.384 -0.1469 -0.2343 -0.2449
  658MOL0     C88730   3.508   6.288   7.471  1.0629  0.4321  0.7545
  658MOL0     O88731   3.584   6.297   7.586 -0.3202 -0.2459 -0.3772
  658MOL0     C88732   3.674   6.399   7.593 -0.1586 -0.5684 -0.2949
  658MOL0     C88733   3.726   6.398   7.742  0.4274  0.2513 -0.6823
  658MOL0     C88734   3.842   6.486   7.773 -0.1305  0.5090  0.0025
  658MOL0     C88735   3.966   6.440   7.696  0.6014 -0.0398 -0.1183
  658MOL0     C88736   4.107   6.501   7.746  0.7051  0.2276  0.0404
  658MOL0     C88737   4.097   6.656   7.735 -0.3829 -0.3460  0.9526
  658MOL0     C88738   4.244   6.717   7.720  0.4753 -0.3254 -0.3741
  658MOL0     C88739   4.338   6.682   7.830 -0.1350 -0.2288 -0.0786
  658MOL0    Cl88740   4.277   6.717   7.988  0.3028  0.2457 -0.0757
  658MOL0     C88741   3.451   6.161   7.442 -1.0032 -0.4253 -0.2399
  658MOL0     C88742   3.361   6.140   7.339 -0.4001 -0.3989  0.2291
  658MOL0     O88743   3.180   6.016   7.134 -0.1417  0.7479  0.0806
  658MOL0     C88744   2.950   6.076   6.985 -1.1543 -0.3985  0.4481
  658MOL0     C88745   2.863   6.086   6.878 -0.9453  0.5892 -0.2013
  658MOL0     N88746   2.322   6.110   6.418 -0.3671 -0.1995 -0.3542
  658MOL0     N88747   2.238   6.046   6.511  0.6044 -0.4081  0.5810
  658MOL0     C88748   2.922   5.585   7.432  0.6605 -0.4923  0.0521
  658MOL0     C88749   3.027   5.512   7.484 -0.0778 -0.5110  0.4784
  658MOL0     C88750   3.471   5.476   7.605  0.0344 -0.4132 -0.6390
  658MOL0     C88751   3.533   5.427   7.490 -0.0951 -0.1735  0.2215
  658MOL0     C88752   3.669   5.401   7.491  0.1342  1.4700 -0.4455
  658MOL0     C88753   3.754   5.416   7.610  0.2544 -0.0771  0.5171
  658MOL0     O88754   3.890   5.395   7.616 -0.9932 -0.2890 -0.6436
  658MOL0     C88755   3.946   5.299   7.525  0.3134  0.1405 -0.8956
  658MOL0     C88756   4.077   5.249   7.576  0.1245  0.2228  0.2055
  658MOL0     C88757   4.173   5.197   7.473  0.1751  0.0738 -0.4242
  658MOL0     C88758   4.106   5.093   7.383 -0.4677 -0.3258  0.7128
  658MOL0     C88759   4.075   4.961   7.443 -0.5078  0.0826 -0.4472
  658MOL0     C88760   4.063   4.848   7.495  0.2179 -0.3666 -0.3374
  658MOL0     C88761   3.689   5.477   7.718 -0.2335  0.2675 -0.7519
  658MOL0     C88762   3.549   5.515   7.718 -0.5703 -0.2554 -0.0069
  658MOL0     H88763   3.291   5.693   7.379  0.4807 -3.0648  0.1275
  658MOL0     H88764   3.076   5.846   7.300 -2.5052  0.2343  1.1965
  658MOL0     H88765   2.790   5.633   7.177 -1.2042  1.5988 -2.4356
  658MOL0     H88766   2.669   5.653   7.312 -0.3249 -1.2875 -0.8503
  658MOL0     H88767   2.639   5.878   7.251 -2.2767  1.4953 -2.8999
  658MOL0     H88768   2.749   5.870   7.112  0.3267 -0.6788  0.4216
  658MOL0     H88769   2.482   5.723   7.140  0.4064 -0.6585  0.3014
  658MOL0     H88770   2.477   5.879   7.086 -1.7371 -1.3627  1.4341
  658MOL0     H88771   2.615   5.825   6.888 -0.2773  2.1526 -0.2330
  658MOL0     H88772   2.639   5.660   6.949  0.1163 -0.0229 -2.1652
  658MOL0     H88773   2.467   5.618   6.813 -2.6358 -1.9282  1.0649
  658MOL0     H88774   2.373   5.659   6.956  1.5672 -1.2457  0.9716
  658MOL0     H88775   2.313   5.872   6.879  0.1219 -0.2302  0.0410
  658MOL0     H88776   2.445   5.873   6.766 -0.8501  1.7488  0.2427
  658MOL0     H88777   2.349   5.690   6.630 -0.0653  1.2745 -0.1613
  658MOL0     H88778   2.228   5.651   6.736  0.0928 -1.2688 -2.5316
  658MOL0     H88779   2.135   5.892   6.681  2.1460  2.0521  0.3637
  658MOL0     H88780   2.146   5.767   6.555  0.5268 -1.9256 -0.2440
  658MOL0     H88781   2.484   5.822   6.470 -0.9311  0.2836  1.9200
  658MOL0     H88782   2.600   5.941   6.285  0.3784 -0.4428 -0.2341
  658MOL0     H88783   2.553   6.088   6.225  0.1533 -1.4092 -0.4597
  658MOL0     H88784   2.755   6.121   6.361  0.5545 -1.6808 -0.9340
  658MOL0     H88785   2.704   6.018   6.488 -0.1501 -0.9485 -1.8226
  658MOL0     H88786   2.533   6.193   6.583  1.6985 -1.8188  1.2029
  658MOL0     H88787   2.593   6.296   6.441 -1.6762 -0.8915 -1.2490
  658MOL0     H88788   2.705   6.342   6.672  1.7365 -1.5892  3.1231
  658MOL0     H88789   2.816   6.300   6.544 -1.2193  2.1428 -0.3050
  658MOL0     H88790   3.000   6.340   6.700 -0.5207  1.2915  1.2122
  658MOL0     H88791   3.208   6.400   6.978 -1.2554  0.0269  0.8383
  658MOL0     H88792   3.286   6.283   6.862  2.8991  2.0946  0.9699
  658MOL0     H88793   3.206   6.416   6.796  4.0809  0.4147  1.4760
  658MOL0     H88794   3.377   6.453   7.205 -1.8161  1.5081  1.3499
  658MOL0     H88795   3.510   6.489   7.409 -0.9078  0.2596 -1.0109
  658MOL0     H88796   3.747   6.394   7.512  0.2602 -2.7850  0.1454
  658MOL0     H88797   3.608   6.486   7.595  0.5571 -0.0293  0.6678
  658MOL0     H88798   3.646   6.434   7.807  0.5692  1.7052 -1.2560
  658MOL0     H88799   3.744   6.293   7.767 -1.7819 -0.2445 -0.9318
  658MOL0     H88800   3.869   6.485   7.879  0.3745 -1.4755 -0.1073
  658MOL0     H88801   3.815   6.588   7.745 -0.0938  0.5755  0.2131
  658MOL0     H88802   3.969   6.331   7.711  2.3847 -0.0035 -0.0467
  658MOL0     H88803   3.958   6.451   7.587 -1.2299 -0.6651 -0.0787
  658MOL0     H88804   4.193   6.456   7.695  1.1121 -0.4971  1.3310
  658MOL0     H88805   4.117   6.462   7.847 -1.4523 -2.7542 -0.7668
  658MOL0     H88806   4.032   6.692   7.655 -1.8800  1.3477  2.8142
  658MOL0     H88807   4.058   6.698   7.829 -0.2921  1.5805  0.1719
  658MOL0     H88808   4.222   6.825   7.722 -1.0924 -0.6194  1.4791
  658MOL0     H88809   4.288   6.703   7.621  0.3683 -0.2321 -0.4352
  658MOL0     H88810   4.429   6.737   7.805  1.4704 -2.1218  1.2021
  658MOL0     H88811   4.369   6.577   7.824  0.9299  0.0245  0.6460
  658MOL0     H88812   3.483   6.082   7.509  2.2463  0.5902 -0.4140
  658MOL0     H88813   3.323   6.040   7.319  1.1677 -1.0207  0.1650
  658MOL0     H88814   2.943   6.005   7.067  0.7323  0.2798  1.2696
  658MOL0     H88815   2.772   6.028   6.893 -2.1306  2.0205 -1.4790
  658MOL0     H88816   2.820   5.554   7.450  0.6192 -1.7998 -2.0091
  658MOL0     H88817   3.010   5.425   7.548  2.6950 -1.7170 -0.2459
  658MOL0     H88818   3.480   5.415   7.396 -0.5596 -0.0591  0.4653
  658MOL0     H88819   3.710   5.371   7.395  1.6982  0.8947  0.3611
  658MOL0     H88820   3.883   5.210   7.525  1.3234 -0.6462  1.3717
  658MOL0     H88821   3.957   5.353   7.430 -1.9427 -2.4859 -2.7899
  658MOL0     H88822   4.066   5.180   7.660 -3.1558 -0.4767 -0.6724
  658MOL0     H88823   4.120   5.341   7.616  0.6736 -0.5083  1.3544
  658MOL0     H88824   4.256   5.147   7.524 -2.0536 -2.7260  0.7630
  658MOL0     H88825   4.210   5.278   7.410 -1.6347  0.2685 -1.3194
  658MOL0     H88826   4.167   5.080   7.294 -0.8454  0.1132  0.3852
  658MOL0     H88827   4.019   5.146   7.342  0.3527 -1.3235 -2.5887
  658MOL0     H88828   4.054   4.751   7.540  0.1562 -1.1698 -1.9971
  658MOL0     H88829   3.750   5.498   7.805 -1.3838  0.2240  0.0967
  658MOL0     H88830   3.496   5.563   7.800  0.5738  0.2671  0.4479
  659MOL0     O88831   3.779   5.491  10.759  0.2166 -0.0613 -0.1780
  659MOL0     C88832   3.792   5.401  10.681 -0.1676  0.0493 -0.4236
  659MOL0     O88833   3.719   5.377  10.570  0.6640  0.7812  0.1895
  659MOL0     C88834   3.594   5.430  10.547 -0.6464 -0.4688  0.3288
  659MOL0     C88835   3.530   5.387  10.425  0.5369 -0.0273  0.4413
  659MOL0     C88836   3.391   5.416  10.407  0.2675  0.0271  0.0484
  659MOL0     C88837   3.320   5.477  10.508 -0.2342 -0.1048 -0.1276
  659MOL0     O88838   3.185   5.503  10.488 -0.4796  0.4185  0.0340
  659MOL0     C88839   3.099   5.386  10.481 -0.2943  0.0409  1.5252
  659MOL0     C88840   2.977   5.431  10.411  0.8310 -0.1440  0.0789
  659MOL0     C88841   2.875   5.326  10.388 -0.1040  0.2336 -0.0567
  659MOL0     C88842   2.738   5.398  10.353  0.2495  0.4450 -0.0885
  659MOL0     C88843   2.623   5.303  10.374 -0.7434  0.4688 -0.4430
  659MOL0     C88844   2.632   5.179  10.298 -0.0983 -1.2308  0.1073
  659MOL0     C88845   2.511   5.083  10.304  0.2882  0.0841  0.2681
  659MOL0     C88846   2.545   4.940  10.251 -0.4697 -0.8803 -0.2244
  659MOL0     N88847   2.588   4.927  10.110  0.0836  0.0429  0.2195
  659MOL0     C88848   2.488   4.922  10.012 -0.6374 -0.6651  0.5384
  659MOL0     C88849   2.554   4.854   9.917 -0.1112  0.9887  1.2475
  659MOL0     C88850   2.501   4.818   9.779 -0.0087  0.8663 -0.5689
  659MOL0     C88851   2.437   4.678   9.778 -0.2735 -0.2415 -0.9683
  659MOL0     C88852   2.313   4.667   9.854  0.2297 -0.7604  0.1981
  659MOL0     C88853   2.207   4.775   9.816  0.1822  0.9833 -0.0376
  659MOL0     O88854   2.087   4.734   9.870  0.1869  0.3388  0.3135
  659MOL0     C88855   1.970   4.796   9.824 -0.0110 -0.1731 -0.2122
  659MOL0     C88856   1.970   4.884   9.708  0.7555 -0.3808 -0.5888
  659MOL0     C88857   1.848   4.943   9.661 -0.6152  0.6417  0.3644
  659MOL0     C88858   1.860   5.022   9.523  1.0433 -0.8923 -0.1724
  659MOL0     C88859   1.724   4.919   9.724 -0.2046  0.0777  0.1646
  659MOL0     C88860   1.592   4.970   9.676 -0.5516  0.1583 -0.3784
  659MOL0     O88861   1.579   5.081   9.598  0.7863  0.1620 -0.0468
  659MOL0     C88862   1.452   5.143   9.583 -0.6521 -0.6609 -0.6332
  659MOL0     C88863   1.429   5.246   9.678  0.2096  0.2904  0.7681
  659MOL0     C88864   1.317   5.331   9.666 -1.0393  0.0213  0.7633
  659MOL0     C88865   1.222   5.304   9.570 -0.5304 -0.2172 -0.4704
  659MOL0     O88866   1.112   5.384   9.571 -0.3244  0.2589 -0.3387
  659MOL0     C88867   1.034   5.394   9.452 -0.3794 -0.5415 -0.4660
  659MOL0     C88868   0.952   5.518   9.466 -0.2017 -0.3702  0.6640
  659MOL0     C88869   0.882   5.544   9.326  0.3783  0.7896 -0.9752
  659MOL0     C88870   0.772   5.653   9.339  0.2333 -0.0311  1.3311
  659MOL0     C88871   0.737   5.700   9.192  0.1135  0.0936  0.1527
  659MOL0     C88872   0.617   5.793   9.181 -0.0385  0.2795  0.8770
  659MOL0     C88873   0.651   5.937   9.210  0.5691 -0.3275 -0.3883
  659MOL0     C88874   0.519   6.012   9.236 -0.4289  0.7968 -0.5051
  659MOL0    Cl88875   0.423   6.028   9.090 -0.0277 -0.5899  0.0253
  659MOL0     C88876   1.249   5.210   9.474 -0.4957  0.3896 -0.2067
  659MOL0     C88877   1.360   5.132   9.482  0.3724 -0.2676  0.5481
  659MOL0     O88878   1.503   4.900   9.712  0.6087 -0.0042 -0.1503
  659MOL0     C88879   1.729   4.837   9.833  0.5017  0.3238  0.3352
  659MOL0     C88880   1.847   4.785   9.890 -0.2927  0.4076  0.0064
  659MOL0     N88881   2.681   4.818   9.953  0.1721  0.1750  0.4136
  659MOL0     N88882   2.700   4.852  10.072  0.0277  0.2957  0.4131
  659MOL0     C88883   3.381   5.523  10.619 -0.3240  0.4865 -0.2173
  659MOL0     C88884   3.515   5.499  10.640 -0.0753 -0.7990  0.4352
  659MOL0     C88885   3.913   5.313  10.706  0.5333  0.6641 -1.1082
  659MOL0     C88886   3.893   5.175  10.714 -0.6295  0.1657 -0.0988
  659MOL0     C88887   4.003   5.089  10.744 -0.3456 -0.6731 -0.0542
  659MOL0     C88888   4.129   5.142  10.764 -0.1558 -1.3560  0.4310
  659MOL0     O88889   4.235   5.053  10.790  0.8738  0.9740  0.4118
  659MOL0     C88890   4.358   5.101  10.731  0.6031  0.1218  0.4153
  659MOL0     C88891   4.454   4.990  10.703  0.9694  1.1723  0.4014
  659MOL0     C88892   4.591   5.048  10.657  0.8077 -1.1708 -0.0296
  659MOL0     C88893   4.618   5.086  10.510 -0.0238 -0.3476  0.1342
  659MOL0     C88894   4.628   4.967  10.422 -0.8916 -0.1985 -0.0400
  659MOL0     C88895   4.640   4.868  10.352 -0.2544  0.4424 -0.0833
  659MOL0     C88896   4.143   5.282  10.759  0.5352 -0.0704 -0.7044
  659MOL0     C88897   4.038   5.366  10.734  0.2403 -0.0902  0.3723
  659MOL0     H88898   3.587   5.327  10.354  0.3503 -1.2182  1.2775
  659MOL0     H88899   3.334   5.383  10.320 -1.1208  1.5193  0.3361
  659MOL0     H88900   3.141   5.307  10.417 -1.5617  1.0606 -0.6894
  659MOL0     H88901   3.072   5.359  10.584 -0.5932 -1.0743  1.1773
  659MOL0     H88902   2.932   5.504  10.478 -1.2190  0.0038 -1.3836
  659MOL0     H88903   3.003   5.479  10.316  3.4084 -0.1560  0.6893
  659MOL0     H88904   2.906   5.267  10.301  0.0303  0.9543 -0.4999
  659MOL0     H88905   2.867   5.256  10.472  1.3416  1.5270  1.2163
  659MOL0     H88906   2.712   5.488  10.410 -3.5497  0.3420 -1.4131
  659MOL0     H88907   2.746   5.439  10.252  1.2671 -2.4246 -1.2863
  659MOL0     H88908   2.630   5.284  10.481  1.7461 -0.1119 -0.6384
  659MOL0     H88909   2.529   5.353  10.350  0.2128  1.0324 -3.5497
  659MOL0     H88910   2.665   5.190  10.195 -1.8224 -0.8653 -0.4398
  659MOL0     H88911   2.718   5.124  10.336 -0.7875 -3.7113 -1.7200
  659MOL0     H88912   2.477   5.066  10.407 -0.3871 -1.4555 -0.1651
  659MOL0     H88913   2.421   5.124  10.255  1.2242 -1.0230 -2.6177
  659MOL0     H88914   2.453   4.881  10.252  0.2921 -2.1011 -0.2956
  659MOL0     H88915   2.618   4.897  10.320 -2.0203 -1.6784  1.0056
  659MOL0     H88916   2.390   4.967  10.012 -0.9667 -1.3636  0.8140
  659MOL0     H88917   2.425   4.894   9.759 -0.6733 -0.3603 -3.0350
  659MOL0     H88918   2.582   4.824   9.705 -1.4569 -1.5759 -2.4764
  659MOL0     H88919   2.505   4.604   9.822 -1.5101 -2.3382 -2.4335
  659MOL0     H88920   2.391   4.651   9.683  0.4946  1.5945 -1.9123
  659MOL0     H88921   2.329   4.666   9.962 -2.6659 -0.4819  0.7177
  659MOL0     H88922   2.263   4.571   9.839 -0.1201 -0.6594  0.6691
  659MOL0     H88923   2.204   4.756   9.708  0.2886 -0.4029  0.1822
  659MOL0     H88924   2.232   4.881   9.830 -1.9868  1.5673 -0.2345
  659MOL0     H88925   2.066   4.893   9.657  2.1841  0.2564  2.0306
  659MOL0     H88926   1.943   4.979   9.466 -0.6815 -2.0875 -1.9184
  659MOL0     H88927   1.778   5.019   9.451  0.0441 -0.0707  0.8971
  659MOL0     H88928   1.875   5.126   9.554 -2.6242 -0.6890  1.4664
  659MOL0     H88929   1.495   5.258   9.764  0.7174  2.2637  0.1349
  659MOL0     H88930   1.296   5.411   9.736 -1.9300 -0.8401  1.5032
  659MOL0     H88931   1.097   5.400   9.363  0.3781 -2.2749 -0.0933
  659MOL0     H88932   0.963   5.312   9.440  2.4268 -3.3462  0.8075
  659MOL0     H88933   0.872   5.511   9.541 -3.1821  0.9404 -2.1761
  659MOL0     H88934   1.016   5.604   9.486 -0.4510  0.8163 -3.0523
  659MOL0     H88935   0.834   5.451   9.293 -3.2005  0.5967  3.6525
  659MOL0     H88936   0.961   5.581   9.260  1.1298  0.4419 -0.2737
  659MOL0     H88937   0.679   5.619   9.386  0.4880 -3.2301 -0.2514
  659MOL0     H88938   0.805   5.744   9.390  0.6653 -0.5872  2.0730
  659MOL0     H88939   0.719   5.615   9.125  2.4005  1.0482 -1.7985
  659MOL0     H88940   0.825   5.745   9.145  1.9418 -2.4798  0.8870
  659MOL0     H88941   0.587   5.783   9.076 -0.1157 -3.1046  1.1158
  659MOL0     H88942   0.528   5.760   9.236  0.1446 -1.3237  0.2465
  659MOL0     H88943   0.703   5.981   9.124  0.3328 -2.1389 -1.5109
  659MOL0     H88944   0.716   5.943   9.298 -3.7500 -1.3726  3.2042
  659MOL0     H88945   0.555   6.112   9.261 -0.1603  0.1785  1.7683
  659MOL0     H88946   0.475   5.985   9.332  0.2487  1.4794  0.0100
  659MOL0     H88947   1.183   5.188   9.391  0.1061 -0.2363 -0.5267
  659MOL0     H88948   1.385   5.064   9.402 -0.5469  0.8796 -0.7596
  659MOL0     H88949   1.641   4.839   9.897 -0.2283  2.1488 -0.6353
  659MOL0     H88950   1.838   4.728   9.982  0.2557 -0.6489 -0.5742
  659MOL0     H88951   3.326   5.559  10.705 -0.2414 -2.7346  1.2879
  659MOL0     H88952   3.558   5.526  10.736  2.0122 -3.6915  0.4216
  659MOL0     H88953   3.795   5.129  10.705  0.3511 -1.7765 -1.4898
  659MOL0     H88954   3.983   4.982  10.746 -1.8696 -0.4423 -1.2788
  659MOL0     H88955   4.333   5.170  10.650  0.3198  1.9199  1.9640
  659MOL0     H88956   4.405   5.159  10.812  0.8718  2.9169 -1.5993
  659MOL0     H88957   4.409   4.928  10.625  2.2711 -0.4093  0.8282
  659MOL0     H88958   4.466   4.925  10.790 -0.3051 -0.1178 -0.3462
  659MOL0     H88959   4.667   4.969  10.666  1.2198 -0.6398  1.6113
  659MOL0     H88960   4.617   5.132  10.722  0.3302 -1.2086  0.2119
  659MOL0     H88961   4.707   5.149  10.501 -1.5327  2.1875  1.5615
  659MOL0     H88962   4.536   5.155  10.489 -0.2776 -0.1370  1.6683
  659MOL0     H88963   4.655   4.795  10.275 -0.1360  2.0708 -1.6930
  659MOL0     H88964   4.241   5.329  10.759  0.0884  0.8827 -0.7046
  659MOL0     H88965   4.048   5.474  10.725 -4.8289  0.9095  2.9280
  660MOL0     O88966   6.937   2.297   1.163  0.1599 -0.1055  0.3829
  660MOL0     C88967   6.845   2.362   1.214 -0.6635  0.1487 -0.2808
  660MOL0     O88968   6.834   2.503   1.219  0.2362  0.2317 -0.1275
  660MOL0     C88969   6.930   2.594   1.192 -0.1379  0.1707  1.0403
  660MOL0     C88970   7.027   2.580   1.082  0.4097  0.0979 -0.9385
  660MOL0     C88971   7.126   2.676   1.051 -0.8449  0.2300  0.0327
  660MOL0     C88972   7.129   2.792   1.131 -0.1543 -0.4263 -0.4045
  660MOL0     O88973   7.206   2.901   1.091  0.5619  0.0977  0.0876
  660MOL0     C88974   7.241   2.919   0.949 -0.3132 -0.2988 -0.7342
  660MOL0     C88975   7.331   3.038   0.949  0.0093  0.0646 -0.4116
  660MOL0     C88976   7.459   3.010   1.031 -0.4095 -0.4129  1.3630
  660MOL0     C88977   7.563   3.128   1.015 -0.3235  0.0421  0.4993
  660MOL0     C88978   7.711   3.090   1.032 -0.1727 -0.5327 -0.2155
  660MOL0     C88979   7.745   3.028   1.171  0.3616 -0.0986  0.3977
  660MOL0     C88980   7.849   3.087   1.256 -0.3859  0.8680  0.8770
  660MOL0     C88981   7.797   3.218   1.320 -0.4155 -0.4391  0.7477
  660MOL0     N88982   7.900   3.267   1.416  1.0453  0.8778  0.3937
  660MOL0     C88983   7.914   3.234   1.547 -0.4970 -0.5128 -0.1125
  660MOL0     C88984   8.026   3.291   1.596 -0.0746 -0.2137 -1.0103
  660MOL0     C88985   8.078   3.272   1.734 -0.5818  1.2974  0.3511
  660MOL0     C88986   8.217   3.202   1.711 -0.5351  0.4492 -0.6739
  660MOL0     C88987   8.296   3.155   1.832  1.5790 -0.5269  1.3249
  660MOL0     C88988   8.350   3.260   1.915 -0.3946 -0.5675 -0.5211
  660MOL0     O88989   8.416   3.346   1.825  0.1779 -0.2386 -0.2185
  660MOL0     C88990   8.549   3.334   1.794 -0.1262  0.9948 -0.5297
  660MOL0     C88991   8.648   3.331   1.883  0.9732 -0.5559  0.6177
  660MOL0     C88992   8.783   3.325   1.840  0.3083 -0.9176 -0.1548
  660MOL0     C88993   8.896   3.325   1.933 -0.0540  0.0127 -0.1786
  660MOL0     C88994   8.813   3.323   1.701  0.8399  0.8958  0.2741
  660MOL0     C88995   8.946   3.312   1.628  1.1089 -0.3293 -0.6361
  660MOL0     O88996   8.941   3.266   1.499 -0.6934  0.1870  0.1074
  660MOL0     C88997   9.063   3.264   1.435  0.2248  0.4915 -0.5536
  660MOL0     C88998   9.089   3.339   1.323  0.6060 -0.7416  0.6521
  660MOL0     C88999   9.212   3.341   1.267 -0.1206  0.7274  0.0371
  660MOL0     C89000   9.317   3.257   1.316 -0.1501 -0.8491  0.0023
  660MOL0     O89001   9.436   3.226   1.250 -1.1577 -1.0404 -0.1679
  660MOL0     C89002   9.444   3.279   1.120  0.4067  0.9957 -0.6178
  660MOL0     C89003   9.576   3.230   1.056 -0.2099 -0.9326 -0.7693
  660MOL0     C89004   9.697   3.320   1.102  0.0331  0.8623  0.0969
  660MOL0     C89005   9.822   3.286   1.021 -0.4507 -0.1545 -0.7914
  660MOL0     C89006   9.943   3.376   1.056 -0.4465 -0.0378  0.7882
  660MOL0     C89007  10.052   3.364   0.951 -0.4640  0.8059 -0.2747
  660MOL0     C89008  10.144   3.479   0.964  0.0979 -0.7213 -0.2281
  660MOL0     C89009  10.258   3.458   0.860 -0.6258 -0.4207 -0.5340
  660MOL0    Cl89010  10.391   3.575   0.890 -0.1282  0.3045  0.0560
  660MOL0     C89011   9.285   3.186   1.433 -0.7524  1.0687 -0.6699
  660MOL0     C89012   9.158   3.179   1.489 -1.1893 -0.0780 -0.0829
  660MOL0     O89013   9.043   3.332   1.692  0.5989  0.1127  0.5284
  660MOL0     C89014   8.701   3.329   1.607 -0.0318 -0.1479 -0.5989
  660MOL0     C89015   8.569   3.344   1.654 -0.3375  0.0052 -0.3712
  660MOL0     N89016   8.077   3.360   1.494 -0.1023  0.2178  0.3645
  660MOL0     N89017   8.009   3.339   1.385  0.1484  0.6437 -0.2669
  660MOL0     C89018   7.046   2.805   1.240  0.3464  0.2616 -0.2763
  660MOL0     C89019   6.940   2.714   1.263  0.0849 -0.7869  0.1151
  660MOL0     C89020   6.736   2.280   1.277  0.2132 -0.1280  0.2893
  660MOL0     C89021   6.748   2.147   1.316 -1.4719 -0.0112 -0.0013
  660MOL0     C89022   6.638   2.085   1.370  0.6491  0.5356  0.5229
  660MOL0     C89023   6.508   2.144   1.384 -0.0100  0.5262  0.1527
  660MOL0     O89024   6.386   2.085   1.420 -0.1266  0.0946 -0.4903
  660MOL0     C89025   6.376   1.940   1.425 -0.1729 -0.1238  0.0132
  660MOL0     C89026   6.395   1.908   1.574  0.7632  0.0800  0.0044
  660MOL0     C89027   6.376   1.757   1.604  0.2128  0.2472 -0.3828
  660MOL0     C89028   6.512   1.697   1.570  0.3439 -0.5436 -0.0808
  660MOL0     C89029   6.505   1.549   1.585 -0.1760 -0.1343  0.2738
  660MOL0     C89030   6.503   1.424   1.581 -0.3112 -0.7440 -0.6282
  660MOL0     C89031   6.491   2.274   1.335  0.5869 -0.5020 -0.3179
  660MOL0     C89032   6.601   2.338   1.279  0.0654 -0.0796 -0.3753
  660MOL0     H89033   7.032   2.480   1.039  1.2855 -0.9389  1.3891
  660MOL0     H89034   7.198   2.661   0.971 -1.6204  0.8780 -0.8071
  660MOL0     H89035   7.304   2.833   0.923 -1.5591 -1.2717 -0.6588
  660MOL0     H89036   7.160   2.936   0.877 -1.6608  0.3551  0.8698
  660MOL0     H89037   7.353   3.053   0.843 -0.7781 -0.2234 -0.6212
  660MOL0     H89038   7.282   3.126   0.990 -2.2248 -2.1017  1.8578
  660MOL0     H89039   7.424   3.013   1.135 -1.1655  1.2085  1.0786
  660MOL0     H89040   7.504   2.912   1.010  1.0791 -0.4217  4.1243
  660MOL0     H89041   7.556   3.154   0.909 -1.4558  1.1874  0.8301
  660MOL0     H89042   7.531   3.220   1.065 -1.1429  2.5621 -4.0744
  660MOL0     H89043   7.737   3.024   0.949 -1.4820 -1.5198  0.1266
  660MOL0     H89044   7.773   3.180   1.020  1.5262 -1.7421 -0.9014
  660MOL0     H89045   7.658   3.008   1.234  0.5788 -0.9697  0.4413
  660MOL0     H89046   7.779   2.930   1.134  1.0189 -0.3607  1.6387
  660MOL0     H89047   7.872   3.019   1.339  1.1637 -1.2954 -1.1656
  660MOL0     H89048   7.947   3.101   1.209  0.2167 -1.7537  1.1920
  660MOL0     H89049   7.697   3.214   1.364 -0.8727  1.9041  0.0524
  660MOL0     H89050   7.783   3.286   1.236 -0.6854  1.5408  2.3264
  660MOL0     H89051   7.852   3.160   1.597  0.6804 -1.0352  0.6380
  660MOL0     H89052   8.098   3.369   1.782  0.0983  0.8004  1.1142
  660MOL0     H89053   8.015   3.202   1.790 -1.6301  3.0170  1.3941
  660MOL0     H89054   8.284   3.258   1.645 -0.2088  0.1432 -0.6034
  660MOL0     H89055   8.198   3.107   1.662  1.6040  0.7334 -2.2082
  660MOL0     H89056   8.377   3.092   1.794 -1.6021 -3.2746 -1.6009
  660MOL0     H89057   8.228   3.097   1.895  0.9689 -0.3106  0.8726
  660MOL0     H89058   8.416   3.215   1.989  0.4965 -2.3055 -2.2582
  660MOL0     H89059   8.274   3.314   1.971 -2.2647 -4.0990  0.6634
  660MOL0     H89060   8.617   3.346   1.985  0.9351 -0.6648  0.6225
  660MOL0     H89061   8.974   3.252   1.910  0.9703  0.9457  0.2539
  660MOL0     H89062   8.928   3.429   1.936 -1.5967  0.4817  0.7672
  660MOL0     H89063   8.880   3.299   2.038  1.4825  2.6253  0.7877
  660MOL0     H89064   9.010   3.404   1.285 -0.2484 -1.7970  0.5647
  660MOL0     H89065   9.220   3.390   1.170  0.8171 -1.6913 -1.1884
  660MOL0     H89066   9.360   3.248   1.057  1.0725  0.2613 -1.1565
  660MOL0     H89067   9.453   3.388   1.111  1.1174  0.7940 -3.2671
  660MOL0     H89068   9.604   3.126   1.078 -0.1261 -0.6889  0.3255
  660MOL0     H89069   9.577   3.237   0.947  4.9315 -2.1633 -1.0280
  660MOL0     H89070   9.720   3.304   1.208  1.8638 -0.0882 -0.3948
  660MOL0     H89071   9.666   3.424   1.090 -0.0159  0.7695 -0.6330
  660MOL0     H89072   9.844   3.181   1.045  0.3599  0.4169  1.2290
  660MOL0     H89073   9.802   3.277   0.914  2.0883 -2.1207 -1.2107
  660MOL0     H89074   9.985   3.350   1.153 -1.5141 -2.2730  0.6952
  660MOL0     H89075   9.908   3.480   1.063  2.6237  1.3518 -1.8710
  660MOL0     H89076  10.110   3.273   0.968 -1.2902  0.7116  2.4411
  660MOL0     H89077  10.012   3.358   0.849  0.7236 -0.2387 -0.7064
  660MOL0     H89078  10.199   3.480   1.059  3.1598 -0.3156 -1.8772
  660MOL0     H89079  10.089   3.573   0.950 -2.1506 -1.7601  1.1205
  660MOL0     H89080  10.225   3.486   0.759 -1.6446 -0.0369 -0.1013
  660MOL0     H89081  10.299   3.356   0.862  3.4362  1.0465  0.9000
  660MOL0     H89082   9.356   3.116   1.477  0.1284  2.4454  0.1886
  660MOL0     H89083   9.129   3.118   1.574  1.4863  0.0620  1.0407
  660MOL0     H89084   8.716   3.320   1.500 -0.7979 -0.5049 -0.6868
  660MOL0     H89085   8.499   3.346   1.570  1.5104 -1.2055 -2.0251
  660MOL0     H89086   7.034   2.895   1.299 -3.3874 -0.7825  0.8248
  660MOL0     H89087   6.859   2.729   1.334 -0.1959  1.1726 -0.5602
  660MOL0     H89088   6.842   2.093   1.307 -1.2322  0.6596 -2.0864
  660MOL0     H89089   6.666   1.988   1.410  0.5352 -0.2351 -1.1779
  660MOL0     H89090   6.279   1.908   1.385  0.8594 -1.3102 -1.6697
  660MOL0     H89091   6.445   1.893   1.355  0.8279 -0.1037  0.9582
  660MOL0     H89092   6.318   1.959   1.632  1.1840 -2.4554  3.0444
  660MOL0     H89093   6.481   1.958   1.617  2.3515 -0.4097 -2.3897
  660MOL0     H89094   6.298   1.714   1.540 -0.8847  3.3877 -1.3365
  660MOL0     H89095   6.350   1.743   1.709  2.3937 -0.4539  0.1169
  660MOL0     H89096   6.584   1.738   1.641  1.5296 -3.4766  0.5409
  660MOL0     H89097   6.541   1.725   1.469 -1.1975 -4.4649 -1.8157
  660MOL0     H89098   6.522   1.321   1.558  1.2028 -0.1084 -2.4167
  660MOL0     H89099   6.393   2.320   1.348  1.5625  0.9149  3.2267
  660MOL0     H89100   6.578   2.436   1.238  0.7610  0.6959  1.0012
  661MOL0     O89101   0.179   6.039   6.500 -0.6946  0.2213 -0.2216
  661MOL0     C89102   0.184   5.981   6.612  0.6332  0.0959  1.3632
  661MOL0     O89103   0.177   5.842   6.630 -0.6088 -0.3510  0.2967
  661MOL0     C89104   0.155   5.760   6.522 -0.0014 -0.3192  0.1234
  661MOL0     C89105   0.262   5.685   6.461  0.6125  0.5475  0.5376
  661MOL0     C89106   0.233   5.588   6.359  0.4984  0.6594  0.0034
  661MOL0     C89107   0.097   5.574   6.309  0.5978 -0.7504  0.3537
  661MOL0     O89108   0.050   5.469   6.229  0.1129 -0.4964  0.0400
  661MOL0     C89109   0.139   5.359   6.196 -0.2935  0.5109 -0.1990
  661MOL0     C89110   0.035   5.280   6.108 -0.8156 -0.1490  0.2751
  661MOL0     C89111   0.041   5.305   5.956 -0.3515 -0.5993 -0.3273
  661MOL0     C89112  -0.002   5.442   5.919  0.2819  0.0519  0.9151
  661MOL0     C89113  -0.053   5.446   5.771  0.3269  0.6163 -0.0596
  661MOL0     C89114  -0.083   5.585   5.715  0.2237 -0.2249  0.6315
  661MOL0     C89115  -0.185   5.677   5.786 -0.0135  0.0902 -0.1887
  661MOL0     C89116  -0.324   5.636   5.743  0.7731 -0.4600  0.0260
  661MOL0     N89117  -0.371   5.669   5.609 -0.5756 -0.4533 -0.0533
  661MOL0     C89118  -0.406   5.794   5.562 -1.1956 -0.0806 -0.9676
  661MOL0     C89119  -0.442   5.770   5.437 -0.3115 -0.2108 -0.1183
  661MOL0     C89120  -0.495   5.873   5.344  0.4775  0.1518 -0.2684
  661MOL0     C89121  -0.646   5.892   5.385  0.1001  0.7172 -0.0442
  661MOL0     C89122  -0.720   5.978   5.278 -0.7162 -0.1716 -1.0664
  661MOL0     C89123  -0.866   6.005   5.325  0.2418  0.0922  0.2921
  661MOL0     O89124  -0.920   6.097   5.228 -0.7528  0.4594 -0.1530
  661MOL0     C89125  -1.058   6.107   5.231 -0.5625 -0.0132 -0.1243
  661MOL0     C89126  -1.144   6.082   5.335 -0.9976 -0.1818 -0.1698
  661MOL0     C89127  -1.283   6.109   5.327 -0.3646 -0.6029 -0.3560
  661MOL0     C89128  -1.370   6.062   5.441 -0.3968  0.2229  0.3783
  661MOL0     C89129  -1.342   6.170   5.211 -0.9771  0.7585 -0.2081
  661MOL0     C89130  -1.486   6.205   5.199  0.2694 -0.5691  0.5657
  661MOL0     O89131  -1.522   6.248   5.076  0.3479  0.5494 -0.0214
  661MOL0     C89132  -1.645   6.258   5.031  0.5185 -0.6021 -0.7026
  661MOL0     C89133  -1.662   6.245   4.896  0.3426 -0.4335 -0.2136
  661MOL0     C89134  -1.793   6.254   4.832  0.2612  0.2561  0.2402
  661MOL0     C89135  -1.903   6.261   4.899 -0.4566 -0.1893  0.0930
  661MOL0     O89136  -2.021   6.274   4.827  0.1389  0.6451  0.1373
  661MOL0     C89137  -2.140   6.307   4.886  0.3469 -0.6222  0.2060
  661MOL0     C89138  -2.235   6.361   4.776 -0.6965 -0.1427 -0.2360
  661MOL0     C89139  -2.370   6.390   4.840 -0.6920  0.0974 -1.0246
  661MOL0     C89140  -2.480   6.345   4.752  0.3385  0.4349 -0.2147
  661MOL0     C89141  -2.608   6.397   4.805  0.3699 -0.1498  0.7730
  661MOL0     C89142  -2.718   6.382   4.699  0.5852  0.2053 -0.1360
  661MOL0     C89143  -2.774   6.236   4.697 -0.6792  0.0599  0.5214
  661MOL0     C89144  -2.829   6.198   4.567  0.5122  0.5015  0.3005
  661MOL0    Cl89145  -2.984   6.283   4.549 -0.1857 -0.1252  0.2261
  661MOL0     C89146  -1.892   6.286   5.038 -1.2327  0.1171 -0.5090
  661MOL0     C89147  -1.763   6.276   5.101  1.1237  0.9440  0.1046
  661MOL0     O89148  -1.559   6.212   5.296  0.4629 -0.3870 -0.6449
  661MOL0     C89149  -1.247   6.207   5.117 -0.6111  0.1339  0.5059
  661MOL0     C89150  -1.115   6.169   5.121 -0.3785 -0.9362 -0.1932
  661MOL0     N89151  -0.431   5.633   5.412  0.1970 -0.0589 -0.7365
  661MOL0     N89152  -0.400   5.574   5.520  0.3162 -0.2693 -0.9690
  661MOL0     C89153  -0.002   5.660   6.354  0.7688  0.1703 -0.5199
  661MOL0     C89154   0.026   5.755   6.459 -0.5493  0.4518  0.2420
  661MOL0     C89155   0.238   6.070   6.724  0.8410  0.3081 -1.3594
  661MOL0     C89156   0.283   6.010   6.838  0.5798 -0.4636 -1.0554
  661MOL0     C89157   0.356   6.076   6.930 -0.5454 -0.0460  0.0715
  661MOL0     C89158   0.372   6.215   6.931 -0.4654  0.1337 -0.6666
  661MOL0     O89159   0.428   6.290   7.036  0.1698 -0.0894 -0.0647
  661MOL0     C89160   0.415   6.237   7.173 -0.0888  0.7056 -0.9605
  661MOL0     C89161   0.275   6.242   7.224 -0.1944  1.1726 -0.7463
  661MOL0     C89162   0.198   6.367   7.200 -0.5402  0.2722  0.3743
  661MOL0     C89163   0.051   6.341   7.221 -0.3379 -0.3091  0.0572
  661MOL0     C89164  -0.006   6.296   7.098  0.7523 -0.0526  0.1513
  661MOL0     C89165  -0.049   6.248   6.994 -0.2633  0.9919 -0.0320
  661MOL0     C89166   0.308   6.281   6.828 -0.1688 -0.3556  0.6390
  661MOL0     C89167   0.234   6.215   6.726 -0.0759 -0.6652  0.4687
  661MOL0     H89168   0.359   5.688   6.510  1.1085  0.6521 -0.4294
  661MOL0     H89169   0.313   5.523   6.324  0.4361 -0.1658  1.3220
  661MOL0     H89170   0.236   5.384   6.151  0.6452 -2.6679 -0.2598
  661MOL0     H89171   0.164   5.304   6.287 -1.8132 -0.6928 -0.4724
  661MOL0     H89172   0.049   5.171   6.114 -1.2065 -0.2518 -0.4872
  661MOL0     H89173  -0.068   5.301   6.139 -1.6467 -2.5270 -0.5952
  661MOL0     H89174   0.145   5.291   5.927 -0.6786 -2.8559 -0.6084
  661MOL0     H89175  -0.015   5.236   5.892 -0.9919 -0.0193 -0.4145
  661MOL0     H89176  -0.077   5.480   5.989 -1.1119 -0.0335 -0.5006
  661MOL0     H89177   0.082   5.509   5.940  0.0551  0.5791  0.1570
  661MOL0     H89178   0.026   5.397   5.714  0.8356 -1.0930  1.9823
  661MOL0     H89179  -0.145   5.387   5.768  1.9102 -1.9671 -0.8066
  661MOL0     H89180   0.012   5.638   5.704 -0.4704  1.4414  2.3147
  661MOL0     H89181  -0.106   5.580   5.608  2.1587  3.9733 -0.1623
  661MOL0     H89182  -0.182   5.658   5.893  1.1296  1.4886  0.0478
  661MOL0     H89183  -0.168   5.785   5.781  1.8419 -0.1031  1.1733
  661MOL0     H89184  -0.393   5.684   5.813  2.0106  0.7815  0.4442
  661MOL0     H89185  -0.343   5.528   5.746 -0.4947 -0.3394 -1.8011
  661MOL0     H89186  -0.413   5.891   5.609  0.0389  0.5504 -2.0127
  661MOL0     H89187  -0.430   5.960   5.353 -1.5302  1.5000  2.7394
  661MOL0     H89188  -0.504   5.839   5.240  0.5844 -5.2040  1.2069
  661MOL0     H89189  -0.648   5.932   5.486  0.9265 -0.2458  0.3639
  661MOL0     H89190  -0.689   5.792   5.393 -0.0106  0.6552 -1.2158
  661MOL0     H89191  -0.719   5.931   5.179 -1.2295  2.4407 -2.4077
  661MOL0     H89192  -0.662   6.071   5.276  2.4322 -1.9390 -0.2128
  661MOL0     H89193  -0.874   6.051   5.424 -2.6716 -0.7487  0.5444
  661MOL0     H89194  -0.929   5.915   5.325  1.4840 -0.7898  0.3910
  661MOL0     H89195  -1.098   6.043   5.426  1.1420  2.1822 -0.1466
  661MOL0     H89196  -1.443   5.992   5.398  2.3103 -2.1720 -0.6100
  661MOL0     H89197  -1.320   6.017   5.528 -0.6655 -3.3314 -1.1202
  661MOL0     H89198  -1.428   6.148   5.476 -2.7028 -0.4112 -1.5837
  661MOL0     H89199  -1.575   6.232   4.831  0.0053 -4.5518 -0.0908
  661MOL0     H89200  -1.797   6.241   4.725  4.0942 -1.9741  0.1866
  661MOL0     H89201  -2.179   6.218   4.935  3.1639 -2.3722 -0.5011
  661MOL0     H89202  -2.117   6.388   4.957 -1.1907  1.2749 -1.3564
  661MOL0     H89203  -2.193   6.456   4.742 -0.5607 -0.6835 -1.6737
  661MOL0     H89204  -2.239   6.290   4.693 -0.1350 -3.2668  2.2174
  661MOL0     H89205  -2.377   6.496   4.868  2.3543  0.0964  0.1822
  661MOL0     H89206  -2.374   6.322   4.926 -1.5876 -0.2889 -1.3679
  661MOL0     H89207  -2.473   6.383   4.649 -3.8867  2.5864  0.0744
  661MOL0     H89208  -2.481   6.236   4.736 -0.6738  0.1940  1.2986
  661MOL0     H89209  -2.609   6.503   4.834  1.9394 -0.1414  0.9129
  661MOL0     H89210  -2.644   6.350   4.897  0.3376 -3.0285 -0.6105
  661MOL0     H89211  -2.794   6.455   4.729  1.6850  1.3503 -0.0805
  661MOL0     H89212  -2.683   6.405   4.598 -0.0267 -0.4830 -0.5195
  661MOL0     H89213  -2.843   6.230   4.781 -0.5114  0.0078  0.6559
  661MOL0     H89214  -2.696   6.161   4.714 -0.1288  0.8268  1.4375
  661MOL0     H89215  -2.848   6.091   4.580 -0.5901  0.5599 -0.6936
  661MOL0     H89216  -2.774   6.215   4.474 -1.3977  3.1074 -0.4644
  661MOL0     H89217  -1.960   6.332   5.109  1.1639  1.7015  0.9029
  661MOL0     H89218  -1.753   6.286   5.209  0.6239 -2.2701  0.5577
  661MOL0     H89219  -1.275   6.253   5.023 -0.9595 -1.8617 -0.4162
  661MOL0     H89220  -1.050   6.185   5.036 -2.3619  1.0196 -1.4329
  661MOL0     H89221  -0.102   5.638   6.318  0.1685 -2.0351  2.1495
  661MOL0     H89222  -0.056   5.819   6.488 -1.7174 -2.4952  4.3206
  661MOL0     H89223   0.262   5.907   6.864 -3.4316  0.0057 -1.7181
  661MOL0     H89224   0.403   6.034   7.019  0.2382  2.6582  1.0375
  661MOL0     H89225   0.464   6.139   7.171 -0.4411  0.5307 -1.9489
  661MOL0     H89226   0.477   6.295   7.241 -1.5849 -0.2255  1.3027
  661MOL0     H89227   0.287   6.220   7.330  3.8383 -0.8402 -1.4243
  661MOL0     H89228   0.230   6.154   7.177  0.7975  0.4093 -0.3042
  661MOL0     H89229   0.214   6.397   7.096  1.5791 -1.1142  0.2502
  661MOL0     H89230   0.244   6.439   7.269 -0.9920 -1.0772  2.1631
  661MOL0     H89231   0.002   6.434   7.253 -0.6663 -0.7471  0.8336
  661MOL0     H89232   0.031   6.270   7.301 -1.4828 -1.9293 -1.5791
  661MOL0     H89233  -0.084   6.189   6.912  0.9754 -0.2507  0.3020
  661MOL0     H89234   0.306   6.389   6.819  0.3567 -0.3363  0.7081
  661MOL0     H89235   0.178   6.261   6.645  2.5859  0.8964 -0.6126
  662MOL0     O89236   0.338   9.609   8.985 -0.2346 -0.2124  0.0192
  662MOL0     C89237   0.390   9.559   9.079 -0.0780  0.4365 -0.6015
  662MOL0     O89238   0.318   9.503   9.187 -0.7780 -0.7043  0.0488
  662MOL0     C89239   0.192   9.541   9.222  0.3909 -0.1639  0.3868
  662MOL0     C89240   0.126   9.659   9.184  0.3011 -0.0273  0.1431
  662MOL0     C89241   0.005   9.699   9.240 -0.6501 -0.5923  0.4566
  662MOL0     C89242  -0.054   9.622   9.337  0.4524 -0.5440 -0.1941
  662MOL0     O89243  -0.168   9.682   9.389 -0.2440 -0.6450  0.1429
  662MOL0     C89244  -0.259   9.597   9.464 -0.3991  0.1698  0.3220
  662MOL0     C89245  -0.350   9.509   9.373 -0.3034 -0.6364 -0.8951
  662MOL0     C89246  -0.451   9.449   9.473 -0.0913 -0.9334  0.3366
  662MOL0     C89247  -0.554   9.375   9.394  0.1749  0.2936  0.0264
  662MOL0     C89248  -0.684   9.357   9.470  0.2637 -0.9953  0.2106
  662MOL0     C89249  -0.779   9.481   9.462  1.4782 -0.3741  0.4727
  662MOL0     C89250  -0.904   9.465   9.545 -0.0379 -0.3037 -0.7574
  662MOL0     C89251  -0.891   9.505   9.694 -0.1375  0.3476  0.3288
  662MOL0     N89252  -1.008   9.483   9.771  1.1080  0.2516 -0.1276
  662MOL0     C89253  -1.046   9.398   9.874  0.2423 -0.7028  0.0516
  662MOL0     C89254  -1.158   9.460   9.929  0.4226 -0.2059 -0.5031
  662MOL0     C89255  -1.231   9.406  10.050  0.4460 -0.9043  0.8389
  662MOL0     C89256  -1.285   9.270  10.032 -0.2855  0.2434  0.3095
  662MOL0     C89257  -1.393   9.261   9.920  0.6782 -0.1628  0.1243
  662MOL0     C89258  -1.472   9.129   9.915 -0.4182 -0.5241 -0.1295
  662MOL0     O89259  -1.608   9.147   9.872 -0.3106  0.0800 -0.4440
  662MOL0     C89260  -1.685   9.036   9.860  0.6076 -0.1376  0.0059
  662MOL0     C89261  -1.815   9.064   9.827  0.4463  0.0599 -0.0894
  662MOL0     C89262  -1.902   8.954   9.804 -0.7149 -0.6259 -0.1673
  662MOL0     C89263  -2.054   8.986   9.794 -0.3794 -0.3125 -0.0140
  662MOL0     C89264  -1.854   8.814   9.811  0.2096  0.6880  0.0812
  662MOL0     C89265  -1.946   8.698   9.790 -0.7715 -0.7317  0.1635
  662MOL0     O89266  -2.046   8.706   9.691  0.7894 -0.4755  0.1034
  662MOL0     C89267  -2.110   8.588   9.663  0.3984 -0.1329 -0.0377
  662MOL0     C89268  -2.215   8.545   9.744  1.1078 -1.4210  0.3024
  662MOL0     C89269  -2.293   8.433   9.708  0.3706 -0.3437  0.9391
  662MOL0     C89270  -2.261   8.352   9.598  0.6259 -0.5237 -0.2796
  662MOL0     O89271  -2.350   8.257   9.573  0.7993  0.3892 -0.4642
  662MOL0     C89272  -2.322   8.168   9.466  0.5701  0.4262 -0.1420
  662MOL0     C89273  -2.447   8.083   9.438 -0.3394 -0.4390  0.5278
  662MOL0     C89274  -2.421   8.024   9.298  0.0718 -0.3943  0.1012
  662MOL0     C89275  -2.519   7.921   9.253 -0.9408  0.0937  0.7075
  662MOL0     C89276  -2.501   7.895   9.095  0.3245  0.0903 -0.9877
  662MOL0     C89277  -2.620   7.794   9.049 -0.5389  0.6694  0.4333
  662MOL0     C89278  -2.591   7.648   9.082  0.1325 -0.7617 -0.8836
  662MOL0     C89279  -2.486   7.580   9.007 -0.4462  0.2845 -0.6973
  662MOL0    Cl89280  -2.515   7.567   8.829 -0.0866  0.3565  0.2003
  662MOL0     C89281  -2.157   8.395   9.523  0.0104 -0.2613  1.0903
  662MOL0     C89282  -2.080   8.508   9.551  0.3813 -0.1888 -0.5812
  662MOL0     O89283  -1.917   8.598   9.858 -0.4804  0.2303 -0.6061
  662MOL0     C89284  -1.717   8.794   9.835 -0.1886  0.9307 -0.2986
  662MOL0     C89285  -1.636   8.902   9.860 -0.4609 -0.1980 -0.1881
  662MOL0     N89286  -1.193   9.562   9.855 -0.5852 -0.2263  0.0799
  662MOL0     N89287  -1.115   9.572   9.752  0.1738  0.1774 -0.6071
  662MOL0     C89288   0.003   9.504   9.373 -0.0594  0.6017  0.6559
  662MOL0     C89289   0.135   9.467   9.327 -0.0379  0.4999  0.0329
  662MOL0     C89290   0.530   9.552   9.078  0.4971 -0.4839 -0.7691
  662MOL0     C89291   0.595   9.461   9.161 -0.0267  0.4403 -0.6944
  662MOL0     C89292   0.733   9.450   9.161 -0.5724 -0.3988  0.2055
  662MOL0     C89293   0.805   9.525   9.077 -0.0371 -0.6905 -0.6671
  662MOL0     O89294   0.935   9.497   9.075 -0.6078  0.2723  0.1941
  662MOL0     C89295   1.030   9.586   9.008  0.2643  0.1386 -0.1130
  662MOL0     C89296   1.174   9.550   9.054 -0.2877 -0.4510 -0.6843
  662MOL0     C89297   1.216   9.597   9.194 -0.5408  0.3247  0.5372
  662MOL0     C89298   1.368   9.562   9.210  0.5926 -0.8625 -0.1989
  662MOL0     C89299   1.463   9.637   9.125 -0.3936  0.7371  0.2069
  662MOL0     C89300   1.533   9.675   9.030 -0.2508  0.1678 -0.7322
  662MOL0     C89301   0.743   9.626   8.998 -1.1298 -1.1294 -0.3957
  662MOL0     C89302   0.604   9.639   8.996 -0.1228 -0.0392  0.1747
  662MOL0     H89303   0.170   9.723   9.108  0.1764  0.5989  0.5974
  662MOL0     H89304  -0.048   9.785   9.200  1.7974  1.5953  1.6061
  662MOL0     H89305  -0.205   9.545   9.544 -0.6332 -1.6328 -0.6558
  662MOL0     H89306  -0.316   9.668   9.525  2.1527  0.8169  2.1339
  662MOL0     H89307  -0.402   9.575   9.302 -3.4385  0.9447  2.5406
  662MOL0     H89308  -0.290   9.434   9.321 -1.6120 -2.2018 -0.2233
  662MOL0     H89309  -0.404   9.386   9.549 -1.8286 -0.1343  2.1755
  662MOL0     H89310  -0.505   9.529   9.524 -0.3724 -1.6561  1.2196
  662MOL0     H89311  -0.568   9.432   9.302  3.2447 -1.5963 -1.7652
  662MOL0     H89312  -0.514   9.279   9.361  1.2866  0.7055  0.1323
  662MOL0     H89313  -0.735   9.278   9.415  1.9235 -0.4010 -2.3254
  662MOL0     H89314  -0.666   9.331   9.575  3.2064 -0.7179 -0.1591
  662MOL0     H89315  -0.734   9.576   9.494 -0.1474  0.7403 -0.4029
  662MOL0     H89316  -0.809   9.483   9.357 -0.0177 -1.0259  0.8646
  662MOL0     H89317  -0.984   9.528   9.506  0.8495  1.9687  0.8536
  662MOL0     H89318  -0.936   9.361   9.552  1.4023 -0.6774  4.0573
  662MOL0     H89319  -0.861   9.609   9.688  2.7835 -0.4948 -2.6746
  662MOL0     H89320  -0.805   9.448   9.730  0.5255  0.6864 -0.6589
  662MOL0     H89321  -0.999   9.308   9.912  1.1768  0.7127  2.5254
  662MOL0     H89322  -1.176   9.410  10.145  0.1957 -0.8772  0.9843
  662MOL0     H89323  -1.323   9.465  10.062 -1.3943 -2.6580 -2.9332
  662MOL0     H89324  -1.328   9.235  10.125  1.8649 -1.3326  0.7905
  662MOL0     H89325  -1.202   9.201  10.011 -0.1095 -0.6215  3.4568
  662MOL0     H89326  -1.357   9.278   9.818  0.2815 -1.4777 -0.2428
  662MOL0     H89327  -1.461   9.345   9.932  0.5846 -0.2550  0.2374
  662MOL0     H89328  -1.483   9.095  10.018 -0.5526  1.7161  0.6438
  662MOL0     H89329  -1.420   9.059   9.848 -0.1294 -0.1597 -0.2898
  662MOL0     H89330  -1.844   9.169   9.835  1.0900  0.4120 -1.9522
  662MOL0     H89331  -2.096   8.948   9.700 -0.5892 -1.0576  0.3675
  662MOL0     H89332  -2.114   8.935   9.870 -1.4306 -1.8714 -1.7727
  662MOL0     H89333  -2.070   9.094   9.793 -0.3601 -0.3105 -1.0089
  662MOL0     H89334  -2.240   8.582   9.843  0.0194 -0.7920 -0.1798
  662MOL0     H89335  -2.375   8.392   9.766  1.7335 -4.1946  0.3990
  662MOL0     H89336  -2.307   8.229   9.377 -2.4205  1.6788  0.1088
  662MOL0     H89337  -2.236   8.105   9.492  0.7165  1.1652  1.3210
  662MOL0     H89338  -2.464   8.001   9.508 -1.9950  0.2798  1.0292
  662MOL0     H89339  -2.542   8.137   9.446 -1.8410 -2.7166 -0.8511
  662MOL0     H89340  -2.327   7.971   9.314  0.1184 -0.6393 -0.8735
  662MOL0     H89341  -2.408   8.102   9.222 -1.4145  1.2789  1.4640
  662MOL0     H89342  -2.507   7.829   9.311 -0.1239  0.3854  1.0151
  662MOL0     H89343  -2.624   7.945   9.270 -0.6159  0.5225  2.2234
  662MOL0     H89344  -2.406   7.843   9.074 -0.9590 -2.6669 -0.4676
  662MOL0     H89345  -2.496   7.985   9.033  3.4185 -0.8873 -2.3696
  662MOL0     H89346  -2.719   7.827   9.082 -1.5186 -1.3925 -0.2910
  662MOL0     H89347  -2.630   7.788   8.940 -2.1424 -1.5664  0.6412
  662MOL0     H89348  -2.684   7.592   9.072 -0.5220 -1.3186  4.7930
  662MOL0     H89349  -2.570   7.640   9.190 -4.1693 -0.7106  0.1468
  662MOL0     H89350  -2.496   7.480   9.052 -1.7622  0.4367 -0.6011
  662MOL0     H89351  -2.390   7.624   9.035 -0.5828 -0.6297  1.4501
  662MOL0     H89352  -2.128   8.331   9.440  0.0400  1.1353 -0.0178
  662MOL0     H89353  -1.999   8.541   9.487 -0.4377 -2.1605 -2.7615
  662MOL0     H89354  -1.669   8.698   9.819 -0.4431  0.9429 -1.1385
  662MOL0     H89355  -1.528   8.894   9.863 -0.3130  1.5035  2.9275
  662MOL0     H89356  -0.043   9.444   9.451 -2.0886  2.1627  0.7339
  662MOL0     H89357   0.188   9.378   9.359 -0.0849  0.2506 -0.5742
  662MOL0     H89358   0.539   9.396   9.228  3.3344  0.5346  2.5203
  662MOL0     H89359   0.775   9.370   9.221  1.2641 -1.4132 -2.2626
  662MOL0     H89360   1.028   9.559   8.902 -1.0282  0.2496 -0.1339
  662MOL0     H89361   0.999   9.690   9.017  0.9534  0.6448 -2.7040
  662MOL0     H89362   1.233   9.599   8.975 -0.9849 -0.3803 -1.1614
  662MOL0     H89363   1.193   9.444   9.038 -2.0632 -0.6238 -1.8639
  662MOL0     H89364   1.163   9.531   9.264  2.1241 -1.6129  0.8837
  662MOL0     H89365   1.201   9.705   9.203  1.5899  0.5214  3.1983
  662MOL0     H89366   1.379   9.454   9.214 -1.3781 -1.0523  1.4631
  662MOL0     H89367   1.397   9.589   9.312  2.2715 -0.0236 -0.8461
  662MOL0     H89368   1.600   9.714   8.956  1.6137 -1.8829 -0.2330
  662MOL0     H89369   0.807   9.693   8.942  1.3979 -0.2607  3.2047
  662MOL0     H89370   0.555   9.714   8.936 -1.9926 -2.1516 -1.0961
  663MOL0     O89371   5.283   0.746   0.914  0.5412 -0.1871  0.3543
  663MOL0     C89372   5.308   0.711   0.798 -0.2371  0.7566 -0.6669
  663MOL0     O89373   5.217   0.717   0.697  0.0849  0.6984 -0.3793
  663MOL0     C89374   5.112   0.806   0.724  0.7523 -0.0371  0.2563
  663MOL0     C89375   4.991   0.748   0.769 -0.8434 -0.1008  0.4260
  663MOL0     C89376   4.877   0.825   0.762 -0.0150  0.5203 -0.6742
  663MOL0     C89377   4.884   0.959   0.728  0.2911 -0.9218  0.8920
  663MOL0     O89378   4.772   1.043   0.701 -0.1117  0.6923 -1.2059
  663MOL0     C89379   4.794   1.185   0.687  0.0186 -0.0846 -0.1830
  663MOL0     C89380   4.669   1.275   0.707  0.0461  1.1532  0.6534
  663MOL0     C89381   4.686   1.425   0.733  0.1898  0.9393 -0.4723
  663MOL0     C89382   4.754   1.489   0.612  0.5395  0.4184  0.3035
  663MOL0     C89383   4.667   1.583   0.532  0.6370 -0.0216  0.3525
  663MOL0     C89384   4.740   1.659   0.417 -0.0769 -0.0629 -0.2763
  663MOL0     C89385   4.870   1.737   0.446  0.0758 -0.1238  0.5577
  663MOL0     C89386   4.918   1.813   0.321  0.6018  0.6442  0.6564
  663MOL0     N89387   4.988   1.732   0.215  0.2942  0.2795 -0.3685
  663MOL0     C89388   5.035   1.599   0.217 -0.0286 -0.5039 -0.4301
  663MOL0     C89389   5.075   1.579   0.091  0.0320  0.3447 -0.7805
  663MOL0     C89390   5.172   1.470   0.059  0.1567  0.1242  0.4222
  663MOL0     C89391   5.311   1.479   0.130 -0.4408 -0.9984 -0.9143
  663MOL0     C89392   5.377   1.616   0.098 -0.4349  0.8252 -0.0140
  663MOL0     C89393   5.524   1.625   0.138  0.2857 -0.2258  0.8400
  663MOL0     O89394   5.549   1.555   0.259 -0.1037 -0.1381  0.2864
  663MOL0     C89395   5.678   1.543   0.318  0.1701  0.8443  0.3046
  663MOL0     C89396   5.697   1.545   0.454  0.2610  1.1472  0.4782
  663MOL0     C89397   5.816   1.535   0.513  0.4995  0.3454 -0.3131
  663MOL0     C89398   5.811   1.513   0.661 -0.2612  0.6695  0.2314
  663MOL0     C89399   5.941   1.544   0.443 -0.1893 -0.4423  0.3224
  663MOL0     C89400   6.075   1.544   0.492  0.2195  0.2776  0.5596
  663MOL0     O89401   6.174   1.515   0.402 -0.3305  0.2860  0.3489
  663MOL0     C89402   6.304   1.512   0.442 -0.4838 -0.2751 -0.1378
  663MOL0     C89403   6.378   1.409   0.401  0.0486  0.4504  0.3111
  663MOL0     C89404   6.508   1.391   0.445 -0.4279  0.8203 -0.1949
  663MOL0     C89405   6.571   1.492   0.529 -1.0610  0.5730  0.0438
  663MOL0     O89406   6.699   1.482   0.584  0.6917 -0.4177  0.1040
  663MOL0     C89407   6.794   1.378   0.551 -0.0072  0.4646  0.3728
  663MOL0     C89408   6.912   1.380   0.646 -0.2311  0.2579 -0.2923
  663MOL0     C89409   6.993   1.243   0.649  0.6218  0.3085  0.3934
  663MOL0     C89410   7.138   1.244   0.692 -0.4803  0.2304 -0.1564
  663MOL0     C89411   7.232   1.137   0.637  0.2497 -0.8155  0.5542
  663MOL0     C89412   7.191   0.992   0.675 -0.3778  0.2235  0.2981
  663MOL0     C89413   7.242   0.962   0.814 -0.2060 -0.0478 -0.9106
  663MOL0     C89414   7.169   0.840   0.870 -1.0246  0.4329  0.0118
  663MOL0    Cl89415   6.996   0.845   0.838  0.4241  0.1758  0.1461
  663MOL0     C89416   6.500   1.607   0.554 -0.3898 -0.1599  0.0173
  663MOL0     C89417   6.366   1.613   0.524  0.1461  0.3150 -0.0269
  663MOL0     O89418   6.098   1.553   0.612  0.1527 -0.3056 -0.4067
  663MOL0     C89419   5.922   1.546   0.302  0.0281 -0.0974 -0.6745
  663MOL0     C89420   5.797   1.535   0.245 -0.9706 -0.6787 -0.8724
  663MOL0     N89421   5.036   1.679   0.012  0.2329  0.1846  0.7510
  663MOL0     N89422   4.991   1.773   0.084 -0.2743 -0.8531 -0.5889
  663MOL0     C89423   5.014   1.017   0.701  0.3545  0.2162  1.0090
  663MOL0     C89424   5.123   0.936   0.689  0.8347 -0.7083  0.5545
  663MOL0     C89425   5.439   0.627   0.788  0.8944 -0.1378 -0.6903
  663MOL0     C89426   5.523   0.593   0.895 -0.2575 -0.8806 -0.4739
  663MOL0     C89427   5.637   0.512   0.882  0.7798 -0.1645 -0.5280
  663MOL0     C89428   5.674   0.452   0.757 -0.7829 -1.4622 -0.5959
  663MOL0     O89429   5.779   0.366   0.736 -0.6945 -0.8873 -0.3607
  663MOL0     C89430   5.869   0.347   0.847  0.3655 -0.2962 -0.4917
  663MOL0     C89431   5.979   0.242   0.821 -1.3016  0.0907 -0.3530
  663MOL0     C89432   5.938   0.095   0.852 -0.1699  0.0421  0.8820
  663MOL0     C89433   6.062   0.001   0.872  0.1123  0.3843  1.1815
  663MOL0     C89434   6.128  -0.013   0.748 -1.1366  0.1832  0.4894
  663MOL0     C89435   6.184  -0.026   0.642  0.3013  0.0600 -1.0851
  663MOL0     C89436   5.584   0.482   0.649 -0.2599  0.5805  0.2884
  663MOL0     C89437   5.473   0.571   0.662 -0.2182 -0.2530  0.2656
  663MOL0     H89438   4.988   0.642   0.792  1.1065 -0.3468 -0.3115
  663MOL0     H89439   4.779   0.778   0.767 -0.2966  1.2545  1.8495
  663MOL0     H89440   4.872   1.224   0.753 -1.6293  0.9406  1.2457
  663MOL0     H89441   4.821   1.203   0.583  2.6318  0.9629  0.6046
  663MOL0     H89442   4.593   1.262   0.629 -2.8840 -0.8404  3.5957
  663MOL0     H89443   4.619   1.249   0.801 -0.9547 -0.7208 -0.3455
  663MOL0     H89444   4.591   1.473   0.758 -1.3256 -1.5334 -1.1418
  663MOL0     H89445   4.751   1.435   0.821 -0.7355 -1.2571  0.5422
  663MOL0     H89446   4.835   1.551   0.652 -1.1902  2.0691  1.4046
  663MOL0     H89447   4.793   1.411   0.546  1.1951  1.9839 -1.2391
  663MOL0     H89448   4.589   1.517   0.493 -1.4639  3.3125 -1.4728
  663MOL0     H89449   4.628   1.654   0.606  0.1244 -1.5130  1.5822
  663MOL0     H89450   4.765   1.590   0.336  2.6415 -0.2017  0.5682
  663MOL0     H89451   4.664   1.727   0.377 -0.3834 -0.2025  0.0626
  663MOL0     H89452   4.844   1.815   0.518  2.1074  0.3549  0.8144
  663MOL0     H89453   4.936   1.663   0.492 -1.2291 -2.3591 -0.9656
  663MOL0     H89454   4.971   1.904   0.353  0.9461 -0.3005  2.9786
  663MOL0     H89455   4.826   1.837   0.268  1.6365 -1.7626 -2.5697
  663MOL0     H89456   5.060   1.539   0.305  1.2215  2.1805  1.1555
  663MOL0     H89457   5.132   1.378   0.104  1.8496 -2.6221 -3.1524
  663MOL0     H89458   5.169   1.446  -0.048 -2.9350  1.4678  0.1020
  663MOL0     H89459   5.378   1.406   0.084 -0.4395 -0.4664 -1.7644
  663MOL0     H89460   5.306   1.479   0.240  0.7595  1.1418 -0.8216
  663MOL0     H89461   5.324   1.691   0.156 -0.1006  0.8753  0.2294
  663MOL0     H89462   5.356   1.640  -0.007 -1.1628  2.4937  0.4774
  663MOL0     H89463   5.576   1.721   0.133 -0.9839  0.4036 -1.9165
  663MOL0     H89464   5.575   1.573   0.056  1.6509  0.3344  1.2951
  663MOL0     H89465   5.605   1.559   0.510 -0.9346 -0.6530 -0.9183
  663MOL0     H89466   5.863   1.423   0.694 -0.2726  0.7171  0.3779
  663MOL0     H89467   5.850   1.602   0.712 -0.3918  0.8040  0.0984
  663MOL0     H89468   5.705   1.504   0.684 -0.2317  0.8412  0.4361
  663MOL0     H89469   6.325   1.336   0.341  0.2906 -0.8279  1.5905
  663MOL0     H89470   6.558   1.307   0.397  0.3191  1.2155 -0.1272
  663MOL0     H89471   6.738   1.285   0.564 -2.4437  1.8978  0.8086
  663MOL0     H89472   6.839   1.388   0.452 -0.8678 -1.6136 -0.2772
  663MOL0     H89473   6.977   1.456   0.603 -0.7094  0.9278  0.1464
  663MOL0     H89474   6.874   1.414   0.742 -1.2112  0.6878 -0.8121
  663MOL0     H89475   6.987   1.201   0.549 -2.5890  2.8900 -0.6835
  663MOL0     H89476   6.941   1.181   0.722  1.6022 -1.8522 -0.6805
  663MOL0     H89477   7.177   1.342   0.665  1.5037 -1.1705 -2.8960
  663MOL0     H89478   7.140   1.240   0.802  1.5134 -2.4742 -0.1787
  663MOL0     H89479   7.334   1.163   0.668  0.1401  3.1676 -1.7639
  663MOL0     H89480   7.252   1.136   0.530  0.6375 -1.2665  0.6284
  663MOL0     H89481   7.083   0.991   0.664 -0.2385  1.4256 -1.4736
  663MOL0     H89482   7.235   0.916   0.609  0.3090  1.3816 -0.6173
  663MOL0     H89483   7.222   1.047   0.880  2.2115 -0.1596  0.0456
  663MOL0     H89484   7.347   0.935   0.824  0.2831  2.5135  3.3569
  663MOL0     H89485   7.189   0.839   0.978 -0.6393  2.7234  0.0215
  663MOL0     H89486   7.212   0.755   0.817  0.9257  0.3642  1.5948
  663MOL0     H89487   6.539   1.693   0.608  3.1815 -1.3416 -0.4628
  663MOL0     H89488   6.304   1.690   0.568 -0.7599 -1.9630  3.0443
  663MOL0     H89489   6.010   1.550   0.239  0.6935  0.5484  0.2760
  663MOL0     H89490   5.791   1.536   0.137  2.9213  2.0255 -1.2759
  663MOL0     H89491   5.028   1.117   0.661 -0.2743 -0.4471 -0.9784
  663MOL0     H89492   5.216   0.977   0.651 -0.6001  0.6888 -1.7182
  663MOL0     H89493   5.507   0.640   0.992  0.0047 -0.8359 -0.4512
  663MOL0     H89494   5.688   0.493   0.976  0.9405 -0.2349 -0.6283
  663MOL0     H89495   5.916   0.439   0.883  2.8618 -1.8440  0.4410
  663MOL0     H89496   5.805   0.297   0.921  0.4532 -1.7086 -1.3334
  663MOL0     H89497   6.067   0.269   0.879 -0.4731 -2.2012 -0.4550
  663MOL0     H89498   5.995   0.255   0.713 -0.2580 -0.0380 -0.2221
  663MOL0     H89499   5.883   0.060   0.764 -0.4671  1.3104  0.5532
  663MOL0     H89500   5.875   0.088   0.941 -1.6938  1.5530 -0.0267
  663MOL0     H89501   6.025  -0.100   0.893 -0.6046  0.3898  0.0247
  663MOL0     H89502   6.133   0.034   0.948  1.6619 -2.8125  1.3020
  663MOL0     H89503   6.213  -0.035   0.539  0.0217 -0.2166 -1.1415
  663MOL0     H89504   5.610   0.440   0.553 -0.3267  2.1124 -0.4299
  663MOL0     H89505   5.403   0.601   0.584 -0.2215  3.0985  1.3521
  664MOL0     O89506   7.632   0.954   1.748  0.4328  0.2742 -0.2282
  664MOL0     C89507   7.673   1.020   1.844 -0.1734  1.1688  0.1668
  664MOL0     O89508   7.803   1.032   1.886 -0.3521  0.6035 -0.8824
  664MOL0     C89509   7.903   0.990   1.797 -0.4384  0.5697 -1.3146
  664MOL0     C89510   8.025   0.955   1.854 -0.3053  0.5246 -0.8873
  664MOL0     C89511   8.136   0.905   1.782  1.1283  0.9698 -0.5369
  664MOL0     C89512   8.124   0.895   1.644  0.4476 -0.1852  0.1666
  664MOL0     O89513   8.225   0.843   1.567 -0.5563 -0.5967  0.7467
  664MOL0     C89514   8.353   0.862   1.625 -0.0820  0.1391 -0.1482
  664MOL0     C89515   8.476   0.863   1.529 -0.3893 -0.8168  0.7792
  664MOL0     C89516   8.510   1.007   1.484 -0.4661 -0.2365  0.5652
  664MOL0     C89517   8.411   1.053   1.370  0.9479 -0.6539 -0.5010
  664MOL0     C89518   8.372   1.201   1.380 -0.5630 -0.7670 -0.8196
  664MOL0     C89519   8.489   1.293   1.332 -0.3019 -0.5337  0.2512
  664MOL0     C89520   8.473   1.444   1.367 -0.2958  0.1317  0.5964
  664MOL0     C89521   8.565   1.539   1.293  0.3340 -0.2543 -0.1093
  664MOL0     N89522   8.693   1.562   1.358  0.3802  0.4202 -0.1946
  664MOL0     C89523   8.714   1.669   1.439  0.0344  0.2910 -0.2174
  664MOL0     C89524   8.840   1.657   1.483 -0.2727  0.0216 -0.6265
  664MOL0     C89525   8.913   1.746   1.577 -0.1748 -0.5614 -0.5994
  664MOL0     C89526   9.035   1.808   1.511  0.6889 -0.4122 -0.0313
  664MOL0     C89527   9.146   1.707   1.479  0.2479 -0.4638 -0.0546
  664MOL0     C89528   9.270   1.773   1.420  0.3504 -0.0764 -0.1642
  664MOL0     O89529   9.385   1.688   1.442 -0.0534 -0.4543 -0.1905
  664MOL0     C89530   9.502   1.734   1.378  0.4149  0.2182  0.2782
  664MOL0     C89531   9.513   1.858   1.314 -0.1067  0.2752 -0.2983
  664MOL0     C89532   9.640   1.909   1.269 -0.2428  0.7439 -0.5496
  664MOL0     C89533   9.644   2.046   1.218  0.6286 -0.0774  1.6520
  664MOL0     C89534   9.749   1.821   1.275  0.4511 -0.2195  0.4887
  664MOL0     C89535   9.885   1.873   1.243  0.1616  0.1073  0.6492
  664MOL0     O89536   9.908   1.919   1.116 -0.3651  0.1293  0.3805
  664MOL0     C89537  10.040   1.943   1.099  0.7789 -0.5977 -0.1095
  664MOL0     C89538  10.128   1.848   1.063 -0.5351  0.0733 -0.4120
  664MOL0     C89539  10.263   1.883   1.031  1.0289 -0.9105  0.2251
  664MOL0     C89540  10.316   2.009   1.046 -0.1498  0.2125  0.7419
  664MOL0     O89541  10.452   2.027   1.014 -0.9660 -0.1528 -0.4782
  664MOL0     C89542  10.481   2.143   0.930  0.5547 -0.1557 -0.5303
  664MOL0     C89543  10.625   2.132   0.875 -0.6766 -0.6473 -0.2183
  664MOL0     C89544  10.666   2.267   0.807 -0.5181  0.0018  0.5103
  664MOL0     C89545  10.661   2.394   0.900 -0.1871 -0.3280 -0.6425
  664MOL0     C89546  10.744   2.514   0.837 -0.4789 -0.3257 -0.0286
  664MOL0     C89547  10.721   2.641   0.917  0.3232 -0.3498 -0.4509
  664MOL0     C89548  10.822   2.754   0.875  0.0462 -0.4760 -0.9497
  664MOL0     C89549  10.778   2.893   0.916 -0.3209 -0.2217  0.2877
  664MOL0    Cl89550  10.767   2.883   1.103  0.4940 -0.0454  0.0986
  664MOL0     C89551  10.217   2.109   1.066  0.4833 -0.2351  0.4344
  664MOL0     C89552  10.077   2.078   1.087 -0.3063 -0.8197 -0.0454
  664MOL0     O89553   9.969   1.856   1.333 -0.0291  0.0862 -0.5265
  664MOL0     C89554   9.735   1.690   1.326  0.4548  0.2055 -0.9249
  664MOL0     C89555   9.614   1.648   1.384  0.7339  0.4956 -0.9688
  664MOL0     N89556   8.882   1.530   1.451  0.8414 -0.2671 -0.9894
  664MOL0     N89557   8.787   1.470   1.376  0.1154  0.0801 -0.3222
  664MOL0     C89558   8.003   0.934   1.580  0.0148  0.2951  0.6351
  664MOL0     C89559   7.893   0.983   1.659 -0.0531 -0.1143 -0.1190
  664MOL0     C89560   7.568   1.079   1.927  0.0304 -0.2388  0.6410
  664MOL0     C89561   7.567   1.210   1.977  0.3558 -0.6452 -0.1332
  664MOL0     C89562   7.468   1.254   2.065  0.4078  0.1802 -0.2149
  664MOL0     C89563   7.362   1.174   2.096 -0.3142  0.4184 -0.2222
  664MOL0     O89564   7.275   1.226   2.188  0.3086 -0.1856 -0.4181
  664MOL0     C89565   7.157   1.156   2.226  0.3378  0.7031  1.1010
  664MOL0     C89566   7.061   1.250   2.295 -0.0976 -0.8443 -0.3223
  664MOL0     C89567   6.932   1.171   2.340 -0.0056 -0.4067 -0.0673
  664MOL0     C89568   6.852   1.232   2.450  0.1728  0.0155 -0.4505
  664MOL0     C89569   6.715   1.165   2.443  0.1981  0.1845  0.4462
  664MOL0     C89570   6.601   1.125   2.453 -1.1786 -0.6744 -0.1435
  664MOL0     C89571   7.366   1.040   2.057 -0.0591  1.1206 -0.9387
  664MOL0     C89572   7.464   0.994   1.968  0.0355 -0.5346  0.7457
  664MOL0     H89573   8.033   0.967   1.961 -1.3939 -0.2696 -0.7043
  664MOL0     H89574   8.220   0.859   1.833 -0.1462 -4.2146 -2.4941
  664MOL0     H89575   8.359   0.956   1.680 -1.5192  1.0436 -1.4476
  664MOL0     H89576   8.368   0.775   1.689 -1.5537 -0.1341 -0.1425
  664MOL0     H89577   8.566   0.824   1.577 -0.3609  0.6314  1.9806
  664MOL0     H89578   8.445   0.797   1.447  0.0255 -0.7378  0.5560
  664MOL0     H89579   8.511   1.078   1.567 -0.4586  1.2173 -0.6273
  664MOL0     H89580   8.610   1.007   1.440 -1.1148  0.4233 -1.0207
  664MOL0     H89581   8.443   1.010   1.274  1.0642 -2.7522  0.4136
  664MOL0     H89582   8.312   1.009   1.387  0.3887  1.1133  1.1002
  664MOL0     H89583   8.285   1.223   1.317 -0.0901 -1.1340 -1.6047
  664MOL0     H89584   8.347   1.221   1.485  2.1400 -0.2376 -0.2011
  664MOL0     H89585   8.574   1.256   1.391 -1.0465 -0.6818  1.2600
  664MOL0     H89586   8.501   1.278   1.224  1.6618  2.0527  0.0304
  664MOL0     H89587   8.371   1.468   1.333  0.1771  0.5732 -0.5898
  664MOL0     H89588   8.482   1.463   1.474  2.0671 -0.6493  0.5960
  664MOL0     H89589   8.521   1.639   1.289  2.0517  0.4934 -2.8400
  664MOL0     H89590   8.583   1.499   1.193  1.6076  0.7795 -0.3188
  664MOL0     H89591   8.646   1.747   1.472  0.1021 -0.7491  2.7138
  664MOL0     H89592   8.840   1.819   1.613 -0.2790 -0.5603 -0.8156
  664MOL0     H89593   8.951   1.687   1.661  1.9845 -2.7448 -2.9358
  664MOL0     H89594   9.072   1.888   1.576 -0.6082  0.0865  0.1352
  664MOL0     H89595   9.004   1.840   1.411 -2.3654 -2.4980  0.1015
  664MOL0     H89596   9.104   1.649   1.396 -1.7050  2.5207 -1.3122
  664MOL0     H89597   9.163   1.651   1.571 -0.2241  1.0265  0.9597
  664MOL0     H89598   9.291   1.865   1.475  2.7276 -0.6529 -0.0047
  664MOL0     H89599   9.243   1.800   1.318  2.2864 -0.5481 -0.8525
  664MOL0     H89600   9.431   1.928   1.309 -0.7632 -0.3747  0.9730
  664MOL0     H89601   9.695   2.042   1.121 -0.9676 -3.7582  0.7859
  664MOL0     H89602   9.541   2.069   1.188  1.3397 -0.0215 -1.0602
  664MOL0     H89603   9.696   2.114   1.286  1.2605  0.6470  0.4762
  664MOL0     H89604  10.102   1.743   1.059 -2.7454  0.5991 -2.0616
  664MOL0     H89605  10.336   1.808   1.001  0.8706 -0.3466 -1.6441
  664MOL0     H89606  10.412   2.152   0.845  1.7792  0.9247 -1.4478
  664MOL0     H89607  10.483   2.235   0.990 -2.0941 -0.2437 -0.1787
  664MOL0     H89608  10.689   2.116   0.963  0.2499 -1.9667 -1.0899
  664MOL0     H89609  10.643   2.046   0.810 -2.7356 -1.6372  0.4489
  664MOL0     H89610  10.596   2.298   0.729  0.9076  2.9902  0.2794
  664MOL0     H89611  10.768   2.248   0.772  0.3361 -0.1051  2.9003
  664MOL0     H89612  10.556   2.423   0.912 -0.4526 -1.2771 -0.5374
  664MOL0     H89613  10.696   2.362   0.999 -4.2308 -1.3645  0.6708
  664MOL0     H89614  10.724   2.538   0.732 -1.9315  0.1233  0.3299
  664MOL0     H89615  10.848   2.492   0.864  0.0703  1.0635 -0.8828
  664MOL0     H89616  10.622   2.684   0.899  1.6655  3.9524  1.1184
  664MOL0     H89617  10.725   2.627   1.025 -0.5189 -1.0787 -0.5028
  664MOL0     H89618  10.832   2.759   0.766  2.6603 -0.5599 -0.7833
  664MOL0     H89619  10.918   2.726   0.920 -0.1930 -3.8531 -2.2611
  664MOL0     H89620  10.671   2.901   0.899 -0.5210  0.3024  1.6723
  664MOL0     H89621  10.842   2.969   0.871  0.8265 -0.8122  0.8615
  664MOL0     H89622  10.241   2.215   1.066  0.7824 -0.2975 -0.3676
  664MOL0     H89623  10.001   2.153   1.104 -0.9814 -1.5442  0.1711
  664MOL0     H89624   9.827   1.633   1.332  0.7683  0.8187  0.6344
  664MOL0     H89625   9.609   1.556   1.440  0.8671  1.0267 -0.0634
  664MOL0     H89626   7.998   0.932   1.472 -0.4666 -0.4971  0.6635
  664MOL0     H89627   7.799   1.015   1.615  1.2260  3.1548 -0.8085
  664MOL0     H89628   7.642   1.286   1.955 -0.0891 -0.5924 -1.5526
  664MOL0     H89629   7.468   1.353   2.110 -2.3180  0.4570 -0.6387
  664MOL0     H89630   7.096   1.110   2.148 -0.1727  1.0062  1.3155
  664MOL0     H89631   7.187   1.080   2.299  1.7835  2.5323  2.5419
  664MOL0     H89632   7.032   1.328   2.224  0.2894  1.3434  1.7674
  664MOL0     H89633   7.112   1.298   2.378  1.8713 -1.1419 -1.3019
  664MOL0     H89634   6.947   1.067   2.372  0.7657 -0.2263  0.1823
  664MOL0     H89635   6.871   1.177   2.249 -0.7531 -0.9031  0.3879
  664MOL0     H89636   6.830   1.338   2.434 -3.5874 -0.5121  0.4021
  664MOL0     H89637   6.903   1.206   2.543  3.5912  0.4453 -2.0548
  664MOL0     H89638   6.501   1.089   2.460 -1.3070 -1.3669 -3.7568
  664MOL0     H89639   7.276   0.985   2.082  0.6462  0.5475  0.4477
  664MOL0     H89640   7.469   0.890   1.937  1.2537  0.5392 -3.3971
  665MOL0     O89641   7.548  10.949   3.499  0.6799 -0.5328  0.3855
  665MOL0     C89642   7.559  10.917   3.616 -0.7995 -0.1130  0.0930
  665MOL0     O89643   7.475  10.840   3.687  0.4665 -0.1696  0.2618
  665MOL0     C89644   7.372  10.799   3.611  0.0044  0.0869  0.7296
  665MOL0     C89645   7.238  10.859   3.620 -0.0723  0.1922 -0.5209
  665MOL0     C89646   7.127  10.816   3.546  0.7661  0.6149 -0.0625
  665MOL0     C89647   7.145  10.710   3.454  0.0066 -0.2130 -0.4890
  665MOL0     O89648   7.041  10.654   3.383  0.1794 -0.3948  0.3012
  665MOL0     C89649   6.912  10.669   3.424  0.7484 -0.5906 -0.8922
  665MOL0     C89650   6.818  10.568   3.373 -0.5614  0.2129  0.0935
  665MOL0     C89651   6.796  10.588   3.223  0.0871  0.3829  0.3186
  665MOL0     C89652   6.723  10.475   3.147  0.3040 -0.5473 -0.5103
  665MOL0     C89653   6.569  10.467   3.187 -0.8621  0.2325 -0.1263
  665MOL0     C89654   6.493  10.376   3.084 -0.2806 -0.8869  0.4320
  665MOL0     C89655   6.417  10.257   3.146 -0.1056 -0.1570 -0.8000
  665MOL0     C89656   6.352  10.163   3.039  0.4193  0.5466 -0.2863
  665MOL0     N89657   6.215  10.198   2.999  1.2344 -0.1886 -0.1841
  665MOL0     C89658   6.106  10.110   3.010 -0.2832  0.5084  0.5068
  665MOL0     C89659   6.013  10.155   2.924  0.2324 -0.4771 -0.0752
  665MOL0     C89660   5.875  10.095   2.891 -0.0265 -0.8835 -0.7903
  665MOL0     C89661   5.776  10.209   2.909 -0.7181 -0.7522  0.9822
  665MOL0     C89662   5.632  10.162   2.887  0.4129 -0.8989  0.8112
  665MOL0     C89663   5.526  10.254   2.961 -0.4519  0.6119 -0.2698
  665MOL0     O89664   5.393  10.226   2.901 -0.8727  0.1646 -0.2870
  665MOL0     C89665   5.355  10.279   2.782 -0.3319  0.8049  0.9325
  665MOL0     C89666   5.424  10.376   2.711 -0.3987  0.2133 -0.3022
  665MOL0     C89667   5.366  10.440   2.610  0.4566 -0.8338  0.6499
  665MOL0     C89668   5.443  10.555   2.534  0.8772  0.2455  0.1491
  665MOL0     C89669   5.237  10.403   2.560 -0.4447  0.0209 -0.5768
  665MOL0     C89670   5.165  10.477   2.452 -0.1478  0.0923 -0.0504
  665MOL0     O89671   5.233  10.529   2.349 -0.5923 -0.3523  1.0033
  665MOL0     C89672   5.161  10.584   2.245 -0.0971  0.0221  0.5005
  665MOL0     C89673   5.086  10.508   2.156  0.7274  0.5048 -0.1387
  665MOL0     C89674   5.024  10.581   2.061  0.1935  0.4173  0.3642
  665MOL0     C89675   5.043  10.717   2.042  0.8172  0.0533  0.2194
  665MOL0     O89676   5.002  10.769   1.925  0.3764 -0.2612  0.1597
  665MOL0     C89677   4.897  10.871   1.936  0.2520 -0.9801 -1.0915
  665MOL0     C89678   4.827  10.912   1.811  0.0351 -0.5979  0.3616
  665MOL0     C89679   4.894  11.030   1.729  0.2605  0.7444  0.0679
  665MOL0     C89680   5.033  10.995   1.704  0.0354  0.3301  0.1142
  665MOL0     C89681   5.114  11.085   1.615 -1.0006 -0.0032 -0.3244
  665MOL0     C89682   5.258  11.099   1.653  0.5075  0.1913 -0.3576
  665MOL0     C89683   5.337  11.206   1.575  0.9297  0.0976  0.0525
  665MOL0     C89684   5.480  11.203   1.630  0.8389 -0.9353  0.5050
  665MOL0    Cl89685   5.490  11.255   1.801 -0.2359 -0.3651 -0.1991
  665MOL0     C89686   5.103  10.795   2.138  1.1667 -0.0466 -0.1012
  665MOL0     C89687   5.162  10.725   2.239 -0.3679  0.9459  0.0550
  665MOL0     O89688   5.046  10.483   2.468  0.4400  1.1402  0.5240
  665MOL0     C89689   5.180  10.289   2.614  0.7138  0.3082 -1.3075
  665MOL0     C89690   5.236  10.231   2.732  0.0473 -0.1149 -0.0493
  665MOL0     N89691   6.061  10.282   2.873  0.8894  0.3506 -0.0964
  665MOL0     N89692   6.178  10.307   2.920 -0.0925 -0.1906  0.5409
  665MOL0     C89693   7.271  10.656   3.439  1.1485 -0.6443  0.4972
  665MOL0     C89694   7.383  10.697   3.519  0.0132 -0.2270  0.1057
  665MOL0     C89695   7.659  10.991   3.696  0.2593 -0.1669 -0.3844
  665MOL0     C89696   7.627  11.036   3.826  0.7196  0.6220  0.7271
  665MOL0     C89697   7.724  11.091   3.899 -0.0857 -0.6299  0.5184
  665MOL0     C89698   7.852  11.103   3.850 -0.2056  0.9705 -0.3894
  665MOL0     O89699   7.957  11.140   3.935  0.8143 -0.6309  0.0701
  665MOL0     C89700   7.959  11.273   3.988  0.0009  0.1084  0.4363
  665MOL0     C89701   8.101  11.324   3.990 -1.1410 -0.4991 -0.6867
  665MOL0     C89702   8.098  11.481   3.959  0.1166 -0.4416 -0.0463
  665MOL0     C89703   8.204  11.554   4.033 -0.6755 -0.5404  0.1470
  665MOL0     C89704   8.334  11.543   3.960  0.5347 -0.5819  0.7446
  665MOL0     C89705   8.448  11.528   3.914 -0.2520 -0.3871 -0.5338
  665MOL0     C89706   7.890  11.058   3.726 -0.0969 -0.0410 -0.3690
  665MOL0     C89707   7.787  10.998   3.646 -0.6241  0.0512 -0.7338
  665MOL0     H89708   7.226  10.938   3.693  2.9079 -1.5404  2.0843
  665MOL0     H89709   7.029  10.862   3.559  1.1447  0.7671  3.4161
  665MOL0     H89710   6.900  10.677   3.533  1.7111  2.8314 -0.9181
  665MOL0     H89711   6.869  10.763   3.390 -2.0000 -1.1502  0.7425
  665MOL0     H89712   6.867  10.475   3.402 -1.3257 -0.5840 -1.1219
  665MOL0     H89713   6.723  10.579   3.425  0.0575 -0.4358  1.4027
  665MOL0     H89714   6.754  10.689   3.213  1.4161  1.1973  2.3121
  665MOL0     H89715   6.892  10.594   3.172  0.6403  2.0073  1.4528
  665MOL0     H89716   6.728  10.497   3.040 -2.2324  0.2484 -0.5329
  665MOL0     H89717   6.764  10.376   3.171 -0.4157 -1.5819 -3.2154
  665MOL0     H89718   6.577  10.425   3.288  0.7842  0.4979 -0.1066
  665MOL0     H89719   6.525  10.566   3.197 -2.3303 -0.3563 -0.4465
  665MOL0     H89720   6.416  10.435   3.034  1.7319 -2.3549 -5.0730
  665MOL0     H89721   6.557  10.345   3.001 -0.0706  2.7039 -0.9103
  665MOL0     H89722   6.489  10.194   3.198 -0.2868  0.4665  0.2465
  665MOL0     H89723   6.341  10.293   3.216  0.6859 -1.4907  0.8071
  665MOL0     H89724   6.339  10.059   3.069  0.8162  0.8208  0.8482
  665MOL0     H89725   6.424  10.154   2.957 -0.0735 -0.2436 -0.6443
  665MOL0     H89726   6.102  10.015   3.061  1.4590  0.5978  0.8784
  665MOL0     H89727   5.880  10.060   2.788  0.1406  6.5477 -3.9638
  665MOL0     H89728   5.844  10.027   2.971 -0.3628  2.5498  2.2894
  665MOL0     H89729   5.793  10.279   2.827  2.7615 -1.4817  0.9216
  665MOL0     H89730   5.788  10.255   3.007 -1.2228 -2.0052  1.6525
  665MOL0     H89731   5.617  10.059   2.921  0.1781 -0.0403  3.6037
  665MOL0     H89732   5.609  10.159   2.780  1.9422  0.1470  0.4213
  665MOL0     H89733   5.543  10.362   2.972 -0.6432  0.4102  3.0778
  665MOL0     H89734   5.529  10.204   3.058  1.2867 -1.2053 -1.1687
  665MOL0     H89735   5.518  10.407   2.755  0.4916 -2.9903  0.2806
  665MOL0     H89736   5.382  10.646   2.522  0.3080 -0.2724 -1.0366
  665MOL0     H89737   5.525  10.576   2.603  1.1446 -2.6286  0.8178
  665MOL0     H89738   5.486  10.510   2.444  0.3185 -2.4401  1.1417
  665MOL0     H89739   5.070  10.402   2.174 -0.2118  0.8664  1.2819
  665MOL0     H89740   4.992  10.521   1.976 -1.0212  1.8596 -0.2532
  665MOL0     H89741   4.819  10.841   2.007  1.0443  0.0481  0.2466
  665MOL0     H89742   4.952  10.954   1.980  2.3930 -1.4226 -2.7438
  665MOL0     H89743   4.823  10.826   1.743  1.8545 -0.4151 -0.0253
  665MOL0     H89744   4.725  10.947   1.828  0.1715  0.5530 -0.9511
  665MOL0     H89745   4.894  11.128   1.779 -0.0900  1.9455 -2.1557
  665MOL0     H89746   4.844  11.042   1.633 -3.6561  1.3743  1.9820
  665MOL0     H89747   5.092  10.988   1.796 -2.3388  0.8616  1.7913
  665MOL0     H89748   5.036  10.889   1.675 -2.0203 -0.4702  2.4075
  665MOL0     H89749   5.079  11.188   1.626  0.2939  0.1697  3.7441
  665MOL0     H89750   5.103  11.066   1.508 -0.1227  0.2119 -0.4571
  665MOL0     H89751   5.266  11.125   1.759  0.9877 -0.5587 -0.2051
  665MOL0     H89752   5.304  11.001   1.641  0.0197  0.2094 -2.7480
  665MOL0     H89753   5.295  11.302   1.607 -2.2305 -0.4883 -1.9063
  665MOL0     H89754   5.333  11.189   1.467  0.6914  0.1528  0.0514
  665MOL0     H89755   5.533  11.280   1.574 -1.4448 -0.2731 -0.8783
  665MOL0     H89756   5.527  11.105   1.618  0.4065 -1.1165  0.2613
  665MOL0     H89757   5.106  10.903   2.125  1.0514  0.0034  0.2638
  665MOL0     H89758   5.216  10.776   2.318  1.3285  0.1614 -0.5507
  665MOL0     H89759   5.082  10.261   2.577  0.0846  0.7796 -0.0574
  665MOL0     H89760   5.182  10.152   2.783  0.5977 -0.2365  0.3463
  665MOL0     H89761   7.271  10.570   3.373 -1.4197 -1.3863  1.3490
  665MOL0     H89762   7.480  10.649   3.518 -0.6713 -1.6597 -0.4804
  665MOL0     H89763   7.524  11.034   3.859  0.2958  2.2364 -0.3930
  665MOL0     H89764   7.692  11.120   3.999 -1.3124 -3.2836  0.9905
  665MOL0     H89765   7.898  11.338   3.925 -0.7407 -2.7418 -2.0308
  665MOL0     H89766   7.924  11.270   4.091 -3.8324  0.6960 -0.6903
  665MOL0     H89767   8.161  11.278   3.911  0.1051  0.3446 -0.2781
  665MOL0     H89768   8.145  11.299   4.087  0.9037 -0.3495 -1.5317
  665MOL0     H89769   8.005  11.516   4.006 -0.9360 -3.8883  0.6933
  665MOL0     H89770   8.091  11.501   3.852 -2.2833 -1.8659 -0.2458
  665MOL0     H89771   8.224  11.511   4.131 -1.6850 -1.5770 -0.0697
  665MOL0     H89772   8.181  11.659   4.050  0.6672  0.2767 -2.5993
  665MOL0     H89773   8.552  11.520   3.889  0.1122  0.9168  0.4684
  665MOL0     H89774   7.991  11.072   3.689 -0.6715  0.3003 -1.8924
  665MOL0     H89775   7.815  10.967   3.546  2.1404  0.8691 -0.2923
  666MOL0     O89776   1.993   9.819   6.735 -0.1543 -0.4470  0.6258
  666MOL0     C89777   2.069   9.733   6.694 -0.1710  0.8244 -0.4017
  666MOL0     O89778   2.033   9.622   6.631  0.5285  0.2496  0.2681
  666MOL0     C89779   1.943   9.631   6.530 -0.1993 -0.0050  0.8310
  666MOL0     C89780   1.922   9.508   6.471  0.1082 -0.0012  0.4623
  666MOL0     C89781   1.822   9.495   6.361 -0.4200 -0.1272 -0.5772
  666MOL0     C89782   1.751   9.608   6.319  0.5679 -1.0018  1.1395
  666MOL0     O89783   1.660   9.609   6.215  0.3972 -0.0431 -0.8282
  666MOL0     C89784   1.654   9.513   6.114  0.2174 -0.0224 -0.3831
  666MOL0     C89785   1.669   9.580   5.988 -0.2939 -0.0955  0.1772
  666MOL0     C89786   1.819   9.619   5.970  0.4823 -0.2214 -0.9558
  666MOL0     C89787   1.848   9.764   6.024  1.0572  0.8339  0.5572
  666MOL0     C89788   1.998   9.807   6.006 -0.0479 -0.0963  0.0557
  666MOL0     C89789   2.077   9.736   6.106 -0.9773  0.6594 -1.0161
  666MOL0     C89790   2.231   9.768   6.088  0.2546  0.3583  0.5839
  666MOL0     C89791   2.327   9.686   6.179  0.4980  0.7112  0.5443
  666MOL0     N89792   2.302   9.544   6.159 -0.4831 -0.5633 -0.2487
  666MOL0     C89793   2.221   9.469   6.241  0.3380 -0.3764 -0.6478
  666MOL0     C89794   2.219   9.350   6.188  0.4949  0.6354  0.2774
  666MOL0     C89795   2.118   9.253   6.223  0.7972  0.6488 -0.2220
  666MOL0     C89796   1.990   9.271   6.142 -0.1163 -0.1419 -0.0009
  666MOL0     C89797   2.023   9.197   6.007  0.3814 -0.3584  0.0861
  666MOL0     C89798   1.904   9.168   5.917 -0.1464 -0.3307  0.3562
  666MOL0     O89799   1.781   9.132   5.976  0.5216 -0.3126 -0.0792
  666MOL0     C89800   1.664   9.170   5.922 -0.0927  0.2543 -0.2391
  666MOL0     C89801   1.640   9.226   5.800 -1.0140  0.6196 -0.0445
  666MOL0     C89802   1.516   9.261   5.754 -1.3114 -0.7952 -0.0169
  666MOL0     C89803   1.523   9.375   5.647 -0.3238  0.0050 -0.7390
  666MOL0     C89804   1.396   9.233   5.838 -0.4279 -0.6604 -0.1195
  666MOL0     C89805   1.259   9.285   5.804  0.6161  0.8549 -0.1659
  666MOL0     O89806   1.239   9.306   5.668  0.0040  0.8447 -0.7462
  666MOL0     C89807   1.109   9.307   5.628  0.2100 -0.2782 -0.2079
  666MOL0     C89808   0.996   9.236   5.675 -1.2087 -0.1858  0.2634
  666MOL0     C89809   0.873   9.242   5.619 -0.2269 -0.6498  0.1433
  666MOL0     C89810   0.846   9.342   5.523 -0.6910 -0.7970 -1.3296
  666MOL0     O89811   0.717   9.373   5.486  0.5680  0.7096  0.1561
  666MOL0     C89812   0.606   9.301   5.541  0.5989  0.2557 -0.3663
  666MOL0     C89813   0.486   9.380   5.517  0.2340  0.3104 -0.0429
  666MOL0     C89814   0.436   9.363   5.374 -0.6466 -0.0821 -0.4383
  666MOL0     C89815   0.318   9.456   5.338 -0.5822  0.8632 -0.0989
  666MOL0     C89816   0.256   9.410   5.201 -0.9945  0.6779  0.1821
  666MOL0     C89817   0.155   9.501   5.135 -0.4089 -0.6866 -1.1395
  666MOL0     C89818   0.078   9.434   5.019  0.3833 -0.4964 -0.3242
  666MOL0     C89819  -0.048   9.362   5.078  0.3314 -0.0310 -0.7822
  666MOL0    Cl89820  -0.163   9.496   5.128  0.0170 -0.5401 -0.0813
  666MOL0     C89821   0.954   9.410   5.459 -0.3948  0.1558  0.1460
  666MOL0     C89822   1.085   9.391   5.517  0.3874 -0.0904  0.5448
  666MOL0     O89823   1.179   9.307   5.891 -0.4194  0.2978 -0.6647
  666MOL0     C89824   1.415   9.163   5.963  0.3367 -0.9611  0.8803
  666MOL0     C89825   1.548   9.142   6.008  0.2894 -0.3080  0.1559
  666MOL0     N89826   2.290   9.351   6.070 -0.4079  0.6014 -0.5751
  666MOL0     N89827   2.341   9.467   6.053  0.3229 -0.6546  0.6457
  666MOL0     C89828   1.782   9.735   6.378  0.1401  0.2969  0.6865
  666MOL0     C89829   1.866   9.742   6.480  0.8221 -0.1686  0.5305
  666MOL0     C89830   2.223   9.740   6.730  0.5830 -0.1459  0.5267
  666MOL0     C89831   2.262   9.863   6.786 -0.5577 -0.3836 -0.4063
  666MOL0     C89832   2.400   9.891   6.803  0.5760  0.1069 -1.0273
  666MOL0     C89833   2.495   9.790   6.779 -0.6940 -0.2075  0.1994
  666MOL0     O89834   2.625   9.810   6.802  0.3804  0.5119 -0.3634
  666MOL0     C89835   2.721   9.699   6.830  0.5096 -0.3389  0.1694
  666MOL0     C89836   2.846   9.751   6.901 -0.9758 -1.2339  0.1861
  666MOL0     C89837   2.964   9.798   6.798  0.1275 -0.5924 -0.7770
  666MOL0     C89838   2.923   9.932   6.732  0.3837  0.7980  0.1725
  666MOL0     C89839   3.029   9.969   6.636  0.4727 -0.0576  0.3461
  666MOL0     C89840   3.118   9.977   6.552 -1.2540  0.4817  0.9494
  666MOL0     C89841   2.451   9.664   6.725 -0.2111  0.1308  0.3817
  666MOL0     C89842   2.312   9.640   6.707 -0.1174  0.3342  0.0364
  666MOL0     H89843   1.965   9.421   6.519  1.4890 -0.3797 -1.3528
  666MOL0     H89844   1.795   9.393   6.334  1.2820 -1.0572  0.9716
  666MOL0     H89845   1.731   9.437   6.132  1.9474  1.7519 -0.0355
  666MOL0     H89846   1.560   9.455   6.115 -0.9263  1.7572 -0.3481
  666MOL0     H89847   1.644   9.510   5.907 -1.2819  0.2455  0.1717
  666MOL0     H89848   1.603   9.667   5.997  0.6874  0.4753  2.6729
  666MOL0     H89849   1.884   9.543   6.014 -1.1000 -1.4827 -0.7299
  666MOL0     H89850   1.838   9.609   5.863  2.0142  0.2856 -0.7581
  666MOL0     H89851   1.783   9.829   5.965  0.8510 -0.5668 -0.8122
  666MOL0     H89852   1.813   9.774   6.127  1.4974  0.3959  0.7519
  666MOL0     H89853   2.040   9.783   5.908  1.5677  0.4145  0.5850
  666MOL0     H89854   2.005   9.916   6.002 -3.1483  0.1446 -2.8246
  666MOL0     H89855   2.048   9.762   6.208 -0.8829 -1.1957 -0.4749
  666MOL0     H89856   2.062   9.628   6.092  0.7588  0.4210 -1.3330
  666MOL0     H89857   2.249   9.755   5.981  1.8351 -4.7786  1.1655
  666MOL0     H89858   2.259   9.871   6.110  1.6343  0.4454 -1.3529
  666MOL0     H89859   2.318   9.727   6.280  0.9751  1.1165  0.4275
  666MOL0     H89860   2.428   9.719   6.151 -0.7872  4.5153 -0.3268
  666MOL0     H89861   2.168   9.513   6.325  1.9222 -2.4457  1.5756
  666MOL0     H89862   2.152   9.149   6.217 -1.8002 -0.2488 -0.5495
  666MOL0     H89863   2.084   9.261   6.326  1.4353 -1.9054  0.2683
  666MOL0     H89864   1.966   9.377   6.128 -1.3775 -0.7029 -2.9516
  666MOL0     H89865   1.915   9.217   6.199 -0.0187 -0.4181 -0.1344
  666MOL0     H89866   2.058   9.098   6.040 -0.2934 -1.1653 -1.4985
  666MOL0     H89867   2.100   9.253   5.954 -1.0821  0.9736 -0.6793
  666MOL0     H89868   1.924   9.091   5.842 -0.3093  0.5770 -0.6455
  666MOL0     H89869   1.894   9.265   5.867  1.6032  1.1313  2.6780
  666MOL0     H89870   1.731   9.243   5.743 -0.7499  0.5401  0.3483
  666MOL0     H89871   1.474   9.352   5.552  1.6845  5.5353 -3.5333
  666MOL0     H89872   1.467   9.465   5.675  1.7600  0.4104  2.6515
  666MOL0     H89873   1.628   9.395   5.628  0.0174 -2.6460 -2.0460
  666MOL0     H89874   1.011   9.170   5.760 -2.7547 -0.5160  0.3138
  666MOL0     H89875   0.793   9.179   5.657 -2.7237  2.5374  0.6813
  666MOL0     H89876   0.609   9.195   5.512 -1.2046 -0.1363  0.7447
  666MOL0     H89877   0.616   9.306   5.650 -0.2116 -4.2273  0.0935
  666MOL0     H89878   0.407   9.354   5.589  0.4488  0.1813  0.1456
  666MOL0     H89879   0.516   9.484   5.528  1.6603  0.0476 -1.1636
  666MOL0     H89880   0.412   9.257   5.356 -1.1829  0.3386 -2.4911
  666MOL0     H89881   0.516   9.391   5.305 -0.4118  1.1263  0.2946
  666MOL0     H89882   0.247   9.448   5.421  1.1976 -1.5603  1.3098
  666MOL0     H89883   0.369   9.552   5.326  0.0116  0.2919 -2.7458
  666MOL0     H89884   0.199   9.322   5.230  3.2247 -1.6188  2.4396
  666MOL0     H89885   0.329   9.384   5.124 -2.0414 -0.4127 -0.4768
  666MOL0     H89886   0.094   9.537   5.218  1.0435 -1.1434  0.1735
  666MOL0     H89887   0.211   9.587   5.099 -0.6902 -1.1090 -2.6500
  666MOL0     H89888   0.135   9.363   4.958 -0.5005  0.8821 -2.9158
  666MOL0     H89889   0.035   9.506   4.949 -0.4087 -0.8196 -0.1842
  666MOL0     H89890  -0.016   9.292   5.156  2.4598 -0.2173 -1.7713
  666MOL0     H89891  -0.108   9.312   5.001  1.7489 -1.8379 -0.7791
  666MOL0     H89892   0.931   9.471   5.372 -0.7669 -0.8974 -0.5122
  666MOL0     H89893   1.165   9.449   5.471 -1.5914  2.1989 -0.1897
  666MOL0     H89894   1.332   9.142   6.029 -0.8692  0.5794 -0.0644
  666MOL0     H89895   1.553   9.078   6.095  1.2228  0.8617  0.9860
  666MOL0     H89896   1.731   9.825   6.345 -2.6006 -1.6760 -0.8294
  666MOL0     H89897   1.882   9.843   6.518 -0.7895  0.8781 -1.3819
  666MOL0     H89898   2.188   9.941   6.797  0.2344  0.2892  0.2819
  666MOL0     H89899   2.433   9.988   6.840  3.4133  0.0030 -2.9955
  666MOL0     H89900   2.686   9.616   6.892  0.8145 -0.7985 -0.2572
  666MOL0     H89901   2.739   9.661   6.729 -1.9960 -0.9405 -0.1250
  666MOL0     H89902   2.899   9.671   6.952  2.8151 -1.2398 -3.2032
  666MOL0     H89903   2.818   9.835   6.965 -0.9208  0.7811 -2.2672
  666MOL0     H89904   2.987   9.725   6.720 -0.7810 -3.7266  1.6847
  666MOL0     H89905   3.059   9.814   6.850 -0.9505  4.0100  0.1939
  666MOL0     H89906   2.909  10.008   6.809 -0.7327 -1.4071  2.2823
  666MOL0     H89907   2.835   9.912   6.671  0.2630  1.6481  0.0511
  666MOL0     H89908   3.197   9.988   6.480  0.2265  2.1932  2.7035
  666MOL0     H89909   2.523   9.584   6.714  0.4758  0.7438  0.3790
  666MOL0     H89910   2.273   9.553   6.656  2.7534 -0.2440 -1.4029
  667MOL0     O89911   6.785   8.167   0.257  0.0389 -0.2568  0.0133
  667MOL0     C89912   6.853   8.245   0.185  0.5274 -0.5766 -0.9212
  667MOL0     O89913   6.816   8.280   0.059 -0.3788 -0.6251 -0.0898
  667MOL0     C89914   6.717   8.215  -0.017  0.7822 -0.1015  0.2599
  667MOL0     C89915   6.697   8.071  -0.015  0.0765 -0.4493 -0.1861
  667MOL0     C89916   6.603   8.015  -0.090 -0.5894  0.1940 -0.2581
  667MOL0     C89917   6.525   8.085  -0.176  0.0733  0.4009 -0.5104
  667MOL0     O89918   6.425   8.009  -0.229  0.5079 -0.2569 -0.7323
  667MOL0     C89919   6.409   8.008  -0.371 -0.3046  0.1874 -0.3688
  667MOL0     C89920   6.284   8.083  -0.408  0.4062 -0.6273  0.5793
  667MOL0     C89921   6.257   8.065  -0.556  0.4526  0.1702 -1.0815
  667MOL0     C89922   6.145   8.137  -0.620  1.1936 -0.3208 -0.4520
  667MOL0     C89923   6.113   8.071  -0.759 -0.2691 -0.1291 -0.0556
  667MOL0     C89924   5.974   8.116  -0.807  0.1419  0.3809 -0.2581
  667MOL0     C89925   5.849   8.071  -0.724 -0.1953 -0.0374 -1.0659
  667MOL0     C89926   5.719   8.107  -0.792 -0.1451  0.7911 -0.3754
  667MOL0     N89927   5.696   8.249  -0.777  0.3395  0.3038 -0.1298
  667MOL0     C89928   5.688   8.314  -0.660 -0.1112  0.6177 -0.3578
  667MOL0     C89929   5.715   8.445  -0.693 -0.7518 -0.6346 -1.0410
  667MOL0     C89930   5.740   8.553  -0.589 -0.1385  0.2527  0.6213
  667MOL0     C89931   5.839   8.508  -0.483 -0.3892  0.0764  0.5611
  667MOL0     C89932   5.985   8.476  -0.542  0.4586 -0.7515 -0.0237
  667MOL0     C89933   6.080   8.412  -0.441 -0.6164 -0.1021  0.0141
  667MOL0     O89934   6.079   8.480  -0.312  0.4785 -0.2646 -0.1553
  667MOL0     C89935   6.175   8.570  -0.302  0.4277 -0.7562  0.5433
  667MOL0     C89936   6.157   8.706  -0.334 -0.1580 -0.3383  0.1218
  667MOL0     C89937   6.267   8.793  -0.322 -0.5055  0.2225 -0.3130
  667MOL0     C89938   6.250   8.926  -0.389 -0.0245  0.5635  0.3196
  667MOL0     C89939   6.397   8.751  -0.274  0.3012 -0.1281 -0.5402
  667MOL0     C89940   6.523   8.832  -0.270 -0.2514 -0.4192  0.5252
  667MOL0     O89941   6.613   8.787  -0.174  0.2984  0.1336  0.1747
  667MOL0     C89942   6.745   8.829  -0.180  0.2191  0.6472 -0.1677
  667MOL0     C89943   6.811   8.892  -0.283 -0.0158  0.9182 -0.4384
  667MOL0     C89944   6.930   8.956  -0.253 -0.4572  0.0224  1.0738
  667MOL0     C89945   6.983   8.961  -0.126  0.2899  0.6457 -0.5049
  667MOL0     O89946   7.085   9.039  -0.096 -0.4392 -0.1995  0.0243
  667MOL0     C89947   7.210   8.974  -0.076  0.9253  0.2063 -0.2669
  667MOL0     C89948   7.319   9.080  -0.041 -1.0149  0.6470 -0.3643
  667MOL0     C89949   7.348   9.176  -0.152 -0.1514 -0.6370  0.4101
  667MOL0     C89950   7.470   9.265  -0.108 -0.5047  0.5649 -0.3620
  667MOL0     C89951   7.515   9.369  -0.211 -1.2330  0.0406  0.2473
  667MOL0     C89952   7.595   9.468  -0.148 -0.1486  0.4135  0.0102
  667MOL0     C89953   7.734   9.418  -0.123 -0.0053 -0.5027 -0.0408
  667MOL0     C89954   7.816   9.527  -0.061 -0.6763 -0.0900 -0.2134
  667MOL0    Cl89955   7.984   9.476  -0.040 -0.0840  0.0499  0.4709
  667MOL0     C89956   6.930   8.873  -0.034  0.4987  0.8890 -0.7145
  667MOL0     C89957   6.810   8.818  -0.057  0.4422 -1.0295  1.4428
  667MOL0     O89958   6.531   8.935  -0.337 -0.1390 -0.8065 -0.5031
  667MOL0     C89959   6.408   8.613  -0.240 -0.3661 -0.2967  0.6163
  667MOL0     C89960   6.290   8.528  -0.242  0.1492  0.0455  0.1798
  667MOL0     N89961   5.729   8.452  -0.825 -0.1961 -0.5082 -0.5422
  667MOL0     N89962   5.730   8.334  -0.876 -0.6620 -0.0672  0.4256
  667MOL0     C89963   6.544   8.224  -0.191  0.5566 -0.0384 -0.3347
  667MOL0     C89964   6.640   8.290  -0.107 -0.1745 -0.3490  1.1872
  667MOL0     C89965   6.982   8.292   0.242  0.3289  0.4834 -0.3738
  667MOL0     C89966   7.090   8.327   0.165  0.0891 -0.9267  0.4672
  667MOL0     C89967   7.215   8.369   0.221 -0.2711  0.2069 -1.1080
  667MOL0     C89968   7.230   8.357   0.364 -0.4465 -0.5311 -0.1504
  667MOL0     O89969   7.357   8.384   0.406  0.0564  0.3484  0.2957
  667MOL0     C89970   7.394   8.350   0.540 -0.7564  0.4648 -0.7338
  667MOL0     C89971   7.512   8.451   0.573  0.6629  0.0612 -0.4385
  667MOL0     C89972   7.633   8.443   0.491 -0.8674 -0.6663  1.0482
  667MOL0     C89973   7.709   8.314   0.503 -0.4466 -0.3007  0.1901
  667MOL0     C89974   7.727   8.283   0.647 -0.6513  0.2531  0.7180
  667MOL0     C89975   7.745   8.244   0.762  0.6162  0.4484  0.4211
  667MOL0     C89976   7.122   8.321   0.445 -0.7872 -0.7421  0.3413
  667MOL0     C89977   7.000   8.293   0.389 -0.2652 -1.0616 -0.2013
  667MOL0     H89978   6.752   8.018   0.062 -2.7208 -3.1884  0.1098
  667MOL0     H89979   6.604   7.908  -0.074 -0.5557 -0.1643 -2.3270
  667MOL0     H89980   6.498   8.048  -0.421  0.3253  1.0938  1.3840
  667MOL0     H89981   6.396   7.901  -0.392 -0.1668  0.2818 -0.9294
  667MOL0     H89982   6.201   8.030  -0.359 -1.0947  2.0853  1.2083
  667MOL0     H89983   6.293   8.191  -0.392 -1.8861 -0.2790 -0.0658
  667MOL0     H89984   6.346   8.090  -0.613  0.3884 -0.2303 -1.3548
  667MOL0     H89985   6.247   7.958  -0.573  3.4508 -0.0845 -1.6559
  667MOL0     H89986   6.056   8.135  -0.557  1.7795 -1.2308  0.3682
  667MOL0     H89987   6.184   8.236  -0.646  1.5266  0.3809  2.4320
  667MOL0     H89988   6.190   8.101  -0.831 -0.9148 -1.2871 -1.2610
  667MOL0     H89989   6.119   7.962  -0.758  1.1483 -0.1193 -1.8719
  667MOL0     H89990   5.963   8.223  -0.823 -2.4014  0.3405  0.7001
  667MOL0     H89991   5.955   8.063  -0.902  2.0649 -0.5969 -0.1578
  667MOL0     H89992   5.843   7.962  -0.722 -1.4857  0.0072 -1.5539
  667MOL0     H89993   5.860   8.113  -0.623 -1.7948 -2.6708  0.3229
  667MOL0     H89994   5.638   8.040  -0.765  0.8311 -0.2649  0.0245
  667MOL0     H89995   5.717   8.075  -0.897 -2.1349  1.4924 -0.5854
  667MOL0     H89996   5.674   8.277  -0.559  2.7529 -1.4566 -0.6206
  667MOL0     H89997   5.769   8.648  -0.636 -2.5125 -0.0017 -1.5803
  667MOL0     H89998   5.643   8.585  -0.548  0.1490  0.4844  1.1334
  667MOL0     H89999   5.810   8.413  -0.437 -1.3808 -0.6252 -1.4038
  667MOL0     H90000   5.850   8.590  -0.411  2.1104 -1.0525  1.5813
  667MOL0     H90001   6.035   8.564  -0.583  3.2256 -2.0592  0.3319
  667MOL0     H90002   5.985   8.402  -0.622  2.7836 -0.1763 -0.6210
  667MOL0     H90003   6.179   8.397  -0.484 -0.6797 -0.1235 -0.1227
  667MOL0     H90004   6.049   8.308  -0.426  0.0462 -0.2292  0.5652
  667MOL0     H90005   6.063   8.732  -0.380 -0.6017 -0.5079  0.9105
  667MOL0     H90006   6.294   8.925  -0.489  1.4631  0.6043  0.9496
  667MOL0     H90007   6.145   8.956  -0.393 -0.7190 -1.5470  1.3182
  667MOL0     H90008   6.300   9.006  -0.334  1.9168  0.2891 -0.9333
  667MOL0     H90009   6.771   8.900  -0.384  2.1461  1.4163 -1.3112
  667MOL0     H90010   6.980   9.007  -0.335 -0.3340  0.7925  1.6247
  667MOL0     H90011   7.216   8.908   0.010 -1.0447  2.8718  2.1264
  667MOL0     H90012   7.243   8.925  -0.168  2.2028 -0.5933  0.5794
  667MOL0     H90013   7.283   9.131   0.050  1.1421  2.0611 -0.2401
  667MOL0     H90014   7.412   9.038  -0.003 -0.9620  1.5968  0.5927
  667MOL0     H90015   7.266   9.247  -0.163  0.0591 -0.5784 -0.8427
  667MOL0     H90016   7.361   9.129  -0.250  0.5824 -1.6126  0.9558
  667MOL0     H90017   7.450   9.323  -0.017 -0.3460 -2.5310  1.8012
  667MOL0     H90018   7.554   9.199  -0.084 -0.8102  0.5404  0.7025
  667MOL0     H90019   7.426   9.415  -0.256 -1.2221 -2.4691 -2.7226
  667MOL0     H90020   7.581   9.318  -0.281  0.5158  0.5885  1.4392
  667MOL0     H90021   7.589   9.549  -0.221 -2.1511 -3.5136 -4.8262
  667MOL0     H90022   7.534   9.493  -0.061 -0.4005 -1.2079  0.3267
  667MOL0     H90023   7.774   9.377  -0.217  3.1137 -0.2129  1.0251
  667MOL0     H90024   7.735   9.339  -0.049 -1.3495  0.4232  1.0023
  667MOL0     H90025   7.784   9.556   0.040  1.6281  1.4074  0.1714
  667MOL0     H90026   7.811   9.620  -0.118 -0.4074 -0.5122 -0.9350
  667MOL0     H90027   6.963   8.864   0.069 -2.3994  1.3540  0.3626
  667MOL0     H90028   6.758   8.776   0.029  0.6275 -0.4325  1.8488
  667MOL0     H90029   6.495   8.561  -0.203  1.1247  2.3803  1.1536
  667MOL0     H90030   6.294   8.425  -0.206 -2.8762 -0.9025 -1.8331
  667MOL0     H90031   6.477   8.280  -0.257 -2.3309 -2.5249  0.2683
  667MOL0     H90032   6.646   8.398  -0.119 -1.2967 -0.3316  0.6955
  667MOL0     H90033   7.080   8.317   0.058 -0.6956  0.6603  0.3691
  667MOL0     H90034   7.307   8.397   0.170 -0.4745  1.8603 -0.6338
  667MOL0     H90035   7.316   8.368   0.614 -1.1164  0.6934 -1.1664
  667MOL0     H90036   7.433   8.248   0.542 -0.7587  0.4506 -1.2486
  667MOL0     H90037   7.526   8.449   0.681  0.8081  0.1510 -0.4558
  667MOL0     H90038   7.475   8.550   0.543  0.5980  0.1368 -0.1145
  667MOL0     H90039   7.703   8.522   0.521 -0.8807  0.0381 -0.6987
  667MOL0     H90040   7.613   8.466   0.386  2.4909 -0.4614  0.3357
  667MOL0     H90041   7.808   8.323   0.458 -0.9104  1.7312 -0.5294
  667MOL0     H90042   7.675   8.220   0.458  2.8122 -1.3667 -0.3266
  667MOL0     H90043   7.767   8.199   0.857 -1.1914 -0.0225  0.6450
  667MOL0     H90044   7.125   8.311   0.553 -3.7378  0.8681  0.6792
  667MOL0     H90045   6.912   8.276   0.451 -1.7569  0.0533 -1.9344
  668MOL0     O90046   3.311   8.466   7.115  0.2789 -0.0713  0.6771
  668MOL0     C90047   3.367   8.365   7.075 -0.6514  0.7536 -0.7408
  668MOL0     O90048   3.396   8.250   7.155 -0.1657  1.0748 -0.3635
  668MOL0     C90049   3.378   8.235   7.290  0.3612  0.0505  0.2468
  668MOL0     C90050   3.263   8.288   7.364 -0.2302  0.1159 -0.2542
  668MOL0     C90051   3.230   8.271   7.494  0.1562  0.1935  0.9395
  668MOL0     C90052   3.314   8.183   7.566 -0.1962  0.1659  0.8606
  668MOL0     O90053   3.290   8.150   7.698 -0.1057 -0.6825 -0.3442
  668MOL0     C90054   3.192   8.227   7.773 -0.5250 -0.2299  0.2679
  668MOL0     C90055   3.207   8.178   7.914  0.0088 -0.1008  0.8708
  668MOL0     C90056   3.114   8.249   8.006 -0.5545  0.0844  0.5673
  668MOL0     C90057   3.180   8.270   8.148 -0.7187 -0.1190  0.5191
  668MOL0     C90058   3.189   8.132   8.207 -0.5579  1.5353  0.0230
  668MOL0     C90059   3.244   8.136   8.352  0.6321  0.1920 -0.3875
  668MOL0     C90060   3.308   8.000   8.383 -0.2935  0.6682 -0.6899
  668MOL0     C90061   3.401   8.005   8.506  0.6847 -0.1963  0.0842
  668MOL0     N90062   3.354   8.099   8.617  0.2018 -0.3742 -0.5531
  668MOL0     C90063   3.243   8.090   8.696  0.4210 -0.5797  1.1465
  668MOL0     C90064   3.258   8.185   8.792 -1.0963 -0.0784 -0.7501
  668MOL0     C90065   3.167   8.201   8.910 -0.7189  0.3257 -0.9030
  668MOL0     C90066   3.223   8.135   9.037 -0.1593 -0.7767  0.7530
  668MOL0     C90067   3.355   8.207   9.069  0.6296 -0.4452  0.6141
  668MOL0     C90068   3.411   8.181   9.206 -0.3096  0.7741 -0.1669
  668MOL0     O90069   3.315   8.231   9.302 -0.2384  0.6810  0.1820
  668MOL0     C90070   3.339   8.194   9.434 -0.8850 -0.1677 -0.4090
  668MOL0     C90071   3.250   8.249   9.528 -0.7908  0.6188  0.2343
  668MOL0     C90072   3.276   8.255   9.670  0.4805  0.2637  0.1795
  668MOL0     C90073   3.163   8.323   9.754 -0.4777  0.7263 -0.3985
  668MOL0     C90074   3.399   8.202   9.715  0.0445  0.7330  0.5353
  668MOL0     C90075   3.447   8.234   9.851  0.5469 -0.4136 -1.0938
  668MOL0     O90076   3.566   8.174   9.886  0.8417 -0.1180  0.6466
  668MOL0     C90077   3.626   8.200  10.013 -0.2861  0.6924  1.0702
  668MOL0     C90078   3.549   8.188  10.127  0.5647 -1.0720 -0.5836
  668MOL0     C90079   3.611   8.225  10.247 -0.4418  0.2493 -0.3804
  668MOL0     C90080   3.744   8.249  10.263 -0.4258  0.2902 -0.2089
  668MOL0     O90081   3.807   8.291  10.385  0.2625 -0.6521  0.1789
  668MOL0     C90082   3.720   8.355  10.484  0.5718  0.3852  0.3959
  668MOL0     C90083   3.813   8.402  10.597 -0.2664 -0.0766  0.6151
  668MOL0     C90084   3.918   8.502  10.544  0.7559 -0.0319 -0.0873
  668MOL0     C90085   4.062   8.436  10.537  0.3677  0.2665 -0.3256
  668MOL0     C90086   4.167   8.521  10.470  0.2788 -0.7073 -0.1565
  668MOL0     C90087   4.271   8.444  10.382  0.1091 -0.3864 -0.2175
  668MOL0     C90088   4.385   8.536  10.347  0.1366 -0.3577 -0.3799
  668MOL0     C90089   4.335   8.674  10.289  0.0336 -1.1129  0.1895
  668MOL0    Cl90090   4.473   8.764  10.218  0.1621 -0.7357 -0.3971
  668MOL0     C90091   3.825   8.250  10.150  0.2537 -0.0810  0.8470
  668MOL0     C90092   3.768   8.222  10.024 -0.3520 -0.4791 -0.5022
  668MOL0     O90093   3.393   8.327   9.915 -0.1346 -0.1776 -0.3231
  668MOL0     C90094   3.483   8.133   9.620  0.5433 -0.4962 -0.4127
  668MOL0     C90095   3.459   8.136   9.488 -0.4786 -0.0111 -0.1854
  668MOL0     N90096   3.375   8.246   8.776 -0.2263  0.1099  0.2311
  668MOL0     N90097   3.433   8.199   8.668 -0.4640  1.0578 -0.4062
  668MOL0     C90098   3.429   8.127   7.505 -0.6317 -0.4281  0.1340
  668MOL0     C90099   3.462   8.154   7.373  0.9054 -0.6302  0.4130
  668MOL0     C90100   3.404   8.362   6.944 -0.2540 -0.7411 -0.1958
  668MOL0     C90101   3.395   8.484   6.864  0.0674  0.6809  0.4594
  668MOL0     C90102   3.451   8.487   6.734 -0.4885  0.1496 -0.4882
  668MOL0     C90103   3.531   8.378   6.695  1.6480  0.0573  0.6160
  668MOL0     O90104   3.596   8.396   6.571  0.1394 -0.1355 -0.0018
  668MOL0     C90105   3.673   8.286   6.518  0.1240 -0.0165  0.7449
  668MOL0     C90106   3.702   8.316   6.369  0.5566  0.2730  0.3332
  668MOL0     C90107   3.818   8.230   6.320 -0.2600  0.4205  0.6947
  668MOL0     C90108   3.878   8.258   6.182 -0.3187 -0.2074  0.1151
  668MOL0     C90109   3.957   8.141   6.136 -0.3686 -0.2288  0.7741
  668MOL0     C90110   4.033   8.049   6.110 -0.1018  0.5014 -0.8527
  668MOL0     C90111   3.532   8.267   6.775  0.3710  0.2563  1.2315
  668MOL0     C90112   3.465   8.257   6.890 -0.0241 -0.3415 -0.8766
  668MOL0     H90113   3.194   8.353   7.311  0.4997 -0.2245 -1.6686
  668MOL0     H90114   3.136   8.309   7.533 -1.7047 -2.6734 -0.3598
  668MOL0     H90115   3.227   8.330   7.776  0.4942 -0.4963 -1.2879
  668MOL0     H90116   3.093   8.231   7.727 -0.3647  1.6263  0.0139
  668MOL0     H90117   3.186   8.071   7.922 -2.5397  0.1998 -0.8020
  668MOL0     H90118   3.308   8.204   7.947 -0.1318 -1.6543  2.6764
  668MOL0     H90119   3.085   8.343   7.959 -0.0473  0.5800  1.2209
  668MOL0     H90120   3.022   8.193   8.025  0.0268 -1.9919 -2.0924
  668MOL0     H90121   3.271   8.330   8.144  0.0269 -1.2474  0.2167
  668MOL0     H90122   3.109   8.338   8.197 -1.6735 -1.0256  0.4383
  668MOL0     H90123   3.090   8.087   8.222  1.0656 -1.6186  2.6481
  668MOL0     H90124   3.244   8.064   8.142 -2.1179  0.8061 -0.5757
  668MOL0     H90125   3.319   8.215   8.362  0.0710  0.5585  1.2237
  668MOL0     H90126   3.168   8.156   8.427  1.2529  1.6061 -0.1132
  668MOL0     H90127   3.222   7.936   8.407  1.9092 -1.8176  1.0744
  668MOL0     H90128   3.353   7.947   8.298  1.0778 -0.9123  0.9434
  668MOL0     H90129   3.500   8.040   8.476  0.6685  1.2336  1.5456
  668MOL0     H90130   3.420   7.907   8.550  0.2890  2.0267  6.0963
  668MOL0     H90131   3.167   8.014   8.683 -2.2659  1.9240  1.1278
  668MOL0     H90132   3.153   8.308   8.931 -1.0569  0.2383 -0.6807
  668MOL0     H90133   3.076   8.146   8.885 -1.1272  0.3902  0.3674
  668MOL0     H90134   3.224   8.027   9.026 -0.2272 -1.0038  2.6279
  668MOL0     H90135   3.157   8.146   9.124 -2.2015  0.2442 -0.8369
  668MOL0     H90136   3.349   8.315   9.053 -0.9960 -0.1506  2.7225
  668MOL0     H90137   3.435   8.166   9.008  1.3045 -0.1973  1.3241
  668MOL0     H90138   3.506   8.235   9.213  0.2564  0.0457 -1.6358
  668MOL0     H90139   3.437   8.077   9.226  0.0148  1.2253  2.0232
  668MOL0     H90140   3.167   8.302   9.484 -0.6950  0.4367 -0.1671
  668MOL0     H90141   3.145   8.273   9.850  0.4226 -0.4292 -0.7949
  668MOL0     H90142   3.201   8.423   9.773  1.3585 -0.3493  2.2528
  668MOL0     H90143   3.071   8.326   9.695 -0.8089  0.7619  0.1172
  668MOL0     H90144   3.441   8.177  10.117  0.5378 -2.2817  0.7653
  668MOL0     H90145   3.553   8.239  10.338 -0.7564 -1.3827 -0.2980
  668MOL0     H90146   3.659   8.438  10.448 -0.7280  0.0272  1.6613
  668MOL0     H90147   3.648   8.285  10.527  0.0197  1.1839  0.7872
  668MOL0     H90148   3.757   8.449  10.678  0.9372  1.1389  0.7769
  668MOL0     H90149   3.871   8.321  10.642 -1.7294 -1.0671  0.7883
  668MOL0     H90150   3.922   8.593  10.605  3.1384  0.2029 -0.4996
  668MOL0     H90151   3.906   8.549  10.446  0.5175 -2.6504 -1.4129
  668MOL0     H90152   4.079   8.397  10.637 -3.0513  1.2772  0.7594
  668MOL0     H90153   4.063   8.346  10.475 -0.8559  0.8020 -1.1787
  668MOL0     H90154   4.231   8.566  10.546  1.5190 -0.9071 -1.0468
  668MOL0     H90155   4.114   8.599  10.416 -1.9658 -0.3018  2.4157
  668MOL0     H90156   4.322   8.368  10.442  2.3604  2.9165  2.3810
  668MOL0     H90157   4.223   8.391  10.299  1.2544 -3.7991  1.1242
  668MOL0     H90158   4.439   8.492  10.263 -0.3606 -0.6450 -0.5575
  668MOL0     H90159   4.456   8.559  10.426  1.4037  0.2124 -1.6458
  668MOL0     H90160   4.305   8.740  10.371  2.4510 -0.7784  0.8965
  668MOL0     H90161   4.254   8.651  10.219  2.6084 -2.3843 -2.5656
  668MOL0     H90162   3.930   8.269  10.170  0.2098  2.5118 -0.9833
  668MOL0     H90163   3.822   8.202   9.932 -0.0214 -3.6303  0.2702
  668MOL0     H90164   3.573   8.091   9.664  0.3917  1.5945  2.1390
  668MOL0     H90165   3.537   8.101   9.421 -0.4424 -1.4864  0.5894
  668MOL0     H90166   3.502   8.063   7.553  0.6657  1.1220  0.3155
  668MOL0     H90167   3.552   8.112   7.330  2.3111  2.4636  0.0784
  668MOL0     H90168   3.340   8.570   6.902 -0.9706 -0.2966  1.2328
  668MOL0     H90169   3.441   8.584   6.688 -0.1419  2.5029  3.8252
  668MOL0     H90170   3.763   8.271   6.578  1.3933  0.0348 -1.0509
  668MOL0     H90171   3.600   8.205   6.516  0.3713 -0.2423 -1.2921
  668MOL0     H90172   3.746   8.416   6.364  3.5884 -1.0119 -2.0219
  668MOL0     H90173   3.611   8.291   6.313  0.7600  0.6933 -0.1937
  668MOL0     H90174   3.784   8.126   6.323 -0.3751  0.4701  1.1817
  668MOL0     H90175   3.896   8.222   6.397 -0.3180 -0.0415  0.7120
  668MOL0     H90176   3.939   8.347   6.200 -1.0097  1.3164 -4.0721
  668MOL0     H90177   3.803   8.286   6.108 -0.1139  4.2973  1.3583
  668MOL0     H90178   4.086   7.963   6.076 -2.6209 -1.4410 -0.1680
  668MOL0     H90179   3.589   8.181   6.741 -0.1469  0.5317 -0.4043
  668MOL0     H90180   3.487   8.169   6.949  2.6962  0.9867  0.3053
  669MOL0     O90181   5.387   3.753   7.238  0.4215  0.3905 -0.2838
  669MOL0     C90182   5.473   3.817   7.307  0.0479  0.7357 -0.0672
  669MOL0     O90183   5.492   3.954   7.300  0.0808  0.4332 -0.8256
  669MOL0     C90184   5.423   4.037   7.217  0.1985 -0.3665  0.6127
  669MOL0     C90185   5.311   4.099   7.276  0.5665 -0.1758  0.0541
  669MOL0     C90186   5.221   4.172   7.197  0.0836  0.1664  0.2206
  669MOL0     C90187   5.247   4.191   7.056 -0.3961  0.0156  0.0164
  669MOL0     O90188   5.152   4.264   6.991  0.1430  0.1546 -0.4616
  669MOL0     C90189   5.149   4.307   6.857 -0.0317  0.2771  0.5293
  669MOL0     C90190   5.042   4.411   6.842 -0.3265 -0.7765 -0.0474
  669MOL0     C90191   4.909   4.338   6.839  0.3019 -0.2627  0.8875
  669MOL0     C90192   4.855   4.294   6.976  0.8260 -0.1343  0.1082
  669MOL0     C90193   4.697   4.265   6.964  0.0516  1.1036  0.2213
  669MOL0     C90194   4.634   4.153   6.872  0.1049  0.5112 -0.0007
  669MOL0     C90195   4.688   4.014   6.895  0.1706  0.0859  0.6663
  669MOL0     C90196   4.605   3.912   6.811  0.1736  0.6395 -0.4264
  669MOL0     N90197   4.659   3.769   6.803  0.3733 -0.2080 -0.3524
  669MOL0     C90198   4.700   3.685   6.906  1.0942  0.3372  0.6307
  669MOL0     C90199   4.726   3.572   6.837 -0.5456 -0.0540 -0.1348
  669MOL0     C90200   4.782   3.442   6.879  0.2959 -0.6023  0.0142
  669MOL0     C90201   4.932   3.431   6.879 -0.2831  1.2320 -0.6071
  669MOL0     C90202   4.971   3.298   6.939  0.4914 -0.0806 -0.0840
  669MOL0     C90203   5.125   3.272   6.935 -0.1185  0.1266  0.0798
  669MOL0     O90204   5.158   3.243   6.794  0.3508  0.3521  0.0334
  669MOL0     C90205   5.275   3.182   6.758  0.7905 -0.1303  0.9893
  669MOL0     C90206   5.292   3.121   6.627  0.9207 -0.5671 -0.6111
  669MOL0     C90207   5.411   3.059   6.594  0.2925 -0.5745  0.1045
  669MOL0     C90208   5.417   3.012   6.448  0.0256 -0.3339  0.0967
  669MOL0     C90209   5.517   3.051   6.686 -0.2088  0.2613  0.7298
  669MOL0     C90210   5.648   2.982   6.656  0.8548 -0.7427 -0.5804
  669MOL0     O90211   5.714   2.949   6.770 -0.7204  0.0244  0.5553
  669MOL0     C90212   5.818   2.871   6.762 -0.7210  0.1584 -0.6055
  669MOL0     C90213   5.952   2.924   6.750  0.9893  0.2784  0.3952
  669MOL0     C90214   6.060   2.828   6.742 -0.2255 -1.2988  0.4194
  669MOL0     C90215   6.040   2.691   6.766 -0.5031  0.5346 -1.0014
  669MOL0     O90216   6.151   2.618   6.764  0.2623 -0.4171  0.2062
  669MOL0     C90217   6.139   2.482   6.728  0.6444  0.1446 -0.0973
  669MOL0     C90218   6.277   2.432   6.720 -0.3122  0.0332  0.9721
  669MOL0     C90219   6.370   2.514   6.623  0.0116  0.1636 -0.2289
  669MOL0     C90220   6.524   2.485   6.650  0.0489  0.0442  0.2697
  669MOL0     C90221   6.590   2.428   6.527 -0.6869  1.1877  0.1147
  669MOL0     C90222   6.747   2.439   6.539  0.4605 -0.1321 -0.0467
  669MOL0     C90223   6.814   2.375   6.659  0.6413  1.3744  0.0990
  669MOL0     C90224   6.767   2.227   6.687 -0.4374 -0.4890 -1.0310
  669MOL0    Cl90225   6.821   2.184   6.858  0.1661 -0.3615 -0.1126
  669MOL0     C90226   5.911   2.647   6.808  0.0396 -0.5572  0.2512
  669MOL0     C90227   5.804   2.740   6.806 -0.2061 -0.3538  0.3245
  669MOL0     O90228   5.681   2.953   6.545  0.0617 -0.5727 -0.1340
  669MOL0     C90229   5.500   3.110   6.809  1.2774 -0.7833 -0.7718
  669MOL0     C90230   5.379   3.177   6.849  0.5891 -0.3068 -0.6888
  669MOL0     N90231   4.694   3.587   6.694 -0.4333  0.8143 -0.1416
  669MOL0     N90232   4.663   3.709   6.679 -0.2983  0.5736  0.0421
  669MOL0     C90233   5.370   4.146   6.996 -0.3281  0.0250 -1.4455
  669MOL0     C90234   5.456   4.066   7.079  0.2301 -0.3601 -1.1511
  669MOL0     C90235   5.577   3.744   7.379 -0.2515  0.6008 -0.2220
  669MOL0     C90236   5.579   3.600   7.386  0.0772  0.3715  0.3034
  669MOL0     C90237   5.664   3.526   7.476 -0.0466 -0.4580 -0.1235
  669MOL0     C90238   5.759   3.593   7.548  0.4281 -0.0054  0.1747
  669MOL0     O90239   5.815   3.515   7.646 -0.1429 -0.4615  0.0411
  669MOL0     C90240   5.901   3.570   7.744 -0.4042 -0.4408  0.8410
  669MOL0     C90241   5.910   3.494   7.873  0.2390 -0.6023  0.0405
  669MOL0     C90242   5.951   3.345   7.847  0.3650 -0.3830 -0.3807
  669MOL0     C90243   6.076   3.326   7.765  0.3490  0.2775  0.2322
  669MOL0     C90244   6.189   3.384   7.844 -0.1492 -0.7308  0.7158
  669MOL0     C90245   6.283   3.431   7.909  0.4875  0.7131 -0.3913
  669MOL0     C90246   5.769   3.735   7.529  0.0053 -0.3864 -0.5007
  669MOL0     C90247   5.676   3.808   7.446 -0.1452  0.5647 -0.0198
  669MOL0     H90248   5.282   4.084   7.380 -0.4543  0.3257 -0.1414
  669MOL0     H90249   5.127   4.205   7.240 -0.2704 -2.0810  1.3217
  669MOL0     H90250   5.243   4.351   6.820 -1.0854  0.3743 -2.3186
  669MOL0     H90251   5.130   4.226   6.785 -0.4490 -1.3954  2.4465
  669MOL0     H90252   5.042   4.482   6.926 -1.2323  1.7979 -2.0715
  669MOL0     H90253   5.064   4.475   6.756  0.0296 -0.3855  0.3254
  669MOL0     H90254   4.832   4.396   6.788  0.9860 -1.6092 -1.8498
  669MOL0     H90255   4.924   4.248   6.778  0.1360  0.3961 -0.1387
  669MOL0     H90256   4.910   4.205   7.008  1.1134  0.1557  0.4182
  669MOL0     H90257   4.868   4.372   7.051 -0.6989  0.7456 -0.4971
  669MOL0     H90258   4.660   4.229   7.060  1.7099 -0.1549  0.4340
  669MOL0     H90259   4.637   4.356   6.953 -0.4892  0.7898  0.5256
  669MOL0     H90260   4.525   4.158   6.874  0.0376 -0.3038 -1.0490
  669MOL0     H90261   4.673   4.188   6.776  0.4054 -0.5242 -0.2725
  669MOL0     H90262   4.792   4.017   6.860 -1.3455 -2.1037 -5.2210
  669MOL0     H90263   4.682   3.983   7.000 -4.2448 -0.1140  0.5368
  669MOL0     H90264   4.605   3.944   6.706 -0.9161  2.1351  0.0001
  669MOL0     H90265   4.501   3.909   6.845 -0.5527  1.4619 -2.4409
  669MOL0     H90266   4.722   3.705   7.010  0.3087  1.5049  0.5907
  669MOL0     H90267   4.751   3.424   6.983  0.4112 -0.3853  0.0879
  669MOL0     H90268   4.734   3.361   6.825 -0.8075 -0.7471  1.1471
  669MOL0     H90269   4.992   3.501   6.938  0.9362 -1.0825  1.0130
  669MOL0     H90270   4.971   3.435   6.777 -0.1428  0.6986 -0.5774
  669MOL0     H90271   4.923   3.212   6.892  0.1550 -0.3970  0.8131
  669MOL0     H90272   4.938   3.282   7.042  1.3511 -0.4274  0.1447
  669MOL0     H90273   5.143   3.185   7.000  1.3071 -2.6785 -3.7069
  669MOL0     H90274   5.182   3.358   6.971 -0.4654  0.5573 -0.3976
  669MOL0     H90275   5.212   3.112   6.554  0.0539  3.2613 -0.3067
  669MOL0     H90276   5.316   3.014   6.405  0.0111  3.0347  0.0232
  669MOL0     H90277   5.466   3.073   6.371  0.4941  0.1525  0.7680
  669MOL0     H90278   5.454   2.910   6.446 -0.4038 -0.5280  1.3555
  669MOL0     H90279   5.935   3.029   6.726  1.3835  0.1388 -0.5542
  669MOL0     H90280   6.161   2.854   6.714 -0.3002 -3.7233 -2.6085
  669MOL0     H90281   6.093   2.420   6.805  1.2889 -0.7717 -0.4323
  669MOL0     H90282   6.098   2.462   6.628  2.8629 -0.4272 -0.9465
  669MOL0     H90283   6.315   2.458   6.819 -1.2660  2.2878  0.8034
  669MOL0     H90284   6.279   2.323   6.710  0.1269  0.1887 -1.2491
  669MOL0     H90285   6.360   2.623   6.627 -0.4019  0.2936 -2.7666
  669MOL0     H90286   6.350   2.473   6.523  0.3761  0.2922 -0.3544
  669MOL0     H90287   6.573   2.581   6.668  1.5660 -0.7457  0.5398
  669MOL0     H90288   6.552   2.428   6.739  0.3420  3.0790  2.3030
  669MOL0     H90289   6.570   2.498   6.445  0.2161  0.2057 -0.9896
  669MOL0     H90290   6.556   2.326   6.507 -0.1550  1.2017 -0.9961
  669MOL0     H90291   6.799   2.417   6.445 -0.6204  0.7469 -0.8826
  669MOL0     H90292   6.779   2.544   6.545  1.1826 -0.4236  3.1731
  669MOL0     H90293   6.799   2.433   6.750  2.3870  2.0281  0.0149
  669MOL0     H90294   6.922   2.381   6.643  0.8736  0.2713  1.0629
  669MOL0     H90295   6.807   2.159   6.611 -2.3648 -2.8026 -0.1226
  669MOL0     H90296   6.659   2.214   6.674 -0.0250 -1.8978 -4.0092
  669MOL0     H90297   5.898   2.548   6.848  0.8932 -0.5701  0.4997
  669MOL0     H90298   5.708   2.709   6.845 -0.5285  0.1679 -0.0310
  669MOL0     H90299   5.581   3.112   6.882  0.2973  2.7071  0.4552
  669MOL0     H90300   5.373   3.196   6.956 -3.3812 -1.1562 -0.6112
  669MOL0     H90301   5.385   4.164   6.890  1.8350 -0.2254 -1.2227
  669MOL0     H90302   5.555   4.037   7.043  0.4251 -0.3840 -0.6013
  669MOL0     H90303   5.502   3.545   7.332  2.2181 -0.0965 -2.4977
  669MOL0     H90304   5.646   3.421   7.496 -0.5478  0.0501  2.3523
  669MOL0     H90305   5.999   3.587   7.698 -1.4933  1.4100 -0.9876
  669MOL0     H90306   5.863   3.669   7.770  3.5484  1.4210  0.1755
  669MOL0     H90307   5.812   3.495   7.921 -0.3621 -2.5304 -1.0458
  669MOL0     H90308   5.975   3.546   7.944  0.4284 -1.7012  0.7012
  669MOL0     H90309   5.876   3.280   7.802 -1.4790  2.5661 -1.9084
  669MOL0     H90310   5.985   3.294   7.938  1.9782  0.0291 -0.7128
  669MOL0     H90311   6.069   3.369   7.664 -0.0482 -0.7021 -0.1652
  669MOL0     H90312   6.096   3.219   7.757 -1.6990 -0.2804  1.9558
  669MOL0     H90313   6.368   3.475   7.958 -1.6878  2.9658  1.6347
  669MOL0     H90314   5.834   3.799   7.588  0.7796 -0.9950 -0.6661
  669MOL0     H90315   5.674   3.916   7.441  0.1764  0.5155 -1.3484
  670MOL0     O90316   1.881   3.331   9.968 -0.1428  0.0916  0.1306
  670MOL0     C90317   1.959   3.427   9.978  0.1769  0.9485  0.3271
  670MOL0     O90318   1.924   3.561   9.971  0.8098 -0.1683 -0.3474
  670MOL0     C90319   1.796   3.591  10.004  0.3635 -1.1966 -0.5251
  670MOL0     C90320   1.729   3.591  10.130 -1.2364 -0.0438  0.1116
  670MOL0     C90321   1.592   3.623  10.155  0.2218 -0.3968  0.5713
  670MOL0     C90322   1.514   3.662  10.047  0.2016 -0.2404  0.9821
  670MOL0     O90323   1.385   3.699  10.065 -0.3889 -0.5382  0.2142
  670MOL0     C90324   1.308   3.602  10.134  0.0085  0.1032 -0.5889
  670MOL0     C90325   1.160   3.623  10.092 -0.2889  0.5997  0.0375
  670MOL0     C90326   1.087   3.734  10.166  1.0709  0.1005 -0.0412
  670MOL0     C90327   0.934   3.720  10.142 -1.1368  0.6824  0.7510
  670MOL0     C90328   0.850   3.819  10.213  0.1650  0.4276 -0.6951
  670MOL0     C90329   0.866   3.965  10.177  0.3131 -1.2997 -0.6000
  670MOL0     C90330   0.754   4.035  10.238  0.5758 -0.5430  0.0609
  670MOL0     C90331   0.768   4.036  10.398 -0.4213 -0.2786 -0.0972
  670MOL0     N90332   0.681   4.140  10.442 -0.1860 -0.5123  0.3563
  670MOL0     C90333   0.708   4.279  10.432 -0.5539 -0.0700 -0.8204
  670MOL0     C90334   0.602   4.342  10.474  0.3024  0.5727  0.4644
  670MOL0     C90335   0.589   4.490  10.469 -0.9509 -0.2253  0.2239
  670MOL0     C90336   0.520   4.550  10.584 -0.2682  0.0629 -0.4417
  670MOL0     C90337   0.496   4.703  10.575 -0.5061 -0.3193  0.6595
  670MOL0     C90338   0.440   4.754  10.436 -0.1035 -0.3330 -0.4929
  670MOL0     O90339   0.421   4.894  10.446  0.0980  0.8177 -0.0571
  670MOL0     C90340   0.305   4.940  10.506 -0.5190 -0.2314  0.5094
  670MOL0     C90341   0.285   5.079  10.511 -0.2153 -0.1700  0.3612
  670MOL0     C90342   0.159   5.133  10.545 -1.4338  0.1242 -0.0656
  670MOL0     C90343   0.142   5.282  10.558 -0.2687 -0.0434 -0.0586
  670MOL0     C90344   0.067   5.046  10.601 -0.1757  0.4536 -0.5670
  670MOL0     C90345  -0.066   5.089  10.652 -0.2407  0.1213 -0.7502
  670MOL0     O90346  -0.103   5.014  10.759 -0.8827  0.0296 -0.3832
  670MOL0     C90347  -0.238   5.008  10.799  1.3060  0.5501  0.0783
  670MOL0     C90348  -0.322   5.122  10.829  0.5732 -0.2196 -0.9361
  670MOL0     C90349  -0.448   5.102  10.888 -0.1179 -0.1304  0.0289
  670MOL0     C90350  -0.498   4.970  10.908 -1.6016  0.5273 -0.3874
  670MOL0     O90351  -0.616   4.937  10.973  0.2488  0.3235  0.0934
  670MOL0     C90352  -0.723   5.034  10.970  0.1710  1.2606  0.4457
  670MOL0     C90353  -0.860   4.975  11.019 -0.2134 -0.1916 -0.0716
  670MOL0     C90354  -0.964   5.078  11.042  0.6262 -0.6082  0.9213
  670MOL0     C90355  -1.092   5.011  11.096  0.1035  0.3013 -0.3718
  670MOL0     C90356  -1.221   5.080  11.058 -0.0124 -0.1590 -0.0548
  670MOL0     C90357  -1.331   5.050  11.166 -0.4900  0.4361  0.4230
  670MOL0     C90358  -1.473   5.103  11.132 -0.6544 -0.4799 -0.1100
  670MOL0     C90359  -1.567   5.067  11.243  0.4265 -0.1611  0.5415
  670MOL0    Cl90360  -1.736   5.122  11.185  0.2203  0.1842 -0.0830
  670MOL0     C90361  -0.418   4.863  10.874  0.0366  0.2127 -0.1904
  670MOL0     C90362  -0.285   4.876  10.826 -0.2065 -0.0995  0.0325
  670MOL0     O90363  -0.121   5.185  10.611 -0.1631  0.1218  0.0170
  670MOL0     C90364   0.096   4.910  10.612  0.4684  0.4582 -0.0499
  670MOL0     C90365   0.214   4.857  10.566 -0.2193  0.0995 -0.2392
  670MOL0     N90366   0.499   4.250  10.488 -0.1381  1.1030  0.5771
  670MOL0     N90367   0.547   4.125  10.472  0.3695  0.3481  0.5877
  670MOL0     C90368   1.569   3.664   9.923  0.6443  0.3453  1.4699
  670MOL0     C90369   1.710   3.639   9.902 -0.5109 -0.3928 -0.9179
  670MOL0     C90370   2.099   3.407  10.011 -0.0025  0.8030 -1.0661
  670MOL0     C90371   2.195   3.511   9.991 -0.0630 -0.1679  0.5831
  670MOL0     C90372   2.326   3.479  10.023 -0.7709  0.1597  0.3961
  670MOL0     C90373   2.361   3.351  10.069 -1.0020 -0.0421 -0.2238
  670MOL0     O90374   2.506   3.336  10.100 -0.5525  0.2108  0.6767
  670MOL0     C90375   2.544   3.206  10.144 -0.3031 -0.3004  0.2674
  670MOL0     C90376   2.698   3.201  10.117 -0.3000  0.5476 -0.4476
  670MOL0     C90377   2.785   3.329  10.165  0.2594  0.5381 -0.0939
  670MOL0     C90378   2.923   3.329  10.119  0.1318 -0.0348  0.6378
  670MOL0     C90379   2.925   3.319   9.973 -0.5214  0.4827 -0.7804
  670MOL0     C90380   2.935   3.305   9.854  0.5660  0.1195 -0.2748
  670MOL0     C90381   2.268   3.251  10.102  0.7077 -0.1012 -0.1400
  670MOL0     C90382   2.130   3.285  10.072 -1.7272 -0.0301 -0.0372
  670MOL0     H90383   1.802   3.565  10.206 -0.3918 -0.2647 -0.7521
  670MOL0     H90384   1.547   3.622  10.254 -1.7754 -0.6063 -0.2824
  670MOL0     H90385   1.348   3.503  10.112  0.7742 -0.2439  2.0876
  670MOL0     H90386   1.312   3.604  10.243 -0.3274 -2.4484 -0.4865
  670MOL0     H90387   1.155   3.648   9.986 -2.6164  0.2893  0.0166
  670MOL0     H90388   1.101   3.533  10.110 -3.4768  2.6789  0.8971
  670MOL0     H90389   1.111   3.732  10.272  0.2045 -0.2317  0.1575
  670MOL0     H90390   1.123   3.827  10.120  0.3615  0.2477 -0.3149
  670MOL0     H90391   0.909   3.732  10.037 -1.2077  1.2302  0.8273
  670MOL0     H90392   0.905   3.622  10.181  0.0603  0.7109  1.7741
  670MOL0     H90393   0.747   3.782  10.204 -0.0033  0.0183  2.1307
  670MOL0     H90394   0.877   3.808  10.318 -1.5783 -0.0039 -0.2599
  670MOL0     H90395   0.963   4.004  10.211 -0.9263  2.1671 -0.5971
  670MOL0     H90396   0.857   3.978  10.069  2.1865 -1.0108 -0.7538
  670MOL0     H90397   0.741   4.135  10.194  0.3585 -0.7819 -0.4158
  670MOL0     H90398   0.658   3.983  10.228 -0.8355  1.7618  0.7854
  670MOL0     H90399   0.871   4.057  10.427  0.7034 -0.1155 -3.6501
  670MOL0     H90400   0.729   3.941  10.437 -1.8570 -0.6013 -2.1298
  670MOL0     H90401   0.801   4.318  10.391 -0.3916 -0.7331 -1.1055
  670MOL0     H90402   0.692   4.526  10.470  0.1710 -3.2261  0.4421
  670MOL0     H90403   0.539   4.520  10.376 -0.5400  0.1166  0.1104
  670MOL0     H90404   0.567   4.543  10.682 -4.3975  3.0843  2.1097
  670MOL0     H90405   0.424   4.497  10.586  0.2376 -0.8842  1.8014
  670MOL0     H90406   0.590   4.752  10.602 -2.1813  2.8573  1.2389
  670MOL0     H90407   0.428   4.724  10.658  1.1391 -1.0786  2.2495
  670MOL0     H90408   0.353   4.692  10.413 -0.0188 -0.7858  0.3830
  670MOL0     H90409   0.514   4.738  10.357 -1.7936  1.4892 -2.5845
  670MOL0     H90410   0.365   5.148  10.486 -1.7745  1.0291 -1.5675
  670MOL0     H90411   0.093   5.324  10.470  0.5694  1.8049  0.3156
  670MOL0     H90412   0.106   5.309  10.658  2.8523 -1.6307  1.6555
  670MOL0     H90413   0.239   5.333  10.564 -0.2041 -0.0373 -1.0003
  670MOL0     H90414  -0.283   5.221  10.813 -0.6237  0.8865  2.2437
  670MOL0     H90415  -0.519   5.184  10.900  0.0355  0.9393 -4.4192
  670MOL0     H90416  -0.697   5.104  11.050  2.2639 -0.7499  1.6638
  670MOL0     H90417  -0.742   5.065  10.867 -3.1222 -1.8130 -0.0775
  670MOL0     H90418  -0.899   4.894  10.957  2.5923 -0.5995 -1.4683
  670MOL0     H90419  -0.839   4.925  11.114  1.2864  0.4960 -0.0065
  670MOL0     H90420  -0.994   5.123  10.947  0.5393  0.4741  1.4496
  670MOL0     H90421  -0.925   5.158  11.105 -0.3194  0.6240 -0.0189
  670MOL0     H90422  -1.098   4.907  11.062  0.6271  0.6167 -1.4737
  670MOL0     H90423  -1.079   5.005  11.204  0.4767 -1.1782 -0.4830
  670MOL0     H90424  -1.259   5.035  10.966  2.0621 -1.0731 -0.5134
  670MOL0     H90425  -1.204   5.187  11.042  0.6817 -0.2828 -0.1694
  670MOL0     H90426  -1.330   4.941  11.171 -0.4631  0.4864  1.9427
  670MOL0     H90427  -1.291   5.086  11.261  4.2762  4.1772 -2.5409
  670MOL0     H90428  -1.508   5.046  11.046  0.2754 -2.0078  0.4857
  670MOL0     H90429  -1.470   5.211  11.113  1.1666 -0.5882 -0.5985
  670MOL0     H90430  -1.538   5.119  11.335  1.7253  0.0042  0.0592
  670MOL0     H90431  -1.567   4.959  11.260 -1.0730 -0.9443 -3.3766
  670MOL0     H90432  -0.465   4.770  10.904  1.3307 -0.8921 -1.4057
  670MOL0     H90433  -0.220   4.789  10.819  0.6876  0.6101 -0.9810
  670MOL0     H90434   0.037   4.839  10.668 -0.5719 -0.4095 -2.1476
  670MOL0     H90435   0.231   4.751  10.580 -0.4880 -0.2081 -2.0552
  670MOL0     H90436   1.500   3.701   9.848 -0.8554 -2.0612  1.5259
  670MOL0     H90437   1.746   3.642   9.800  0.7942 -1.1418 -0.5146
  670MOL0     H90438   2.186   3.596   9.924  0.1163 -0.5947  0.0077
  670MOL0     H90439   2.399   3.556  10.003 -2.0437  1.6042  1.1201
  670MOL0     H90440   2.510   3.202  10.248 -1.9288 -2.2730 -0.2890
  670MOL0     H90441   2.494   3.127  10.088 -0.4583 -0.2331  0.3088
  670MOL0     H90442   2.698   3.199  10.007  0.6754  1.0218 -0.4701
  670MOL0     H90443   2.734   3.109  10.165  0.5156  1.0015 -0.1630
  670MOL0     H90444   2.791   3.325  10.274 -0.9051 -1.3584 -0.0524
  670MOL0     H90445   2.747   3.426  10.133  2.0318  0.9766 -0.9864
  670MOL0     H90446   2.969   3.237  10.156  0.9659 -0.5122 -1.4456
  670MOL0     H90447   2.979   3.418  10.148  2.8749 -0.3550 -3.0171
  670MOL0     H90448   2.956   3.302   9.749 -0.1082 -0.0387 -0.4129
  670MOL0     H90449   2.284   3.150  10.138  0.3458  0.3812  1.4374
  670MOL0     H90450   2.057   3.207  10.089  0.5365 -2.2040  0.2945
  671MOL0     O90451   8.503   3.966   6.758 -0.0680  0.2299 -0.4734
  671MOL0     C90452   8.482   4.080   6.721  0.2944 -0.6463 -0.6817
  671MOL0     O90453   8.363   4.140   6.712  0.4108  0.1437  0.0298
  671MOL0     C90454   8.254   4.059   6.682 -0.2583  0.4834 -0.7259
  671MOL0     C90455   8.164   4.035   6.782  0.3667  0.2052  0.4792
  671MOL0     C90456   8.055   3.942   6.771 -0.3012 -0.0653  0.6251
  671MOL0     C90457   8.041   3.868   6.656 -0.8577 -1.6236 -0.3464
  671MOL0     O90458   7.945   3.777   6.641 -0.1165  0.0864 -0.2120
  671MOL0     C90459   7.825   3.783   6.716  0.0124 -0.6542  0.3745
  671MOL0     C90460   7.737   3.659   6.685  0.4769 -0.9233  0.1840
  671MOL0     C90461   7.741   3.621   6.533 -0.0103 -0.3904  0.6917
  671MOL0     C90462   7.721   3.473   6.533  1.0605 -0.4044  0.4056
  671MOL0     C90463   7.719   3.419   6.395  0.0540 -0.2030  0.5483
  671MOL0     C90464   7.602   3.473   6.309  0.2351 -0.5368 -0.2683
  671MOL0     C90465   7.611   3.417   6.168 -0.4537  0.0270  0.0173
  671MOL0     C90466   7.486   3.444   6.083 -0.3189  0.7510  0.2731
  671MOL0     N90467   7.511   3.455   5.938 -0.2891  0.0424 -0.5107
  671MOL0     C90468   7.449   3.388   5.834  0.4646 -0.1289  0.1054
  671MOL0     C90469   7.519   3.424   5.728  0.0485  0.1649  0.0940
  671MOL0     C90470   7.488   3.387   5.580  0.3740 -0.2472 -0.3254
  671MOL0     C90471   7.346   3.333   5.551  0.2764 -0.4806 -0.1693
  671MOL0     C90472   7.319   3.288   5.400  0.1013 -0.1907  0.0571
  671MOL0     C90473   7.189   3.201   5.389  0.6609  0.8983 -0.7903
  671MOL0     O90474   7.203   3.079   5.461 -0.6566 -0.2156  0.5369
  671MOL0     C90475   7.118   2.980   5.431 -0.6203  0.1119  0.5019
  671MOL0     C90476   6.991   2.982   5.371 -1.7694 -0.3262 -0.6930
  671MOL0     C90477   6.917   2.871   5.360  0.3704 -0.5429 -0.1519
  671MOL0     C90478   6.781   2.898   5.311 -0.2410  0.0328 -0.1726
  671MOL0     C90479   6.958   2.747   5.421  0.1151 -0.7475 -0.5608
  671MOL0     C90480   6.877   2.628   5.437  0.1035 -0.6588  0.4383
  671MOL0     O90481   6.740   2.649   5.458  0.0984 -0.5665 -0.1970
  671MOL0     C90482   6.666   2.540   5.494 -0.5319 -0.3993  0.7894
  671MOL0     C90483   6.620   2.536   5.625  0.4362 -0.4274  0.9654
  671MOL0     C90484   6.524   2.440   5.662 -0.2857 -0.1577  0.6239
  671MOL0     C90485   6.477   2.338   5.571 -0.0448 -0.3305 -0.9548
  671MOL0     O90486   6.388   2.241   5.618  0.3388  1.2143  0.0572
  671MOL0     C90487   6.365   2.228   5.760 -0.1250  0.1243 -0.2389
  671MOL0     C90488   6.293   2.094   5.774 -0.1833  0.4151 -0.2610
  671MOL0     C90489   6.156   2.091   5.694 -0.7404  0.9570  0.0886
  671MOL0     C90490   6.059   2.204   5.741 -0.2714  1.1314  0.8475
  671MOL0     C90491   5.919   2.196   5.681  0.1447  0.4929 -0.2154
  671MOL0     C90492   5.818   2.283   5.752 -0.2164  0.8755  0.2338
  671MOL0     C90493   5.668   2.250   5.731 -0.2309 -0.9703  0.8337
  671MOL0     C90494   5.576   2.357   5.814  1.3326 -0.0041  0.5940
  671MOL0    Cl90495   5.402   2.314   5.832 -0.1289 -0.0500  0.0840
  671MOL0     C90496   6.526   2.343   5.444  0.1545  0.3557  0.6375
  671MOL0     C90497   6.617   2.438   5.403 -0.2120 -0.6791 -0.3479
  671MOL0     O90498   6.931   2.515   5.422  0.4038  0.6790  0.1625
  671MOL0     C90499   7.093   2.745   5.470 -0.4006  0.7319  0.5721
  671MOL0     C90500   7.171   2.857   5.463  0.8930  0.3997 -0.5463
  671MOL0     N90501   7.632   3.487   5.754  0.2845 -0.1746 -0.1454
  671MOL0     N90502   7.632   3.498   5.888  0.7314 -0.2991 -0.6819
  671MOL0     C90503   8.131   3.892   6.552  0.8604  0.6663 -1.0505
  671MOL0     C90504   8.237   3.983   6.565 -0.6160 -0.8254  0.3983
  671MOL0     C90505   8.594   4.168   6.722 -0.5218 -0.5080  0.1851
  671MOL0     C90506   8.719   4.132   6.682  0.9201 -0.4573 -0.2754
  671MOL0     C90507   8.823   4.233   6.668 -0.1384  0.1937 -0.1468
  671MOL0     C90508   8.802   4.359   6.704  0.3729  0.8576 -0.3865
  671MOL0     O90509   8.887   4.463   6.693  0.2942 -0.3707  0.1079
  671MOL0     C90510   9.022   4.424   6.704 -0.4214  0.7528 -0.7599
  671MOL0     C90511   9.103   4.554   6.716 -0.7276  0.4017 -0.5933
  671MOL0     C90512   9.086   4.658   6.604  0.1855 -0.5715  0.8104
  671MOL0     C90513   9.139   4.799   6.640  0.0913  0.4176  0.5046
  671MOL0     C90514   9.284   4.811   6.601 -0.2115  0.2000  0.9115
  671MOL0     C90515   9.401   4.798   6.564 -0.5519 -0.1935 -0.0925
  671MOL0     C90516   8.674   4.397   6.754  0.4577 -0.6179  0.1472
  671MOL0     C90517   8.572   4.301   6.764  0.2721  0.5112 -0.0538
  671MOL0     H90518   8.159   4.097   6.871 -1.9337 -0.9192  1.2318
  671MOL0     H90519   7.988   3.937   6.857  0.1606  0.3082  1.0062
  671MOL0     H90520   7.842   3.785   6.824  0.0607  0.4086  0.3620
  671MOL0     H90521   7.759   3.868   6.693 -0.5899 -1.1149  0.3755
  671MOL0     H90522   7.784   3.575   6.738  0.8710 -1.0004 -0.2750
  671MOL0     H90523   7.639   3.678   6.728  1.6787 -0.2127  2.8071
  671MOL0     H90524   7.651   3.668   6.492 -1.1299 -1.6439  1.6013
  671MOL0     H90525   7.831   3.642   6.476 -0.1797  0.2407  0.6550
  671MOL0     H90526   7.804   3.422   6.583  1.7054  1.3832  1.2577
  671MOL0     H90527   7.626   3.442   6.579  0.4510 -1.2683 -1.3586
  671MOL0     H90528   7.809   3.450   6.341  1.6688 -3.7730  0.9310
  671MOL0     H90529   7.730   3.310   6.393  0.5068 -0.1563 -0.6616
  671MOL0     H90530   7.510   3.432   6.351  1.3819 -1.9414  0.9703
  671MOL0     H90531   7.587   3.581   6.296  0.0617 -0.3629  1.1985
  671MOL0     H90532   7.695   3.468   6.120 -1.5656 -1.1605 -3.5837
  671MOL0     H90533   7.611   3.308   6.181 -0.4807  0.0589  0.2758
  671MOL0     H90534   7.455   3.544   6.115 -2.0296  0.5754 -0.7273
  671MOL0     H90535   7.408   3.369   6.100  2.8001 -2.8171  0.1798
  671MOL0     H90536   7.354   3.336   5.848  0.4793  0.1113  1.2249
  671MOL0     H90537   7.512   3.465   5.508 -0.4302 -0.3619 -0.7363
  671MOL0     H90538   7.559   3.306   5.559 -0.5201 -0.4804 -2.7625
  671MOL0     H90539   7.269   3.409   5.565  1.4396  1.3169 -2.6905
  671MOL0     H90540   7.327   3.257   5.627 -2.1312  0.3404  0.1305
  671MOL0     H90541   7.405   3.239   5.353  1.6969  3.3343 -1.0746
  671MOL0     H90542   7.298   3.374   5.336  0.0227 -0.8106 -0.7701
  671MOL0     H90543   7.171   3.173   5.284 -3.0137 -0.6930  0.1109
  671MOL0     H90544   7.094   3.248   5.416 -0.0128 -1.5452  1.3980
  671MOL0     H90545   6.947   3.073   5.332  0.3197  1.5929  1.2119
  671MOL0     H90546   6.736   2.814   5.257 -0.9217  0.0663  0.3282
  671MOL0     H90547   6.721   2.936   5.394 -0.6376  2.0065 -1.2911
  671MOL0     H90548   6.788   2.980   5.238  1.3106 -0.7264 -0.9068
  671MOL0     H90549   6.655   2.617   5.689  4.4341 -0.2952 -1.0875
  671MOL0     H90550   6.498   2.442   5.767 -3.7109  1.5150 -0.0993
  671MOL0     H90551   6.457   2.231   5.819 -1.6785 -0.5026  2.3634
  671MOL0     H90552   6.294   2.306   5.790 -2.5193 -3.1471  3.4614
  671MOL0     H90553   6.363   2.027   5.724 -0.1508  2.8923 -3.9857
  671MOL0     H90554   6.270   2.076   5.879  0.5238  1.1010  0.0167
  671MOL0     H90555   6.116   1.991   5.710 -2.9497  1.5413 -1.3681
  671MOL0     H90556   6.179   2.091   5.587  2.7660  0.2218  0.7093
  671MOL0     H90557   6.055   2.210   5.850 -0.7880 -0.6786  0.9682
  671MOL0     H90558   6.109   2.292   5.700 -0.3977 -0.6562 -3.6695
  671MOL0     H90559   5.893   2.091   5.692 -0.2350  0.8019  2.5666
  671MOL0     H90560   5.922   2.225   5.576 -0.5526  0.3528 -0.2829
  671MOL0     H90561   5.843   2.266   5.857  1.6359 -1.9810 -0.5570
  671MOL0     H90562   5.833   2.389   5.728  0.6604  0.6690 -0.1729
  671MOL0     H90563   5.638   2.150   5.766 -1.3448 -0.6443  0.8276
  671MOL0     H90564   5.635   2.258   5.628  0.1619 -1.6592  0.6451
  671MOL0     H90565   5.585   2.454   5.763 -1.4859 -0.6144 -1.2704
  671MOL0     H90566   5.609   2.362   5.918  1.1699 -2.3482  0.8077
  671MOL0     H90567   6.491   2.271   5.371  1.7648  0.3819 -0.2105
  671MOL0     H90568   6.660   2.435   5.303  3.2467 -3.4587  0.9897
  671MOL0     H90569   7.123   2.649   5.511 -1.8750 -0.2642 -0.5606
  671MOL0     H90570   7.264   2.857   5.519  0.2190 -2.7408  0.7775
  671MOL0     H90571   8.126   3.832   6.461 -0.5659  2.1849 -2.0359
  671MOL0     H90572   8.305   3.992   6.481 -1.1148 -0.0579  0.0716
  671MOL0     H90573   8.750   4.031   6.659 -1.1757 -2.0390  3.0756
  671MOL0     H90574   8.916   4.186   6.637 -0.1170  0.7730 -1.0110
  671MOL0     H90575   9.027   4.366   6.797  0.1063  1.4049 -0.3717
  671MOL0     H90576   9.056   4.360   6.622  0.9314  1.8642 -1.0905
  671MOL0     H90577   9.210   4.533   6.720 -0.5545  1.3443  1.8843
  671MOL0     H90578   9.072   4.604   6.808  2.6575 -0.5495  1.2180
  671MOL0     H90579   8.980   4.666   6.575  0.3975  2.0673  0.4831
  671MOL0     H90580   9.136   4.626   6.512 -0.1025  0.3748  0.3052
  671MOL0     H90581   9.131   4.812   6.749 -1.3030 -0.3361  0.5285
  671MOL0     H90582   9.079   4.871   6.585 -0.8615 -0.1155  0.8100
  671MOL0     H90583   9.502   4.780   6.534  0.0079  0.7006  1.2060
  671MOL0     H90584   8.649   4.501   6.770  1.5325  0.0966 -2.3744
  671MOL0     H90585   8.467   4.329   6.771  0.0530 -0.3931  0.3674
  672MOL0     O90586  11.113   6.429   7.711  0.1106  0.0741 -0.5538
  672MOL0     C90587  11.228   6.449   7.664 -0.4732  0.6316  1.0397
  672MOL0     O90588  11.276   6.402   7.545  0.0681  0.2937 -0.8728
  672MOL0     C90589  11.198   6.330   7.467  0.2351 -0.4456 -0.5946
  672MOL0     C90590  11.130   6.394   7.363  0.3138 -0.5381 -0.5430
  672MOL0     C90591  11.053   6.316   7.270  0.3247  0.7952 -0.5776
  672MOL0     C90592  11.023   6.180   7.301 -0.5505  0.2796  0.0553
  672MOL0     O90593  10.948   6.087   7.228  0.5389  0.0126  0.6589
  672MOL0     C90594  10.861   6.137   7.130  0.1134  0.0513 -0.0761
  672MOL0     C90595  10.769   6.033   7.053 -0.0724  0.2939  0.5129
  672MOL0     C90596  10.665   5.978   7.143  0.1871 -0.9547  0.5530
  672MOL0     C90597  10.570   5.896   7.059 -0.1208 -0.1560 -0.5572
  672MOL0     C90598  10.479   5.809   7.139  1.1286  0.2957  0.4596
  672MOL0     C90599  10.405   5.713   7.042  0.0482  0.7783  0.1416
  672MOL0     C90600  10.302   5.629   7.121 -0.8810 -0.0788 -0.2287
  672MOL0     C90601  10.262   5.496   7.061  0.0696 -0.3167 -0.3659
  672MOL0     N90602  10.167   5.438   7.160 -0.0999 -0.2227 -0.6490
  672MOL0     C90603  10.202   5.395   7.290  0.0449 -0.0843 -0.1738
  672MOL0     C90604  10.083   5.376   7.349 -0.1974  0.5971  0.3935
  672MOL0     C90605  10.075   5.321   7.484  0.2336  0.3381 -0.4902
  672MOL0     C90606  10.117   5.436   7.580  0.3977 -0.9131 -0.1463
  672MOL0     C90607  10.040   5.447   7.707 -0.7116  0.3204 -0.0558
  672MOL0     C90608   9.923   5.549   7.714 -0.0586 -0.5551  0.1730
  672MOL0     O90609   9.809   5.506   7.630  0.3654  0.0537  0.2275
  672MOL0     C90610   9.691   5.583   7.621 -0.6130  0.0352  0.6249
  672MOL0     C90611   9.666   5.712   7.683  1.0003 -0.4441  0.1014
  672MOL0     C90612   9.560   5.787   7.646 -0.2467 -0.5443 -0.0707
  672MOL0     C90613   9.537   5.920   7.729 -0.1665  0.6931  0.2103
  672MOL0     C90614   9.473   5.745   7.539  0.4855 -0.1610  0.3292
  672MOL0     C90615   9.363   5.831   7.479 -0.3280  0.7617  0.4938
  672MOL0     O90616   9.262   5.763   7.404 -0.1169 -0.4608 -0.4585
  672MOL0     C90617   9.151   5.834   7.375  0.5823  0.3197 -0.7037
  672MOL0     C90618   9.117   5.951   7.446 -0.6172 -0.1091 -0.8046
  672MOL0     C90619   8.989   6.005   7.422  0.2745 -0.2868  1.4482
  672MOL0     C90620   8.900   5.956   7.322 -0.1800 -0.2280 -0.5350
  672MOL0     O90621   8.788   6.025   7.283 -0.4481 -0.4959  0.1773
  672MOL0     C90622   8.710   6.077   7.394  0.0783 -0.8271  0.2664
  672MOL0     C90623   8.583   6.129   7.332  0.7152 -0.6101 -0.6903
  672MOL0     C90624   8.509   6.007   7.265 -0.5458 -1.0686 -0.6033
  672MOL0     C90625   8.386   6.062   7.198  0.4061 -0.4572  0.0474
  672MOL0     C90626   8.265   6.115   7.300 -0.8425  0.0778 -0.2990
  672MOL0     C90627   8.132   6.114   7.223  0.1666 -0.2302 -0.4574
  672MOL0     C90628   8.030   6.190   7.306 -0.6503 -0.2524  0.1006
  672MOL0     C90629   7.888   6.183   7.249  0.2043  0.0215  0.2056
  672MOL0    Cl90630   7.768   6.203   7.381 -0.3445  0.3716 -0.0821
  672MOL0     C90631   8.940   5.847   7.249 -0.2558 -0.9103  0.4386
  672MOL0     C90632   9.061   5.779   7.287 -0.0167  0.1582  0.5856
  672MOL0     O90633   9.385   5.955   7.482  0.8369 -0.3181 -0.8464
  672MOL0     C90634   9.494   5.614   7.489 -0.0511  0.7283 -0.3801
  672MOL0     C90635   9.600   5.532   7.532 -0.3286  0.2574 -0.3145
  672MOL0     N90636   9.981   5.411   7.259  0.3049  0.4119 -0.0349
  672MOL0     N90637  10.031   5.458   7.150 -0.5091  0.1168  0.3073
  672MOL0     C90638  11.081   6.120   7.410  0.1359 -0.0636  0.5304
  672MOL0     C90639  11.176   6.190   7.495  0.4591 -0.0594 -0.2890
  672MOL0     C90640  11.323   6.500   7.759  0.4828  0.2210  0.5659
  672MOL0     C90641  11.300   6.539   7.888  0.1366 -0.6463  0.5714
  672MOL0     C90642  11.400   6.606   7.972  0.2350  0.6045 -0.9339
  672MOL0     C90643  11.528   6.623   7.930  0.7511  0.3322 -0.1220
  672MOL0     O90644  11.606   6.699   8.006  0.2778  0.0105  0.4490
  672MOL0     C90645  11.746   6.693   7.980  0.7597 -0.2146  0.4617
  672MOL0     C90646  11.837   6.742   8.092  0.1963  0.3070  0.5769
  672MOL0     C90647  11.859   6.637   8.199 -0.0767  1.1273 -0.1892
  672MOL0     C90648  11.955   6.680   8.320 -0.2368  0.9375  0.8846
  672MOL0     C90649  11.948   6.572   8.419  0.1705 -0.9672  0.1366
  672MOL0     C90650  11.935   6.486   8.505 -0.0784 -0.9742  0.6101
  672MOL0     C90651  11.559   6.573   7.799 -0.0196 -0.5025 -0.3460
  672MOL0     C90652  11.457   6.512   7.721  0.1781 -0.0951  0.3509
  672MOL0     H90653  11.125   6.497   7.332  0.7803 -1.9828 -6.5957
  672MOL0     H90654  10.996   6.366   7.192  2.3839  2.1901 -1.2621
  672MOL0     H90655  10.794   6.218   7.161  1.5362  1.1767  0.1687
  672MOL0     H90656  10.927   6.180   7.053 -1.3308  2.3919 -0.1177
  672MOL0     H90657  10.722   6.077   6.964  2.4381 -3.1662 -2.8644
  672MOL0     H90658  10.831   5.963   6.997  0.4415  1.3125 -0.2181
  672MOL0     H90659  10.701   5.915   7.225  0.5786  0.2579  1.3536
  672MOL0     H90660  10.606   6.054   7.196 -2.1694 -0.5443 -2.4383
  672MOL0     H90661  10.494   5.952   7.004 -2.3926 -0.0150  2.4871
  672MOL0     H90662  10.639   5.838   6.996  1.7598 -0.2087  1.4204
  672MOL0     H90663  10.520   5.742   7.216 -1.5091 -1.9069  0.0904
  672MOL0     H90664  10.401   5.865   7.191 -2.6350 -3.0038 -1.1596
  672MOL0     H90665  10.352   5.762   6.960 -1.8173  0.2202  0.9632
  672MOL0     H90666  10.484   5.656   6.992  0.3954 -1.0780  2.5971
  672MOL0     H90667  10.342   5.615   7.222 -0.1406 -3.1534 -0.8322
  672MOL0     H90668  10.212   5.692   7.118 -1.7911 -1.2389  1.2734
  672MOL0     H90669  10.343   5.428   7.032 -1.5110 -1.2910 -2.7219
  672MOL0     H90670  10.211   5.526   6.969  0.5874  0.9688 -0.2573
  672MOL0     H90671  10.295   5.376   7.343 -1.9157 -0.4634  3.5137
  672MOL0     H90672   9.969   5.297   7.499  0.7550 -1.4381  0.7936
  672MOL0     H90673  10.118   5.223   7.510 -2.1170 -0.3892  0.9512
  672MOL0     H90674  10.117   5.535   7.534  0.1590 -1.5078 -1.4529
  672MOL0     H90675  10.220   5.420   7.611 -0.0761 -4.2705  0.0658
  672MOL0     H90676  10.112   5.478   7.784  1.8932  1.7193 -2.8683
  672MOL0     H90677   9.999   5.348   7.731 -0.8737 -0.0558 -1.7945
  672MOL0     H90678   9.953   5.649   7.682  2.8010 -1.1120  0.8249
  672MOL0     H90679   9.881   5.565   7.813 -3.1731  0.8672 -1.2471
  672MOL0     H90680   9.746   5.743   7.750  2.0034 -0.3585 -1.0773
  672MOL0     H90681   9.595   6.002   7.686  0.1329  0.1044 -0.5361
  672MOL0     H90682   9.432   5.948   7.718 -0.4046 -0.7098 -1.6312
  672MOL0     H90683   9.558   5.912   7.836  0.6911  1.9987  0.1703
  672MOL0     H90684   9.169   5.996   7.530  0.8932  1.9478 -2.7292
  672MOL0     H90685   8.957   6.094   7.475 -0.5908  0.8056 -0.8127
  672MOL0     H90686   8.684   5.999   7.466 -0.2597 -1.1807 -0.2268
  672MOL0     H90687   8.762   6.160   7.442 -0.0625 -0.9118  0.5688
  672MOL0     H90688   8.511   6.176   7.400  1.2320 -0.3965 -0.2779
  672MOL0     H90689   8.610   6.207   7.261 -0.7596 -0.1565 -0.7783
  672MOL0     H90690   8.487   5.939   7.348  3.6738 -0.5540  1.1676
  672MOL0     H90691   8.565   5.957   7.185  1.3717  3.1736 -2.1898
  672MOL0     H90692   8.417   6.146   7.136  1.4624 -1.8665 -1.4137
  672MOL0     H90693   8.349   6.003   7.114  0.4864  1.3560 -1.2972
  672MOL0     H90694   8.296   6.217   7.326 -0.8331  0.8589 -2.9874
  672MOL0     H90695   8.271   6.053   7.390  0.9693  2.5591  1.4262
  672MOL0     H90696   8.141   6.172   7.131 -2.5766  2.5044  0.8249
  672MOL0     H90697   8.119   6.006   7.211  0.7738 -0.0853 -2.9493
  672MOL0     H90698   8.065   6.294   7.301  1.0109 -0.8346 -2.4641
  672MOL0     H90699   8.033   6.156   7.410  0.2702 -1.9399 -0.4297
  672MOL0     H90700   7.874   6.089   7.194 -1.0621  0.3586 -0.0763
  672MOL0     H90701   7.875   6.259   7.172  1.6804  0.5307  0.4343
  672MOL0     H90702   8.897   5.805   7.158  1.3341  0.1936 -0.8777
  672MOL0     H90703   9.084   5.680   7.247  0.3969 -0.5162  2.4212
  672MOL0     H90704   9.429   5.569   7.414  1.4309 -1.7158 -0.2843
  672MOL0     H90705   9.636   5.438   7.490 -0.3747 -0.1718  0.5711
  672MOL0     H90706  11.066   6.014   7.424  0.1793  0.1166  2.1450
  672MOL0     H90707  11.236   6.136   7.568  1.1910 -0.4552 -1.1614
  672MOL0     H90708  11.210   6.508   7.939  2.1755 -5.3375  1.9420
  672MOL0     H90709  11.380   6.641   8.073 -0.2025  0.3026 -0.9137
  672MOL0     H90710  11.767   6.586   7.971  1.4380 -0.0753  0.3387
  672MOL0     H90711  11.774   6.745   7.888  0.1883 -0.4375  0.1548
  672MOL0     H90712  11.789   6.828   8.139 -0.6137 -0.3847  1.0425
  672MOL0     H90713  11.930   6.778   8.046 -1.6046  2.2406 -1.8199
  672MOL0     H90714  11.912   6.552   8.154  0.2408  1.3373 -0.2199
  672MOL0     H90715  11.762   6.598   8.228  0.6871 -1.5205 -0.9140
  672MOL0     H90716  11.933   6.778   8.363  1.5474  1.4172  0.7955
  672MOL0     H90717  12.059   6.687   8.288 -0.3213 -0.8037  0.0910
  672MOL0     H90718  11.934   6.413   8.583 -5.3635 -2.4367 -0.4007
  672MOL0     H90719  11.651   6.598   7.747 -0.1996  2.2618  0.4736
  672MOL0     H90720  11.476   6.480   7.619 -1.1610 -0.4692  0.1997
  673MOL0     O90721   5.826   8.914   2.346 -0.5316 -0.2038 -0.0111
  673MOL0     C90722   5.907   8.827   2.302  0.0757  1.0942  0.8519
  673MOL0     O90723   5.898   8.764   2.175  0.1458 -0.4201  0.4956
  673MOL0     C90724   5.802   8.809   2.095  0.3061  0.0053  0.4406
  673MOL0     C90725   5.697   8.722   2.059  0.0689 -0.1548 -0.6366
  673MOL0     C90726   5.594   8.770   1.977  1.4583  0.5424 -0.4809
  673MOL0     C90727   5.593   8.899   1.934 -0.4699  0.1762 -0.3814
  673MOL0     O90728   5.493   8.935   1.845 -0.4300 -0.7340 -0.0306
  673MOL0     C90729   5.450   9.071   1.827  0.5308 -0.6067 -0.5462
  673MOL0     C90730   5.307   9.072   1.762  0.3052 -0.5787 -0.4850
  673MOL0     C90731   5.194   9.005   1.852 -1.3616 -0.0579  0.0639
  673MOL0     C90732   5.072   9.034   1.769  0.0468  0.5838 -0.0612
  673MOL0     C90733   4.950   9.013   1.850  0.4020  1.2936 -0.5674
  673MOL0     C90734   4.833   9.038   1.766  0.2150 -0.3281 -0.1941
  673MOL0     C90735   4.692   9.051   1.824  0.3111  0.2014 -0.5319
  673MOL0     C90736   4.631   8.922   1.885 -0.7320  0.5939  0.3497
  673MOL0     N90737   4.491   8.936   1.945  0.5828 -0.2437  0.2098
  673MOL0     C90738   4.370   8.927   1.877 -0.0202 -1.0976 -0.1898
  673MOL0     C90739   4.269   8.941   1.973  0.2285 -0.2744  0.6705
  673MOL0     C90740   4.128   8.958   1.921  0.3017 -0.4835 -0.0416
  673MOL0     C90741   4.058   8.821   1.885 -0.2530 -0.4979  0.0075
  673MOL0     C90742   3.911   8.840   1.857  0.1975  0.3147 -0.1263
  673MOL0     C90743   3.894   8.806   1.708 -0.8230 -0.2165  0.0205
  673MOL0     O90744   3.762   8.772   1.671 -0.4812 -0.3768  0.0293
  673MOL0     C90745   3.673   8.872   1.648  0.3393 -1.0876  0.7351
  673MOL0     C90746   3.684   8.938   1.526  0.1737 -0.4716  0.7238
  673MOL0     C90747   3.598   9.046   1.492 -0.7594  0.2839 -1.1584
  673MOL0     C90748   3.604   9.093   1.349 -0.0874  0.1373  0.5132
  673MOL0     C90749   3.506   9.096   1.585  0.1223 -0.0087  0.6291
  673MOL0     C90750   3.416   9.208   1.551 -0.6290  0.2203  0.1542
  673MOL0     O90751   3.396   9.292   1.657  0.0773  0.3763 -1.1083
  673MOL0     C90752   3.285   9.373   1.657 -0.4120 -0.5578 -0.0331
  673MOL0     C90753   3.255   9.424   1.785 -0.2420  0.4133 -0.0877
  673MOL0     C90754   3.144   9.502   1.811  0.4597  0.2497  0.2855
  673MOL0     C90755   3.048   9.528   1.718 -0.1877  0.3353  0.6178
  673MOL0     O90756   2.936   9.596   1.754  0.2563 -0.8470 -0.0491
  673MOL0     C90757   2.817   9.591   1.673  0.3298  0.2146 -1.0366
  673MOL0     C90758   2.700   9.684   1.729 -1.4751  0.2134 -0.4400
  673MOL0     C90759   2.589   9.659   1.634  0.8240  0.3120  0.3903
  673MOL0     C90760   2.459   9.692   1.710  1.1134  0.2931  0.5888
  673MOL0     C90761   2.340   9.664   1.616 -0.2536 -0.5863 -0.2925
  673MOL0     C90762   2.205   9.674   1.698  0.4105 -0.0318  0.0459
  673MOL0     C90763   2.088   9.736   1.617  0.5025 -0.9049  0.0856
  673MOL0     C90764   1.984   9.798   1.709  0.3169  0.6192  0.3421
  673MOL0    Cl90765   1.853   9.865   1.608  0.5095 -0.1763  0.6021
  673MOL0     C90766   3.072   9.471   1.597  0.7752 -0.8809 -0.2502
  673MOL0     C90767   3.187   9.398   1.562 -0.4403 -0.7926 -0.6643
  673MOL0     O90768   3.362   9.209   1.439 -0.1281 -0.3133 -0.8229
  673MOL0     C90769   3.502   9.034   1.712  0.0717  0.1814  1.1187
  673MOL0     C90770   3.576   8.922   1.733  0.5557  0.0171  0.0557
  673MOL0     N90771   4.335   8.959   2.092  0.5682 -0.2714  0.4442
  673MOL0     N90772   4.463   8.966   2.072  0.7305  0.7989 -0.6248
  673MOL0     C90773   5.706   8.987   1.960  0.0219  0.1292 -0.0660
  673MOL0     C90774   5.811   8.933   2.038  1.0501 -0.2921  0.3067
  673MOL0     C90775   6.023   8.793   2.388  0.1151 -0.1660  0.0981
  673MOL0     C90776   6.132   8.732   2.334 -0.3422  0.7387 -0.2336
  673MOL0     C90777   6.253   8.714   2.406  0.8429 -0.8521  0.7842
  673MOL0     C90778   6.258   8.749   2.543 -0.3995  0.3476  0.0205
  673MOL0     O90779   6.368   8.740   2.631 -0.7835 -0.5651  0.6143
  673MOL0     C90780   6.500   8.717   2.580  1.2974  0.2668  1.2509
  673MOL0     C90781   6.588   8.726   2.693 -1.0566  0.6713 -1.1562
  673MOL0     C90782   6.727   8.680   2.639 -0.5336  0.1361  0.0533
  673MOL0     C90783   6.813   8.626   2.752  0.2650  0.1742 -1.2595
  673MOL0     C90784   6.938   8.570   2.705 -0.6675  0.4070 -1.1129
  673MOL0     C90785   7.047   8.530   2.662 -0.8328  0.5068 -1.1365
  673MOL0     C90786   6.145   8.806   2.603  1.1512 -0.9298 -0.0979
  673MOL0     C90787   6.024   8.819   2.523 -0.8435 -0.5343 -0.5172
  673MOL0     H90788   5.713   8.624   2.102  0.6294 -0.2983 -1.1524
  673MOL0     H90789   5.504   8.718   1.947  1.3650 -0.4053  1.3178
  673MOL0     H90790   5.451   9.128   1.921  0.7939  1.3323 -1.6734
  673MOL0     H90791   5.513   9.132   1.762 -0.9400  1.7836  0.1348
  673MOL0     H90792   5.287   9.179   1.753 -0.4613 -0.8567 -2.5274
  673MOL0     H90793   5.319   9.041   1.658  2.8619  0.1691 -0.4854
  673MOL0     H90794   5.211   8.897   1.858  0.1979  0.1416 -0.3086
  673MOL0     H90795   5.200   9.052   1.950  1.4975 -2.6921  1.3292
  673MOL0     H90796   5.086   9.132   1.722  2.3244  0.0544 -0.6551
  673MOL0     H90797   5.083   8.959   1.690 -0.2712 -2.5662  2.6855
  673MOL0     H90798   4.937   8.910   1.884 -2.4047  0.8446 -2.6102
  673MOL0     H90799   4.960   9.081   1.935 -0.6097  1.3251 -0.4685
  673MOL0     H90800   4.850   9.135   1.718 -1.5180  0.9104  1.5672
  673MOL0     H90801   4.821   8.958   1.692 -2.7422 -1.0339  0.9017
  673MOL0     H90802   4.707   9.127   1.901  0.9860  0.1727 -0.6270
  673MOL0     H90803   4.625   9.091   1.748 -0.4906 -3.3624 -1.9168
  673MOL0     H90804   4.710   8.880   1.948  1.5032  2.3835 -1.1081
  673MOL0     H90805   4.610   8.852   1.804  0.3878  1.8671 -1.0958
  673MOL0     H90806   4.346   8.906   1.774 -0.3806 -2.8514  0.2180
  673MOL0     H90807   4.064   9.005   1.996 -0.1081  0.3158 -0.8838
  673MOL0     H90808   4.134   9.015   1.828 -1.5654  1.3505  0.8889
  673MOL0     H90809   4.074   8.755   1.971  1.5630  0.3260  0.3570
  673MOL0     H90810   4.112   8.782   1.799 -1.1526  1.5048 -1.5430
  673MOL0     H90811   3.868   8.937   1.883 -3.1769 -1.2843  0.8225
  673MOL0     H90812   3.860   8.763   1.916 -0.5886  0.1492 -0.9951
  673MOL0     H90813   3.956   8.717   1.690  5.9020  3.4981  1.4720
  673MOL0     H90814   3.942   8.875   1.639  1.5365 -2.2565 -0.5108
  673MOL0     H90815   3.759   8.902   1.456 -0.3857 -0.9829  0.3808
  673MOL0     H90816   3.592   9.202   1.342  0.0238  0.1976  1.1635
  673MOL0     H90817   3.697   9.064   1.301  1.1641  3.1262  0.9274
  673MOL0     H90818   3.514   9.047   1.307  2.0774 -2.0418 -2.0224
  673MOL0     H90819   3.321   9.409   1.870 -0.3988  0.3560  0.0258
  673MOL0     H90820   3.120   9.534   1.912 -1.5111 -0.6190  0.1334
  673MOL0     H90821   2.841   9.615   1.569  0.6559  0.0368 -1.0057
  673MOL0     H90822   2.785   9.487   1.660  2.9601 -0.4626 -3.3486
  673MOL0     H90823   2.676   9.668   1.835  0.4949 -1.0976 -0.1263
  673MOL0     H90824   2.744   9.783   1.712  1.0078 -0.5685  0.8696
  673MOL0     H90825   2.598   9.555   1.603 -2.6547 -0.6334  2.0842
  673MOL0     H90826   2.592   9.731   1.552 -2.1078 -0.5065 -0.5420
  673MOL0     H90827   2.455   9.629   1.800  1.1175 -1.2806 -0.4617
  673MOL0     H90828   2.470   9.798   1.733  4.2795  0.2909 -0.3570
  673MOL0     H90829   2.347   9.562   1.576  0.3107  0.8794 -4.4613
  673MOL0     H90830   2.339   9.734   1.532 -1.8407 -0.6494 -0.3464
  673MOL0     H90831   2.170   9.578   1.738  0.6582 -0.4767 -0.7818
  673MOL0     H90832   2.230   9.735   1.785  0.3176 -1.0063  0.7676
  673MOL0     H90833   2.038   9.661   1.555 -2.3013 -0.2703  1.4244
  673MOL0     H90834   2.134   9.810   1.550 -0.5953 -1.1224 -0.9390
  673MOL0     H90835   2.037   9.874   1.767 -0.3521  1.3642 -0.0038
  673MOL0     H90836   1.942   9.729   1.782 -1.8180  0.1071 -1.2521
  673MOL0     H90837   2.993   9.474   1.522 -1.3905  2.8275  1.9362
  673MOL0     H90838   3.178   9.352   1.464 -1.2573 -1.3989 -0.3145
  673MOL0     H90839   3.443   9.081   1.789  2.2034  1.4722  2.0549
  673MOL0     H90840   3.581   8.869   1.828  1.0783 -2.3153 -1.1973
  673MOL0     H90841   5.720   9.089   1.926  1.7655  0.5409  1.6785
  673MOL0     H90842   5.906   8.985   2.048  1.5221 -1.0294 -0.3230
  673MOL0     H90843   6.149   8.694   2.234  2.3851  1.0171  0.0515
  673MOL0     H90844   6.342   8.663   2.369  1.3933 -0.2112  1.1914
  673MOL0     H90845   6.501   8.615   2.541  0.2611 -0.2384  2.4587
  673MOL0     H90846   6.514   8.788   2.497 -1.4808  0.2139  0.6074
  673MOL0     H90847   6.548   8.667   2.776 -2.1539 -1.5506 -3.1581
  673MOL0     H90848   6.586   8.833   2.718 -0.1920  0.5144 -0.3506
  673MOL0     H90849   6.772   8.769   2.594 -0.0868  0.7835  1.7040
  673MOL0     H90850   6.718   8.595   2.571  1.5901  0.4118 -0.6494
  673MOL0     H90851   6.767   8.557   2.823  1.8311  1.2012  0.8751
  673MOL0     H90852   6.852   8.717   2.798  0.7197  1.1816 -3.5089
  673MOL0     H90853   7.133   8.479   2.624  1.5601  1.5875  2.3341
  673MOL0     H90854   6.135   8.838   2.707  0.5551 -0.6724 -0.2279
  673MOL0     H90855   5.941   8.866   2.575  0.3355  2.8284 -1.4047
  674MOL0     O90856   1.066   4.903  11.234 -0.0019  0.1507  0.3562
  674MOL0     C90857   1.127   4.987  11.300  0.4866  0.2517  0.2158
  674MOL0     O90858   1.074   5.103  11.359 -0.6311 -0.1752  0.6630
  674MOL0     C90859   0.938   5.112  11.343  0.1090 -0.0121 -0.0425
  674MOL0     C90860   0.860   5.037  11.438 -0.7891 -0.7749 -1.1095
  674MOL0     C90861   0.725   5.062  11.438 -0.1005  0.0205 -1.1741
  674MOL0     C90862   0.658   5.152  11.345 -0.5286 -0.3535 -0.0920
  674MOL0     O90863   0.521   5.181  11.348  0.4248  0.3652  0.1472
  674MOL0     C90864   0.434   5.090  11.411 -0.4513  0.2802  0.7751
  674MOL0     C90865   0.290   5.128  11.394  0.3804  0.3432  0.5135
  674MOL0     C90866   0.209   5.023  11.480  0.0848 -0.6128  0.4076
  674MOL0     C90867   0.095   5.085  11.563 -0.1811  0.0222 -0.3150
  674MOL0     C90868   0.021   4.994  11.662 -0.2505  0.0116 -0.8592
  674MOL0     C90869  -0.090   5.074  11.735  0.0178  0.5160  0.1546
  674MOL0     C90870  -0.182   4.991  11.824  0.7218  0.2089  0.0966
  674MOL0     C90871  -0.283   5.077  11.889 -0.3473  0.0243  0.4761
  674MOL0     N90872  -0.369   4.994  11.970  0.5534 -0.7177 -0.4245
  674MOL0     C90873  -0.491   4.929  11.929  0.9644 -0.6339  0.1203
  674MOL0     C90874  -0.524   4.869  12.049  0.4045 -0.5409  0.4610
  674MOL0     C90875  -0.643   4.784  12.073 -0.6885  0.4020  0.5069
  674MOL0     C90876  -0.775   4.870  12.073  0.1699  0.1510  0.1226
  674MOL0     C90877  -0.842   4.880  11.931  0.2526  0.2385  0.5656
  674MOL0     C90878  -0.925   5.007  11.903 -0.8457 -0.1959  0.0276
  674MOL0     O90879  -1.021   5.050  12.005 -0.3952 -0.1121  0.1327
  674MOL0     C90880  -1.129   4.972  12.030  0.4171  0.0650  0.6681
  674MOL0     C90881  -1.196   4.980  12.157 -0.3720 -1.1646 -0.0940
  674MOL0     C90882  -1.323   4.925  12.189  0.3755  0.7715 -0.6770
  674MOL0     C90883  -1.373   4.958  12.326  0.0379  0.8559  0.1476
  674MOL0     C90884  -1.378   4.838  12.097  0.3482 -0.1804  0.1987
  674MOL0     C90885  -1.521   4.788  12.102 -0.2695 -0.0706 -0.4823
  674MOL0     O90886  -1.570   4.736  11.989  0.0250  0.3496  0.3191
  674MOL0     C90887  -1.696   4.684  11.983  0.5720  1.2525 -0.5494
  674MOL0     C90888  -1.783   4.652  12.089  0.0125 -0.3648  0.3798
  674MOL0     C90889  -1.918   4.625  12.063 -0.2098  0.6458 -0.3297
  674MOL0     C90890  -1.966   4.602  11.935 -0.4948  0.2814 -0.2773
  674MOL0     O90891  -2.087   4.541  11.936 -0.0659 -0.1018 -0.4149
  674MOL0     C90892  -2.146   4.496  11.806 -0.5475  0.1277 -1.1018
  674MOL0     C90893  -2.297   4.473  11.797  0.5845 -0.3688  1.7286
  674MOL0     C90894  -2.380   4.569  11.711 -0.1261 -0.0882 -0.0710
  674MOL0     C90895  -2.381   4.715  11.751  0.0846 -0.5113 -0.6354
  674MOL0     C90896  -2.495   4.781  11.677  0.0387  0.6363  0.2438
  674MOL0     C90897  -2.519   4.926  11.736 -0.5730  1.4331  0.1882
  674MOL0     C90898  -2.416   5.031  11.700  0.6650  0.3568 -0.0842
  674MOL0     C90899  -2.454   5.183  11.708  0.2960  1.1423  0.4783
  674MOL0    Cl90900  -2.564   5.223  11.580 -0.4154  0.3956 -0.0954
  674MOL0     C90901  -1.870   4.609  11.842  0.9392  0.1549 -0.2491
  674MOL0     C90902  -1.744   4.654  11.859  0.5383  1.0426 -0.2619
  674MOL0     O90903  -1.584   4.815  12.202  0.5688  0.0431 -1.1657
  674MOL0     C90904  -1.305   4.818  11.978 -0.5329  0.2385  0.2041
  674MOL0     C90905  -1.187   4.883  11.947  0.1076 -0.5771  0.3210
  674MOL0     N90906  -0.431   4.895  12.146  0.4285 -0.7912  0.2779
  674MOL0     N90907  -0.340   4.970  12.104 -0.3125  0.1466  1.3121
  674MOL0     C90908   0.745   5.233  11.263  0.4382  0.0672 -0.6565
  674MOL0     C90909   0.884   5.209  11.263 -0.2145 -0.1721  0.7158
  674MOL0     C90910   1.265   4.961  11.320  0.4335 -0.3360  0.3006
  674MOL0     C90911   1.348   5.024  11.423 -0.2184  0.3825 -0.5799
  674MOL0     C90912   1.486   4.998  11.428  0.2495 -0.0575  0.4319
  674MOL0     C90913   1.554   4.921  11.328  0.6737 -0.4380 -0.4127
  674MOL0     O90914   1.686   4.921  11.309 -0.5441  0.4251  0.1444
  674MOL0     C90915   1.781   4.972  11.410  0.8288  0.0850 -0.3391
  674MOL0     C90916   1.921   4.915  11.394  1.2164  0.2037 -0.4604
  674MOL0     C90917   1.907   4.762  11.383  0.3185 -0.1666  0.1584
  674MOL0     C90918   2.039   4.703  11.425  0.3903  0.6613 -0.1547
  674MOL0     C90919   2.156   4.743  11.346 -0.4330 -0.4704 -0.0319
  674MOL0     C90920   2.256   4.783  11.291 -0.5561  0.1602  0.4582
  674MOL0     C90921   1.470   4.859  11.230 -0.1685  0.2411  0.3787
  674MOL0     C90922   1.332   4.873  11.233 -0.1228 -0.3569  0.4396
  674MOL0     H90923   0.908   4.969  11.507  0.9463  1.6103  0.1770
  674MOL0     H90924   0.663   5.017  11.515 -0.2579 -0.9868 -1.8601
  674MOL0     H90925   0.456   4.994  11.364  2.7240  1.6557 -0.8537
  674MOL0     H90926   0.455   5.081  11.518 -1.0630 -2.3023  0.7305
  674MOL0     H90927   0.271   5.222  11.447 -1.5505 -1.0533  2.4509
  674MOL0     H90928   0.255   5.141  11.291  0.9972 -1.2865  0.0632
  674MOL0     H90929   0.164   4.949  11.413 -1.1105  1.4772 -1.2547
  674MOL0     H90930   0.269   4.971  11.554  0.9282  0.6267  0.6168
  674MOL0     H90931   0.144   5.166  11.619 -1.9056  0.5938  0.4482
  674MOL0     H90932   0.015   5.126  11.501 -0.1803 -0.8734 -0.9211
  674MOL0     H90933  -0.020   4.907  11.611  2.4815 -1.7640 -0.2187
  674MOL0     H90934   0.090   4.953  11.737 -0.6891  0.8687  0.0388
  674MOL0     H90935  -0.047   5.158  11.791 -0.9340 -0.1302  1.9353
  674MOL0     H90936  -0.160   5.121  11.666  2.4994  3.5121 -0.5643
  674MOL0     H90937  -0.234   4.916  11.763  1.3165 -0.3202  0.2306
  674MOL0     H90938  -0.116   4.931  11.887  1.8788  1.6640  0.3110
  674MOL0     H90939  -0.342   5.121  11.808  0.5154 -1.5241 -1.0653
  674MOL0     H90940  -0.228   5.154  11.944  0.4557 -1.1828  1.4206
  674MOL0     H90941  -0.537   4.926  11.831  1.7023 -0.5139 -0.2359
  674MOL0     H90942  -0.648   4.714  11.989  0.8239 -2.2321  2.4771
  674MOL0     H90943  -0.635   4.730  12.167 -1.1985  0.9414  0.8632
  674MOL0     H90944  -0.757   4.967  12.120  2.2252 -0.2143  0.1890
  674MOL0     H90945  -0.844   4.814  12.137  2.7785 -0.8992  2.1992
  674MOL0     H90946  -0.904   4.790  11.917 -1.2472  0.6018  3.8167
  674MOL0     H90947  -0.769   4.890  11.851 -0.5789  1.4259 -0.0771
  674MOL0     H90948  -0.969   4.987  11.805  2.1680 -0.1751 -1.4340
  674MOL0     H90949  -0.854   5.088  11.884 -1.5196 -0.0933 -2.3324
  674MOL0     H90950  -1.155   5.044  12.234  1.9556 -2.7983  0.1323
  674MOL0     H90951  -1.325   5.041  12.380 -1.1784  0.8929  1.2322
  674MOL0     H90952  -1.479   4.983  12.326  0.4823  2.9446  0.8172
  674MOL0     H90953  -1.351   4.868  12.385  1.2989 -0.7573 -2.5586
  674MOL0     H90954  -1.752   4.661  12.192 -3.2058  1.4497  1.3166
  674MOL0     H90955  -1.980   4.594  12.147  1.7939 -2.3412  0.1834
  674MOL0     H90956  -2.139   4.596  11.762  0.1427  2.2046  3.2118
  674MOL0     H90957  -2.086   4.420  11.755  0.3465  0.0920 -0.0327
  674MOL0     H90958  -2.305   4.375  11.749  0.0582 -0.0322  1.1007
  674MOL0     H90959  -2.339   4.473  11.898 -0.8788  3.2617  1.2651
  674MOL0     H90960  -2.484   4.535  11.722 -1.1840  2.5579 -1.0400
  674MOL0     H90961  -2.355   4.563  11.605 -0.6750 -3.6072 -0.1403
  674MOL0     H90962  -2.385   4.719  11.860  3.3977 -0.9078 -0.4191
  674MOL0     H90963  -2.293   4.772  11.722 -0.1583  1.4036  2.0358
  674MOL0     H90964  -2.586   4.722  11.692 -0.5005  0.8512 -1.8508
  674MOL0     H90965  -2.480   4.771  11.569 -2.6367 -0.1036 -0.1439
  674MOL0     H90966  -2.611   4.966  11.693 -0.1939  1.0413 -1.0236
  674MOL0     H90967  -2.524   4.912  11.845  4.6703 -2.1366  0.3301
  674MOL0     H90968  -2.379   5.011  11.599  3.5673 -1.0822  1.1559
  674MOL0     H90969  -2.328   5.016  11.764 -0.1973  0.6678  1.2073
  674MOL0     H90970  -2.357   5.232  11.694  1.0243 -0.3994 -0.2256
  674MOL0     H90971  -2.498   5.205  11.805  0.5341  1.6152  0.4805
  674MOL0     H90972  -1.890   4.573  11.741 -2.0290 -0.1808  0.3603
  674MOL0     H90973  -1.687   4.671  11.768 -1.3527  0.9262 -1.5338
  674MOL0     H90974  -1.331   4.771  11.884 -0.7855 -2.6040  1.5768
  674MOL0     H90975  -1.143   4.868  11.849 -2.9058 -2.4499 -0.9101
  674MOL0     H90976   0.699   5.306  11.198  0.1189 -1.4144 -2.1834
  674MOL0     H90977   0.949   5.278  11.210  1.4102  0.3073  3.2160
  674MOL0     H90978   1.304   5.098  11.489 -1.7683 -0.9508 -0.0291
  674MOL0     H90979   1.556   5.039  11.500  1.5040 -2.2803  0.5885
  674MOL0     H90980   1.784   5.080  11.395  1.8780 -0.1022 -1.7404
  674MOL0     H90981   1.745   4.942  11.509  2.1932 -0.7407 -0.0645
  674MOL0     H90982   1.968   4.949  11.487  0.9215  1.4286 -0.7490
  674MOL0     H90983   1.966   4.961  11.306  3.5934  0.7362  0.9559
  674MOL0     H90984   1.887   4.730  11.280  0.3630 -3.5678  1.0840
  674MOL0     H90985   1.827   4.725  11.448 -0.2684  1.9425  0.7189
  674MOL0     H90986   2.036   4.596  11.405 -1.5002  0.7748 -0.6784
  674MOL0     H90987   2.057   4.710  11.533  0.1927 -0.3205 -0.0494
  674MOL0     H90988   2.343   4.817  11.238 -1.7198 -0.7543 -2.1502
  674MOL0     H90989   1.511   4.792  11.155 -1.9730  0.3915 -0.7802
  674MOL0     H90990   1.279   4.820  11.154  0.1460 -2.0253  1.3371
  675MOL0     O90991   6.739   3.077   4.874 -0.4384  0.3079  0.1824
  675MOL0     C90992   6.819   3.091   4.786 -0.5583 -0.1842 -0.1071
  675MOL0     O90993   6.789   3.116   4.653 -0.5024  0.0278  0.4923
  675MOL0     C90994   6.653   3.100   4.613  0.3272  0.3716  0.3260
  675MOL0     C90995   6.556   3.188   4.663  0.1965 -0.4447  0.3769
  675MOL0     C90996   6.421   3.158   4.635 -0.8312  0.2171  0.6794
  675MOL0     C90997   6.384   3.046   4.544  0.5672 -0.2183 -0.9522
  675MOL0     O90998   6.255   3.018   4.510  0.5125  0.2445 -0.0105
  675MOL0     C90999   6.141   3.094   4.562  0.3591  0.6841 -0.8542
  675MOL0     C91000   6.111   3.055   4.710 -0.2903 -1.1048 -0.2849
  675MOL0     C91001   6.016   3.151   4.766 -0.8027  0.4764 -0.3654
  675MOL0     C91002   6.010   3.150   4.921 -0.2132 -0.1822 -0.5939
  675MOL0     C91003   5.930   3.273   4.977  0.4857  0.3632  0.2346
  675MOL0     C91004   5.783   3.283   4.931 -0.9454 -0.4599 -0.5406
  675MOL0     C91005   5.708   3.404   5.005 -0.7727  0.1108  1.0665
  675MOL0     C91006   5.561   3.401   4.964  0.2245 -0.0499 -0.2741
  675MOL0     N91007   5.522   3.494   4.855 -0.1444 -0.1278  0.3174
  675MOL0     C91008   5.475   3.624   4.864 -0.4483 -0.9363 -1.0443
  675MOL0     C91009   5.500   3.681   4.744 -0.2071 -1.3078  1.0096
  675MOL0     C91010   5.444   3.814   4.686 -0.3012 -0.0832  0.1950
  675MOL0     C91011   5.297   3.788   4.631 -0.1361 -0.0820 -0.0511
  675MOL0     C91012   5.237   3.904   4.550  0.3114  0.6877 -0.9128
  675MOL0     C91013   5.099   3.867   4.498  0.6642 -0.5377  0.0436
  675MOL0     O91014   5.017   3.809   4.595  0.4907 -0.5063  0.0427
  675MOL0     C91015   4.896   3.756   4.552  0.7869  0.0749  0.0303
  675MOL0     C91016   4.817   3.708   4.654  0.8537 -0.7554 -0.1278
  675MOL0     C91017   4.692   3.650   4.637 -0.0524  0.1767 -0.1294
  675MOL0     C91018   4.624   3.617   4.772  0.1705 -0.3928  0.0404
  675MOL0     C91019   4.642   3.646   4.505  0.3033  0.1059  0.0863
  675MOL0     C91020   4.500   3.611   4.473  0.0643 -1.1883 -0.2938
  675MOL0     O91021   4.452   3.671   4.353 -0.1423 -0.0995 -0.2639
  675MOL0     C91022   4.326   3.646   4.306 -0.5648 -0.3185  0.2651
  675MOL0     C91023   4.228   3.728   4.360  0.2419 -0.2009  0.3980
  675MOL0     C91024   4.104   3.726   4.297  0.0256  0.3081 -0.5220
  675MOL0     C91025   4.081   3.662   4.172 -0.0349 -0.5458 -0.9655
  675MOL0     O91026   3.959   3.667   4.115  0.7770 -0.4388  0.2137
  675MOL0     C91027   3.908   3.544   4.054  0.7191 -0.3014 -0.2062
  675MOL0     C91028   3.918   3.549   3.905  0.5202  0.0289  1.0317
  675MOL0     C91029   3.884   3.407   3.832  0.4995  0.4165 -0.2083
  675MOL0     C91030   3.995   3.307   3.842 -0.6474  0.6195  0.6227
  675MOL0     C91031   3.982   3.184   3.748  0.2057  0.5041  0.7414
  675MOL0     C91032   3.859   3.094   3.773 -0.7146 -0.0675  0.5952
  675MOL0     C91033   3.838   2.981   3.665  0.4617  0.4952  0.6013
  675MOL0     C91034   3.724   2.879   3.701 -0.0629  0.2389  0.6447
  675MOL0    Cl91035   3.568   2.968   3.659 -0.0238  0.0887  0.3777
  675MOL0     C91036   4.181   3.586   4.120  0.0366 -0.1598  0.0529
  675MOL0     C91037   4.308   3.581   4.179 -0.2633  0.1668 -0.5452
  675MOL0     O91038   4.429   3.547   4.552  0.0986  0.1008  0.1778
  675MOL0     C91039   4.727   3.688   4.398  0.0557 -0.7028 -0.7878
  675MOL0     C91040   4.854   3.738   4.426 -0.0546  0.5030  0.2210
  675MOL0     N91041   5.575   3.601   4.668  0.2033 -0.2747  0.3116
  675MOL0     N91042   5.583   3.489   4.735  0.5499 -0.2987  0.6215
  675MOL0     C91043   6.485   2.966   4.489 -0.8127  0.0436  0.1933
  675MOL0     C91044   6.624   2.995   4.524  0.6306  0.6047  0.1002
  675MOL0     C91045   6.963   3.067   4.817 -0.3721  0.2163  0.3320
  675MOL0     C91046   7.010   3.075   4.947 -0.0186  0.4009 -0.6505
  675MOL0     C91047   7.149   3.061   4.982  0.5984  0.2958  0.2022
  675MOL0     C91048   7.238   3.037   4.878 -0.0783 -0.0807 -0.4879
  675MOL0     O91049   7.372   3.025   4.893  0.0563 -0.3519  0.0879
  675MOL0     C91050   7.410   2.894   4.943 -0.7318 -0.1147  0.4083
  675MOL0     C91051   7.522   2.893   5.054 -0.0373 -0.4998  0.0557
  675MOL0     C91052   7.494   3.007   5.150 -0.2548 -1.0505 -0.2859
  675MOL0     C91053   7.626   3.033   5.234 -0.1458  1.1959  0.5010
  675MOL0     C91054   7.742   3.056   5.149  0.3838 -0.1589 -0.3388
  675MOL0     C91055   7.849   3.063   5.098  0.1187 -0.4370  0.9602
  675MOL0     C91056   7.190   3.018   4.749  0.1487  0.1376  0.8564
  675MOL0     C91057   7.059   3.036   4.721 -0.0654  1.4513 -0.0577
  675MOL0     H91058   6.595   3.273   4.717  1.6013 -0.6355 -0.3044
  675MOL0     H91059   6.339   3.225   4.656 -1.9468 -0.0879 -2.1764
  675MOL0     H91060   6.151   3.202   4.548  6.3011  0.7146  0.9086
  675MOL0     H91061   6.052   3.061   4.508  0.0901 -0.5564  0.2820
  675MOL0     H91062   6.086   2.949   4.721  1.5378 -1.3874  2.0150
  675MOL0     H91063   6.202   3.063   4.771  0.6896 -0.7193 -1.7283
  675MOL0     H91064   6.043   3.245   4.716  2.5478 -0.6662 -0.9639
  675MOL0     H91065   5.915   3.133   4.728 -1.1101  2.7895 -0.8152
  675MOL0     H91066   5.966   3.052   4.944  2.8391 -1.7173 -0.8161
  675MOL0     H91067   6.109   3.148   4.966 -0.3500 -1.5993 -0.3146
  675MOL0     H91068   5.935   3.264   5.086  0.9757 -3.9115  0.0109
  675MOL0     H91069   5.969   3.368   4.938 -0.9659  0.3575 -1.3220
  675MOL0     H91070   5.778   3.278   4.821 -0.0054 -2.3644 -0.5413
  675MOL0     H91071   5.734   3.191   4.965  1.9868 -0.5398  4.3270
  675MOL0     H91072   5.726   3.373   5.109 -2.7774 -2.9160  0.6354
  675MOL0     H91073   5.748   3.505   4.996 -2.6057  0.7054 -1.4396
  675MOL0     H91074   5.508   3.429   5.056 -1.0005 -1.9536 -0.3517
  675MOL0     H91075   5.536   3.298   4.940 -1.0254 -0.7395  3.3253
  675MOL0     H91076   5.397   3.659   4.930  0.6999 -2.1956  1.0785
  675MOL0     H91077   5.447   3.890   4.764 -0.1515  0.4226 -0.2987
  675MOL0     H91078   5.510   3.834   4.601  0.1213  0.1438  0.5713
  675MOL0     H91079   5.232   3.762   4.716  1.6689  0.0120  1.4306
  675MOL0     H91080   5.314   3.700   4.569  0.8464 -2.7543  3.6307
  675MOL0     H91081   5.303   3.924   4.465  0.8416 -1.2393 -0.9975
  675MOL0     H91082   5.240   3.996   4.608  1.7389 -0.1501  0.4146
  675MOL0     H91083   5.106   3.790   4.420  0.8706 -1.1110  0.6237
  675MOL0     H91084   5.046   3.952   4.453  2.1364 -0.9194 -2.6341
  675MOL0     H91085   4.854   3.724   4.755 -0.8500  0.6415  0.3446
  675MOL0     H91086   4.570   3.523   4.783 -0.0940 -0.6051 -2.4500
  675MOL0     H91087   4.694   3.623   4.856 -0.3137  0.8186  0.3701
  675MOL0     H91088   4.550   3.697   4.770  1.3491  0.7979 -3.2313
  675MOL0     H91089   4.248   3.781   4.452  0.9440 -0.6655  0.5191
  675MOL0     H91090   4.023   3.781   4.345  0.2406 -0.9755  1.4426
  675MOL0     H91091   3.961   3.456   4.091  2.0959  0.4440 -0.3282
  675MOL0     H91092   3.801   3.532   4.076  0.5123  0.7330 -0.5839
  675MOL0     H91093   3.851   3.622   3.860  0.2938  0.0528  1.4033
  675MOL0     H91094   4.021   3.576   3.879  1.8670 -3.7791  1.6615
  675MOL0     H91095   3.859   3.425   3.727 -0.5249  4.2749  0.5279
  675MOL0     H91096   3.796   3.373   3.887 -0.6246  2.6978 -0.4639
  675MOL0     H91097   4.093   3.349   3.818  1.6080 -4.5287 -0.6624
  675MOL0     H91098   4.016   3.270   3.942 -0.2198 -1.9226 -0.3330
  675MOL0     H91099   4.075   3.128   3.758  0.3258  1.1423  4.2116
  675MOL0     H91100   3.970   3.215   3.643  0.5246  0.8656  0.8098
  675MOL0     H91101   3.888   3.045   3.867 -2.5309  0.3266  1.3973
  675MOL0     H91102   3.766   3.149   3.783 -1.8852 -1.0850 -3.2093
  675MOL0     H91103   3.932   2.925   3.664  1.2427  1.7545  1.3006
  675MOL0     H91104   3.817   3.030   3.569 -3.8936  0.4724  1.3309
  675MOL0     H91105   3.729   2.845   3.805 -1.7949 -0.0545  0.6534
  675MOL0     H91106   3.729   2.789   3.639  1.3815  1.0006 -0.4313
  675MOL0     H91107   4.161   3.541   4.023 -1.5090  0.3711  0.1146
  675MOL0     H91108   4.388   3.516   4.145 -1.4954 -1.2076 -0.9278
  675MOL0     H91109   4.697   3.694   4.294  0.5043 -4.0623 -1.2061
  675MOL0     H91110   4.912   3.770   4.340  0.4587  0.2827  0.4874
  675MOL0     H91111   6.462   2.881   4.425  1.4233 -1.5852  1.4300
  675MOL0     H91112   6.701   2.931   4.483 -0.2663  2.1086 -4.5364
  675MOL0     H91113   6.933   3.089   5.022  0.2325  1.4345 -0.5754
  675MOL0     H91114   7.188   3.071   5.083 -0.3715  1.2775  0.4934
  675MOL0     H91115   7.328   2.833   4.983 -0.3412 -0.9673 -0.0777
  675MOL0     H91116   7.459   2.835   4.866 -1.3134  0.7633 -0.6537
  675MOL0     H91117   7.620   2.903   5.006  2.6692 -3.4948  4.2349
  675MOL0     H91118   7.514   2.797   5.106 -1.3505  0.2183  1.2515
  675MOL0     H91119   7.420   2.965   5.220  1.9554 -0.1713  2.8173
  675MOL0     H91120   7.454   3.099   5.106  0.0017 -0.9785 -0.3682
  675MOL0     H91121   7.637   2.949   5.302 -1.5782  1.3298  0.9235
  675MOL0     H91122   7.614   3.126   5.291  1.5899  1.7083  0.0917
  675MOL0     H91123   7.942   3.057   5.045 -0.3686  0.6731 -0.0550
  675MOL0     H91124   7.263   2.984   4.676  0.3327 -0.6247  1.3792
  675MOL0     H91125   7.046   3.029   4.613 -0.3919  1.7167 -0.0387
  676MOL0     O91126  10.028   3.639   2.704  0.7207  0.5799  0.0329
  676MOL0     C91127   9.993   3.574   2.801 -0.8864 -0.5754 -0.4206
  676MOL0     O91128   9.875   3.587   2.873 -0.2868  0.1768  0.4838
  676MOL0     C91129   9.769   3.655   2.818 -0.3966 -0.1670  0.1792
  676MOL0     C91130   9.750   3.698   2.686 -0.0803 -0.9194 -0.8494
  676MOL0     C91131   9.641   3.782   2.655 -0.0326 -0.1301  0.1733
  676MOL0     C91132   9.547   3.814   2.750 -0.4513  0.3428 -1.0591
  676MOL0     O91133   9.431   3.870   2.720 -0.1816  0.4929  0.1756
  676MOL0     C91134   9.425   4.008   2.677 -0.0200  0.1120 -0.4328
  676MOL0     C91135   9.488   4.103   2.780  1.0341 -0.1336 -0.4044
  676MOL0     C91136   9.378   4.137   2.883  0.0155  0.3028  0.8874
  676MOL0     C91137   9.312   4.029   2.961 -0.3048  0.1968 -0.5937
  676MOL0     C91138   9.197   4.080   3.053 -0.9453 -0.2304 -0.4608
  676MOL0     C91139   9.160   3.964   3.154  0.0177 -0.1593  0.2475
  676MOL0     C91140   9.032   3.977   3.235 -0.5565  0.5056  0.1863
  676MOL0     C91141   8.906   4.001   3.141 -0.4868 -0.4709 -0.4213
  676MOL0     N91142   8.787   4.022   3.216 -0.2216 -0.5767 -0.3988
  676MOL0     C91143   8.727   3.932   3.302 -0.3569  1.2857 -0.1222
  676MOL0     C91144   8.603   3.972   3.309 -0.3072  0.6442  0.6175
  676MOL0     C91145   8.503   3.899   3.378 -0.1175  1.0003 -0.3319
  676MOL0     C91146   8.546   3.846   3.519  0.1040 -0.0285  0.3431
  676MOL0     C91147   8.589   3.944   3.628  0.5888  0.7754 -0.5089
  676MOL0     C91148   8.485   4.034   3.684  0.2459 -0.3878  0.9267
  676MOL0     O91149   8.385   3.969   3.757  0.3613  0.5111  0.4918
  676MOL0     C91150   8.274   4.041   3.786  0.2819 -0.5736  1.5868
  676MOL0     C91151   8.164   3.984   3.842 -0.2819 -0.1329 -0.6433
  676MOL0     C91152   8.053   4.061   3.890 -0.2544  0.8070 -0.1861
  676MOL0     C91153   7.944   3.978   3.948  0.0745  0.0908 -0.5098
  676MOL0     C91154   8.048   4.203   3.876  0.1794 -0.2981  0.3420
  676MOL0     C91155   7.940   4.301   3.923  0.6454 -0.1856 -1.2385
  676MOL0     O91156   7.843   4.247   4.005  0.3274  0.2607  0.3662
  676MOL0     C91157   7.747   4.327   4.067  0.0325  0.0850 -0.9994
  676MOL0     C91158   7.616   4.323   4.023  0.6241 -0.6607 -1.0149
  676MOL0     C91159   7.512   4.403   4.074  0.4205  0.0504 -0.5128
  676MOL0     C91160   7.536   4.493   4.179 -1.0414 -0.0089 -0.1048
  676MOL0     O91161   7.449   4.577   4.239  0.8198  0.3664 -0.6147
  676MOL0     C91162   7.325   4.521   4.274  0.0048 -0.4368 -1.0050
  676MOL0     C91163   7.298   4.565   4.421  0.0334 -0.0711  0.0752
  676MOL0     C91164   7.324   4.714   4.435 -0.3062 -0.4095 -0.8768
  676MOL0     C91165   7.282   4.759   4.567  0.5821 -0.3284 -0.2237
  676MOL0     C91166   7.269   4.914   4.583 -0.3393 -0.3131  0.2510
  676MOL0     C91167   7.145   4.958   4.515  0.2725  0.4079  0.6743
  676MOL0     C91168   7.100   5.109   4.529 -0.3820  0.4372  0.8855
  676MOL0     C91169   6.994   5.145   4.417 -0.0669  1.2104  0.1185
  676MOL0    Cl91170   6.834   5.122   4.469  0.1117  0.5381 -0.6097
  676MOL0     C91171   7.674   4.510   4.214 -0.2740  0.0165  0.1022
  676MOL0     C91172   7.772   4.431   4.153  0.2626  0.1944 -1.4889
  676MOL0     O91173   7.955   4.425   3.902 -0.0187  0.4026 -0.0629
  676MOL0     C91174   8.159   4.256   3.808 -0.4265 -0.5109 -0.2236
  676MOL0     C91175   8.262   4.177   3.763  0.5620 -0.2351 -0.0703
  676MOL0     N91176   8.586   4.085   3.232 -0.7641 -0.5044 -0.4456
  676MOL0     N91177   8.702   4.120   3.193  0.2361 -0.7031 -0.9026
  676MOL0     C91178   9.556   3.760   2.877  0.2126  0.8284  0.0534
  676MOL0     C91179   9.666   3.678   2.910 -0.1411  0.0127  0.4121
  676MOL0     C91180  10.088   3.492   2.868 -0.8976 -0.8530 -0.3359
  676MOL0     C91181  10.228   3.509   2.834 -0.1562 -0.0026 -0.0891
  676MOL0     C91182  10.310   3.419   2.888  0.0111  0.5135 -0.9651
  676MOL0     C91183  10.269   3.327   2.985  0.1683  0.0171  0.0221
  676MOL0     O91184  10.346   3.253   3.072 -0.6292  0.5391 -0.4748
  676MOL0     C91185  10.490   3.273   3.073  0.1303  0.2890 -0.3338
  676MOL0     C91186  10.548   3.174   2.970  0.0270  0.3434  0.3376
  676MOL0     C91187  10.700   3.204   2.964  0.3148  0.6709 -0.2350
  676MOL0     C91188  10.761   3.131   2.846 -0.1343 -0.2096 -0.4944
  676MOL0     C91189  10.889   3.187   2.823  0.4853 -0.0112 -0.4674
  676MOL0     C91190  10.999   3.232   2.796  0.1261 -0.3387  0.2242
  676MOL0     C91191  10.136   3.319   3.011 -0.1625  0.1862  0.0146
  676MOL0     C91192  10.040   3.391   2.951 -0.5686  0.0622  0.3430
  676MOL0     H91193   9.823   3.670   2.610  0.4091 -2.3463  0.1268
  676MOL0     H91194   9.622   3.819   2.554 -0.7523  0.3318  0.4699
  676MOL0     H91195   9.473   4.022   2.580 -0.0527 -1.4677 -0.7026
  676MOL0     H91196   9.318   4.031   2.668 -0.3379 -0.7747  0.8299
  676MOL0     H91197   9.581   4.065   2.824  1.2032 -0.8159 -1.3122
  676MOL0     H91198   9.501   4.196   2.725 -0.1964 -0.0253 -0.5468
  676MOL0     H91199   9.417   4.204   2.960  1.8972 -0.2567  0.4734
  676MOL0     H91200   9.299   4.198   2.836  0.2079 -1.7633 -2.4548
  676MOL0     H91201   9.269   3.954   2.894  0.9470 -0.1521 -1.0361
  676MOL0     H91202   9.385   3.979   3.024 -0.1885  0.4617 -0.5164
  676MOL0     H91203   9.227   4.165   3.114  1.2898 -2.2355  1.4861
  676MOL0     H91204   9.124   4.116   2.981 -2.5895 -0.2907  1.1280
  676MOL0     H91205   9.147   3.874   3.093  3.2002 -1.1243  0.8199
  676MOL0     H91206   9.244   3.945   3.221  4.0815  1.5511 -3.8363
  676MOL0     H91207   9.014   3.884   3.289  1.3218 -0.7741 -1.2619
  676MOL0     H91208   9.039   4.062   3.304  2.3721  0.1681  0.4326
  676MOL0     H91209   8.892   3.913   3.076 -0.0503 -1.0517  0.2509
  676MOL0     H91210   8.915   4.085   3.072  2.4232 -1.1807 -1.0320
  676MOL0     H91211   8.774   3.844   3.346 -0.5699  0.1146 -2.1050
  676MOL0     H91212   8.412   3.960   3.382 -0.3720  0.7072 -1.4418
  676MOL0     H91213   8.492   3.804   3.325  0.6785  0.1750  0.9226
  676MOL0     H91214   8.631   3.777   3.517 -0.1861 -0.3914  0.4008
  676MOL0     H91215   8.469   3.778   3.557 -0.9574 -0.8303 -2.9292
  676MOL0     H91216   8.674   4.000   3.589  1.3192  1.9214  2.4614
  676MOL0     H91217   8.616   3.872   3.706 -0.7774 -2.2557 -2.6204
  676MOL0     H91218   8.435   4.079   3.597  1.2018  0.7490  0.9440
  676MOL0     H91219   8.541   4.103   3.748  1.8933  0.7275 -1.5382
  676MOL0     H91220   8.170   3.876   3.846  2.3579 -0.0571 -0.9156
  676MOL0     H91221   7.943   3.877   3.908  1.5566 -0.3112  0.3674
  676MOL0     H91222   7.924   3.984   4.055 -0.1362 -0.4787 -0.5147
  676MOL0     H91223   7.857   4.028   3.905 -0.3814 -1.7775 -1.8611
  676MOL0     H91224   7.599   4.264   3.934  1.2731  3.6837 -4.3872
  676MOL0     H91225   7.413   4.405   4.031 -0.6864  1.0358  1.9096
  676MOL0     H91226   7.248   4.570   4.214 -3.3105 -0.7632  2.5431
  676MOL0     H91227   7.314   4.412   4.265 -2.5035 -0.1392 -2.7081
  676MOL0     H91228   7.199   4.536   4.457 -1.2420  2.7414 -0.8518
  676MOL0     H91229   7.370   4.510   4.481  4.0816  1.0279 -3.2786
  676MOL0     H91230   7.269   4.764   4.354 -4.0176 -0.6909  1.2482
  676MOL0     H91231   7.430   4.733   4.415 -0.3418 -0.1920 -0.8688
  676MOL0     H91232   7.189   4.712   4.598  1.5726 -2.0939  0.2228
  676MOL0     H91233   7.355   4.722   4.640  1.6142  2.5684  0.3743
  676MOL0     H91234   7.361   4.964   4.551  0.3964 -1.8547 -0.1865
  676MOL0     H91235   7.257   4.948   4.686 -0.7490  2.2570 -0.5831
  676MOL0     H91236   7.171   4.945   4.410 -3.2102 -1.1158 -0.1125
  676MOL0     H91237   7.055   4.898   4.532  1.0085 -0.2548  2.5005
  676MOL0     H91238   7.186   5.177   4.530 -0.3545  0.5027  4.0464
  676MOL0     H91239   7.049   5.113   4.626  0.5165  0.8952  1.3586
  676MOL0     H91240   7.005   5.082   4.328 -1.4093 -0.7079  1.2102
  676MOL0     H91241   7.015   5.250   4.396 -1.3483  1.7686  1.4169
  676MOL0     H91242   7.689   4.578   4.297 -2.1937  0.9652 -0.2789
  676MOL0     H91243   7.868   4.461   4.192 -1.3698  1.8908  1.6175
  676MOL0     H91244   8.155   4.365   3.803  1.3279 -0.4134 -0.1759
  676MOL0     H91245   8.341   4.229   3.710  0.8354  1.1210  1.5625
  676MOL0     H91246   9.489   3.773   2.962  2.4880  0.9145  1.9166
  676MOL0     H91247   9.673   3.647   3.013 -2.4544  0.7483  0.8552
  676MOL0     H91248  10.262   3.582   2.761 -0.8620  1.5490  1.0677
  676MOL0     H91249  10.415   3.428   2.859  0.1676  1.1817 -0.2082
  676MOL0     H91250  10.513   3.378   3.054 -0.0511  0.6708  1.4083
  676MOL0     H91251  10.518   3.251   3.176  1.5211 -0.3836 -0.8315
  676MOL0     H91252  10.505   3.193   2.871  0.1296  1.9014  0.5729
  676MOL0     H91253  10.518   3.072   2.998  0.9745 -0.6947 -2.1501
  676MOL0     H91254  10.736   3.184   3.065  1.0133  1.3276 -0.3424
  676MOL0     H91255  10.700   3.311   2.939 -0.1932  0.6931 -0.1568
  676MOL0     H91256  10.691   3.148   2.764  0.7390 -1.0118 -1.4399
  676MOL0     H91257  10.768   3.024   2.869  0.0242 -0.2853 -0.8883
  676MOL0     H91258  11.102   3.256   2.778 -0.3625  0.7949 -1.2238
  676MOL0     H91259  10.096   3.239   3.073  0.8301 -2.5912 -2.6673
  676MOL0     H91260   9.936   3.376   2.981 -1.1779  0.2745 -1.5164
  677MOL0     O91261  11.335   9.284   1.765  0.0526  0.2585  0.5916
  677MOL0     C91262  11.333   9.375   1.677 -0.5102  1.0604  0.1128
  677MOL0     O91263  11.227   9.452   1.635  0.6897 -0.0261 -0.6083
  677MOL0     C91264  11.118   9.454   1.717  1.1067 -0.7564 -0.1792
  677MOL0     C91265  11.014   9.367   1.717  0.1001 -0.0281 -0.3428
  677MOL0     C91266  10.914   9.367   1.822 -1.1503 -0.0963 -0.1587
  677MOL0     C91267  10.921   9.463   1.925 -0.3432 -0.2050 -0.0565
  677MOL0     O91268  10.827   9.459   2.027 -0.2469  1.2715 -0.0629
  677MOL0     C91269  10.758   9.581   2.056  0.0043 -0.1786 -0.7877
  677MOL0     C91270  10.813   9.632   2.193 -0.1380 -0.3355  0.8193
  677MOL0     C91271  10.724   9.751   2.245  0.1490  0.5154 -0.9070
  677MOL0     C91272  10.789   9.807   2.372 -0.6597  0.7660 -0.2212
  677MOL0     C91273  10.925   9.874   2.353 -0.0324 -0.6505  0.0764
  677MOL0     C91274  10.925   9.979   2.237 -0.1560  0.2569  0.2655
  677MOL0     C91275  11.048  10.072   2.240 -0.2184  0.6392 -0.2008
  677MOL0     C91276  11.060  10.165   2.354 -0.1711 -1.7254 -0.2667
  677MOL0     N91277  11.189  10.235   2.343 -0.0788  1.1813  0.3422
  677MOL0     C91278  11.315  10.173   2.360 -0.5337  0.2819 -0.7764
  677MOL0     C91279  11.397  10.281   2.359  0.2734  0.0880  0.2333
  677MOL0     C91280  11.550  10.275   2.369 -0.3156 -0.6481 -0.2065
  677MOL0     C91281  11.600  10.142   2.416 -0.0504 -0.1136 -0.5145
  677MOL0     C91282  11.747  10.122   2.396  0.3770 -0.4668 -0.2824
  677MOL0     C91283  11.845  10.197   2.482 -0.2843 -0.8670  0.2640
  677MOL0     O91284  11.969  10.225   2.410  0.4416  0.1854  0.5799
  677MOL0     C91285  12.081  10.249   2.491 -0.0657  1.0038 -0.1894
  677MOL0     C91286  12.076  10.323   2.610  0.8011  0.2975 -0.6816
  677MOL0     C91287  12.185  10.380   2.681 -0.6429  0.0196 -1.4189
  677MOL0     C91288  12.161  10.476   2.792  0.2501 -0.6976 -0.4036
  677MOL0     C91289  12.319  10.340   2.640  0.5084 -1.2171  0.1085
  677MOL0     C91290  12.450  10.383   2.712  0.2422 -0.2848 -1.4488
  677MOL0     O91291  12.450  10.419   2.845  0.3543  0.0915  0.9737
  677MOL0     C91292  12.565  10.460   2.913  0.4074  0.5505  0.2532
  677MOL0     C91293  12.610  10.394   3.028  0.7033 -0.1302 -0.5110
  677MOL0     C91294  12.726  10.449   3.087 -0.0138  0.2896 -0.1311
  677MOL0     C91295  12.802  10.561   3.027  0.6365  0.8677 -0.7382
  677MOL0     O91296  12.916  10.619   3.079 -0.1289  0.1281 -0.7464
  677MOL0     C91297  12.982  10.562   3.195  0.4070  0.0568 -0.0329
  677MOL0     C91298  13.126  10.628   3.213 -0.0921 -0.3364  0.1295
  677MOL0     C91299  13.190  10.612   3.343 -0.6509 -0.4509  0.4446
  677MOL0     C91300  13.321  10.691   3.358 -0.0286 -0.1080  0.2533
  677MOL0     C91301  13.391  10.645   3.482 -0.3985  0.1593  0.2203
  677MOL0     C91302  13.532  10.694   3.475  0.3259 -0.4018 -0.3764
  677MOL0     C91303  13.622  10.644   3.587  0.4563 -0.7137 -0.3646
  677MOL0     C91304  13.761  10.716   3.589 -0.2123 -0.2448 -0.2845
  677MOL0    Cl91305  13.749  10.896   3.563 -0.1158  0.1150 -0.2624
  677MOL0     C91306  12.745  10.623   2.912 -0.0032 -0.4729 -0.0812
  677MOL0     C91307  12.627  10.571   2.855  0.6158 -0.2128  0.1937
  677MOL0     O91308  12.553  10.367   2.646 -0.3499 -0.0382  0.6181
  677MOL0     C91309  12.331  10.262   2.521  0.7177 -0.1841 -0.1292
  677MOL0     C91310  12.210  10.229   2.450  0.5216  0.4207 -0.1250
  677MOL0     N91311  11.325  10.402   2.336 -0.6518 -0.5285 -0.1172
  677MOL0     N91312  11.196  10.368   2.335  0.6816  0.0555 -0.2174
  677MOL0     C91313  11.029   9.545   1.914 -0.3154 -0.5596 -0.0688
  677MOL0     C91314  11.125   9.550   1.815  0.2256  0.4385  0.1330
  677MOL0     C91315  11.458   9.397   1.604  0.2569  0.0804 -0.4928
  677MOL0     C91316  11.460   9.463   1.485  0.3434 -0.1480 -0.1087
  677MOL0     C91317  11.578   9.490   1.412 -0.3681 -0.0937  0.1272
  677MOL0     C91318  11.701   9.458   1.466 -0.7771  0.5479  0.2571
  677MOL0     O91319  11.823   9.466   1.397 -0.0203 -0.2014 -0.2772
  677MOL0     C91320  11.823   9.542   1.275  0.1741  0.3039 -0.5186
  677MOL0     C91321  11.963   9.585   1.239 -0.5874 -0.2283 -0.1246
  677MOL0     C91322  12.031   9.669   1.354  0.0391 -0.3207  0.8143
  677MOL0     C91323  12.184   9.687   1.336  0.3155  0.8309  0.0716
  677MOL0     C91324  12.250   9.546   1.346  0.4008 -0.3123 -0.5484
  677MOL0     C91325  12.315   9.442   1.351  0.0693 -0.6382 -0.0528
  677MOL0     C91326  11.705   9.388   1.585 -0.0030 -0.1711  0.5919
  677MOL0     C91327  11.585   9.359   1.660 -0.4792 -0.3778  0.5733
  677MOL0     H91328  11.002   9.297   1.635 -3.2415 -1.0184  0.8457
  677MOL0     H91329  10.827   9.302   1.824 -2.5528  1.6771  2.0605
  677MOL0     H91330  10.768   9.661   1.983  2.3190  0.1680 -0.1654
  677MOL0     H91331  10.651   9.559   2.064 -0.5297  2.1785 -0.9224
  677MOL0     H91332  10.800   9.559   2.274 -2.3385  0.7912  1.5625
  677MOL0     H91333  10.918   9.653   2.173  0.0508 -2.0946 -0.3312
  677MOL0     H91334  10.725   9.836   2.176  4.4029 -0.0782 -1.8922
  677MOL0     H91335  10.626   9.706   2.263  0.1348  0.8309 -0.1851
  677MOL0     H91336  10.725   9.881   2.422 -1.1533  0.6258 -0.6395
  677MOL0     H91337  10.810   9.720   2.435 -0.7636  1.8147  1.3335
  677MOL0     H91338  10.935   9.932   2.445 -4.5097  1.0612 -0.2805
  677MOL0     H91339  11.006   9.801   2.342  0.2969 -0.1972 -0.6620
  677MOL0     H91340  10.944   9.921   2.146 -0.9324  0.9246 -0.3357
  677MOL0     H91341  10.836  10.036   2.209  1.3260  0.8862 -3.7203
  677MOL0     H91342  11.137  10.011   2.224 -0.4515  1.0934 -4.2014
  677MOL0     H91343  11.040  10.133   2.150 -1.0148  2.3338  0.9588
  677MOL0     H91344  11.049  10.113   2.450 -0.4656  0.7952  1.1766
  677MOL0     H91345  10.974  10.231   2.341 -1.0758 -3.3412 -3.5630
  677MOL0     H91346  11.333  10.069   2.386  1.2483  0.8701  0.5552
  677MOL0     H91347  11.597  10.291   2.271 -0.0098  0.6588  0.1388
  677MOL0     H91348  11.588  10.351   2.437  3.5951  2.0980 -4.8185
  677MOL0     H91349  11.548  10.066   2.356 -0.7120  1.6163 -2.2398
  677MOL0     H91350  11.571  10.130   2.521 -1.9743  1.9660 -0.7315
  677MOL0     H91351  11.777  10.126   2.291  0.0243  2.1235 -0.3511
  677MOL0     H91352  11.775  10.021   2.427  0.6907  0.3735  2.4338
  677MOL0     H91353  11.863  10.136   2.571 -0.1738  0.3197  1.0708
  677MOL0     H91354  11.794  10.290   2.511  2.1881  0.8290 -0.5490
  677MOL0     H91355  11.982  10.366   2.641  1.8693  1.6874  0.8056
  677MOL0     H91356  12.054  10.497   2.799 -0.5968 -4.6339  2.5574
  677MOL0     H91357  12.188  10.426   2.886 -0.0052 -0.0640  0.0176
  677MOL0     H91358  12.219  10.568   2.782 -1.9382  0.9812  1.1825
  677MOL0     H91359  12.574  10.301   3.070  0.8250 -0.2942 -0.7709
  677MOL0     H91360  12.756  10.405   3.182  0.7278 -2.4298 -1.5357
  677MOL0     H91361  12.931  10.574   3.290  0.8529 -2.0716  0.5378
  677MOL0     H91362  12.996  10.454   3.184 -2.0658 -0.2643 -0.6599
  677MOL0     H91363  13.182  10.580   3.132  0.0864  0.3055 -0.1357
  677MOL0     H91364  13.119  10.733   3.184 -1.5745 -0.5218 -0.2424
  677MOL0     H91365  13.207  10.506   3.365  1.1771 -0.3803 -0.4417
  677MOL0     H91366  13.125  10.649   3.423  2.2750  2.2830  1.7679
  677MOL0     H91367  13.381  10.667   3.269 -1.3380 -1.4678 -0.3175
  677MOL0     H91368  13.298  10.798   3.364 -0.3006 -0.2053  1.1790
  677MOL0     H91369  13.386  10.537   3.493 -2.8050 -0.0654 -2.2208
  677MOL0     H91370  13.344  10.693   3.568 -1.5163  0.0795 -0.3284
  677MOL0     H91371  13.582  10.660   3.384  1.6554 -0.1371  0.2361
  677MOL0     H91372  13.525  10.802   3.485  0.9410 -0.4233  0.4047
  677MOL0     H91373  13.639  10.536   3.584 -0.5389 -0.9114  0.6679
  677MOL0     H91374  13.573  10.675   3.680 -0.7435 -0.8572 -0.9254
  677MOL0     H91375  13.829  10.675   3.514 -0.2109  1.4260 -1.2395
  677MOL0     H91376  13.797  10.699   3.691 -2.5064 -0.6572  0.5311
  677MOL0     H91377  12.803  10.705   2.871  3.8820 -2.6250  0.6430
  677MOL0     H91378  12.588  10.625   2.769  0.2640  0.3188  0.6818
  677MOL0     H91379  12.430  10.229   2.491  0.8845  0.9737 -0.9477
  677MOL0     H91380  12.222  10.177   2.356 -1.4370 -1.3798  0.5522
  677MOL0     H91381  11.032   9.629   1.983  1.6607  1.2130 -2.1646
  677MOL0     H91382  11.206   9.622   1.816  1.1002 -0.4653 -1.6139
  677MOL0     H91383  11.372   9.505   1.438  1.4293 -0.4555 -2.5891
  677MOL0     H91384  11.561   9.541   1.318  1.1199 -1.5818 -1.0144
  677MOL0     H91385  11.778   9.495   1.187 -1.1047  1.7699 -0.6888
  677MOL0     H91386  11.761   9.630   1.294  2.1884  1.5761  0.4381
  677MOL0     H91387  11.963   9.654   1.154 -0.9365 -2.2682 -1.8296
  677MOL0     H91388  12.019   9.493   1.220  0.6475  0.4692 -0.0297
  677MOL0     H91389  12.018   9.620   1.451  0.9617  0.6335  1.4311
  677MOL0     H91390  11.975   9.763   1.349  2.9868  1.4828 -0.3546
  677MOL0     H91391  12.213   9.759   1.412  1.7630  1.2136 -0.8081
  677MOL0     H91392  12.207   9.728   1.237 -0.3431 -0.3727 -0.6103
  677MOL0     H91393  12.376   9.355   1.340 -0.4531 -0.8384 -1.7234
  677MOL0     H91394  11.800   9.365   1.631  0.0226  1.3335  1.3670
  677MOL0     H91395  11.589   9.322   1.762  0.4182 -1.6981  0.0749
  678MOL0     O91396   1.217   2.284  10.425 -0.1629  0.1341 -0.0566
  678MOL0     C91397   1.247   2.194  10.344  0.3678 -1.5215 -0.3119
  678MOL0     O91398   1.157   2.105  10.289  0.1338 -0.4888 -0.8842
  678MOL0     C91399   1.030   2.075  10.341  0.0627  0.6037 -0.3403
  678MOL0     C91400   0.986   2.095  10.472  0.2664 -0.5120  0.3439
  678MOL0     C91401   0.855   2.058  10.503  0.2543 -0.5656 -0.2528
  678MOL0     C91402   0.762   2.002  10.411  0.7542  0.5561  0.0386
  678MOL0     O91403   0.634   1.972  10.446 -0.6515  0.2036  0.1035
  678MOL0     C91404   0.624   1.903  10.571 -0.1787 -0.3310  0.1536
  678MOL0     C91405   0.496   1.815  10.586 -1.0218  0.0699 -0.1311
  678MOL0     C91406   0.376   1.904  10.556 -0.2605  0.4486 -1.0089
  678MOL0     C91407   0.257   1.836  10.617  0.5672 -0.0379 -0.2671
  678MOL0     C91408   0.132   1.913  10.588  0.6688 -0.6961  0.1464
  678MOL0     C91409   0.004   1.831  10.635 -0.5170 -0.1168 -0.2654
  678MOL0     C91410  -0.112   1.931  10.656  0.6584  0.8352 -0.5935
  678MOL0     C91411  -0.118   2.002  10.795  0.0085 -0.6457 -0.5544
  678MOL0     N91412  -0.233   2.089  10.832 -0.9338  0.0241  0.4790
  678MOL0     C91413  -0.362   2.065  10.794  0.3214 -0.4216  0.3962
  678MOL0     C91414  -0.443   2.148  10.870  0.5690 -0.6270 -0.0995
  678MOL0     C91415  -0.590   2.169  10.865 -0.2505 -0.1929  0.3869
  678MOL0     C91416  -0.622   2.293  10.779  0.0783  0.9661  0.8137
  678MOL0     C91417  -0.783   2.286  10.767 -0.2343  0.0471 -0.2418
  678MOL0     C91418  -0.845   2.390  10.678 -0.6319 -0.5500  1.2035
  678MOL0     O91419  -0.800   2.378  10.539 -0.0166 -0.3398  0.5912
  678MOL0     C91420  -0.872   2.465  10.453 -0.2721 -0.4937 -0.8944
  678MOL0     C91421  -0.934   2.596  10.484 -0.3842 -0.1926 -0.5260
  678MOL0     C91422  -1.002   2.678  10.395  0.4134  0.0667 -0.2912
  678MOL0     C91423  -1.030   2.816  10.445  0.0179  0.0074  0.9969
  678MOL0     C91424  -1.003   2.633  10.261  0.2463 -0.7549 -0.0195
  678MOL0     C91425  -1.059   2.722  10.152 -0.0967 -0.8056  0.5276
  678MOL0     O91426  -1.012   2.699  10.027  0.2230 -0.2465  0.7860
  678MOL0     C91427  -1.012   2.793   9.926  0.5598 -0.6958  0.1252
  678MOL0     C91428  -1.026   2.753   9.797  0.2810 -0.0280 -0.1095
  678MOL0     C91429  -1.031   2.847   9.690  0.0831  0.7173 -0.4295
  678MOL0     C91430  -1.022   2.986   9.701 -0.3612  0.8235  0.5325
  678MOL0     O91431  -1.049   3.080   9.604 -0.2057  0.8337  0.6506
  678MOL0     C91432  -1.152   3.042   9.507 -0.1693 -0.0598 -0.6058
  678MOL0     C91433  -1.293   3.036   9.558  0.9133  0.9171  0.7339
  678MOL0     C91434  -1.402   3.035   9.451  0.0341  0.4083  0.2168
  678MOL0     C91435  -1.394   2.921   9.351  0.1421  0.5959 -0.2724
  678MOL0     C91436  -1.530   2.865   9.301  0.6733  0.6721  0.7445
  678MOL0     C91437  -1.529   2.733   9.215  0.3080  0.2372 -0.3398
  678MOL0     C91438  -1.675   2.686   9.177 -0.2107  0.7299 -0.2472
  678MOL0     C91439  -1.776   2.790   9.134  1.1357 -0.1667 -0.0207
  678MOL0    Cl91440  -1.944   2.728   9.139 -0.4858  0.5473  0.0738
  678MOL0     C91441  -1.013   3.030   9.833 -0.0673 -0.1832  0.0378
  678MOL0     C91442  -1.004   2.934   9.946  0.3743 -0.0987  0.5569
  678MOL0     O91443  -1.153   2.795  10.178  0.5230 -0.5796  0.5596
  678MOL0     C91444  -0.949   2.505  10.231  0.4747 -0.2380 -0.0578
  678MOL0     C91445  -0.880   2.425  10.322  0.3235  0.1565  0.1846
  678MOL0     N91446  -0.360   2.224  10.954 -1.4618 -0.1372  0.2791
  678MOL0     N91447  -0.240   2.188  10.932 -0.6916 -0.0770  0.1942
  678MOL0     C91448   0.809   1.987  10.279 -0.6604 -0.5381  0.6306
  678MOL0     C91449   0.943   2.014  10.247 -0.3831  0.8110 -0.5104
  678MOL0     C91450   1.388   2.186  10.296 -0.4836 -0.2772 -0.9198
  678MOL0     C91451   1.476   2.302  10.292 -0.3481 -0.1641  0.5912
  678MOL0     C91452   1.602   2.292  10.225  0.7222 -0.5758 -0.8696
  678MOL0     C91453   1.645   2.176  10.159 -0.8054 -1.3856 -0.3099
  678MOL0     O91454   1.765   2.160  10.101 -0.8978  0.5529  0.0984
  678MOL0     C91455   1.823   2.276  10.028  0.7389  0.0212 -0.0168
  678MOL0     C91456   1.876   2.219   9.899 -0.2505 -0.0094 -0.1242
  678MOL0     C91457   2.030   2.187   9.895  0.2134  0.2839  0.1228
  678MOL0     C91458   2.109   2.306   9.831  0.4266  0.3999 -0.4212
  678MOL0     C91459   2.161   2.412   9.930 -0.0285 -0.4377 -0.1557
  678MOL0     C91460   2.197   2.477  10.024  0.3780 -0.0298 -0.9430
  678MOL0     C91461   1.556   2.066  10.165 -0.4530  0.4696 -0.2650
  678MOL0     C91462   1.436   2.072  10.226  0.9436 -0.2097  0.1902
  678MOL0     H91463   1.051   2.143  10.544  1.2120  1.7602 -1.8875
  678MOL0     H91464   0.829   2.065  10.608  3.5558 -0.1531  0.6321
  678MOL0     H91465   0.709   1.836  10.586  1.2364  1.3501  0.0193
  678MOL0     H91466   0.628   1.967  10.659  1.4698 -2.5763  1.8247
  678MOL0     H91467   0.506   1.736  10.511  0.0634  0.4180 -0.3711
  678MOL0     H91468   0.496   1.786  10.692 -0.0033  3.5994  0.9693
  678MOL0     H91469   0.393   2.003  10.600  2.1319  0.5040 -1.8795
  678MOL0     H91470   0.368   1.917  10.448 -1.5449  1.1223 -0.8456
  678MOL0     H91471   0.248   1.736  10.575  1.9092 -0.4213  0.3135
  678MOL0     H91472   0.254   1.805  10.722 -1.0542 -2.8863 -1.0472
  678MOL0     H91473   0.138   2.006  10.645 -0.7954 -1.7613  2.1595
  678MOL0     H91474   0.129   1.938  10.481  1.8712 -1.2340 -0.0305
  678MOL0     H91475  -0.007   1.757  10.555  3.0679 -2.2153  0.9342
  678MOL0     H91476   0.032   1.773  10.724  0.1697 -2.3048 -1.8122
  678MOL0     H91477  -0.106   2.004  10.575  2.7120 -1.2254 -2.4410
  678MOL0     H91478  -0.204   1.873  10.643 -0.1674  0.5367  4.5683
  678MOL0     H91479  -0.024   2.057  10.806 -0.4962  0.0907  0.1102
  678MOL0     H91480  -0.120   1.922  10.870 -1.6469 -0.1126  0.0140
  678MOL0     H91481  -0.392   1.992  10.719  4.4864 -0.2361 -1.7701
  678MOL0     H91482  -0.636   2.080  10.820 -0.1272 -0.0453 -0.0306
  678MOL0     H91483  -0.621   2.186  10.969  0.3183 -0.6385  0.6327
  678MOL0     H91484  -0.576   2.277  10.681 -1.2806  1.8439  0.0091
  678MOL0     H91485  -0.589   2.389  10.819 -2.5933  1.5404  1.8544
  678MOL0     H91486  -0.830   2.313  10.863 -1.7119  2.3014 -1.5179
  678MOL0     H91487  -0.810   2.192  10.719  4.3876 -1.1451 -0.9832
  678MOL0     H91488  -0.821   2.490  10.716  0.4158 -0.2199 -0.2459
  678MOL0     H91489  -0.953   2.374  10.686 -0.8832  0.5213  0.3173
  678MOL0     H91490  -0.929   2.634  10.586 -0.8309  1.5530 -1.1156
  678MOL0     H91491  -0.939   2.866  10.410 -0.8628  0.8614 -0.1316
  678MOL0     H91492  -1.117   2.866  10.402  0.2895 -1.3641 -1.3100
  678MOL0     H91493  -1.032   2.820  10.554  2.8524  0.8751  1.0899
  678MOL0     H91494  -1.023   2.646   9.775  3.2636 -0.1336  0.4226
  678MOL0     H91495  -1.025   2.798   9.593 -2.5420 -1.8869  0.5605
  678MOL0     H91496  -1.152   3.118   9.429 -0.3878  1.0533  0.4525
  678MOL0     H91497  -1.127   2.944   9.465  2.6541 -0.2935  1.3603
  678MOL0     H91498  -1.302   2.951   9.627  1.3394  1.3141  1.2940
  678MOL0     H91499  -1.315   3.128   9.613 -1.8415  1.2916 -0.8105
  678MOL0     H91500  -1.401   3.135   9.406  0.0285  0.6641  0.7799
  678MOL0     H91501  -1.499   3.041   9.501 -0.8587  3.2351 -1.5663
  678MOL0     H91502  -1.343   2.958   9.262  0.0454 -0.5555 -0.8334
  678MOL0     H91503  -1.344   2.836   9.399  1.1907  1.7412  0.7497
  678MOL0     H91504  -1.564   2.944   9.233  1.4839 -0.0434 -0.5243
  678MOL0     H91505  -1.594   2.854   9.390 -0.9492  0.5707 -0.3811
  678MOL0     H91506  -1.482   2.766   9.122  1.6551 -0.9461 -0.1162
  678MOL0     H91507  -1.472   2.655   9.266 -0.3067 -1.5239 -2.2193
  678MOL0     H91508  -1.713   2.644   9.270 -0.0595 -2.2260 -1.4350
  678MOL0     H91509  -1.669   2.611   9.098  3.4267 -1.5969  1.9673
  678MOL0     H91510  -1.765   2.811   9.027  0.3782  1.1630  0.1434
  678MOL0     H91511  -1.772   2.888   9.183  0.0933  1.6384 -3.2337
  678MOL0     H91512  -1.015   3.136   9.856  2.4892 -0.5220  2.3541
  678MOL0     H91513  -1.003   2.981  10.043  0.2877  1.0212  0.0304
  678MOL0     H91514  -0.956   2.463  10.131  1.2033 -1.9042  0.5448
  678MOL0     H91515  -0.830   2.335  10.285 -0.6197 -1.1772  1.9982
  678MOL0     H91516   0.735   1.945  10.211 -1.4079  0.8696  0.5262
  678MOL0     H91517   0.976   2.000  10.145  0.3835 -1.5564  0.0063
  678MOL0     H91518   1.435   2.395  10.328 -1.5639  0.0990 -1.3099
  678MOL0     H91519   1.668   2.378  10.213  1.7689 -1.3732 -1.0185
  678MOL0     H91520   1.744   2.346  10.001 -0.3297 -2.1477 -3.1717
  678MOL0     H91521   1.897   2.327  10.090 -1.5568  2.3633  0.9538
  678MOL0     H91522   1.859   2.285   9.814 -2.8087 -0.0654  0.2783
  678MOL0     H91523   1.821   2.126   9.878  1.0128 -0.0424 -4.1178
  678MOL0     H91524   2.044   2.104   9.824 -1.7842  0.8605 -1.0562
  678MOL0     H91525   2.064   2.169   9.997 -0.4779  1.6326  0.6102
  678MOL0     H91526   2.046   2.356   9.758 -1.5072 -1.8918 -0.4722
  678MOL0     H91527   2.191   2.274   9.767  0.8666 -0.0317  0.3330
  678MOL0     H91528   2.232   2.518  10.116  2.7034 -1.8805 -0.9144
  678MOL0     H91529   1.588   1.974  10.118  2.6892  1.5006 -0.3834
  678MOL0     H91530   1.364   1.991  10.226 -1.1428  1.5405 -1.6648
  679MOL0     O91531   0.666   6.020   1.332  0.1644  0.7632  0.6404
  679MOL0     C91532   0.696   6.118   1.403 -0.0252 -0.3167 -0.1640
  679MOL0     O91533   0.614   6.217   1.452  0.0688  0.6315 -0.4179
  679MOL0     C91534   0.480   6.192   1.443  0.2037  0.2117  0.1878
  679MOL0     C91535   0.416   6.106   1.542  0.3003 -0.4538 -0.4656
  679MOL0     C91536   0.278   6.088   1.538  0.7917  0.2508  0.3580
  679MOL0     C91537   0.197   6.167   1.459  0.0375  0.2862 -0.3039
  679MOL0     O91538   0.065   6.151   1.475  0.0316 -0.3262  0.1609
  679MOL0     C91539  -0.028   6.191   1.378 -0.5154 -0.5136 -0.1384
  679MOL0     C91540  -0.169   6.142   1.407 -0.0706 -0.0890 -0.1692
  679MOL0     C91541  -0.177   5.989   1.407  0.1319 -0.4809 -0.2783
  679MOL0     C91542  -0.154   5.917   1.263  0.1217 -1.0177 -0.3778
  679MOL0     C91543  -0.201   6.004   1.139  0.6596  0.0628  0.9659
  679MOL0     C91544  -0.358   5.974   1.107  0.1072  0.1431 -0.5392
  679MOL0     C91545  -0.465   6.004   1.211 -0.8760 -0.6542  0.2241
  679MOL0     C91546  -0.611   5.974   1.182  0.0132  1.1443 -0.6093
  679MOL0     N91547  -0.675   6.038   1.067  0.4283  0.3072 -0.4441
  679MOL0     C91548  -0.659   6.010   0.925 -0.2669 -0.2816  0.8666
  679MOL0     C91549  -0.770   6.067   0.872 -0.5277  0.6994 -0.8292
  679MOL0     C91550  -0.812   6.045   0.728 -0.3930  0.0111  0.3873
  679MOL0     C91551  -0.767   5.922   0.672  0.0262  0.2721  1.0671
  679MOL0     C91552  -0.840   5.804   0.738 -0.0845 -0.4216  0.2406
  679MOL0     C91553  -0.780   5.672   0.692 -0.3563  0.5630 -0.0783
  679MOL0     O91554  -0.841   5.649   0.559  0.2341 -0.1340  0.0237
  679MOL0     C91555  -0.967   5.593   0.551  0.0878  0.4075 -0.4787
  679MOL0     C91556  -1.042   5.552   0.662  0.1448  0.8470  0.2115
  679MOL0     C91557  -1.173   5.502   0.660  0.3746 -0.0308 -0.2737
  679MOL0     C91558  -1.214   5.446   0.797  0.2398 -0.4160 -0.1335
  679MOL0     C91559  -1.227   5.489   0.532  0.2882 -0.2084 -0.9368
  679MOL0     C91560  -1.354   5.419   0.509 -0.8772  0.0105  0.1095
  679MOL0     O91561  -1.410   5.370   0.628 -0.3142 -0.7988  0.6326
  679MOL0     C91562  -1.527   5.309   0.621  0.0587  0.4426 -0.3400
  679MOL0     C91563  -1.529   5.171   0.600 -0.0056 -0.3541 -0.6296
  679MOL0     C91564  -1.646   5.109   0.605 -0.6014 -0.9085  0.8132
  679MOL0     C91565  -1.768   5.173   0.619  0.1482 -0.1426  0.6257
  679MOL0     O91566  -1.903   5.128   0.616 -0.1760  0.0996  0.1095
  679MOL0     C91567  -1.915   4.990   0.590  0.2486 -0.0612  0.7967
  679MOL0     C91568  -2.062   4.960   0.571  0.4252  0.3598  0.0753
  679MOL0     C91569  -2.146   5.005   0.697 -1.0774  0.2438  1.5051
  679MOL0     C91570  -2.280   4.925   0.692  0.3050 -1.5391 -0.8714
  679MOL0     C91571  -2.370   4.947   0.814 -0.1912  0.4424 -0.7834
  679MOL0     C91572  -2.515   4.945   0.780  0.5143  0.5577 -0.6488
  679MOL0     C91573  -2.602   4.984   0.900  0.4528  0.1575 -0.3582
  679MOL0     C91574  -2.752   4.936   0.879 -0.7891 -0.9464 -0.6481
  679MOL0    Cl91575  -2.832   5.025   0.733 -0.5772  0.1778  0.2181
  679MOL0     C91576  -1.771   5.312   0.637  0.2475  0.3210 -0.8687
  679MOL0     C91577  -1.646   5.381   0.633 -0.5301  0.4032 -0.6295
  679MOL0     O91578  -1.403   5.416   0.401  0.7047 -0.4898  0.2427
  679MOL0     C91579  -1.155   5.535   0.419  0.0870  0.9582 -0.7333
  679MOL0     C91580  -1.032   5.588   0.428 -0.9136 -0.5696  0.2719
  679MOL0     N91581  -0.844   6.133   0.969 -0.3314  0.3219 -0.1989
  679MOL0     N91582  -0.798   6.101   1.082 -0.7062  0.4369  0.4011
  679MOL0     C91583   0.260   6.269   1.375 -0.4664  0.5837  0.7725
  679MOL0     C91584   0.401   6.272   1.366  0.2768 -0.0888 -0.0971
  679MOL0     C91585   0.841   6.143   1.425 -1.1003  0.6854 -0.3432
  679MOL0     C91586   0.897   6.263   1.472  0.5784  0.7647  0.1174
  679MOL0     C91587   1.034   6.281   1.496 -0.2737 -0.1640 -0.6863
  679MOL0     C91588   1.132   6.185   1.463 -0.2634  1.0397 -0.4020
  679MOL0     O91589   1.265   6.216   1.483 -0.8024  0.3945  0.4049
  679MOL0     C91590   1.365   6.115   1.475 -0.0843 -0.2870 -0.5743
  679MOL0     C91591   1.362   5.989   1.564 -0.6059  0.3031 -0.4782
  679MOL0     C91592   1.311   5.992   1.710 -0.4256 -0.3071 -0.0305
  679MOL0     C91593   1.328   5.864   1.792  0.2502 -0.8305 -0.5838
  679MOL0     C91594   1.467   5.856   1.828  0.1046  0.0829 -0.0068
  679MOL0     C91595   1.584   5.838   1.848  0.1196  1.1447  0.5123
  679MOL0     C91596   1.078   6.059   1.420 -0.3161  0.0770 -0.9755
  679MOL0     C91597   0.940   6.045   1.398 -0.2774 -0.4503  0.6513
  679MOL0     H91598   0.483   6.052   1.608  0.1851  2.3934  2.2065
  679MOL0     H91599   0.240   6.003   1.592 -0.2679  0.7394  0.4038
  679MOL0     H91600  -0.031   6.300   1.376 -1.5674 -0.4880  1.2974
  679MOL0     H91601   0.012   6.146   1.287 -1.2282 -1.9279  0.2193
  679MOL0     H91602  -0.198   6.175   1.508  1.4750 -1.3418  0.7275
  679MOL0     H91603  -0.244   6.185   1.340 -0.3491  0.5667  0.5439
  679MOL0     H91604  -0.115   5.934   1.479 -1.9260 -1.5284  0.7617
  679MOL0     H91605  -0.281   5.963   1.428 -0.0736 -0.6127 -1.4052
  679MOL0     H91606  -0.047   5.900   1.250  0.1935 -4.1118  2.7844
  679MOL0     H91607  -0.204   5.821   1.256 -1.9881  0.1205 -1.9533
  679MOL0     H91608  -0.202   6.114   1.142  1.3290  0.2682 -2.6238
  679MOL0     H91609  -0.139   5.978   1.054 -0.1100 -2.1842  1.0370
  679MOL0     H91610  -0.380   6.024   1.012  1.4547  1.0972 -0.3740
  679MOL0     H91611  -0.357   5.866   1.094 -0.0015  0.0620  0.1147
  679MOL0     H91612  -0.448   5.958   1.308 -3.3966 -2.7765 -0.2044
  679MOL0     H91613  -0.470   6.112   1.229 -1.4132 -0.8942  1.6523
  679MOL0     H91614  -0.663   6.018   1.267  1.1098  1.9311 -0.3228
  679MOL0     H91615  -0.630   5.867   1.172 -1.3788  1.1528  1.4427
  679MOL0     H91616  -0.573   5.968   0.875  1.2476  1.1080  2.1753
  679MOL0     H91617  -0.919   6.060   0.711 -0.4052  1.6641  1.6018
  679MOL0     H91618  -0.754   6.127   0.684  0.2379  0.4146  1.9043
  679MOL0     H91619  -0.658   5.915   0.674  0.2449  0.0566  7.3281
  679MOL0     H91620  -0.797   5.926   0.567  0.4269 -0.6558  0.9104
  679MOL0     H91621  -0.949   5.815   0.731 -0.2296 -1.7608  0.0232
  679MOL0     H91622  -0.811   5.814   0.843  2.6683  2.1335 -0.6450
  679MOL0     H91623  -0.791   5.587   0.760 -0.4152 -1.9777 -3.0838
  679MOL0     H91624  -0.674   5.687   0.669 -0.3464 -1.4949 -1.6173
  679MOL0     H91625  -0.998   5.569   0.759  1.2285 -1.1387  0.0977
  679MOL0     H91626  -1.156   5.458   0.888 -3.1569  0.4698  2.1179
  679MOL0     H91627  -1.309   5.498   0.815  0.2177 -1.2325  2.3940
  679MOL0     H91628  -1.236   5.340   0.785 -0.4775 -0.1883 -0.9582
  679MOL0     H91629  -1.431   5.125   0.588 -0.4630 -1.1168 -1.4995
  679MOL0     H91630  -1.641   5.003   0.582  1.0908 -0.9515  1.2790
  679MOL0     H91631  -1.858   4.960   0.502  0.1018 -1.4285  1.1484
  679MOL0     H91632  -1.870   4.932   0.672  0.8059 -0.2531  0.3568
  679MOL0     H91633  -2.099   5.013   0.482  0.0561 -2.0089 -1.2487
  679MOL0     H91634  -2.085   4.855   0.551 -0.6570  0.7689 -0.9236
  679MOL0     H91635  -2.160   5.114   0.694  2.1819  0.7441  0.3503
  679MOL0     H91636  -2.091   4.980   0.788  1.7624 -0.6115 -0.3156
  679MOL0     H91637  -2.335   4.951   0.600  0.2078 -4.7309 -1.8428
  679MOL0     H91638  -2.255   4.819   0.683 -1.2030 -2.1639  1.4207
  679MOL0     H91639  -2.346   5.045   0.857  0.9644 -0.2820  0.3197
  679MOL0     H91640  -2.350   4.884   0.901 -2.0921  1.7257  0.6572
  679MOL0     H91641  -2.549   5.001   0.692 -2.6978  1.8753  1.2481
  679MOL0     H91642  -2.520   4.839   0.756  2.9994 -0.2668  1.9537
  679MOL0     H91643  -2.613   5.090   0.925 -1.4162 -0.6264  2.5030
  679MOL0     H91644  -2.555   4.936   0.987 -4.2127 -0.2984  2.2089
  679MOL0     H91645  -2.812   4.957   0.968  1.4078 -1.9945  1.2031
  679MOL0     H91646  -2.747   4.827   0.866  3.5335 -0.7006 -2.8727
  679MOL0     H91647  -1.865   5.365   0.650  0.2027  0.8595 -2.9451
  679MOL0     H91648  -1.654   5.485   0.660 -2.2586  0.3717 -0.9028
  679MOL0     H91649  -1.183   5.527   0.314 -1.3180  1.4218 -0.4184
  679MOL0     H91650  -0.982   5.619   0.337 -0.6992 -0.0897  0.5478
  679MOL0     H91651   0.192   6.331   1.316 -2.1810  0.0062  2.0551
  679MOL0     H91652   0.439   6.340   1.291  1.0794  0.2865  0.6362
  679MOL0     H91653   0.828   6.347   1.479 -2.1145 -1.2830 -0.4285
  679MOL0     H91654   1.065   6.380   1.528 -3.6737  1.2931 -1.5286
  679MOL0     H91655   1.383   6.093   1.370 -2.3806 -1.1286 -0.8479
  679MOL0     H91656   1.458   6.157   1.512  0.1486 -0.7654 -0.6125
  679MOL0     H91657   1.461   5.943   1.561  1.3768  4.1583 -1.0298
  679MOL0     H91658   1.301   5.917   1.508 -0.0749  0.3100 -1.0763
  679MOL0     H91659   1.208   6.028   1.701 -0.2944  0.2177  0.4952
  679MOL0     H91660   1.362   6.075   1.759 -4.3505  0.9831  2.3148
  679MOL0     H91661   1.284   5.783   1.734 -0.2085  0.7782 -2.5769
  679MOL0     H91662   1.272   5.874   1.885  0.2591 -0.6049 -0.6017
  679MOL0     H91663   1.686   5.805   1.848 -0.6874 -2.1079 -3.1317
  679MOL0     H91664   1.145   5.977   1.396 -0.0405 -0.3087  0.9471
  679MOL0     H91665   0.917   5.945   1.362 -1.7855  0.5185 -1.3297
  680MOL0     O91666   8.077   0.595  10.953 -0.3545 -0.1355 -0.4699
  680MOL0     C91667   8.109   0.714  10.941 -0.2154 -0.2583  1.0626
  680MOL0     O91668   8.074   0.793  10.834 -0.9446  0.1907  0.5734
  680MOL0     C91669   7.987   0.757  10.742  0.3802 -0.0429 -0.4853
  680MOL0     C91670   7.858   0.800  10.758 -0.5296 -0.2001 -0.7903
  680MOL0     C91671   7.769   0.777  10.656  0.6527  0.0706 -0.3506
  680MOL0     C91672   7.809   0.721  10.533 -0.6686  0.0269  0.7072
  680MOL0     O91673   7.713   0.701  10.429 -0.0705 -1.0300 -0.5671
  680MOL0     C91674   7.747   0.604  10.326  1.1092  0.0286 -0.4463
  680MOL0     C91675   7.612   0.566  10.261  0.5612  0.2197  0.3333
  680MOL0     C91676   7.521   0.690  10.243  0.1019 -0.1713 -0.4525
  680MOL0     C91677   7.396   0.662  10.163 -0.2414 -0.2588 -0.1556
  680MOL0     C91678   7.311   0.791  10.155  0.3485 -0.2714  0.8297
  680MOL0     C91679   7.174   0.780  10.079  0.7910 -0.8671  0.1165
  680MOL0     C91680   7.121   0.918  10.054  0.1792  0.5571 -0.1908
  680MOL0     C91681   6.984   0.915   9.982 -0.1615  0.2275 -0.6570
  680MOL0     N91682   6.882   0.843  10.065 -0.2591  0.5092  0.1926
  680MOL0     C91683   6.769   0.897  10.130 -0.4362 -0.3615  0.7529
  680MOL0     C91684   6.695   0.786  10.154 -0.2472 -0.0291 -0.3035
  680MOL0     C91685   6.572   0.760  10.231 -0.4975 -0.5201  0.7279
  680MOL0     C91686   6.438   0.770  10.150  0.2929 -0.7440  0.4950
  680MOL0     C91687   6.408   0.911  10.108  0.5794 -0.2234  0.2200
  680MOL0     C91688   6.377   1.008  10.228 -0.2136 -0.2862  0.1320
  680MOL0     O91689   6.333   1.139  10.179 -0.6198 -0.2249  0.5373
  680MOL0     C91690   6.205   1.165  10.154  0.0449 -0.2746  0.2608
  680MOL0     C91691   6.169   1.304  10.123 -0.9797  0.8455 -0.1697
  680MOL0     C91692   6.033   1.344  10.115  0.0268  0.1138  0.2197
  680MOL0     C91693   6.008   1.485  10.088 -0.5572  0.0675 -0.2605
  680MOL0     C91694   5.928   1.250  10.112  0.1956 -0.3798 -0.2366
  680MOL0     C91695   5.785   1.280  10.096  1.3832 -1.2898  0.0293
  680MOL0     O91696   5.703   1.198  10.158  0.7818  0.5912  0.1282
  680MOL0     C91697   5.568   1.235  10.164  0.8230  0.5380  0.7758
  680MOL0     C91698   5.469   1.145  10.104  0.3866 -0.3158  1.6080
  680MOL0     C91699   5.330   1.168  10.124  0.0421  0.9905  0.0265
  680MOL0     C91700   5.292   1.273  10.209 -0.2611 -0.1421  0.7422
  680MOL0     O91701   5.158   1.290  10.228  0.4211 -0.2284  0.0827
  680MOL0     C91702   5.105   1.369  10.337 -0.3114  0.6862  0.1224
  680MOL0     C91703   4.951   1.325  10.341  0.0446  1.6822 -0.0594
  680MOL0     C91704   4.876   1.396  10.232 -0.6897  0.3348  0.2931
  680MOL0     C91705   4.733   1.352  10.236 -0.0730  0.5307  0.4170
  680MOL0     C91706   4.651   1.384  10.098 -1.2137  0.3539  0.2228
  680MOL0     C91707   4.513   1.339  10.124  1.0557 -0.0281  0.4032
  680MOL0     C91708   4.418   1.376  10.010 -0.9833 -0.5715 -0.5276
  680MOL0     C91709   4.265   1.371  10.051 -0.9426  0.8332  0.3756
  680MOL0    Cl91710   4.206   1.208  10.084 -0.2760  0.0898 -0.1311
  680MOL0     C91711   5.397   1.351  10.271  0.4062 -0.2350  0.7890
  680MOL0     C91712   5.529   1.339  10.237 -0.3079 -0.6339  0.2320
  680MOL0     O91713   5.750   1.387  10.039  0.5747 -0.2455  0.3689
  680MOL0     C91714   5.964   1.112  10.126 -0.4108 -1.2272  0.4834
  680MOL0     C91715   6.100   1.070  10.140 -0.0783 -0.5729 -0.0649
  680MOL0     N91716   6.754   0.673  10.101 -0.6720 -0.5104 -0.7378
  680MOL0     N91717   6.869   0.708  10.058  0.0031 -0.8450  0.0262
  680MOL0     C91718   7.937   0.663  10.524 -0.7782  0.5130 -0.3113
  680MOL0     C91719   8.031   0.684  10.629  0.6491 -0.1358  0.5687
  680MOL0     C91720   8.199   0.775  11.055 -0.7993  1.0047  0.6674
  680MOL0     C91721   8.269   0.684  11.135  0.5418 -0.0389  0.0857
  680MOL0     C91722   8.347   0.727  11.243  1.1791 -0.4836  1.1646
  680MOL0     C91723   8.349   0.867  11.272 -0.3579  0.2923  0.1934
  680MOL0     O91724   8.434   0.916  11.369 -0.8376 -0.2710  1.3298
  680MOL0     C91725   8.513   0.818  11.446  0.3197  0.1332  0.2726
  680MOL0     C91726   8.582   0.884  11.560 -0.5522  0.3388 -0.8341
  680MOL0     C91727   8.720   0.817  11.599 -0.3238  1.3054 -0.1199
  680MOL0     C91728   8.704   0.680  11.664 -0.5621 -0.6863 -0.3721
  680MOL0     C91729   8.639   0.717  11.798 -0.4316 -0.4161  0.5127
  680MOL0     C91730   8.587   0.758  11.896  0.4328 -0.1988 -0.0559
  680MOL0     C91731   8.275   0.952  11.184 -0.2411 -1.0436  0.2150
  680MOL0     C91732   8.204   0.907  11.078  0.1556  0.5340  0.3347
  680MOL0     H91733   7.832   0.845  10.854 -2.7857 -0.5898 -1.1694
  680MOL0     H91734   7.667   0.813  10.665 -0.1235 -2.1754  0.5229
  680MOL0     H91735   7.806   0.647  10.246  0.4854  0.3364 -0.7485
  680MOL0     H91736   7.792   0.512  10.364  3.2801  0.6928 -1.2791
  680MOL0     H91737   7.629   0.528  10.160 -0.5220  0.6440 -0.0225
  680MOL0     H91738   7.578   0.489  10.332  0.1911 -1.6832 -1.8141
  680MOL0     H91739   7.481   0.728  10.338  1.5654 -3.3672  1.6188
  680MOL0     H91740   7.577   0.766  10.187 -1.7857  2.8975  1.5039
  680MOL0     H91741   7.419   0.625  10.062 -3.0361 -0.2325 -0.8930
  680MOL0     H91742   7.339   0.581  10.210 -2.6395  2.1531  1.3307
  680MOL0     H91743   7.287   0.830  10.254 -0.2960 -0.8314  0.9032
  680MOL0     H91744   7.377   0.862  10.104  0.4495 -0.2557  0.9849
  680MOL0     H91745   7.175   0.729   9.982  1.2878  3.2448 -2.2742
  680MOL0     H91746   7.108   0.735  10.153 -0.9077  3.3747  1.4404
  680MOL0     H91747   7.100   0.964  10.151  1.7047  2.3356 -0.6337
  680MOL0     H91748   7.201   0.967   9.997  1.6393 -1.4283  0.0737
  680MOL0     H91749   6.992   0.850   9.894  1.0570 -1.9845  0.9821
  680MOL0     H91750   6.953   1.019   9.971  0.4576  0.5346  0.3592
  680MOL0     H91751   6.753   1.004  10.142  2.2953  0.2023  0.0436
  680MOL0     H91752   6.592   0.666  10.283  3.5750 -1.4139 -1.9442
  680MOL0     H91753   6.576   0.835  10.310 -1.1403  1.5819 -1.1357
  680MOL0     H91754   6.357   0.739  10.218  0.2346 -0.1213  0.7147
  680MOL0     H91755   6.448   0.707  10.062  0.3971 -1.7463  1.2018
  680MOL0     H91756   6.323   0.920  10.039  1.1021  1.0635 -0.2956
  680MOL0     H91757   6.487   0.948  10.041  0.0299  0.7176  0.0647
  680MOL0     H91758   6.472   1.020  10.280 -0.1261 -0.2455 -0.0354
  680MOL0     H91759   6.292   0.970  10.285  0.6993 -1.4088  0.7802
  680MOL0     H91760   6.246   1.380  10.120 -1.5689  1.4407 -3.7420
  680MOL0     H91761   6.080   1.553  10.135 -1.2096  1.2105 -0.8706
  680MOL0     H91762   6.007   1.500   9.980  1.7268  0.1004 -0.3268
  680MOL0     H91763   5.919   1.516  10.144  1.7413 -0.8037  4.3595
  680MOL0     H91764   5.497   1.061  10.042 -2.0543  1.4291 -2.2443
  680MOL0     H91765   5.260   1.096  10.084  2.0147 -2.5777  2.3845
  680MOL0     H91766   5.168   1.348  10.423  0.2878 -0.5426 -0.5898
  680MOL0     H91767   5.127   1.475  10.319  3.2909  0.1847  0.9368
  680MOL0     H91768   4.953   1.217  10.321 -0.5966  1.3844  1.3137
  680MOL0     H91769   4.908   1.354  10.437  0.5967  2.5390 -0.0604
  680MOL0     H91770   4.925   1.371  10.137  0.4224  0.1417  0.8993
  680MOL0     H91771   4.879   1.505  10.243 -1.3083  0.5007 -0.9361
  680MOL0     H91772   4.724   1.246  10.260  1.3070  0.3520  0.2355
  680MOL0     H91773   4.689   1.407  10.320 -1.7486 -2.5444  1.6921
  680MOL0     H91774   4.690   1.328  10.013  0.3677  0.8223  0.6109
  680MOL0     H91775   4.666   1.485  10.061 -0.1922  0.1746  0.1051
  680MOL0     H91776   4.518   1.232  10.143  1.8791 -0.0247  0.2461
  680MOL0     H91777   4.475   1.381  10.217 -1.0515 -1.2947  0.1803
  680MOL0     H91778   4.447   1.304   9.932  1.5234 -1.3642  1.0126
  680MOL0     H91779   4.426   1.478   9.971  1.2407 -0.2433  0.6291
  680MOL0     H91780   4.217   1.397   9.956  2.6351 -3.8407 -3.2112
  680MOL0     H91781   4.235   1.437  10.133  0.1733 -0.1715  1.6386
  680MOL0     H91782   5.370   1.430  10.341 -1.0832  1.1439 -1.2170
  680MOL0     H91783   5.612   1.400  10.271 -1.5273 -0.0004  2.2062
  680MOL0     H91784   5.902   1.023  10.129  3.8003 -4.5435 -1.0782
  680MOL0     H91785   6.134   0.967  10.145 -0.4489 -0.6642  0.7602
  680MOL0     H91786   7.976   0.602  10.443  0.4568  1.9799 -0.8693
  680MOL0     H91787   8.130   0.639  10.631  0.0777 -1.6189 -1.4808
  680MOL0     H91788   8.262   0.576  11.120  1.9682 -0.0527 -0.6927
  680MOL0     H91789   8.393   0.643  11.295 -3.4363 -3.9813  0.2830
  680MOL0     H91790   8.448   0.739  11.486  0.7023 -1.0136 -1.2411
  680MOL0     H91791   8.579   0.770  11.373 -0.4678  1.2606 -1.2565
  680MOL0     H91792   8.522   0.892  11.651  0.3583  1.6724 -0.3109
  680MOL0     H91793   8.600   0.987  11.527 -0.8360  0.0933 -1.7799
  680MOL0     H91794   8.782   0.882  11.661  0.5603  1.7400 -1.3957
  680MOL0     H91795   8.776   0.802  11.506  3.0559  4.6898  1.0736
  680MOL0     H91796   8.807   0.645  11.675 -0.7197 -0.9026  0.5147
  680MOL0     H91797   8.641   0.617  11.600  1.4608 -1.9520 -1.2180
  680MOL0     H91798   8.545   0.816  11.975  0.6384  2.6160 -1.8651
  680MOL0     H91799   8.278   1.058  11.203  0.8696 -1.3600  2.0007
  680MOL0     H91800   8.145   0.964  11.007 -0.3070 -0.5937 -0.2130
  681MOL0     O91801   9.974   2.193   4.610 -0.2190  1.2264  0.6699
  681MOL0     C91802  10.049   2.104   4.655  1.2459 -0.4159  0.4207
  681MOL0     O91803   9.998   1.991   4.718  0.7080  0.3186  0.8619
  681MOL0     C91804   9.866   1.958   4.703 -0.9223  0.0724 -0.8982
  681MOL0     C91805   9.801   1.939   4.578  0.7967  0.3226  0.3406
  681MOL0     C91806   9.672   1.875   4.581 -0.0771 -0.1808  0.2384
  681MOL0     C91807   9.618   1.822   4.703 -0.2293  0.2811 -0.1677
  681MOL0     O91808   9.493   1.769   4.718  0.4604 -0.4325  0.5319
  681MOL0     C91809   9.443   1.674   4.617  0.3996  0.7908 -0.6377
  681MOL0     C91810   9.304   1.630   4.657 -0.5394  0.2181 -0.4976
  681MOL0     C91811   9.298   1.537   4.783  0.2472 -0.1822 -0.0490
  681MOL0     C91812   9.340   1.397   4.777 -0.2576 -0.4010 -0.2461
  681MOL0     C91813   9.296   1.309   4.894  0.1734 -0.1505  0.3021
  681MOL0     C91814   9.321   1.368   5.022  0.0846 -0.1432 -0.3644
  681MOL0     C91815   9.307   1.266   5.138  0.3264 -0.8135  0.7224
  681MOL0     C91816   9.159   1.243   5.163 -0.6030  0.7560  0.0139
  681MOL0     N91817   9.092   1.366   5.215 -0.0878 -0.2879  0.9158
  681MOL0     C91818   9.129   1.434   5.321  0.4037 -0.4477  0.4087
  681MOL0     C91819   9.044   1.538   5.321 -0.3545  0.1842  0.8150
  681MOL0     C91820   9.047   1.649   5.421  0.2953  0.3063  1.1877
  681MOL0     C91821   8.958   1.630   5.541 -0.1741  0.1502 -0.3995
  681MOL0     C91822   8.926   1.492   5.588 -0.5969 -0.1745  0.5820
  681MOL0     C91823   8.875   1.494   5.724  0.6118 -0.1218 -0.7895
  681MOL0     O91824   8.750   1.568   5.744 -0.0617 -0.4134 -0.1472
  681MOL0     C91825   8.633   1.503   5.717  0.1343  0.1994  0.5020
  681MOL0     C91826   8.596   1.406   5.804 -0.1440  1.0659 -0.5630
  681MOL0     C91827   8.472   1.339   5.786 -0.0748  0.1715  0.2621
  681MOL0     C91828   8.451   1.220   5.884 -0.5571 -1.2206 -0.3470
  681MOL0     C91829   8.379   1.382   5.682  0.6029  0.7410  0.5357
  681MOL0     C91830   8.242   1.323   5.647 -0.2307 -0.4302  0.5677
  681MOL0     O91831   8.182   1.268   5.752  0.5265 -0.4063  1.0384
  681MOL0     C91832   8.052   1.233   5.756  0.4710 -0.9711 -0.7115
  681MOL0     C91833   7.991   1.163   5.652  0.1782  0.7668 -0.3177
  681MOL0     C91834   7.857   1.116   5.665  0.8509 -0.3013 -0.7162
  681MOL0     C91835   7.781   1.155   5.773 -0.6507  0.5167 -0.4893
  681MOL0     O91836   7.645   1.113   5.779  0.0419  0.2542  0.1202
  681MOL0     C91837   7.571   1.100   5.900 -0.6540 -0.5665 -0.0234
  681MOL0     C91838   7.454   1.019   5.866  0.6858 -0.0268  0.4530
  681MOL0     C91839   7.369   1.000   5.991 -0.2050 -0.3132  0.7696
  681MOL0     C91840   7.258   0.895   5.957  0.2669 -0.7565 -0.9436
  681MOL0     C91841   7.135   0.916   6.047  0.7527  0.5083  0.1721
  681MOL0     C91842   7.006   0.846   6.001 -1.2597  0.3923 -1.2010
  681MOL0     C91843   6.889   0.868   6.101 -0.5960  0.5282 -0.2948
  681MOL0     C91844   6.758   0.820   6.040  0.5094  0.4027 -1.0618
  681MOL0    Cl91845   6.764   0.643   5.999 -0.3815 -0.0679  0.1014
  681MOL0     C91846   7.845   1.229   5.883  0.8955 -0.3869 -0.3830
  681MOL0     C91847   7.980   1.262   5.880  0.4278  1.0564 -0.4715
  681MOL0     O91848   8.205   1.342   5.529  0.6602 -0.3790 -0.1050
  681MOL0     C91849   8.441   1.475   5.586  1.0846  0.7727  0.2141
  681MOL0     C91850   8.568   1.527   5.602 -0.7003 -0.0814  1.1443
  681MOL0     N91851   8.954   1.524   5.214 -0.4207  0.3893  0.6054
  681MOL0     N91852   8.984   1.415   5.147 -0.2359  0.2858  0.9962
  681MOL0     C91853   9.682   1.845   4.824 -0.1303 -0.0421  0.0932
  681MOL0     C91854   9.800   1.917   4.828 -0.5097 -0.6942  0.2322
  681MOL0     C91855  10.189   2.106   4.642 -0.6352 -0.9453  0.4853
  681MOL0     C91856  10.269   2.038   4.739 -0.5752 -0.3686  0.4547
  681MOL0     C91857  10.409   2.038   4.738  0.0705 -0.5638  0.1938
  681MOL0     C91858  10.474   2.100   4.633 -0.1847 -0.6294  0.3897
  681MOL0     O91859  10.611   2.088   4.609  0.9713  0.6162  0.1953
  681MOL0     C91860  10.666   1.955   4.622  0.5680 -0.4324 -0.0284
  681MOL0     C91861  10.765   1.950   4.740 -0.1282 -0.1735 -0.0547
  681MOL0     C91862  10.887   2.043   4.705 -0.5764 -0.2173  0.6310
  681MOL0     C91863  10.986   1.982   4.605 -0.4593  0.0764  0.5137
  681MOL0     C91864  11.088   2.074   4.568  0.2993 -0.0022  0.5233
  681MOL0     C91865  11.174   2.151   4.534 -0.8385  0.2330  0.4394
  681MOL0     C91866  10.402   2.178   4.545  0.5073  0.1378  1.2199
  681MOL0     C91867  10.259   2.178   4.543 -1.3637 -0.0601  0.5899
  681MOL0     H91868   9.850   1.967   4.485  0.5777  1.6336  0.6084
  681MOL0     H91869   9.620   1.863   4.487  0.6760  1.3416 -0.4073
  681MOL0     H91870   9.430   1.730   4.524 -3.1475 -0.1135 -0.8209
  681MOL0     H91871   9.511   1.589   4.608  2.3246  2.0161  1.2906
  681MOL0     H91872   9.251   1.725   4.667 -0.1843  0.3138  0.5568
  681MOL0     H91873   9.256   1.579   4.573 -2.0143  0.8364 -0.0551
  681MOL0     H91874   9.343   1.597   4.862 -2.2607  1.9123 -0.1030
  681MOL0     H91875   9.194   1.537   4.816  1.2058 -2.1932  3.4702
  681MOL0     H91876   9.312   1.343   4.686 -0.6465  0.2900 -0.5449
  681MOL0     H91877   9.449   1.405   4.776 -0.1787 -1.0130  1.1574
  681MOL0     H91878   9.189   1.289   4.880 -0.3312  2.0918  0.6605
  681MOL0     H91879   9.349   1.213   4.891  2.1791  0.8935  0.6451
  681MOL0     H91880   9.425   1.401   5.026  0.3404 -1.0200  1.4330
  681MOL0     H91881   9.270   1.461   5.050  1.0612 -0.4156  2.7332
  681MOL0     H91882   9.346   1.167   5.113 -2.5024 -1.3769 -2.2162
  681MOL0     H91883   9.361   1.309   5.222  1.9426 -0.7837 -0.2935
  681MOL0     H91884   9.157   1.161   5.235  3.8002  1.3484  1.1000
  681MOL0     H91885   9.104   1.201   5.078  2.0654  0.4496 -1.6777
  681MOL0     H91886   9.201   1.402   5.397 -0.2752 -2.1971  0.3676
  681MOL0     H91887   9.151   1.662   5.452  1.3716 -1.0260 -1.4997
  681MOL0     H91888   9.018   1.743   5.373  0.4683 -0.0517  0.3537
  681MOL0     H91889   8.861   1.679   5.531 -0.9722 -1.4102 -0.6818
  681MOL0     H91890   9.005   1.678   5.627  1.7391  0.8168 -1.7310
  681MOL0     H91891   9.023   1.444   5.574  1.3352  3.8711 -1.9738
  681MOL0     H91892   8.859   1.439   5.520  0.9734 -1.8254  0.2486
  681MOL0     H91893   8.950   1.551   5.780 -0.0562  0.2482 -0.2547
  681MOL0     H91894   8.874   1.394   5.768 -0.7014  0.1259 -0.2148
  681MOL0     H91895   8.657   1.390   5.892  0.0525 -2.0822 -1.1659
  681MOL0     H91896   8.388   1.264   5.963  0.3549  1.5245 -1.0233
  681MOL0     H91897   8.394   1.139   5.838  0.9717 -2.4242 -0.2059
  681MOL0     H91898   8.544   1.175   5.918 -0.1195 -1.0308 -1.2624
  681MOL0     H91899   8.039   1.145   5.556  1.5218  1.4766  0.1952
  681MOL0     H91900   7.810   1.065   5.582 -0.9112  0.7432 -0.4253
  681MOL0     H91901   7.638   1.050   5.971 -1.3224 -0.7186  0.5099
  681MOL0     H91902   7.543   1.199   5.937  1.1060 -0.1991  0.3949
  681MOL0     H91903   7.394   1.078   5.796 -0.4801 -0.5891  0.9388
  681MOL0     H91904   7.480   0.922   5.823 -0.3495 -0.6894  1.2609
  681MOL0     H91905   7.317   1.091   6.022 -0.1789 -0.1826  0.4300
  681MOL0     H91906   7.432   0.967   6.074  1.7284 -0.3873 -0.6713
  681MOL0     H91907   7.218   0.914   5.857 -0.5184 -1.8466 -0.8597
  681MOL0     H91908   7.308   0.798   5.952 -0.6505 -1.3714  0.8296
  681MOL0     H91909   7.116   1.023   6.060 -1.3489  0.4368 -1.7478
  681MOL0     H91910   7.168   0.862   6.136 -0.2991 -1.0674 -0.3639
  681MOL0     H91911   6.988   0.882   5.899  1.4251  2.1667 -1.1712
  681MOL0     H91912   7.021   0.737   6.004  3.3003  0.8125  1.8074
  681MOL0     H91913   6.895   0.976   6.116  4.8404  0.6309 -1.1482
  681MOL0     H91914   6.913   0.811   6.191  3.8387  0.0291 -1.5485
  681MOL0     H91915   6.745   0.867   5.942  0.9568  3.1849  0.1158
  681MOL0     H91916   6.663   0.842   6.089 -1.3003 -2.1948 -3.0580
  681MOL0     H91917   7.781   1.252   5.967 -0.0894 -2.3868 -0.5319
  681MOL0     H91918   8.020   1.304   5.972 -1.4938  0.8886  0.4898
  681MOL0     H91919   8.390   1.510   5.497 -0.9584 -1.4079  0.4494
  681MOL0     H91920   8.605   1.591   5.522 -1.0645 -0.1421  0.9229
  681MOL0     H91921   9.636   1.809   4.915 -2.1119  1.0073 -0.4265
  681MOL0     H91922   9.857   1.934   4.919  1.6451  1.9423 -1.4536
  681MOL0     H91923  10.210   2.008   4.826  0.4214 -1.0450  0.9229
  681MOL0     H91924  10.458   1.992   4.823 -0.8996 -1.3450  0.3440
  681MOL0     H91925  10.584   1.883   4.634 -0.6299  0.9066  0.2522
  681MOL0     H91926  10.729   1.927   4.538 -0.4184 -0.2895 -0.8416
  681MOL0     H91927  10.793   1.847   4.765 -2.1536 -1.2835 -2.0342
  681MOL0     H91928  10.714   1.996   4.825  0.3303 -0.5535  0.4368
  681MOL0     H91929  10.934   2.069   4.800  3.6723 -1.2900 -0.9333
  681MOL0     H91930  10.845   2.135   4.664 -1.9277 -0.7489  0.7603
  681MOL0     H91931  10.938   1.963   4.508 -0.9937  0.6953  0.6472
  681MOL0     H91932  11.036   1.896   4.650 -2.1781 -0.6024  1.2224
  681MOL0     H91933  11.257   2.211   4.502 -0.9641  0.5544  0.7139
  681MOL0     H91934  10.445   2.234   4.462  0.6132  2.7220  2.9073
  681MOL0     H91935  10.200   2.229   4.467 -0.8727 -0.2091  0.1025
  682MOL0     O91936   1.606   7.590   2.737 -0.0155 -0.7778  0.7020
  682MOL0     C91937   1.684   7.656   2.664 -0.5342 -0.2401 -0.1630
  682MOL0     O91938   1.665   7.687   2.539 -0.6359  0.3777  0.3509
  682MOL0     C91939   1.536   7.661   2.496  0.7832 -0.0862  0.1642
  682MOL0     C91940   1.438   7.755   2.492 -0.7705  0.2136 -0.9844
  682MOL0     C91941   1.315   7.728   2.436 -0.0673 -0.0903 -0.0158
  682MOL0     C91942   1.286   7.598   2.388  1.8733  0.9970  0.5771
  682MOL0     O91943   1.172   7.555   2.322 -0.2307 -0.0708  0.4041
  682MOL0     C91944   1.078   7.662   2.302  0.3405 -0.7358  0.2780
  682MOL0     C91945   0.948   7.618   2.226 -0.5742 -0.1502  0.1835
  682MOL0     C91946   0.980   7.547   2.095  0.4182  0.5336 -0.0254
  682MOL0     C91947   0.854   7.497   2.025  0.0015  0.0627  0.1002
  682MOL0     C91948   0.878   7.392   1.918 -0.6054 -1.0191 -0.1346
  682MOL0     C91949   0.739   7.331   1.880  0.2141 -0.0690 -0.0280
  682MOL0     C91950   0.754   7.253   1.748  0.2506 -0.0601  0.6138
  682MOL0     C91951   0.618   7.217   1.679  0.3833  0.5278  0.4864
  682MOL0     N91952   0.654   7.201   1.532  0.8796 -0.5624  0.9362
  682MOL0     C91953   0.684   7.306   1.448  0.1500  0.2058  0.9365
  682MOL0     C91954   0.755   7.267   1.346  0.0543  0.3684  0.5552
  682MOL0     C91955   0.814   7.353   1.239  0.7810  0.7260 -0.4409
  682MOL0     C91956   0.726   7.346   1.114 -0.3394 -0.1562  0.0589
  682MOL0     C91957   0.744   7.473   1.037  0.0359  0.0656  0.1438
  682MOL0     C91958   0.691   7.466   0.895 -0.8121  0.5911  0.2978
  682MOL0     O91959   0.563   7.525   0.903  0.4046  0.1737 -1.0866
  682MOL0     C91960   0.476   7.533   0.798  0.4597  0.4287  0.1290
  682MOL0     C91961   0.511   7.496   0.666  0.3543  1.1485  0.2709
  682MOL0     C91962   0.409   7.485   0.567 -0.3760  0.0935 -1.3827
  682MOL0     C91963   0.456   7.423   0.434 -0.3537 -0.3433 -0.9606
  682MOL0     C91964   0.275   7.533   0.597 -0.3010  0.4588  0.9635
  682MOL0     C91965   0.172   7.553   0.481 -0.4218  0.3190 -0.2045
  682MOL0     O91966   0.211   7.536   0.355  1.1083  0.4125  0.3673
  682MOL0     C91967   0.120   7.515   0.250 -0.7494  0.4496  0.2491
  682MOL0     C91968  -0.007   7.439   0.255 -1.3481 -0.5115 -0.8096
  682MOL0     C91969  -0.076   7.420   0.141  0.7316 -0.3614 -0.3431
  682MOL0     C91970  -0.046   7.475   0.017  0.7528  0.4341 -0.1187
  682MOL0     O91971  -0.125   7.470  -0.091  0.6241 -0.3179 -0.2468
  682MOL0     C91972  -0.260   7.519  -0.063 -1.3858 -0.5759  0.0332
  682MOL0     C91973  -0.315   7.616  -0.169  0.2259  0.4441  0.2535
  682MOL0     C91974  -0.471   7.603  -0.198 -0.0111  0.3571 -0.3373
  682MOL0     C91975  -0.563   7.683  -0.105 -0.0397 -0.5134 -0.3459
  682MOL0     C91976  -0.698   7.718  -0.183 -0.9631 -0.1252  0.1241
  682MOL0     C91977  -0.808   7.783  -0.083 -0.4935 -0.1870 -0.0407
  682MOL0     C91978  -0.863   7.681   0.022  0.2520 -0.6244 -0.2514
  682MOL0     C91979  -0.874   7.756   0.168  0.8891  0.2455 -0.1423
  682MOL0    Cl91980  -0.724   7.736   0.255  0.0165 -0.0870  0.6232
  682MOL0     C91981   0.070   7.552   0.008 -0.3131  0.3229 -0.6529
  682MOL0     C91982   0.159   7.559   0.123 -0.0262 -0.7128  0.2634
  682MOL0     O91983   0.066   7.599   0.518 -0.5756  0.3440 -0.3791
  682MOL0     C91984   0.245   7.581   0.723 -0.2659 -0.4201  0.1011
  682MOL0     C91985   0.346   7.575   0.825 -0.1572  0.0046  0.5391
  682MOL0     N91986   0.767   7.134   1.356 -0.6293  0.9552 -0.5214
  682MOL0     N91987   0.705   7.091   1.471 -0.8880  0.1540  0.3900
  682MOL0     C91988   1.383   7.504   2.387 -0.7427 -0.2855 -0.5278
  682MOL0     C91989   1.503   7.540   2.433  0.0416  0.0717  0.1901
  682MOL0     C91990   1.817   7.682   2.726  0.2142  0.3159  0.5657
  682MOL0     C91991   1.845   7.649   2.862  0.2527 -0.1388  0.4176
  682MOL0     C91992   1.969   7.676   2.922 -0.0997  0.1811 -0.7906
  682MOL0     C91993   2.070   7.750   2.861  0.6540  0.0818 -0.1713
  682MOL0     O91994   2.179   7.806   2.915  0.2160  0.3199  0.0790
  682MOL0     C91995   2.211   7.819   3.059  0.1157 -0.5205 -0.0368
  682MOL0     C91996   2.341   7.753   3.064  0.2358 -0.7702  0.4866
  682MOL0     C91997   2.462   7.836   3.010  0.4521 -0.0995 -0.1006
  682MOL0     C91998   2.597   7.773   3.019  0.0082  0.1501  0.2362
  682MOL0     C91999   2.618   7.684   2.906  0.4670  0.9671 -0.3000
  682MOL0     C92000   2.641   7.610   2.816  0.5691 -0.2159  0.7530
  682MOL0     C92001   2.044   7.778   2.728 -0.2204 -0.2060  0.1899
  682MOL0     C92002   1.921   7.747   2.665  0.2660 -0.1331 -0.3074
  682MOL0     H92003   1.451   7.857   2.527 -2.9415  0.6825 -1.3939
  682MOL0     H92004   1.242   7.807   2.424 -2.1561 -1.9034  0.0206
  682MOL0     H92005   1.036   7.705   2.393 -0.2654  0.3639 -0.4899
  682MOL0     H92006   1.127   7.743   2.248  0.4132 -1.8540 -1.4129
  682MOL0     H92007   0.881   7.555   2.286  3.3767 -5.9159 -0.5702
  682MOL0     H92008   0.894   7.709   2.199 -2.0081 -0.5889  1.4722
  682MOL0     H92009   1.023   7.621   2.027  1.3189  2.1069  2.1601
  682MOL0     H92010   1.048   7.461   2.104 -0.2598 -0.5593 -3.5485
  682MOL0     H92011   0.785   7.447   2.093  1.0489  0.0998  1.2170
  682MOL0     H92012   0.794   7.579   1.986 -1.0586 -1.1411 -0.8935
  682MOL0     H92013   0.927   7.440   1.833 -0.6079  1.0157  0.9352
  682MOL0     H92014   0.957   7.322   1.946  0.1849  0.3699  1.3198
  682MOL0     H92015   0.704   7.268   1.962  0.2978  2.1418  1.8164
  682MOL0     H92016   0.666   7.411   1.869 -0.5349 -0.4556  1.7965
  682MOL0     H92017   0.807   7.317   1.676 -2.1981  0.2747 -0.9994
  682MOL0     H92018   0.805   7.160   1.776  1.8109  1.0658  1.6622
  682MOL0     H92019   0.532   7.285   1.684 -0.6602 -0.2622 -3.2430
  682MOL0     H92020   0.581   7.117   1.703  1.8917 -0.3056 -0.5148
  682MOL0     H92021   0.665   7.411   1.466  2.0783  0.9951 -1.1707
  682MOL0     H92022   0.810   7.455   1.277 -1.3967  0.6408 -0.2761
  682MOL0     H92023   0.917   7.322   1.223 -0.4217 -3.0141 -2.0629
  682MOL0     H92024   0.622   7.343   1.148 -0.3138 -0.3234  0.1267
  682MOL0     H92025   0.757   7.254   1.063 -0.2578 -0.1395  0.0790
  682MOL0     H92026   0.851   7.490   1.018 -0.0736  1.1349  0.4161
  682MOL0     H92027   0.709   7.555   1.100 -1.3998 -0.3437 -0.0930
  682MOL0     H92028   0.689   7.364   0.857 -1.5599  1.2723 -1.6289
  682MOL0     H92029   0.754   7.524   0.827  2.2376 -2.4379  0.2713
  682MOL0     H92030   0.610   7.468   0.632  0.8585  1.8953  1.0740
  682MOL0     H92031   0.500   7.503   0.373  2.9482 -1.0135  0.3177
  682MOL0     H92032   0.534   7.350   0.457 -1.3004 -1.3395 -0.8352
  682MOL0     H92033   0.382   7.368   0.375 -2.1079  1.0550 -0.1848
  682MOL0     H92034  -0.059   7.402   0.343  0.4068 -0.9926  0.0879
  682MOL0     H92035  -0.171   7.368   0.157  2.1107 -2.7210  0.7320
  682MOL0     H92036  -0.328   7.434  -0.071 -1.2854 -0.4735 -3.8140
  682MOL0     H92037  -0.272   7.573   0.031 -4.9496 -0.7693 -0.1532
  682MOL0     H92038  -0.281   7.719  -0.155 -1.2305  0.7111  2.3706
  682MOL0     H92039  -0.265   7.586  -0.261  0.5633  0.2796  0.4901
  682MOL0     H92040  -0.493   7.496  -0.191 -2.2319  0.6659 -1.4281
  682MOL0     H92041  -0.490   7.634  -0.301 -1.0913  0.5710 -0.0885
  682MOL0     H92042  -0.578   7.631  -0.011  0.1509 -0.4085 -0.2561
  682MOL0     H92043  -0.522   7.780  -0.074 -0.0614 -0.0358 -1.7300
  682MOL0     H92044  -0.731   7.627  -0.235  0.1932 -1.1067  1.0580
  682MOL0     H92045  -0.676   7.783  -0.268  0.4937  0.3259  0.8195
  682MOL0     H92046  -0.771   7.870  -0.028 -3.8299  1.7864 -0.6135
  682MOL0     H92047  -0.904   7.805  -0.133 -2.8569 -1.6642  3.4576
  682MOL0     H92048  -0.802   7.590   0.030 -2.3652 -2.6014 -1.2195
  682MOL0     H92049  -0.963   7.646  -0.007  1.7849 -4.1133 -1.8423
  682MOL0     H92050  -0.951   7.712   0.233  1.3569  1.9910  1.6667
  682MOL0     H92051  -0.907   7.860   0.162 -4.4888 -1.1251  0.2497
  682MOL0     H92052   0.092   7.602  -0.086 -1.2137  0.8943 -0.5783
  682MOL0     H92053   0.253   7.612   0.126 -0.9422  1.0068  0.3333
  682MOL0     H92054   0.148   7.622   0.749 -0.0858 -2.4318  5.0966
  682MOL0     H92055   0.327   7.605   0.927  1.1087  1.3464  0.4025
  682MOL0     H92056   1.362   7.406   2.345 -1.1850 -0.8031  0.8379
  682MOL0     H92057   1.578   7.466   2.407 -0.9453  0.1165 -3.2818
  682MOL0     H92058   1.770   7.594   2.918 -1.1927  0.3071 -0.9723
  682MOL0     H92059   1.972   7.650   3.027  1.4518  2.5167 -0.1959
  682MOL0     H92060   2.231   7.922   3.089 -0.9788  0.2458 -1.7769
  682MOL0     H92061   2.140   7.768   3.124  0.1300 -1.0214 -0.3969
  682MOL0     H92062   2.336   7.656   3.013  0.1139 -0.6439  0.2564
  682MOL0     H92063   2.358   7.729   3.169  1.4229  0.2163  0.5408
  682MOL0     H92064   2.464   7.924   3.075 -2.1683 -0.0937  0.0740
  682MOL0     H92065   2.434   7.858   2.906  1.2960 -3.6412 -1.2148
  682MOL0     H92066   2.592   7.715   3.112 -2.7363  0.0389  0.1014
  682MOL0     H92067   2.668   7.856   3.016  0.3112  0.1022  2.9826
  682MOL0     H92068   2.658   7.538   2.739 -1.6957  0.6754 -0.6747
  682MOL0     H92069   2.108   7.851   2.679  0.6581 -1.3037 -0.3323
  682MOL0     H92070   1.906   7.791   2.567  1.3724  5.2894  1.6122
  683MOL0     O92071   9.978  11.314  10.545  0.1087  0.0562 -0.4554
  683MOL0     C92072   9.923  11.209  10.575  0.0521  0.6360 -0.1020
  683MOL0     O92073   9.849  11.194  10.688 -0.3858  0.1257  0.5460
  683MOL0     C92074   9.843  11.291  10.788 -0.1657  0.1995 -0.5892
  683MOL0     C92075   9.768  11.410  10.759  0.2382  1.0355 -0.0929
  683MOL0     C92076   9.777  11.509  10.853  0.6368  0.2571  0.2990
  683MOL0     C92077   9.856  11.507  10.967  0.1688 -0.3618 -0.0328
  683MOL0     O92078   9.869  11.623  11.049 -0.7639 -0.2625  0.5781
  683MOL0     C92079  10.009  11.683  11.027 -0.1325  0.2635 -0.3689
  683MOL0     C92080  10.011  11.823  11.065 -0.8443 -0.1967  0.2576
  683MOL0     C92081   9.950  11.867  11.203  0.1638  0.2146  0.5701
  683MOL0     C92082   9.891  12.004  11.182 -0.0197 -0.5628 -0.3662
  683MOL0     C92083   9.801  12.047  11.297 -0.2541  0.4850 -0.4404
  683MOL0     C92084   9.669  11.977  11.317 -0.0550 -0.3425  0.0372
  683MOL0     C92085   9.587  12.073  11.404  0.4707  0.3785  0.2927
  683MOL0     C92086   9.445  12.026  11.426 -0.0433  0.3299  0.5937
  683MOL0     N92087   9.406  11.914  11.518  0.1452 -0.4096  0.5865
  683MOL0     C92088   9.285  11.877  11.576  1.0016 -0.3035 -0.4392
  683MOL0     C92089   9.315  11.791  11.677 -0.5499 -0.4614  0.5256
  683MOL0     C92090   9.219  11.745  11.790  0.2388  0.1980  0.1700
  683MOL0     C92091   9.225  11.598  11.806 -0.2585 -0.1644  0.6836
  683MOL0     C92092   9.162  11.530  11.680 -0.2651 -0.0558  0.2424
  683MOL0     C92093   9.002  11.526  11.669  0.2510 -0.3550  0.0074
  683MOL0     O92094   8.976  11.487  11.540 -0.3888  0.7040  0.4018
  683MOL0     C92095   8.852  11.519  11.481 -0.4515 -0.9023 -0.6227
  683MOL0     C92096   8.806  11.651  11.472 -0.2643 -0.2886  1.6809
  683MOL0     C92097   8.699  11.686  11.390 -1.1130  0.3297 -0.8320
  683MOL0     C92098   8.676  11.833  11.375 -0.3342 -0.2487 -1.1079
  683MOL0     C92099   8.616  11.581  11.346 -0.4456  0.2534  0.8647
  683MOL0     C92100   8.491  11.611  11.289 -0.3267  0.5489 -0.1681
  683MOL0     O92101   8.457  11.507  11.201 -0.5759 -0.4125  0.1097
  683MOL0     C92102   8.373  11.532  11.098 -1.0953  0.1284  0.4205
  683MOL0     C92103   8.339  11.408  11.025 -0.8778  0.7079 -0.0182
  683MOL0     C92104   8.273  11.423  10.896 -0.5808  0.1875 -0.6823
  683MOL0     C92105   8.227  11.546  10.852  0.4951  0.4064 -0.2830
  683MOL0     O92106   8.159  11.536  10.734 -0.5901  0.6086 -0.3784
  683MOL0     C92107   8.068  11.647  10.707 -0.0554  0.9337  0.4947
  683MOL0     C92108   8.027  11.630  10.564 -0.1381 -0.0030  0.5420
  683MOL0     C92109   8.156  11.640  10.472 -0.1840  0.7523 -0.5306
  683MOL0     C92110   8.121  11.609  10.318 -0.6057  0.3052  0.1467
  683MOL0     C92111   8.253  11.572  10.246  0.0650 -0.6747 -0.5194
  683MOL0     C92112   8.333  11.695  10.210  0.3501 -0.5232 -0.1549
  683MOL0     C92113   8.436  11.665  10.102  0.2827 -0.3500  0.4854
  683MOL0     C92114   8.376  11.660   9.959 -0.1209 -0.4362  0.1903
  683MOL0    Cl92115   8.328  11.497   9.926 -0.1925 -0.1614 -0.1782
  683MOL0     C92116   8.261  11.663  10.920  0.2342  0.3111 -0.2785
  683MOL0     C92117   8.334  11.655  11.042  0.1668  0.6547  0.3434
  683MOL0     O92118   8.416  11.696  11.331  0.3189 -0.3447 -0.7473
  683MOL0     C92119   8.668  11.451  11.343  0.2774  0.2861 -0.6605
  683MOL0     C92120   8.790  11.423  11.414  0.4113  0.8071  0.4756
  683MOL0     N92121   9.450  11.775  11.679 -0.3986 -0.4068 -0.1256
  683MOL0     N92122   9.502  11.843  11.585 -0.6307 -0.0953 -0.0232
  683MOL0     C92123   9.919  11.387  10.992 -0.3600 -0.0718 -0.6628
  683MOL0     C92124   9.926  11.278  10.906 -0.6118  0.3640 -0.2688
  683MOL0     C92125   9.929  11.107  10.472 -0.0534 -0.5633  0.7873
  683MOL0     C92126  10.042  11.084  10.382  0.5098 -0.4835 -1.0283
  683MOL0     C92127  10.041  10.978  10.300 -0.6107 -0.1438  0.6803
  683MOL0     C92128   9.934  10.891  10.280  0.3297 -0.0418 -0.5819
  683MOL0     O92129   9.967  10.783  10.203  0.4588 -0.0791 -0.3883
  683MOL0     C92130   9.874  10.669  10.208  0.4840 -0.0924 -0.0288
  683MOL0     C92131   9.926  10.556  10.123  0.9369 -0.8444  1.2857
  683MOL0     C92132  10.025  10.465  10.195 -0.3421  1.0051  0.4895
  683MOL0     C92133   9.955  10.356  10.284 -0.0932 -0.5412  0.2413
  683MOL0     C92134   9.879  10.259  10.200 -0.5537 -0.5825 -0.2596
  683MOL0     C92135   9.842  10.182  10.117  0.3473 -0.7363  0.4166
  683MOL0     C92136   9.816  10.919  10.354 -1.2456  0.0774  0.2805
  683MOL0     C92137   9.815  11.025  10.446 -0.1540 -0.1103 -0.0884
  683MOL0     H92138   9.707  11.418  10.670  1.0479  0.9362 -0.6642
  683MOL0     H92139   9.715  11.596  10.832 -1.2860 -0.5616  2.1854
  683MOL0     H92140  10.079  11.632  11.093 -1.1524 -1.8976 -0.8497
  683MOL0     H92141  10.040  11.658  10.925  1.1359  1.4690 -0.2993
  683MOL0     H92142  10.113  11.860  11.069 -0.9907  0.3452 -0.8485
  683MOL0     H92143   9.978  11.870  10.972 -2.2328  0.8956  1.2464
  683MOL0     H92144   9.876  11.797  11.243  3.1939 -2.2002  2.3492
  683MOL0     H92145  10.034  11.876  11.271  2.3838  1.3913 -2.1209
  683MOL0     H92146   9.977  12.068  11.165  0.5354 -0.1808  3.0961
  683MOL0     H92147   9.824  12.005  11.096 -1.2430  0.0795  0.5635
  683MOL0     H92148   9.864  12.050  11.386  0.3344  1.1236 -0.8604
  683MOL0     H92149   9.783  12.155  11.295  1.0909  0.7422  0.1994
  683MOL0     H92150   9.611  11.943  11.231  1.4910 -3.7902  0.1713
  683MOL0     H92151   9.704  11.885  11.366  0.3869 -0.9339 -1.3289
  683MOL0     H92152   9.629  12.071  11.505 -0.5923 -1.4005  0.7303
  683MOL0     H92153   9.582  12.176  11.369  1.1282  0.3134 -0.0161
  683MOL0     H92154   9.390  12.004  11.334  0.2716 -2.0492  0.9214
  683MOL0     H92155   9.395  12.111  11.472 -3.9187 -0.9490 -0.8989
  683MOL0     H92156   9.184  11.910  11.554  1.2907  0.1894 -1.0986
  683MOL0     H92157   9.258  11.791  11.881 -2.1661  2.5766  0.1310
  683MOL0     H92158   9.116  11.772  11.764 -0.0610 -2.4299 -1.8389
  683MOL0     H92159   9.164  11.571  11.893  0.1663 -1.4108  0.6028
  683MOL0     H92160   9.329  11.566  11.812  0.1600  0.6734 -1.2257
  683MOL0     H92161   9.201  11.427  11.679  1.8882  0.7042  0.1285
  683MOL0     H92162   9.194  11.583  11.590 -0.9328  1.6601  0.9653
  683MOL0     H92163   8.970  11.627  11.696 -0.7414 -0.0909 -1.9908
  683MOL0     H92164   8.958  11.451  11.735  2.2400 -0.9453  0.7408
  683MOL0     H92165   8.877  11.722  11.512 -1.6782  2.4182 -0.3245
  683MOL0     H92166   8.703  11.870  11.276 -1.5679 -0.4029 -1.5197
  683MOL0     H92167   8.579  11.864  11.415 -0.5102 -3.0652  0.9691
  683MOL0     H92168   8.744  11.885  11.443  0.0700  0.0252 -1.7153
  683MOL0     H92169   8.364  11.312  11.070 -2.1025  1.3863  2.2718
  683MOL0     H92170   8.250  11.330  10.845  0.4544 -0.0807 -0.6718
  683MOL0     H92171   7.978  11.650  10.769 -1.7822 -0.0988 -1.8037
  683MOL0     H92172   8.116  11.744  10.720 -0.1188  0.7279  2.4242
  683MOL0     H92173   7.969  11.538  10.558  1.2930 -0.8320 -1.2904
  683MOL0     H92174   7.974  11.721  10.533 -0.6297 -1.0708 -1.9926
  683MOL0     H92175   8.235  11.574  10.508  0.0293  0.7673 -0.9571
  683MOL0     H92176   8.198  11.741  10.484 -2.1183  1.3508  1.8122
  683MOL0     H92177   8.044  11.532  10.316  0.1744 -0.4868 -1.1854
  683MOL0     H92178   8.088  11.704  10.275  0.0573 -0.3598 -1.9837
  683MOL0     H92179   8.225  11.520  10.153  1.4066  1.7837 -2.4219
  683MOL0     H92180   8.311  11.501  10.305  2.4337 -1.0022 -3.0355
  683MOL0     H92181   8.277  11.784  10.179 -3.6862 -1.6355  3.0233
  683MOL0     H92182   8.372  11.725  10.308 -0.2815  3.8807 -1.0600
  683MOL0     H92183   8.496  11.575  10.122  2.1146  0.3914 -1.3347
  683MOL0     H92184   8.495  11.756  10.092 -0.8924  0.3735  0.0178
  683MOL0     H92185   8.454  11.686   9.886  0.3352  3.1362  1.7555
  683MOL0     H92186   8.300  11.736   9.941 -1.4687 -1.5294  1.0356
  683MOL0     H92187   8.243  11.761  10.878  2.1813 -0.0357 -2.0548
  683MOL0     H92188   8.358  11.750  11.089  3.3025 -0.2682  0.8267
  683MOL0     H92189   8.627  11.371  11.283  0.7652  0.2268 -0.9229
  683MOL0     H92190   8.839  11.326  11.404 -1.3077  0.0865 -2.0107
  683MOL0     H92191   9.970  11.379  11.087 -1.4286  3.1820  0.3231
  683MOL0     H92192   9.981  11.191  10.939 -2.2491  0.4176  3.1023
  683MOL0     H92193  10.135  11.138  10.403  0.1495  0.1023 -0.9101
  683MOL0     H92194  10.141  10.958  10.262  0.4046  1.0713  2.5127
  683MOL0     H92195   9.861  10.638  10.312  1.5164  0.4397  0.2705
  683MOL0     H92196   9.778  10.690  10.161  1.7422  3.5505 -1.3201
  683MOL0     H92197   9.984  10.591  10.036 -0.8419 -0.3831  0.2322
  683MOL0     H92198   9.838  10.496  10.099 -0.9897  2.0944  0.4896
  683MOL0     H92199  10.094  10.529  10.252 -1.5779  2.3245  0.5434
  683MOL0     H92200  10.084  10.413  10.119 -0.4938 -0.3491  1.2591
  683MOL0     H92201   9.895  10.411  10.357 -0.0965 -1.9605  1.3781
  683MOL0     H92202  10.024  10.304  10.352 -1.8337  1.2018  3.5765
  683MOL0     H92203   9.815  10.110  10.042 -0.0617 -0.1408 -0.0306
  683MOL0     H92204   9.741  10.841  10.360  0.9246 -2.0282  4.9019
  683MOL0     H92205   9.726  11.046  10.505 -1.2313 -0.3038 -1.5817
  684MOL0     O92206   2.716   3.815   7.406 -0.0119 -0.2488  0.3402
  684MOL0     C92207   2.806   3.775   7.334  0.5238 -0.8611  0.1816
  684MOL0     O92208   2.814   3.658   7.261  0.0982 -0.7131  0.2383
  684MOL0     C92209   2.711   3.580   7.262 -0.1356  0.4299  1.2680
  684MOL0     C92210   2.602   3.595   7.174 -0.3610  0.2804 -0.0381
  684MOL0     C92211   2.486   3.521   7.196  0.3663 -0.0528 -0.3448
  684MOL0     C92212   2.476   3.420   7.288 -0.2052 -0.1459 -0.3672
  684MOL0     O92213   2.368   3.331   7.299  0.0418 -0.4458  0.4634
  684MOL0     C92214   2.267   3.323   7.199  0.7233 -0.3730  0.3337
  684MOL0     C92215   2.230   3.173   7.187 -0.0261 -0.5806  0.2535
  684MOL0     C92216   2.128   3.131   7.077 -0.0596  0.4931  0.3805
  684MOL0     C92217   1.978   3.178   7.098 -1.2814  0.1700 -1.1487
  684MOL0     C92218   1.888   3.120   6.986  0.0436  0.1858 -0.0894
  684MOL0     C92219   1.754   3.187   6.972  0.6818  0.7552  0.9628
  684MOL0     C92220   1.662   3.115   6.875 -0.2391  0.4091 -0.4519
  684MOL0     C92221   1.533   3.183   6.843 -0.1837 -0.0754 -0.1934
  684MOL0     N92222   1.439   3.087   6.803  0.1807  0.3732 -0.6526
  684MOL0     C92223   1.410   3.056   6.673  0.7185  0.0080  0.2058
  684MOL0     C92224   1.334   2.945   6.684  0.1523 -0.2709  0.6063
  684MOL0     C92225   1.281   2.852   6.580 -1.0193 -0.6415  0.5295
  684MOL0     C92226   1.176   2.922   6.506 -0.7918  0.4425 -0.1696
  684MOL0     C92227   1.102   2.821   6.418  0.8206  0.8590  0.1618
  684MOL0     C92228   0.993   2.731   6.479 -1.4217 -0.8349 -0.4062
  684MOL0     O92229   0.879   2.809   6.512  0.0182 -0.1302  0.1756
  684MOL0     C92230   0.781   2.833   6.420  0.8419  0.9155  0.1385
  684MOL0     C92231   0.761   2.751   6.309  0.3412  0.6858 -0.0263
  684MOL0     C92232   0.650   2.780   6.222 -0.4208  0.0102  0.3513
  684MOL0     C92233   0.634   2.687   6.099  0.5581 -1.2724 -0.7368
  684MOL0     C92234   0.561   2.881   6.252 -0.9640 -0.4353  0.3372
  684MOL0     C92235   0.437   2.912   6.178 -0.2860  1.2488  0.0212
  684MOL0     O92236   0.375   3.028   6.213  0.7392 -0.3351 -0.0609
  684MOL0     C92237   0.242   3.062   6.185  0.3528 -0.7115  0.7521
  684MOL0     C92238   0.213   3.166   6.090  1.0672  0.2696 -0.8373
  684MOL0     C92239   0.082   3.202   6.063 -0.2860  0.6080 -0.7327
  684MOL0     C92240  -0.022   3.138   6.133  0.1923 -1.2496 -0.0111
  684MOL0     O92241  -0.147   3.182   6.098  0.6258  0.2310  0.3677
  684MOL0     C92242  -0.245   3.159   6.200  0.2037  0.0826 -0.7142
  684MOL0     C92243  -0.341   3.061   6.142  0.0093  0.4668  0.5094
  684MOL0     C92244  -0.459   3.013   6.238  0.2586  0.2477 -1.6080
  684MOL0     C92245  -0.538   3.134   6.284 -0.4828  0.0269 -0.0400
  684MOL0     C92246  -0.636   3.093   6.396 -0.0663 -0.0055  0.5612
  684MOL0     C92247  -0.724   3.200   6.452 -0.0029 -0.4314 -0.1847
  684MOL0     C92248  -0.830   3.159   6.552  0.7871 -0.0242 -0.1342
  684MOL0     C92249  -0.886   3.279   6.627  0.8122 -0.4922 -0.3489
  684MOL0    Cl92250  -0.970   3.212   6.776  0.2281 -0.1257  0.1472
  684MOL0     C92251   0.012   3.030   6.222 -0.0238 -0.6303 -0.1394
  684MOL0     C92252   0.141   3.001   6.254  0.0542 -0.2628  0.2460
  684MOL0     O92253   0.401   2.837   6.096  0.5167  0.5838 -0.3028
  684MOL0     C92254   0.595   2.967   6.360 -0.3123 -0.0063  0.6700
  684MOL0     C92255   0.700   2.937   6.445 -0.2233 -0.0158 -0.7189
  684MOL0     N92256   1.320   2.919   6.816  0.5007 -0.1436  0.1633
  684MOL0     N92257   1.379   3.010   6.882  0.1074  0.4956 -0.7710
  684MOL0     C92258   2.573   3.411   7.385 -0.5083 -1.2235  0.1271
  684MOL0     C92259   2.694   3.486   7.365  0.2625 -0.2928 -0.2756
  684MOL0     C92260   2.930   3.855   7.339 -0.0485  0.1662  0.0928
  684MOL0     C92261   3.011   3.851   7.228  0.3296  0.1820 -0.0965
  684MOL0     C92262   3.128   3.923   7.227 -1.1372  0.3689 -0.1160
  684MOL0     C92263   3.162   3.991   7.342 -0.1116  1.3348 -0.6463
  684MOL0     O92264   3.272   4.069   7.355 -0.0634 -0.8847 -0.5220
  684MOL0     C92265   3.378   4.049   7.263  0.0132  0.6708 -0.3681
  684MOL0     C92266   3.499   4.125   7.320  0.4448  0.0538 -0.9813
  684MOL0     C92267   3.478   4.276   7.310  0.2720 -0.3950 -0.7912
  684MOL0     C92268   3.572   4.348   7.412  0.2483  0.1360 -0.1188
  684MOL0     C92269   3.711   4.303   7.400 -0.2125  0.2127  0.2426
  684MOL0     C92270   3.829   4.302   7.379 -1.1244  0.6258  1.2624
  684MOL0     C92271   3.081   3.992   7.455  0.3789 -0.1361 -0.0840
  684MOL0     C92272   2.960   3.928   7.459  0.6085 -0.2861  0.1529
  684MOL0     H92273   2.604   3.670   7.096  1.5535 -1.9809 -2.3256
  684MOL0     H92274   2.402   3.537   7.129  1.5235 -0.1973 -1.8944
  684MOL0     H92275   2.184   3.391   7.217  0.3455 -0.1693 -1.8674
  684MOL0     H92276   2.318   3.349   7.106  0.6964 -0.8722  0.1715
  684MOL0     H92277   2.328   3.131   7.162 -0.7028 -0.9887 -1.9445
  684MOL0     H92278   2.200   3.134   7.285 -1.4262  2.4326  1.1417
  684MOL0     H92279   2.155   3.163   6.976 -0.9085 -0.2748 -0.1122
  684MOL0     H92280   2.120   3.022   7.069  0.0930  0.4016  1.3205
  684MOL0     H92281   1.933   3.128   7.184  1.6619 -3.3736 -1.4107
  684MOL0     H92282   1.974   3.287   7.104  0.3526  0.1797  0.7135
  684MOL0     H92283   1.942   3.150   6.896  0.6227 -0.8784 -0.1135
  684MOL0     H92284   1.878   3.011   6.986 -2.0377  0.3400  0.0431
  684MOL0     H92285   1.712   3.199   7.072 -2.3733  1.5325 -0.2951
  684MOL0     H92286   1.771   3.289   6.938 -1.5113  0.7975 -0.1985
  684MOL0     H92287   1.714   3.117   6.779  1.1259 -0.0877  0.2396
  684MOL0     H92288   1.652   3.010   6.904  0.4999  0.2702 -0.6770
  684MOL0     H92289   1.539   3.244   6.752 -0.0449 -1.6920 -1.3071
  684MOL0     H92290   1.497   3.236   6.932  0.6704 -0.1187  0.1851
  684MOL0     H92291   1.441   3.103   6.580 -1.5252  0.7916 -0.1855
  684MOL0     H92292   1.364   2.822   6.516 -1.4222 -0.1994 -0.2167
  684MOL0     H92293   1.249   2.760   6.630  0.3512 -2.5417 -1.8636
  684MOL0     H92294   1.211   2.997   6.435 -2.0189  2.7890  1.5610
  684MOL0     H92295   1.113   2.977   6.577 -2.2134  2.4982 -2.8662
  684MOL0     H92296   1.178   2.761   6.367 -0.5857 -1.2649  0.4750
  684MOL0     H92297   1.060   2.887   6.342 -0.2160 -1.2872 -1.2091
  684MOL0     H92298   1.041   2.694   6.571  2.0424  0.0968 -1.6697
  684MOL0     H92299   0.975   2.640   6.422 -0.1831 -0.7763 -0.9161
  684MOL0     H92300   0.809   2.656   6.289  1.6078  1.3505 -0.2441
  684MOL0     H92301   0.732   2.653   6.064  0.4188 -1.7984 -0.6203
  684MOL0     H92302   0.578   2.597   6.126  0.7535 -0.7993  1.3634
  684MOL0     H92303   0.586   2.736   6.014  0.1164  0.5327  0.5104
  684MOL0     H92304   0.283   3.224   6.031  0.8839  2.9194  1.3507
  684MOL0     H92305   0.041   3.267   5.986 -3.8674 -0.0688  0.4063
  684MOL0     H92306  -0.207   3.119   6.294  1.0355  1.5053 -0.4132
  684MOL0     H92307  -0.301   3.251   6.220 -4.1863 -2.8512  2.4278
  684MOL0     H92308  -0.386   3.097   6.049 -0.6956  2.5193  1.5887
  684MOL0     H92309  -0.282   2.974   6.110  2.3145  1.6942  1.2000
  684MOL0     H92310  -0.418   2.966   6.328 -2.1355 -1.2089 -1.1900
  684MOL0     H92311  -0.528   2.942   6.192  0.9220 -0.4432 -1.5587
  684MOL0     H92312  -0.477   3.219   6.316  0.0823 -0.2406 -0.4042
  684MOL0     H92313  -0.591   3.170   6.195  0.6057 -1.1233 -1.1999
  684MOL0     H92314  -0.577   3.044   6.474 -1.6357  0.1993  1.9252
  684MOL0     H92315  -0.704   3.025   6.344 -0.4676 -0.3997  1.5873
  684MOL0     H92316  -0.655   3.267   6.503 -1.4300  0.8933  0.0888
  684MOL0     H92317  -0.770   3.268   6.380 -0.9475 -1.1430 -0.2738
  684MOL0     H92318  -0.782   3.111   6.638 -0.5300 -0.4828  0.3638
  684MOL0     H92319  -0.903   3.088   6.512 -0.0072 -0.7978  2.4623
  684MOL0     H92320  -0.956   3.333   6.563  1.9584 -0.3110 -1.5030
  684MOL0     H92321  -0.808   3.350   6.657  0.4328  1.3652 -3.3338
  684MOL0     H92322  -0.064   2.972   6.274 -0.0875 -0.0695  0.4183
  684MOL0     H92323   0.172   2.926   6.326  0.9832 -0.5042 -0.3841
  684MOL0     H92324   0.529   3.050   6.381 -2.4989 -0.7858 -2.4349
  684MOL0     H92325   0.716   3.007   6.526  2.1661  1.0697 -2.0306
  684MOL0     H92326   2.558   3.338   7.463 -2.3526 -0.4301  0.5534
  684MOL0     H92327   2.772   3.466   7.438 -0.3155 -3.9834 -0.4820
  684MOL0     H92328   2.987   3.799   7.136  0.0339 -1.0543  0.6636
  684MOL0     H92329   3.186   3.919   7.135 -0.8017  0.0953  0.1012
  684MOL0     H92330   3.408   3.946   7.244 -1.6810  0.1545 -0.4741
  684MOL0     H92331   3.356   4.089   7.163 -0.6098  0.9968 -0.1086
  684MOL0     H92332   3.592   4.095   7.272 -1.1141  2.8059 -6.6126
  684MOL0     H92333   3.505   4.097   7.426 -2.2113  1.3977 -0.3696
  684MOL0     H92334   3.378   4.303   7.345  1.4292  1.8552  1.0386
  684MOL0     H92335   3.483   4.308   7.205 -0.7813  2.2591 -0.1138
  684MOL0     H92336   3.544   4.315   7.513  1.3893 -1.8834 -0.4106
  684MOL0     H92337   3.565   4.457   7.404 -4.0550 -0.0152 -0.5605
  684MOL0     H92338   3.934   4.310   7.359 -1.7910  3.1237 -2.0905
  684MOL0     H92339   3.115   4.036   7.548 -0.9123  0.4162  0.1393
  684MOL0     H92340   2.904   3.904   7.549  2.3916 -2.2088  0.8415
  685MOL0     O92341  10.626   9.526   0.948 -0.7658  0.7645  0.1412
  685MOL0     C92342  10.722   9.447   0.937 -0.3228  0.3355 -0.3424
  685MOL0     O92343  10.723   9.328   0.997 -0.1288  0.7453  0.0087
  685MOL0     C92344  10.628   9.313   1.094  0.8004 -0.0391  0.1156
  685MOL0     C92345  10.542   9.200   1.089 -0.0839  0.0805  0.7790
  685MOL0     C92346  10.440   9.189   1.192 -0.9506 -0.6862  0.4989
  685MOL0     C92347  10.413   9.293   1.287 -0.5646 -0.3699  0.0104
  685MOL0     O92348  10.299   9.287   1.372 -0.0159 -0.2661  0.4928
  685MOL0     C92349  10.213   9.180   1.358 -0.5762 -0.2706 -0.3800
  685MOL0     C92350  10.086   9.214   1.426 -0.7876  0.4451  0.3711
  685MOL0     C92351  10.103   9.293   1.554  0.4607  0.4359  0.6333
  685MOL0     C92352   9.972   9.281   1.637 -0.9955  0.4204  0.5592
  685MOL0     C92353   9.980   9.342   1.779  0.1185 -0.8747  0.3164
  685MOL0     C92354   9.843   9.340   1.861 -0.4192 -0.3291  0.2888
  685MOL0     C92355   9.738   9.437   1.804  0.2557 -0.0637  0.3751
  685MOL0     C92356   9.626   9.475   1.900 -0.1058  0.3583  0.1111
  685MOL0     N92357   9.515   9.545   1.845 -0.1011 -0.5429 -0.3096
  685MOL0     C92358   9.453   9.515   1.731  0.1052 -0.2589  0.5183
  685MOL0     C92359   9.357   9.602   1.712  0.4683 -1.2531  0.7017
  685MOL0     C92360   9.270   9.618   1.595  0.6104  0.6601  1.0987
  685MOL0     C92361   9.133   9.548   1.613  0.1630 -0.3331 -0.1454
  685MOL0     C92362   9.029   9.630   1.543  0.1292  0.2860 -0.3468
  685MOL0     C92363   8.896   9.557   1.560  0.6494 -0.3896  0.3606
  685MOL0     O92364   8.791   9.605   1.485  0.5685 -0.3211 -0.1842
  685MOL0     C92365   8.662   9.569   1.530 -0.0262 -0.9475 -0.0055
  685MOL0     C92366   8.571   9.661   1.595 -0.2802 -0.3392 -0.3553
  685MOL0     C92367   8.451   9.615   1.643 -0.0411  0.2713  0.6305
  685MOL0     C92368   8.370   9.712   1.719  0.6887  0.6084  1.1889
  685MOL0     C92369   8.405   9.484   1.619 -0.0827 -0.1414 -0.5155
  685MOL0     C92370   8.272   9.430   1.668  0.6080  1.3197 -0.1393
  685MOL0     O92371   8.231   9.330   1.584  0.1997 -0.0281 -0.3676
  685MOL0     C92372   8.095   9.308   1.576  1.2938  0.7626  0.1552
  685MOL0     C92373   8.026   9.378   1.481 -0.0297  0.2437 -0.2049
  685MOL0     C92374   7.907   9.337   1.426 -0.3199 -0.0826 -0.0863
  685MOL0     C92375   7.852   9.215   1.477  0.4010  0.6769  0.0620
  685MOL0     O92376   7.734   9.159   1.433 -0.0581 -0.3854  0.3837
  685MOL0     C92377   7.653   9.205   1.318 -0.3818  0.4051  0.1021
  685MOL0     C92378   7.512   9.151   1.312  0.0277  0.6110 -0.4568
  685MOL0     C92379   7.508   9.014   1.231 -0.7981 -0.2403 -1.2563
  685MOL0     C92380   7.474   9.037   1.076  0.6915  0.0782 -1.2747
  685MOL0     C92381   7.322   9.057   1.074 -0.0115  0.0225 -0.1206
  685MOL0     C92382   7.277   9.109   0.931  0.3946  0.3435  0.7348
  685MOL0     C92383   7.287   8.997   0.824  0.2738  0.1715 -0.9949
  685MOL0     C92384   7.254   9.033   0.680 -0.6371 -0.7108 -0.0515
  685MOL0    Cl92385   7.090   9.112   0.677 -0.0278 -0.2933 -0.1552
  685MOL0     C92386   7.915   9.151   1.580  0.2769  0.6236 -0.2501
  685MOL0     C92387   8.035   9.200   1.637 -0.1604  0.1304  0.0636
  685MOL0     O92388   8.204   9.480   1.759 -0.4249  0.1048  0.7472
  685MOL0     C92389   8.500   9.393   1.577 -0.3445  0.0100  0.3578
  685MOL0     C92390   8.625   9.442   1.535 -0.6100 -0.0143 -0.1176
  685MOL0     N92391   9.355   9.676   1.825 -0.7717 -0.6541  1.0305
  685MOL0     N92392   9.457   9.648   1.902 -0.4902 -0.1647  0.4129
  685MOL0     C92393  10.503   9.409   1.283  0.0197 -0.5181 -0.1689
  685MOL0     C92394  10.609   9.416   1.192  0.5549  0.2056  0.5944
  685MOL0     C92395  10.834   9.486   0.852 -0.1682 -0.4444  0.1813
  685MOL0     C92396  10.876   9.626   0.831  0.3550  0.4455  0.5996
  685MOL0     C92397  10.993   9.652   0.767  0.1239 -0.4858  0.8860
  685MOL0     C92398  11.068   9.553   0.701 -0.2275 -0.6861 -0.7643
  685MOL0     O92399  11.191   9.603   0.637 -0.2028  0.7264  0.2485
  685MOL0     C92400  11.289   9.499   0.601 -0.2724  1.0710 -0.1716
  685MOL0     C92401  11.415   9.564   0.548  0.0129  0.3332  0.0583
  685MOL0     C92402  11.474   9.683   0.643  0.0805  0.5917 -0.9618
  685MOL0     C92403  11.590   9.747   0.584  0.1837  0.2060 -0.4720
  685MOL0     C92404  11.588   9.886   0.626  0.0901 -0.8555 -0.2492
  685MOL0     C92405  11.588  10.006   0.610  0.5050  0.1097  0.1534
  685MOL0     C92406  11.023   9.421   0.718 -0.7670 -0.0414 -0.4153
  685MOL0     C92407  10.912   9.394   0.795 -0.2916 -0.3939 -0.2785
  685MOL0     H92408  10.543   9.128   1.008  1.2525  0.9536 -0.0176
  685MOL0     H92409  10.372   9.105   1.181 -2.3096  0.4283  0.1690
  685MOL0     H92410  10.192   9.172   1.250 -0.4961 -0.8565 -0.3539
  685MOL0     H92411  10.251   9.089   1.405  0.0472  0.5514  0.7296
  685MOL0     H92412  10.031   9.281   1.359 -0.4811 -0.6503 -1.0225
  685MOL0     H92413  10.018   9.129   1.431  0.7397 -0.8022  5.1244
  685MOL0     H92414  10.184   9.242   1.608  0.9904  0.2538 -0.2985
  685MOL0     H92415  10.127   9.400   1.556  0.8533  0.3652  0.1513
  685MOL0     H92416   9.893   9.339   1.587 -2.8993 -1.1799  1.5499
  685MOL0     H92417   9.934   9.179   1.642 -1.7313  0.6721  0.2715
  685MOL0     H92418  10.049   9.279   1.835  1.4860  3.2671  3.7689
  685MOL0     H92419  10.032   9.438   1.781 -1.8024  0.2352 -0.6062
  685MOL0     H92420   9.807   9.237   1.866  0.4439 -1.1044 -4.3389
  685MOL0     H92421   9.862   9.381   1.961  1.2877  2.5681 -1.0801
  685MOL0     H92422   9.793   9.526   1.770 -1.6333  0.6643 -0.9657
  685MOL0     H92423   9.708   9.389   1.710  0.6623  2.8422 -1.3781
  685MOL0     H92424   9.664   9.543   1.977 -1.8885  1.2579  0.2435
  685MOL0     H92425   9.589   9.385   1.951  1.7426  0.2022  1.2754
  685MOL0     H92426   9.480   9.432   1.666 -2.3092  0.1617 -1.1722
  685MOL0     H92427   9.257   9.726   1.584  0.6176  0.5252 -0.4959
  685MOL0     H92428   9.324   9.602   1.502 -2.9811  1.3361 -1.3389
  685MOL0     H92429   9.104   9.536   1.718  1.1979 -1.9208 -0.0039
  685MOL0     H92430   9.141   9.450   1.567 -2.7912 -0.9853  0.5012
  685MOL0     H92431   9.038   9.646   1.435  0.7234  4.9537  0.1878
  685MOL0     H92432   9.017   9.728   1.589 -0.8791 -0.7206  1.6256
  685MOL0     H92433   8.875   9.547   1.667 -3.3876  0.9996 -0.1414
  685MOL0     H92434   8.910   9.455   1.524  0.8500 -0.3353  0.2835
  685MOL0     H92435   8.613   9.760   1.607  2.6430 -1.8232  4.0632
  685MOL0     H92436   8.401   9.813   1.693  0.5485  0.9261  2.2421
  685MOL0     H92437   8.271   9.711   1.671  0.9119  0.8419  0.7200
  685MOL0     H92438   8.358   9.688   1.825 -0.2002  0.6345  1.1018
  685MOL0     H92439   8.075   9.460   1.430  0.8399  0.1462  0.4657
  685MOL0     H92440   7.863   9.397   1.347 -0.5583 -1.3938 -0.9772
  685MOL0     H92441   7.644   9.314   1.317 -3.1245  0.2705 -3.0727
  685MOL0     H92442   7.695   9.176   1.222 -4.4408 -0.1063 -1.7010
  685MOL0     H92443   7.462   9.138   1.408 -0.5846 -2.3919 -1.0684
  685MOL0     H92444   7.447   9.226   1.265 -2.1529 -0.4983  0.6201
  685MOL0     H92445   7.429   8.952   1.274  1.1535 -1.9478  0.0654
  685MOL0     H92446   7.600   8.955   1.234 -1.0369 -0.7150  2.6447
  685MOL0     H92447   7.532   9.119   1.033 -2.0940  2.1338 -1.3835
  685MOL0     H92448   7.496   8.945   1.022  0.1136  1.4067 -3.9555
  685MOL0     H92449   7.285   9.126   1.150 -1.8426 -1.7401  0.6904
  685MOL0     H92450   7.273   8.962   1.098  2.8371 -2.0873 -1.8451
  685MOL0     H92451   7.169   9.127   0.935 -0.4149 -2.1633 -3.7174
  685MOL0     H92452   7.337   9.198   0.910  3.2858 -1.7927 -0.7713
  685MOL0     H92453   7.215   8.923   0.860  0.8573  1.0381  2.2580
  685MOL0     H92454   7.385   8.951   0.831  0.2453  0.3405  0.8709
  685MOL0     H92455   7.249   8.941   0.622 -2.2514 -0.0257 -1.0693
  685MOL0     H92456   7.330   9.099   0.637 -2.2799 -0.1258 -2.1666
  685MOL0     H92457   7.866   9.067   1.628  0.7171  1.4538  1.7368
  685MOL0     H92458   8.083   9.146   1.718  1.1521  1.1979  0.0275
  685MOL0     H92459   8.492   9.285   1.568 -1.6325  0.1595 -0.6140
  685MOL0     H92460   8.698   9.375   1.491  0.6681  0.3635  1.3466
  685MOL0     H92461  10.496   9.488   1.357  0.9236 -1.2270  0.6842
  685MOL0     H92462  10.679   9.498   1.205  2.0426 -1.1065  1.1908
  685MOL0     H92463  10.807   9.706   0.858  0.5417  0.8553 -0.1196
  685MOL0     H92464  11.027   9.753   0.749 -0.1936 -0.5378 -0.0304
  685MOL0     H92465  11.310   9.441   0.692  2.9071  1.8514 -0.2808
  685MOL0     H92466  11.240   9.438   0.525 -0.4550  1.3140 -0.2512
  685MOL0     H92467  11.390   9.614   0.454 -0.2293 -0.0638 -0.0921
  685MOL0     H92468  11.496   9.492   0.532  0.9569  1.2978  0.3762
  685MOL0     H92469  11.502   9.635   0.737  0.1343  2.5643  0.0749
  685MOL0     H92470  11.387   9.746   0.662 -3.4715 -3.6331 -1.4035
  685MOL0     H92471  11.587   9.740   0.475  0.6236 -2.8346 -0.3797
  685MOL0     H92472  11.675   9.688   0.618 -0.3353 -0.4600 -0.3195
  685MOL0     H92473  11.605  10.110   0.589 -0.6297  0.1383 -0.6891
  685MOL0     H92474  11.087   9.339   0.687 -1.5991 -1.1490  0.7201
  685MOL0     H92475  10.883   9.290   0.813 -0.5984 -0.3998 -0.7854
  686MOL0     O92476   1.357   8.694   5.848 -0.3383  0.0630  0.3459
  686MOL0     C92477   1.402   8.784   5.768  0.1364  0.2033  0.2526
  686MOL0     O92478   1.323   8.849   5.675  0.2181  0.1115  0.9468
  686MOL0     C92479   1.183   8.855   5.694 -0.5138  0.1454 -0.4526
  686MOL0     C92480   1.106   8.826   5.585 -0.7963 -0.2231 -0.4517
  686MOL0     C92481   0.964   8.828   5.592 -0.8345 -0.1315  0.8199
  686MOL0     C92482   0.894   8.871   5.708 -0.2129 -0.2179  0.1587
  686MOL0     O92483   0.761   8.886   5.726  0.6016 -0.0668  0.0450
  686MOL0     C92484   0.682   8.901   5.603 -0.2621  0.4451  0.1638
  686MOL0     C92485   0.540   8.954   5.632  0.1061 -0.8456 -0.3889
  686MOL0     C92486   0.455   8.940   5.511  0.5622  0.0617 -0.0452
  686MOL0     C92487   0.296   8.940   5.544 -0.6718 -0.1904 -0.0555
  686MOL0     C92488   0.208   8.993   5.428  0.1189 -0.3092 -0.5570
  686MOL0     C92489   0.065   8.998   5.486  0.5786 -0.4180  0.5904
  686MOL0     C92490  -0.030   9.066   5.383 -0.7152 -1.2019 -0.0945
  686MOL0     C92491  -0.176   9.065   5.441 -0.4332  0.3618 -0.1701
  686MOL0     N92492  -0.271   9.124   5.343  0.3326 -0.3097 -0.1350
  686MOL0     C92493  -0.285   9.081   5.217  0.3691 -0.4095 -0.1665
  686MOL0     C92494  -0.356   9.166   5.146 -0.2635 -0.3685 -0.4207
  686MOL0     C92495  -0.392   9.143   4.994 -0.1046  0.0201  0.6613
  686MOL0     C92496  -0.545   9.135   4.976  0.2433  0.6576 -0.5869
  686MOL0     C92497  -0.579   8.998   5.026 -0.5986 -0.1632 -0.1338
  686MOL0     C92498  -0.728   8.973   5.030  0.4824  0.1416  0.5541
  686MOL0     O92499  -0.794   9.017   4.909 -0.1897  0.8150 -0.0142
  686MOL0     C92500  -0.929   9.011   4.899  0.3131  0.2662  0.3606
  686MOL0     C92501  -1.010   8.910   4.963 -0.3844 -0.4023 -0.0956
  686MOL0     C92502  -1.142   8.902   4.936  0.8437 -0.2855  0.5554
  686MOL0     C92503  -1.212   8.783   4.986 -0.0555 -0.2579  0.7745
  686MOL0     C92504  -1.209   9.009   4.863  0.0439 -0.2707 -0.4273
  686MOL0     C92505  -1.352   9.006   4.830 -0.5989 -0.8848 -0.9804
  686MOL0     O92506  -1.435   8.973   4.939  0.3748 -0.3778  0.6717
  686MOL0     C92507  -1.570   9.002   4.935  0.6408 -0.9005  0.0241
  686MOL0     C92508  -1.641   8.953   4.829  1.0188  0.8857  0.0570
  686MOL0     C92509  -1.783   8.955   4.820  0.4185 -0.0649  0.1545
  686MOL0     C92510  -1.853   9.011   4.921 -0.1700 -0.3418 -0.3231
  686MOL0     O92511  -1.989   9.005   4.934 -0.1766 -0.1004 -0.8152
  686MOL0     C92512  -2.051   8.873   4.918  1.2840  0.3678  0.0750
  686MOL0     C92513  -2.185   8.912   4.874 -0.3435  0.1599  0.8227
  686MOL0     C92514  -2.268   8.975   4.989 -0.0416  0.7328  0.5450
  686MOL0     C92515  -2.247   9.131   5.017 -0.7657  0.4059  0.9095
  686MOL0     C92516  -2.348   9.179   5.123 -0.2747  0.7881 -0.2601
  686MOL0     C92517  -2.500   9.164   5.081 -0.6588  0.6686 -0.5188
  686MOL0     C92518  -2.606   9.184   5.196 -0.9328 -0.3778 -0.2881
  686MOL0     C92519  -2.571   9.324   5.259  0.5789  0.5829  0.3441
  686MOL0    Cl92520  -2.678   9.375   5.393  0.1804  0.1443 -0.3854
  686MOL0     C92521  -1.782   9.069   5.025  0.3913  0.8184 -0.1579
  686MOL0     C92522  -1.636   9.071   5.035 -0.0469 -0.6594  0.3145
  686MOL0     O92523  -1.389   9.045   4.722  0.1155 -0.2427  0.0983
  686MOL0     C92524  -1.136   9.106   4.805  1.0497 -0.3754 -0.6137
  686MOL0     C92525  -0.996   9.105   4.819  0.2493 -0.3770 -0.1278
  686MOL0     N92526  -0.378   9.267   5.230 -0.0994 -0.5727  0.3894
  686MOL0     N92527  -0.332   9.242   5.353 -0.1728 -0.1833  0.5099
  686MOL0     C92528   0.976   8.893   5.819 -0.2322  0.5577  0.1386
  686MOL0     C92529   1.113   8.884   5.812 -0.4184 -0.0974  0.0085
  686MOL0     C92530   1.548   8.816   5.762 -0.5298  0.6727 -0.6231
  686MOL0     C92531   1.634   8.740   5.841 -0.0218  0.0314 -0.3354
  686MOL0     C92532   1.771   8.760   5.828  0.2113 -0.6220 -0.7041
  686MOL0     C92533   1.830   8.840   5.730  0.1809 -0.3104 -0.0225
  686MOL0     O92534   1.968   8.840   5.718  0.1034 -0.4868  0.1695
  686MOL0     C92535   2.029   8.895   5.604  0.0492 -0.5393 -0.1766
  686MOL0     C92536   2.182   8.864   5.614  0.4949  0.1561  0.4854
  686MOL0     C92537   2.242   8.949   5.722  1.1091 -0.1240  0.5441
  686MOL0     C92538   2.391   8.926   5.733  0.1788  0.6504  0.5762
  686MOL0     C92539   2.465   8.982   5.619  0.7458  0.0838  0.1726
  686MOL0     C92540   2.532   9.021   5.529  0.1057 -0.1036 -0.8289
  686MOL0     C92541   1.748   8.920   5.650 -0.7884 -0.7205  0.2743
  686MOL0     C92542   1.606   8.911   5.675  0.3054 -0.7617 -0.1619
  686MOL0     H92543   1.165   8.793   5.500  0.2987 -5.7391  2.0349
  686MOL0     H92544   0.917   8.799   5.499 -1.1422  0.0849  0.9075
  686MOL0     H92545   0.744   8.960   5.536 -0.9941 -0.0273 -0.9600
  686MOL0     H92546   0.670   8.804   5.553 -2.1826 -0.1960  1.7081
  686MOL0     H92547   0.495   8.897   5.714  1.6988 -2.4602 -0.5840
  686MOL0     H92548   0.536   9.060   5.659 -2.2969 -1.0230  0.1366
  686MOL0     H92549   0.485   9.018   5.440 -0.4712  0.3165 -0.2247
  686MOL0     H92550   0.481   8.849   5.457 -1.7618 -1.9268  1.9107
  686MOL0     H92551   0.265   8.838   5.565 -1.6186 -0.4099 -2.3420
  686MOL0     H92552   0.281   8.995   5.638  2.2300  1.1305 -0.2564
  686MOL0     H92553   0.246   9.090   5.397 -1.8770  0.5240 -0.5815
  686MOL0     H92554   0.214   8.917   5.350  3.3937  1.3906 -2.1197
  686MOL0     H92555   0.036   8.895   5.504 -3.1496  0.3776 -0.1024
  686MOL0     H92556   0.064   9.054   5.581 -1.4162 -2.1927  1.6817
  686MOL0     H92557  -0.003   9.171   5.376 -0.2361 -1.1350  2.0506
  686MOL0     H92558  -0.018   9.026   5.282 -1.0021  2.4233 -1.6960
  686MOL0     H92559  -0.178   9.123   5.534  2.8843 -0.0663  0.2825
  686MOL0     H92560  -0.198   8.961   5.468  0.5941 -0.1940 -1.3982
  686MOL0     H92561  -0.241   8.993   5.174  1.2141 -0.0528 -0.0464
  686MOL0     H92562  -0.348   9.222   4.932  3.7186 -3.1092 -1.0973
  686MOL0     H92563  -0.339   9.055   4.958 -0.6276  0.2775 -0.7980
  686MOL0     H92564  -0.571   9.151   4.871  1.2765 -0.7980 -1.1062
  686MOL0     H92565  -0.587   9.201   5.052  1.0703 -2.3173  2.7639
  686MOL0     H92566  -0.560   8.980   5.132 -3.3043 -1.0468  0.2904
  686MOL0     H92567  -0.530   8.917   4.971  2.3157  0.3669  1.5179
  686MOL0     H92568  -0.758   9.017   5.126 -0.6463 -2.9840  1.7574
  686MOL0     H92569  -0.746   8.865   5.034 -0.5825  0.3273  1.4118
  686MOL0     H92570  -0.964   8.827   5.014  0.6191 -0.4923 -1.1034
  686MOL0     H92571  -1.239   8.801   5.090 -0.6282 -0.4841  0.6661
  686MOL0     H92572  -1.294   8.749   4.923  0.3619 -2.4977  1.3436
  686MOL0     H92573  -1.142   8.700   4.974  0.2875  0.3064 -1.6106
  686MOL0     H92574  -1.591   8.895   4.752  1.9197  2.5063 -0.6401
  686MOL0     H92575  -1.825   8.919   4.727  1.0991  0.1938 -0.2595
  686MOL0     H92576  -2.001   8.797   4.856 -3.3664 -1.4964 -1.8695
  686MOL0     H92577  -2.065   8.837   5.021 -0.9339  3.0240  0.8321
  686MOL0     H92578  -2.168   8.975   4.787 -0.0090 -4.3589 -2.7450
  686MOL0     H92579  -2.242   8.825   4.840 -4.2804  2.3903  1.1382
  686MOL0     H92580  -2.256   8.914   5.080  2.0303  1.4771  0.8280
  686MOL0     H92581  -2.374   8.963   4.967 -0.1710  0.8541  1.0860
  686MOL0     H92582  -2.146   9.150   5.052 -0.5422  2.6813 -0.7327
  686MOL0     H92583  -2.271   9.185   4.925 -3.1137  3.6881  3.2017
  686MOL0     H92584  -2.332   9.283   5.151 -4.6901  1.8092 -0.8081
  686MOL0     H92585  -2.323   9.117   5.209  4.1889  1.8211 -0.5641
  686MOL0     H92586  -2.528   9.237   5.004  1.4938  0.0005 -2.0237
  686MOL0     H92587  -2.532   9.066   5.045 -2.4224  1.0613 -0.1168
  686MOL0     H92588  -2.606   9.106   5.273 -2.4994 -0.5379 -0.4220
  686MOL0     H92589  -2.700   9.181   5.140 -0.4201  0.5376 -1.2455
  686MOL0     H92590  -2.554   9.392   5.175  0.3777 -0.2916 -0.4144
  686MOL0     H92591  -2.476   9.307   5.310  1.1991  1.1094 -0.5982
  686MOL0     H92592  -1.843   9.104   5.108  1.3727 -0.3015  1.0798
  686MOL0     H92593  -1.591   9.112   5.125 -0.6033 -1.8710  1.1686
  686MOL0     H92594  -1.173   9.193   4.753 -0.2812 -0.4369  0.1845
  686MOL0     H92595  -0.949   9.186   4.764 -1.0549  0.4057 -0.1166
  686MOL0     H92596   0.931   8.934   5.909 -0.8246 -0.5331  0.3624
  686MOL0     H92597   1.173   8.906   5.899 -1.6739 -1.5908  1.3076
  686MOL0     H92598   1.592   8.674   5.916 -1.4990  0.2811 -0.8903
  686MOL0     H92599   1.835   8.711   5.901 -0.8631 -0.7769  0.1569
  686MOL0     H92600   1.986   8.842   5.520 -0.3906  0.2436 -0.4573
  686MOL0     H92601   2.018   9.004   5.598 -0.1729 -0.4119  1.7556
  686MOL0     H92602   2.228   8.887   5.517 -0.0957  1.2204  0.4445
  686MOL0     H92603   2.198   8.760   5.644  0.2614  0.0912  0.3893
  686MOL0     H92604   2.189   8.929   5.816 -3.2774  3.1243 -0.8978
  686MOL0     H92605   2.226   9.055   5.700 -2.7916 -0.3225  1.7215
  686MOL0     H92606   2.402   8.817   5.737  2.1999  0.4148 -4.3211
  686MOL0     H92607   2.431   8.973   5.823  1.6225  0.1139  0.2505
  686MOL0     H92608   2.607   9.063   5.464  1.2482 -1.1554 -0.2287
  686MOL0     H92609   1.784   8.992   5.578 -1.8990 -1.0699 -0.6593
  686MOL0     H92610   1.537   8.982   5.630  0.1657  2.5413  4.4637
  687MOL0     O92611   5.455   7.911   1.981 -0.3512  0.3510  0.0328
  687MOL0     C92612   5.522   7.946   1.884 -0.1059  0.6486 -0.4843
  687MOL0     O92613   5.475   8.012   1.775 -0.5544 -0.3115 -1.0018
  687MOL0     C92614   5.338   8.017   1.762  0.2233 -0.5980  0.4101
  687MOL0     C92615   5.268   8.135   1.738  0.0652  0.5627 -0.5500
  687MOL0     C92616   5.128   8.144   1.731  0.1846 -0.3409 -0.3559
  687MOL0     C92617   5.051   8.039   1.744  0.8881  1.1689 -0.4253
  687MOL0     O92618   4.914   8.067   1.739 -0.1020 -0.7383  0.2078
  687MOL0     C92619   4.842   8.007   1.854 -0.4511  0.1564  0.5376
  687MOL0     C92620   4.708   7.986   1.805  0.1052  0.2636  1.0085
  687MOL0     C92621   4.644   8.117   1.753  0.3422  0.1773  0.5256
  687MOL0     C92622   4.539   8.087   1.647  0.1933  0.0618 -0.5944
  687MOL0     C92623   4.485   8.210   1.575  0.1508 -0.3309 -0.5677
  687MOL0     C92624   4.344   8.206   1.519 -0.0808 -0.2977  0.2081
  687MOL0     C92625   4.236   8.199   1.633 -0.2670 -0.2893  0.9232
  687MOL0     C92626   4.101   8.200   1.566  0.5254  0.2605 -0.5514
  687MOL0     N92627   4.045   8.329   1.528 -0.0107  0.1005  0.1841
  687MOL0     C92628   3.947   8.347   1.432 -1.1597 -1.1831  0.0850
  687MOL0     C92629   3.960   8.476   1.402  0.4300 -1.3662 -0.5467
  687MOL0     C92630   3.884   8.542   1.286  0.5952  1.0217  0.0779
  687MOL0     C92631   3.734   8.496   1.276  0.2054 -0.1678 -0.5254
  687MOL0     C92632   3.647   8.582   1.376  0.6625 -0.0183  0.7052
  687MOL0     C92633   3.505   8.563   1.330 -0.7753 -0.9405 -0.2165
  687MOL0     O92634   3.434   8.636   1.430  0.6692  0.1551 -0.5508
  687MOL0     C92635   3.326   8.700   1.372 -0.3359  0.2334 -0.0634
  687MOL0     C92636   3.232   8.651   1.279 -0.6287  0.3519 -0.4356
  687MOL0     C92637   3.126   8.720   1.238  0.1116 -0.5698  1.0666
  687MOL0     C92638   3.039   8.646   1.135  1.1658  0.0516  0.3067
  687MOL0     C92639   3.087   8.843   1.302  0.4576  1.3142  0.6251
  687MOL0     C92640   2.970   8.922   1.266 -0.4041  0.3359  0.1603
  687MOL0     O92641   2.971   9.058   1.303  0.0043  0.0316  0.0744
  687MOL0     C92642   2.860   9.125   1.278 -0.1141  0.1724 -0.0798
  687MOL0     C92643   2.807   9.198   1.386 -0.1470 -0.8597 -1.0149
  687MOL0     C92644   2.687   9.270   1.370  0.0097 -0.2691 -0.4154
  687MOL0     C92645   2.621   9.269   1.245 -0.5823 -0.1567  0.4491
  687MOL0     O92646   2.497   9.326   1.239  0.4255 -0.3018  0.0611
  687MOL0     C92647   2.445   9.384   1.118 -0.3330 -0.5058  0.7906
  687MOL0     C92648   2.331   9.491   1.147 -0.2548  0.2266 -0.6722
  687MOL0     C92649   2.384   9.614   1.226 -0.2532 -0.4650  0.0944
  687MOL0     C92650   2.273   9.716   1.250 -0.1135  0.2633 -0.7658
  687MOL0     C92651   2.236   9.793   1.124 -0.1374  0.7191 -0.4972
  687MOL0     C92652   2.114   9.886   1.153  0.3823  0.8683 -0.5853
  687MOL0     C92653   2.087   9.982   1.028 -0.5095 -0.3119  0.9126
  687MOL0     C92654   1.938   9.977   0.981 -0.5313  0.3270  0.0455
  687MOL0    Cl92655   1.847  10.072   1.114  0.3945 -0.3295  0.1421
  687MOL0     C92656   2.682   9.208   1.133  1.3246  0.1874 -0.3811
  687MOL0     C92657   2.800   9.141   1.151 -0.3331  0.2140  0.7470
  687MOL0     O92658   2.877   8.863   1.210  0.2794 -0.1617 -0.4481
  687MOL0     C92659   3.172   8.878   1.413 -0.3097  0.8168  0.4907
  687MOL0     C92660   3.285   8.809   1.448 -0.1210  0.3548 -0.3181
  687MOL0     N92661   4.056   8.535   1.491  0.4652 -0.4189 -0.3751
  687MOL0     N92662   4.111   8.444   1.557  0.9414  0.5348  0.0055
  687MOL0     C92663   5.108   7.913   1.771 -0.0726 -1.6513 -0.0388
  687MOL0     C92664   5.250   7.903   1.780 -0.0578 -0.1481  0.1762
  687MOL0     C92665   5.669   7.931   1.885  0.5950 -0.4898 -0.2094
  687MOL0     C92666   5.745   7.969   1.774  0.1713  0.3127  0.3568
  687MOL0     C92667   5.881   7.958   1.773 -0.0074  0.8495 -0.0191
  687MOL0     C92668   5.951   7.915   1.887  0.1173  0.4184  0.4333
  687MOL0     O92669   6.091   7.902   1.885  0.3292 -0.1985  0.8414
  687MOL0     C92670   6.160   7.918   2.009  0.1792 -0.6199 -0.7923
  687MOL0     C92671   6.310   7.948   2.001 -0.8241  0.9163  0.9372
  687MOL0     C92672   6.349   8.092   1.976  0.1216 -1.0113 -0.3502
  687MOL0     C92673   6.498   8.079   1.927  0.8484 -1.3548 -0.5582
  687MOL0     C92674   6.565   8.216   1.938 -0.5150 -0.8674  0.1488
  687MOL0     C92675   6.636   8.315   1.943 -0.1190 -0.4629 -0.1364
  687MOL0     C92676   5.877   7.876   2.001 -0.0827  1.5341  0.7977
  687MOL0     C92677   5.737   7.892   2.002 -0.1770  0.2123  0.0657
  687MOL0     H92678   5.323   8.227   1.721  0.5118  0.4163  0.0510
  687MOL0     H92679   5.088   8.242   1.704  2.7653  0.8175 -0.2888
  687MOL0     H92680   4.890   7.914   1.885  0.2234  0.9258  1.8786
  687MOL0     H92681   4.840   8.072   1.942 -1.1455 -1.5027  1.8142
  687MOL0     H92682   4.713   7.930   1.711  0.9435  3.1794 -0.8234
  687MOL0     H92683   4.638   7.947   1.880 -0.9923 -0.3964 -0.3282
  687MOL0     H92684   4.603   8.166   1.842 -2.1741  0.3446 -0.6221
  687MOL0     H92685   4.708   8.186   1.697 -1.7676  1.5861 -0.2679
  687MOL0     H92686   4.577   8.026   1.565 -1.0225  0.0985 -1.2127
  687MOL0     H92687   4.456   8.035   1.696 -0.9789  1.3076 -1.2119
  687MOL0     H92688   4.498   8.294   1.645  0.3352 -1.4468  0.7766
  687MOL0     H92689   4.542   8.237   1.486  0.1453 -0.0535 -0.4889
  687MOL0     H92690   4.333   8.289   1.449  1.6135 -1.4213 -1.4844
  687MOL0     H92691   4.343   8.116   1.457  0.7775  1.0483 -1.8436
  687MOL0     H92692   4.246   8.105   1.688  1.2663  0.2039  1.5472
  687MOL0     H92693   4.254   8.275   1.709 -0.1496 -1.1102  1.7268
  687MOL0     H92694   4.039   8.162   1.648 -2.8634  2.3393 -1.9281
  687MOL0     H92695   4.089   8.139   1.476  1.0796  4.2134 -3.6181
  687MOL0     H92696   3.887   8.269   1.386 -1.8367 -1.6930  1.7513
  687MOL0     H92697   3.881   8.651   1.288 -0.1955  1.0171 -0.3482
  687MOL0     H92698   3.937   8.513   1.195 -0.5639 -2.8101  0.4435
  687MOL0     H92699   3.719   8.389   1.298 -0.5123  0.2355  1.0850
  687MOL0     H92700   3.710   8.526   1.174  0.3298  0.9469 -0.2379
  687MOL0     H92701   3.677   8.686   1.363 -0.2206 -0.0073 -2.0490
  687MOL0     H92702   3.652   8.552   1.481 -0.1405  2.2313  1.4497
  687MOL0     H92703   3.474   8.459   1.317  1.9067 -1.8877  0.3567
  687MOL0     H92704   3.507   8.618   1.235 -1.8926 -0.7005 -0.1152
  687MOL0     H92705   3.243   8.556   1.227  0.7388  0.0464  0.3827
  687MOL0     H92706   2.946   8.609   1.177  0.2507 -0.4678 -2.0153
  687MOL0     H92707   3.015   8.728   1.066 -0.5043  1.3205  2.2699
  687MOL0     H92708   3.085   8.560   1.086  1.7028  0.1981  0.5405
  687MOL0     H92709   2.856   9.190   1.482 -1.9250 -0.3005 -0.0083
  687MOL0     H92710   2.651   9.337   1.448 -0.1767 -1.0450  0.1877
  687MOL0     H92711   2.517   9.442   1.060 -3.0573  1.4330 -0.8216
  687MOL0     H92712   2.401   9.304   1.058  1.6675 -0.8060 -0.3776
  687MOL0     H92713   2.296   9.515   1.046 -0.7362  0.0100 -0.5607
  687MOL0     H92714   2.246   9.443   1.196 -0.1432  3.0889  2.7567
  687MOL0     H92715   2.472   9.664   1.185 -0.6545  2.3054  2.3351
  687MOL0     H92716   2.407   9.570   1.323 -4.7505 -3.2833  0.1632
  687MOL0     H92717   2.190   9.678   1.310 -0.2462 -0.3057 -1.2929
  687MOL0     H92718   2.316   9.798   1.309  2.0000  0.1751 -2.0683
  687MOL0     H92719   2.204   9.718   1.051 -1.9651  0.4919  0.4653
  687MOL0     H92720   2.319   9.854   1.088  1.8033 -2.1013 -1.0960
  687MOL0     H92721   2.026   9.825   1.175  0.7683  1.1697  2.1355
  687MOL0     H92722   2.128   9.953   1.238  0.4807 -0.4711  0.4846
  687MOL0     H92723   2.161   9.957   0.951 -0.2261  1.3756  0.6030
  687MOL0     H92724   2.112  10.083   1.061 -2.7231  0.1791  1.2050
  687MOL0     H92725   1.900   9.874   0.981 -0.0031  0.0951 -2.1166
  687MOL0     H92726   1.934  10.018   0.880  0.5792 -0.8562 -0.5118
  687MOL0     H92727   2.628   9.218   1.039  1.7122 -1.2719 -0.7842
  687MOL0     H92728   2.852   9.102   1.064  0.8641  2.8689  0.1553
  687MOL0     H92729   3.157   8.979   1.449  0.3346  0.9200  0.4862
  687MOL0     H92730   3.335   8.835   1.540  1.4719  1.7269 -1.5063
  687MOL0     H92731   5.039   7.830   1.787 -0.6644 -1.9569 -3.3893
  687MOL0     H92732   5.290   7.804   1.797  0.0875 -0.0376  0.4865
  687MOL0     H92733   5.699   8.003   1.681  0.0058 -0.0330  0.3135
  687MOL0     H92734   5.924   7.975   1.675  0.0429 -0.3009 -0.2076
  687MOL0     H92735   6.119   7.994   2.075 -0.4832 -1.1894 -0.5405
  687MOL0     H92736   6.154   7.823   2.063  0.9189 -0.7564 -0.9390
  687MOL0     H92737   6.346   7.884   1.920 -0.2151  0.2769  1.6881
  687MOL0     H92738   6.349   7.901   2.092 -4.6529 -4.7624  0.1745
  687MOL0     H92739   6.320   8.147   2.065 -2.0764 -1.2124 -0.8896
  687MOL0     H92740   6.286   8.126   1.893  0.5245 -0.8785 -0.6083
  687MOL0     H92741   6.488   8.053   1.821 -1.4775 -1.9015 -0.2711
  687MOL0     H92742   6.564   8.013   1.984  1.5376  0.7528  1.2124
  687MOL0     H92743   6.711   8.392   1.942  0.6267 -1.0018 -4.1537
  687MOL0     H92744   5.935   7.828   2.079 -0.8961 -0.6388  0.1526
  687MOL0     H92745   5.689   7.858   2.093 -0.1821  1.7835  0.6820
  688MOL0     O92746   1.436   7.296   1.900 -0.4265  0.3693 -0.4714
  688MOL0     C92747   1.360   7.230   1.835 -0.1991 -0.2537 -0.9377
  688MOL0     O92748   1.343   7.097   1.851  0.5394 -0.4952  1.3979
  688MOL0     C92749   1.397   7.027   1.959  0.4563  0.3142 -0.2809
  688MOL0     C92750   1.365   7.039   2.098 -0.0090  0.1049  0.5047
  688MOL0     C92751   1.424   6.962   2.206  0.4020 -0.6103  0.1811
  688MOL0     C92752   1.526   6.873   2.167  0.3859 -0.6043 -0.7795
  688MOL0     O92753   1.587   6.794   2.268 -0.0779  0.3644  0.4869
  688MOL0     C92754   1.722   6.752   2.246  0.4547  0.8627 -0.0465
  688MOL0     C92755   1.801   6.668   2.347  0.0467 -0.3084 -0.0420
  688MOL0     C92756   1.732   6.538   2.379 -0.6421 -0.0339 -0.0528
  688MOL0     C92757   1.602   6.545   2.452  0.7816 -0.1109  0.0015
  688MOL0     C92758   1.573   6.409   2.526 -0.2954 -0.6440  0.0010
  688MOL0     C92759   1.660   6.395   2.653  0.0594  0.5652  0.2299
  688MOL0     C92760   1.578   6.377   2.779 -0.7214 -1.0235  0.0271
  688MOL0     C92761   1.655   6.395   2.911 -0.5723  0.2763 -0.4514
  688MOL0     N92762   1.701   6.266   2.951  1.1094  0.1447  0.5257
  688MOL0     C92763   1.725   6.224   3.081  0.6905 -0.2588  0.3854
  688MOL0     C92764   1.777   6.106   3.064 -0.0933  0.5903 -0.1753
  688MOL0     C92765   1.822   6.013   3.169 -0.0666 -0.1445 -0.2326
  688MOL0     C92766   1.955   6.049   3.228 -0.1892 -0.9129 -0.4828
  688MOL0     C92767   2.066   5.979   3.147  0.5551  0.0006 -0.5692
  688MOL0     C92768   2.211   6.026   3.199 -1.5653 -0.0702  0.8317
  688MOL0     O92769   2.312   5.959   3.129  0.3653  0.1849  0.3904
  688MOL0     C92770   2.446   5.940   3.175  0.4136  0.4554 -0.1641
  688MOL0     C92771   2.531   5.882   3.085 -0.7659 -0.6190  0.0312
  688MOL0     C92772   2.672   5.867   3.102  0.4840  1.2379 -1.2303
  688MOL0     C92773   2.750   5.807   2.997  0.3212  0.3048  0.8531
  688MOL0     C92774   2.726   5.923   3.218 -0.4288 -0.2548 -0.3154
  688MOL0     C92775   2.874   5.915   3.257  0.0441 -0.4805  0.1366
  688MOL0     O92776   2.894   5.879   3.391 -0.2549  0.0099 -0.1372
  688MOL0     C92777   3.019   5.864   3.441 -0.1077  0.5422  0.5432
  688MOL0     C92778   3.048   5.751   3.518  0.9025  0.5148 -0.0868
  688MOL0     C92779   3.174   5.742   3.584  0.5161 -0.7683 -0.0870
  688MOL0     C92780   3.269   5.844   3.579  0.3748  0.3314  0.3657
  688MOL0     O92781   3.392   5.824   3.635 -0.5225 -0.8415 -0.6788
  688MOL0     C92782   3.416   5.890   3.753 -1.3370 -0.7161  0.5679
  688MOL0     C92783   3.556   5.942   3.738  0.5139 -0.3748 -0.1823
  688MOL0     C92784   3.576   6.056   3.631  0.6663  0.1731  0.5033
  688MOL0     C92785   3.723   6.101   3.643 -0.1735  1.0625  0.6248
  688MOL0     C92786   3.731   6.240   3.588 -0.1922  0.3383 -0.3004
  688MOL0     C92787   3.879   6.280   3.565  0.1966 -0.2959  0.6944
  688MOL0     C92788   3.901   6.423   3.523  0.1550 -0.2195 -0.6087
  688MOL0     C92789   3.862   6.461   3.377 -0.5375 -0.0707  0.5702
  688MOL0    Cl92790   3.679   6.467   3.361 -0.6309 -0.0854  0.0677
  688MOL0     C92791   3.232   5.958   3.515  0.1404 -0.5013 -0.6140
  688MOL0     C92792   3.112   5.974   3.440 -0.0632 -0.6608 -0.8476
  688MOL0     O92793   2.956   5.966   3.185 -0.4921  0.7073 -0.3052
  688MOL0     C92794   2.636   5.978   3.311 -0.2494  0.0525 -0.6141
  688MOL0     C92795   2.495   5.988   3.295 -0.6149 -0.4412 -0.7459
  688MOL0     N92796   1.791   6.074   2.924 -0.3158 -0.5057 -1.0310
  688MOL0     N92797   1.742   6.174   2.868 -0.6439 -0.5968  0.7666
  688MOL0     C92798   1.557   6.864   2.033  1.3301  0.2202 -0.1747
  688MOL0     C92799   1.488   6.930   1.925  0.3224 -1.6976 -0.2954
  688MOL0     C92800   1.266   7.291   1.735 -0.5498 -0.4328  0.0870
  688MOL0     C92801   1.194   7.223   1.636 -0.3258  0.6561  0.2733
  688MOL0     C92802   1.095   7.291   1.560 -0.8901 -0.4537 -0.7160
  688MOL0     C92803   1.081   7.427   1.579  0.1053  0.6694  0.0534
  688MOL0     O92804   0.991   7.482   1.490  0.0976  0.5128 -0.1070
  688MOL0     C92805   1.058   7.555   1.368 -0.4606 -0.6110 -0.3886
  688MOL0     C92806   0.978   7.686   1.346  0.0302 -0.1082 -0.1166
  688MOL0     C92807   1.039   7.752   1.222 -0.2141 -0.2678 -0.5151
  688MOL0     C92808   0.964   7.884   1.191 -0.3227  0.1862  0.6975
  688MOL0     C92809   0.827   7.865   1.141  0.6373  1.1025  0.1777
  688MOL0     C92810   0.708   7.852   1.100  0.6243 -0.9775  0.1969
  688MOL0     C92811   1.153   7.495   1.676  0.1082 -0.3181 -0.2711
  688MOL0     C92812   1.256   7.425   1.739 -0.9534 -0.0448 -1.1938
  688MOL0     H92813   1.293   7.115   2.129  0.5819  0.6274  0.6271
  688MOL0     H92814   1.394   6.962   2.310  1.0400 -0.7453  0.3667
  688MOL0     H92815   1.723   6.687   2.157  0.6898 -0.4258  0.8720
  688MOL0     H92816   1.774   6.847   2.230 -1.8724  2.3342  0.5670
  688MOL0     H92817   1.903   6.665   2.306 -0.3872 -1.2665 -1.0926
  688MOL0     H92818   1.816   6.725   2.439  0.6763 -2.1971  1.0885
  688MOL0     H92819   1.725   6.485   2.283  2.6179  0.6531 -0.8104
  688MOL0     H92820   1.805   6.481   2.437  2.1656  4.1877  0.9719
  688MOL0     H92821   1.612   6.625   2.526  1.6140  0.8451 -1.0933
  688MOL0     H92822   1.518   6.566   2.385  0.2747 -1.3942  0.2141
  688MOL0     H92823   1.466   6.400   2.550 -0.7751  0.4194 -1.5718
  688MOL0     H92824   1.581   6.323   2.459 -2.0679 -0.7677 -0.1073
  688MOL0     H92825   1.740   6.321   2.649  3.5239  4.0557 -1.1479
  688MOL0     H92826   1.719   6.487   2.661  1.2437 -0.1832  0.2534
  688MOL0     H92827   1.511   6.462   2.761 -0.1023 -0.9177 -2.0470
  688MOL0     H92828   1.526   6.281   2.768  0.2688 -1.3295 -2.5620
  688MOL0     H92829   1.588   6.435   2.987  1.8587  0.5505  1.6818
  688MOL0     H92830   1.739   6.465   2.899 -0.5008  0.7367  2.1446
  688MOL0     H92831   1.703   6.283   3.169  3.1782  0.3510  0.6625
  688MOL0     H92832   1.748   6.010   3.250  1.7567 -0.8703  1.4984
  688MOL0     H92833   1.817   5.912   3.127 -1.7577  0.1446 -0.8314
  688MOL0     H92834   1.961   6.024   3.334 -1.8981 -3.0510 -0.8079
  688MOL0     H92835   1.977   6.156   3.226  2.7188 -1.3972  1.1469
  688MOL0     H92836   2.050   5.993   3.039 -1.3384  1.2456 -0.1609
  688MOL0     H92837   2.059   5.872   3.171 -0.4822 -0.1708 -1.5236
  688MOL0     H92838   2.221   6.000   3.305 -1.4785  3.0223  1.6798
  688MOL0     H92839   2.226   6.133   3.186  1.8179 -0.3551  1.6163
  688MOL0     H92840   2.482   5.854   2.992 -2.5420 -1.3377  1.1086
  688MOL0     H92841   2.793   5.889   2.937  1.3892 -0.8072  0.0469
  688MOL0     H92842   2.839   5.747   3.019 -0.3745 -2.3383 -2.6861
  688MOL0     H92843   2.688   5.740   2.936 -2.1706  1.5863  1.8395
  688MOL0     H92844   2.968   5.677   3.525 -0.1244  1.6107  0.1418
  688MOL0     H92845   3.189   5.654   3.647  4.2557  1.8269  3.1946
  688MOL0     H92846   3.345   5.970   3.774 -0.1046  0.3381  0.8311
  688MOL0     H92847   3.404   5.814   3.832 -0.4745  0.5611  1.9866
  688MOL0     H92848   3.585   5.973   3.839  0.5354  1.9209 -0.8354
  688MOL0     H92849   3.633   5.864   3.731 -0.5604 -1.4764 -0.0617
  688MOL0     H92850   3.497   6.130   3.643  0.1898  0.0322 -1.4731
  688MOL0     H92851   3.581   5.993   3.542  3.4514  1.9450 -0.7193
  688MOL0     H92852   3.766   6.089   3.743 -0.2996 -0.3504  0.5334
  688MOL0     H92853   3.790   6.036   3.586  0.3311  1.6596  0.5238
  688MOL0     H92854   3.683   6.310   3.657 -2.3123 -1.1624 -0.1793
  688MOL0     H92855   3.671   6.258   3.498 -0.4998  1.7352  0.1576
  688MOL0     H92856   3.929   6.273   3.662 -0.3885  0.5414  1.0764
  688MOL0     H92857   3.931   6.206   3.504 -1.5616 -2.7596  2.0374
  688MOL0     H92858   4.009   6.431   3.537 -0.2791 -0.2251  4.6046
  688MOL0     H92859   3.855   6.493   3.594 -0.3107 -3.0980  2.1634
  688MOL0     H92860   3.894   6.383   3.309  1.3779 -0.7610  2.1569
  688MOL0     H92861   3.912   6.553   3.345 -1.1845 -0.6213 -2.2272
  688MOL0     H92862   3.304   6.039   3.526 -0.1066 -0.2178 -1.0537
  688MOL0     H92863   3.090   6.066   3.387 -2.2274 -2.1312 -2.6732
  688MOL0     H92864   2.676   6.014   3.405  2.3573 -1.3484 -1.0878
  688MOL0     H92865   2.431   6.036   3.368  0.4376  1.1796 -0.8380
  688MOL0     H92866   1.627   6.788   1.999  0.2959  0.2462 -2.5344
  688MOL0     H92867   1.506   6.926   1.818  0.9352  0.5335 -0.3347
  688MOL0     H92868   1.205   7.116   1.620  0.9603  0.8708 -0.4317
  688MOL0     H92869   1.030   7.249   1.484 -0.8572  1.4426 -1.8465
  688MOL0     H92870   1.163   7.576   1.391 -1.1340  1.4939  1.0661
  688MOL0     H92871   1.063   7.490   1.280 -2.1044  0.8502 -1.6185
  688MOL0     H92872   0.990   7.745   1.437  3.1829  2.2383 -1.8359
  688MOL0     H92873   0.875   7.653   1.330  0.8947 -1.3826 -4.7427
  688MOL0     H92874   1.036   7.691   1.131 -2.5516 -0.5229 -0.3105
  688MOL0     H92875   1.138   7.784   1.258 -1.9412  1.6026  3.0215
  688MOL0     H92876   1.006   7.936   1.104 -1.7957  1.0784  0.4779
  688MOL0     H92877   0.975   7.950   1.277  1.0760 -1.2635  1.6960
  688MOL0     H92878   0.606   7.845   1.069  0.9720 -0.4733 -1.1039
  688MOL0     H92879   1.140   7.602   1.683  3.6957  0.1697  1.0168
  688MOL0     H92880   1.312   7.489   1.806 -1.7301 -0.1105 -0.4581
  689MOL0     O92881  10.035  10.213  11.047  0.3266  0.4253  0.0396
  689MOL0     C92882  10.021  10.274  11.154  0.6912  0.3962  1.0045
  689MOL0     O92883  10.096  10.384  11.186 -0.6337  0.3992 -0.3725
  689MOL0     C92884  10.194  10.420  11.103  0.3294 -0.7088  0.6891
  689MOL0     C92885  10.329  10.366  11.129  0.7380 -0.2621 -0.3109
  689MOL0     C92886  10.439  10.404  11.053 -0.0500 -0.1025 -0.0197
  689MOL0     C92887  10.426  10.504  10.956 -0.2684 -0.4990 -0.7532
  689MOL0     O92888  10.539  10.538  10.884  0.4117  0.3124 -0.3380
  689MOL0     C92889  10.541  10.649  10.796 -0.1203 -0.0820  1.6667
  689MOL0     C92890  10.677  10.620  10.720  0.8013 -0.4153 -0.5269
  689MOL0     C92891  10.666  10.694  10.584 -0.6264  0.6751 -0.3071
  689MOL0     C92892  10.793  10.734  10.504  0.2420  0.0371  0.3951
  689MOL0     C92893  10.776  10.812  10.374  0.5646  1.4090  0.2166
  689MOL0     C92894  10.685  10.928  10.383 -0.1509 -0.0329  0.6205
  689MOL0     C92895  10.722  11.061  10.462  0.0416 -0.5717 -0.7951
  689MOL0     C92896  10.868  11.098  10.498 -0.2944  0.3017 -0.3484
  689MOL0     N92897  10.936  11.175  10.383 -0.8105 -1.1867 -0.5577
  689MOL0     C92898  10.971  11.117  10.262  0.3705  0.8932 -0.7945
  689MOL0     C92899  11.021  11.222  10.190  0.1437  0.2066 -0.4916
  689MOL0     C92900  11.062  11.205  10.048 -1.2411 -0.6205 -0.5107
  689MOL0     C92901  11.197  11.285  10.023  0.0118 -0.2246  0.6539
  689MOL0     C92902  11.256  11.238   9.884 -0.4807 -1.0994  0.0139
  689MOL0     C92903  11.320  11.366   9.815  0.0194 -0.3489  0.7561
  689MOL0     O92904  11.415  11.331   9.712  0.0788 -0.5159 -0.1230
  689MOL0     C92905  11.521  11.270   9.749  0.3241 -0.1956 -1.4249
  689MOL0     C92906  11.583  11.286   9.877  0.2458 -0.1125  0.2417
  689MOL0     C92907  11.712  11.231   9.898  0.1266 -0.3981  0.1618
  689MOL0     C92908  11.775  11.243  10.037 -0.5688 -0.2389  0.6700
  689MOL0     C92909  11.795  11.190   9.781 -0.1588 -0.6508  0.6175
  689MOL0     C92910  11.945  11.162   9.794  0.1747 -0.2283  0.5166
  689MOL0     O92911  12.018  11.253   9.708  0.2803  0.2055 -0.2872
  689MOL0     C92912  12.152  11.261   9.702 -0.2804  0.8966 -1.3750
  689MOL0     C92913  12.225  11.300   9.585 -0.3079 -0.3491  0.2223
  689MOL0     C92914  12.365  11.309   9.575 -0.6787 -0.2392  0.1863
  689MOL0     C92915  12.435  11.270   9.689  0.4428 -0.2912 -0.0844
  689MOL0     O92916  12.572  11.269   9.694  0.4575  1.1350 -1.1401
  689MOL0     C92917  12.639  11.329   9.581  0.3906  0.8856  0.4891
  689MOL0     C92918  12.668  11.231   9.467  0.9803  0.8887 -0.1251
  689MOL0     C92919  12.792  11.136   9.497  0.7277 -0.4737 -0.3331
  689MOL0     C92920  12.760  11.009   9.586  0.4360 -0.0103 -0.1056
  689MOL0     C92921  12.819  10.883   9.517  0.1315  1.1979 -0.2286
  689MOL0     C92922  12.961  10.859   9.565 -0.2265 -0.3042  0.1990
  689MOL0     C92923  12.992  10.857   9.720 -0.9176 -0.2861  0.3159
  689MOL0     C92924  13.116  10.774   9.735  1.6016  0.0387  0.0431
  689MOL0    Cl92925  13.192  10.819   9.881  0.1707 -0.4247 -0.0132
  689MOL0     C92926  12.369  11.243   9.812  0.2223 -1.1512  1.3315
  689MOL0     C92927  12.229  11.243   9.818  0.3796 -0.0606  0.4447
  689MOL0     O92928  11.990  11.077   9.876  0.2939 -0.4569 -0.2166
  689MOL0     C92929  11.727  11.178   9.655 -0.6148 -0.4683  0.8051
  689MOL0     C92930  11.593  11.209   9.646  0.6380  0.2127 -0.2183
  689MOL0     N92931  11.011  11.337  10.264  0.6354 -0.3667  0.6658
  689MOL0     N92932  10.971  11.307  10.382 -0.4226 -0.3066  0.0044
  689MOL0     C92933  10.294  10.539  10.924  0.7250 -0.3653 -0.4970
  689MOL0     C92934  10.179  10.500  10.992  0.1824  0.4743 -0.3951
  689MOL0     C92935   9.888  10.255  11.224 -0.0960  0.7483  0.1525
  689MOL0     C92936   9.811  10.140  11.191 -0.4417  0.7492 -0.0826
  689MOL0     C92937   9.696  10.103  11.264 -0.0083 -1.0357  0.4211
  689MOL0     C92938   9.643  10.187  11.358 -0.1128 -0.2454  0.1774
  689MOL0     O92939   9.526  10.145  11.422  0.2137 -0.3594  0.5592
  689MOL0     C92940   9.483  10.200  11.551  0.3413 -0.0337  0.6932
  689MOL0     C92941   9.408  10.097  11.632 -0.2218  0.4512  0.4998
  689MOL0     C92942   9.278  10.066  11.574 -0.2752  0.0657  0.3274
  689MOL0     C92943   9.199   9.969  11.666  0.4118 -0.1678 -0.2634
  689MOL0     C92944   9.084   9.923  11.589 -0.0625 -0.2808  0.3995
  689MOL0     C92945   8.982   9.884  11.535  0.0932 -0.5393 -0.3579
  689MOL0     C92946   9.730  10.295  11.392  0.0562  0.1212  0.1298
  689MOL0     C92947   9.852  10.335  11.335  0.4339  0.5969  0.3556
  689MOL0     H92948  10.358  10.289  11.200  1.9181  0.1527 -0.3278
  689MOL0     H92949  10.540  10.376  11.080 -0.1536  1.4121  2.2502
  689MOL0     H92950  10.457  10.651  10.726  0.7864 -0.7373  0.5423
  689MOL0     H92951  10.549  10.744  10.849  0.1532  3.4360 -3.9426
  689MOL0     H92952  10.759  10.659  10.781 -2.3337  0.7585  3.4165
  689MOL0     H92953  10.680  10.512  10.706 -1.8802 -0.7460  0.8313
  689MOL0     H92954  10.600  10.630  10.525 -0.1222 -0.2696  0.1207
  689MOL0     H92955  10.613  10.789  10.594  0.5107  1.6310 -2.6317
  689MOL0     H92956  10.858  10.789  10.573  0.7127 -0.9421  0.7672
  689MOL0     H92957  10.848  10.642  10.480  0.0684  0.6038 -2.4940
  689MOL0     H92958  10.868  10.852  10.331 -0.3359  0.7214 -2.5364
  689MOL0     H92959  10.739  10.740  10.301 -2.4319  1.7008  1.3232
  689MOL0     H92960  10.674  10.943  10.276  0.5825  0.4150  0.5953
  689MOL0     H92961  10.585  10.905  10.421  0.3247  2.2636  3.7089
  689MOL0     H92962  10.686  11.145  10.402  0.3061 -1.3490 -2.0949
  689MOL0     H92963  10.678  11.045  10.561  1.8341 -0.3080  0.0877
  689MOL0     H92964  10.922  11.009  10.529 -0.8385  0.4492  1.0981
  689MOL0     H92965  10.857  11.157  10.590 -2.2621  2.1331 -1.6437
  689MOL0     H92966  10.958  11.013  10.231 -2.6757  1.8220 -3.1647
  689MOL0     H92967  11.076  11.101  10.018 -0.8064 -0.9263  0.7302
  689MOL0     H92968  10.985  11.245   9.980 -0.8279 -1.8437 -1.7307
  689MOL0     H92969  11.269  11.265  10.103 -0.2526  0.3549  1.0409
  689MOL0     H92970  11.162  11.389  10.019 -3.1951 -0.8643  4.8892
  689MOL0     H92971  11.184  11.196   9.814 -1.1400 -2.6111  1.5331
  689MOL0     H92972  11.329  11.161   9.910  0.9145  0.5988  1.4911
  689MOL0     H92973  11.363  11.435   9.888  0.1225 -0.7148  1.0416
  689MOL0     H92974  11.244  11.427   9.766 -0.4728 -0.8911  0.8357
  689MOL0     H92975  11.538  11.334   9.963  1.4546  3.3210 -0.8969
  689MOL0     H92976  11.874  11.284  10.013 -1.4697  1.1072 -0.8856
  689MOL0     H92977  11.728  11.323  10.094  0.2599  0.1079  0.8798
  689MOL0     H92978  11.790  11.157  10.104  1.0315  0.1242  0.8375
  689MOL0     H92979  12.162  11.330   9.501  1.7677 -0.1677 -1.3657
  689MOL0     H92980  12.400  11.338   9.476 -2.2580 -1.9911 -0.9590
  689MOL0     H92981  12.589  11.420   9.547 -2.2854 -0.6529  0.0670
  689MOL0     H92982  12.736  11.351   9.627  1.0493 -2.4207  0.9085
  689MOL0     H92983  12.585  11.167   9.436  2.1836 -0.5792 -0.4819
  689MOL0     H92984  12.685  11.284   9.372  1.6745 -0.4769 -0.7998
  689MOL0     H92985  12.868  11.196   9.547 -0.4872  2.1981 -1.4805
  689MOL0     H92986  12.839  11.099   9.405 -2.1290 -1.9049 -1.3559
  689MOL0     H92987  12.789  11.013   9.691 -1.9261 -0.0033  0.6073
  689MOL0     H92988  12.652  10.995   9.588  0.4510 -1.1858 -2.9070
  689MOL0     H92989  12.811  10.893   9.408  1.4884 -1.5116 -0.6673
  689MOL0     H92990  12.758  10.796   9.541 -0.0632  0.9676 -1.5101
  689MOL0     H92991  13.004  10.769   9.520  1.3763  0.3067  0.4624
  689MOL0     H92992  13.020  10.940   9.522 -0.6669  0.0590  0.2684
  689MOL0     H92993  12.917  10.804   9.780 -1.1828 -1.0869 -0.7012
  689MOL0     H92994  13.010  10.955   9.764  0.4645 -0.0995 -0.6222
  689MOL0     H92995  13.194  10.803   9.663  1.2884 -0.7743 -0.6486
  689MOL0     H92996  13.087  10.670   9.717 -1.6543  1.1470 -1.9281
  689MOL0     H92997  12.432  11.215   9.896  1.0913 -1.1866  0.6680
  689MOL0     H92998  12.192  11.220   9.918  1.2930 -2.4564  0.3139
  689MOL0     H92999  11.783  11.151   9.566  0.9149  3.7353  0.2716
  689MOL0     H93000  11.542  11.189   9.552  0.1162 -3.0752  0.6664
  689MOL0     H93001  10.281  10.609  10.842 -0.7469 -1.2683 -1.0751
  689MOL0     H93002  10.079  10.534  10.964  0.2277  0.9782  0.0403
  689MOL0     H93003   9.837  10.075  11.109 -1.7569 -1.7621  1.3868
  689MOL0     H93004   9.644  10.009  11.248 -1.1185 -0.7575  2.1329
  689MOL0     H93005   9.577  10.227  11.600  0.9202 -2.2007  0.8757
  689MOL0     H93006   9.421  10.287  11.528  2.4364  0.9448 -1.7500
  689MOL0     H93007   9.383  10.132  11.732  1.5718 -1.8572  1.8509
  689MOL0     H93008   9.470  10.007  11.632  1.6849  1.7035  0.2322
  689MOL0     H93009   9.286  10.031  11.471  1.6084  1.9634 -0.2501
  689MOL0     H93010   9.215  10.153  11.549 -0.7660 -0.7753 -1.5156
  689MOL0     H93011   9.150  10.028  11.744  0.8807 -3.1627  2.5636
  689MOL0     H93012   9.258   9.898  11.725 -0.0582  1.4823  2.3481
  689MOL0     H93013   8.886   9.849  11.503 -1.9343  3.6096  0.5764
  689MOL0     H93014   9.683  10.362  11.463 -2.2718 -0.2357 -0.9669
  689MOL0     H93015   9.904  10.427  11.360 -1.0238  1.9308 -1.2293
  690MOL0     O93016   4.229   1.200  11.285 -0.1729  0.5184 -0.2432
  690MOL0     C93017   4.165   1.261  11.205 -0.0605  0.5431 -0.0429
  690MOL0     O93018   4.042   1.296  11.222  0.0065  0.2721  0.5323
  690MOL0     C93019   3.968   1.252  11.331  0.4728 -0.5930  0.4090
  690MOL0     C93020   3.960   1.321  11.454  1.2634 -0.7513 -0.5108
  690MOL0     C93021   3.876   1.267  11.556  0.3353 -0.8978  0.0526
  690MOL0     C93022   3.819   1.144  11.557  0.5650  0.1381  0.1548
  690MOL0     O93023   3.743   1.093  11.659 -0.6992  0.2357  0.2857
  690MOL0     C93024   3.731   1.170  11.780 -1.0901 -0.1739 -0.1048
  690MOL0     C93025   3.622   1.109  11.871  0.0109  0.3488  0.1849
  690MOL0     C93026   3.560   1.210  11.975  0.0450 -0.2907 -0.3877
  690MOL0     C93027   3.648   1.225  12.104 -0.8942 -0.0930 -0.6720
  690MOL0     C93028   3.641   1.104  12.200 -0.7301 -0.5210  0.2285
  690MOL0     C93029   3.719   1.119  12.327  0.0429  1.0306  0.5041
  690MOL0     C93030   3.660   1.220  12.418  0.3483  0.0128  0.4423
  690MOL0     C93031   3.511   1.207  12.447  0.8473  0.1550 -0.0453
  690MOL0     N93032   3.459   1.310  12.544 -0.1814  0.6380 -0.1776
  690MOL0     C93033   3.471   1.316  12.676 -0.6589  1.0015  0.1455
  690MOL0     C93034   3.413   1.431  12.719 -0.0153 -0.6872  1.2066
  690MOL0     C93035   3.425   1.495  12.853  0.2539  0.2060  0.7363
  690MOL0     C93036   3.396   1.403  12.976 -0.2172  0.6239  0.1494
  690MOL0     C93037   3.411   1.465  13.118 -0.3600  0.7431  0.6906
  690MOL0     C93038   3.557   1.482  13.161 -0.0190 -0.1128 -0.5626
  690MOL0     O93039   3.542   1.560  13.287 -0.6107 -0.2326 -0.0423
  690MOL0     C93040   3.651   1.624  13.330 -0.1163 -0.1278 -0.1759
  690MOL0     C93041   3.665   1.614  13.468 -0.1413  0.5180  0.1353
  690MOL0     C93042   3.769   1.681  13.529  0.6348  0.3636 -0.3879
  690MOL0     C93043   3.787   1.669  13.684 -0.4264  0.4262 -0.2624
  690MOL0     C93044   3.858   1.749  13.448 -0.5352  0.3870 -0.3573
  690MOL0     C93045   3.977   1.809  13.510  0.0561  0.6548  0.0426
  690MOL0     O93046   3.959   1.945  13.546 -0.0148  0.5366 -0.8737
  690MOL0     C93047   4.066   2.027  13.594  0.0877 -0.2021  0.0165
  690MOL0     C93048   4.201   1.985  13.606  0.4929  0.0560 -0.2977
  690MOL0     C93049   4.305   2.075  13.628  0.2834  0.0554 -0.4460
  690MOL0     C93050   4.280   2.205  13.652  0.1635  0.7138 -0.4980
  690MOL0     O93051   4.377   2.299  13.670 -0.6130 -0.2115 -0.8416
  690MOL0     C93052   4.516   2.277  13.654 -0.1410  0.0913  0.1302
  690MOL0     C93053   4.587   2.274  13.788 -0.1046 -0.4560 -0.2205
  690MOL0     C93054   4.742   2.266  13.792 -0.8082  0.1049  0.0975
  690MOL0     C93055   4.813   2.400  13.810  0.6404  0.1848 -0.8374
  690MOL0     C93056   4.966   2.392  13.796 -0.6898  0.6384  0.6204
  690MOL0     C93057   5.033   2.504  13.865 -0.1440  0.4213  0.5805
  690MOL0     C93058   5.188   2.514  13.848  0.7789 -0.5314 -0.3194
  690MOL0     C93059   5.250   2.615  13.944  0.5373 -0.5458 -0.0497
  690MOL0    Cl93060   5.249   2.554  14.119 -0.1272 -0.0640  0.2182
  690MOL0     C93061   4.142   2.251  13.644  0.2294 -0.4279 -0.1524
  690MOL0     C93062   4.039   2.158  13.615  0.3168  0.5098 -0.2703
  690MOL0     O93063   4.078   1.745  13.515 -0.7109  1.3807  0.0294
  690MOL0     C93064   3.840   1.764  13.311 -0.1248  0.6464  0.2424
  690MOL0     C93065   3.739   1.700  13.251  0.7554  0.3403  0.5084
  690MOL0     N93066   3.353   1.489  12.609  0.6381 -0.4514  0.2019
  690MOL0     N93067   3.377   1.412  12.509 -0.0045  1.0137  0.1526
  690MOL0     C93068   3.835   1.072  11.444 -0.0502  0.5213 -0.3525
  690MOL0     C93069   3.905   1.123  11.327 -0.2055 -0.3953 -0.2130
  690MOL0     C93070   4.223   1.297  11.075  0.0550  0.2762  0.3549
  690MOL0     C93071   4.144   1.364  10.977 -0.5375  0.1242  0.4455
  690MOL0     C93072   4.200   1.391  10.856 -0.0022  0.1073 -0.7838
  690MOL0     C93073   4.327   1.343  10.823 -0.7030  0.9566  0.3861
  690MOL0     O93074   4.385   1.372  10.703  0.4253  0.4146 -0.1868
  690MOL0     C93075   4.374   1.264  10.602  0.0203  0.1105  0.4598
  690MOL0     C93076   4.305   1.316  10.471  0.3051 -0.2194 -0.1118
  690MOL0     C93077   4.181   1.397  10.494  0.1432  0.2852  0.6934
  690MOL0     C93078   4.070   1.303  10.555 -0.1996  0.2066  0.0967
  690MOL0     C93079   3.938   1.364  10.565  0.9224 -0.4317  0.0509
  690MOL0     C93080   3.824   1.404  10.562 -0.2131  0.4408 -0.3287
  690MOL0     C93081   4.411   1.287  10.924  0.0295 -0.0950 -0.3744
  690MOL0     C93082   4.349   1.258  11.042 -0.6763  0.5965 -0.5027
  690MOL0     H93083   3.999   1.422  11.463 -1.9313  0.6723 -1.1450
  690MOL0     H93084   3.871   1.335  11.641 -2.8690 -0.7952 -0.0919
  690MOL0     H93085   3.819   1.172  11.845 -0.4333  1.2741 -1.0068
  690MOL0     H93086   3.708   1.273  11.753 -0.5650  0.0164  0.1725
  690MOL0     H93087   3.539   1.080  11.806 -0.8424  3.2246 -0.1345
  690MOL0     H93088   3.668   1.022  11.919  2.9126  1.7141  0.1118
  690MOL0     H93089   3.540   1.307  11.928 -2.2321  1.1093  3.0036
  690MOL0     H93090   3.455   1.186  11.992 -0.5576  0.1410 -3.0327
  690MOL0     H93091   3.752   1.228  12.072 -1.8164 -0.3976 -4.1267
  690MOL0     H93092   3.620   1.318  12.154  0.3478  0.2035 -0.4907
  690MOL0     H93093   3.536   1.076  12.212 -0.6067 -1.0995 -0.0182
  690MOL0     H93094   3.685   1.019  12.146 -1.1884 -0.4376 -0.2868
  690MOL0     H93095   3.713   1.018  12.367 -2.2380  0.5026 -0.9632
  690MOL0     H93096   3.826   1.134  12.309 -0.0894  0.3532 -0.9976
  690MOL0     H93097   3.717   1.220  12.511  2.0109 -0.5369 -0.5249
  690MOL0     H93098   3.679   1.318  12.371 -2.0249  0.5650  0.5122
  690MOL0     H93099   3.501   1.104  12.480  1.4196 -0.4374 -1.6352
  690MOL0     H93100   3.453   1.219  12.355 -1.6377 -0.6820  1.3176
  690MOL0     H93101   3.525   1.238  12.729 -0.7335  0.9914  0.2075
  690MOL0     H93102   3.517   1.553  12.866 -1.2220  2.4450  1.9438
  690MOL0     H93103   3.347   1.572  12.865 -0.0597 -0.1565  1.0479
  690MOL0     H93104   3.468   1.320  12.970  1.1288  1.6943  1.0209
  690MOL0     H93105   3.302   1.348  12.961  0.3849 -0.0625 -1.4100
  690MOL0     H93106   3.356   1.399  13.186  2.1835 -0.8689  1.3110
  690MOL0     H93107   3.349   1.555  13.122 -0.2455  0.9565 -1.4577
  690MOL0     H93108   3.621   1.542  13.096  1.7146 -0.9580  0.2923
  690MOL0     H93109   3.600   1.383  13.176  0.9598  0.6532  2.5433
  690MOL0     H93110   3.584   1.560  13.518 -1.8108  0.9233 -1.9976
  690MOL0     H93111   3.820   1.763  13.729 -1.0859 -0.2308  1.6931
  690MOL0     H93112   3.696   1.633  13.733 -2.0203 -0.9956 -3.9031
  690MOL0     H93113   3.864   1.598  13.715  1.3694  3.2983  2.4724
  690MOL0     H93114   4.243   1.886  13.621  0.4938  0.0830 -0.1241
  690MOL0     H93115   4.406   2.038  13.636  0.7370  1.4921  0.9607
  690MOL0     H93116   4.548   2.189  13.597  0.2017  0.3538 -0.0879
  690MOL0     H93117   4.570   2.365  13.615 -0.4107  0.4882  0.6372
  690MOL0     H93118   4.545   2.364  13.834 -1.7186 -0.4716 -1.5794
  690MOL0     H93119   4.539   2.191  13.840  0.1007 -0.8154 -0.6002
  690MOL0     H93120   4.775   2.228  13.694  0.9192 -0.5148  0.8678
  690MOL0     H93121   4.778   2.192  13.865  0.3575 -0.5941 -1.1304
  690MOL0     H93122   4.778   2.466  13.730  1.8739 -2.8499 -4.1633
  690MOL0     H93123   4.799   2.441  13.911  2.5967 -0.3307 -0.3142
  690MOL0     H93124   4.990   2.386  13.689 -2.3304  0.8392  0.2138
  690MOL0     H93125   5.010   2.304  13.845 -0.9652 -0.8009 -1.5630
  690MOL0     H93126   4.995   2.600  13.830 -3.6836 -0.7596  0.7424
  690MOL0     H93127   5.007   2.498  13.971  2.4067  2.0236  1.3824
  690MOL0     H93128   5.206   2.556  13.749 -0.5434  0.8777  0.0063
  690MOL0     H93129   5.240   2.418  13.853  3.0772  0.6117 -1.1976
  690MOL0     H93130   5.194   2.709  13.936  0.8991 -0.2830  0.4704
  690MOL0     H93131   5.356   2.634  13.930  0.2163  1.7666  0.2757
  690MOL0     H93132   4.123   2.358  13.651 -1.8036 -0.7213 -0.5588
  690MOL0     H93133   3.938   2.194  13.601  0.2448 -0.4192 -2.4400
  690MOL0     H93134   3.909   1.824  13.253 -0.4752 -0.5095 -1.4422
  690MOL0     H93135   3.719   1.725  13.147 -0.1293 -0.4750  0.4649
  690MOL0     H93136   3.796   0.970  11.447  1.3033 -0.1165 -2.2740
  690MOL0     H93137   3.909   1.073  11.231 -0.6994  1.4999 -1.2930
  690MOL0     H93138   4.045   1.398  11.004 -1.0902 -1.6256  0.7839
  690MOL0     H93139   4.138   1.445  10.785 -0.4704  1.5039  0.6414
  690MOL0     H93140   4.471   1.228  10.568 -0.3987 -0.5491 -0.0734
  690MOL0     H93141   4.316   1.180  10.641  0.2119 -0.0083  0.4923
  690MOL0     H93142   4.283   1.227  10.410 -0.2850 -1.0719  1.2897
  690MOL0     H93143   4.371   1.377  10.410  0.2970 -1.5391 -1.4821
  690MOL0     H93144   4.145   1.426  10.395  2.1346 -1.4299 -0.6378
  690MOL0     H93145   4.208   1.481  10.558  2.2173  1.9784 -2.1775
  690MOL0     H93146   4.104   1.274  10.654 -0.2841  0.3772  0.1766
  690MOL0     H93147   4.064   1.213  10.493  2.2873 -1.5911  2.2193
  690MOL0     H93148   3.723   1.441  10.567 -1.0686 -1.5505 -1.4299
  690MOL0     H93149   4.506   1.242  10.901  0.3024 -0.6591  1.6667
  690MOL0     H93150   4.395   1.189  11.112 -0.0923  0.8956 -0.5885
  691MOL0     O93151   7.829   5.473   8.458 -0.5223 -0.0333  0.6098
  691MOL0     C93152   7.798   5.596   8.441  0.0036  0.5624  0.7233
  691MOL0     O93153   7.679   5.642   8.390  0.1045  0.2903 -0.1397
  691MOL0     C93154   7.573   5.556   8.391  1.1942  0.5720  0.1511
  691MOL0     C93155   7.479   5.585   8.291 -0.0707  0.2741 -0.2523
  691MOL0     C93156   7.350   5.514   8.291  0.1135 -0.2286  0.3537
  691MOL0     C93157   7.321   5.419   8.393 -1.1676  0.3573  1.0498
  691MOL0     O93158   7.204   5.346   8.389 -0.3009 -0.6376  0.1849
  691MOL0     C93159   7.088   5.414   8.347  0.1964  0.6770  0.3345
  691MOL0     C93160   6.961   5.323   8.355  0.2607  0.6207 -0.0485
  691MOL0     C93161   6.826   5.378   8.301 -0.1014  0.3119  0.4257
  691MOL0     C93162   6.701   5.295   8.311  0.2739  0.0456  0.0233
  691MOL0     C93163   6.570   5.353   8.256 -0.4784 -0.7588 -0.0098
  691MOL0     C93164   6.451   5.260   8.266 -0.5361 -0.3174 -0.4606
  691MOL0     C93165   6.343   5.321   8.189 -0.1328  1.0793  0.8940
  691MOL0     C93166   6.219   5.233   8.205 -0.4903 -0.4360 -0.3450
  691MOL0     N93167   6.104   5.276   8.118  0.2803  0.0786  0.1976
  691MOL0     C93168   6.009   5.195   8.058  1.0888 -0.1778  0.0510
  691MOL0     C93169   5.948   5.277   7.970  1.0571 -0.2212  0.0513
  691MOL0     C93170   5.824   5.229   7.891  0.0351  1.0365  0.1960
  691MOL0     C93171   5.854   5.252   7.743 -0.2237  1.0264 -0.6293
  691MOL0     C93172   5.743   5.281   7.645 -1.0271 -0.7296  0.4507
  691MOL0     C93173   5.635   5.181   7.641  0.2865  0.0373 -0.4053
  691MOL0     O93174   5.530   5.237   7.564  0.5025  0.2012 -0.0025
  691MOL0     C93175   5.416   5.289   7.627 -0.4602  0.3312 -0.1748
  691MOL0     C93176   5.310   5.312   7.535 -0.2294 -0.4895 -0.7377
  691MOL0     C93177   5.185   5.354   7.590  0.3969 -0.2474  1.0527
  691MOL0     C93178   5.080   5.377   7.476 -0.0339  0.3538  0.6343
  691MOL0     C93179   5.168   5.398   7.719  1.1307  0.2590 -0.7195
  691MOL0     C93180   5.046   5.446   7.780 -0.1485 -0.5549 -0.4073
  691MOL0     O93181   5.047   5.554   7.861 -0.0940  0.3042 -0.4851
  691MOL0     C93182   4.925   5.612   7.892  0.4159 -1.0742  0.4091
  691MOL0     C93183   4.899   5.737   7.823 -0.0429  0.5191 -0.1516
  691MOL0     C93184   4.789   5.815   7.871  0.8110  0.1787 -0.0655
  691MOL0     C93185   4.696   5.776   7.971  0.4728 -0.2959 -0.1538
  691MOL0     O93186   4.589   5.855   7.995  0.3422  0.1006 -0.0203
  691MOL0     C93187   4.527   5.870   8.129  0.2124 -0.1298 -0.4918
  691MOL0     C93188   4.378   5.895   8.114 -0.3215  0.6837  0.0716
  691MOL0     C93189   4.313   5.786   8.029  0.6248 -0.1534  0.2966
  691MOL0     C93190   4.161   5.803   8.008  0.6748  0.3485 -0.4185
  691MOL0     C93191   4.138   5.890   7.877  0.5094  0.1869  0.8722
  691MOL0     C93192   3.994   5.909   7.839  0.7503 -0.0179 -0.2968
  691MOL0     C93193   3.931   5.776   7.801  0.9682 -0.2966  0.2432
  691MOL0     C93194   3.822   5.811   7.693 -0.8399 -0.1967  0.0818
  691MOL0    Cl93195   3.663   5.879   7.741  0.0233 -0.4994  0.0301
  691MOL0     C93196   4.736   5.665   8.042  0.3849 -0.6959  0.2827
  691MOL0     C93197   4.845   5.587   8.006 -0.6266  0.6212  0.1741
  691MOL0     O93198   4.951   5.378   7.756  0.4706  0.0271 -0.7180
  691MOL0     C93199   5.274   5.389   7.805 -0.7704  0.4677  0.0115
  691MOL0     C93200   5.395   5.325   7.758 -0.6818  0.1902 -0.0404
  691MOL0     N93201   5.990   5.411   7.985 -0.1277 -0.0026  0.9203
  691MOL0     N93202   6.084   5.408   8.072 -0.5839  0.4422  0.2096
  691MOL0     C93203   7.422   5.395   8.488  0.3244  0.7857 -0.2898
  691MOL0     C93204   7.545   5.462   8.495  0.5354 -0.2188  0.4426
  691MOL0     C93205   7.907   5.690   8.463  0.3710 -0.2103  1.2139
  691MOL0     C93206   7.892   5.825   8.491 -0.5219  0.1093 -0.3806
  691MOL0     C93207   8.004   5.914   8.495 -0.2398 -0.0871 -0.8680
  691MOL0     C93208   8.129   5.874   8.498  0.9427  0.4176 -0.4597
  691MOL0     O93209   8.233   5.960   8.509  0.0167 -0.8968  0.0416
  691MOL0     C93210   8.306   5.946   8.634 -0.8883  0.3494  0.1523
  691MOL0     C93211   8.444   5.882   8.613  0.0278 -0.8402  0.2007
  691MOL0     C93212   8.521   5.867   8.738  0.1943 -0.9608  0.1479
  691MOL0     C93213   8.666   5.825   8.693  0.0921  0.4923 -0.2160
  691MOL0     C93214   8.669   5.693   8.628 -0.7887  1.5928  1.5787
  691MOL0     C93215   8.661   5.576   8.591 -0.4333  0.0273  0.0225
  691MOL0     C93216   8.149   5.739   8.462 -0.6088 -0.7063 -0.0545
  691MOL0     C93217   8.035   5.648   8.447 -0.5598 -0.3490 -0.3388
  691MOL0     H93218   7.495   5.660   8.214  1.5110  0.8663  0.6103
  691MOL0     H93219   7.280   5.533   8.210  0.5746 -1.3340 -0.3150
  691MOL0     H93220   7.071   5.497   8.416 -0.7000 -0.4315  1.5016
  691MOL0     H93221   7.095   5.459   8.247 -0.3472 -2.9197 -1.5200
  691MOL0     H93222   6.993   5.237   8.295  1.4330  1.1961 -0.2731
  691MOL0     H93223   6.939   5.293   8.457  3.8194  0.5386  0.8227
  691MOL0     H93224   6.800   5.470   8.355  1.0182 -0.1279  1.7665
  691MOL0     H93225   6.841   5.415   8.199  1.6247  1.2624  0.9809
  691MOL0     H93226   6.736   5.211   8.250  4.7988  1.2229  0.6483
  691MOL0     H93227   6.690   5.273   8.417  1.3543  2.4364  0.6980
  691MOL0     H93228   6.551   5.443   8.315  2.0814  1.8684 -2.8071
  691MOL0     H93229   6.581   5.383   8.151 -1.7709 -1.3157 -0.3292
  691MOL0     H93230   6.495   5.166   8.233 -0.5122 -1.4605  2.5306
  691MOL0     H93231   6.415   5.235   8.366  0.3397 -0.3669 -0.1454
  691MOL0     H93232   6.335   5.426   8.219  2.4763  1.2424  1.2389
  691MOL0     H93233   6.360   5.325   8.081  1.0239  1.1278  1.0684
  691MOL0     H93234   6.188   5.239   8.310  1.5651  0.5414  0.2526
  691MOL0     H93235   6.251   5.131   8.181  2.2524  0.5452 -1.1669
  691MOL0     H93236   5.981   5.093   8.084 -0.5179  0.4017  0.7689
  691MOL0     H93237   5.812   5.121   7.908 -1.3734  0.9304 -1.2492
  691MOL0     H93238   5.735   5.280   7.928 -1.2813 -2.4422  2.2724
  691MOL0     H93239   5.900   5.160   7.704  3.2026  2.0808  0.5791
  691MOL0     H93240   5.939   5.321   7.737  1.8650 -1.2178  1.1329
  691MOL0     H93241   5.793   5.273   7.548  1.2001 -2.0074  1.6248
  691MOL0     H93242   5.705   5.382   7.664  1.0052 -0.4080  3.7033
  691MOL0     H93243   5.602   5.157   7.743 -1.0786 -0.9703 -1.0440
  691MOL0     H93244   5.666   5.087   7.595  1.4378  2.2009 -4.5783
  691MOL0     H93245   5.332   5.315   7.429  0.2208 -0.3922 -0.6457
  691MOL0     H93246   5.042   5.286   7.428 -0.9925  0.3992  1.2736
  691MOL0     H93247   5.002   5.428   7.533 -0.0574 -2.3653  3.3296
  691MOL0     H93248   5.113   5.456   7.408  2.2837 -0.8236  0.2761
  691MOL0     H93249   4.967   5.771   7.746 -0.5464 -0.6756 -1.1527
  691MOL0     H93250   4.759   5.906   7.819 -1.3794  1.2446  2.8166
  691MOL0     H93251   4.534   5.781   8.192  1.7221 -0.8398 -1.6238
  691MOL0     H93252   4.563   5.951   8.194 -1.5392  0.3791 -0.0992
  691MOL0     H93253   4.329   5.895   8.212  2.1359 -0.1366  1.3909
  691MOL0     H93254   4.366   5.994   8.069  0.7018  1.6836  1.8787
  691MOL0     H93255   4.334   5.692   8.081  1.1513 -0.4815 -0.5021
  691MOL0     H93256   4.357   5.774   7.930  1.3476  0.3836  0.5407
  691MOL0     H93257   4.114   5.706   7.986 -1.0854  1.3639 -1.3733
  691MOL0     H93258   4.111   5.865   8.082 -3.2144 -0.5127 -2.0598
  691MOL0     H93259   4.194   5.854   7.790  0.5560  1.9105  0.1392
  691MOL0     H93260   4.173   5.988   7.912  3.6610 -1.0440  1.4987
  691MOL0     H93261   3.939   5.950   7.924 -0.3110 -2.3135  0.1895
  691MOL0     H93262   3.986   5.986   7.761  0.2544  0.1869 -0.0461
  691MOL0     H93263   3.882   5.731   7.888 -0.9618  0.5872 -0.3308
  691MOL0     H93264   3.996   5.701   7.756 -0.3364 -2.0399  1.1150
  691MOL0     H93265   3.791   5.713   7.657  1.7530 -1.4324  0.9665
  691MOL0     H93266   3.872   5.865   7.611  3.3859  0.8610  2.9986
  691MOL0     H93267   4.669   5.622   8.117 -1.9421  1.6361 -0.3024
  691MOL0     H93268   4.872   5.515   8.082 -2.2080 -0.4479 -0.2357
  691MOL0     H93269   5.270   5.405   7.912  1.7383 -0.2412  0.2718
  691MOL0     H93270   5.477   5.321   7.830  1.5859 -0.4624 -2.4736
  691MOL0     H93271   7.401   5.331   8.573  1.1996 -2.9473 -2.6208
  691MOL0     H93272   7.600   5.452   8.588 -1.3929 -0.9589  1.5749
  691MOL0     H93273   7.788   5.854   8.505 -0.8321 -1.1796  0.1433
  691MOL0     H93274   7.990   6.020   8.517 -0.5069 -0.4030  0.5570
  691MOL0     H93275   8.311   6.048   8.674 -1.1283  1.0737 -1.6078
  691MOL0     H93276   8.249   5.885   8.704 -0.4350  0.8216  0.9607
  691MOL0     H93277   8.495   5.950   8.543 -2.7431  2.7687  1.3298
  691MOL0     H93278   8.431   5.783   8.568  0.1646 -1.0611  0.6459
  691MOL0     H93279   8.477   5.781   8.789 -2.9825 -0.2650 -1.1527
  691MOL0     H93280   8.518   5.956   8.801 -2.5725  0.3771 -1.6655
  691MOL0     H93281   8.732   5.822   8.780  0.5959 -2.3605 -0.6042
  691MOL0     H93282   8.712   5.898   8.625  1.1645 -0.8289 -0.9477
  691MOL0     H93283   8.647   5.471   8.578  0.0327 -0.0049 -0.2377
  691MOL0     H93284   8.255   5.717   8.452 -0.5958 -0.4084 -0.6093
  691MOL0     H93285   8.063   5.546   8.424  3.9424 -0.0305  2.5271
  692MOL0     O93286   2.537   5.281   3.098  0.0581 -1.5453  0.3166
  692MOL0     C93287   2.618   5.333   3.021 -0.3958  0.1200  0.4170
  692MOL0     O93288   2.584   5.408   2.906  0.0726  0.0580 -0.9571
  692MOL0     C93289   2.455   5.440   2.884  0.4014  0.3158  0.3062
  692MOL0     C93290   2.377   5.377   2.791  0.3834  0.3020  0.1133
  692MOL0     C93291   2.241   5.417   2.770  0.4095 -1.2736 -0.7818
  692MOL0     C93292   2.189   5.525   2.833  0.6784  0.0519  0.1962
  692MOL0     O93293   2.058   5.553   2.797 -0.1592 -0.0394 -0.5756
  692MOL0     C93294   2.006   5.671   2.866  0.1227 -0.1642  0.4882
  692MOL0     C93295   1.868   5.697   2.801  0.1743 -0.1776 -0.0346
  692MOL0     C93296   1.763   5.590   2.836 -0.8044 -0.4651 -0.7143
  692MOL0     C93297   1.637   5.605   2.762  0.2526 -0.0916  1.0103
  692MOL0     C93298   1.537   5.496   2.799 -0.0080  1.2946 -0.3353
  692MOL0     C93299   1.473   5.536   2.929  0.6733 -0.7097 -0.2263
  692MOL0     C93300   1.345   5.456   2.962  0.0263  0.7417  0.2891
  692MOL0     C93301   1.314   5.481   3.113  0.5809  0.3478 -0.3388
  692MOL0     N93302   1.274   5.616   3.140 -0.5811  0.8273  0.5241
  692MOL0     C93303   1.182   5.691   3.069 -0.1825 -0.4928 -0.1101
  692MOL0     C93304   1.142   5.787   3.155 -0.2188 -0.0680  0.3051
  692MOL0     C93305   1.036   5.891   3.122 -0.0770 -0.5596 -0.1934
  692MOL0     C93306   0.885   5.856   3.161  0.1815 -0.0132  0.0978
  692MOL0     C93307   0.844   5.924   3.292  0.0018  0.0878 -0.1548
  692MOL0     C93308   0.695   5.911   3.329 -0.0893 -0.3591  0.3271
  692MOL0     O93309   0.677   5.991   3.444  0.4310  0.2928  0.1442
  692MOL0     C93310   0.559   5.982   3.507  0.4961  0.2351 -0.1804
  692MOL0     C93311   0.455   5.894   3.487 -0.5784 -0.6390 -0.7269
  692MOL0     C93312   0.340   5.898   3.570 -0.2213 -0.4426 -0.1684
  692MOL0     C93313   0.229   5.801   3.536 -0.2678  0.0227  0.8218
  692MOL0     C93314   0.331   5.996   3.675  0.3408  0.0543 -1.0918
  692MOL0     C93315   0.216   6.009   3.763  0.8184  0.1670 -0.4521
  692MOL0     O93316   0.138   5.898   3.779 -0.5726  0.2169 -0.9725
  692MOL0     C93317   0.019   5.900   3.847  0.2435 -0.7090 -0.1242
  692MOL0     C93318  -0.084   5.982   3.798 -0.2462 -0.1153  0.6221
  692MOL0     C93319  -0.192   6.006   3.870 -0.0939  0.4979  0.4410
  692MOL0     C93320  -0.226   5.934   3.980  0.4531  0.7218 -0.4609
  692MOL0     O93321  -0.343   5.962   4.048 -0.6862  0.2917 -0.4131
  692MOL0     C93322  -0.459   5.959   3.971 -0.2263  0.1791 -0.6914
  692MOL0     C93323  -0.581   5.894   4.049  0.3694 -0.1995  0.2198
  692MOL0     C93324  -0.597   5.972   4.179  0.3533 -0.6922 -0.1150
  692MOL0     C93325  -0.708   5.913   4.257  0.4351  0.3667 -0.4324
  692MOL0     C93326  -0.714   5.968   4.403  0.0379 -0.1250  0.0018
  692MOL0     C93327  -0.839   5.905   4.464  0.7326 -0.0880  0.0101
  692MOL0     C93328  -0.852   5.911   4.619 -1.0303 -0.0765  0.2420
  692MOL0     C93329  -0.836   6.054   4.681 -0.6335  0.9101 -0.6229
  692MOL0    Cl93330  -0.845   6.044   4.862 -0.4357 -0.3275 -0.2472
  692MOL0     C93331  -0.129   5.846   4.028 -0.2257 -0.0304  0.0467
  692MOL0     C93332  -0.001   5.833   3.963 -0.0391 -0.0595 -0.8368
  692MOL0     O93333   0.204   6.115   3.827  0.4449 -0.8898  0.2777
  692MOL0     C93334   0.440   6.082   3.696  0.1083  1.3461 -0.5801
  692MOL0     C93335   0.553   6.067   3.615  0.0307 -0.2766  0.6351
  692MOL0     N93336   1.214   5.772   3.270 -0.5312 -0.0192 -0.9693
  692MOL0     N93337   1.302   5.680   3.258 -0.0351  1.0437  0.1711
  692MOL0     C93338   2.275   5.592   2.925  0.2572  0.5066 -0.6076
  692MOL0     C93339   2.408   5.552   2.949 -0.1100  0.5679 -0.5899
  692MOL0     C93340   2.755   5.285   3.018  0.0985  0.4872  0.7033
  692MOL0     C93341   2.807   5.228   3.136 -0.1858 -0.9110  0.6894
  692MOL0     C93342   2.940   5.172   3.136  0.1975 -0.9330 -0.7999
  692MOL0     C93343   3.013   5.182   3.017  0.4102  0.1873 -0.1102
  692MOL0     O93344   3.141   5.135   2.995 -0.1673 -0.0413  0.8574
  692MOL0     C93345   3.239   5.158   3.099 -0.3598  0.7298 -0.3586
  692MOL0     C93346   3.270   5.305   3.115  0.1863 -0.0088 -0.9792
  692MOL0     C93347   3.321   5.363   2.990  0.2502 -1.0376  0.1184
  692MOL0     C93348   3.391   5.507   3.024  0.0988  0.5677  1.0110
  692MOL0     C93349   3.295   5.609   3.067 -0.0999 -0.8297 -0.6772
  692MOL0     C93350   3.235   5.707   3.112 -0.3789 -0.5806  0.1465
  692MOL0     C93351   2.965   5.252   2.906 -0.9059  0.0305 -0.4319
  692MOL0     C93352   2.831   5.305   2.901 -1.4143  0.4958 -0.0811
  692MOL0     H93353   2.413   5.287   2.741 -0.1704  0.2280 -0.1595
  692MOL0     H93354   2.184   5.381   2.684 -0.8066 -0.4329 -0.3554
  692MOL0     H93355   1.998   5.643   2.971 -0.0907 -0.3453  0.4232
  692MOL0     H93356   2.071   5.758   2.850  0.3175 -0.0636  1.7441
  692MOL0     H93357   1.837   5.798   2.830  2.0075  0.9803 -1.8870
  692MOL0     H93358   1.873   5.694   2.692 -2.2909  2.3747 -0.3268
  692MOL0     H93359   1.812   5.493   2.835 -1.5014 -0.8456  0.2191
  692MOL0     H93360   1.733   5.595   2.942 -0.2555 -4.5686 -0.2033
  692MOL0     H93361   1.587   5.702   2.766  1.0373  0.3609  0.1209
  692MOL0     H93362   1.657   5.589   2.656  1.2431 -3.5210  1.5963
  692MOL0     H93363   1.460   5.481   2.723 -1.3647  0.6061  1.1012
  692MOL0     H93364   1.593   5.405   2.819  2.1764  2.6066 -0.1496
  692MOL0     H93365   1.545   5.512   3.007 -1.2346 -1.9006  1.2491
  692MOL0     H93366   1.454   5.644   2.932 -1.3893 -1.0397  0.2826
  692MOL0     H93367   1.261   5.492   2.902 -1.0564 -1.1030  0.6271
  692MOL0     H93368   1.361   5.348   2.959  0.5958  0.6176  3.8877
  692MOL0     H93369   1.408   5.457   3.163  0.1697 -0.9327 -0.1341
  692MOL0     H93370   1.233   5.416   3.147  0.0133 -0.2205 -2.5845
  692MOL0     H93371   1.145   5.674   2.968 -0.3482 -1.4518  0.1052
  692MOL0     H93372   1.069   5.987   3.161  0.9300 -0.2252 -1.7845
  692MOL0     H93373   1.034   5.908   3.014  0.7630 -0.1438 -0.1479
  692MOL0     H93374   0.876   5.747   3.165  1.5708 -0.1142  0.8085
  692MOL0     H93375   0.824   5.892   3.077 -1.9816 -2.8444  0.2994
  692MOL0     H93376   0.877   6.028   3.283  1.4591 -0.5336 -3.2096
  692MOL0     H93377   0.903   5.868   3.365  2.1934  0.6529 -1.3928
  692MOL0     H93378   0.678   5.807   3.358 -0.2664 -0.0425  1.3916
  692MOL0     H93379   0.630   5.942   3.246  2.0564 -0.8829 -1.6868
  692MOL0     H93380   0.463   5.839   3.393 -2.1284  0.3169 -1.4623
  692MOL0     H93381   0.139   5.862   3.535  0.5635  1.3273  2.1514
  692MOL0     H93382   0.241   5.757   3.436 -0.1453 -2.0591  1.7147
  692MOL0     H93383   0.227   5.715   3.603  2.4824  0.0565  1.0806
  692MOL0     H93384  -0.078   6.027   3.700 -2.7000 -0.9025  0.0403
  692MOL0     H93385  -0.257   6.088   3.840 -0.2998  0.5957  1.1328
  692MOL0     H93386  -0.475   6.064   3.946  1.0453  1.7280  3.9246
  692MOL0     H93387  -0.441   5.902   3.880  0.4305 -2.6604  1.1042
  692MOL0     H93388  -0.677   5.905   3.998 -2.0953  1.0385  4.6096
  692MOL0     H93389  -0.572   5.786   4.063 -0.2999 -0.7118 -2.5645
  692MOL0     H93390  -0.617   6.079   4.164 -1.1037 -1.1054 -1.3198
  692MOL0     H93391  -0.502   5.953   4.229 -1.0056  1.2487  3.6154
  692MOL0     H93392  -0.808   5.938   4.220  0.5404  2.2712  0.4741
  692MOL0     H93393  -0.685   5.806   4.259  0.3959  0.2900 -2.1685
  692MOL0     H93394  -0.722   6.076   4.420 -2.0617 -0.1273 -0.6003
  692MOL0     H93395  -0.636   5.932   4.470 -0.0141  1.3019  0.8831
  692MOL0     H93396  -0.928   5.947   4.415  0.9775 -0.2278 -0.5616
  692MOL0     H93397  -0.835   5.799   4.439 -0.4053 -0.5043  1.4172
  692MOL0     H93398  -0.774   5.851   4.667 -0.3600 -0.3502 -1.1624
  692MOL0     H93399  -0.940   5.861   4.660  0.0342 -0.7673  1.7939
  692MOL0     H93400  -0.904   6.136   4.657 -2.2581 -0.5264 -1.1056
  692MOL0     H93401  -0.733   6.083   4.657 -0.0177 -2.1713 -2.1773
  692MOL0     H93402  -0.146   5.775   4.109  0.3255 -1.3516 -0.9584
  692MOL0     H93403   0.088   5.786   4.003 -1.4696 -2.4478 -0.2800
  692MOL0     H93404   0.437   6.160   3.772  1.3260  0.3169  0.5588
  692MOL0     H93405   0.631   6.139   3.639 -0.2094 -1.0269  4.1308
  692MOL0     H93406   2.220   5.679   2.959 -4.5014 -1.3498 -2.7017
  692MOL0     H93407   2.471   5.611   3.014 -0.3113  0.2258 -0.0774
  692MOL0     H93408   2.732   5.217   3.214 -1.1753  3.3287  0.5524
  692MOL0     H93409   2.977   5.126   3.228  0.1144  2.4734  1.1128
  692MOL0     H93410   3.189   5.117   3.187 -1.2884  2.4587 -0.0505
  692MOL0     H93411   3.339   5.115   3.087  0.1944  0.7551  3.1039
  692MOL0     H93412   3.332   5.319   3.204 -0.2507  1.3822 -0.8651
  692MOL0     H93413   3.177   5.359   3.135 -1.3680 -1.5013 -3.5827
  692MOL0     H93414   3.233   5.371   2.925 -1.3723 -3.9177  1.7666
  692MOL0     H93415   3.401   5.294   2.964  3.6074  1.5909  2.4514
  692MOL0     H93416   3.435   5.551   2.934 -3.1446  0.6016 -0.7100
  692MOL0     H93417   3.463   5.488   3.104 -1.2373 -3.7156  1.4642
  692MOL0     H93418   3.180   5.789   3.156 -0.0496  0.7749 -1.8521
  692MOL0     H93419   3.027   5.258   2.817  0.2418 -0.3239  0.3287
  692MOL0     H93420   2.799   5.364   2.815 -0.3129 -0.1635 -0.9738
  693MOL0     O93421   6.192   7.108   3.073  0.8349  0.0461  0.8605
  693MOL0     C93422   6.198   7.188   3.165  0.1288  0.3282  0.4131
  693MOL0     O93423   6.098   7.270   3.195  0.8170  0.1248  0.1337
  693MOL0     C93424   5.976   7.244   3.138 -0.3550  0.0569  0.0096
  693MOL0     C93425   5.958   7.250   2.998  0.4584  0.5185  0.8815
  693MOL0     C93426   5.826   7.236   2.953 -0.2108  0.5656 -0.1575
  693MOL0     C93427   5.719   7.217   3.036  0.0186  0.4808 -0.0837
  693MOL0     O93428   5.604   7.187   2.974 -1.1221  0.0619  0.2551
  693MOL0     C93429   5.482   7.191   3.053 -0.8624  0.6038 -0.5311
  693MOL0     C93430   5.364   7.148   2.968  0.1455 -0.0146  1.5831
  693MOL0     C93431   5.373   7.199   2.818 -1.0766  0.7749  0.1752
  693MOL0     C93432   5.245   7.156   2.743 -0.1273 -0.4805 -0.0058
  693MOL0     C93433   5.116   7.238   2.770  0.4433 -0.5788  0.5450
  693MOL0     C93434   4.981   7.176   2.729 -0.2712  0.6785  0.7482
  693MOL0     C93435   4.869   7.261   2.796 -0.2890 -0.2772 -0.0702
  693MOL0     C93436   4.733   7.226   2.746  0.8851 -0.0610 -0.4985
  693MOL0     N93437   4.626   7.319   2.797 -0.0785 -1.3581  0.3261
  693MOL0     C93438   4.484   7.319   2.769 -1.3268  0.0647 -0.8347
  693MOL0     C93439   4.435   7.412   2.849  0.1228  0.3407 -0.3480
  693MOL0     C93440   4.289   7.449   2.854  0.4307 -0.6209  0.3745
  693MOL0     C93441   4.226   7.401   2.982 -0.4070 -0.1436 -0.0692
  693MOL0     C93442   4.102   7.474   3.019  0.4401 -0.8024  0.0204
  693MOL0     C93443   4.112   7.618   3.075  0.2380  0.2792 -0.8519
  693MOL0     O93444   3.995   7.653   3.137  0.0753  0.4265 -0.4930
  693MOL0     C93445   3.879   7.678   3.061  0.7169 -0.8165  0.4071
  693MOL0     C93446   3.770   7.687   3.144 -0.1304 -0.9033 -0.9587
  693MOL0     C93447   3.640   7.671   3.105  0.5963  0.3763  0.3201
  693MOL0     C93448   3.531   7.663   3.220 -0.4055  0.2909  0.1203
  693MOL0     C93449   3.615   7.667   2.970 -0.2929  0.1929  0.2462
  693MOL0     C93450   3.490   7.645   2.894 -0.1343 -0.8121  0.9417
  693MOL0     O93451   3.501   7.669   2.757  0.2016  0.3559 -0.5801
  693MOL0     C93452   3.395   7.628   2.676 -0.3487  0.8925  0.2746
  693MOL0     C93453   3.276   7.708   2.661  0.3805 -0.0147  0.4026
  693MOL0     C93454   3.175   7.664   2.571 -0.8575  0.6660 -0.6577
  693MOL0     C93455   3.189   7.548   2.497 -0.5208  0.0325 -0.4191
  693MOL0     O93456   3.096   7.508   2.404 -0.4624 -0.2870  0.1393
  693MOL0     C93457   2.966   7.558   2.405  0.2282  0.2759  0.1867
  693MOL0     C93458   2.879   7.458   2.327  0.1553 -0.1966  0.7286
  693MOL0     C93459   2.740   7.509   2.303  0.1289  0.2239 -0.6238
  693MOL0     C93460   2.660   7.412   2.217  0.6143 -0.2191  0.8185
  693MOL0     C93461   2.512   7.451   2.232  0.0422  0.0859 -0.0592
  693MOL0     C93462   2.422   7.382   2.125  0.2563 -0.8569 -0.5202
  693MOL0     C93463   2.427   7.232   2.130  0.0219 -1.3299 -0.9703
  693MOL0     C93464   2.351   7.182   2.000 -0.2158  0.1021 -0.2632
  693MOL0    Cl93465   2.481   7.182   1.877  0.0510 -0.3038 -0.2634
  693MOL0     C93466   3.304   7.467   2.512 -0.1035 -0.2401 -0.0058
  693MOL0     C93467   3.405   7.504   2.600  0.7520  0.5906 -0.3755
  693MOL0     O93468   3.394   7.601   2.949  0.5825 -0.0943  0.0248
  693MOL0     C93469   3.733   7.673   2.873 -0.1208  0.8214  0.3389
  693MOL0     C93470   3.864   7.667   2.921  0.8242 -0.3803 -0.6929
  693MOL0     N93471   4.530   7.472   2.932 -0.6423 -1.1845  0.6352
  693MOL0     N93472   4.645   7.408   2.895  0.2469 -0.1646  0.4767
  693MOL0     C93473   5.743   7.215   3.176 -0.0350 -0.4923 -0.3760
  693MOL0     C93474   5.869   7.240   3.226  0.0661 -0.0124 -0.5760
  693MOL0     C93475   6.330   7.227   3.212 -0.4375  0.5730  0.1232
  693MOL0     C93476   6.349   7.338   3.286 -0.4280 -0.6518 -0.0955
  693MOL0     C93477   6.480   7.393   3.305  0.4671 -0.1249  1.2003
  693MOL0     C93478   6.591   7.333   3.242 -0.3872 -0.0155 -0.1037
  693MOL0     O93479   6.706   7.406   3.238 -0.6692 -0.0010  0.1459
  693MOL0     C93480   6.828   7.333   3.277  0.2420 -0.2308 -0.3540
  693MOL0     C93481   6.921   7.323   3.162 -0.4820 -0.4748  1.3721
  693MOL0     C93482   7.066   7.308   3.198  0.5132 -0.4102  0.5162
  693MOL0     C93483   7.160   7.350   3.077  0.1822  0.1186 -0.3365
  693MOL0     C93484   7.304   7.321   3.112  0.8227 -0.4888  0.6010
  693MOL0     C93485   7.418   7.307   3.145  0.5477  0.6572 -0.5672
  693MOL0     C93486   6.569   7.212   3.168 -0.7383 -0.7568  0.5611
  693MOL0     C93487   6.442   7.158   3.157  0.3857 -0.0756 -0.3497
  693MOL0     H93488   6.040   7.259   2.927  0.5245 -2.5050  0.4084
  693MOL0     H93489   5.825   7.240   2.845 -0.6978 -0.1622 -0.1882
  693MOL0     H93490   5.488   7.128   3.142 -0.7118  0.4504 -0.6487
  693MOL0     H93491   5.457   7.293   3.085 -0.4289 -0.5169  4.1010
  693MOL0     H93492   5.357   7.039   2.963  3.2718 -0.3180 -3.9991
  693MOL0     H93493   5.265   7.185   2.998 -1.5960 -0.5759 -2.7726
  693MOL0     H93494   5.381   7.308   2.816  0.4568  0.6653 -0.9354
  693MOL0     H93495   5.457   7.151   2.769 -1.5614 -1.1682  1.1503
  693MOL0     H93496   5.274   7.157   2.638 -1.0974 -4.5315 -0.4994
  693MOL0     H93497   5.230   7.050   2.768  1.6090 -1.1838 -1.7036
  693MOL0     H93498   5.110   7.247   2.879  0.5526 -0.4208  0.5396
  693MOL0     H93499   5.127   7.341   2.735 -1.9635 -0.3779  0.2299
  693MOL0     H93500   4.960   7.160   2.623 -0.9336  0.4355  0.9143
  693MOL0     H93501   4.983   7.075   2.770 -3.5800 -0.7673 -2.2077
  693MOL0     H93502   4.873   7.243   2.904  0.2605 -1.2150 -0.2359
  693MOL0     H93503   4.881   7.366   2.767  0.3825 -1.0751 -3.0842
  693MOL0     H93504   4.716   7.123   2.780 -0.9172 -0.2861 -1.9373
  693MOL0     H93505   4.717   7.227   2.638 -1.2130 -2.0872 -0.2744
  693MOL0     H93506   4.427   7.246   2.713 -1.3263  0.0500 -0.8163
  693MOL0     H93507   4.281   7.557   2.845  1.4618 -0.7049 -3.3367
  693MOL0     H93508   4.234   7.404   2.771  1.0460 -0.0984 -0.3257
  693MOL0     H93509   4.306   7.412   3.055 -0.3648  0.8620 -0.2474
  693MOL0     H93510   4.192   7.297   2.979 -3.2106  0.6110  1.5224
  693MOL0     H93511   4.052   7.423   3.101 -1.5753 -1.3818 -1.4946
  693MOL0     H93512   4.031   7.475   2.935 -0.4884  1.0255  0.7598
  693MOL0     H93513   4.152   7.687   3.000  1.0054  1.2813  0.4567
  693MOL0     H93514   4.191   7.611   3.150  0.1361 -2.6192 -0.9049
  693MOL0     H93515   3.807   7.705   3.244  0.7373 -1.5923 -1.1459
  693MOL0     H93516   3.489   7.562   3.230  2.3809 -0.7541  3.4715
  693MOL0     H93517   3.578   7.684   3.316  1.4132  1.1602 -0.8958
  693MOL0     H93518   3.449   7.733   3.202  0.5147  1.3433 -0.0719
  693MOL0     H93519   3.275   7.803   2.713 -0.9013  0.2174 -0.0115
  693MOL0     H93520   3.090   7.730   2.556 -1.7860 -0.2386  0.4681
  693MOL0     H93521   2.919   7.552   2.504 -2.9216  3.3837 -0.8872
  693MOL0     H93522   2.966   7.660   2.366 -1.9732 -0.2543 -1.3871
  693MOL0     H93523   2.932   7.446   2.232 -0.1910 -0.4812  0.5694
  693MOL0     H93524   2.869   7.361   2.376 -0.2303 -0.0774  0.8916
  693MOL0     H93525   2.726   7.611   2.266 -0.6573  1.8645  3.6131
  693MOL0     H93526   2.691   7.508   2.401 -2.6629 -0.3072 -1.9250
  693MOL0     H93527   2.689   7.417   2.111 -0.9259 -1.3541  0.3055
  693MOL0     H93528   2.664   7.306   2.245 -3.0679 -0.5535  0.5769
  693MOL0     H93529   2.502   7.560   2.237 -2.6223 -0.0132 -1.6084
  693MOL0     H93530   2.476   7.404   2.324  0.8029 -0.4635 -0.0284
  693MOL0     H93531   2.320   7.420   2.133  0.7765  0.6095 -0.5909
  693MOL0     H93532   2.459   7.412   2.026  1.4099 -3.1540 -0.8603
  693MOL0     H93533   2.366   7.208   2.218  1.4949  0.5574  0.6399
  693MOL0     H93534   2.531   7.200   2.134  1.7154  3.5294 -0.2407
  693MOL0     H93535   2.260   7.236   1.975 -0.9608 -1.6123 -1.4752
  693MOL0     H93536   2.320   7.077   1.992  2.7382 -1.0876  1.8659
  693MOL0     H93537   3.307   7.376   2.452 -0.6142 -0.8094  0.8129
  693MOL0     H93538   3.489   7.437   2.615 -0.5284 -0.9195  0.3595
  693MOL0     H93539   3.728   7.680   2.765  0.8521  0.6564  0.2735
  693MOL0     H93540   3.943   7.662   2.847  2.0175  1.3932  0.3653
  693MOL0     H93541   5.651   7.206   3.233 -1.0271  1.8838 -1.4130
  693MOL0     H93542   5.885   7.233   3.333 -0.5807 -3.1514 -0.5919
  693MOL0     H93543   6.262   7.392   3.323 -0.4449 -0.4429 -0.4396
  693MOL0     H93544   6.479   7.485   3.362 -0.9155  0.8454 -0.3089
  693MOL0     H93545   6.881   7.391   3.353  0.4541  0.0384 -0.7006
  693MOL0     H93546   6.810   7.238   3.328 -0.6957  0.5482  0.7961
  693MOL0     H93547   6.908   7.412   3.101  0.0148  0.0937  2.0813
  693MOL0     H93548   6.897   7.229   3.111  0.8250 -1.2383  2.0979
  693MOL0     H93549   7.081   7.203   3.224 -2.9014 -1.6567 -1.8564
  693MOL0     H93550   7.086   7.372   3.284 -1.4920 -0.4409  1.0567
  693MOL0     H93551   7.144   7.457   3.063  0.8888  0.5766  1.9775
  693MOL0     H93552   7.135   7.292   2.987 -2.2201  1.6649 -0.7790
  693MOL0     H93553   7.513   7.315   3.194  0.0728  3.4967  0.0729
  693MOL0     H93554   6.653   7.158   3.125 -0.2477 -1.1983  1.9936
  693MOL0     H93555   6.431   7.068   3.097  0.0216 -0.6608  0.5565
  694MOL0     O93556   9.620  10.332   3.689  0.1195  0.5018  0.0936
  694MOL0     C93557   9.611  10.446   3.645 -0.3328  0.4746  0.4601
  694MOL0     O93558   9.587  10.469   3.504  0.4289 -0.3837  0.1427
  694MOL0     C93559   9.526  10.375   3.423  0.1942  0.1126  0.0304
  694MOL0     C93560   9.552  10.383   3.288 -0.3857 -0.5971 -1.0802
  694MOL0     C93561   9.483  10.302   3.188  0.0098 -0.3482 -0.3044
  694MOL0     C93562   9.377  10.226   3.236 -0.1795  0.0716  0.0750
  694MOL0     O93563   9.299  10.172   3.142  0.6435  0.3604 -0.1831
  694MOL0     C93564   9.207  10.061   3.179 -0.1867 -0.7716 -0.5232
  694MOL0     C93565   9.154   9.984   3.064  0.0615  0.1956  0.8057
  694MOL0     C93566   9.052   9.872   3.087  0.6311 -0.1540  0.6099
  694MOL0     C93567   8.916   9.937   3.097  0.5618 -0.1425  0.4993
  694MOL0     C93568   8.799   9.849   3.160 -0.0530  0.8432  0.7361
  694MOL0     C93569   8.747   9.732   3.074  0.8464  0.8517 -0.3132
  694MOL0     C93570   8.645   9.658   3.158 -0.9305  0.3062 -0.1004
  694MOL0     C93571   8.597   9.528   3.081 -1.0190  0.2876 -0.0337
  694MOL0     N93572   8.482   9.557   2.998 -0.2192  0.7854  0.1876
  694MOL0     C93573   8.492   9.585   2.862  0.1274 -0.8538  0.6588
  694MOL0     C93574   8.376   9.633   2.823  0.3853  0.4298 -0.6370
  694MOL0     C93575   8.331   9.684   2.694 -0.0528 -0.1904 -0.3771
  694MOL0     C93576   8.337   9.567   2.586 -0.2966 -0.0968  0.0306
  694MOL0     C93577   8.214   9.469   2.586 -0.5417 -0.0166 -0.1987
  694MOL0     C93578   8.219   9.365   2.472  0.7631  0.3443 -0.4569
  694MOL0     O93579   8.112   9.266   2.470  0.3292 -0.2375 -0.1376
  694MOL0     C93580   7.988   9.297   2.418 -0.0871 -0.0142  0.7550
  694MOL0     C93581   7.894   9.190   2.406 -0.1620 -0.0877  1.8043
  694MOL0     C93582   7.763   9.203   2.356 -0.3129 -0.3759  0.1325
  694MOL0     C93583   7.676   9.082   2.365  0.0356  0.5050 -0.0424
  694MOL0     C93584   7.728   9.342   2.327 -0.8194  0.1692 -1.4758
  694MOL0     C93585   7.585   9.371   2.304 -0.5703 -0.5761  0.0235
  694MOL0     O93586   7.538   9.501   2.317 -0.4292  0.2361  0.2243
  694MOL0     C93587   7.405   9.518   2.308 -0.4722 -0.9576  0.3211
  694MOL0     C93588   7.353   9.540   2.182 -0.7585 -0.5813  0.1893
  694MOL0     C93589   7.225   9.578   2.167 -0.0647 -0.5569  0.4363
  694MOL0     C93590   7.137   9.590   2.281  0.3702  0.2082  0.2341
  694MOL0     O93591   7.004   9.619   2.271 -0.5865  0.3760 -0.8017
  694MOL0     C93592   6.937   9.628   2.146  0.3332 -0.8357  0.7595
  694MOL0     C93593   6.787   9.650   2.170 -0.2835 -0.4709  0.0621
  694MOL0     C93594   6.699   9.607   2.048  0.2203 -0.8764  0.0190
  694MOL0     C93595   6.551   9.649   2.075  0.1268 -0.1044  0.6296
  694MOL0     C93596   6.475   9.612   1.945 -0.4076  0.4654  0.6899
  694MOL0     C93597   6.326   9.641   1.957 -0.3391  0.4925  0.2683
  694MOL0     C93598   6.247   9.585   1.849 -0.1252  0.8041 -0.0861
  694MOL0     C93599   6.083   9.584   1.862 -0.8139 -0.2067 -0.2876
  694MOL0    Cl93600   6.020   9.593   1.699  0.3808 -0.0075  0.0197
  694MOL0     C93601   7.181   9.561   2.409  0.7909  0.2273 -0.2328
  694MOL0     C93602   7.324   9.531   2.422 -0.8303 -1.2566  0.5307
  694MOL0     O93603   7.516   9.286   2.258 -0.2165  0.1311 -0.5414
  694MOL0     C93604   7.820   9.444   2.340 -0.5053 -0.0806 -0.6208
  694MOL0     C93605   7.954   9.422   2.366 -0.1435  0.7912 -0.5804
  694MOL0     N93606   8.285   9.628   2.932  0.4233  0.4328 -0.6432
  694MOL0     N93607   8.353   9.586   3.039  0.1093  0.4228  0.4809
  694MOL0     C93608   9.355  10.211   3.376 -0.4352  0.1906  1.4309
  694MOL0     C93609   9.421  10.290   3.467 -0.2948 -0.7582  0.1488
  694MOL0     C93610   9.658  10.563   3.719 -0.2182  0.2948  0.2309
  694MOL0     C93611   9.625  10.694   3.671 -0.6783  0.1024 -0.0043
  694MOL0     C93612   9.674  10.814   3.727  0.0913  0.3460 -1.6670
  694MOL0     C93613   9.768  10.793   3.827  0.1261 -0.3901  0.3045
  694MOL0     O93614   9.828  10.907   3.865  0.2433  0.5152 -0.3956
  694MOL0     C93615   9.938  10.894   3.951  0.2614  0.6407  0.1529
  694MOL0     C93616  10.008  11.026   3.965 -0.1287  0.0157  0.2827
  694MOL0     C93617   9.908  11.128   4.021  0.0026  0.5172  1.0111
  694MOL0     C93618   9.960  11.270   4.031 -0.4506  1.6155 -0.1102
  694MOL0     C93619   9.851  11.368   4.047  0.8105  0.2020 -0.0453
  694MOL0     C93620   9.758  11.443   4.052 -0.5063  0.1234  0.3192
  694MOL0     C93621   9.806  10.663   3.871  0.9206  0.7052 -0.4422
  694MOL0     C93622   9.750  10.545   3.830 -0.5061 -0.2579  0.2750
  694MOL0     H93623   9.631  10.443   3.242  0.9541 -0.5419  1.1709
  694MOL0     H93624   9.506  10.327   3.085 -1.6363  2.0712 -0.1572
  694MOL0     H93625   9.256   9.997   3.253  0.1258 -0.1564 -0.1864
  694MOL0     H93626   9.119  10.108   3.222 -1.4544 -2.6893 -0.8737
  694MOL0     H93627   9.106  10.059   3.001 -0.7070  0.1201  1.2864
  694MOL0     H93628   9.235   9.936   3.009 -1.3985 -0.0071 -1.2712
  694MOL0     H93629   9.042   9.791   3.014 -0.8350  1.3783 -0.9755
  694MOL0     H93630   9.072   9.820   3.181  0.1720 -1.5457 -0.0174
  694MOL0     H93631   8.920  10.023   3.164  4.3531 -0.3722  0.7757
  694MOL0     H93632   8.880   9.980   3.003  1.0226  0.7949  0.7381
  694MOL0     H93633   8.835   9.793   3.247 -1.0130  0.4619  0.8962
  694MOL0     H93634   8.715   9.911   3.193 -0.5151  0.2496  0.6883
  694MOL0     H93635   8.695   9.776   2.988 -0.3462  2.5933  1.2200
  694MOL0     H93636   8.826   9.670   3.032 -0.2688 -1.1188  0.3776
  694MOL0     H93637   8.691   9.620   3.250 -3.2502 -0.4574  0.8275
  694MOL0     H93638   8.565   9.728   3.184 -0.2569  0.7168  0.9313
  694MOL0     H93639   8.570   9.455   3.157 -2.9956  2.4407  1.5064
  694MOL0     H93640   8.679   9.481   3.026 -0.6716 -0.0900  0.7921
  694MOL0     H93641   8.582   9.608   2.806 -0.8200  1.9158  0.1056
  694MOL0     H93642   8.243   9.749   2.697  3.3743  5.0538 -1.3257
  694MOL0     H93643   8.411   9.754   2.668  1.4765 -2.0077 -0.7894
  694MOL0     H93644   8.425   9.504   2.598  1.1955  1.4886 -1.7736
  694MOL0     H93645   8.336   9.612   2.486 -0.8997 -1.3752 -0.5617
  694MOL0     H93646   8.121   9.526   2.588  1.0056  2.6375  0.2382
  694MOL0     H93647   8.222   9.403   2.674 -3.1721 -1.1935 -0.7488
  694MOL0     H93648   8.320   9.323   2.483 -0.7494 -3.8539 -0.9879
  694MOL0     H93649   8.225   9.406   2.371 -0.8723 -2.0758 -1.6267
  694MOL0     H93650   7.919   9.092   2.445  0.9895 -0.8411 -0.6073
  694MOL0     H93651   7.735   8.994   2.392  0.4479  0.5645 -0.7476
  694MOL0     H93652   7.601   9.101   2.443 -1.9145 -2.0242 -1.1450
  694MOL0     H93653   7.637   9.058   2.266  0.7873 -2.4427  0.2864
  694MOL0     H93654   7.416   9.539   2.094  1.5446 -2.7485  1.7321
  694MOL0     H93655   7.198   9.606   2.065  2.3118  0.0052 -0.0797
  694MOL0     H93656   6.985   9.703   2.082 -1.1519  1.1081  1.8026
  694MOL0     H93657   6.942   9.538   2.084 -2.0909  1.7948 -3.8497
  694MOL0     H93658   6.761   9.586   2.254 -0.7521 -0.4124 -0.0374
  694MOL0     H93659   6.774   9.756   2.191  3.4205 -0.3352  2.5711
  694MOL0     H93660   6.695   9.498   2.056 -1.9488 -0.8915 -0.5493
  694MOL0     H93661   6.735   9.641   1.950  0.8211 -1.2455  0.1106
  694MOL0     H93662   6.506   9.598   2.161 -2.4676  0.0473 -0.5193
  694MOL0     H93663   6.546   9.758   2.076 -1.2921 -0.0953 -1.3282
  694MOL0     H93664   6.495   9.505   1.934  0.4482  0.7315 -0.6016
  694MOL0     H93665   6.512   9.662   1.855  0.6581  1.2220  1.5171
  694MOL0     H93666   6.294   9.590   2.048 -0.1749  0.9647  0.5931
  694MOL0     H93667   6.309   9.748   1.968 -0.4074  0.5713 -0.5109
  694MOL0     H93668   6.263   9.476   1.850 -1.1605  0.6184 -1.3627
  694MOL0     H93669   6.275   9.621   1.750 -3.8686  0.2039 -1.5319
  694MOL0     H93670   6.047   9.663   1.928 -1.0508  2.6505 -3.5295
  694MOL0     H93671   6.057   9.491   1.911  0.3929 -1.1390 -1.3295
  694MOL0     H93672   7.116   9.561   2.496 -0.7014 -1.8264 -1.2734
  694MOL0     H93673   7.361   9.503   2.521  0.5525  2.1551  1.1308
  694MOL0     H93674   7.795   9.550   2.339  3.4284  1.0068 -0.5520
  694MOL0     H93675   8.024   9.506   2.363 -0.9674  1.4764 -1.3332
  694MOL0     H93676   9.277  10.145   3.414 -0.7203  0.1453  0.7742
  694MOL0     H93677   9.391  10.296   3.571  0.4917 -2.4309  0.5129
  694MOL0     H93678   9.566  10.711   3.581  1.8141  1.1172 -1.5363
  694MOL0     H93679   9.656  10.914   3.688 -0.1595  1.1510  0.3950
  694MOL0     H93680   9.903  10.865   4.051 -0.7417 -1.2167 -0.6847
  694MOL0     H93681  10.007  10.816   3.917 -0.7178 -0.1714 -0.0249
  694MOL0     H93682  10.040  11.063   3.867  1.3042  1.7047  1.3233
  694MOL0     H93683  10.102  11.006   4.016  0.3788 -2.7588 -1.5571
  694MOL0     H93684   9.873  11.095   4.119  1.5352  1.4683  1.9237
  694MOL0     H93685   9.813  11.128   3.967  1.1846 -2.1570 -1.3180
  694MOL0     H93686  10.007  11.295   3.935 -0.0753  0.3816 -0.2657
  694MOL0     H93687  10.039  11.270   4.107 -0.6302 -1.7986  0.2515
  694MOL0     H93688   9.671  11.503   4.067 -1.9388 -1.5481 -0.7858
  694MOL0     H93689   9.886  10.660   3.944  0.9886  0.1137 -0.5336
  694MOL0     H93690   9.786  10.448   3.862  0.8488  0.1455  0.0339
  695MOL0     O93691   5.953   4.248   1.990  0.2823  0.1131 -0.9721
  695MOL0     C93692   6.015   4.185   1.908  0.5096  0.0490 -0.2784
  695MOL0     O93693   6.016   4.211   1.777 -0.2079 -0.2839  0.3516
  695MOL0     C93694   5.931   4.301   1.720 -0.3276 -1.0035  0.4524
  695MOL0     C93695   5.973   4.359   1.599 -0.9498  0.2720 -0.3673
  695MOL0     C93696   5.899   4.466   1.539  0.2597  0.7158  1.2056
  695MOL0     C93697   5.787   4.525   1.603  0.2503  0.1160 -0.2902
  695MOL0     O93698   5.728   4.627   1.535  0.0290  0.1447  0.5688
  695MOL0     C93699   5.608   4.688   1.590  0.2714  0.5855  0.7374
  695MOL0     C93700   5.519   4.733   1.473 -0.5554 -0.0489  0.6233
  695MOL0     C93701   5.420   4.845   1.525 -0.4783  0.3291 -0.6515
  695MOL0     C93702   5.343   4.893   1.414 -0.9711 -0.2364  0.4171
  695MOL0     C93703   5.232   4.995   1.456 -0.4236 -0.3870  0.0945
  695MOL0     C93704   5.140   5.018   1.333 -0.3645  0.7363 -0.5916
  695MOL0     C93705   5.027   5.108   1.374  0.3337 -0.1129 -0.3824
  695MOL0     C93706   4.908   5.075   1.284 -0.1930 -0.1809  0.7969
  695MOL0     N93707   4.795   5.159   1.318 -0.6324 -0.2635 -0.9155
  695MOL0     C93708   4.799   5.294   1.314 -1.1172 -0.5993 -0.7540
  695MOL0     C93709   4.664   5.334   1.338 -0.0368  0.3558 -0.4880
  695MOL0     C93710   4.618   5.473   1.361  0.1569 -0.1065 -0.1162
  695MOL0     C93711   4.469   5.479   1.416  0.6604 -0.3351 -0.5466
  695MOL0     C93712   4.365   5.442   1.301 -0.2740 -0.1728 -0.6593
  695MOL0     C93713   4.224   5.418   1.361  0.5503  0.1664  0.9402
  695MOL0     O93714   4.184   5.519   1.451 -0.3325  0.3688  0.2901
  695MOL0     C93715   4.057   5.565   1.455  0.1179 -0.9477 -0.8338
  695MOL0     C93716   3.953   5.500   1.509 -0.4089 -0.2965  0.1267
  695MOL0     C93717   3.825   5.558   1.518  1.4087 -1.0178  0.5709
  695MOL0     C93718   3.725   5.488   1.610  0.1764 -0.2340  0.8725
  695MOL0     C93719   3.793   5.680   1.446 -0.4889 -0.9800 -0.2725
  695MOL0     C93720   3.654   5.735   1.435  0.3096  0.2585  0.0178
  695MOL0     O93721   3.643   5.855   1.382 -0.1592  0.1018  0.7890
  695MOL0     C93722   3.517   5.914   1.338 -0.7638  0.4510 -0.2371
  695MOL0     C93723   3.486   6.050   1.372  0.0913  0.2179 -0.5321
  695MOL0     C93724   3.366   6.111   1.340  0.2933  0.7468  0.9758
  695MOL0     C93725   3.257   6.035   1.289 -0.3952 -0.0409  0.1438
  695MOL0     O93726   3.141   6.101   1.278  0.2012  0.9256 -0.0350
  695MOL0     C93727   3.042   6.034   1.359  0.4652 -0.3254  0.7472
  695MOL0     C93728   2.902   6.061   1.287 -0.9723  0.2703 -0.2329
  695MOL0     C93729   2.795   6.010   1.388  0.1576 -0.2064  0.1610
  695MOL0     C93730   2.662   6.006   1.324  0.2690 -0.1935  0.4812
  695MOL0     C93731   2.548   5.937   1.390 -0.8135 -0.2795  0.0209
  695MOL0     C93732   2.424   5.944   1.307 -0.4279  0.1827  0.8114
  695MOL0     C93733   2.302   5.993   1.382 -0.1045  0.5092  0.3496
  695MOL0     C93734   2.260   6.132   1.333  0.2694 -0.7459  0.3190
  695MOL0    Cl93735   2.369   6.246   1.422 -0.5471  0.1857 -0.8328
  695MOL0     C93736   3.282   5.905   1.263  0.7409  0.4120  0.7622
  695MOL0     C93737   3.403   5.845   1.285  0.3094  1.1600  0.5269
  695MOL0     O93738   3.555   5.675   1.483  0.6590 -0.0747 -0.1860
  695MOL0     C93739   3.900   5.742   1.375 -0.3783 -0.4854  0.6753
  695MOL0     C93740   4.025   5.680   1.379  0.2704 -0.3622 -0.2641
  695MOL0     N93741   4.588   5.214   1.348 -0.4071  0.0602  0.5092
  695MOL0     N93742   4.670   5.110   1.331  0.2238 -0.0134 -0.2571
  695MOL0     C93743   5.749   4.473   1.734 -0.1160  0.0500  0.6558
  695MOL0     C93744   5.820   4.365   1.781  0.0035  0.2846 -0.1856
  695MOL0     C93745   6.090   4.065   1.947 -0.3434 -0.2629 -0.0437
  695MOL0     C93746   6.164   3.992   1.853  0.2457  0.0792 -0.8980
  695MOL0     C93747   6.241   3.879   1.895 -0.1482  0.7071  0.7927
  695MOL0     C93748   6.247   3.834   2.024 -0.6520 -0.2728  0.8317
  695MOL0     O93749   6.333   3.731   2.045  0.6089 -0.2154  0.2792
  695MOL0     C93750   6.312   3.596   1.982  0.1731 -0.7005 -1.0066
  695MOL0     C93751   6.238   3.512   2.079 -0.1623  0.0129  0.1033
  695MOL0     C93752   6.309   3.484   2.211 -0.4560  0.6236 -0.3914
  695MOL0     C93753   6.440   3.408   2.181 -0.8155 -0.0342  0.1067
  695MOL0     C93754   6.512   3.386   2.306  0.0257 -0.4924 -0.3596
  695MOL0     C93755   6.541   3.364   2.417 -0.8174  0.0387  0.1546
  695MOL0     C93756   6.182   3.909   2.121 -0.0535  0.0560 -0.0845
  695MOL0     C93757   6.106   4.025   2.085 -0.1166 -0.9216  0.3977
  695MOL0     H93758   6.058   4.315   1.549 -1.4117 -0.8864 -0.1757
  695MOL0     H93759   5.930   4.505   1.443 -0.3301  0.2443  0.8172
  695MOL0     H93760   5.546   4.634   1.662 -1.3921  1.1295 -0.2358
  695MOL0     H93761   5.653   4.776   1.636  1.1262 -0.1920  1.4223
  695MOL0     H93762   5.579   4.775   1.392 -2.6135 -0.7073 -1.3283
  695MOL0     H93763   5.467   4.652   1.423  1.2216  0.0795 -1.5696
  695MOL0     H93764   5.351   4.786   1.586 -0.6680 -0.2964 -1.4580
  695MOL0     H93765   5.465   4.922   1.589 -1.5766 -0.2074  0.8185
  695MOL0     H93766   5.402   4.950   1.342  0.2364 -0.3578  1.2938
  695MOL0     H93767   5.294   4.811   1.360  1.7590  0.2691 -3.1588
  695MOL0     H93768   5.168   4.947   1.532 -0.6397 -0.1156  0.0872
  695MOL0     H93769   5.267   5.091   1.494 -2.5568  0.4208  0.1769
  695MOL0     H93770   5.200   5.066   1.255  0.7823  0.9238  0.3758
  695MOL0     H93771   5.095   4.923   1.304  2.6967 -1.0990  0.1706
  695MOL0     H93772   4.993   5.104   1.478 -2.5645  0.6558 -1.1976
  695MOL0     H93773   5.054   5.212   1.353 -3.3917  1.2484  0.7652
  695MOL0     H93774   4.874   4.971   1.287 -1.2585  0.1210 -0.0230
  695MOL0     H93775   4.949   5.084   1.183  0.9979 -1.0760  1.1639
  695MOL0     H93776   4.881   5.363   1.300 -1.8583  0.2201 -1.1053
  695MOL0     H93777   4.683   5.543   1.415 -1.4942  0.3209  1.4175
  695MOL0     H93778   4.604   5.526   1.266 -3.7619  2.5232  1.6686
  695MOL0     H93779   4.444   5.578   1.455 -0.0024  0.4208 -2.7182
  695MOL0     H93780   4.465   5.409   1.499  1.1517  0.8351  0.4972
  695MOL0     H93781   4.392   5.344   1.260  0.7834 -0.9532  1.7431
  695MOL0     H93782   4.355   5.521   1.225 -0.8025 -0.4482 -0.8830
  695MOL0     H93783   4.219   5.326   1.421  0.7486  0.8657  2.0699
  695MOL0     H93784   4.164   5.407   1.271 -1.2126  1.1890  1.9384
  695MOL0     H93785   3.983   5.408   1.557 -0.5474  0.4844  1.7771
  695MOL0     H93786   3.760   5.390   1.642  3.3129 -1.1126 -4.1060
  695MOL0     H93787   3.696   5.555   1.692 -0.2462  2.1143 -1.0896
  695MOL0     H93788   3.628   5.466   1.563 -0.2280 -0.5777  1.8339
  695MOL0     H93789   3.570   6.096   1.422 -0.5885  0.8019  0.0784
  695MOL0     H93790   3.371   6.218   1.353  3.3638  1.0721 -1.6302
  695MOL0     H93791   3.052   5.925   1.365 -1.4873 -0.4781  2.2151
  695MOL0     H93792   3.052   6.063   1.464  0.7197 -2.6322  1.4289
  695MOL0     H93793   2.893   6.169   1.274  0.2487  0.5974  1.2979
  695MOL0     H93794   2.891   6.008   1.192  0.0054 -0.5359  0.0844
  695MOL0     H93795   2.795   6.076   1.475 -2.0371  1.7676 -1.2025
  695MOL0     H93796   2.816   5.905   1.410  1.6040 -0.1895 -0.9944
  695MOL0     H93797   2.641   6.113   1.325  0.6156 -0.1233  1.1090
  695MOL0     H93798   2.673   5.975   1.220 -0.8812 -1.9773  0.8474
  695MOL0     H93799   2.532   6.004   1.475 -1.6127  0.9778 -1.0731
  695MOL0     H93800   2.597   5.844   1.420  2.4161  2.0585  2.9346
  695MOL0     H93801   2.440   6.014   1.226 -0.2413 -1.8675 -1.0233
  695MOL0     H93802   2.410   5.849   1.255 -1.2846 -0.3210  1.8935
  695MOL0     H93803   2.319   5.993   1.490  2.0801 -3.4942  0.1876
  695MOL0     H93804   2.218   5.925   1.368 -0.3766 -0.3299  4.7571
  695MOL0     H93805   2.156   6.149   1.361  0.2112  0.8732 -0.7850
  695MOL0     H93806   2.264   6.144   1.224 -2.3211  0.4850  0.2872
  695MOL0     H93807   3.196   5.845   1.238 -0.5231  2.8093 -0.9798
  695MOL0     H93808   3.399   5.737   1.275  1.1521  1.0880  0.9012
  695MOL0     H93809   3.890   5.829   1.311 -0.6659  0.4026  1.8950
  695MOL0     H93810   4.109   5.713   1.318 -0.1320  0.3461 -0.4421
  695MOL0     H93811   5.677   4.528   1.794 -0.9938 -0.7493  0.3745
  695MOL0     H93812   5.772   4.316   1.865 -1.0232 -0.6918 -1.2988
  695MOL0     H93813   6.149   4.030   1.752 -0.9361 -2.0524 -1.5702
  695MOL0     H93814   6.291   3.826   1.815 -0.0159  3.1269 -0.8304
  695MOL0     H93815   6.248   3.599   1.894 -1.3626 -1.2499  0.0439
  695MOL0     H93816   6.408   3.556   1.950  1.4434 -0.2320  1.8948
  695MOL0     H93817   6.215   3.417   2.030  1.0092 -1.2400  1.8457
  695MOL0     H93818   6.141   3.559   2.097 -0.6951 -0.5485 -1.2023
  695MOL0     H93819   6.250   3.432   2.286  4.1215 -1.4481  2.1818
  695MOL0     H93820   6.334   3.578   2.260  0.5825  0.3926 -0.4481
  695MOL0     H93821   6.492   3.475   2.111 -2.8446  0.4566 -1.0414
  695MOL0     H93822   6.431   3.317   2.122  1.2977  0.6775 -1.4423
  695MOL0     H93823   6.571   3.355   2.520 -1.5425 -0.3642  0.3416
  695MOL0     H93824   6.208   3.881   2.222 -0.2930 -2.8377 -0.7431
  695MOL0     H93825   6.056   4.086   2.159 -1.3972  0.8138 -1.7795
  696MOL0     O93826   7.695   1.095   7.436 -0.5682 -0.7168 -0.0793
  696MOL0     C93827   7.691   1.216   7.438 -0.7872  0.7091  0.4771
  696MOL0     O93828   7.788   1.308   7.420  0.3556  0.0921  0.2283
  696MOL0     C93829   7.915   1.255   7.435 -1.0231 -1.1787 -0.2249
  696MOL0     C93830   7.959   1.246   7.568  0.4154 -0.2974 -0.4644
  696MOL0     C93831   8.094   1.217   7.593  0.6162 -0.4127 -0.2019
  696MOL0     C93832   8.182   1.183   7.494 -0.5509  0.0482 -0.1815
  696MOL0     O93833   8.317   1.138   7.518 -0.2820 -0.2436 -0.2280
  696MOL0     C93834   8.358   1.124   7.658 -0.2247  0.1401 -0.9135
  696MOL0     C93835   8.480   1.028   7.656 -0.2547 -0.8784 -0.2829
  696MOL0     C93836   8.609   1.084   7.607  0.1139  0.1487  1.0494
  696MOL0     C93837   8.715   0.958   7.613  0.1046  0.7286 -0.3936
  696MOL0     C93838   8.847   0.989   7.531  0.2532  1.0476  0.4187
  696MOL0     C93839   8.960   0.889   7.576  0.5609 -0.5629 -0.4043
  696MOL0     C93840   9.101   0.921   7.532  0.0957 -0.2069 -0.2401
  696MOL0     C93841   9.115   0.883   7.385  0.0967  0.4434  0.3047
  696MOL0     N93842   9.254   0.895   7.332 -0.3032  0.2436 -0.2449
  696MOL0     C93843   9.322   1.017   7.308  0.1039 -0.3253 -0.4255
  696MOL0     C93844   9.447   0.984   7.272 -0.6016  0.2282  0.7872
  696MOL0     C93845   9.560   1.072   7.239  0.8884 -0.1631  0.6702
  696MOL0     C93846   9.645   1.120   7.357  0.6300 -0.6254  0.3267
  696MOL0     C93847   9.713   0.992   7.424 -0.3237  0.3446 -0.6272
  696MOL0     C93848   9.805   0.902   7.342 -0.8061 -0.1468 -0.4093
  696MOL0     O93849   9.879   0.990   7.255 -0.9190 -0.3821  0.1526
  696MOL0     C93850  10.014   0.973   7.240 -0.7907 -0.2202  0.2730
  696MOL0     C93851  10.066   0.862   7.173  0.0582 -0.1853  0.6174
  696MOL0     C93852  10.202   0.837   7.162 -0.8321 -0.5089  0.1265
  696MOL0     C93853  10.251   0.701   7.118  0.5655 -0.4481 -0.1192
  696MOL0     C93854  10.292   0.948   7.198 -0.5646  0.3819  0.3561
  696MOL0     C93855  10.439   0.939   7.181  0.3961 -0.0022  0.7099
  696MOL0     O93856  10.515   1.017   7.267  0.2132  0.2549  0.0668
  696MOL0     C93857  10.647   1.036   7.253 -0.9829 -0.1941 -0.6148
  696MOL0     C93858  10.704   1.058   7.134 -0.1363  0.3927  0.6769
  696MOL0     C93859  10.846   1.055   7.116  0.5375  0.2283  0.4956
  696MOL0     C93860  10.934   1.054   7.220  0.8092 -0.2146 -0.1459
  696MOL0     O93861  11.067   1.050   7.193  0.4205 -0.7174  0.0758
  696MOL0     C93862  11.153   1.068   7.300 -0.6609  0.2970 -0.1251
  696MOL0     C93863  11.298   1.045   7.258 -0.2715 -0.4104 -0.3740
  696MOL0     C93864  11.396   1.044   7.374  0.0444 -1.0548 -0.2068
  696MOL0     C93865  11.409   1.192   7.435 -0.9227  0.8846  0.5438
  696MOL0     C93866  11.514   1.199   7.550  0.3186  0.1204  0.0330
  696MOL0     C93867  11.494   1.096   7.659 -0.1047  0.4201  0.4504
  696MOL0     C93868  11.594   1.117   7.775  0.5931 -0.1364 -0.3737
  696MOL0     C93869  11.729   1.059   7.731  0.1820 -0.7131 -0.3985
  696MOL0    Cl93870  11.720   0.883   7.676 -0.4398  0.1340  0.1500
  696MOL0     C93871  10.877   1.040   7.349  0.4896 -0.1624  0.1153
  696MOL0     C93872  10.735   1.031   7.363  0.5402  0.8923  0.4180
  696MOL0     O93873  10.486   0.865   7.097 -0.2313  1.0479 -0.1247
  696MOL0     C93874  10.235   1.055   7.272 -0.6490  0.3103 -0.2602
  696MOL0     C93875  10.099   1.068   7.297  0.3084 -0.7442 -0.2020
  696MOL0     N93876   9.456   0.845   7.264 -0.3886  0.5964 -0.1920
  696MOL0     N93877   9.348   0.799   7.308 -0.5327  0.2961 -0.1601
  696MOL0     C93878   8.134   1.183   7.360 -1.4633 -0.5971  0.3339
  696MOL0     C93879   8.002   1.219   7.327  1.1407  0.4195 -0.5454
  696MOL0     C93880   7.563   1.287   7.454  0.1298 -0.3546  0.6336
  696MOL0     C93881   7.551   1.424   7.496 -0.5964  0.4237 -0.8429
  696MOL0     C93882   7.421   1.484   7.492 -0.2679  0.2319 -0.1533
  696MOL0     C93883   7.314   1.406   7.454  0.2228  0.1742 -0.0091
  696MOL0     O93884   7.195   1.470   7.454 -0.1656  0.1494 -0.6122
  696MOL0     C93885   7.074   1.406   7.410  0.7152 -0.4805 -0.1548
  696MOL0     C93886   6.957   1.500   7.458 -0.0749 -0.3167  0.3604
  696MOL0     C93887   6.989   1.651   7.425  0.0145  0.6550  0.8263
  696MOL0     C93888   6.996   1.684   7.277 -0.4705  0.3163 -0.1266
  696MOL0     C93889   6.914   1.604   7.193 -0.6534  1.4198 -0.7266
  696MOL0     C93890   6.859   1.518   7.124  0.6698  0.1153 -0.5192
  696MOL0     C93891   7.325   1.279   7.402  0.1842  0.4043 -0.0381
  696MOL0     C93892   7.449   1.212   7.410  0.1903 -1.4173  0.4527
  696MOL0     H93893   7.893   1.281   7.647 -0.5558  2.0467 -2.2174
  696MOL0     H93894   8.124   1.230   7.697 -2.2290 -0.2973  0.6873
  696MOL0     H93895   8.382   1.223   7.697 -2.9100 -0.3134  2.2541
  696MOL0     H93896   8.277   1.082   7.717  0.5084  2.9968  2.4690
  696MOL0     H93897   8.506   0.990   7.756 -0.9084 -2.0162 -0.5211
  696MOL0     H93898   8.447   0.933   7.611  0.0541 -1.0444 -0.1662
  696MOL0     H93899   8.595   1.110   7.501  0.2456 -0.3793  0.8984
  696MOL0     H93900   8.648   1.169   7.662  3.1051 -1.0798  0.9861
  696MOL0     H93901   8.733   0.946   7.720 -3.5098  2.6291  0.5982
  696MOL0     H93902   8.668   0.864   7.581 -0.0171  0.2539  1.1212
  696MOL0     H93903   8.827   0.980   7.423  0.9981 -0.4335  0.3807
  696MOL0     H93904   8.881   1.091   7.552  3.0119  0.3377 -0.1773
  696MOL0     H93905   8.957   0.913   7.682  0.2307  2.3729 -0.9880
  696MOL0     H93906   8.933   0.784   7.566 -1.0886 -0.4934  2.3323
  696MOL0     H93907   9.120   1.028   7.546 -0.2756  0.2299 -2.7203
  696MOL0     H93908   9.179   0.863   7.583  0.4610 -1.5914 -2.2649
  696MOL0     H93909   9.060   0.964   7.337 -0.6192  0.6183  1.3830
  696MOL0     H93910   9.069   0.787   7.360 -2.1320 -0.0038  4.9952
  696MOL0     H93911   9.291   1.121   7.320  3.3089  0.6925  0.3013
  696MOL0     H93912   9.619   1.010   7.172  0.2158 -2.3753  2.0061
  696MOL0     H93913   9.524   1.158   7.181 -0.4649 -1.3174 -0.2582
  696MOL0     H93914   9.590   1.175   7.433  0.4891  1.0653 -0.9332
  696MOL0     H93915   9.724   1.183   7.315 -1.5664  1.6119 -0.6602
  696MOL0     H93916   9.634   0.929   7.467  1.5126  0.1777  2.7980
  696MOL0     H93917   9.777   1.026   7.506 -0.3196  2.6935 -1.5234
  696MOL0     H93918   9.746   0.838   7.276  1.4880 -0.1942 -2.5399
  696MOL0     H93919   9.870   0.840   7.404  0.0097 -0.0424 -1.1382
  696MOL0     H93920  10.002   0.785   7.130  1.1658 -0.8490  0.1131
  696MOL0     H93921  10.298   0.697   7.019 -0.4460  0.0554 -0.6381
  696MOL0     H93922  10.323   0.670   7.194  1.9913  1.9015 -0.4062
  696MOL0     H93923  10.172   0.626   7.121  0.8073 -0.7991  4.2614
  696MOL0     H93924  10.629   1.073   7.058  0.2991  2.7386  0.6286
  696MOL0     H93925  10.873   1.061   7.011  0.0036  1.5956  0.4144
  696MOL0     H93926  11.143   1.166   7.348  2.5906 -0.2311  1.9265
  696MOL0     H93927  11.140   0.989   7.375  2.5749  1.2916  1.6838
  696MOL0     H93928  11.311   0.949   7.207 -3.2680 -0.8497 -0.5098
  696MOL0     H93929  11.314   1.122   7.182 -0.4989  0.3097  0.2938
  696MOL0     H93930  11.492   1.006   7.338 -0.7013 -1.1795 -2.2135
  696MOL0     H93931  11.353   0.978   7.450  0.1149 -2.3747 -1.2608
  696MOL0     H93932  11.422   1.268   7.357 -2.9219  2.0956  1.2975
  696MOL0     H93933  11.314   1.210   7.486 -1.3248  0.7607 -0.1495
  696MOL0     H93934  11.496   1.302   7.581 -0.4422  1.1055 -3.3082
  696MOL0     H93935  11.614   1.188   7.509  0.3256  1.2439 -0.2838
  696MOL0     H93936  11.390   1.114   7.690  0.2151  1.3991  0.9862
  696MOL0     H93937  11.503   0.997   7.613  0.1578  2.0493 -3.3509
  696MOL0     H93938  11.561   1.053   7.858  4.8130  1.2484  2.7438
  696MOL0     H93939  11.592   1.220   7.810 -1.6844 -0.5161  0.7987
  696MOL0     H93940  11.795   1.066   7.818 -2.8956  0.9217  2.0510
  696MOL0     H93941  11.771   1.118   7.650 -0.4218  2.0914  1.2141
  696MOL0     H93942  10.938   1.034   7.439 -1.1784  0.3706  1.3117
  696MOL0     H93943  10.695   0.995   7.457 -3.7944  0.3982 -1.4085
  696MOL0     H93944  10.302   1.128   7.316  0.3964 -0.5444 -0.3854
  696MOL0     H93945  10.059   1.154   7.351 -1.9783 -1.4677 -0.6595
  696MOL0     H93946   8.211   1.146   7.294 -0.2598  1.2015  0.6661
  696MOL0     H93947   7.959   1.231   7.227 -0.4761  0.2490  0.1000
  696MOL0     H93948   7.632   1.495   7.510 -0.1959  0.2548 -2.2045
  696MOL0     H93949   7.401   1.589   7.511  1.4697  0.4519  0.6063
  696MOL0     H93950   7.071   1.398   7.301  2.4116  1.7730 -0.4513
  696MOL0     H93951   7.059   1.308   7.457 -0.2880 -0.3787 -0.2321
  696MOL0     H93952   6.946   1.509   7.566  1.0257  5.2083  0.2954
  696MOL0     H93953   6.867   1.463   7.407 -0.8779 -0.1448  1.6118
  696MOL0     H93954   7.076   1.687   7.481 -1.0958  1.4798  2.0818
  696MOL0     H93955   6.907   1.708   7.469 -2.4989 -3.9232  2.8169
  696MOL0     H93956   7.102   1.670   7.254 -0.1699  0.7917  0.9287
  696MOL0     H93957   6.968   1.787   7.253 -5.0322 -1.3406 -3.0895
  696MOL0     H93958   6.826   1.447   7.051  1.4664 -0.9925  0.1422
  696MOL0     H93959   7.252   1.224   7.344 -0.8282 -0.0696  1.6254
  696MOL0     H93960   7.462   1.111   7.374  1.5836 -0.6504 -1.3290
  697MOL0     O93961   3.243   9.969   9.196 -0.0864  0.3635  0.4733
  697MOL0     C93962   3.333  10.052   9.171  0.5907 -0.4059 -0.3080
  697MOL0     O93963   3.344  10.127   9.056  0.1553  0.1420 -0.0181
  697MOL0     C93964   3.233  10.120   8.971 -0.2922 -0.3702 -0.4189
  697MOL0     C93965   3.109  10.192   8.997 -0.4406  0.4375 -0.5990
  697MOL0     C93966   3.008  10.190   8.905  0.6591  0.5057  0.5018
  697MOL0     C93967   3.028  10.119   8.780  0.0874 -0.3110  0.3171
  697MOL0     O93968   2.936  10.138   8.680 -0.1529  0.1526 -0.1130
  697MOL0     C93969   2.846  10.031   8.666  0.0122  0.1995 -0.4015
  697MOL0     C93970   2.704  10.041   8.728 -0.0782  0.5639  0.3057
  697MOL0     C93971   2.629  10.161   8.668 -0.0693  0.3714  0.7514
  697MOL0     C93972   2.481  10.173   8.723 -0.3586 -0.0347  0.7198
  697MOL0     C93973   2.400  10.290   8.662 -0.4140  0.6941  0.0209
  697MOL0     C93974   2.277  10.298   8.752  0.1225  0.0726 -0.0220
  697MOL0     C93975   2.177  10.398   8.716  0.2006 -0.1033  0.4782
  697MOL0     C93976   2.064  10.414   8.814  0.4978 -0.5881  0.4010
  697MOL0     N93977   1.938  10.357   8.764  0.2125  0.3657 -0.1674
  697MOL0     C93978   1.918  10.218   8.736 -0.3414 -0.3913 -0.2426
  697MOL0     C93979   1.783  10.214   8.705 -0.0703  0.4388  0.1068
  697MOL0     C93980   1.704  10.089   8.671 -0.4059 -0.3114  0.2763
  697MOL0     C93981   1.547  10.108   8.652  0.2567  0.4387  0.4560
  697MOL0     C93982   1.521  10.163   8.510  0.1535  0.5251  0.1578
  697MOL0     C93983   1.389  10.230   8.495  0.9393  0.1572 -0.1791
  697MOL0     O93984   1.283  10.141   8.475  0.5672  0.3731 -0.1515
  697MOL0     C93985   1.163  10.210   8.463 -0.6054 -0.4900  0.7780
  697MOL0     C93986   1.085  10.185   8.352 -0.1455  0.2184  0.2565
  697MOL0     C93987   0.952  10.232   8.334  0.2508  0.9073 -0.3891
  697MOL0     C93988   0.896  10.209   8.202  0.0799 -0.3104 -0.0230
  697MOL0     C93989   0.887  10.295   8.440  0.3775  0.7153 -0.4937
  697MOL0     C93990   0.756  10.356   8.430  0.6918  0.1390  0.0525
  697MOL0     O93991   0.665  10.325   8.527  0.0122  0.2681 -0.1769
  697MOL0     C93992   0.544  10.374   8.498  0.4563 -0.9548  0.7975
  697MOL0     C93993   0.497  10.483   8.575 -0.4020  0.0294  0.2332
  697MOL0     C93994   0.364  10.525   8.565 -0.0436 -0.8893 -0.3702
  697MOL0     C93995   0.272  10.456   8.485  1.1125 -0.1547 -0.3677
  697MOL0     O93996   0.136  10.482   8.495 -0.6658  0.8391  0.2521
  697MOL0     C93997   0.096  10.505   8.633 -0.6246 -0.7852 -0.6492
  697MOL0     C93998  -0.046  10.452   8.653  0.3452 -0.6141 -0.8911
  697MOL0     C93999  -0.098  10.502   8.784  0.3352 -0.3741  0.0965
  697MOL0     C94000  -0.232  10.429   8.833 -0.0440 -0.0900 -0.0736
  697MOL0     C94001  -0.310  10.515   8.943 -0.0014  0.3146  0.3578
  697MOL0     C94002  -0.396  10.423   9.030  0.3571 -0.3026  0.7974
  697MOL0     C94003  -0.493  10.501   9.127  0.4032  0.0828 -0.2336
  697MOL0     C94004  -0.633  10.516   9.065  0.1543 -0.2352 -0.5951
  697MOL0    Cl94005  -0.734  10.584   9.195 -0.6787  0.0680  0.2874
  697MOL0     C94006   0.317  10.350   8.406  0.3589  0.2317  0.4278
  697MOL0     C94007   0.450  10.307   8.419  0.3217  0.1126  0.3634
  697MOL0     O94008   0.742  10.447   8.346  0.3194 -0.6600  0.5402
  697MOL0     C94009   0.965  10.324   8.552 -0.3214  0.4038  0.1707
  697MOL0     C94010   1.102  10.287   8.571  0.3544 -0.3759  0.5286
  697MOL0     N94011   1.727  10.334   8.741  0.4909  0.5075  0.4718
  697MOL0     N94012   1.818  10.423   8.775 -0.4560  0.1917 -0.3045
  697MOL0     C94013   3.144  10.035   8.760  0.1167  0.9473  0.1393
  697MOL0     C94014   3.243  10.044   8.856 -0.0233  0.0362 -0.2335
  697MOL0     C94015   3.439  10.060   9.276  0.4745 -0.6153 -0.8384
  697MOL0     C94016   3.442   9.975   9.385  0.2183 -0.0922  0.5561
  697MOL0     C94017   3.540   9.996   9.485 -0.0006  0.7069  0.1537
  697MOL0     C94018   3.637  10.099   9.485  0.6705 -0.6132  0.5995
  697MOL0     O94019   3.751  10.113   9.555 -0.6045 -1.0187  0.7099
  697MOL0     C94020   3.755  10.041   9.672  0.1588  0.6196 -0.2561
  697MOL0     C94021   3.869  10.089   9.755 -0.3940  0.2989  0.2096
  697MOL0     C94022   4.009  10.119   9.676  0.7317 -0.0396 -0.1918
  697MOL0     C94023   4.114  10.183   9.776  1.2383 -0.1813  0.2362
  697MOL0     C94024   4.193  10.074   9.838 -0.0703 -0.1907 -0.5045
  697MOL0     C94025   4.275   9.988   9.872  0.1584  0.3358  0.1270
  697MOL0     C94026   3.622  10.187   9.378  0.1928  0.2242 -0.7836
  697MOL0     C94027   3.519  10.171   9.282 -0.4243  0.0307 -0.4626
  697MOL0     H94028   3.110  10.259   9.083  0.9933  1.4101 -1.3237
  697MOL0     H94029   2.914  10.245   8.904 -0.1511 -0.8016  1.5094
  697MOL0     H94030   2.833  10.022   8.558 -1.0070  2.3292 -0.5034
  697MOL0     H94031   2.891   9.934   8.691 -4.1774 -1.2637  2.4992
  697MOL0     H94032   2.658   9.948   8.692  2.8094 -0.7991 -0.1398
  697MOL0     H94033   2.707  10.035   8.837  0.1325  1.8616  0.3802
  697MOL0     H94034   2.697  10.244   8.687 -0.3059 -0.0030  3.6774
  697MOL0     H94035   2.631  10.142   8.561 -1.4442  0.7736  0.6266
  697MOL0     H94036   2.423  10.081   8.713  2.3310 -1.7010 -0.7599
  697MOL0     H94037   2.485  10.174   8.832  2.2629 -1.2167  0.7170
  697MOL0     H94038   2.466  10.376   8.677 -1.0780  1.2118  0.0203
  697MOL0     H94039   2.376  10.275   8.556  0.3482  0.3959 -0.1226
  697MOL0     H94040   2.217  10.210   8.729 -0.0131  0.4265 -1.0800
  697MOL0     H94041   2.306  10.316   8.856  0.1647 -0.8779  0.1354
  697MOL0     H94042   2.227  10.495   8.722  2.7959 -1.4185  5.2680
  697MOL0     H94043   2.145  10.384   8.612  0.5196 -1.6096  0.5544
  697MOL0     H94044   2.041  10.521   8.826 -0.4987 -0.9318  1.7698
  697MOL0     H94045   2.082  10.368   8.911  2.9238  1.9344  1.2738
  697MOL0     H94046   1.995  10.143   8.743  0.6466  0.4111 -1.8209
  697MOL0     H94047   1.739  10.039   8.581  0.4363 -0.3832  0.6369
  697MOL0     H94048   1.722  10.033   8.763 -1.9102 -1.7411 -0.2537
  697MOL0     H94049   1.518  10.182   8.727 -1.9192  0.3103 -0.1876
  697MOL0     H94050   1.486  10.018   8.668  0.5398 -0.2416 -1.8663
  697MOL0     H94051   1.519  10.087   8.432 -1.1014  1.4984 -0.7990
  697MOL0     H94052   1.604  10.232   8.490  1.6014 -1.1835  0.0293
  697MOL0     H94053   1.381  10.302   8.413  0.4323 -1.4715 -1.6212
  697MOL0     H94054   1.376  10.275   8.594  1.1611 -1.8443  0.8114
  697MOL0     H94055   1.130  10.122   8.276 -1.0888 -1.4021  1.0006
  697MOL0     H94056   0.844  10.298   8.166 -2.0180 -1.3717  0.2451
  697MOL0     H94057   0.964  10.167   8.126  1.0943  0.0815  0.6506
  697MOL0     H94058   0.811  10.140   8.208 -2.3743  2.2784 -2.0323
  697MOL0     H94059   0.567  10.534   8.641  0.1622 -0.3255 -0.0782
  697MOL0     H94060   0.335  10.601   8.636  0.4532  1.1662 -2.2691
  697MOL0     H94061   0.155  10.444   8.703  2.8709 -0.2068 -2.8704
  697MOL0     H94062   0.098  10.608   8.669 -1.3017 -0.9069 -0.2412
  697MOL0     H94063  -0.101  10.506   8.575  0.8570 -2.7970 -2.8806
  697MOL0     H94064  -0.055  10.344   8.643  5.7734 -1.4447 -0.1759
  697MOL0     H94065  -0.100  10.611   8.794 -1.3343 -0.4433  0.9334
  697MOL0     H94066  -0.020  10.473   8.855  0.8212 -2.5945 -1.2287
  697MOL0     H94067  -0.309  10.421   8.756 -0.6989 -1.0560  0.6591
  697MOL0     H94068  -0.199  10.330   8.864  0.3725  0.4520  1.3088
  697MOL0     H94069  -0.367  10.592   8.890 -0.3452 -1.7198 -2.4685
  697MOL0     H94070  -0.239  10.565   9.009  1.0400  0.2147 -0.6622
  697MOL0     H94071  -0.454  10.350   8.973  0.5441 -2.1513  2.8422
  697MOL0     H94072  -0.323  10.364   9.086 -0.3814  0.3470  2.4897
  697MOL0     H94073  -0.437  10.593   9.142 -0.1851  0.8573 -2.4145
  697MOL0     H94074  -0.502  10.435   9.214 -1.3222 -3.1554 -2.6278
  697MOL0     H94075  -0.681  10.426   9.028 -0.0628 -0.5692  0.4565
  697MOL0     H94076  -0.615  10.579   8.978  0.8533  0.9500  0.3575
  697MOL0     H94077   0.249  10.293   8.343  2.2622 -0.3351 -1.2072
  697MOL0     H94078   0.491  10.218   8.373  0.8671  0.2034  0.6686
  697MOL0     H94079   0.910  10.382   8.626  0.6327  2.3924 -0.6140
  697MOL0     H94080   1.161  10.306   8.660  1.6170  0.6950 -0.4891
  697MOL0     H94081   3.153   9.987   8.663  0.4216  0.7882  0.2423
  697MOL0     H94082   3.328   9.981   8.834 -0.9809 -1.6318  0.6850
  697MOL0     H94083   3.367   9.899   9.403  0.2308  0.6152  4.3768
  697MOL0     H94084   3.553   9.915   9.557  4.6415  1.2281  0.2027
  697MOL0     H94085   3.663  10.064   9.726 -1.1278 -0.9948 -1.6381
  697MOL0     H94086   3.748   9.933   9.657  3.1901  0.4384 -1.1653
  697MOL0     H94087   3.891  10.003   9.820  0.3482  0.9286  0.8131
  697MOL0     H94088   3.837  10.175   9.814 -2.2008  0.2583 -0.6563
  697MOL0     H94089   3.986  10.185   9.592 -2.7843 -0.9077 -0.0596
  697MOL0     H94090   4.043  10.026   9.629 -2.1122 -0.6506 -1.2603
  697MOL0     H94091   4.070  10.237   9.861 -3.1593  0.7209 -2.3398
  697MOL0     H94092   4.177  10.252   9.718  4.4556 -1.9237  1.4103
  697MOL0     H94093   4.335   9.912   9.919  0.4309  0.0331 -0.6980
  697MOL0     H94094   3.679  10.279   9.365 -1.6280  1.5000 -0.0934
  697MOL0     H94095   3.514  10.248   9.205  0.8577 -0.7105 -1.3211
  698MOL0     O94096   9.221   9.809   7.021 -0.0369 -0.3913 -0.5594
  698MOL0     C94097   9.322   9.785   6.954  0.8473  0.3885 -0.9854
  698MOL0     O94098   9.339   9.670   6.880 -0.1885 -0.5139  0.1225
  698MOL0     C94099   9.259   9.558   6.873  1.0997  0.0940 -0.5689
  698MOL0     C94100   9.272   9.474   6.760  0.1682 -0.1482  0.5706
  698MOL0     C94101   9.209   9.352   6.758  0.2217 -0.2284  0.1981
  698MOL0     C94102   9.136   9.311   6.874  0.4693 -0.8964 -0.3012
  698MOL0     O94103   9.090   9.186   6.900 -0.1742 -0.0800  0.5306
  698MOL0     C94104   9.200   9.092   6.880 -0.1612 -0.0750  1.0407
  698MOL0     C94105   9.167   8.952   6.945 -0.1968 -1.0690 -0.1112
  698MOL0     C94106   9.287   8.871   6.973  0.3123  0.8875  0.0823
  698MOL0     C94107   9.335   8.784   6.851 -0.7540  0.2442 -0.8005
  698MOL0     C94108   9.473   8.731   6.878 -0.4015  0.2503  0.0726
  698MOL0     C94109   9.523   8.635   6.768 -0.5495 -0.5308 -0.1363
  698MOL0     C94110   9.652   8.576   6.814  0.0363  0.5228 -0.6883
  698MOL0     C94111   9.721   8.511   6.694  0.2905  0.5560  0.3018
  698MOL0     N94112   9.857   8.454   6.731 -0.3565  0.2758  0.1280
  698MOL0     C94113   9.886   8.390   6.849 -0.3621  0.2081  0.1769
  698MOL0     C94114  10.022   8.380   6.841 -0.2080  0.1010  0.3312
  698MOL0     C94115  10.125   8.308   6.922  0.4903 -0.3152 -0.2231
  698MOL0     C94116  10.149   8.171   6.842 -0.2642 -0.1162 -0.1633
  698MOL0     C94117  10.274   8.093   6.889 -0.0329  0.4477  0.0867
  698MOL0     C94118  10.247   8.034   7.025  0.5667 -0.5316 -0.4695
  698MOL0     O94119  10.364   8.009   7.087 -0.5736 -0.3656  0.1086
  698MOL0     C94120  10.439   7.907   7.044 -0.0885  0.9948 -0.3747
  698MOL0     C94121  10.386   7.776   7.026  0.2133 -0.0001  0.3236
  698MOL0     C94122  10.464   7.668   6.983  0.2464  0.2688 -0.9614
  698MOL0     C94123  10.390   7.539   6.975 -0.8455  0.1510  0.5061
  698MOL0     C94124  10.602   7.693   6.963  0.3302  0.4289  0.6073
  698MOL0     C94125  10.696   7.594   6.921 -0.4349 -0.3563 -0.6723
  698MOL0     O94126  10.666   7.460   6.946  0.0218 -0.3757 -0.3274
  698MOL0     C94127  10.727   7.355   6.884 -0.0761 -0.8838 -0.8741
  698MOL0     C94128  10.862   7.348   6.844 -0.0283  0.1804  0.1373
  698MOL0     C94129  10.904   7.236   6.773  0.1720  0.4771 -1.0423
  698MOL0     C94130  10.806   7.133   6.746 -0.8387  0.5835  0.3646
  698MOL0     O94131  10.838   7.024   6.675  0.8320  0.0499 -0.6939
  698MOL0     C94132  10.974   7.004   6.633  0.8167 -0.3158  0.4145
  698MOL0     C94133  10.990   6.866   6.584  0.4222  0.2798 -0.1517
  698MOL0     C94134  10.893   6.822   6.473 -0.1214  0.2272 -0.4416
  698MOL0     C94135  10.969   6.804   6.342  0.2809  0.4921 -0.9194
  698MOL0     C94136  10.861   6.776   6.241  0.4499  0.7461  0.2994
  698MOL0     C94137  10.907   6.693   6.124 -0.0296  0.0931 -0.2267
  698MOL0     C94138  10.947   6.546   6.156  0.2045  0.2526 -0.4919
  698MOL0     C94139  10.984   6.462   6.035  0.2327  0.1950 -0.4212
  698MOL0    Cl94140  11.115   6.528   5.951 -0.3515 -0.3186 -0.1101
  698MOL0     C94141  10.684   7.136   6.794 -0.1302 -0.0118  0.5849
  698MOL0     C94142  10.640   7.245   6.864  0.6801 -0.0321  0.2882
  698MOL0     O94143  10.808   7.633   6.873  0.2350 -0.0326  0.6547
  698MOL0     C94144  10.653   7.825   6.982  1.0193  0.5803 -0.3527
  698MOL0     C94145  10.567   7.933   7.015 -0.6342 -0.3603 -0.1101
  698MOL0     N94146  10.069   8.457   6.732  0.9751  0.6516 -0.6367
  698MOL0     N94147   9.968   8.507   6.665  0.3546 -0.0506 -0.5505
  698MOL0     C94148   9.114   9.402   6.981 -0.0296  0.8441  0.2722
  698MOL0     C94149   9.179   9.520   6.982 -0.3902 -0.4221 -0.2522
  698MOL0     C94150   9.432   9.883   6.968 -0.5615  0.3349  0.7403
  698MOL0     C94151   9.566   9.854   6.928 -0.2821  0.5721 -1.1082
  698MOL0     C94152   9.662   9.948   6.953 -1.0289 -0.1527  0.5222
  698MOL0     C94153   9.639  10.076   7.002 -0.4062 -0.6685  0.7736
  698MOL0     O94154   9.752  10.162   7.026  0.4122 -0.1536  0.2692
  698MOL0     C94155   9.710  10.303   7.045 -0.4519  1.0600 -0.2672
  698MOL0     C94156   9.843  10.378   7.033 -0.3514 -0.6052 -0.3329
  698MOL0     C94157   9.878  10.419   6.885 -1.1587 -0.7190  0.2277
  698MOL0     C94158   9.918  10.302   6.790  0.2523  0.5222  0.0575
  698MOL0     C94159   9.993  10.345   6.672  0.1654  0.0425  0.0913
  698MOL0     C94160  10.048  10.367   6.563 -0.8912  0.8084 -0.1121
  698MOL0     C94161   9.511  10.105   7.047 -0.6563 -0.1970  0.0657
  698MOL0     C94162   9.411  10.016   7.030 -0.3752 -0.4449  0.0771
  698MOL0     H94163   9.322   9.506   6.669  0.8549 -2.5784  0.0179
  698MOL0     H94164   9.211   9.286   6.671 -1.8872  4.1036 -3.6042
  698MOL0     H94165   9.234   9.082   6.776 -1.3531 -0.3994  0.6716
  698MOL0     H94166   9.279   9.137   6.942  1.0537  1.1181 -1.2386
  698MOL0     H94167   9.112   8.974   7.037 -0.2623 -2.4298  0.1961
  698MOL0     H94168   9.105   8.898   6.873  0.7996 -0.5860 -1.3666
  698MOL0     H94169   9.369   8.927   7.021  0.6716 -0.2495  0.8322
  698MOL0     H94170   9.267   8.794   7.048 -0.9534  0.3058 -0.8157
  698MOL0     H94171   9.272   8.695   6.845  1.3370 -1.3616  0.2376
  698MOL0     H94172   9.318   8.836   6.756 -3.0717 -2.5691 -2.0905
  698MOL0     H94173   9.551   8.807   6.889  0.4900 -0.2787 -2.1100
  698MOL0     H94174   9.477   8.679   6.974  0.2527  0.4464  0.1567
  698MOL0     H94175   9.456   8.550   6.753  0.9955 -2.3970  2.5241
  698MOL0     H94176   9.536   8.698   6.680  2.6414 -1.7794 -0.7177
  698MOL0     H94177   9.719   8.653   6.853 -0.0317  0.9867 -1.4774
  698MOL0     H94178   9.643   8.509   6.900 -2.1895 -1.2935 -2.2340
  698MOL0     H94179   9.735   8.583   6.613 -0.4181 -2.2201 -2.5316
  698MOL0     H94180   9.653   8.431   6.660 -0.7944  1.2232  0.8311
  698MOL0     H94181   9.810   8.334   6.901 -2.8031  0.3875 -2.8934
  698MOL0     H94182  10.221   8.358   6.905  0.4466 -1.3239 -4.1923
  698MOL0     H94183  10.102   8.293   7.028  4.2059  4.0897  1.5705
  698MOL0     H94184  10.160   8.203   6.738 -1.4512 -0.5904 -0.4522
  698MOL0     H94185  10.056   8.115   6.839 -1.2022  1.3077  0.9858
  698MOL0     H94186  10.351   8.170   6.899  1.3629 -0.8898 -0.1342
  698MOL0     H94187  10.305   8.014   6.821 -1.1285 -0.9872  1.1735
  698MOL0     H94188  10.181   7.948   7.011 -0.2001 -0.4039  1.8724
  698MOL0     H94189  10.189   8.104   7.088 -1.0717 -2.5946  0.4346
  698MOL0     H94190  10.281   7.760   7.046  0.0414  0.2756 -0.3308
  698MOL0     H94191  10.282   7.539   6.958 -0.6992 -1.4814 -0.7083
  698MOL0     H94192  10.412   7.481   6.885 -0.4488  2.3541 -0.8928
  698MOL0     H94193  10.404   7.474   7.062 -1.8615 -0.3234  0.3311
  698MOL0     H94194  10.934   7.429   6.843 -1.2818  1.4210 -2.4563
  698MOL0     H94195  11.010   7.228   6.747  0.4842 -0.2042  0.3324
  698MOL0     H94196  11.004   7.079   6.558  0.5167 -1.2239 -0.6386
  698MOL0     H94197  11.043   7.012   6.718  0.4482 -1.2383  0.8099
  698MOL0     H94198  11.089   6.844   6.544  0.1324  0.9865 -1.2902
  698MOL0     H94199  10.978   6.802   6.672  0.3614  2.3691  1.4435
  698MOL0     H94200  10.803   6.885   6.464 -0.1090  0.3690  0.3474
  698MOL0     H94201  10.868   6.723   6.513  0.6118  0.6758  1.2188
  698MOL0     H94202  11.014   6.896   6.305 -0.8268  0.6087 -2.0669
  698MOL0     H94203  11.043   6.725   6.354  0.5705  0.6779 -1.4459
  698MOL0     H94204  10.838   6.874   6.198  0.4346  0.2864 -0.7708
  698MOL0     H94205  10.770   6.732   6.284 -0.1884  1.1189 -0.6235
  698MOL0     H94206  10.830   6.685   6.047 -0.9644 -0.3887  0.7283
  698MOL0     H94207  10.990   6.744   6.075 -0.4693  0.7929 -0.2611
  698MOL0     H94208  10.874   6.488   6.214  0.9706  0.0888  0.3380
  698MOL0     H94209  11.029   6.548   6.229 -0.2886 -1.0397  0.1328
  698MOL0     H94210  10.897   6.451   5.969 -1.3165 -3.0586  1.9307
  698MOL0     H94211  11.029   6.367   6.065  1.4078  0.2235 -1.9770
  698MOL0     H94212  10.621   7.049   6.784  1.2295 -1.3670  2.9455
  698MOL0     H94213  10.547   7.239   6.920  0.1682  1.2077 -0.3892
  698MOL0     H94214  10.758   7.847   6.969  1.2426  0.5124  1.1794
  698MOL0     H94215  10.597   8.035   7.037 -2.2941 -0.2792  2.1138
  698MOL0     H94216   9.059   9.369   7.068 -0.5951 -0.4503 -0.5434
  698MOL0     H94217   9.172   9.583   7.071  1.1843 -0.9595  0.2753
  698MOL0     H94218   9.590   9.757   6.886  0.0894 -0.2411  0.8721
  698MOL0     H94219   9.766   9.926   6.930 -1.0573 -1.4097  1.4708
  698MOL0     H94220   9.631  10.331   6.974  0.7170 -0.3921 -2.2367
  698MOL0     H94221   9.674  10.312   7.148  0.0220 -0.4853  0.0466
  698MOL0     H94222   9.926  10.329   7.084 -0.3854  1.9881  2.4988
  698MOL0     H94223   9.844  10.476   7.082  1.2410 -1.3864  1.2983
  698MOL0     H94224   9.963  10.485   6.902 -0.8381 -1.8370  3.8312
  698MOL0     H94225   9.794  10.479   6.847 -0.3358  0.5093  0.2926
  698MOL0     H94226   9.825  10.255   6.756 -0.3877  1.0489  1.0540
  698MOL0     H94227   9.979  10.227   6.841  0.7328  0.7512 -0.1758
  698MOL0     H94228  10.101  10.372   6.470 -0.3671  0.2551  0.1456
  698MOL0     H94229   9.492  10.199   7.099  0.3650  1.4988 -2.4221
  698MOL0     H94230   9.311  10.045   7.062  0.0879  1.3412 -0.0353
  699MOL0     O94231   6.330   6.201   7.574 -0.7467  0.4976  0.0461
  699MOL0     C94232   6.350   6.193   7.695  0.0522  0.0681 -0.3704
  699MOL0     O94233   6.476   6.207   7.759  0.4789  0.4828  0.1327
  699MOL0     C94234   6.475   6.212   7.894 -0.0919 -1.2872  1.4250
  699MOL0     C94235   6.411   6.308   7.975 -0.8844 -0.0966 -0.1485
  699MOL0     C94236   6.438   6.317   8.112  1.2019 -0.4449  1.7302
  699MOL0     C94237   6.531   6.236   8.177 -0.5028 -0.1678  0.5339
  699MOL0     O94238   6.560   6.270   8.299 -0.3649  0.5505  0.1712
  699MOL0     C94239   6.659   6.206   8.372  0.0793 -0.6432  0.0026
  699MOL0     C94240   6.605   6.072   8.424 -0.0463  0.2821  0.4357
  699MOL0     C94241   6.716   5.982   8.477 -0.2813 -0.0312  0.2573
  699MOL0     C94242   6.673   5.832   8.518  0.3943  0.0566  0.0294
  699MOL0     C94243   6.776   5.745   8.580 -0.2016  0.1364 -0.3260
  699MOL0     C94244   6.809   5.768   8.723  0.2252 -0.1006 -0.0163
  699MOL0     C94245   6.893   5.668   8.797  0.4441 -0.2330 -0.4306
  699MOL0     C94246   7.013   5.618   8.710 -0.5021 -0.3045  0.4359
  699MOL0     N94247   7.085   5.517   8.786 -0.1202  0.3628  0.5149
  699MOL0     C94248   7.194   5.547   8.869  0.2819  0.3067  0.9217
  699MOL0     C94249   7.256   5.424   8.884  0.4095  0.1760 -0.1263
  699MOL0     C94250   7.380   5.414   8.974 -0.9464  0.4832 -0.5391
  699MOL0     C94251   7.466   5.283   8.952 -0.7789  0.3998  0.1364
  699MOL0     C94252   7.581   5.279   9.056  0.2536  0.1837 -0.4772
  699MOL0     C94253   7.659   5.142   9.045 -0.3433 -0.7771  0.1375
  699MOL0     O94254   7.732   5.126   9.170 -0.0711 -0.5496 -0.3086
  699MOL0     C94255   7.868   5.156   9.179 -0.3386 -0.2051 -0.4274
  699MOL0     C94256   7.961   5.151   9.069 -0.7038 -0.7862 -0.4986
  699MOL0     C94257   8.103   5.161   9.089  0.4588 -0.0280  0.8509
  699MOL0     C94258   8.191   5.140   8.964  0.9070 -0.1807 -0.1810
  699MOL0     C94259   8.148   5.182   9.219  0.0192 -0.0895 -0.3351
  699MOL0     C94260   8.292   5.181   9.243 -0.0332  0.7418  0.0722
  699MOL0     O94261   8.370   5.090   9.179  0.3444 -0.1020 -0.4602
  699MOL0     C94262   8.478   5.048   9.258 -0.8270  0.9859  0.4314
  699MOL0     C94263   8.473   4.987   9.378  0.1342 -0.1987 -0.4008
  699MOL0     C94264   8.589   4.950   9.449  0.2854  0.2298  0.1412
  699MOL0     C94265   8.716   4.964   9.386  0.1730  0.4055  0.5626
  699MOL0     O94266   8.824   4.919   9.455 -0.9532  0.1981  0.3130
  699MOL0     C94267   8.863   4.791   9.393  0.5828  1.0544  0.5119
  699MOL0     C94268   8.968   4.710   9.471  0.4555 -0.0962  0.6544
  699MOL0     C94269   8.967   4.567   9.419 -0.1285  0.3441  0.1835
  699MOL0     C94270   9.061   4.469   9.486 -0.4989  0.2767 -0.6013
  699MOL0     C94271   9.052   4.339   9.407 -0.4485 -0.1911  0.5735
  699MOL0     C94272   9.137   4.218   9.455 -0.5672 -1.0783 -0.4389
  699MOL0     C94273   9.130   4.111   9.351 -0.3631  0.8248 -0.4786
  699MOL0     C94274   9.221   3.992   9.395 -0.4060  0.0657 -0.1189
  699MOL0    Cl94275   9.157   3.924   9.547  0.3443 -0.2246  0.3763
  699MOL0     C94276   8.717   5.006   9.257 -0.1176 -1.4894  0.7754
  699MOL0     C94277   8.604   5.039   9.188 -0.1157 -1.1077  0.0712
  699MOL0     O94278   8.338   5.259   9.324  0.2809 -1.2042  0.9242
  699MOL0     C94279   8.053   5.197   9.320 -0.9098  0.5094 -0.4803
  699MOL0     C94280   7.918   5.171   9.308 -0.2951 -0.6015 -0.7061
  699MOL0     N94281   7.187   5.331   8.810  0.6283  0.0139  0.6612
  699MOL0     N94282   7.092   5.380   8.741  0.1940 -1.0921  0.0529
  699MOL0     C94283   6.596   6.134   8.106 -0.7005 -0.0770  0.5124
  699MOL0     C94284   6.572   6.130   7.962  1.1083  0.3676 -0.7849
  699MOL0     C94285   6.216   6.176   7.768  0.0575  0.3014  0.1184
  699MOL0     C94286   6.103   6.246   7.727 -1.6442  0.5214  1.2052
  699MOL0     C94287   5.985   6.239   7.800  0.3955  0.3077 -0.1251
  699MOL0     C94288   5.976   6.148   7.911  0.4857 -1.1846  0.4532
  699MOL0     O94289   5.858   6.144   7.982 -0.1820 -0.5069  0.2983
  699MOL0     C94290   5.755   6.070   7.905  0.2992  0.5403  0.8563
  699MOL0     C94291   5.715   5.930   7.953 -0.1796  0.4439 -1.3971
  699MOL0     C94292   5.567   5.937   7.982  0.6383 -0.3738  0.1281
  699MOL0     C94293   5.521   5.824   8.072  0.2672 -0.5461 -0.1577
  699MOL0     C94294   5.522   5.693   8.005  0.7515 -0.3677 -0.2535
  699MOL0     C94295   5.540   5.596   7.931  0.9883 -0.5650 -0.2456
  699MOL0     C94296   6.082   6.080   7.951  0.7984  0.6437  0.3322
  699MOL0     C94297   6.198   6.081   7.872 -1.1373  0.5211  0.8093
  699MOL0     H94298   6.340   6.372   7.925 -1.0377 -2.1671 -2.7575
  699MOL0     H94299   6.382   6.396   8.162 -0.5514 -0.5753  0.0425
  699MOL0     H94300   6.751   6.196   8.314  0.6518  3.2654 -0.0881
  699MOL0     H94301   6.677   6.263   8.465 -1.2713 -0.5793  0.2482
  699MOL0     H94302   6.553   6.096   8.517 -0.1210  2.3382 -0.0856
  699MOL0     H94303   6.545   6.030   8.343 -1.5743  1.3922  0.9429
  699MOL0     H94304   6.791   5.971   8.399 -2.6418  1.5376 -2.4138
  699MOL0     H94305   6.776   6.023   8.559  0.7701 -0.5908 -0.2103
  699MOL0     H94306   6.583   5.845   8.580  1.6354  2.0699  1.5210
  699MOL0     H94307   6.632   5.780   8.431 -0.4157 -0.1316  0.5123
  699MOL0     H94308   6.745   5.642   8.562  2.9461 -1.0003  0.0151
  699MOL0     H94309   6.874   5.764   8.533  0.8820 -1.5613  1.1244
  699MOL0     H94310   6.864   5.862   8.726  2.3743 -1.2956  0.5282
  699MOL0     H94311   6.717   5.784   8.780 -1.7648 -2.7241 -2.1847
  699MOL0     H94312   6.938   5.707   8.889  3.0007  0.1562 -1.7463
  699MOL0     H94313   6.820   5.591   8.824  0.1242  0.7542  1.7152
  699MOL0     H94314   7.078   5.703   8.689  0.4568 -0.8991  0.9176
  699MOL0     H94315   6.987   5.572   8.614  2.6806 -3.3829  0.8269
  699MOL0     H94316   7.232   5.641   8.906 -1.6569  1.6818 -0.3942
  699MOL0     H94317   7.441   5.504   8.975  1.8433 -1.2860 -0.1024
  699MOL0     H94318   7.343   5.401   9.076 -0.6024 -0.4533 -0.5243
  699MOL0     H94319   7.502   5.268   8.850  0.2583 -0.5021  0.6190
  699MOL0     H94320   7.403   5.195   8.964 -1.9527  1.3241  0.9994
  699MOL0     H94321   7.526   5.283   9.150 -1.8013  0.4931 -1.6460
  699MOL0     H94322   7.647   5.367   9.051 -1.2695  1.3327 -1.0511
  699MOL0     H94323   7.723   5.142   8.956  1.5339  3.0581  1.2375
  699MOL0     H94324   7.585   5.062   9.041 -0.7668 -0.3515 -2.6358
  699MOL0     H94325   7.925   5.128   8.969  0.0704  1.7723 -1.4573
  699MOL0     H94326   8.199   5.036   8.932  0.2187 -0.2466 -0.1617
  699MOL0     H94327   8.149   5.194   8.879 -0.7680 -2.6976 -1.0762
  699MOL0     H94328   8.282   5.199   8.975  0.2077  0.6491  1.7749
  699MOL0     H94329   8.380   4.980   9.434  0.6168 -1.9472  0.2623
  699MOL0     H94330   8.570   4.910   9.548 -0.7758 -1.0326 -0.5460
  699MOL0     H94331   8.775   4.730   9.375  1.2704 -0.1860  1.1934
  699MOL0     H94332   8.916   4.806   9.299  0.1024  0.3206  0.1243
  699MOL0     H94333   9.068   4.755   9.469 -0.2637  1.6219  1.1082
  699MOL0     H94334   8.937   4.714   9.576 -0.9351 -1.6441  0.3365
  699MOL0     H94335   9.005   4.561   9.317 -0.1739 -3.0001  0.2476
  699MOL0     H94336   8.867   4.523   9.415  0.5004 -1.0187 -1.9188
  699MOL0     H94337   9.165   4.501   9.485 -0.2263 -0.5388  0.5115
  699MOL0     H94338   9.042   4.455   9.592 -1.7633  1.6855 -0.6242
  699MOL0     H94339   9.088   4.368   9.308  1.2409  3.1655  2.0312
  699MOL0     H94340   8.947   4.309   9.404 -0.7935  1.0179  0.3661
  699MOL0     H94341   9.240   4.247   9.481 -0.5414  0.4970 -2.1517
  699MOL0     H94342   9.079   4.190   9.544 -0.4774  0.7426  0.2335
  699MOL0     H94343   9.154   4.148   9.250  1.5619  3.7251  0.8985
  699MOL0     H94344   9.031   4.064   9.349  0.9199 -2.1405  0.4995
  699MOL0     H94345   9.322   4.034   9.406  0.4661 -2.1037  0.6566
  699MOL0     H94346   9.232   3.917   9.316  0.5003  0.4864 -0.4143
  699MOL0     H94347   8.813   5.031   9.213 -0.8336  0.6815  0.3293
  699MOL0     H94348   8.617   5.075   9.086  0.4222 -1.8654 -0.1348
  699MOL0     H94349   8.092   5.215   9.420  0.4401 -2.4661 -0.3734
  699MOL0     H94350   7.852   5.185   9.393 -0.2057  0.4739 -0.7970
  699MOL0     H94351   6.664   6.056   8.138 -1.0455 -1.4367 -1.8015
  699MOL0     H94352   6.623   6.059   7.898 -2.9259 -1.4931 -2.3077
  699MOL0     H94353   6.118   6.313   7.643  0.2838 -0.0807  1.0202
  699MOL0     H94354   5.891   6.285   7.771  1.1993  1.2467 -1.3521
  699MOL0     H94355   5.675   6.144   7.893  0.9189  0.9463 -1.1711
  699MOL0     H94356   5.791   6.047   7.805  0.5436 -0.2156  1.1117
  699MOL0     H94357   5.771   5.907   8.045  0.5124  1.3344 -1.5783
  699MOL0     H94358   5.740   5.849   7.883 -1.4022 -3.2196  2.0033
  699MOL0     H94359   5.512   5.930   7.887  1.2051  0.5702 -0.2889
  699MOL0     H94360   5.545   6.032   8.032  1.7099 -0.9785  1.8244
  699MOL0     H94361   5.415   5.838   8.094  0.8177  1.4147  1.5700
  699MOL0     H94362   5.577   5.809   8.164  0.0285  0.5353  0.1765
  699MOL0     H94363   5.575   5.514   7.872  1.0321 -1.8002  1.3999
  699MOL0     H94364   6.076   6.015   8.037  1.4910  0.8310  0.5274
  699MOL0     H94365   6.279   6.019   7.910 -2.5133 -2.0111 -0.2140
  700MOL0     O94366   9.958   8.313   0.820 -0.1986  0.3431 -0.5628
  700MOL0     C94367   9.973   8.418   0.881 -0.4332 -0.6558  0.0291
  700MOL0     O94368  10.093   8.468   0.932 -0.2792 -0.8371 -0.1519
  700MOL0     C94369  10.202   8.416   0.866  0.6192 -0.3196  0.5616
  700MOL0     C94370  10.278   8.311   0.916 -0.8696  0.3941 -0.0150
  700MOL0     C94371  10.401   8.285   0.859  0.6397  0.1883  0.3312
  700MOL0     C94372  10.451   8.341   0.749  0.4261 -0.0204 -0.8079
  700MOL0     O94373  10.586   8.326   0.722  0.0283  0.1074  0.5118
  700MOL0     C94374  10.654   8.451   0.684 -0.6298  0.2868 -0.1401
  700MOL0     C94375  10.805   8.432   0.675 -0.8854  0.2642 -0.2578
  700MOL0     C94376  10.884   8.560   0.643 -0.0299  0.2585 -0.1337
  700MOL0     C94377  11.042   8.542   0.637 -0.0575  0.7076 -0.6247
  700MOL0     C94378  11.097   8.630   0.519 -0.3219  0.1799 -0.1026
  700MOL0     C94379  11.247   8.609   0.516  0.3784  0.0637 -0.2604
  700MOL0     C94380  11.322   8.674   0.393  1.0705  0.5428 -0.4613
  700MOL0     C94381  11.334   8.824   0.411 -0.0037  0.5429  0.2456
  700MOL0     N94382  11.399   8.883   0.292  0.0603 -0.0827 -0.4699
  700MOL0     C94383  11.529   8.879   0.258  0.2827  0.3491  0.3429
  700MOL0     C94384  11.539   8.944   0.140  0.7228 -0.2340  0.3830
  700MOL0     C94385  11.674   8.992   0.079 -0.0684  0.4088  0.2865
  700MOL0     C94386  11.772   8.876   0.085  0.2291 -0.4218 -0.9338
  700MOL0     C94387  11.908   8.899   0.017 -0.2294  1.1681 -0.0490
  700MOL0     C94388  12.004   8.984   0.094  0.2200 -0.1337  0.2653
  700MOL0     O94389  12.054   8.892   0.201 -0.1317  0.5184  1.1769
  700MOL0     C94390  12.182   8.851   0.189 -0.1588  0.8614 -0.7136
  700MOL0     C94391  12.276   8.879   0.084 -0.1526 -0.0798 -1.2275
  700MOL0     C94392  12.409   8.846   0.092  0.0066 -0.5576 -0.4996
  700MOL0     C94393  12.500   8.888  -0.024  0.8896  0.5341 -0.2269
  700MOL0     C94394  12.454   8.775   0.198  0.5444  0.9327 -0.0016
  700MOL0     C94395  12.593   8.719   0.211 -0.0212 -0.3371 -0.9444
  700MOL0     O94396  12.621   8.660   0.335 -0.1040 -0.8796  0.3333
  700MOL0     C94397  12.740   8.592   0.336 -0.6555 -0.3195  0.2380
  700MOL0     C94398  12.734   8.452   0.323  0.1966 -0.3383 -0.3753
  700MOL0     C94399  12.855   8.385   0.339  0.8005  0.5249  0.0642
  700MOL0     C94400  12.974   8.445   0.373 -0.0966 -0.9532  0.4870
  700MOL0     O94401  13.089   8.363   0.396  0.4923 -0.0544  0.0677
  700MOL0     C94402  13.220   8.412   0.378 -0.0706  0.7190 -0.0497
  700MOL0     C94403  13.326   8.307   0.422  0.7665  0.4722  0.1693
  700MOL0     C94404  13.303   8.290   0.569  0.6709  0.2471 -0.2182
  700MOL0     C94405  13.383   8.167   0.618  0.9107 -0.7632  0.7798
  700MOL0     C94406  13.341   8.132   0.765  1.1759 -0.6675  0.4282
  700MOL0     C94407  13.381   7.987   0.791 -0.1264 -0.8150 -0.0975
  700MOL0     C94408  13.374   7.956   0.930  0.5786 -0.5521  0.4904
  700MOL0     C94409  13.468   7.838   0.993  0.5588 -0.6433 -0.2216
  700MOL0    Cl94410  13.402   7.685   0.938  0.0050 -0.4261 -0.1123
  700MOL0     C94411  12.975   8.586   0.360  0.4516  0.1679  0.4437
  700MOL0     C94412  12.860   8.657   0.342  0.7051 -0.2105 -0.0090
  700MOL0     O94413  12.668   8.705   0.115  0.7774  0.0264 -0.2284
  700MOL0     C94414  12.365   8.744   0.301 -0.5567 -0.6781  0.1955
  700MOL0     C94415  12.235   8.793   0.301 -1.0064  0.4631 -0.6864
  700MOL0     N94416  11.414   8.980   0.092  1.2968 -0.2270 -0.2799
  700MOL0     N94417  11.328   8.947   0.194  0.5908 -1.1574 -0.2315
  700MOL0     C94418  10.370   8.428   0.679 -0.0110  0.5735  0.2050
  700MOL0     C94419  10.254   8.476   0.741 -0.4063  0.1408 -0.5185
  700MOL0     C94420   9.859   8.506   0.901  0.2561 -0.0251 -0.8733
  700MOL0     C94421   9.732   8.483   0.851  0.1946  0.4968  0.4412
  700MOL0     C94422   9.623   8.559   0.879  0.1510 -0.5872 -0.7822
  700MOL0     C94423   9.627   8.656   0.981  0.3194 -0.4091  0.2916
  700MOL0     O94424   9.514   8.717   1.029 -0.7523  0.5463  0.0814
  700MOL0     C94425   9.514   8.858   1.064  0.6237  0.0720 -0.5720
  700MOL0     C94426   9.408   8.942   0.997 -0.0001  1.0854  0.1121
  700MOL0     C94427   9.405   9.082   1.069 -0.2865 -0.6421 -0.0926
  700MOL0     C94428   9.337   9.187   0.982 -0.0496  0.0471  0.6029
  700MOL0     C94429   9.204   9.140   0.924 -0.1215 -0.5573  0.3860
  700MOL0     C94430   9.099   9.106   0.870 -0.4212 -0.6007  0.0697
  700MOL0     C94431   9.748   8.682   1.043 -0.2769  0.4035 -0.1999
  700MOL0     C94432   9.864   8.613   1.000  0.0502  0.8117  0.7102
  700MOL0     H94433  10.243   8.257   1.004  0.8815  0.1396  0.5486
  700MOL0     H94434  10.463   8.212   0.910 -1.4029 -2.2040 -0.3685
  700MOL0     H94435  10.627   8.463   0.579 -0.2371  0.9930 -0.1676
  700MOL0     H94436  10.638   8.538   0.748 -2.2421  0.2685 -0.4734
  700MOL0     H94437  10.842   8.390   0.769 -0.4293 -0.5477 -0.7794
  700MOL0     H94438  10.818   8.354   0.598  0.5144 -1.9058  2.0320
  700MOL0     H94439  10.853   8.602   0.546  2.2782  0.8548 -0.6753
  700MOL0     H94440  10.866   8.641   0.713  0.2188  0.6993 -0.5721
  700MOL0     H94441  11.087   8.570   0.732  0.7978  2.4019 -1.4920
  700MOL0     H94442  11.073   8.438   0.619 -1.0750  0.5310 -1.4837
  700MOL0     H94443  11.053   8.601   0.423 -0.7521 -0.5146  0.2898
  700MOL0     H94444  11.077   8.734   0.543 -1.6750  0.3830 -1.8873
  700MOL0     H94445  11.296   8.657   0.602  1.5125 -2.2266  0.4467
  700MOL0     H94446  11.266   8.502   0.519 -0.1417 -0.0673 -1.3306
  700MOL0     H94447  11.420   8.627   0.400  0.6407 -0.2557  0.3903
  700MOL0     H94448  11.263   8.640   0.307  0.0390 -0.2478  0.5299
  700MOL0     H94449  11.394   8.833   0.502 -2.2563  2.0446  1.6697
  700MOL0     H94450  11.233   8.861   0.432 -0.7238 -0.6314 -0.9637
  700MOL0     H94451  11.602   8.827   0.320 -0.1556  0.3725  0.8811
  700MOL0     H94452  11.647   9.033  -0.019 -1.8742 -0.0169  0.5654
  700MOL0     H94453  11.716   9.075   0.137  0.5212  0.7348 -0.5713
  700MOL0     H94454  11.732   8.780   0.050  0.0537 -0.8370  0.3370
  700MOL0     H94455  11.794   8.864   0.192 -1.8884 -1.1634 -0.5226
  700MOL0     H94456  11.891   8.944  -0.081 -1.4708  3.6144  1.1911
  700MOL0     H94457  11.945   8.798   0.001 -2.7151 -0.2794  2.3841
  700MOL0     H94458  11.952   9.075   0.126 -1.0524 -1.2828  1.6377
  700MOL0     H94459  12.085   9.022   0.032  1.0806 -0.9977  0.8328
  700MOL0     H94460  12.255   8.932  -0.009 -0.6411  0.1667 -0.9794
  700MOL0     H94461  12.550   8.803  -0.072  0.0334 -1.0277  1.4991
  700MOL0     H94462  12.443   8.940  -0.101  2.0670  1.1155 -0.7294
  700MOL0     H94463  12.571   8.959   0.019  0.9030  0.0765  0.5350
  700MOL0     H94464  12.638   8.412   0.292  0.0033  0.5816 -1.0199
  700MOL0     H94465  12.858   8.277   0.328 -0.6606  0.5099 -0.3688
  700MOL0     H94466  13.242   8.443   0.276  1.3962 -1.4464 -0.4679
  700MOL0     H94467  13.246   8.493   0.447 -0.9272  0.5018  0.5347
  700MOL0     H94468  13.322   8.213   0.365  3.1363  0.5111 -0.1625
  700MOL0     H94469  13.429   8.341   0.405  1.3125 -0.9890  0.3816
  700MOL0     H94470  13.197   8.272   0.588  1.2342  0.1448  3.8495
  700MOL0     H94471  13.340   8.380   0.619 -0.6476 -1.3050  4.0363
  700MOL0     H94472  13.358   8.084   0.553 -0.6780  0.4771 -0.2547
  700MOL0     H94473  13.491   8.180   0.604  0.6444  0.2605 -0.5078
  700MOL0     H94474  13.232   8.135   0.758  0.9820 -1.4241  2.6053
  700MOL0     H94475  13.371   8.211   0.834 -2.8599  0.3873  1.2487
  700MOL0     H94476  13.316   7.925   0.728 -0.0890  0.0320 -0.9878
  700MOL0     H94477  13.486   7.975   0.762  0.4719  3.9239 -0.6149
  700MOL0     H94478  13.273   7.936   0.967  0.4915 -0.6336  0.2144
  700MOL0     H94479  13.414   8.040   0.987 -0.9104 -0.8502  2.0725
  700MOL0     H94480  13.481   7.834   1.101 -2.7474 -1.8419  0.2614
  700MOL0     H94481  13.561   7.875   0.949 -1.5762  0.6460 -4.2134
  700MOL0     H94482  13.062   8.642   0.394 -0.0719 -0.5951  3.4074
  700MOL0     H94483  12.860   8.765   0.326 -3.0654 -0.0826 -0.0690
  700MOL0     H94484  12.400   8.698   0.393  0.0728  1.4011  1.0583
  700MOL0     H94485  12.175   8.775   0.390  1.7268  2.2616  1.7063
  700MOL0     H94486  10.400   8.474   0.585 -3.0281  2.1858 -0.0818
  700MOL0     H94487  10.191   8.549   0.692  0.4061  2.2535  1.3905
  700MOL0     H94488   9.714   8.411   0.772  2.9791  1.0960 -0.8666
  700MOL0     H94489   9.527   8.529   0.837 -0.5917 -0.5692  0.8309
  700MOL0     H94490   9.500   8.865   1.172 -1.7148  1.6689 -0.9180
  700MOL0     H94491   9.610   8.907   1.045 -0.8542  3.1742 -0.6616
  700MOL0     H94492   9.314   8.890   1.018 -0.6513  2.6981  1.3178
  700MOL0     H94493   9.427   8.951   0.889  0.3813 -4.0375 -0.5438
  700MOL0     H94494   9.512   9.102   1.080 -0.0745 -0.5267 -1.9931
  700MOL0     H94495   9.363   9.079   1.170 -1.8526 -0.9408 -0.7270
  700MOL0     H94496   9.402   9.214   0.898 -0.1098  0.1985  0.6053
  700MOL0     H94497   9.326   9.277   1.043 -1.9641  1.8368 -2.1351
  700MOL0     H94498   8.998   9.078   0.847 -0.6785  0.6903 -0.4483
  700MOL0     H94499   9.760   8.751   1.126  1.8609 -0.2804  0.1143
  700MOL0     H94500   9.958   8.621   1.053  0.1821  3.3711  0.1943
  701MOL0     O94501  11.191   6.033   9.730  0.5871  0.5335  0.4503
  701MOL0     C94502  11.296   6.051   9.664  0.0830 -0.7854 -0.3444
  701MOL0     O94503  11.317   6.169   9.587  0.5841 -0.0541  0.3365
  701MOL0     C94504  11.203   6.233   9.545 -1.0707  0.9765 -0.2420
  701MOL0     C94505  11.159   6.351   9.603  0.1300  0.1170 -0.9331
  701MOL0     C94506  11.052   6.415   9.543 -0.0693 -0.0625 -0.8208
  701MOL0     C94507  10.968   6.352   9.453 -0.2560 -0.3826 -1.9627
  701MOL0     O94508  10.859   6.413   9.404 -0.5019 -0.2951 -0.1362
  701MOL0     C94509  10.773   6.455   9.507  0.9590  0.0812  0.2996
  701MOL0     C94510  10.652   6.532   9.455  1.1201 -0.6844  0.9570
  701MOL0     C94511  10.693   6.659   9.387  0.0715 -0.7384  0.3041
  701MOL0     C94512  10.578   6.761   9.379 -0.2110 -0.1527  0.8796
  701MOL0     C94513  10.593   6.864   9.260 -0.5833 -0.4120  0.6091
  701MOL0     C94514  10.709   6.957   9.290 -0.3476  0.1573  0.4310
  701MOL0     C94515  10.687   7.086   9.201 -0.1671 -0.0690 -0.7977
  701MOL0     C94516  10.584   7.183   9.246 -0.2453  0.1165 -0.7195
  701MOL0     N94517  10.643   7.289   9.336 -0.4329  0.0143  0.2505
  701MOL0     C94518  10.631   7.283   9.469 -0.6165  0.4221  0.5496
  701MOL0     C94519  10.661   7.404   9.513 -0.0891  0.2076  0.1718
  701MOL0     C94520  10.678   7.463   9.649 -0.1879  0.5180  0.0890
  701MOL0     C94521  10.546   7.540   9.670 -0.3023  0.6753 -0.8774
  701MOL0     C94522  10.563   7.644   9.781  0.3102 -0.1957 -0.2699
  701MOL0     C94523  10.568   7.574   9.914  0.9664  0.6754  0.1429
  701MOL0     O94524  10.530   7.655  10.026 -0.0968  0.3117 -0.1322
  701MOL0     C94525  10.407   7.681  10.069 -0.4076  0.6352 -0.2474
  701MOL0     C94526  10.295   7.624  10.019 -0.3070  0.6683  0.5069
  701MOL0     C94527  10.170   7.642  10.080 -0.7608 -0.8363 -0.3418
  701MOL0     C94528  10.052   7.576  10.014  0.5601  0.2697  0.4460
  701MOL0     C94529  10.152   7.730  10.189  0.3905 -0.1148 -0.3338
  701MOL0     C94530  10.019   7.741  10.267  0.4346  0.8919  0.1745
  701MOL0     O94531   9.918   7.643  10.265 -0.6981  0.3050 -0.2616
  701MOL0     C94532   9.801   7.662  10.337 -0.8585 -0.3544  0.7333
  701MOL0     C94533   9.676   7.644  10.275  0.2993 -0.4307  0.2525
  701MOL0     C94534   9.563   7.652  10.352  0.6897  0.9675  0.2523
  701MOL0     C94535   9.557   7.687  10.481  0.1502  0.9855  1.3925
  701MOL0     O94536   9.436   7.698  10.543  0.2142 -0.1798 -0.2753
  701MOL0     C94537   9.413   7.760  10.675 -0.9695  0.1176 -0.3928
  701MOL0     C94538   9.284   7.710  10.739 -0.5293 -1.1040  0.5754
  701MOL0     C94539   9.260   7.560  10.741 -0.1012  0.3394 -0.0134
  701MOL0     C94540   9.173   7.510  10.622 -0.1589  0.0386  0.6437
  701MOL0     C94541   9.139   7.362  10.642 -0.2372 -0.6189 -0.5481
  701MOL0     C94542   9.017   7.331  10.731  0.0545 -0.2669 -0.0043
  701MOL0     C94543   8.972   7.182  10.723  0.9046  0.0524  0.1865
  701MOL0     C94544   8.836   7.143  10.787  0.4274 -0.6227  0.6941
  701MOL0    Cl94545   8.836   7.179  10.963 -0.7640 -0.1597 -0.2833
  701MOL0     C94546   9.676   7.722  10.542 -0.1429 -0.1092  0.8862
  701MOL0     C94547   9.799   7.707  10.474 -0.2618 -0.2369  0.3565
  701MOL0     O94548  10.013   7.831  10.348  0.1693 -0.1362  0.7461
  701MOL0     C94549  10.268   7.801  10.226  0.0724 -0.4526 -0.5182
  701MOL0     C94550  10.391   7.777  10.174 -0.0616 -0.1018 -0.1798
  701MOL0     N94551  10.694   7.485   9.406 -0.2488 -0.3460 -0.0268
  701MOL0     N94552  10.688   7.414   9.302  0.1776  0.0905 -0.1830
  701MOL0     C94553  11.012   6.232   9.402 -0.1079 -0.4416  0.2459
  701MOL0     C94554  11.129   6.168   9.439 -0.0652 -0.4727 -0.1311
  701MOL0     C94555  11.400   5.949   9.664 -0.3924  0.4537 -0.0429
  701MOL0     C94556  11.403   5.849   9.760 -0.2337 -0.8609 -0.0483
  701MOL0     C94557  11.492   5.742   9.751  0.5390 -0.3214  0.1520
  701MOL0     C94558  11.597   5.741   9.659 -0.2355  0.9559  0.4207
  701MOL0     O94559  11.683   5.630   9.645 -0.5107 -0.0295 -0.5933
  701MOL0     C94560  11.690   5.533   9.756  0.0717 -0.1483 -1.2556
  701MOL0     C94561  11.595   5.419   9.718  0.7429 -0.4821 -1.3988
  701MOL0     C94562  11.654   5.335   9.614  0.1177  0.2607 -0.4721
  701MOL0     C94563  11.689   5.185   9.665  0.1355 -0.8709 -0.3622
  701MOL0     C94564  11.812   5.186   9.744  0.3154  0.1026 -0.4203
  701MOL0     C94565  11.922   5.170   9.793  0.1393  0.9001  0.3357
  701MOL0     C94566  11.604   5.850   9.575  1.5610 -0.0710  1.3225
  701MOL0     C94567  11.504   5.945   9.568  0.2540 -0.1753 -0.0275
  701MOL0     H94568  11.216   6.394   9.684  1.0470 -1.0296 -0.9479
  701MOL0     H94569  11.031   6.514   9.583  1.4251 -1.1484  3.1024
  701MOL0     H94570  10.740   6.373   9.570  0.4117  0.8016  0.9701
  701MOL0     H94571  10.820   6.532   9.569  1.4811  1.3711 -1.5890
  701MOL0     H94572  10.595   6.460   9.396 -0.3355  0.4378  0.9142
  701MOL0     H94573  10.593   6.569   9.540  0.1408  0.7510 -0.2812
  701MOL0     H94574  10.780   6.703   9.437 -1.0545  1.6183  0.3469
  701MOL0     H94575  10.723   6.640   9.283 -2.2895  4.0544 -1.5925
  701MOL0     H94576  10.484   6.706   9.368  0.1359 -0.6929  0.6385
  701MOL0     H94577  10.579   6.813   9.476 -0.8651 -0.2319  0.9316
  701MOL0     H94578  10.605   6.822   9.160 -1.3681 -1.1992  0.8299
  701MOL0     H94579  10.497   6.916   9.254 -2.0701 -2.2148  4.5601
  701MOL0     H94580  10.711   6.992   9.394 -0.3936  0.2077  0.4145
  701MOL0     H94581  10.805   6.909   9.268  0.1988  0.9174  1.0996
  701MOL0     H94582  10.782   7.137   9.188 -1.2424  2.8502  1.6898
  701MOL0     H94583  10.671   7.043   9.101  3.3865 -1.5309 -0.8995
  701MOL0     H94584  10.506   7.126   9.298 -1.0412 -0.3409 -2.3308
  701MOL0     H94585  10.540   7.236   9.161  1.1142 -1.1551 -2.2829
  701MOL0     H94586  10.602   7.195   9.525 -0.4592 -0.3108 -0.4998
  701MOL0     H94587  10.687   7.386   9.726 -0.3953  0.2485 -0.1576
  701MOL0     H94588  10.757   7.539   9.656  1.1403 -0.8271  0.0451
  701MOL0     H94589  10.456   7.478   9.679 -0.2494  0.9267  2.2926
  701MOL0     H94590  10.518   7.579   9.571  0.3905  0.7222 -1.0578
  701MOL0     H94591  10.481   7.716   9.774  2.4036  2.3149 -0.4945
  701MOL0     H94592  10.653   7.703   9.764 -0.2991  1.5198  1.9639
  701MOL0     H94593  10.671   7.541   9.928  0.6837 -0.1442  0.3628
  701MOL0     H94594  10.504   7.485   9.909  1.4360  0.3713 -0.6684
  701MOL0     H94595  10.298   7.556   9.935 -1.7670  1.3603 -0.1319
  701MOL0     H94596  10.070   7.564   9.907  1.0656  2.8662  0.1604
  701MOL0     H94597  10.028   7.479  10.057  1.1420  0.4307  1.1583
  701MOL0     H94598   9.956   7.629  10.025 -0.3321 -1.2252  0.1299
  701MOL0     H94599   9.654   7.617  10.173 -0.7829  1.4356 -0.0663
  701MOL0     H94600   9.470   7.636  10.299  0.4101  0.9687  0.7410
  701MOL0     H94601   9.491   7.726  10.744  1.5709  0.3766 -2.9699
  701MOL0     H94602   9.412   7.870  10.672 -0.0957  0.1131 -1.6186
  701MOL0     H94603   9.285   7.764  10.834 -0.6992 -1.2955  0.6853
  701MOL0     H94604   9.206   7.754  10.676  0.7266  0.6945  0.1887
  701MOL0     H94605   9.213   7.533  10.835 -0.3505  2.7808  0.6263
  701MOL0     H94606   9.352   7.502  10.737  1.0708  2.1703 -1.6385
  701MOL0     H94607   9.083   7.572  10.609 -0.6347 -0.4694  1.4748
  701MOL0     H94608   9.234   7.525  10.532 -0.2188  3.2850  1.0324
  701MOL0     H94609   9.218   7.316  10.702  1.0318  0.4889 -1.3174
  701MOL0     H94610   9.141   7.313  10.545  1.4049  0.2058 -0.9568
  701MOL0     H94611   9.038   7.361  10.834  0.8112  2.6157 -0.8876
  701MOL0     H94612   8.930   7.387  10.695 -0.7845 -1.9059 -0.6394
  701MOL0     H94613   9.047   7.115  10.766 -1.1298 -2.0547  0.6474
  701MOL0     H94614   8.970   7.143  10.621  1.4035 -1.0985  0.6041
  701MOL0     H94615   8.811   7.037  10.773  0.7660 -0.5865 -0.2661
  701MOL0     H94616   8.762   7.208  10.739  2.3165  1.3263  0.2675
  701MOL0     H94617   9.690   7.767  10.640 -0.8462 -1.8441  1.8282
  701MOL0     H94618   9.887   7.727  10.534 -0.1286  1.2750 -0.3056
  701MOL0     H94619  10.271   7.869  10.310 -0.3332  0.8808 -1.5534
  701MOL0     H94620  10.479   7.822  10.220 -0.0157 -0.5283  0.1525
  701MOL0     H94621  10.969   6.208   9.305 -1.2208  2.7271 -0.1410
  701MOL0     H94622  11.153   6.076   9.386  0.8441 -0.2927 -0.0498
  701MOL0     H94623  11.327   5.852   9.837 -1.3894  0.7827 -1.1870
  701MOL0     H94624  11.465   5.661   9.817 -0.6376  0.7769  1.0513
  701MOL0     H94625  11.788   5.492   9.780  0.3564  1.1507 -0.0244
  701MOL0     H94626  11.660   5.579   9.851 -1.0122 -0.1462 -1.5828
  701MOL0     H94627  11.497   5.452   9.683 -0.4888 -2.9253 -0.4567
  701MOL0     H94628  11.576   5.365   9.810  0.0334  3.0539  0.7334
  701MOL0     H94629  11.750   5.377   9.582  0.4842 -0.5860 -0.5268
  701MOL0     H94630  11.590   5.337   9.525 -0.6768  0.1779  0.0859
  701MOL0     H94631  11.689   5.121   9.576  2.5588  1.3850 -2.1297
  701MOL0     H94632  11.616   5.149   9.738  0.2772 -3.8359 -1.5299
  701MOL0     H94633  12.017   5.158   9.840 -0.4870 -0.5923  1.2834
  701MOL0     H94634  11.684   5.847   9.502 -2.1578 -0.2745 -3.2314
  701MOL0     H94635  11.499   6.015   9.485  2.4753  2.0951  1.5915
  702MOL0     O94636   0.156   8.211   9.526 -0.4022  0.2592  0.6872
  702MOL0     C94637   0.053   8.229   9.451  1.0121  0.5412 -0.4689
  702MOL0     O94638   0.047   8.196   9.317 -0.0648 -0.4575 -0.0466
  702MOL0     C94639   0.106   8.078   9.272  0.5550  0.4499 -1.5338
  702MOL0     C94640   0.125   7.965   9.353 -1.0349  0.9282  0.7492
  702MOL0     C94641   0.181   7.849   9.291  0.3043 -0.2717 -0.3351
  702MOL0     C94642   0.203   7.845   9.149  0.5144 -0.1628  0.1041
  702MOL0     O94643   0.255   7.739   9.075 -0.2673 -0.2674 -0.2621
  702MOL0     C94644   0.301   7.632   9.159 -0.7014  0.5659  0.1369
  702MOL0     C94645   0.352   7.506   9.067  0.1760  0.8284 -0.3820
  702MOL0     C94646   0.226   7.439   8.991 -0.1644  0.4216  0.4574
  702MOL0     C94647   0.267   7.337   8.884  0.4823  0.2416  1.1241
  702MOL0     C94648   0.154   7.270   8.809  1.0187  0.4467  0.1235
  702MOL0     C94649   0.108   7.139   8.882  0.4285 -0.2121 -0.2995
  702MOL0     C94650   0.010   7.061   8.800  0.0948  1.1251  0.4540
  702MOL0     C94651  -0.133   7.110   8.835  0.6742  0.4003  0.6097
  702MOL0     N94652  -0.231   7.024   8.760 -0.6454  0.1241  0.0273
  702MOL0     C94653  -0.268   6.902   8.788 -0.0004  0.8352  0.8936
  702MOL0     C94654  -0.369   6.879   8.708 -0.7775  1.0081 -0.1902
  702MOL0     C94655  -0.461   6.765   8.695 -0.5262  0.7622 -0.4571
  702MOL0     C94656  -0.533   6.744   8.559  0.2535 -0.3168 -0.1579
  702MOL0     C94657  -0.663   6.667   8.582 -0.5269 -0.3571 -0.2018
  702MOL0     C94658  -0.769   6.696   8.474  0.0883 -0.6839  1.0167
  702MOL0     O94659  -0.874   6.773   8.535  0.6222  0.1923 -0.1776
  702MOL0     C94660  -0.895   6.893   8.484 -0.2141 -0.3649 -0.6334
  702MOL0     C94661  -1.007   6.943   8.419 -0.5020  0.6823 -0.2582
  702MOL0     C94662  -1.006   7.068   8.361  0.3001  0.2902 -0.1829
  702MOL0     C94663  -1.131   7.108   8.289  0.3308  0.5376  0.1036
  702MOL0     C94664  -0.893   7.158   8.364  0.0761  0.2256  0.6673
  702MOL0     C94665  -0.875   7.290   8.292 -0.8877 -0.4522  0.1959
  702MOL0     O94666  -0.761   7.360   8.314 -0.9267  0.0377 -0.2167
  702MOL0     C94667  -0.718   7.469   8.250  0.9381 -0.5508  0.0929
  702MOL0     C94668  -0.789   7.550   8.163  0.0382 -0.2475 -0.1896
  702MOL0     C94669  -0.725   7.656   8.099  0.8790  0.5848  0.1675
  702MOL0     C94670  -0.589   7.681   8.120  0.6517 -0.1840 -0.3629
  702MOL0     O94671  -0.522   7.787   8.066  0.3631 -0.2564  0.7330
  702MOL0     C94672  -0.439   7.759   7.953  0.3915 -0.2965  0.2906
  702MOL0     C94673  -0.508   7.746   7.821  0.9551 -0.2222  0.3408
  702MOL0     C94674  -0.559   7.884   7.769 -0.7664 -0.4873 -0.3341
  702MOL0     C94675  -0.628   7.870   7.624 -0.0781  0.1441 -0.5294
  702MOL0     C94676  -0.678   8.009   7.575 -0.3809  0.3518 -0.2686
  702MOL0     C94677  -0.723   8.011   7.428 -1.1897  0.2787  0.2186
  702MOL0     C94678  -0.849   7.945   7.406  0.4116 -0.6417  0.1986
  702MOL0     C94679  -0.977   8.014   7.467 -0.3440 -0.3255  0.5368
  702MOL0    Cl94680  -1.009   7.962   7.632 -0.5444 -0.1352 -0.3933
  702MOL0     C94681  -0.520   7.598   8.203  0.6203  0.4230  0.9704
  702MOL0     C94682  -0.583   7.502   8.276  0.3253  0.7903 -0.9847
  702MOL0     O94683  -0.958   7.327   8.215 -0.1355  0.3673 -0.6562
  702MOL0     C94684  -0.789   7.114   8.445 -0.3401  0.3346  0.3661
  702MOL0     C94685  -0.795   6.989   8.507 -0.3387  0.1870  1.1077
  702MOL0     N94686  -0.398   6.994   8.637 -0.7935 -0.8869  0.0755
  702MOL0     N94687  -0.316   7.088   8.670 -0.8342 -0.2269  0.1537
  702MOL0     C94688   0.173   7.959   9.075 -0.4916  0.0569  0.0826
  702MOL0     C94689   0.131   8.073   9.136  0.1165 -0.0423 -1.1384
  702MOL0     C94690  -0.058   8.309   9.517 -0.2592  0.7245  0.2612
  702MOL0     C94691  -0.046   8.387   9.629 -0.6852 -0.0365 -1.4270
  702MOL0     C94692  -0.156   8.437   9.701  1.0005  0.1660 -0.4520
  702MOL0     C94693  -0.284   8.429   9.650 -1.4266  0.5850 -0.1601
  702MOL0     O94694  -0.389   8.469   9.736 -0.1197  0.3086  0.9980
  702MOL0     C94695  -0.531   8.470   9.691  0.4778  1.2579  0.4345
  702MOL0     C94696  -0.556   8.582   9.587 -0.2470  1.1203  0.3861
  702MOL0     C94697  -0.713   8.621   9.581  0.9345 -0.0204  1.5120
  702MOL0     C94698  -0.757   8.685   9.451  0.4623  0.0771  0.2992
  702MOL0     C94699  -0.669   8.800   9.430 -0.3330 -0.0214 -0.1245
  702MOL0     C94700  -0.603   8.899   9.421 -0.1207  1.0720  0.5387
  702MOL0     C94701  -0.296   8.373   9.522 -0.5430 -0.2630  0.6726
  702MOL0     C94702  -0.187   8.307   9.457  0.3634 -0.8756 -1.0102
  702MOL0     H94703   0.118   7.957   9.461 -0.2084  1.2557  0.8302
  702MOL0     H94704   0.213   7.769   9.356  0.2410  0.2237  0.3185
  702MOL0     H94705   0.388   7.662   9.218 -1.3090  4.8296 -0.7909
  702MOL0     H94706   0.216   7.598   9.219 -2.2418  3.0640 -0.4983
  702MOL0     H94707   0.422   7.548   8.994  1.1728  2.6124  1.5105
  702MOL0     H94708   0.402   7.431   9.129  0.1278 -0.1675 -1.5117
  702MOL0     H94709   0.166   7.386   9.066  0.1511  0.5812  0.8303
  702MOL0     H94710   0.160   7.514   8.946 -0.4665  0.6336  1.2325
  702MOL0     H94711   0.329   7.400   8.819 -0.6305  0.2259  0.0120
  702MOL0     H94712   0.323   7.253   8.926  1.7305 -0.6470 -2.0371
  702MOL0     H94713   0.067   7.333   8.793  0.0200 -0.5633  1.3848
  702MOL0     H94714   0.196   7.235   8.714 -0.6071  0.7190 -0.7258
  702MOL0     H94715   0.200   7.081   8.892  1.9340  1.1157 -4.2987
  702MOL0     H94716   0.066   7.169   8.978  0.3822 -0.9325 -0.0894
  702MOL0     H94717   0.038   7.076   8.695  1.9878  2.6430  1.1214
  702MOL0     H94718   0.015   6.953   8.816 -1.2040  1.1412  1.0833
  702MOL0     H94719  -0.154   7.212   8.801  0.4711 -0.4347 -1.9890
  702MOL0     H94720  -0.148   7.104   8.943  2.0193 -1.6349  0.7291
  702MOL0     H94721  -0.212   6.839   8.857 -0.1095  2.9056  2.9958
  702MOL0     H94722  -0.400   6.677   8.716  2.6797  3.0904  0.7032
  702MOL0     H94723  -0.531   6.774   8.779 -0.4574  1.3285 -0.4560
  702MOL0     H94724  -0.465   6.692   8.491 -2.1934 -2.2778 -1.2418
  702MOL0     H94725  -0.562   6.838   8.511 -0.1066 -0.3157  0.0557
  702MOL0     H94726  -0.709   6.677   8.681 -0.2573  0.1855 -0.1334
  702MOL0     H94727  -0.628   6.564   8.572  1.0955 -0.1381  2.5054
  702MOL0     H94728  -0.795   6.603   8.422  2.1305 -0.5493 -0.3678
  702MOL0     H94729  -0.720   6.748   8.391 -0.4431  1.5436  2.0340
  702MOL0     H94730  -1.085   6.871   8.401  2.2920 -2.6910  0.1247
  702MOL0     H94731  -1.157   7.212   8.309 -0.7709 -0.2516  3.4526
  702MOL0     H94732  -1.116   7.078   8.185  0.4487 -3.1492  1.0515
  702MOL0     H94733  -1.217   7.054   8.330  0.6120  0.7641  1.0197
  702MOL0     H94734  -0.896   7.537   8.151  0.5008 -3.6612 -1.6394
  702MOL0     H94735  -0.784   7.725   8.040  0.6393 -0.6758 -1.1322
  702MOL0     H94736  -0.369   7.840   7.932 -2.6875  1.7055 -3.7170
  702MOL0     H94737  -0.396   7.660   7.974 -0.9879 -0.8231  0.7888
  702MOL0     H94738  -0.445   7.699   7.745 -2.0701 -2.9753 -0.7196
  702MOL0     H94739  -0.595   7.684   7.842  0.2732  0.4061 -0.5021
  702MOL0     H94740  -0.480   7.959   7.766 -0.2163 -0.9972  0.6861
  702MOL0     H94741  -0.632   7.917   7.843  0.4769  1.0999  0.2236
  702MOL0     H94742  -0.559   7.832   7.549 -0.5653  0.1059 -0.9667
  702MOL0     H94743  -0.713   7.801   7.623 -1.2627  1.5455 -2.2522
  702MOL0     H94744  -0.591   8.075   7.584  1.7695 -2.2510 -0.4620
  702MOL0     H94745  -0.757   8.038   7.644 -0.4682  3.2764 -1.4513
  702MOL0     H94746  -0.711   8.113   7.391 -1.2751 -0.0769 -0.8104
  702MOL0     H94747  -0.648   7.959   7.368  0.9796  0.4325  2.6400
  702MOL0     H94748  -0.851   7.838   7.430 -3.0616 -0.0830  3.1773
  702MOL0     H94749  -0.865   7.943   7.297  1.2775 -0.4151  0.0565
  702MOL0     H94750  -1.063   7.988   7.405  2.4824 -1.2832 -3.3682
  702MOL0     H94751  -0.969   8.123   7.458  0.3986 -0.5036 -1.5639
  702MOL0     H94752  -0.414   7.618   8.220  0.5831  2.8536 -1.0411
  702MOL0     H94753  -0.527   7.439   8.344 -0.8732 -1.5722 -2.0456
  702MOL0     H94754  -0.700   7.176   8.451  0.6288 -1.1367  1.9446
  702MOL0     H94755  -0.712   6.948   8.563 -1.9990 -2.4052  1.8614
  702MOL0     H94756   0.195   7.955   8.968 -0.3620 -0.7626  0.1353
  702MOL0     H94757   0.107   8.160   9.075  2.2450  1.1494 -0.3924
  702MOL0     H94758   0.047   8.397   9.685 -1.1264 -0.3426 -0.6312
  702MOL0     H94759  -0.135   8.471   9.802  1.0334 -0.5868 -0.2004
  702MOL0     H94760  -0.539   8.365   9.662 -2.0109  1.4861  0.0903
  702MOL0     H94761  -0.602   8.480   9.773  0.2123  0.9016  0.2507
  702MOL0     H94762  -0.521   8.550   9.489 -1.4817  2.8296 -0.6574
  702MOL0     H94763  -0.502   8.673   9.614  0.7788 -0.2128  3.2569
  702MOL0     H94764  -0.740   8.676   9.672 -0.1694  1.0671  0.5601
  702MOL0     H94765  -0.767   8.526   9.591 -1.0556  0.7288 -0.9815
  702MOL0     H94766  -0.866   8.699   9.456  0.4726  0.1357  0.3643
  702MOL0     H94767  -0.756   8.612   9.369 -0.3784 -1.1475  1.3379
  702MOL0     H94768  -0.541   8.986   9.429 -2.2673  2.4963  3.3817
  702MOL0     H94769  -0.385   8.376   9.460 -0.9470  1.7924  1.2688
  702MOL0     H94770  -0.210   8.241   9.374 -1.9272 -0.5655 -0.6951
  703MOL0     O94771   5.502   5.031   4.081  0.3153 -0.4665 -1.3270
  703MOL0     C94772   5.574   5.124   4.060  0.4263 -0.4117 -0.4872
  703MOL0     O94773   5.534   5.241   3.998  0.3059  0.0838 -0.2565
  703MOL0     C94774   5.398   5.269   3.997  0.0676  0.2344 -0.4408
  703MOL0     C94775   5.345   5.341   4.100 -0.3012 -0.2494 -0.1725
  703MOL0     C94776   5.218   5.392   4.084 -0.7168  0.3244  0.6749
  703MOL0     C94777   5.141   5.341   3.973  0.2530  0.1188  0.1969
  703MOL0     O94778   5.008   5.374   3.980  0.0286  0.0480 -0.1554
  703MOL0     C94779   4.915   5.294   3.899  0.2248  0.8836  0.0450
  703MOL0     C94780   4.772   5.279   3.958  0.1297  0.4326  0.3951
  703MOL0     C94781   4.709   5.411   3.976 -0.0551  0.5116  1.1598
  703MOL0     C94782   4.682   5.493   3.849  0.0447  0.7789 -0.5138
  703MOL0     C94783   4.601   5.623   3.860  0.4290  0.0608  0.4872
  703MOL0     C94784   4.654   5.711   3.968 -0.0391 -0.1921 -0.2310
  703MOL0     C94785   4.570   5.843   3.988 -0.5112  0.2585  0.5638
  703MOL0     C94786   4.622   5.950   3.898 -0.0939 -0.0135  0.2249
  703MOL0     N94787   4.511   6.048   3.874 -0.2640 -0.1469 -0.7930
  703MOL0     C94788   4.459   6.083   3.753 -0.0970  0.0462  0.0832
  703MOL0     C94789   4.346   6.164   3.776  0.3754 -0.0391 -0.1981
  703MOL0     C94790   4.249   6.229   3.685 -0.8298  0.4910  0.3283
  703MOL0     C94791   4.296   6.364   3.615 -0.4692  0.1263 -0.6637
  703MOL0     C94792   4.319   6.470   3.716  0.2584 -0.3591 -0.2961
  703MOL0     C94793   4.327   6.609   3.671  0.3656  0.2662  1.0799
  703MOL0     O94794   4.222   6.656   3.588  0.2973  0.0697  0.4012
  703MOL0     C94795   4.089   6.685   3.630 -0.2910  0.4604 -0.1496
  703MOL0     C94796   4.036   6.673   3.760  0.5681 -0.4836 -0.2097
  703MOL0     C94797   3.903   6.705   3.783  0.1199  0.5459 -0.8487
  703MOL0     C94798   3.843   6.670   3.923 -0.0665 -0.9229 -0.9096
  703MOL0     C94799   3.815   6.755   3.680  0.4330 -0.1185 -0.5713
  703MOL0     C94800   3.671   6.796   3.699  0.2393 -0.4782 -0.0829
  703MOL0     O94801   3.625   6.901   3.629 -0.1499 -0.1668  0.5016
  703MOL0     C94802   3.490   6.925   3.636  0.0219  0.1202  1.0345
  703MOL0     C94803   3.404   6.879   3.543 -0.6702  0.2735  0.2654
  703MOL0     C94804   3.266   6.910   3.544 -0.2161 -0.3380  0.2451
  703MOL0     C94805   3.223   7.008   3.636  0.5898  0.5624  0.0782
  703MOL0     O94806   3.104   7.073   3.635  0.0180  0.5161 -0.0820
  703MOL0     C94807   3.009   7.005   3.552  0.2720 -0.3526 -0.4432
  703MOL0     C94808   2.877   7.076   3.564  0.4695  0.5930  0.6126
  703MOL0     C94809   2.773   7.020   3.470  0.7218  0.4175  0.2659
  703MOL0     C94810   2.630   7.053   3.524 -0.8824  0.2350  0.6082
  703MOL0     C94811   2.522   7.038   3.410 -0.3832 -0.6527 -0.0824
  703MOL0     C94812   2.383   7.028   3.474 -1.1994 -0.0347  0.2734
  703MOL0     C94813   2.278   7.038   3.364  0.4759  0.7876  0.3435
  703MOL0     C94814   2.138   6.992   3.415 -0.0304  0.0474 -0.1912
  703MOL0    Cl94815   2.010   7.023   3.288 -0.1016  0.4654 -0.4543
  703MOL0     C94816   3.309   7.049   3.731  0.7062 -0.2433  0.3629
  703MOL0     C94817   3.437   7.001   3.734 -0.0206  0.6334  0.4741
  703MOL0     O94818   3.601   6.721   3.764 -0.3395  0.0551  0.6107
  703MOL0     C94819   3.883   6.775   3.559  0.3575  0.3064  0.2460
  703MOL0     C94820   4.016   6.739   3.530  0.3457 -0.1500 -0.1493
  703MOL0     N94821   4.335   6.175   3.912 -0.2306  0.7359  0.5919
  703MOL0     N94822   4.435   6.117   3.961  0.3670  0.0562 -0.4533
  703MOL0     C94823   5.193   5.265   3.873  0.0262 -0.0997  0.7911
  703MOL0     C94824   5.327   5.228   3.884  0.3789  0.2079 -0.2751
  703MOL0     C94825   5.715   5.105   4.084 -0.2850  0.0486 -0.0891
  703MOL0     C94826   5.765   5.018   4.181  0.7327  0.6243  0.0766
  703MOL0     C94827   5.905   4.998   4.199 -1.7121 -0.5788  0.2416
  703MOL0     C94828   6.001   5.075   4.121 -0.0757 -0.5736 -0.4405
  703MOL0     O94829   6.130   5.062   4.166 -0.2164  0.0066  0.3672
  703MOL0     C94830   6.236   5.141   4.104  0.8442 -0.1671  0.8314
  703MOL0     C94831   6.380   5.086   4.133  0.2317 -0.2907  0.1849
  703MOL0     C94832   6.477   5.173   4.050  0.6767  0.8034 -0.1719
  703MOL0     C94833   6.624   5.124   4.079 -0.2585  0.3264  0.1351
  703MOL0     C94834   6.714   5.177   3.980  0.2523  0.4667  0.2051
  703MOL0     C94835   6.805   5.191   3.904  0.2872 -0.0534  0.3959
  703MOL0     C94836   5.946   5.168   4.026  0.4502 -0.2262  0.3400
  703MOL0     C94837   5.808   5.177   4.003  1.4309 -0.5489  0.3905
  703MOL0     H94838   5.421   5.371   4.171  0.8802 -2.5407 -0.3883
  703MOL0     H94839   5.180   5.456   4.163  0.3976  0.7751  0.8557
  703MOL0     H94840   4.906   5.322   3.794 -5.4692  0.3804  0.0763
  703MOL0     H94841   4.953   5.192   3.893  0.2734  0.9199 -0.2927
  703MOL0     H94842   4.721   5.217   3.884  0.7555  1.4686 -0.9615
  703MOL0     H94843   4.780   5.225   4.053 -0.8332 -1.6901 -0.6594
  703MOL0     H94844   4.608   5.389   4.010 -0.3114  0.4942  0.4157
  703MOL0     H94845   4.761   5.469   4.053  0.4725 -1.0236  2.0007
  703MOL0     H94846   4.782   5.519   3.811  1.9945 -3.8106  0.8223
  703MOL0     H94847   4.638   5.422   3.779  0.7950  0.9517 -1.1830
  703MOL0     H94848   4.608   5.674   3.763  2.9967 -1.2997 -0.1423
  703MOL0     H94849   4.493   5.608   3.869  0.5064 -0.4480  0.5849
  703MOL0     H94850   4.641   5.646   4.055 -0.4799 -1.1736 -1.0122
  703MOL0     H94851   4.758   5.737   3.949  0.0260  0.2495  0.7070
  703MOL0     H94852   4.462   5.826   3.982 -0.2806 -0.9284 -0.8316
  703MOL0     H94853   4.603   5.884   4.083 -0.2290  3.7813 -0.8800
  703MOL0     H94854   4.662   5.925   3.799 -0.0494 -0.2488  0.3026
  703MOL0     H94855   4.700   5.995   3.960 -0.6104 -0.4321  1.1934
  703MOL0     H94856   4.490   6.044   3.656  2.3409  2.1870 -0.0979
  703MOL0     H94857   4.219   6.158   3.607  0.7101  0.2628 -0.0780
  703MOL0     H94858   4.158   6.256   3.740 -0.8892 -0.7631  0.8650
  703MOL0     H94859   4.207   6.380   3.554  0.6115 -0.6024 -2.5472
  703MOL0     H94860   4.388   6.352   3.556  0.4194 -1.6636  0.9544
  703MOL0     H94861   4.411   6.444   3.771  0.1329 -1.1185 -0.4414
  703MOL0     H94862   4.244   6.455   3.794 -0.8534 -1.3382 -1.5145
  703MOL0     H94863   4.415   6.598   3.606 -1.2368 -2.7317 -0.8233
  703MOL0     H94864   4.359   6.675   3.751  1.4892  3.0330 -1.4663
  703MOL0     H94865   4.085   6.620   3.840 -2.9413  0.7755  3.1127
  703MOL0     H94866   3.757   6.602   3.917  0.4996 -1.7760  0.2583
  703MOL0     H94867   3.913   6.631   3.997 -2.7469 -0.2324  2.2380
  703MOL0     H94868   3.804   6.764   3.962 -0.2306  0.8216 -4.8701
  703MOL0     H94869   3.441   6.815   3.464 -1.0271  1.6873 -1.1083
  703MOL0     H94870   3.204   6.863   3.467  0.7101  0.9228 -1.3436
  703MOL0     H94871   3.050   7.002   3.450  3.0426  0.8873  0.5196
  703MOL0     H94872   2.999   6.900   3.583 -0.7345  0.5491  2.6032
  703MOL0     H94873   2.831   7.047   3.660  1.1708 -4.6847 -0.3089
  703MOL0     H94874   2.893   7.183   3.551 -1.4015  0.8782  0.2803
  703MOL0     H94875   2.794   6.913   3.455  0.5049  0.0125  2.5038
  703MOL0     H94876   2.793   7.068   3.374  0.1490  0.7306  0.2964
  703MOL0     H94877   2.600   6.979   3.598 -2.0077  1.7328  1.7175
  703MOL0     H94878   2.643   7.152   3.569 -1.6041 -0.1646  1.7166
  703MOL0     H94879   2.529   6.947   3.349  1.9802  0.7980 -2.1823
  703MOL0     H94880   2.521   7.125   3.344 -1.8391 -0.7990 -0.2991
  703MOL0     H94881   2.375   6.948   3.549  2.9957 -1.3715 -0.4103
  703MOL0     H94882   2.385   7.120   3.533 -0.9587  0.0589  0.1228
  703MOL0     H94883   2.308   6.966   3.287  0.5926  0.8391  0.3407
  703MOL0     H94884   2.269   7.142   3.331  0.8055  0.5331 -0.5779
  703MOL0     H94885   2.116   7.033   3.514  1.2454  0.7642 -0.1836
  703MOL0     H94886   2.136   6.883   3.421 -2.4072  0.0399 -0.0527
  703MOL0     H94887   3.288   7.123   3.808  1.1096  0.3595 -0.0930
  703MOL0     H94888   3.508   7.035   3.809  0.3677 -0.8364  0.8071
  703MOL0     H94889   3.822   6.805   3.473 -1.2125 -1.9734  0.4727
  703MOL0     H94890   4.047   6.758   3.427 -2.2147 -0.5542 -1.0876
  703MOL0     H94891   5.147   5.229   3.782  2.0266 -0.2036 -0.2497
  703MOL0     H94892   5.370   5.159   3.811 -4.6638 -2.0566 -1.5230
  703MOL0     H94893   5.704   4.965   4.253  0.1680  0.1627 -0.7243
  703MOL0     H94894   5.924   4.927   4.279 -0.9777  0.3634  0.9170
  703MOL0     H94895   6.217   5.148   3.997  2.4365  0.8136  0.5819
  703MOL0     H94896   6.223   5.243   4.140  0.6463 -0.8343  2.7746
  703MOL0     H94897   6.385   4.980   4.108  0.5654 -0.0024 -1.0437
  703MOL0     H94898   6.400   5.102   4.240 -3.9989 -0.9843  1.2606
  703MOL0     H94899   6.460   5.275   4.086  0.5343 -0.4258  3.7172
  703MOL0     H94900   6.454   5.157   3.944  0.7269 -0.2397 -0.0323
  703MOL0     H94901   6.638   5.016   4.090  2.1808  0.8478  4.3724
  703MOL0     H94902   6.657   5.168   4.174  1.4865  1.1459 -0.8080
  703MOL0     H94903   6.883   5.205   3.832  0.6416 -0.3627  0.7133
  703MOL0     H94904   6.009   5.232   3.965  1.1396  0.8384  2.1002
  703MOL0     H94905   5.783   5.246   3.923  1.1659 -2.0269 -0.8516
  704MOL0     O94906   8.697  10.413   5.546  0.8587  0.6621  0.7813
  704MOL0     C94907   8.721  10.289   5.527  0.3502 -1.1480 -0.4579
  704MOL0     O94908   8.675  10.193   5.601  0.1886 -0.0081  0.7002
  704MOL0     C94909   8.577  10.214   5.693  0.4644  0.3514 -0.1555
  704MOL0     C94910   8.588  10.299   5.799 -0.1610 -0.0386  0.0117
  704MOL0     C94911   8.480  10.311   5.891  0.1460  0.0944 -0.8601
  704MOL0     C94912   8.373  10.223   5.882  0.1254 -0.2265 -0.5463
  704MOL0     O94913   8.258  10.236   5.960  0.9451 -0.2797  0.1341
  704MOL0     C94914   8.161  10.323   5.900 -0.4389  0.2632  1.0786
  704MOL0     C94915   8.037  10.321   5.976 -0.2959  0.2525  0.0058
  704MOL0     C94916   7.982  10.182   6.003  0.9506  0.3293  0.4189
  704MOL0     C94917   7.979  10.097   5.878  0.5404 -0.4537 -0.0977
  704MOL0     C94918   7.907   9.965   5.901 -0.4102  0.0149 -0.2801
  704MOL0     C94919   7.756   9.974   5.924 -0.9299  0.0144 -0.2108
  704MOL0     C94920   7.682   9.841   5.923 -0.5553  0.7243 -0.2685
  704MOL0     C94921   7.540   9.857   5.963 -0.5691 -0.2074 -0.5517
  704MOL0     N94922   7.526   9.870   6.112  0.3420  0.6026 -0.2092
  704MOL0     C94923   7.514   9.983   6.175  0.6707  0.4796  0.3404
  704MOL0     C94924   7.535   9.948   6.305  0.3368 -0.1413  0.7197
  704MOL0     C94925   7.533  10.055   6.415 -0.7142 -0.8341 -0.2295
  704MOL0     C94926   7.400  10.043   6.497 -0.1336  0.1277 -0.2096
  704MOL0     C94927   7.422  10.122   6.622  0.2333  0.2151 -0.3163
  704MOL0     C94928   7.294  10.117   6.708 -0.8556  0.7237 -0.5516
  704MOL0     O94929   7.182  10.196   6.655  0.6291 -0.0033 -0.1650
  704MOL0     C94930   7.062  10.186   6.718  0.3159 -0.8169  0.3879
  704MOL0     C94931   7.040  10.154   6.848  0.5582  0.4721 -0.3816
  704MOL0     C94932   6.912  10.159   6.910  0.0497 -0.2018  0.6700
  704MOL0     C94933   6.906  10.133   7.063  0.2025  0.4429 -0.4061
  704MOL0     C94934   6.795  10.196   6.832 -0.0046  0.3677 -0.4757
  704MOL0     C94935   6.661  10.198   6.886 -0.0698 -0.1793  0.2420
  704MOL0     O94936   6.574  10.278   6.818  0.0730  0.5201 -0.4115
  704MOL0     C94937   6.436  10.265   6.855  0.3654  0.2284 -0.1999
  704MOL0     C94938   6.347  10.199   6.768 -0.3248 -0.4431 -0.2005
  704MOL0     C94939   6.214  10.179   6.799  0.0622  0.4538  0.7659
  704MOL0     C94940   6.158  10.209   6.923 -0.4440  0.0169  0.7407
  704MOL0     O94941   6.031  10.217   6.955 -0.1706  0.6416 -0.1590
  704MOL0     C94942   5.938  10.260   6.862 -0.2012  0.4053  0.5617
  704MOL0     C94943   5.815  10.326   6.925  0.0329  0.2486 -0.8348
  704MOL0     C94944   5.735  10.233   7.015 -0.2859 -0.1675 -0.5042
  704MOL0     C94945   5.761  10.241   7.169 -0.1160 -1.0502 -0.3533
  704MOL0     C94946   5.752  10.119   7.248 -0.5827 -0.2276 -0.4551
  704MOL0     C94947   5.850  10.011   7.197  0.4394  0.4781  0.3807
  704MOL0     C94948   5.874   9.898   7.295  0.2275 -0.1501  0.0323
  704MOL0     C94949   5.754   9.810   7.313  0.0299  0.2383  0.2096
  704MOL0    Cl94950   5.653   9.740   7.184 -0.1246  0.0759 -0.5190
  704MOL0     C94951   6.250  10.243   7.023  0.8799  0.4658  0.6289
  704MOL0     C94952   6.383  10.280   6.990 -0.1093  0.2596 -0.5929
  704MOL0     O94953   6.630  10.125   6.979  1.1358  0.5077  0.1687
  704MOL0     C94954   6.820  10.231   6.694  0.1094 -0.9648  0.2876
  704MOL0     C94955   6.952  10.220   6.642  0.3444 -0.4545  0.1458
  704MOL0     N94956   7.554   9.810   6.315  1.0827 -0.3765  0.9186
  704MOL0     N94957   7.555   9.767   6.195 -0.1086 -0.0574  0.0815
  704MOL0     C94958   8.365  10.129   5.783  0.3940 -0.2501 -0.8221
  704MOL0     C94959   8.465  10.132   5.684  0.3193  0.1669 -0.2150
  704MOL0     C94960   8.824  10.256   5.432  0.1818  0.1409 -0.6053
  704MOL0     C94961   8.912  10.147   5.447  0.6162  0.0087  0.4247
  704MOL0     C94962   8.999  10.129   5.342  0.2788 -0.2159  0.1977
  704MOL0     C94963   9.007  10.210   5.223 -0.3331  0.7710 -0.5853
  704MOL0     O94964   9.105  10.186   5.139  0.0323 -0.3132 -0.2065
  704MOL0     C94965   9.072  10.210   5.002 -0.7791  0.1165 -0.1972
  704MOL0     C94966   9.175  10.310   4.952  1.4615  0.5106  0.5090
  704MOL0     C94967   9.306  10.248   4.950 -0.0025 -0.6980 -0.1200
  704MOL0     C94968   9.415  10.332   4.886  0.1816 -0.2806 -0.6421
  704MOL0     C94969   9.443  10.463   4.944 -0.0242 -0.6965  0.0405
  704MOL0     C94970   9.470  10.574   4.991  0.1041  0.1057 -0.3933
  704MOL0     C94971   8.908  10.311   5.211  0.2315  0.3254  0.7734
  704MOL0     C94972   8.818  10.334   5.314 -0.2640  0.1998  0.1118
  704MOL0     H94973   8.678  10.358   5.813  0.1330 -0.6367  0.7819
  704MOL0     H94974   8.491  10.382   5.972 -0.9309  0.0782 -0.6858
  704MOL0     H94975   8.208  10.421   5.891  1.5402 -0.4671  2.6596
  704MOL0     H94976   8.144  10.279   5.801  3.7984  0.8354 -0.1198
  704MOL0     H94977   8.078  10.369   6.066  0.6353 -0.5212  0.0090
  704MOL0     H94978   7.955  10.370   5.923 -0.1294  1.6198  0.9398
  704MOL0     H94979   8.054  10.143   6.075  1.5554  2.9305  1.3415
  704MOL0     H94980   7.887  10.195   6.054  1.4554  3.3538  0.7926
  704MOL0     H94981   7.922  10.162   5.811 -0.2577  2.5563  3.1843
  704MOL0     H94982   8.074  10.079   5.828  2.4636  1.2700  2.6574
  704MOL0     H94983   7.924   9.898   5.816  1.1447 -0.5452  0.4213
  704MOL0     H94984   7.956   9.918   5.987  0.5810  0.8658 -0.3577
  704MOL0     H94985   7.745  10.015   6.024  1.5656  1.3310 -0.3953
  704MOL0     H94986   7.708  10.053   5.865 -0.7318 -0.2790 -0.7703
  704MOL0     H94987   7.674   9.804   5.820 -0.9395 -0.3758  0.1476
  704MOL0     H94988   7.733   9.772   5.990 -2.6540  0.2697  0.9269
  704MOL0     H94989   7.481   9.767   5.940 -2.0025  0.1197  1.5027
  704MOL0     H94990   7.490   9.946   5.925 -1.5227  0.1009  1.2833
  704MOL0     H94991   7.489  10.076   6.125  0.0081 -0.9622 -2.1674
  704MOL0     H94992   7.618  10.052   6.484 -0.7352  1.0021 -0.0901
  704MOL0     H94993   7.535  10.159   6.383  2.2887 -0.3657  1.1684
  704MOL0     H94994   7.382   9.937   6.518 -0.9865  0.5101  1.1146
  704MOL0     H94995   7.324  10.094   6.437 -1.2725 -0.7310  0.4611
  704MOL0     H94996   7.465  10.220   6.600 -0.2524  0.0685 -2.0877
  704MOL0     H94997   7.492  10.068   6.687 -1.2030  0.8637  1.8377
  704MOL0     H94998   7.310  10.162   6.807 -3.6228  0.4555  0.1011
  704MOL0     H94999   7.257  10.015   6.718 -2.2723  1.4289  3.1055
  704MOL0     H95000   7.128  10.128   6.905 -1.0835 -0.3201  1.9475
  704MOL0     H95001   7.010  10.139   7.097  0.2682  0.8528 -0.6706
  704MOL0     H95002   6.834  10.197   7.114 -0.5050 -1.4524  1.0698
  704MOL0     H95003   6.863  10.034   7.080 -3.3597  1.8967 -0.1995
  704MOL0     H95004   6.393  10.177   6.672  0.8290  1.8850 -0.2431
  704MOL0     H95005   6.137  10.138   6.735 -1.8461  4.1606  0.4024
  704MOL0     H95006   5.982  10.345   6.809  2.4307  0.1311  2.1072
  704MOL0     H95007   5.914  10.180   6.791  3.0865 -0.3719  0.1537
  704MOL0     H95008   5.837  10.426   6.963 -0.7781  1.4886 -3.4179
  704MOL0     H95009   5.742  10.357   6.851 -2.0265  2.2273  1.8137
  704MOL0     H95010   5.782  10.136   6.999  1.4242  0.4721  0.2565
  704MOL0     H95011   5.629  10.242   6.993 -0.6710  1.2522  1.5891
  704MOL0     H95012   5.866  10.268   7.181  0.3289 -2.1503 -1.6340
  704MOL0     H95013   5.698  10.321   7.210  0.7587 -0.5591  0.0750
  704MOL0     H95014   5.657  10.064   7.248 -0.0388 -1.1808 -0.1387
  704MOL0     H95015   5.774  10.153   7.349 -1.9754  1.7938 -0.7769
  704MOL0     H95016   5.821   9.949   7.112  4.5986 -3.6582  1.5911
  704MOL0     H95017   5.947  10.049   7.165 -0.1475 -0.4176 -2.8123
  704MOL0     H95018   5.910   9.942   7.389 -0.2797  0.6327 -0.1269
  704MOL0     H95019   5.962   9.844   7.260  2.2805  3.4598 -0.8732
  704MOL0     H95020   5.690   9.868   7.381  3.8464  3.0020  1.7794
  704MOL0     H95021   5.789   9.722   7.367 -0.2880  0.3447  0.5980
  704MOL0     H95022   6.207  10.247   7.123  2.8650 -0.0494  1.5594
  704MOL0     H95023   6.450  10.308   7.070  0.5217 -0.3238 -0.9094
  704MOL0     H95024   6.749  10.271   6.623  2.5435  2.7816 -0.2981
  704MOL0     H95025   6.982  10.252   6.542  4.0298  0.6777  1.4627
  704MOL0     H95026   8.277  10.068   5.762 -0.3748  1.1319 -1.7812
  704MOL0     H95027   8.454  10.066   5.599  0.1046 -2.9749  2.0395
  704MOL0     H95028   8.910  10.096   5.543  1.4706 -1.7999 -0.4697
  704MOL0     H95029   9.085  10.062   5.339  1.6776  1.4576  1.0578
  704MOL0     H95030   9.093  10.119   4.945 -0.2970 -1.2497  2.0053
  704MOL0     H95031   8.974  10.249   4.974  0.3496  2.9512 -0.5237
  704MOL0     H95032   9.177  10.404   5.007 -0.6178  0.5515  0.5981
  704MOL0     H95033   9.139  10.332   4.851 -1.0199 -1.9136  0.7457
  704MOL0     H95034   9.315  10.147   4.909 -0.3618 -0.6320 -0.3659
  704MOL0     H95035   9.319  10.231   5.057 -1.4223  0.3714  0.2565
  704MOL0     H95036   9.393  10.339   4.779  1.5410 -1.2604 -1.0058
  704MOL0     H95037   9.507  10.273   4.887 -1.8840 -3.8467 -0.6507
  704MOL0     H95038   9.481  10.671   5.036  0.9972  0.0086 -0.3884
  704MOL0     H95039   8.904  10.380   5.126 -3.5011  1.0334  1.3335
  704MOL0     H95040   8.757  10.423   5.308  0.0718  0.7993  3.5858
  705MOL0     O95041   3.031   0.205   1.556  0.6982  0.2690 -0.1097
  705MOL0     C95042   3.143   0.252   1.560 -0.8676  0.4278 -0.4053
  705MOL0     O95043   3.188   0.367   1.492  1.3681  0.5144  0.3091
  705MOL0     C95044   3.088   0.430   1.418  0.5293 -0.1989 -0.5763
  705MOL0     C95045   3.033   0.366   1.305  0.4801 -0.3134 -0.7739
  705MOL0     C95046   2.910   0.418   1.243  0.0847  0.7684 -0.3816
  705MOL0     C95047   2.835   0.526   1.294  0.1714 -0.5046  0.2938
  705MOL0     O95048   2.724   0.563   1.224 -0.0253  0.0297  0.1568
  705MOL0     C95049   2.669   0.698   1.251 -0.3012 -0.4370 -0.6332
  705MOL0     C95050   2.549   0.729   1.158 -0.4118 -0.4214  0.3781
  705MOL0     C95051   2.432   0.642   1.186  0.7444 -0.4618 -1.0885
  705MOL0     C95052   2.307   0.697   1.101  0.1771 -0.4809 -0.3489
  705MOL0     C95053   2.184   0.599   1.131  0.0949 -0.4617  0.8679
  705MOL0     C95054   2.082   0.629   1.017  0.0752 -0.1720  0.3684
  705MOL0     C95055   1.940   0.563   1.038 -0.4724 -1.1208 -0.2603
  705MOL0     C95056   1.940   0.411   1.033  0.0577  0.0548  0.2726
  705MOL0     N95057   1.811   0.372   1.086  0.9367 -0.4206 -0.4901
  705MOL0     C95058   1.686   0.393   1.026  0.0823  0.8381  0.3538
  705MOL0     C95059   1.597   0.357   1.121  1.0931 -0.4500  0.6893
  705MOL0     C95060   1.449   0.364   1.107  0.3893 -0.0226 -0.4779
  705MOL0     C95061   1.367   0.289   1.228  1.1087 -0.3446 -0.1398
  705MOL0     C95062   1.388   0.138   1.237 -0.2262 -0.0398 -0.5083
  705MOL0     C95063   1.319   0.060   1.124  1.1720 -0.1918  0.3772
  705MOL0     O95064   1.172   0.094   1.135 -0.0433 -0.6628 -0.1946
  705MOL0     C95065   1.083  -0.005   1.112 -0.2923 -0.6540 -1.5042
  705MOL0     C95066   1.104  -0.123   1.050 -0.0379 -0.1484  0.3211
  705MOL0     C95067   0.992  -0.209   1.021  0.5586 -0.2808 -0.4835
  705MOL0     C95068   1.034  -0.328   0.954  0.3630  0.9975  0.4298
  705MOL0     C95069   0.861  -0.178   1.073 -0.1777 -0.8627 -0.0180
  705MOL0     C95070   0.738  -0.261   1.064 -0.1016  0.5058 -0.6906
  705MOL0     O95071   0.626  -0.222   1.137  0.3883 -0.0965  0.6054
  705MOL0     C95072   0.504  -0.278   1.110 -0.1832  0.2094  0.1093
  705MOL0     C95073   0.406  -0.207   1.031 -0.4375  0.6781  0.5656
  705MOL0     C95074   0.284  -0.270   0.995 -0.5235 -0.0555  0.9433
  705MOL0     C95075   0.237  -0.390   1.053 -1.3345  0.4802 -0.4635
  705MOL0     O95076   0.110  -0.448   1.043  0.9891  0.6285 -0.4357
  705MOL0     C95077   0.008  -0.373   0.969 -0.2284  0.1771  0.3135
  705MOL0     C95078  -0.124  -0.445   0.976 -0.1059 -1.2329  0.3993
  705MOL0     C95079  -0.122  -0.574   0.890 -0.1083  0.0019 -0.5812
  705MOL0     C95080  -0.236  -0.662   0.927  0.1588  0.4656 -0.0071
  705MOL0     C95081  -0.234  -0.796   0.854 -0.4442 -0.0777 -0.1152
  705MOL0     C95082  -0.360  -0.890   0.864 -1.4930  0.2376  0.7286
  705MOL0     C95083  -0.342  -1.021   0.798  0.3565 -1.4706  0.1579
  705MOL0     C95084  -0.441  -1.119   0.842 -0.0650  0.3831  0.2105
  705MOL0    Cl95085  -0.409  -1.269   0.753  0.7619 -0.4074 -0.2812
  705MOL0     C95086   0.335  -0.461   1.132  0.2229  0.0632  0.1965
  705MOL0     C95087   0.462  -0.406   1.161 -0.3492 -0.1343  1.1843
  705MOL0     O95088   0.747  -0.369   1.010 -0.2150  0.4238 -0.0753
  705MOL0     C95089   0.846  -0.046   1.134 -0.3997 -0.0852  0.1994
  705MOL0     C95090   0.958   0.034   1.146 -0.3869 -0.1249 -0.5580
  705MOL0     N95091   1.659   0.338   1.236 -0.0114  0.6181 -0.2768
  705MOL0     N95092   1.789   0.343   1.215 -0.3890  0.0547  0.9494
  705MOL0     C95093   2.898   0.593   1.402 -1.0126 -0.3358 -0.1862
  705MOL0     C95094   3.030   0.552   1.452  0.1547  0.0356  0.6289
  705MOL0     C95095   3.252   0.198   1.636  0.1313 -0.4520 -0.5043
  705MOL0     C95096   3.375   0.174   1.576  0.5127 -0.6535  0.4461
  705MOL0     C95097   3.483   0.128   1.647 -0.5588  0.7268 -0.0534
  705MOL0     C95098   3.463   0.084   1.781 -0.1760  0.1992  0.0585
  705MOL0     O95099   3.583   0.034   1.836 -0.7053 -0.0172 -0.3080
  705MOL0     C95100   3.572  -0.016   1.967  0.8225 -0.4445  0.8285
  705MOL0     C95101   3.697  -0.099   1.999  0.3165  0.7094 -0.1147
  705MOL0     C95102   3.826  -0.021   1.961 -0.1461 -0.7127  0.0279
  705MOL0     C95103   3.959  -0.076   2.025  0.1673 -0.2171 -0.3277
  705MOL0     C95104   3.976  -0.016   2.152 -0.2293  0.2448  0.0154
  705MOL0     C95105   4.002   0.028   2.261  1.0812  0.0111  0.9010
  705MOL0     C95106   3.337   0.110   1.844 -0.4593 -0.3703 -0.3099
  705MOL0     C95107   3.235   0.166   1.770  0.8387 -0.2847  1.3414
  705MOL0     H95108   3.054   0.269   1.262 -1.9168 -1.6949  0.9102
  705MOL0     H95109   2.872   0.377   1.150 -0.8296 -1.7529  1.0116
  705MOL0     H95110   2.636   0.703   1.356  0.2313 -1.5389 -0.3990
  705MOL0     H95111   2.744   0.775   1.231  0.0198 -0.9645 -1.4857
  705MOL0     H95112   2.514   0.831   1.171  0.1611 -0.1326 -0.2833
  705MOL0     H95113   2.582   0.711   1.055  2.2745  0.2438  1.0414
  705MOL0     H95114   2.448   0.542   1.146 -1.5957 -0.5239 -2.0646
  705MOL0     H95115   2.404   0.629   1.291  0.6912  1.1326 -0.8724
  705MOL0     H95116   2.277   0.798   1.132 -1.4047 -1.0480  0.0394
  705MOL0     H95117   2.337   0.703   0.996 -1.6523 -0.1418 -0.8851
  705MOL0     H95118   2.230   0.500   1.131 -1.3713 -1.1997  2.3723
  705MOL0     H95119   2.142   0.607   1.231  1.9920 -0.2305  1.6840
  705MOL0     H95120   2.071   0.738   1.018 -3.3134 -0.4139  0.5030
  705MOL0     H95121   2.124   0.601   0.921  1.4302 -1.4147  1.2802
  705MOL0     H95122   1.889   0.601   1.127  1.3958  0.0831  0.3271
  705MOL0     H95123   1.878   0.596   0.954  0.6079 -0.8763 -0.9745
  705MOL0     H95124   2.028   0.359   1.074 -1.5034 -1.8496  1.3927
  705MOL0     H95125   1.942   0.373   0.930 -1.0427 -1.4765  0.7812
  705MOL0     H95126   1.670   0.439   0.929 -1.2196 -1.0395 -0.3920
  705MOL0     H95127   1.422   0.470   1.105  0.1073 -0.0002  1.6048
  705MOL0     H95128   1.415   0.321   1.012 -0.3741 -1.9631  0.6023
  705MOL0     H95129   1.261   0.315   1.217  1.5027  1.2410 -0.5156
  705MOL0     H95130   1.394   0.322   1.329 -0.7838 -0.7760  0.5533
  705MOL0     H95131   1.344   0.104   1.331 -2.6584 -1.0954 -1.9293
  705MOL0     H95132   1.493   0.107   1.239 -0.0822  0.4019 -1.0967
  705MOL0     H95133   1.343  -0.046   1.114 -0.0458 -0.4831  0.3477
  705MOL0     H95134   1.343   0.110   1.030 -0.8785  2.3189  1.0577
  705MOL0     H95135   1.204  -0.150   1.017 -0.6360 -0.6751 -1.1394
  705MOL0     H95136   0.970  -0.349   0.867  0.6239  1.5872  0.0857
  705MOL0     H95137   1.133  -0.342   0.910 -1.3376 -0.5224 -3.3996
  705MOL0     H95138   1.025  -0.410   1.025 -0.1206  1.9926  1.5486
  705MOL0     H95139   0.421  -0.105   0.998 -1.4071  1.6874  3.0240
  705MOL0     H95140   0.210  -0.214   0.939 -0.7114 -1.6073 -0.4306
  705MOL0     H95141  -0.007  -0.279   1.024 -0.5409  0.3894 -0.1312
  705MOL0     H95142   0.040  -0.359   0.865  3.1483  0.3116  1.2527
  705MOL0     H95143  -0.140  -0.470   1.082 -0.4563 -3.0378 -0.0347
  705MOL0     H95144  -0.196  -0.377   0.932 -0.5774 -0.1193  2.7229
  705MOL0     H95145  -0.038  -0.639   0.918  0.3695  1.6149  2.1754
  705MOL0     H95146  -0.127  -0.570   0.781  0.9016 -1.1629 -0.6955
  705MOL0     H95147  -0.241  -0.664   1.036  2.7500  0.5812  0.1670
  705MOL0     H95148  -0.332  -0.620   0.894 -0.4980 -0.6925  0.3525
  705MOL0     H95149  -0.151  -0.855   0.895 -0.6276 -0.0811  0.2629
  705MOL0     H95150  -0.212  -0.775   0.749 -0.1864 -2.1831 -0.5156
  705MOL0     H95151  -0.380  -0.916   0.969 -0.7404  0.6059  0.9737
  705MOL0     H95152  -0.440  -0.838   0.810  0.6149  2.2200 -0.7066
  705MOL0     H95153  -0.240  -1.061   0.799  1.0447  0.0187 -2.3945
  705MOL0     H95154  -0.365  -1.014   0.691  1.6140 -2.3758 -0.1963
  705MOL0     H95155  -0.544  -1.082   0.835 -0.5573 -0.1888  3.0418
  705MOL0     H95156  -0.424  -1.132   0.950  2.8729  1.9802  0.0532
  705MOL0     H95157   0.299  -0.547   1.188 -1.8422  2.9706  3.8026
  705MOL0     H95158   0.534  -0.459   1.223  0.2280  0.5993  1.1535
  705MOL0     H95159   0.747  -0.006   1.155 -0.1314 -0.6893  2.9695
  705MOL0     H95160   0.943   0.132   1.191 -0.2144 -0.3898  0.0851
  705MOL0     H95161   2.859   0.679   1.456 -0.7839 -1.9007  2.6643
  705MOL0     H95162   3.083   0.605   1.530 -2.9617  1.2100  2.0965
  705MOL0     H95163   3.384   0.212   1.475 -0.6027 -0.1932  0.5013
  705MOL0     H95164   3.581   0.117   1.600  1.2143  0.5622  3.3317
  705MOL0     H95165   3.567   0.059   2.046  1.7925 -1.0084  1.4479
  705MOL0     H95166   3.484  -0.079   1.982  2.3172 -2.5337  1.2390
  705MOL0     H95167   3.705  -0.190   1.940 -0.0686 -0.6709  1.8571
  705MOL0     H95168   3.688  -0.122   2.106 -0.4744  4.2544  0.7135
  705MOL0     H95169   3.819   0.086   1.977  2.9724 -0.6642  1.9046
  705MOL0     H95170   3.839  -0.045   1.855  2.5906 -0.5981  0.2845
  705MOL0     H95171   4.049  -0.053   1.967  0.2518  0.4948  0.0776
  705MOL0     H95172   3.953  -0.185   2.027  0.0125 -0.1996  0.4174
  705MOL0     H95173   4.010   0.065   2.361 -0.2435  0.7731  0.7497
  705MOL0     H95174   3.335   0.075   1.947  0.6918 -4.5219 -1.4742
  705MOL0     H95175   3.139   0.181   1.817  0.0897  4.7527 -1.1297
  706MOL0     O95176   7.139   7.275   2.425  0.4905  0.2336 -0.1372
  706MOL0     C95177   7.055   7.244   2.346  0.2779 -0.6334  0.6595
  706MOL0     O95178   7.038   7.125   2.302  0.0025 -0.1006  0.0632
  706MOL0     C95179   7.113   7.019   2.333  0.2855  0.9126 -0.1975
  706MOL0     C95180   7.250   7.028   2.312  0.0432 -0.0727  0.3195
  706MOL0     C95181   7.331   6.920   2.337  0.6848  0.1513  0.2802
  706MOL0     C95182   7.276   6.804   2.389  0.0028  0.3728 -0.6211
  706MOL0     O95183   7.360   6.703   2.402  0.0588  0.0246  0.0837
  706MOL0     C95184   7.327   6.634   2.522 -0.9073 -0.1633 -0.5865
  706MOL0     C95185   7.457   6.569   2.565  1.1343 -0.6550 -0.4538
  706MOL0     C95186   7.440   6.485   2.694 -0.2996 -0.4447  0.6081
  706MOL0     C95187   7.574   6.431   2.752 -0.7668  0.9583  0.0220
  706MOL0     C95188   7.559   6.332   2.871  0.5862 -0.6285  0.0043
  706MOL0     C95189   7.692   6.267   2.910 -0.3376 -0.2020 -0.2026
  706MOL0     C95190   7.761   6.335   3.028  0.1347  0.2323 -1.0872
  706MOL0     C95191   7.887   6.255   3.075 -0.3651 -0.3227  0.3487
  706MOL0     N95192   7.992   6.235   2.976  0.3492 -0.0187 -1.0653
  706MOL0     C95193   8.068   6.124   2.951 -0.3830 -0.9066  0.2252
  706MOL0     C95194   8.180   6.174   2.885  0.2505 -0.2855 -0.6336
  706MOL0     C95195   8.295   6.082   2.845  0.7197  0.4740  0.2043
  706MOL0     C95196   8.413   6.148   2.774  0.5881  0.7327 -0.7383
  706MOL0     C95197   8.520   6.032   2.758  0.1822 -0.2587  0.4115
  706MOL0     C95198   8.656   6.075   2.702  0.3542 -0.0372  0.0864
  706MOL0     O95199   8.734   5.957   2.711 -0.3181  0.0155  0.4458
  706MOL0     C95200   8.859   5.952   2.664 -0.4840  0.8160  0.2065
  706MOL0     C95201   8.920   5.824   2.677 -0.3929 -0.9914  0.3487
  706MOL0     C95202   9.056   5.802   2.670 -0.0217 -0.1361 -0.3299
  706MOL0     C95203   9.101   5.657   2.696 -0.3052 -0.9247  0.0889
  706MOL0     C95204   9.147   5.909   2.635  0.3475 -0.1496  1.4355
  706MOL0     C95205   9.293   5.890   2.612  0.5439 -0.0846  0.5907
  706MOL0     O95206   9.346   5.951   2.498  0.3441 -0.3233  0.2956
  706MOL0     C95207   9.482   5.959   2.489 -1.2790  0.9576 -0.5372
  706MOL0     C95208   9.547   5.847   2.446  0.6014  0.6450 -0.0603
  706MOL0     C95209   9.689   5.849   2.445  0.9800  0.4242  0.5057
  706MOL0     C95210   9.753   5.969   2.475  0.7381 -0.0592  0.0840
  706MOL0     O95211   9.887   5.987   2.471  0.1857 -0.2973 -0.0237
  706MOL0     C95212   9.951   5.971   2.599 -0.2168 -0.3613 -0.6966
  706MOL0     C95213   9.939   6.097   2.698 -0.4079  1.3360 -0.0625
  706MOL0     C95214  10.046   6.196   2.663 -0.0896  0.8600  0.6366
  706MOL0     C95215  10.187   6.153   2.702 -0.2650 -0.1958  0.6999
  706MOL0     C95216  10.284   6.255   2.652 -0.7719  0.1527 -0.5378
  706MOL0     C95217  10.428   6.203   2.660 -0.5674  0.9885  0.9867
  706MOL0     C95218  10.528   6.313   2.668 -0.0830 -0.0706  0.6952
  706MOL0     C95219  10.664   6.259   2.631  0.6444 -0.0761  0.1720
  706MOL0    Cl95220  10.790   6.383   2.601  0.3747  0.4247  0.2383
  706MOL0     C95221   9.680   6.083   2.506 -0.2787  0.1642 -0.2135
  706MOL0     C95222   9.545   6.075   2.525 -0.3932 -0.0655 -0.6945
  706MOL0     O95223   9.359   5.831   2.693 -0.0833  0.2290 -1.3956
  706MOL0     C95224   9.076   6.034   2.610 -0.6727 -0.3033  1.2008
  706MOL0     C95225   8.945   6.057   2.630 -0.3242 -0.2804 -0.2833
  706MOL0     N95226   8.167   6.311   2.870 -0.7137  0.3242  0.6047
  706MOL0     N95227   8.046   6.347   2.915  0.2536 -0.1935 -0.7559
  706MOL0     C95228   7.135   6.799   2.403 -0.8776 -0.2598 -0.2575
  706MOL0     C95229   7.052   6.903   2.377  0.1676 -0.3245 -0.6375
  706MOL0     C95230   6.956   7.339   2.302  0.3892 -0.3029  0.0610
  706MOL0     C95231   6.866   7.313   2.195 -0.2471  0.7812 -0.0498
  706MOL0     C95232   6.772   7.407   2.158 -0.3993  0.0094  0.3103
  706MOL0     C95233   6.767   7.531   2.217 -0.1506 -0.0507  0.5401
  706MOL0     O95234   6.675   7.632   2.177  0.8746  0.2607 -0.2198
  706MOL0     C95235   6.676   7.684   2.043  1.3370  0.1278 -0.2588
  706MOL0     C95236   6.590   7.606   1.945 -0.5503 -0.5459  0.2687
  706MOL0     C95237   6.456   7.570   2.009 -0.0504 -0.0745 -0.1783
  706MOL0     C95238   6.359   7.511   1.909 -0.0366  0.1510  0.2866
  706MOL0     C95239   6.424   7.393   1.855  0.4261  0.1093 -0.3470
  706MOL0     C95240   6.478   7.294   1.802 -0.2208  0.3002  0.1731
  706MOL0     C95241   6.841   7.559   2.326  0.3988  0.3782  0.0417
  706MOL0     C95242   6.940   7.466   2.368 -0.6437  0.2055 -0.5584
  706MOL0     H95243   7.294   7.120   2.275  2.0468 -1.0522  0.0984
  706MOL0     H95244   7.438   6.933   2.322  0.8166 -0.4637  0.6719
  706MOL0     H95245   7.291   6.696   2.605 -1.5606 -0.8457 -0.3482
  706MOL0     H95246   7.245   6.563   2.509 -1.3824  0.2716 -0.0588
  706MOL0     H95247   7.479   6.508   2.477 -0.8288  0.6414 -1.9247
  706MOL0     H95248   7.550   6.624   2.582  2.1568 -2.4346 -0.0838
  706MOL0     H95249   7.383   6.531   2.775 -1.0628 -0.1265 -0.0933
  706MOL0     H95250   7.381   6.395   2.673  0.4210 -0.5913 -0.9556
  706MOL0     H95251   7.633   6.386   2.672  0.1325  2.6960 -0.3433
  706MOL0     H95252   7.636   6.510   2.796  1.4229 -1.1062  0.8627
  706MOL0     H95253   7.514   6.380   2.959  1.9169  0.2623  0.2283
  706MOL0     H95254   7.496   6.244   2.853 -2.0859  1.2818 -0.6606
  706MOL0     H95255   7.687   6.159   2.923 -0.6101 -0.3313 -1.2877
  706MOL0     H95256   7.750   6.271   2.817 -3.0807  0.2163 -2.0252
  706MOL0     H95257   7.783   6.439   3.004 -0.6367  0.9049  0.9041
  706MOL0     H95258   7.692   6.339   3.113  0.1089  3.4580 -1.1575
  706MOL0     H95259   7.857   6.160   3.120 -0.9584  0.4292  1.6041
  706MOL0     H95260   7.931   6.306   3.161 -1.5980 -1.4187  1.6698
  706MOL0     H95261   8.067   6.022   2.987  1.3456 -1.8194 -2.1298
  706MOL0     H95262   8.337   6.024   2.928  0.4498  0.1024  0.0849
  706MOL0     H95263   8.237   6.019   2.777  0.8404 -0.1820  0.7050
  706MOL0     H95264   8.460   6.213   2.849 -0.5016 -0.6035  1.1957
  706MOL0     H95265   8.403   6.187   2.673  0.6561 -1.0935 -1.4822
  706MOL0     H95266   8.477   5.951   2.697 -0.8539 -0.7079  1.7116
  706MOL0     H95267   8.544   5.977   2.849  0.9940 -1.2257 -0.3460
  706MOL0     H95268   8.685   6.162   2.761 -0.1929  1.5887 -1.9298
  706MOL0     H95269   8.647   6.106   2.598 -0.6477 -5.3434 -1.7451
  706MOL0     H95270   8.862   5.737   2.704 -0.0231 -1.4611 -0.3344
  706MOL0     H95271   9.158   5.635   2.605 -2.3412 -0.6496 -1.3187
  706MOL0     H95272   9.165   5.650   2.784 -0.2245 -0.8800  0.0340
  706MOL0     H95273   9.015   5.590   2.704 -0.9239 -0.1650 -0.1673
  706MOL0     H95274   9.490   5.764   2.406 -0.8235  1.4690  0.1726
  706MOL0     H95275   9.737   5.759   2.410 -1.9965 -0.7607 -0.8838
  706MOL0     H95276   9.921   5.884   2.658 -0.0492  0.3126  0.4051
  706MOL0     H95277  10.058   5.952   2.590 -0.3380 -1.4085 -0.1113
  706MOL0     H95278   9.840   6.143   2.707 -0.9915 -0.2518  3.2289
  706MOL0     H95279   9.942   6.067   2.803 -1.4677  2.6364  0.3762
  706MOL0     H95280  10.010   6.287   2.710  1.8532  1.1031  1.7263
  706MOL0     H95281  10.044   6.220   2.556 -0.8554  0.9687  0.6743
  706MOL0     H95282  10.197   6.137   2.810 -1.6905  3.5932  1.5162
  706MOL0     H95283  10.213   6.064   2.643 -0.5198  0.3573 -0.2575
  706MOL0     H95284  10.281   6.338   2.723  3.0991 -0.2976  0.4123
  706MOL0     H95285  10.264   6.282   2.548 -2.8025 -0.8916 -0.4605
  706MOL0     H95286  10.438   6.142   2.750 -2.3254 -2.4082 -0.9324
  706MOL0     H95287  10.440   6.137   2.574  0.9403  0.8053  1.3136
  706MOL0     H95288  10.525   6.361   2.767 -2.0738  1.9158 -0.2431
  706MOL0     H95289  10.501   6.396   2.602 -0.0652 -0.7845 -0.2098
  706MOL0     H95290  10.657   6.204   2.537  0.7734 -0.0906  0.1708
  706MOL0     H95291  10.689   6.192   2.714 -1.6985 -0.6471  0.5099
  706MOL0     H95292   9.730   6.179   2.513 -2.0256  0.9920  3.9746
  706MOL0     H95293   9.499   6.170   2.548  1.1942  0.7279 -0.7132
  706MOL0     H95294   9.143   6.117   2.594 -1.3488 -0.1753 -1.4927
  706MOL0     H95295   8.924   6.163   2.642  1.2957  0.2741 -1.8888
  706MOL0     H95296   7.094   6.705   2.441 -0.5159 -0.5198 -0.4979
  706MOL0     H95297   6.944   6.904   2.374  0.0958 -1.7573 -4.8434
  706MOL0     H95298   6.874   7.220   2.140  0.7424 -0.1895  1.6237
  706MOL0     H95299   6.714   7.370   2.074  1.2170 -0.2207 -0.7267
  706MOL0     H95300   6.642   7.788   2.030 -0.0675 -0.4850 -1.6993
  706MOL0     H95301   6.779   7.679   2.006  0.0305 -2.0308 -4.0448
  706MOL0     H95302   6.645   7.513   1.926  1.4542  0.9160 -1.6143
  706MOL0     H95303   6.565   7.654   1.850 -0.2224  0.0546  0.4837
  706MOL0     H95304   6.400   7.656   2.049  0.4199  0.6110 -0.9571
  706MOL0     H95305   6.482   7.488   2.076  0.3140  0.8883  0.8909
  706MOL0     H95306   6.331   7.585   1.833 -0.9698 -0.8412 -0.3664
  706MOL0     H95307   6.267   7.488   1.963 -0.9408  1.2238 -0.7481
  706MOL0     H95308   6.518   7.201   1.767 -0.6480 -1.0504  2.9668
  706MOL0     H95309   6.837   7.661   2.363 -4.3451  0.2912  0.4462
  706MOL0     H95310   7.003   7.472   2.456 -2.3925 -0.9358  0.8462
  707MOL0     O95311   9.211   7.355   3.955 -0.5858 -0.4026 -0.6276
  707MOL0     C95312   9.259   7.325   3.848  0.3658 -0.1084  0.4452
  707MOL0     O95313   9.203   7.346   3.725  0.1115 -0.7727  0.1444
  707MOL0     C95314   9.059   7.353   3.724 -0.2812 -0.8917  0.1884
  707MOL0     C95315   8.990   7.467   3.767 -0.1562  0.5082  0.3920
  707MOL0     C95316   8.855   7.472   3.756 -0.7357  0.6041 -0.6895
  707MOL0     C95317   8.785   7.367   3.692  0.9718  0.2897 -0.7735
  707MOL0     O95318   8.650   7.355   3.672 -0.1710 -0.0817 -0.3570
  707MOL0     C95319   8.563   7.461   3.695  0.0769 -0.1843 -0.1373
  707MOL0     C95320   8.423   7.431   3.658  0.1807  0.4676  0.5070
  707MOL0     C95321   8.338   7.562   3.654 -1.1276 -0.5000 -1.3263
  707MOL0     C95322   8.190   7.538   3.666  0.0821  0.1248 -0.0406
  707MOL0     C95323   8.107   7.662   3.640 -0.4309 -0.8796 -0.4447
  707MOL0     C95324   7.974   7.615   3.576 -0.5581  0.2645 -0.0915
  707MOL0     C95325   7.897   7.726   3.511  0.4226 -0.9697  0.6848
  707MOL0     C95326   7.763   7.668   3.455 -0.7888  0.1857 -0.7200
  707MOL0     N95327   7.707   7.761   3.356  0.6011  0.7795 -0.0844
  707MOL0     C95328   7.653   7.884   3.398  0.9936  0.1049 -0.1555
  707MOL0     C95329   7.580   7.920   3.290 -0.2899 -0.9907  0.1463
  707MOL0     C95330   7.515   8.050   3.273  0.2007 -0.0028 -0.3770
  707MOL0     C95331   7.577   8.160   3.365  0.0778 -0.8318  0.0181
  707MOL0     C95332   7.555   8.305   3.316 -0.2358  0.6426 -1.2077
  707MOL0     C95333   7.405   8.358   3.323 -0.6737 -0.1235 -0.2272
  707MOL0     O95334   7.353   8.360   3.451  0.1716  0.1737  0.0691
  707MOL0     C95335   7.217   8.349   3.478  0.3470 -0.6500  0.5027
  707MOL0     C95336   7.152   8.238   3.419  0.5401 -0.0365 -0.4539
  707MOL0     C95337   7.017   8.213   3.449  0.8814  0.5523 -0.3552
  707MOL0     C95338   6.965   8.072   3.407  0.2661  0.2515  0.2163
  707MOL0     C95339   6.953   8.309   3.526  1.1658 -0.7896  0.6024
  707MOL0     C95340   6.810   8.290   3.570 -0.4964 -0.2524  0.5545
  707MOL0     O95341   6.732   8.217   3.490 -0.9868 -0.8907 -0.4894
  707MOL0     C95342   6.600   8.232   3.501 -0.0451  0.6216 -0.0370
  707MOL0     C95343   6.530   8.135   3.577 -0.8004 -0.4136 -0.3877
  707MOL0     C95344   6.392   8.140   3.595  0.4352  0.4763 -0.5858
  707MOL0     C95345   6.313   8.244   3.547 -0.4944  0.7033  1.1391
  707MOL0     O95346   6.179   8.260   3.585  0.3212 -0.1026  0.2653
  707MOL0     C95347   6.101   8.136   3.573  0.2732 -0.0840  0.2509
  707MOL0     C95348   5.962   8.184   3.520  0.2662  0.2952  0.7019
  707MOL0     C95349   5.860   8.202   3.625  0.1519  0.0289  0.4620
  707MOL0     C95350   5.720   8.230   3.562  0.4953  0.5640 -0.1243
  707MOL0     C95351   5.642   8.324   3.663  0.4440 -0.5693 -0.2179
  707MOL0     C95352   5.494   8.331   3.604 -0.5324  0.1256  0.0279
  707MOL0     C95353   5.416   8.428   3.701  0.1006 -0.3478  0.2706
  707MOL0     C95354   5.268   8.442   3.657  0.0407  0.2249  0.7856
  707MOL0    Cl95355   5.160   8.302   3.705 -0.7984  0.9969  0.3865
  707MOL0     C95356   6.371   8.342   3.464 -0.6652  0.2487  0.0288
  707MOL0     C95357   6.518   8.334   3.449  0.6300 -0.2490  0.0661
  707MOL0     O95358   6.787   8.332   3.683  0.0049 -0.2545 -0.4153
  707MOL0     C95359   7.014   8.424   3.562 -1.1490 -0.5615 -0.4882
  707MOL0     C95360   7.151   8.450   3.555 -1.0739 -0.5992  0.1094
  707MOL0     N95361   7.585   7.821   3.192  0.1669  0.2070  0.5642
  707MOL0     N95362   7.664   7.730   3.232  0.2389  0.4101 -1.3266
  707MOL0     C95363   8.862   7.254   3.639  1.0901  0.7218 -0.3113
  707MOL0     C95364   8.999   7.255   3.656  0.9572 -0.3180  0.1710
  707MOL0     C95365   9.402   7.296   3.838 -0.3473  0.2367  0.3236
  707MOL0     C95366   9.491   7.314   3.944  0.4130 -1.2867  0.4983
  707MOL0     C95367   9.633   7.308   3.925  0.0407  0.0284  0.1854
  707MOL0     C95368   9.689   7.269   3.798 -0.2554 -0.5902 -0.7707
  707MOL0     O95369   9.825   7.269   3.788 -0.3677  0.5981 -0.0782
  707MOL0     C95370   9.892   7.232   3.664  0.1263  0.2836 -0.6038
  707MOL0     C95371  10.039   7.205   3.693 -0.5861 -0.8796  0.6312
  707MOL0     C95372  10.057   7.058   3.729 -1.1694  0.1541 -1.3216
  707MOL0     C95373  10.200   7.039   3.785  0.2057  1.1074  0.0845
  707MOL0     C95374  10.234   6.895   3.777 -0.0802 -0.3455 -0.1561
  707MOL0     C95375  10.260   6.777   3.767 -0.5660  0.5058 -0.1978
  707MOL0     C95376   9.605   7.243   3.697  0.6712 -0.0203  0.0138
  707MOL0     C95377   9.462   7.264   3.712  0.3131  1.1602 -0.2275
  707MOL0     H95378   9.046   7.545   3.818 -0.7391  0.1204  1.6893
  707MOL0     H95379   8.799   7.556   3.797  0.1939 -0.1271  2.3098
  707MOL0     H95380   8.578   7.501   3.796  2.4388  0.4074 -0.6580
  707MOL0     H95381   8.590   7.535   3.620  1.6297 -0.0528  0.5075
  707MOL0     H95382   8.417   7.376   3.564 -4.2804  0.2733  0.7123
  707MOL0     H95383   8.364   7.360   3.717 -0.3699 -0.2623 -0.8811
  707MOL0     H95384   8.363   7.630   3.737 -3.0723 -0.6893 -0.5242
  707MOL0     H95385   8.354   7.622   3.564 -3.7242  2.3875 -0.0906
  707MOL0     H95386   8.156   7.454   3.605  0.0250  0.5912 -0.6712
  707MOL0     H95387   8.170   7.510   3.769  0.7205  1.7742  0.5778
  707MOL0     H95388   8.094   7.710   3.738 -0.5967 -1.9195  0.0516
  707MOL0     H95389   8.148   7.739   3.573 -0.3303 -0.1289  0.4523
  707MOL0     H95390   8.002   7.545   3.496 -3.4493 -1.2643  0.0682
  707MOL0     H95391   7.913   7.566   3.652 -0.3439  2.4869  1.6021
  707MOL0     H95392   7.885   7.815   3.574  0.5481  0.1410 -0.8055
  707MOL0     H95393   7.959   7.743   3.422  0.3733 -1.8712  0.4728
  707MOL0     H95394   7.690   7.666   3.536  0.6138 -0.3593  0.5874
  707MOL0     H95395   7.787   7.567   3.421  2.7935 -0.6555  3.2745
  707MOL0     H95396   7.676   7.939   3.488  1.5997  0.3473 -0.4568
  707MOL0     H95397   7.519   8.084   3.169 -1.3344 -1.9487 -1.1395
  707MOL0     H95398   7.409   8.040   3.296  0.0831  1.9800  0.1035
  707MOL0     H95399   7.684   8.152   3.384 -0.5211  0.3372  5.2442
  707MOL0     H95400   7.538   8.152   3.466  1.3712 -0.3792  0.5831
  707MOL0     H95401   7.596   8.317   3.215  2.1541 -2.3146 -0.7317
  707MOL0     H95402   7.608   8.373   3.384  1.2288  1.3041 -2.9417
  707MOL0     H95403   7.336   8.307   3.256 -0.3474 -2.1278  0.8762
  707MOL0     H95404   7.401   8.460   3.285 -1.5496 -0.8291 -2.1121
  707MOL0     H95405   7.205   8.163   3.361 -0.3035  1.8395 -3.9431
  707MOL0     H95406   6.883   8.039   3.472 -1.7992  1.5709 -1.5639
  707MOL0     H95407   6.925   8.063   3.306 -0.6342 -1.9074  0.7144
  707MOL0     H95408   7.045   7.998   3.407  2.8092  2.8263  0.3925
  707MOL0     H95409   6.590   8.056   3.620  0.7633  1.2602  0.6473
  707MOL0     H95410   6.352   8.063   3.660 -0.3854  3.4546  2.6938
  707MOL0     H95411   6.135   8.081   3.485  1.1465  1.4877 -0.4352
  707MOL0     H95412   6.106   8.076   3.664 -3.8428  2.4582  2.4749
  707MOL0     H95413   5.985   8.283   3.480  1.0095  0.3919  1.3397
  707MOL0     H95414   5.927   8.114   3.444 -2.1590  1.4050  0.6948
  707MOL0     H95415   5.894   8.280   3.693  0.3890  0.6681 -0.3820
  707MOL0     H95416   5.856   8.107   3.680 -0.4836  0.0204  0.4125
  707MOL0     H95417   5.730   8.290   3.472 -2.4172 -0.1118 -1.0238
  707MOL0     H95418   5.668   8.134   3.555  3.2957 -1.0989  0.4359
  707MOL0     H95419   5.680   8.424   3.685 -0.4496  0.1630 -1.8412
  707MOL0     H95420   5.640   8.285   3.765  0.8923  1.5206  0.6436
  707MOL0     H95421   5.499   8.370   3.502  0.1584 -0.1890 -0.0626
  707MOL0     H95422   5.443   8.234   3.601  0.0982 -0.1898 -0.6179
  707MOL0     H95423   5.461   8.525   3.681 -2.3656  0.7227 -0.3894
  707MOL0     H95424   5.435   8.392   3.803  2.3688 -1.6905 -0.5456
  707MOL0     H95425   5.257   8.455   3.549 -0.3182  1.4885  0.9643
  707MOL0     H95426   5.221   8.529   3.703 -0.9787  1.8111 -2.8410
  707MOL0     H95427   6.304   8.420   3.431 -1.5937 -0.9591 -1.0697
  707MOL0     H95428   6.558   8.417   3.392  0.5446 -0.2508  0.0053
  707MOL0     H95429   6.965   8.503   3.618 -2.4702 -0.3246 -1.9135
  707MOL0     H95430   7.200   8.540   3.592 -0.9353 -0.1038 -1.2192
  707MOL0     H95431   8.813   7.168   3.595  0.2061  0.2877  1.4267
  707MOL0     H95432   9.050   7.168   3.616  0.9297 -0.1275 -0.2864
  707MOL0     H95433   9.459   7.351   4.041  0.4764 -0.6859  0.2981
  707MOL0     H95434   9.706   7.336   3.999  2.5111  1.7066 -2.6583
  707MOL0     H95435   9.853   7.144   3.611 -0.6136  0.2551 -0.0351
  707MOL0     H95436   9.882   7.309   3.587 -0.8156  0.0502 -0.7286
  707MOL0     H95437  10.076   7.277   3.766 -2.3810 -0.8215  1.5331
  707MOL0     H95438  10.090   7.215   3.597 -1.3380 -1.5674  0.1462
  707MOL0     H95439  10.057   7.005   3.633  1.8175  1.8934 -2.4255
  707MOL0     H95440   9.973   7.033   3.794 -0.1252  0.5070  0.2051
  707MOL0     H95441  10.207   7.075   3.888 -1.6639  2.1314 -0.1031
  707MOL0     H95442  10.274   7.092   3.724 -2.3769  1.5320 -2.9977
  707MOL0     H95443  10.284   6.672   3.765 -1.5849  0.2720 -1.5024
  707MOL0     H95444   9.656   7.217   3.604 -2.6067 -1.5937 -1.5016
  707MOL0     H95445   9.396   7.260   3.625 -1.6166  1.8264  1.1415
  708MOL0     O95446   6.650   3.930   6.856  0.4336 -0.1678  0.7267
  708MOL0     C95447   6.737   3.846   6.857  0.4887 -0.7743  0.8670
  708MOL0     O95448   6.725   3.715   6.815  0.2897  0.0326  0.6402
  708MOL0     C95449   6.606   3.651   6.810  0.5140  0.1350  0.1894
  708MOL0     C95450   6.477   3.696   6.841  0.5341 -0.5009  0.3491
  708MOL0     C95451   6.356   3.625   6.811  0.4023 -0.8034 -0.8386
  708MOL0     C95452   6.363   3.494   6.766 -0.3492 -1.2360  0.5823
  708MOL0     O95453   6.254   3.411   6.744 -0.6032  0.1342 -0.1178
  708MOL0     C95454   6.142   3.424   6.832  0.2814  0.5257  0.1338
  708MOL0     C95455   6.058   3.292   6.827  0.4500  0.8578  0.2913
  708MOL0     C95456   5.919   3.311   6.887 -0.5980  0.5051 -0.5400
  708MOL0     C95457   5.928   3.275   7.036 -0.3436 -0.0303 -0.9678
  708MOL0     C95458   5.803   3.308   7.113  0.0894 -0.5733 -0.0791
  708MOL0     C95459   5.779   3.234   7.256  0.6245 -0.5678  0.1329
  708MOL0     C95460   5.790   3.075   7.236  0.2599 -0.7601 -1.4014
  708MOL0     C95461   5.665   3.015   7.295  0.1659  0.5658  0.1548
  708MOL0     N95462   5.543   3.005   7.196  0.0567 -0.1229 -0.3706
  708MOL0     C95463   5.498   2.896   7.130  0.3687  0.1317  0.7793
  708MOL0     C95464   5.362   2.924   7.106  0.7326  0.3120 -1.0165
  708MOL0     C95465   5.258   2.843   7.031  0.6842  0.0926  0.3398
  708MOL0     C95466   5.122   2.840   7.085 -0.0871  0.2550  0.4454
  708MOL0     C95467   5.013   2.783   6.994  0.3004 -0.3529 -0.6814
  708MOL0     C95468   4.898   2.726   7.074  0.2106 -0.3719  0.1340
  708MOL0     O95469   4.787   2.695   6.991  0.4133  0.1449 -0.2529
  708MOL0     C95470   4.660   2.690   7.058  0.1033 -0.6413 -0.1425
  708MOL0     C95471   4.647   2.679   7.198 -0.2620 -0.5055  0.3790
  708MOL0     C95472   4.516   2.651   7.248  0.4886  0.1104  0.0587
  708MOL0     C95473   4.493   2.641   7.397  0.1991  0.3113 -0.5672
  708MOL0     C95474   4.398   2.647   7.171 -0.7472 -0.5370 -0.3385
  708MOL0     C95475   4.257   2.636   7.221  0.0072 -0.0310 -0.2874
  708MOL0     O95476   4.220   2.709   7.328 -0.5950  0.3890 -1.0093
  708MOL0     C95477   4.096   2.684   7.389  0.4546 -0.0529 -0.5721
  708MOL0     C95478   3.978   2.751   7.338  0.0633 -0.1165  0.2258
  708MOL0     C95479   3.857   2.716   7.400 -0.8765 -0.7981 -0.0341
  708MOL0     C95480   3.841   2.620   7.499 -0.7834  0.1743 -0.3293
  708MOL0     O95481   3.707   2.593   7.531  0.4285  0.3013 -0.0472
  708MOL0     C95482   3.674   2.503   7.642  0.5997  0.0871  0.5799
  708MOL0     C95483   3.518   2.518   7.675 -0.5812 -0.8921  0.9799
  708MOL0     C95484   3.427   2.472   7.557 -1.1780  0.3504 -0.1930
  708MOL0     C95485   3.278   2.491   7.584 -0.6958  0.3497  0.3667
  708MOL0     C95486   3.184   2.401   7.498  0.6382 -0.4087 -0.1355
  708MOL0     C95487   3.039   2.402   7.553  0.0101  0.0768  0.5570
  708MOL0     C95488   3.034   2.352   7.691  0.7763  0.0248 -0.4338
  708MOL0     C95489   2.894   2.302   7.746  0.5258  0.1695  0.2681
  708MOL0    Cl95490   2.764   2.429   7.748  0.3238  0.0969 -0.0685
  708MOL0     C95491   3.960   2.557   7.549 -0.5169  0.0144  0.7079
  708MOL0     C95492   4.084   2.587   7.493  0.2929 -0.3879  0.6376
  708MOL0     O95493   4.194   2.542   7.175 -0.9500 -0.2764  0.0871
  708MOL0     C95494   4.421   2.669   7.031  0.5141  0.1453 -0.0481
  708MOL0     C95495   4.548   2.691   6.979  0.2499 -0.3531  0.3634
  708MOL0     N95496   5.338   3.050   7.152 -0.8531  0.0881 -0.5598
  708MOL0     N95497   5.448   3.101   7.194 -0.0598 -0.0616  0.5523
  708MOL0     C95498   6.489   3.449   6.713  0.6832 -0.3353  0.0032
  708MOL0     C95499   6.601   3.525   6.740 -0.3586  0.2595 -0.7899
  708MOL0     C95500   6.869   3.881   6.900  0.1141 -0.5513 -0.3294
  708MOL0     C95501   6.981   3.794   6.903  0.0064 -0.5233  0.1611
  708MOL0     C95502   7.108   3.843   6.937 -0.8118  0.2390 -0.8926
  708MOL0     C95503   7.141   3.976   6.969  0.0763 -0.4017  0.0736
  708MOL0     O95504   7.277   4.013   6.979 -0.1504  0.7157 -0.5356
  708MOL0     C95505   7.315   4.145   6.952 -0.7436  1.2963 -0.0580
  708MOL0     C95506   7.458   4.157   6.998  0.2065  0.6779 -0.1541
  708MOL0     C95507   7.482   4.162   7.148 -0.3751 -0.5666 -0.9721
  708MOL0     C95508   7.618   4.097   7.181 -0.0068  0.7764 -0.4211
  708MOL0     C95509   7.733   4.166   7.108 -0.0034 -0.9057  0.1339
  708MOL0     C95510   7.828   4.237   7.068  1.1912 -0.2624  0.2736
  708MOL0     C95511   7.028   4.066   6.960  0.0442  0.5401 -0.1713
  708MOL0     C95512   6.899   4.014   6.927  0.5656  0.1521 -0.0036
  708MOL0     H95513   6.467   3.788   6.899  1.6078  0.2191 -0.5555
  708MOL0     H95514   6.271   3.686   6.839  1.5049  0.4415 -0.0777
  708MOL0     H95515   6.170   3.450   6.934 -0.9055  1.1868  0.3220
  708MOL0     H95516   6.074   3.502   6.795 -3.3441 -1.0549  2.8047
  708MOL0     H95517   6.050   3.269   6.721  0.8010  2.3971 -0.0822
  708MOL0     H95518   6.126   3.222   6.877  1.5665  1.1615 -0.7581
  708MOL0     H95519   5.887   3.415   6.872 -1.2257 -0.0879 -4.0981
  708MOL0     H95520   5.840   3.249   6.845 -1.4020 -1.6184  3.5422
  708MOL0     H95521   5.961   3.171   7.048 -0.5404  0.1187  1.2456
  708MOL0     H95522   6.001   3.344   7.080 -2.8867  2.0325  0.2515
  708MOL0     H95523   5.783   3.415   7.125  1.8011 -0.2550  0.1718
  708MOL0     H95524   5.723   3.268   7.050 -0.8510  0.3181  0.5200
  708MOL0     H95525   5.843   3.263   7.340  1.3583  0.3773 -0.7277
  708MOL0     H95526   5.674   3.252   7.281  1.8033  0.9965  5.0224
  708MOL0     H95527   5.807   3.043   7.133 -0.6997 -0.3687 -1.6851
  708MOL0     H95528   5.884   3.045   7.284 -0.2824  1.7596  1.5050
  708MOL0     H95529   5.641   3.067   7.388 -0.2271  1.5672 -0.4978
  708MOL0     H95530   5.697   2.911   7.312  0.8513  0.3490 -2.1952
  708MOL0     H95531   5.555   2.806   7.104  0.4268  0.0096  1.3167
  708MOL0     H95532   5.268   2.872   6.926 -1.0166 -0.8247 -0.1164
  708MOL0     H95533   5.296   2.740   7.026 -2.6055 -1.3233  1.5962
  708MOL0     H95534   5.092   2.939   7.120 -2.2018  0.2962 -1.2483
  708MOL0     H95535   5.140   2.769   7.166  3.4571  0.5595  0.0541
  708MOL0     H95536   5.051   2.709   6.923  1.3088 -1.3151  0.8076
  708MOL0     H95537   4.979   2.866   6.931 -2.0646 -0.3412  0.5135
  708MOL0     H95538   4.864   2.810   7.134 -0.4793 -1.0964  0.7728
  708MOL0     H95539   4.922   2.640   7.137 -1.0795  0.8223  2.3811
  708MOL0     H95540   4.733   2.683   7.264 -1.0864 -2.7094  1.7157
  708MOL0     H95541   4.427   2.558   7.427  2.4727 -1.1272  0.7778
  708MOL0     H95542   4.593   2.617   7.435 -0.0578  1.3399  0.8334
  708MOL0     H95543   4.463   2.743   7.423 -0.3786  1.1308 -4.0283
  708MOL0     H95544   3.995   2.825   7.260  2.1863 -1.1755 -0.3690
  708MOL0     H95545   3.762   2.757   7.368 -1.3344 -2.0095 -0.2895
  708MOL0     H95546   3.684   2.398   7.613 -0.9952  0.0717 -0.0572
  708MOL0     H95547   3.734   2.522   7.731  1.0031 -0.5672  0.4551
  708MOL0     H95548   3.488   2.466   7.766 -0.9507 -2.1548  0.1662
  708MOL0     H95549   3.507   2.626   7.687 -0.8309 -0.9987  1.7334
  708MOL0     H95550   3.437   2.366   7.536  3.9492  0.1225  2.0424
  708MOL0     H95551   3.461   2.535   7.474 -1.8891 -0.5631 -1.1994
  708MOL0     H95552   3.268   2.453   7.686 -0.9088  0.2442  0.3062
  708MOL0     H95553   3.251   2.597   7.584  3.1372  1.4810 -0.7132
  708MOL0     H95554   3.231   2.302   7.496 -1.1168 -1.2661 -1.3612
  708MOL0     H95555   3.174   2.432   7.394 -2.6102  1.2144  0.5442
  708MOL0     H95556   3.010   2.507   7.547 -0.8603 -0.1798  0.0871
  708MOL0     H95557   2.975   2.350   7.481 -2.7075  4.6514 -0.7609
  708MOL0     H95558   3.060   2.430   7.763 -1.7164 -1.8215  2.7393
  708MOL0     H95559   3.093   2.261   7.705  0.0093 -0.4811 -0.4307
  708MOL0     H95560   2.910   2.272   7.850  0.0223 -1.1104  0.0038
  708MOL0     H95561   2.864   2.209   7.696 -0.4884  0.7941 -0.3342
  708MOL0     H95562   3.962   2.479   7.626  1.6254  0.9421  1.6759
  708MOL0     H95563   4.181   2.545   7.517  0.8405 -0.6336 -1.7952
  708MOL0     H95564   4.334   2.681   6.966  1.7235  0.2151 -1.7043
  708MOL0     H95565   4.566   2.710   6.873 -0.5672 -1.9686 -0.1008
  708MOL0     H95566   6.499   3.350   6.669  0.7934  0.3117 -1.4848
  708MOL0     H95567   6.696   3.485   6.707 -1.0358 -0.7965 -1.5260
  708MOL0     H95568   6.985   3.688   6.878  2.5886  0.0981 -2.6205
  708MOL0     H95569   7.182   3.764   6.941 -0.8107  0.2677 -0.2381
  708MOL0     H95570   7.320   4.174   6.846 -0.4641  0.4182 -0.3020
  708MOL0     H95571   7.244   4.214   6.998 -1.7392  1.4742 -1.7811
  708MOL0     H95572   7.508   4.248   6.961  2.3741  0.9938  3.1496
  708MOL0     H95573   7.508   4.077   6.943  1.5516  1.3767 -0.0016
  708MOL0     H95574   7.408   4.104   7.205  2.6818 -0.2876  3.8946
  708MOL0     H95575   7.475   4.266   7.182  0.9435 -1.6684  3.3805
  708MOL0     H95576   7.615   3.990   7.159  3.1442  0.3223  0.8537
  708MOL0     H95577   7.653   4.086   7.284 -0.0493  0.6255 -0.4230
  708MOL0     H95578   7.903   4.309   7.042  0.1264  0.4347 -0.9717
  708MOL0     H95579   7.033   4.172   6.979  0.0261  0.2098  1.8744
  708MOL0     H95580   6.821   4.089   6.922  0.2357 -0.2597 -1.3419
  709MOL0     O95581   3.003   5.862   8.167 -0.1131  0.7776 -0.5044
  709MOL0     C95582   2.967   5.752   8.228  1.4314 -0.2343 -0.3318
  709MOL0     O95583   2.839   5.704   8.243  0.8082 -0.1724  0.0803
  709MOL0     C95584   2.730   5.788   8.200  0.9600 -0.2824  0.1967
  709MOL0     C95585   2.694   5.818   8.070  0.3311 -0.8399  1.2128
  709MOL0     C95586   2.591   5.904   8.040  0.1401 -0.2540 -0.5283
  709MOL0     C95587   2.522   5.969   8.150  0.7221 -0.5595  0.5296
  709MOL0     O95588   2.427   6.055   8.118  0.1058  0.4865 -0.0830
  709MOL0     C95589   2.440   6.185   8.178 -0.1307  0.5682 -0.1589
  709MOL0     C95590   2.300   6.247   8.171  0.2149  0.0291 -0.2053
  709MOL0     C95591   2.210   6.147   8.258  0.0316  0.0854  0.0212
  709MOL0     C95592   2.072   6.202   8.308 -0.6622  0.5503  0.3736
  709MOL0     C95593   1.949   6.172   8.223  0.3138  0.1771  0.3317
  709MOL0     C95594   1.824   6.228   8.289  0.6914 -0.3258 -0.3971
  709MOL0     C95595   1.687   6.219   8.201  0.2626  0.3217  0.0168
  709MOL0     C95596   1.639   6.076   8.200 -0.2256  0.8287 -0.2263
  709MOL0     N95597   1.629   6.008   8.336 -0.6499 -0.4957 -0.4166
  709MOL0     C95598   1.530   6.027   8.432 -0.9400 -0.9705 -0.2183
  709MOL0     C95599   1.544   5.927   8.518 -0.2516 -0.7979 -0.4415
  709MOL0     C95600   1.458   5.910   8.640 -0.0290 -1.2266 -0.7741
  709MOL0     C95601   1.486   6.010   8.757 -0.1665  0.5433  0.2662
  709MOL0     C95602   1.380   6.024   8.874 -0.3017  0.3793  0.1594
  709MOL0     C95603   1.245   6.089   8.834  0.3015 -0.8030  0.4192
  709MOL0     O95604   1.262   6.229   8.815 -0.2273 -1.1894  0.4299
  709MOL0     C95605   1.189   6.288   8.711 -0.4557  0.8508 -0.5945
  709MOL0     C95606   1.075   6.231   8.653 -0.6011 -0.4597  0.7362
  709MOL0     C95607   0.985   6.310   8.581 -0.0228  0.4362 -0.2989
  709MOL0     C95608   0.859   6.236   8.522 -0.0746 -0.0921  0.5315
  709MOL0     C95609   1.017   6.440   8.550 -0.7176 -0.0697  0.3956
  709MOL0     C95610   0.932   6.530   8.474 -0.7405  0.0819  0.3122
  709MOL0     O95611   0.959   6.660   8.510 -0.0050 -0.0026  0.0854
  709MOL0     C95612   0.899   6.771   8.455  0.9304 -0.0470 -1.4763
  709MOL0     C95613   0.939   6.828   8.334  0.1732 -0.1311 -0.6813
  709MOL0     C95614   0.888   6.947   8.284  0.7517  1.4306  0.1943
  709MOL0     C95615   0.777   7.002   8.354 -0.1718 -0.3829 -1.1398
  709MOL0     O95616   0.716   7.117   8.298  0.3099  0.2175  0.0960
  709MOL0     C95617   0.710   7.133   8.159  1.2305 -0.2167 -0.2099
  709MOL0     C95618   0.603   7.243   8.117 -0.2192 -0.2108  0.2792
  709MOL0     C95619   0.565   7.238   7.977 -0.2898 -0.0526 -0.8186
  709MOL0     C95620   0.675   7.262   7.875 -1.0534  0.2384 -0.0964
  709MOL0     C95621   0.635   7.228   7.732 -0.1321 -0.6291  0.8565
  709MOL0     C95622   0.681   7.088   7.698 -0.0655 -1.2927 -0.5231
  709MOL0     C95623   0.617   7.034   7.564  0.2099  0.0175 -0.3187
  709MOL0     C95624   0.662   6.888   7.543 -0.0818  0.8947 -0.6464
  709MOL0    Cl95625   0.596   6.782   7.670  0.2099 -0.0605  0.0264
  709MOL0     C95626   0.728   6.942   8.464  0.1262  0.4315 -0.1614
  709MOL0     C95627   0.789   6.823   8.519  0.6061  0.4015  0.2793
  709MOL0     O95628   0.870   6.489   8.381  0.3701  0.0254 -0.7258
  709MOL0     C95629   1.130   6.500   8.610 -0.4037  0.4155  0.5738
  709MOL0     C95630   1.223   6.419   8.680 -0.3496 -0.3179  0.3667
  709MOL0     N95631   1.650   5.847   8.480  0.4859 -0.3243  0.5383
  709MOL0     N95632   1.704   5.901   8.377  0.5434  0.2005  0.2547
  709MOL0     C95633   2.557   5.936   8.278  0.1953  0.3198  0.2811
  709MOL0     C95634   2.654   5.844   8.301 -1.0068  1.0470  0.4626
  709MOL0     C95635   3.066   5.684   8.308 -0.1162 -0.2689  0.1431
  709MOL0     C95636   3.030   5.591   8.404  0.4637  0.9010  0.9468
  709MOL0     C95637   3.125   5.534   8.491 -0.1707  0.1207  0.3673
  709MOL0     C95638   3.254   5.590   8.486  0.0427  1.4322  0.0900
  709MOL0     O95639   3.346   5.550   8.577  0.1842 -0.4760  0.5138
  709MOL0     C95640   3.388   5.414   8.544  0.5056 -0.0379 -0.3145
  709MOL0     C95641   3.440   5.350   8.668 -0.0610 -0.5383 -0.5795
  709MOL0     C95642   3.348   5.335   8.783 -0.0226 -0.8822  0.6300
  709MOL0     C95643   3.423   5.321   8.916  0.1925  0.2150 -0.2520
  709MOL0     C95644   3.329   5.324   9.035 -0.2605 -0.6676 -0.6703
  709MOL0     C95645   3.256   5.336   9.132 -0.0986  0.1564  0.1247
  709MOL0     C95646   3.291   5.668   8.383 -0.0565 -0.3717  0.2246
  709MOL0     C95647   3.197   5.723   8.294 -0.1253 -0.8290  0.0481
  709MOL0     H95648   2.750   5.772   7.989 -0.0529  0.8541 -0.0948
  709MOL0     H95649   2.584   5.944   7.940  0.6608  2.5835  0.4744
  709MOL0     H95650   2.455   6.176   8.285 -4.0646 -1.8402  0.4043
  709MOL0     H95651   2.526   6.242   8.140 -0.6140  1.4012 -0.0239
  709MOL0     H95652   2.300   6.346   8.218 -0.3591  0.2549 -0.6721
  709MOL0     H95653   2.270   6.262   8.067  1.4829 -1.7588 -0.8744
  709MOL0     H95654   2.191   6.054   8.204  1.2553 -0.3668  0.3371
  709MOL0     H95655   2.262   6.129   8.352 -1.4978  0.8591  1.0652
  709MOL0     H95656   2.055   6.147   8.401 -2.4671 -0.0312 -0.2545
  709MOL0     H95657   2.082   6.308   8.336  0.5112  1.2124 -2.3016
  709MOL0     H95658   1.958   6.216   8.123  3.7667 -2.8564 -0.9260
  709MOL0     H95659   1.943   6.064   8.211  1.6223  0.3094 -2.1630
  709MOL0     H95660   1.809   6.175   8.383  1.3241  1.4546  0.7676
  709MOL0     H95661   1.838   6.335   8.307  1.2283 -0.5541  0.6315
  709MOL0     H95662   1.608   6.281   8.246 -1.0584  1.5249 -3.5825
  709MOL0     H95663   1.696   6.261   8.100 -2.7188  0.2969 -0.3555
  709MOL0     H95664   1.705   6.012   8.141  0.9890  1.3837  0.4912
  709MOL0     H95665   1.542   6.073   8.150  0.3887  4.3996 -1.9612
  709MOL0     H95666   1.446   6.097   8.430  0.9153  1.3668 -1.0329
  709MOL0     H95667   1.352   5.920   8.614 -0.1409  1.5334  0.4481
  709MOL0     H95668   1.480   5.812   8.682  0.5925 -0.2868  1.1893
  709MOL0     H95669   1.484   6.112   8.719  1.1308  1.6545  2.9057
  709MOL0     H95670   1.584   5.990   8.802 -0.7735 -4.2579 -0.0471
  709MOL0     H95671   1.421   6.085   8.954  1.3594  0.7046 -0.8836
  709MOL0     H95672   1.356   5.925   8.911  0.1197  0.5782  0.9762
  709MOL0     H95673   1.180   6.078   8.922 -1.4412 -3.3296 -1.0496
  709MOL0     H95674   1.201   6.031   8.753  0.8707 -2.6802  1.3776
  709MOL0     H95675   1.032   6.135   8.679 -2.3614  0.6152  1.9947
  709MOL0     H95676   0.866   6.127   8.528 -0.7688 -0.3160 -1.8247
  709MOL0     H95677   0.770   6.268   8.577  0.8734  1.6395  1.1429
  709MOL0     H95678   0.841   6.267   8.419 -0.1960  1.1296  0.8923
  709MOL0     H95679   1.021   6.770   8.293  0.5106  0.2381 -0.5408
  709MOL0     H95680   0.936   6.989   8.197  0.9714 -2.2488 -1.6938
  709MOL0     H95681   0.805   7.165   8.116  1.6059  1.4722  1.7352
  709MOL0     H95682   0.676   7.040   8.112 -1.7524  1.2620 -1.2603
  709MOL0     H95683   0.512   7.219   8.172 -0.0605 -2.9042 -0.5010
  709MOL0     H95684   0.629   7.342   8.155 -0.7678 -0.3881  1.1369
  709MOL0     H95685   0.496   7.321   7.960  1.2659  1.0998 -1.8272
  709MOL0     H95686   0.512   7.145   7.956 -0.5817  0.2982 -1.6747
  709MOL0     H95687   0.705   7.367   7.878 -1.2221  0.3213 -1.0877
  709MOL0     H95688   0.766   7.208   7.904 -1.5436  1.2896  4.0992
  709MOL0     H95689   0.679   7.305   7.668  2.4522  0.8789  4.1513
  709MOL0     H95690   0.527   7.235   7.712 -0.1091 -0.8661  0.6465
  709MOL0     H95691   0.788   7.099   7.679 -0.5843  1.1582 -2.6877
  709MOL0     H95692   0.652   7.021   7.779  2.2501 -2.9339 -0.9197
  709MOL0     H95693   0.651   7.088   7.476  1.1798 -1.6893 -1.0387
  709MOL0     H95694   0.508   7.022   7.556  0.3457 -0.6821 -1.3357
  709MOL0     H95695   0.771   6.882   7.542  0.0323  2.2616  0.3154
  709MOL0     H95696   0.642   6.858   7.440 -1.0482 -1.8723  0.2663
  709MOL0     H95697   0.633   6.977   8.503  1.0602  0.4202  2.3248
  709MOL0     H95698   0.748   6.772   8.605 -1.4580 -1.0793 -1.4774
  709MOL0     H95699   1.151   6.606   8.621 -0.2170  0.3847  0.5291
  709MOL0     H95700   1.306   6.467   8.731  0.6633 -1.6494  0.0290
  709MOL0     H95701   2.500   5.986   8.356  0.5959  3.9933 -1.5294
  709MOL0     H95702   2.664   5.812   8.404 -4.5386 -2.0280  0.0697
  709MOL0     H95703   2.932   5.546   8.419  1.7653 -1.9761  1.4317
  709MOL0     H95704   3.095   5.458   8.563  1.7910 -1.0515  0.0336
  709MOL0     H95705   3.309   5.354   8.499  0.9338  0.3268 -1.5960
  709MOL0     H95706   3.466   5.413   8.467  0.2614 -0.9256 -0.5562
  709MOL0     H95707   3.522   5.415   8.699 -0.4120 -1.3053  2.2094
  709MOL0     H95708   3.491   5.255   8.646  1.0121 -0.0023 -0.4456
  709MOL0     H95709   3.284   5.247   8.772 -1.9183  0.4443  0.5935
  709MOL0     H95710   3.276   5.417   8.779 -1.7814 -2.4032 -0.2982
  709MOL0     H95711   3.490   5.407   8.909  2.2856 -1.4131 -2.2729
  709MOL0     H95712   3.485   5.230   8.920 -1.1624 -0.9543 -3.2535
  709MOL0     H95713   3.181   5.354   9.207  1.0356  0.9798  1.1016
  709MOL0     H95714   3.397   5.679   8.361 -0.2566 -0.5362 -0.9149
  709MOL0     H95715   3.223   5.794   8.216 -3.3565 -1.5931 -1.8970
  710MOL0     O95716  10.038   2.953   3.275 -0.6860  0.7220  0.5163
  710MOL0     C95717  10.071   2.842   3.315  0.5632 -0.6333 -0.4725
  710MOL0     O95718   9.987   2.750   3.375 -0.4951  0.4068 -0.1752
  710MOL0     C95719   9.870   2.800   3.417  1.0086 -1.0222  0.1247
  710MOL0     C95720   9.747   2.725   3.389 -0.7194 -0.0149 -0.1222
  710MOL0     C95721   9.626   2.787   3.412 -0.7685 -0.2026 -0.6670
  710MOL0     C95722   9.612   2.903   3.486 -1.0352 -0.3159 -0.7200
  710MOL0     O95723   9.491   2.961   3.511  0.4970 -0.1599 -0.1532
  710MOL0     C95724   9.374   2.881   3.484 -0.8082  0.2107 -0.0027
  710MOL0     C95725   9.255   2.960   3.506  0.3856 -0.5256  0.1486
  710MOL0     C95726   9.119   2.884   3.472 -1.3177 -0.2270  0.3074
  710MOL0     C95727   9.022   2.987   3.427  0.0945 -0.8323 -0.5950
  710MOL0     C95728   8.875   2.945   3.390 -0.4133 -0.0363 -0.2424
  710MOL0     C95729   8.804   2.908   3.517 -0.3995 -0.5177  0.3546
  710MOL0     C95730   8.674   2.842   3.465  0.9484  1.3654 -0.4081
  710MOL0     C95731   8.587   2.810   3.593 -0.3870 -0.5726 -0.0570
  710MOL0     N95732   8.463   2.743   3.545 -0.3162  0.2679 -0.3450
  710MOL0     C95733   8.363   2.815   3.484  0.3141  0.5043  1.1416
  710MOL0     C95734   8.291   2.724   3.416  0.1287  0.0180  0.2372
  710MOL0     C95735   8.167   2.742   3.333 -1.0625 -0.4546  0.0580
  710MOL0     C95736   8.212   2.791   3.187 -1.0237  0.0115 -0.7095
  710MOL0     C95737   8.088   2.806   3.092  0.0881  0.4494 -1.1371
  710MOL0     C95738   8.122   2.814   2.945  0.9070 -0.4900  0.5821
  710MOL0     O95739   8.171   2.934   2.900  0.4275 -0.4489 -0.0957
  710MOL0     C95740   8.080   3.042   2.884 -0.5857  0.8208 -0.4366
  710MOL0     C95741   8.144   3.147   2.825  0.5055 -0.7591 -0.5716
  710MOL0     C95742   8.075   3.262   2.778  0.2616  0.4797 -0.3571
  710MOL0     C95743   8.153   3.372   2.718 -0.1664 -0.1604  0.5119
  710MOL0     C95744   7.932   3.267   2.810  0.7138  0.0633 -0.2121
  710MOL0     C95745   7.840   3.375   2.764 -1.5568  0.5737 -0.8047
  710MOL0     O95746   7.879   3.453   2.664 -0.4830 -0.2145  0.1752
  710MOL0     C95747   7.785   3.526   2.593 -0.1841  0.1616 -0.5580
  710MOL0     C95748   7.670   3.462   2.537  1.3023 -0.3862  0.1610
  710MOL0     C95749   7.576   3.534   2.469  0.9009 -0.8285 -0.0522
  710MOL0     C95750   7.595   3.670   2.460  0.0940 -0.0814  0.6434
  710MOL0     O95751   7.493   3.739   2.399 -0.1491  0.5290  0.9623
  710MOL0     C95752   7.535   3.829   2.301  0.0975 -0.3194  1.4750
  710MOL0     C95753   7.416   3.921   2.285 -0.0584 -0.6688  0.1204
  710MOL0     C95754   7.294   3.835   2.231  0.3502  0.3925 -0.5085
  710MOL0     C95755   7.194   3.932   2.177 -0.5764 -0.3164 -0.0600
  710MOL0     C95756   7.057   3.858   2.146  0.1072 -0.4735 -0.6851
  710MOL0     C95757   6.958   3.966   2.101 -0.3929  0.2901  0.3191
  710MOL0     C95758   7.010   4.039   1.972 -0.2015  0.3386 -0.0009
  710MOL0     C95759   6.896   4.109   1.902 -0.5028 -0.3859 -0.1043
  710MOL0    Cl95760   6.887   4.262   1.999  0.5856  0.6015  0.3616
  710MOL0     C95761   7.701   3.738   2.523  0.7798  1.1865  0.0743
  710MOL0     C95762   7.793   3.661   2.595 -0.8881  0.4284  0.4113
  710MOL0     O95763   7.731   3.373   2.813 -0.0032 -0.5252 -0.9053
  710MOL0     C95764   7.869   3.154   2.865  0.3850  0.4961  0.3804
  710MOL0     C95765   7.942   3.043   2.908 -0.0792 -0.2345 -0.5689
  710MOL0     N95766   8.333   2.600   3.466  0.2032 -0.4331 -0.3456
  710MOL0     N95767   8.439   2.610   3.544  0.4425  0.0660  0.0770
  710MOL0     C95768   9.732   2.976   3.516  0.5203 -1.1128 -0.5548
  710MOL0     C95769   9.856   2.928   3.484 -0.5172 -0.6704 -0.3942
  710MOL0     C95770  10.213   2.802   3.289 -0.0294  0.1030 -0.3358
  710MOL0     C95771  10.274   2.687   3.342 -0.9489  0.2337  0.9888
  710MOL0     C95772  10.399   2.636   3.310  0.5969 -0.8041  0.6518
  710MOL0     C95773  10.477   2.708   3.225  0.1387 -0.4962  0.5974
  710MOL0     O95774  10.594   2.661   3.177  0.6473 -0.4029  0.1325
  710MOL0     C95775  10.684   2.734   3.093 -0.7796  0.2772 -0.2398
  710MOL0     C95776  10.819   2.661   3.091 -0.2404  0.0339  0.5911
  710MOL0     C95777  10.869   2.651   3.247 -0.1002 -0.2396  0.9814
  710MOL0     C95778  10.974   2.541   3.259 -0.2697  0.6068  0.6991
  710MOL0     C95779  10.945   2.448   3.373  0.7292 -0.4180 -0.3668
  710MOL0     C95780  10.918   2.360   3.457  0.1988  0.1462 -0.4380
  710MOL0     C95781  10.433   2.831   3.182  0.4188 -0.4072 -0.5586
  710MOL0     C95782  10.303   2.881   3.215  0.1001  0.4653 -0.5580
  710MOL0     H95783   9.755   2.626   3.345  0.6350 -0.7180  1.5877
  710MOL0     H95784   9.543   2.733   3.368 -0.2250 -2.5479  0.9728
  710MOL0     H95785   9.385   2.860   3.377  1.1209  1.7983 -0.1722
  710MOL0     H95786   9.379   2.795   3.551  3.7534  1.7799  2.0913
  710MOL0     H95787   9.262   2.995   3.610 -1.9528 -2.4776  1.0681
  710MOL0     H95788   9.273   3.040   3.434  0.6186 -1.3631 -0.7391
  710MOL0     H95789   9.148   2.806   3.402  1.1725  1.6081 -0.8711
  710MOL0     H95790   9.087   2.841   3.567  0.4032  0.4219  1.2287
  710MOL0     H95791   9.014   3.068   3.500 -2.0474 -2.4637  1.1403
  710MOL0     H95792   9.061   3.041   3.340  0.5477  3.7358  2.0848
  710MOL0     H95793   8.824   3.009   3.318  0.1887 -1.5171 -2.0553
  710MOL0     H95794   8.896   2.852   3.336 -4.1033  0.0297 -2.0875
  710MOL0     H95795   8.866   2.837   3.574  0.4775 -0.3300 -0.3442
  710MOL0     H95796   8.782   2.995   3.579 -0.2275 -1.4281  1.7557
  710MOL0     H95797   8.621   2.900   3.390 -0.5830  0.6733  0.0972
  710MOL0     H95798   8.691   2.751   3.406  0.1979  0.4736  0.7079
  710MOL0     H95799   8.546   2.900   3.638  0.7195  0.2877 -0.7035
  710MOL0     H95800   8.636   2.744   3.666  1.1555 -0.6827 -1.1222
  710MOL0     H95801   8.348   2.922   3.487  2.4581  0.9391 -0.8330
  710MOL0     H95802   8.115   2.646   3.329 -1.2634 -0.3367 -0.2042
  710MOL0     H95803   8.108   2.810   3.393 -0.6756 -1.8612  2.1236
  710MOL0     H95804   8.287   2.720   3.151  1.7487  2.1845  0.4017
  710MOL0     H95805   8.281   2.875   3.204  2.2786 -2.7847  1.0316
  710MOL0     H95806   8.046   2.903   3.119  0.6642  0.3482  0.2234
  710MOL0     H95807   8.012   2.730   3.108 -0.5803  0.8765 -2.1583
  710MOL0     H95808   8.027   2.803   2.891  1.5657  4.1223 -1.9917
  710MOL0     H95809   8.187   2.730   2.916 -0.3332 -1.5789  0.8300
  710MOL0     H95810   8.251   3.157   2.809  0.5599 -0.5138 -0.0596
  710MOL0     H95811   8.150   3.360   2.609  0.7633 -1.1731  0.5797
  710MOL0     H95812   8.123   3.474   2.743 -0.7225  0.0618 -0.9585
  710MOL0     H95813   8.257   3.374   2.751  0.1881  2.1444 -0.4802
  710MOL0     H95814   7.667   3.354   2.547 -1.2420 -0.3870  0.1310
  710MOL0     H95815   7.486   3.490   2.428  0.6096 -0.2186 -0.0749
  710MOL0     H95816   7.624   3.889   2.320 -0.8246  1.0744  1.5541
  710MOL0     H95817   7.555   3.778   2.207 -3.9903 -2.5608  1.5906
  710MOL0     H95818   7.386   3.952   2.385 -3.6424 -2.5590 -0.1926
  710MOL0     H95819   7.436   4.006   2.219 -3.8411  0.5861  0.3633
  710MOL0     H95820   7.244   3.784   2.315 -0.4385 -0.8915 -1.7129
  710MOL0     H95821   7.337   3.754   2.171  4.3750 -0.9147  3.5740
  710MOL0     H95822   7.174   4.012   2.250 -0.6364  0.4020 -0.8523
  710MOL0     H95823   7.238   3.964   2.082 -2.2569  1.2437 -0.3828
  710MOL0     H95824   7.015   3.813   2.237 -0.4707  0.4545 -0.4785
  710MOL0     H95825   7.066   3.776   2.074 -0.1262 -0.6162 -0.5540
  710MOL0     H95826   6.854   3.932   2.089  0.6259 -2.8173 -0.5028
  710MOL0     H95827   6.951   4.029   2.191  0.2060  0.1125  0.4931
  710MOL0     H95828   7.050   3.968   1.899  0.9011 -0.7002  1.5334
  710MOL0     H95829   7.086   4.113   1.999  0.1962 -1.0114  2.9823
  710MOL0     H95830   6.801   4.055   1.901 -0.1561 -1.1090  1.7078
  710MOL0     H95831   6.919   4.141   1.800  0.8328  2.8287  1.0375
  710MOL0     H95832   7.713   3.844   2.505  0.2269  1.3144  0.4358
  710MOL0     H95833   7.870   3.707   2.655 -0.4477 -1.9878  1.8303
  710MOL0     H95834   7.762   3.156   2.883  0.5866 -1.7205  2.4068
  710MOL0     H95835   7.902   2.962   2.968 -0.4650 -0.6210 -1.3434
  710MOL0     H95836   9.728   3.072   3.567 -0.4494 -1.2711 -0.3179
  710MOL0     H95837   9.943   2.989   3.509 -1.5751  0.1087  1.5677
  710MOL0     H95838  10.219   2.642   3.424 -0.9806  0.2284  0.9642
  710MOL0     H95839  10.431   2.543   3.356  1.3466 -0.3275  1.1205
  710MOL0     H95840  10.658   2.729   2.987  1.5449 -1.0960 -0.7949
  710MOL0     H95841  10.693   2.839   3.125  0.9285  0.6487 -1.8253
  710MOL0     H95842  10.890   2.716   3.028 -0.1286 -1.8310 -1.0020
  710MOL0     H95843  10.803   2.561   3.051 -2.2561  1.1895 -1.8046
  710MOL0     H95844  10.783   2.625   3.310 -1.3054 -1.6865 -1.1203
  710MOL0     H95845  10.914   2.747   3.273 -1.0446  0.1706  1.1328
  710MOL0     H95846  11.078   2.574   3.262  0.6951 -1.5594 -2.7668
  710MOL0     H95847  10.964   2.491   3.162 -3.4743 -0.0409  1.2245
  710MOL0     H95848  10.892   2.281   3.525 -1.1287  1.8392  1.1182
  710MOL0     H95849  10.482   2.895   3.111 -1.9725  2.1199 -0.1015
  710MOL0     H95850  10.277   2.973   3.163  0.4515 -0.8616 -3.2112
  711MOL0     O95851   9.583   9.817   3.833  0.2090 -0.4564 -0.2662
  711MOL0     C95852   9.540   9.702   3.832 -0.3504 -0.3267  0.0805
  711MOL0     O95853   9.595   9.597   3.773 -0.0494  0.0364 -0.2591
  711MOL0     C95854   9.727   9.605   3.735  0.3320  0.4625 -0.7540
  711MOL0     C95855   9.759   9.542   3.615  1.0518  0.0664  0.8612
  711MOL0     C95856   9.885   9.559   3.567  0.9542 -0.2643  0.3661
  711MOL0     C95857   9.986   9.632   3.629 -0.4344  0.1285 -0.7124
  711MOL0     O95858  10.110   9.644   3.577 -0.0580  0.6995  0.1932
  711MOL0     C95859  10.214   9.711   3.634 -0.1283  0.5378  0.4677
  711MOL0     C95860  10.296   9.609   3.724  0.7972 -0.7540 -0.1772
  711MOL0     C95861  10.422   9.686   3.764  0.0096  0.1656 -0.1653
  711MOL0     C95862  10.417   9.805   3.852  0.4506  0.1353  0.1909
  711MOL0     C95863  10.560   9.856   3.883  0.1378  0.5133 -0.7922
  711MOL0     C95864  10.641   9.912   3.770 -0.1503 -0.4603  0.8657
  711MOL0     C95865  10.786   9.955   3.813  0.3945  0.4995  0.3608
  711MOL0     C95866  10.878   9.834   3.825  0.1408 -0.5606  0.6178
  711MOL0     N95867  11.013   9.881   3.860  0.0113 -0.1009 -0.8509
  711MOL0     C95868  11.049   9.921   3.994  0.4632  0.4592 -0.2268
  711MOL0     C95869  11.182   9.939   3.991 -0.0128 -0.3644 -0.2758
  711MOL0     C95870  11.273   9.972   4.108  0.4192  0.5234 -0.9630
  711MOL0     C95871  11.383   9.874   4.129  0.3467 -0.1768  0.2308
  711MOL0     C95872  11.478   9.895   4.246  0.3097 -0.4540  0.1944
  711MOL0     C95873  11.609   9.814   4.226  0.1510  0.6775  0.2437
  711MOL0     O95874  11.696   9.810   4.345  0.6912 -0.2208  0.0579
  711MOL0     C95875  11.789   9.907   4.358  0.0861  0.4631 -0.3617
  711MOL0     C95876  11.865   9.900   4.472 -0.2814 -0.2520 -0.2869
  711MOL0     C95877  11.963   9.992   4.501 -0.4438 -0.3985 -0.4949
  711MOL0     C95878  12.063   9.959   4.614  0.8702 -0.8185  0.0317
  711MOL0     C95879  11.996  10.091   4.413 -0.3858 -0.3711  0.3337
  711MOL0     C95880  12.124  10.173   4.426  0.3415  0.2313  0.0956
  711MOL0     O95881  12.188  10.201   4.305 -0.1003 -0.3828  0.0752
  711MOL0     C95882  12.305  10.268   4.312  0.4046  0.1021 -0.5914
  711MOL0     C95883  12.427  10.203   4.312 -0.8104 -0.8570  0.1657
  711MOL0     C95884  12.544  10.271   4.296 -0.5249 -0.6305  0.4422
  711MOL0     C95885  12.550  10.412   4.280  0.2462  0.5873 -0.0359
  711MOL0     O95886  12.672  10.467   4.246  0.1232  0.0380  0.2263
  711MOL0     C95887  12.704  10.596   4.298 -0.0511 -0.1596  0.3520
  711MOL0     C95888  12.737  10.687   4.185 -0.8463  0.4383  0.6570
  711MOL0     C95889  12.860  10.643   4.096  0.6060  0.1031  0.5277
  711MOL0     C95890  12.871  10.741   3.980  0.0732 -0.2561  0.7282
  711MOL0     C95891  12.952  10.682   3.869  0.7595 -0.0661 -0.5679
  711MOL0     C95892  13.099  10.656   3.898  0.0733  0.1534  0.4922
  711MOL0     C95893  13.170  10.777   3.952 -0.2531 -0.2939 -0.7921
  711MOL0     C95894  13.320  10.787   3.920 -0.4184  0.5721  0.5754
  711MOL0    Cl95895  13.405  10.659   4.016 -0.4184 -0.6044 -0.3235
  711MOL0     C95896  12.425  10.482   4.285 -0.2044  0.2255  1.1987
  711MOL0     C95897  12.308  10.412   4.293  0.1314  0.1921  0.0042
  711MOL0     O95898  12.145  10.232   4.529  0.7458 -1.1141 -0.0493
  711MOL0     C95899  11.917  10.104   4.299  1.0468  0.6624 -0.7204
  711MOL0     C95900  11.813  10.012   4.275 -0.2301  0.2255 -0.0010
  711MOL0     N95901  11.221   9.911   3.860 -0.4915  0.5215 -1.1201
  711MOL0     N95902  11.125   9.895   3.782  0.3513  0.4103 -0.1930
  711MOL0     C95903   9.954   9.683   3.756 -0.1749 -0.4997  0.3223
  711MOL0     C95904   9.827   9.666   3.813  0.3661  0.6665  0.1392
  711MOL0     C95905   9.411   9.680   3.900  0.1434 -0.0677  0.4418
  711MOL0     C95906   9.348   9.561   3.864  0.4360 -0.7819 -0.2336
  711MOL0     C95907   9.227   9.525   3.931 -0.3749  0.4234  0.9652
  711MOL0     C95908   9.168   9.613   4.020  0.4679 -0.3712 -1.1022
  711MOL0     O95909   9.049   9.580   4.087  0.4904  0.3149 -0.0690
  711MOL0     C95910   8.976   9.670   4.171 -0.1995  0.4121  0.5867
  711MOL0     C95911   8.868   9.601   4.251 -0.9704  0.1148 -0.3888
  711MOL0     C95912   8.776   9.707   4.323  0.0793 -0.3322  0.1822
  711MOL0     C95913   8.665   9.627   4.388 -0.2871  0.0021 -0.1873
  711MOL0     C95914   8.572   9.712   4.456 -0.5848 -0.4800 -0.3464
  711MOL0     C95915   8.503   9.782   4.530 -0.3268  0.0449 -0.6470
  711MOL0     C95916   9.231   9.738   4.047 -0.0109 -0.5170  0.5061
  711MOL0     C95917   9.362   9.768   3.991  0.7401  0.8545  0.6633
  711MOL0     H95918   9.681   9.481   3.571  0.1449  1.4147  0.5216
  711MOL0     H95919   9.925   9.524   3.473  0.1360 -0.3508  0.0446
  711MOL0     H95920  10.272   9.753   3.551  2.0688 -0.2569  1.5002
  711MOL0     H95921  10.184   9.801   3.688  0.1675 -0.7408  2.9041
  711MOL0     H95922  10.246   9.581   3.817  0.5027  1.3264  0.3516
  711MOL0     H95923  10.319   9.518   3.668  0.2245 -1.4071  0.6390
  711MOL0     H95924  10.489   9.615   3.813 -1.8042 -1.8280 -0.4529
  711MOL0     H95925  10.466   9.726   3.672 -1.8054  0.8610 -0.7841
  711MOL0     H95926  10.381   9.891   3.795  0.2721  0.7166  1.1449
  711MOL0     H95927  10.355   9.782   3.940 -0.7239  1.3334 -0.2923
  711MOL0     H95928  10.569   9.917   3.973  2.1595 -0.0959 -0.5163
  711MOL0     H95929  10.620   9.775   3.926  0.0210  0.9094  0.1418
  711MOL0     H95930  10.669   9.838   3.694  1.3068  0.1211  0.7935
  711MOL0     H95931  10.585   9.992   3.722  1.2371  0.6372  1.0102
  711MOL0     H95932  10.812  10.030   3.738 -0.5170  0.5600  0.0912
  711MOL0     H95933  10.797  10.003   3.910 -0.4234  0.6665  0.3828
  711MOL0     H95934  10.877   9.769   3.737 -0.6315 -0.3386  0.4524
  711MOL0     H95935  10.843   9.771   3.907  0.8210 -3.1789 -0.9590
  711MOL0     H95936  10.979   9.950   4.071 -0.2829  1.1769 -1.1467
  711MOL0     H95937  11.318  10.069   4.090 -2.0702  1.4333 -2.9023
  711MOL0     H95938  11.203   9.988   4.190 -1.6861 -0.2339 -2.5249
  711MOL0     H95939  11.442   9.863   4.036 -2.5308 -1.7104 -1.5562
  711MOL0     H95940  11.348   9.771   4.134  0.2926 -0.1336  0.7468
  711MOL0     H95941  11.435   9.873   4.345  0.4747  4.1325  1.5300
  711MOL0     H95942  11.489  10.003   4.257  3.2041 -0.6206 -0.1780
  711MOL0     H95943  11.656   9.833   4.130  1.7739  2.7914  1.3724
  711MOL0     H95944  11.566   9.714   4.220 -0.3096  0.8169  0.9818
  711MOL0     H95945  11.846   9.817   4.539  0.7334  0.1656  0.5369
  711MOL0     H95946  12.162   9.922   4.585  0.5739 -1.3628 -0.2818
  711MOL0     H95947  12.062  10.045   4.683 -1.1575 -0.1531 -0.7566
  711MOL0     H95948  12.020   9.874   4.668 -1.0414 -0.5376 -0.9645
  711MOL0     H95949  12.430  10.095   4.326 -0.1163 -0.9517 -0.6406
  711MOL0     H95950  12.638  10.217   4.305 -2.2313 -3.5291  2.5297
  711MOL0     H95951  12.622  10.641   4.355  1.6868  2.2913  1.0507
  711MOL0     H95952  12.783  10.594   4.374 -1.1206  0.8753  1.5468
  711MOL0     H95953  12.655  10.702   4.114 -0.5248 -0.6466  0.0310
  711MOL0     H95954  12.760  10.786   4.224  0.1415  1.4710 -2.3209
  711MOL0     H95955  12.841  10.544   4.053  2.8565 -1.1819  2.3045
  711MOL0     H95956  12.947  10.640   4.162 -1.5196  1.7895  3.6411
  711MOL0     H95957  12.773  10.765   3.937  0.5336  3.0598  1.2885
  711MOL0     H95958  12.905  10.842   4.005 -2.7435  0.5650  1.6158
  711MOL0     H95959  12.944  10.744   3.778  1.4980  0.6141 -0.1816
  711MOL0     H95960  12.904  10.591   3.834 -2.6518 -0.4136  4.1271
  711MOL0     H95961  13.123  10.591   3.982  0.5632  1.5830  1.4847
  711MOL0     H95962  13.148  10.621   3.806  1.0870  0.5603  0.8665
  711MOL0     H95963  13.146  10.783   4.058 -0.5972  2.3364 -0.9568
  711MOL0     H95964  13.120  10.869   3.921 -3.7639  0.2575  5.0478
  711MOL0     H95965  13.361  10.887   3.933  1.7100  0.2238 -2.4108
  711MOL0     H95966  13.330  10.766   3.813 -0.3409 -0.3183  0.7496
  711MOL0     H95967  12.422  10.586   4.254  0.5404  0.0284  0.4169
  711MOL0     H95968  12.217  10.470   4.286  0.5733  1.2334  2.0616
  711MOL0     H95969  11.936  10.180   4.224 -2.8164  3.4234  0.7816
  711MOL0     H95970  11.760  10.026   4.181 -0.9816 -1.0124  0.2141
  711MOL0     H95971  10.039   9.726   3.808  1.1053 -1.0724 -1.1938
  711MOL0     H95972   9.815   9.695   3.917  2.0109 -2.3403  1.2821
  711MOL0     H95973   9.399   9.499   3.791 -0.2107  0.5627 -1.8726
  711MOL0     H95974   9.172   9.432   3.920 -1.3630  1.0510  0.4770
  711MOL0     H95975   9.045   9.722   4.239 -0.4379 -1.5388  2.3989
  711MOL0     H95976   8.923   9.754   4.126 -1.3304  0.2084  1.5007
  711MOL0     H95977   8.913   9.531   4.322 -0.0932 -1.1873 -2.1320
  711MOL0     H95978   8.806   9.545   4.180 -3.1227 -0.8537  2.0752
  711MOL0     H95979   8.731   9.785   4.261 -0.1076  0.8999  1.8044
  711MOL0     H95980   8.839   9.769   4.388 -1.9018 -0.9097  2.7880
  711MOL0     H95981   8.708   9.559   4.463  2.6580  0.7352 -1.0701
  711MOL0     H95982   8.615   9.585   4.301  0.1931  1.7516 -1.3418
  711MOL0     H95983   8.447   9.847   4.593 -1.3387  1.0230 -2.4674
  711MOL0     H95984   9.195   9.818   4.110  0.6208 -1.7350  2.4923
  711MOL0     H95985   9.419   9.854   4.026  1.9990 -0.8767  3.1906
  712MOL0     O95986   1.845   4.629   4.862  0.4349  1.1004  0.4837
  712MOL0     C95987   1.725   4.596   4.841 -1.0856 -0.1524  0.8233
  712MOL0     O95988   1.660   4.591   4.722 -0.3787 -0.1674 -0.7664
  712MOL0     C95989   1.714   4.625   4.608 -0.0703  0.4717  0.0510
  712MOL0     C95990   1.779   4.748   4.579  1.2748  1.0928  0.5041
  712MOL0     C95991   1.806   4.776   4.440  0.8039 -0.1851 -0.5209
  712MOL0     C95992   1.791   4.677   4.341  0.2524 -1.2899 -0.2310
  712MOL0     O95993   1.830   4.684   4.213 -0.4034 -0.3354 -0.4039
  712MOL0     C95994   1.952   4.618   4.173  0.1078 -0.7475  0.3168
  712MOL0     C95995   1.943   4.537   4.039  0.2573 -0.2025 -0.2899
  712MOL0     C95996   2.077   4.480   4.015 -0.2912  0.3190  0.3518
  712MOL0     C95997   2.170   4.557   3.931  0.3902 -0.0077 -0.4093
  712MOL0     C95998   2.297   4.482   3.912  0.4769 -0.0392  0.0442
  712MOL0     C95999   2.417   4.568   3.881  1.2157  0.2025 -0.5676
  712MOL0     C96000   2.523   4.482   3.837  0.0412  0.1189  1.2288
  712MOL0     C96001   2.652   4.562   3.797 -0.8053  0.4825 -0.7287
  712MOL0     N96002   2.697   4.658   3.895  0.4097 -0.5688  0.7358
  712MOL0     C96003   2.767   4.625   4.010  0.2734  1.3104  0.2880
  712MOL0     C96004   2.761   4.733   4.085  0.0438 -0.1327 -0.4046
  712MOL0     C96005   2.794   4.744   4.226  0.0580 -0.1587  0.8287
  712MOL0     C96006   2.696   4.827   4.302  0.8741 -0.6852  0.0773
  712MOL0     C96007   2.557   4.766   4.323 -0.7187  0.0408 -0.0192
  712MOL0     C96008   2.469   4.858   4.401  0.4621  0.3878  1.0637
  712MOL0     O96009   2.439   4.987   4.334  0.1939  0.5314 -0.1294
  712MOL0     C96010   2.333   4.989   4.247  0.1471 -0.2095 -1.4524
  712MOL0     C96011   2.215   5.032   4.307  0.4580  0.1527  0.3393
  712MOL0     C96012   2.096   5.033   4.233 -0.6909 -0.3619 -0.0083
  712MOL0     C96013   1.993   5.130   4.288  0.0820 -0.9870 -0.0029
  712MOL0     C96014   2.101   4.985   4.100  0.3355  0.3559  0.0049
  712MOL0     C96015   1.988   4.996   4.008  0.3147  0.8881 -0.3947
  712MOL0     O96016   2.013   4.982   3.868 -0.0764 -0.0082 -0.1933
  712MOL0     C96017   1.913   5.010   3.782  0.1576 -0.6840  0.0605
  712MOL0     C96018   1.916   4.945   3.662  0.6471  0.3478  0.3671
  712MOL0     C96019   1.821   4.974   3.562  0.4025  0.0240  0.2703
  712MOL0     C96020   1.734   5.081   3.568 -0.4405  0.2790 -0.2813
  712MOL0     O96021   1.630   5.103   3.483  0.7469 -0.6217 -0.1204
  712MOL0     C96022   1.543   4.987   3.464 -0.3142  0.1979  0.3392
  712MOL0     C96023   1.433   4.973   3.572 -0.3698  0.3767  0.9807
  712MOL0     C96024   1.331   5.087   3.542 -0.3795  0.6619 -0.1866
  712MOL0     C96025   1.228   5.049   3.435 -0.2809  0.3794  0.6935
  712MOL0     C96026   1.091   5.131   3.436  0.5086  1.1827  0.1383
  712MOL0     C96027   1.113   5.279   3.431 -0.6853  1.0626 -0.1738
  712MOL0     C96028   0.985   5.351   3.418  0.0380  0.5661 -0.0409
  712MOL0     C96029   1.007   5.495   3.388  0.2832 -0.4097 -0.1796
  712MOL0    Cl96030   0.840   5.562   3.372 -0.0651 -0.0521  0.0982
  712MOL0     C96031   1.726   5.146   3.693  1.5321  0.3576 -0.3278
  712MOL0     C96032   1.813   5.116   3.797  0.2120 -1.1140 -0.2072
  712MOL0     O96033   1.879   5.017   4.061 -0.0601 -0.1360 -0.5374
  712MOL0     C96034   2.221   4.931   4.048 -0.3579  0.4868  0.1646
  712MOL0     C96035   2.337   4.939   4.122  0.3419  0.1532 -0.0914
  712MOL0     N96036   2.704   4.839   4.010 -0.1279 -0.4829  0.6487
  712MOL0     N96037   2.668   4.785   3.903 -0.1246 -0.0455  0.3462
  712MOL0     C96038   1.733   4.550   4.377 -0.1912  0.2433 -0.0960
  712MOL0     C96039   1.692   4.526   4.506 -0.1521  0.3420  0.5956
  712MOL0     C96040   1.635   4.587   4.961  0.4622 -0.2149 -0.3870
  712MOL0     C96041   1.505   4.533   4.946 -0.3199 -0.1175 -0.5376
  712MOL0     C96042   1.421   4.529   5.059  0.5707 -0.6174  0.0977
  712MOL0     C96043   1.463   4.579   5.181  0.6194  0.3139  0.1271
  712MOL0     O96044   1.367   4.585   5.277  0.2255 -1.1700  0.3109
  712MOL0     C96045   1.403   4.636   5.404 -0.2843  0.8964 -0.2976
  712MOL0     C96046   1.293   4.630   5.518  0.3041  0.1658 -0.5123
  712MOL0     C96047   1.281   4.486   5.579 -0.7407  0.0227 -0.2679
  712MOL0     C96048   1.160   4.421   5.510 -0.0067  0.2052  0.3856
  712MOL0     C96049   1.154   4.286   5.555 -0.2239  0.6156  0.0142
  712MOL0     C96050   1.147   4.172   5.603  0.6860  0.1802  0.3744
  712MOL0     C96051   1.597   4.611   5.198  0.1932 -0.3010  0.6303
  712MOL0     C96052   1.679   4.623   5.089  0.2764  0.1731 -0.3978
  712MOL0     H96053   1.819   4.800   4.665  0.2493 -0.1436  1.7845
  712MOL0     H96054   1.857   4.869   4.413 -1.3391  1.6988  1.4666
  712MOL0     H96055   2.029   4.696   4.162  0.9740 -1.5481  0.5828
  712MOL0     H96056   1.996   4.566   4.259  0.8831 -0.5669  0.0383
  712MOL0     H96057   1.859   4.468   4.048 -1.5323  1.9820  0.7518
  712MOL0     H96058   1.912   4.607   3.961 -2.1667 -1.3417 -0.4284
  712MOL0     H96059   2.109   4.461   4.118 -0.6326  0.1509  0.4254
  712MOL0     H96060   2.067   4.382   3.967 -2.7411 -0.0068  1.4201
  712MOL0     H96061   2.130   4.584   3.833  3.7725  1.0760 -1.6563
  712MOL0     H96062   2.191   4.649   3.987 -0.5686 -1.0324  1.7147
  712MOL0     H96063   2.316   4.429   4.006 -3.2554  0.4851  1.2914
  712MOL0     H96064   2.274   4.409   3.834  1.5119 -0.7334  0.3719
  712MOL0     H96065   2.379   4.646   3.815  0.8294  1.4515  1.0451
  712MOL0     H96066   2.455   4.615   3.972  0.1804  1.3210 -0.6834
  712MOL0     H96067   2.548   4.409   3.914  1.4833  0.4095  1.0630
  712MOL0     H96068   2.499   4.419   3.751  2.9989  0.2299  0.1940
  712MOL0     H96069   2.635   4.613   3.701  0.2336  1.1689 -0.5744
  712MOL0     H96070   2.735   4.494   3.778  1.1979  2.1536  1.4127
  712MOL0     H96071   2.791   4.526   4.048 -0.0833  0.6898 -1.0356
  712MOL0     H96072   2.801   4.644   4.271  1.4495 -0.3109  0.3092
  712MOL0     H96073   2.894   4.787   4.222  1.7247 -3.7078  0.4602
  712MOL0     H96074   2.671   4.921   4.253 -4.0675 -1.6200  0.2214
  712MOL0     H96075   2.736   4.861   4.398 -1.7446 -0.8080  1.3017
  712MOL0     H96076   2.581   4.681   4.387 -0.7893 -0.4888 -0.6847
  712MOL0     H96077   2.510   4.738   4.228 -0.0031  1.0389 -0.6936
  712MOL0     H96078   2.508   4.880   4.501 -1.5875  2.9059  1.4083
  712MOL0     H96079   2.374   4.808   4.422  1.0166 -0.8199  0.7728
  712MOL0     H96080   2.216   5.077   4.406 -1.4925  1.4834 -0.2054
  712MOL0     H96081   1.980   5.207   4.211  0.0584 -3.4177 -2.5781
  712MOL0     H96082   1.899   5.082   4.318 -0.8108  0.7480  0.1407
  712MOL0     H96083   2.025   5.188   4.376 -0.3813 -0.5933 -0.0883
  712MOL0     H96084   1.991   4.870   3.642  1.2069  0.7615  0.8945
  712MOL0     H96085   1.812   4.917   3.470 -0.3382  2.8336 -1.5158
  712MOL0     H96086   1.502   5.004   3.364 -1.3127 -0.0352  0.6995
  712MOL0     H96087   1.591   4.890   3.456 -0.5974  0.0861 -0.0627
  712MOL0     H96088   1.381   4.877   3.567 -2.4473  1.3929  1.9905
  712MOL0     H96089   1.474   4.984   3.673  0.4011 -0.0224  0.7216
  712MOL0     H96090   1.386   5.180   3.525  0.8530  0.4730  2.1890
  712MOL0     H96091   1.282   5.110   3.637 -4.4413  0.4702 -2.0116
  712MOL0     H96092   1.270   5.051   3.334 -0.0265 -1.9047  0.6935
  712MOL0     H96093   1.201   4.943   3.443 -1.8776  0.5456 -1.5708
  712MOL0     H96094   1.035   5.103   3.526  0.0620  1.9699  0.1110
  712MOL0     H96095   1.031   5.104   3.349  1.7908  0.8547 -0.6689
  712MOL0     H96096   1.166   5.317   3.519  1.9145 -0.5964 -0.9117
  712MOL0     H96097   1.175   5.303   3.344  1.2355  1.7278  1.2779
  712MOL0     H96098   0.915   5.337   3.501 -1.0412  3.2885 -0.3761
  712MOL0     H96099   0.927   5.307   3.337 -4.0725  1.8022  1.9417
  712MOL0     H96100   1.071   5.517   3.302  2.0917 -2.7954  0.4460
  712MOL0     H96101   1.055   5.540   3.475  0.2701 -0.6246 -0.0606
  712MOL0     H96102   1.650   5.223   3.691  2.8389  1.6795 -1.9150
  712MOL0     H96103   1.795   5.164   3.892  1.7424 -1.3145  0.2182
  712MOL0     H96104   2.228   4.884   3.951 -1.6136 -0.8550  0.6782
  712MOL0     H96105   2.425   4.910   4.066  0.8812  1.6686 -0.0487
  712MOL0     H96106   1.712   4.464   4.314 -2.4648 -0.5996  1.6718
  712MOL0     H96107   1.660   4.432   4.551 -3.4719  0.0153 -2.0770
  712MOL0     H96108   1.467   4.481   4.859 -2.5229  0.0425  0.2611
  712MOL0     H96109   1.316   4.510   5.045  0.8250 -0.5357 -2.4292
  712MOL0     H96110   1.492   4.583   5.439  0.1572  0.3096 -2.2037
  712MOL0     H96111   1.433   4.741   5.396  4.2123 -0.1443  0.4345
  712MOL0     H96112   1.191   4.663   5.494 -0.4598 -2.8315 -1.9459
  712MOL0     H96113   1.331   4.695   5.597 -1.1066  1.2435 -0.6794
  712MOL0     H96114   1.264   4.487   5.687  0.6279  1.1716 -0.0394
  712MOL0     H96115   1.371   4.426   5.564 -0.0520  0.2960  2.2543
  712MOL0     H96116   1.155   4.423   5.401 -4.0189 -2.1557  0.3063
  712MOL0     H96117   1.069   4.471   5.546 -0.4622  0.8021 -1.5107
  712MOL0     H96118   1.141   4.080   5.658 -0.0011  1.0285  1.7844
  712MOL0     H96119   1.638   4.639   5.294  0.8916 -0.3364  0.3432
  712MOL0     H96120   1.779   4.650   5.123 -0.7858 -0.7159  4.0623
  713MOL0     O96121  10.691   2.563   1.380 -0.0913 -0.8624  0.4174
  713MOL0     C96122  10.779   2.511   1.444 -0.5052 -0.8105 -0.8830
  713MOL0     O96123  10.752   2.440   1.557  0.2884 -0.4612 -0.6531
  713MOL0     C96124  10.625   2.435   1.620 -0.0624  0.6059 -0.2954
  713MOL0     C96125  10.627   2.335   1.714  0.4632 -0.4517  0.4359
  713MOL0     C96126  10.522   2.322   1.802 -0.6350 -0.8813 -0.1208
  713MOL0     C96127  10.411   2.400   1.792  1.1379 -0.2894  0.4033
  713MOL0     O96128  10.314   2.394   1.893  0.4666 -0.4808 -0.0827
  713MOL0     C96129  10.181   2.362   1.854  0.2195 -0.6481  0.0150
  713MOL0     C96130  10.117   2.272   1.958  0.3415 -0.0033 -0.1905
  713MOL0     C96131   9.971   2.225   1.922 -0.1141  0.1474 -0.3495
  713MOL0     C96132   9.952   2.156   1.789  0.3554  0.4202  0.5076
  713MOL0     C96133   9.797   2.122   1.776  0.9159 -0.4096 -1.0743
  713MOL0     C96134   9.772   2.038   1.657  0.4233  0.1359 -0.1372
  713MOL0     C96135   9.634   1.970   1.658  0.1093 -0.3381 -0.3709
  713MOL0     C96136   9.664   1.819   1.685  1.0487  0.2680  0.8442
  713MOL0     N96137   9.720   1.788   1.815 -1.0695  0.7685 -0.1973
  713MOL0     C96138   9.663   1.801   1.936  0.7480  0.7833  0.0397
  713MOL0     C96139   9.766   1.780   2.026 -0.2220 -0.4980  0.1521
  713MOL0     C96140   9.764   1.787   2.180 -0.0316  0.2637 -0.5022
  713MOL0     C96141   9.802   1.647   2.245  0.1205 -0.3066  0.2393
  713MOL0     C96142   9.718   1.530   2.186  0.5167 -0.0935  0.2607
  713MOL0     C96143   9.569   1.565   2.221  0.0221 -0.2603 -0.1506
  713MOL0     O96144   9.503   1.441   2.251 -0.0985 -0.0984 -0.1821
  713MOL0     C96145   9.510   1.395   2.384  0.3784 -0.4775 -0.0491
  713MOL0     C96146   9.573   1.459   2.496  0.7118 -0.2160 -0.2861
  713MOL0     C96147   9.561   1.400   2.620 -1.2218  0.2114  0.0870
  713MOL0     C96148   9.636   1.459   2.742  0.0453 -0.3941  0.3273
  713MOL0     C96149   9.494   1.269   2.632 -0.3312  0.4337 -0.9978
  713MOL0     C96150   9.477   1.203   2.761 -0.4505 -0.2714  0.3775
  713MOL0     O96151   9.446   1.073   2.752  0.1759 -0.1700 -0.1883
  713MOL0     C96152   9.367   1.004   2.844  0.1631 -0.2212 -0.5239
  713MOL0     C96153   9.359   0.870   2.827 -0.5063  0.5745  0.3178
  713MOL0     C96154   9.277   0.787   2.901  0.1928  0.3866 -0.2037
  713MOL0     C96155   9.184   0.840   2.987  0.1348 -0.7034  0.0599
  713MOL0     O96156   9.099   0.771   3.062  0.2200 -0.1174 -0.0759
  713MOL0     C96157   9.086   0.632   3.052  0.2562 -0.7703  0.6708
  713MOL0     C96158   8.991   0.597   3.161 -0.2781  0.0481 -0.5039
  713MOL0     C96159   9.053   0.561   3.294 -0.9998  0.3642  0.3166
  713MOL0     C96160   8.965   0.515   3.408 -0.1822 -0.0061 -0.7824
  713MOL0     C96161   8.866   0.408   3.376 -0.4688  0.3621  0.0600
  713MOL0     C96162   8.789   0.368   3.498  0.6229  0.0816  0.0739
  713MOL0     C96163   8.661   0.291   3.466  0.2445  0.3287  0.3613
  713MOL0     C96164   8.623   0.205   3.583  0.6144  0.0953 -0.4879
  713MOL0    Cl96165   8.452   0.139   3.572  0.5736 -0.2800 -0.3891
  713MOL0     C96166   9.190   0.972   3.010 -0.1626 -0.0369 -0.1550
  713MOL0     C96167   9.276   1.062   2.934 -0.1094  0.3022 -0.7299
  713MOL0     O96168   9.501   1.264   2.867 -0.2602  0.3526 -0.6045
  713MOL0     C96169   9.441   1.207   2.519 -0.9709  0.0953  0.6732
  713MOL0     C96170   9.453   1.272   2.396  0.6675 -0.5090 -0.4324
  713MOL0     N96171   9.881   1.743   1.952 -0.2913 -0.1649  0.3254
  713MOL0     N96172   9.852   1.751   1.830  0.3529 -0.4208 -0.0083
  713MOL0     C96173  10.406   2.495   1.682 -0.2614 -0.9631  0.3092
  713MOL0     C96174  10.519   2.522   1.601  0.6208  0.1606  0.0585
  713MOL0     C96175  10.920   2.502   1.405  0.5213 -0.7450  0.2660
  713MOL0     C96176  10.974   2.605   1.321 -0.4168 -0.6413 -0.3481
  713MOL0     C96177  11.113   2.602   1.297 -0.5860  0.1365  0.1230
  713MOL0     C96178  11.186   2.492   1.341 -1.1879 -0.4889  0.0076
  713MOL0     O96179  11.320   2.509   1.307  0.4392 -0.1603 -0.5149
  713MOL0     C96180  11.424   2.415   1.349  0.0643  0.3543  0.6280
  713MOL0     C96181  11.563   2.468   1.306  0.0876 -0.1906  0.8642
  713MOL0     C96182  11.593   2.610   1.373  0.0877 -0.8684 -0.2302
  713MOL0     C96183  11.628   2.602   1.522 -0.2424 -0.7290 -0.0589
  713MOL0     C96184  11.749   2.524   1.553 -0.9736 -0.7557 -0.9757
  713MOL0     C96185  11.859   2.482   1.582 -0.3113 -0.1244  0.0068
  713MOL0     C96186  11.140   2.386   1.415 -0.7556 -0.4713  0.7150
  713MOL0     C96187  11.002   2.399   1.451 -0.3816  0.4684  0.2538
  713MOL0     H96188  10.720   2.279   1.719  0.9714  0.0347 -2.2310
  713MOL0     H96189  10.526   2.251   1.883 -1.5348  0.6340  1.3134
  713MOL0     H96190  10.124   2.455   1.847 -0.9269 -1.2846  0.5427
  713MOL0     H96191  10.173   2.298   1.766  0.8642 -3.2671  1.7481
  713MOL0     H96192  10.180   2.184   1.970 -1.2285 -0.9030  2.0989
  713MOL0     H96193  10.118   2.323   2.055  0.0721  1.1925 -0.7881
  713MOL0     H96194   9.935   2.159   2.002 -0.9156 -0.9532 -1.5788
  713MOL0     H96195   9.915   2.319   1.925  0.1183  0.2877  2.0978
  713MOL0     H96196   9.981   2.224   1.708 -1.0168 -1.8636 -2.0652
  713MOL0     H96197  10.011   2.064   1.783  2.2249  1.6278 -3.7007
  713MOL0     H96198   9.783   2.058   1.864  2.0785  1.8072  0.8416
  713MOL0     H96199   9.729   2.207   1.782  0.0628 -1.1355 -0.0450
  713MOL0     H96200   9.780   2.105   1.571 -0.6818  1.6191  0.8664
  713MOL0     H96201   9.852   1.966   1.639  0.4872 -0.3869  1.9313
  713MOL0     H96202   9.582   2.002   1.749 -0.0565 -0.3518 -0.4617
  713MOL0     H96203   9.587   1.973   1.559 -1.2004 -0.9635  0.2047
  713MOL0     H96204   9.724   1.786   1.601 -0.7598 -0.4077 -0.2458
  713MOL0     H96205   9.577   1.754   1.672  1.6783 -0.2221 -1.1957
  713MOL0     H96206   9.563   1.824   1.969  0.6905  0.8975 -0.2067
  713MOL0     H96207   9.829   1.874   2.197 -1.6295  1.1947  1.2555
  713MOL0     H96208   9.665   1.821   2.210 -1.0660 -1.7100 -1.5293
  713MOL0     H96209   9.796   1.652   2.354  3.4724  2.8864  0.4384
  713MOL0     H96210   9.906   1.620   2.224  0.2051  0.2882 -0.1236
  713MOL0     H96211   9.745   1.440   2.242 -0.1976  1.5685  3.4909
  713MOL0     H96212   9.736   1.516   2.079 -0.9398  2.3959 -0.3965
  713MOL0     H96213   9.520   1.615   2.137  0.4351 -0.7842 -0.7121
  713MOL0     H96214   9.555   1.631   2.307  0.1757 -1.6334  0.9687
  713MOL0     H96215   9.623   1.555   2.485  0.0571  0.1816  0.1424
  713MOL0     H96216   9.710   1.535   2.714  1.8268 -1.3324  2.1839
  713MOL0     H96217   9.556   1.509   2.796 -0.9508  0.4945 -1.8512
  713MOL0     H96218   9.688   1.377   2.793  0.9482 -0.6463 -0.9248
  713MOL0     H96219   9.437   0.824   2.768  0.3692  2.2711  0.0838
  713MOL0     H96220   9.279   0.680   2.882  0.3662  0.2103  0.7365
  713MOL0     H96221   9.047   0.607   2.953  0.5690 -5.4084  1.4816
  713MOL0     H96222   9.182   0.579   3.053  2.3638  2.6650 -1.0719
  713MOL0     H96223   8.922   0.678   3.189  1.0047  0.5149  1.5498
  713MOL0     H96224   8.920   0.523   3.124 -1.0563 -0.4947  1.9014
  713MOL0     H96225   9.093   0.656   3.330  0.3635 -0.9769  2.6227
  713MOL0     H96226   9.138   0.491   3.288  0.4608  2.1587 -1.2806
  713MOL0     H96227   9.025   0.476   3.490 -1.4954  1.3875  0.9216
  713MOL0     H96228   8.910   0.601   3.447 -2.6900 -2.4869  1.5695
  713MOL0     H96229   8.912   0.317   3.335  2.1807  0.6624  2.0993
  713MOL0     H96230   8.796   0.453   3.305  0.1454  1.5449  0.1873
  713MOL0     H96231   8.856   0.307   3.559 -0.1807 -0.4822  0.4071
  713MOL0     H96232   8.762   0.446   3.569 -1.6161 -1.7368  1.3470
  713MOL0     H96233   8.665   0.232   3.374 -2.1714  0.5412  0.0619
  713MOL0     H96234   8.582   0.360   3.434 -0.2903 -0.6525 -0.5100
  713MOL0     H96235   8.628   0.265   3.674 -0.3420 -2.4578  1.3855
  713MOL0     H96236   8.708   0.137   3.594  2.3931  2.0494 -1.4108
  713MOL0     H96237   9.115   1.024   3.070  0.0637  1.3883 -1.0498
  713MOL0     H96238   9.258   1.168   2.950  1.4106  0.5600 -0.5196
  713MOL0     H96239   9.392   1.110   2.513  1.3038 -1.0276 -3.0488
  713MOL0     H96240   9.424   1.227   2.301  1.7356  1.2085 -1.6341
  713MOL0     H96241  10.317   2.555   1.667  1.0818  1.0417  0.0340
  713MOL0     H96242  10.530   2.609   1.537  0.0486  0.1321 -0.0832
  713MOL0     H96243  10.932   2.701   1.293 -2.2273 -0.8022  1.5439
  713MOL0     H96244  11.153   2.690   1.248 -0.0210  0.6449  1.4251
  713MOL0     H96245  11.422   2.394   1.457 -0.3350  2.6096  1.1284
  713MOL0     H96246  11.399   2.325   1.293  0.8183 -0.5177  1.6705
  713MOL0     H96247  11.568   2.491   1.199  1.2781  1.6828  1.2570
  713MOL0     H96248  11.645   2.399   1.329  3.8996  2.9002 -1.9472
  713MOL0     H96249  11.508   2.678   1.364 -0.0761 -0.8138  1.4569
  713MOL0     H96250  11.678   2.655   1.320 -0.7958  0.7868 -0.3106
  713MOL0     H96251  11.539   2.554   1.565 -0.1893 -1.7808 -1.0678
  713MOL0     H96252  11.646   2.705   1.554  1.9775 -0.2283 -2.6045
  713MOL0     H96253  11.959   2.462   1.615 -0.0614  1.0195 -0.0147
  713MOL0     H96254  11.199   2.303   1.450  1.7729  0.7566 -0.4096
  713MOL0     H96255  10.948   2.330   1.515  0.9559  0.0777  1.0083
  714MOL0     O96256   9.800   9.216   2.190  0.0204  0.7640 -0.1948
  714MOL0     C96257   9.837   9.202   2.310 -0.2093  0.1824  0.1108
  714MOL0     O96258   9.768   9.135   2.403  0.6084 -0.3243  0.3368
  714MOL0     C96259   9.652   9.073   2.364  0.5225 -0.9614 -0.2717
  714MOL0     C96260   9.532   9.148   2.336  0.0408 -0.0372  0.1532
  714MOL0     C96261   9.421   9.078   2.297 -0.8573 -1.1348  0.0559
  714MOL0     C96262   9.409   8.943   2.315 -0.1755  0.5298  0.2057
  714MOL0     O96263   9.292   8.879   2.287 -0.5938  0.1154 -0.2635
  714MOL0     C96264   9.278   8.749   2.339 -0.6461 -0.5044 -0.2917
  714MOL0     C96265   9.147   8.698   2.286 -0.1928  0.3009 -0.5324
  714MOL0     C96266   9.026   8.797   2.303  0.5152  0.5264 -0.1392
  714MOL0     C96267   8.896   8.723   2.275 -0.5630 -1.1980  1.0786
  714MOL0     C96268   8.790   8.821   2.309  0.2684 -0.8313 -0.5428
  714MOL0     C96269   8.653   8.763   2.269 -0.5602  0.4811 -0.7909
  714MOL0     C96270   8.590   8.833   2.150 -0.7084  0.0813 -0.3330
  714MOL0     C96271   8.430   8.830   2.158 -0.6556 -0.5974 -0.0852
  714MOL0     N96272   8.387   8.699   2.133  1.0298 -0.0830  0.4441
  714MOL0     C96273   8.441   8.587   2.069  0.1919 -0.9043 -0.5664
  714MOL0     C96274   8.355   8.484   2.094  0.0556  0.5563 -0.4151
  714MOL0     C96275   8.365   8.344   2.053  0.0217 -0.5213 -0.4052
  714MOL0     C96276   8.510   8.306   2.012 -0.0813  0.5447 -0.5532
  714MOL0     C96277   8.593   8.297   2.130  0.1110  1.3702  0.0013
  714MOL0     C96278   8.738   8.277   2.080 -0.6085  0.6353  0.0768
  714MOL0     O96279   8.790   8.401   2.025  0.3846 -0.1991 -0.3502
  714MOL0     C96280   8.920   8.409   1.980 -0.6548  0.4665 -0.5897
  714MOL0     C96281   8.956   8.533   1.931 -0.9510  0.5344  0.0269
  714MOL0     C96282   9.084   8.565   1.898 -0.3567 -0.0196  0.6801
  714MOL0     C96283   9.092   8.712   1.877 -0.8424 -0.4612  0.1493
  714MOL0     C96284   9.192   8.470   1.907  0.0806  0.5969  0.1498
  714MOL0     C96285   9.335   8.514   1.882 -0.1755  1.3713 -0.5185
  714MOL0     O96286   9.368   8.636   1.861 -0.3066 -1.3331  0.0358
  714MOL0     C96287   9.495   8.678   1.889  0.2235 -0.2857  0.0366
  714MOL0     C96288   9.525   8.740   2.011 -0.7238 -0.4012 -0.5447
  714MOL0     C96289   9.659   8.780   2.034 -0.0762  0.4964 -0.2430
  714MOL0     C96290   9.765   8.748   1.939 -0.2744 -1.3843 -0.3913
  714MOL0     O96291   9.891   8.801   1.943 -0.8717  0.4580 -0.3512
  714MOL0     C96292   9.956   8.813   2.075  0.1285 -0.1972 -0.0012
  714MOL0     C96293  10.102   8.854   2.049 -0.5186  0.0758 -0.5873
  714MOL0     C96294  10.105   8.998   1.995 -0.7693  0.1416  0.2368
  714MOL0     C96295  10.251   9.024   1.946 -0.2662  0.3103 -0.2745
  714MOL0     C96296  10.338   9.055   2.067  0.1050 -0.1601  0.0109
  714MOL0     C96297  10.482   9.085   2.033  0.2918 -0.2514 -0.9047
  714MOL0     C96298  10.563   9.082   2.164  0.6723 -0.0885  0.0172
  714MOL0     C96299  10.630   9.213   2.190 -0.3965 -0.1736 -0.5643
  714MOL0    Cl96300  10.507   9.330   2.238 -0.7766 -0.5451  0.0773
  714MOL0     C96301   9.730   8.693   1.819  0.3606  0.1514  0.1641
  714MOL0     C96302   9.595   8.653   1.796 -0.0594  0.1526 -0.2847
  714MOL0     O96303   9.407   8.426   1.916  0.1027  0.2594 -0.0823
  714MOL0     C96304   9.157   8.331   1.939 -0.6493 -0.8237 -0.5038
  714MOL0     C96305   9.023   8.307   1.982 -0.5151  0.1802 -0.3939
  714MOL0     N96306   8.257   8.531   2.174 -0.0928 -1.0737  0.2134
  714MOL0     N96307   8.275   8.657   2.199 -0.5491  0.1689  0.3773
  714MOL0     C96308   9.525   8.868   2.364 -0.2097  0.2554  1.1073
  714MOL0     C96309   9.647   8.937   2.381 -1.1492  0.8273  0.7986
  714MOL0     C96310   9.960   9.280   2.355 -0.5316 -0.5026  0.2600
  714MOL0     C96311   9.991   9.289   2.494 -0.0362 -0.8263 -0.7460
  714MOL0     C96312  10.087   9.388   2.536 -0.5420  0.4797 -0.9577
  714MOL0     C96313  10.159   9.460   2.443 -0.2292 -0.1025  0.0582
  714MOL0     O96314  10.254   9.551   2.488 -0.5117 -0.6542  0.2677
  714MOL0     C96315  10.354   9.613   2.409 -0.7433  0.0499 -0.2300
  714MOL0     C96316  10.304   9.748   2.354  0.0345  0.8307 -0.0252
  714MOL0     C96317  10.285   9.843   2.477  0.4585 -0.3444 -0.0127
  714MOL0     C96318  10.410   9.925   2.489 -0.3411  0.2191  0.5775
  714MOL0     C96319  10.379  10.036   2.579 -0.0909  0.8805 -0.4489
  714MOL0     C96320  10.349  10.131   2.649 -1.1144 -0.6460  0.6176
  714MOL0     C96321  10.144   9.433   2.308 -0.4171  0.3880  0.1872
  714MOL0     C96322  10.048   9.351   2.267  0.6754  0.4863  0.2705
  714MOL0     H96323   9.546   9.256   2.333 -2.1042  0.3410  1.6809
  714MOL0     H96324   9.332   9.133   2.269 -1.2102 -1.5323  0.3638
  714MOL0     H96325   9.360   8.684   2.307  1.7954  2.5932 -0.8893
  714MOL0     H96326   9.284   8.757   2.448  0.9928 -1.6895 -0.2612
  714MOL0     H96327   9.162   8.677   2.179 -2.3361 -1.4734 -0.5594
  714MOL0     H96328   9.135   8.608   2.346  1.9904  2.2361  3.1398
  714MOL0     H96329   9.011   8.820   2.409 -1.8130 -0.4005 -0.2237
  714MOL0     H96330   9.049   8.891   2.252  0.4317  0.6225  0.0006
  714MOL0     H96331   8.886   8.698   2.170 -0.8980 -2.7248  1.4559
  714MOL0     H96332   8.872   8.628   2.325 -2.3408 -1.3327  0.0590
  714MOL0     H96333   8.785   8.831   2.418  0.8760  2.5683 -0.7308
  714MOL0     H96334   8.808   8.922   2.272 -1.7039  0.4285  1.6672
  714MOL0     H96335   8.662   8.656   2.248 -1.8927 -0.1904  1.6567
  714MOL0     H96336   8.587   8.782   2.355 -0.3192  2.0068 -0.9238
  714MOL0     H96337   8.615   8.937   2.172  0.7291 -0.4752  0.8765
  714MOL0     H96338   8.634   8.805   2.054 -1.6263 -1.9119 -0.2221
  714MOL0     H96339   8.402   8.905   2.084  0.7226  0.0995  0.0623
  714MOL0     H96340   8.400   8.855   2.261  0.4176 -2.7662  0.8263
  714MOL0     H96341   8.510   8.597   1.986 -1.5679  0.4823 -1.9331
  714MOL0     H96342   8.324   8.273   2.125  0.2653 -0.8107 -0.5526
  714MOL0     H96343   8.301   8.345   1.964 -1.9230  2.5963  0.8523
  714MOL0     H96344   8.548   8.363   1.927  0.5662 -3.7971 -3.5476
  714MOL0     H96345   8.508   8.207   1.964 -1.6074 -0.4273  1.3573
  714MOL0     H96346   8.558   8.215   2.194 -1.5419  1.1325 -1.1684
  714MOL0     H96347   8.589   8.395   2.178  0.8429  1.0091  0.8452
  714MOL0     H96348   8.753   8.186   2.021  2.5460  1.1881 -0.1134
  714MOL0     H96349   8.798   8.260   2.170 -1.8650 -0.0508  0.8104
  714MOL0     H96350   8.888   8.617   1.939 -0.3642  0.8900  1.7580
  714MOL0     H96351   9.113   8.760   1.973 -4.5296  1.1316  0.3365
  714MOL0     H96352   9.170   8.741   1.806 -1.0056 -0.0239  0.1454
  714MOL0     H96353   9.000   8.757   1.839 -0.1408  0.2037 -0.7974
  714MOL0     H96354   9.448   8.751   2.086  0.8910 -1.0618  1.3136
  714MOL0     H96355   9.672   8.827   2.131 -1.0702 -2.8008  1.6548
  714MOL0     H96356   9.902   8.889   2.131  1.4009  2.6736 -2.3720
  714MOL0     H96357   9.948   8.717   2.126  0.4603 -0.4541 -0.4230
  714MOL0     H96358  10.172   8.846   2.133 -0.9439  0.4161 -0.2022
  714MOL0     H96359  10.143   8.781   1.978  4.4849  0.8559  1.0982
  714MOL0     H96360  10.075   9.070   2.072  0.1154 -0.3085  1.0232
  714MOL0     H96361  10.045   8.999   1.903 -0.7095 -2.9466  0.0716
  714MOL0     H96362  10.277   8.937   1.886 -2.1883 -1.4434  1.2892
  714MOL0     H96363  10.255   9.110   1.878  3.3149 -0.1156 -0.7926
  714MOL0     H96364  10.348   8.969   2.134  1.2053  0.8588  1.2150
  714MOL0     H96365  10.292   9.140   2.118 -1.4331 -0.8676 -0.1576
  714MOL0     H96366  10.530   9.009   1.970 -0.3626  1.0636 -3.0981
  714MOL0     H96367  10.486   9.179   1.977  2.1636 -1.8298 -3.6606
  714MOL0     H96368  10.645   9.010   2.156  2.0181  1.3611  0.1310
  714MOL0     H96369  10.515   9.060   2.260  2.1367 -1.2952  0.5265
  714MOL0     H96370  10.695   9.247   2.109  0.9850  0.8561  0.9226
  714MOL0     H96371  10.695   9.192   2.274  0.1269  2.2773 -0.2873
  714MOL0     H96372   9.811   8.675   1.749  3.1463 -1.4815  3.5084
  714MOL0     H96373   9.560   8.624   1.698  0.0349  0.6821 -0.4746
  714MOL0     H96374   9.234   8.254   1.932  1.6635  1.4151 -1.8049
  714MOL0     H96375   9.006   8.206   2.016 -2.6371  0.1980 -1.2882
  714MOL0     H96376   9.521   8.760   2.359 -0.0917  0.2999 -1.1844
  714MOL0     H96377   9.736   8.879   2.402 -1.0126  0.4913 -0.5754
  714MOL0     H96378   9.938   9.230   2.567 -1.1476  3.2346  2.0507
  714MOL0     H96379  10.092   9.400   2.644  0.3109  1.1138 -1.0595
  714MOL0     H96380  10.441   9.631   2.473 -0.6562  1.5581 -0.7350
  714MOL0     H96381  10.380   9.552   2.322 -1.1460  0.3676 -0.5735
  714MOL0     H96382  10.207   9.723   2.311 -1.0966  0.3627  2.5831
  714MOL0     H96383  10.371   9.780   2.274  0.8624 -3.9479 -1.5463
  714MOL0     H96384  10.261   9.797   2.573 -1.3860  1.9488  0.7079
  714MOL0     H96385  10.200   9.906   2.450  1.1246  1.7123  2.3748
  714MOL0     H96386  10.436   9.962   2.389  0.0901 -0.8550  0.2771
  714MOL0     H96387  10.490   9.864   2.532  1.4450 -0.8959 -3.7151
  714MOL0     H96388  10.326  10.218   2.708 -1.1572  0.4777 -0.9934
  714MOL0     H96389  10.204   9.466   2.224 -1.7491  0.7592 -0.6418
  714MOL0     H96390  10.031   9.364   2.160  1.8926  0.8513  0.1100
  715MOL0     O96391   2.739   0.461   6.279 -0.1507  0.5174 -0.2761
  715MOL0     C96392   2.784   0.348   6.239 -0.1076 -0.1389  0.2291
  715MOL0     O96393   2.714   0.237   6.233  0.3768  0.2011  0.0231
  715MOL0     C96394   2.596   0.238   6.304  0.2648 -0.0205  1.0049
  715MOL0     C96395   2.584   0.183   6.437 -0.4449  0.5674 -0.3254
  715MOL0     C96396   2.456   0.188   6.491  0.8596 -0.5049 -0.0400
  715MOL0     C96397   2.343   0.243   6.434  0.1824 -0.1073 -0.1278
  715MOL0     O96398   2.228   0.233   6.511 -0.3742 -0.0670  0.9762
  715MOL0     C96399   2.134   0.166   6.431 -0.2298  0.0077  0.1227
  715MOL0     C96400   1.993   0.158   6.504 -0.8783  0.2696 -0.6433
  715MOL0     C96401   1.892   0.116   6.400 -0.4586 -0.0464  0.4806
  715MOL0     C96402   1.755   0.139   6.450  0.2422 -0.3652  0.0373
  715MOL0     C96403   1.656   0.101   6.342 -0.0622  0.1467  0.8987
  715MOL0     C96404   1.510   0.103   6.385 -0.4926  0.4804  0.3638
  715MOL0     C96405   1.398   0.091   6.273 -0.5366 -0.7615  0.5604
  715MOL0     C96406   1.253   0.117   6.329 -0.7117  0.0324  0.3251
  715MOL0     N96407   1.222   0.255   6.368  0.3362  0.1154 -1.0213
  715MOL0     C96408   1.255   0.367   6.299  0.2351 -1.0440  0.1931
  715MOL0     C96409   1.218   0.463   6.386 -0.0945  0.5419  0.5764
  715MOL0     C96410   1.212   0.614   6.378  0.8886  0.2419  0.4517
  715MOL0     C96411   1.349   0.678   6.332  0.0737  0.4105  0.1912
  715MOL0     C96412   1.363   0.823   6.352  0.6111 -0.1120  0.2728
  715MOL0     C96413   1.327   0.894   6.225  0.4025 -0.6166 -1.1017
  715MOL0     O96414   1.190   0.870   6.177 -0.1933 -0.0652  0.2768
  715MOL0     C96415   1.085   0.951   6.224  0.3011 -0.4556  0.5115
  715MOL0     C96416   1.095   1.042   6.336 -0.2592  0.9700 -0.1534
  715MOL0     C96417   0.985   1.105   6.400  0.7577  0.1428  0.2537
  715MOL0     C96418   1.002   1.217   6.507 -0.4760  0.4254  0.2083
  715MOL0     C96419   0.857   1.060   6.362  0.1814  0.1487  0.1228
  715MOL0     C96420   0.730   1.099   6.433 -0.1772  0.1108  0.1559
  715MOL0     O96421   0.609   1.083   6.374 -0.1634  0.2520 -0.3979
  715MOL0     C96422   0.485   1.103   6.447 -0.1777  0.2397 -0.2707
  715MOL0     C96423   0.444   1.192   6.554  0.0113  0.1785 -0.4286
  715MOL0     C96424   0.314   1.200   6.614 -0.6020  1.2522 -0.6083
  715MOL0     C96425   0.214   1.114   6.557 -0.0012  0.5198 -0.8585
  715MOL0     O96426   0.083   1.097   6.601 -0.2622 -0.4032 -0.0219
  715MOL0     C96427   0.033   1.152   6.721  0.6961 -0.5996 -0.5445
  715MOL0     C96428  -0.102   1.219   6.698 -0.1078  0.3604 -0.6561
  715MOL0     C96429  -0.145   1.275   6.834 -0.6501 -0.1298 -0.0300
  715MOL0     C96430  -0.093   1.417   6.859  0.1922  0.5247 -0.0388
  715MOL0     C96431  -0.179   1.498   6.960 -0.2014  0.1943  0.6197
  715MOL0     C96432  -0.229   1.423   7.086 -0.2737  0.1790  0.2756
  715MOL0     C96433  -0.314   1.519   7.175 -0.1811  0.2484  1.1316
  715MOL0     C96434  -0.341   1.459   7.310 -1.2996 -0.6244  0.5854
  715MOL0    Cl96435  -0.415   1.598   7.399  0.1588  0.1720  0.0889
  715MOL0     C96436   0.249   1.024   6.457 -0.5545 -0.5973 -0.1216
  715MOL0     C96437   0.380   1.027   6.394 -0.8065  0.1596  0.3856
  715MOL0     O96438   0.748   1.134   6.548  0.0048  0.0408 -0.6758
  715MOL0     C96439   0.846   0.986   6.248 -0.2366 -0.9696 -0.9526
  715MOL0     C96440   0.954   0.926   6.182 -0.1104 -0.6393  0.4873
  715MOL0     N96441   1.174   0.406   6.499 -0.6879 -0.0040 -1.0173
  715MOL0     N96442   1.182   0.282   6.496 -0.5689 -0.3230  0.1260
  715MOL0     C96443   2.360   0.301   6.315 -0.0042 -0.8613  0.3760
  715MOL0     C96444   2.481   0.303   6.244  0.3479  0.5677  1.6538
  715MOL0     C96445   2.924   0.330   6.179  0.0138 -0.4808  0.4254
  715MOL0     C96446   3.014   0.437   6.176 -0.1736  0.8636 -0.1121
  715MOL0     C96447   3.147   0.433   6.131  0.4947 -0.5626  0.3601
  715MOL0     C96448   3.183   0.321   6.055  0.3111  0.0162  0.1948
  715MOL0     O96449   3.297   0.313   5.978  0.2893  0.4425  0.1575
  715MOL0     C96450   3.400   0.417   5.999  0.8783 -0.2391  0.5506
  715MOL0     C96451   3.495   0.383   6.118  0.3455 -0.3748 -0.7633
  715MOL0     C96452   3.577   0.259   6.100 -0.7079 -1.3840  0.4242
  715MOL0     C96453   3.496   0.133   6.128  0.0297 -0.0227 -0.2574
  715MOL0     C96454   3.578   0.007   6.127 -1.0647 -0.5878 -0.1234
  715MOL0     C96455   3.646  -0.090   6.109  0.0666  0.2956 -0.3127
  715MOL0     C96456   3.085   0.214   6.055 -0.5271 -0.1125  0.1060
  715MOL0     C96457   2.963   0.211   6.124 -0.5744 -1.4127  0.5380
  715MOL0     H96458   2.675   0.142   6.480  2.0517  3.2920 -2.5337
  715MOL0     H96459   2.444   0.151   6.593  1.1324 -0.3377  0.0540
  715MOL0     H96460   2.128   0.222   6.338 -1.3691  0.9735  0.7506
  715MOL0     H96461   2.180   0.067   6.421  2.1705  0.7395  2.4130
  715MOL0     H96462   2.006   0.100   6.596  2.5414  3.9782  1.5418
  715MOL0     H96463   1.959   0.256   6.539 -3.9306 -1.6886  2.6088
  715MOL0     H96464   1.916   0.146   6.297 -0.9521 -2.6976 -0.4944
  715MOL0     H96465   1.910   0.008   6.395  2.0658  0.2317  2.0369
  715MOL0     H96466   1.740   0.077   6.539  1.6340  3.5885  3.3797
  715MOL0     H96467   1.747   0.245   6.478  1.4877 -0.3158  0.2791
  715MOL0     H96468   1.653   0.183   6.270 -2.5484  2.2344  3.1582
  715MOL0     H96469   1.682   0.004   6.300  4.0067  1.7678 -0.8070
  715MOL0     H96470   1.509   0.023   6.460 -0.3224  2.1710  2.2504
  715MOL0     H96471   1.494   0.197   6.438  2.5981  2.1783 -1.4752
  715MOL0     H96472   1.413   0.171   6.201  0.9516  1.1672  2.8288
  715MOL0     H96473   1.403  -0.006   6.223 -1.2102 -1.4921  1.8475
  715MOL0     H96474   1.230   0.047   6.410 -1.4141 -0.9800 -0.7198
  715MOL0     H96475   1.196   0.081   6.243 -0.6343  0.1235  0.2342
  715MOL0     H96476   1.301   0.374   6.201 -0.8203 -2.3133 -0.4210
  715MOL0     H96477   1.130   0.644   6.312  1.7253  1.1280 -0.2166
  715MOL0     H96478   1.184   0.650   6.477 -2.4794 -0.0563 -0.2737
  715MOL0     H96479   1.385   0.639   6.236  0.0984  0.6899  0.0821
  715MOL0     H96480   1.422   0.630   6.398  0.7717  0.7987 -0.2778
  715MOL0     H96481   1.461   0.846   6.395  0.2456  0.1834  0.9693
  715MOL0     H96482   1.297   0.851   6.435 -0.2424  0.1548 -0.4943
  715MOL0     H96483   1.393   0.871   6.141  1.4996  1.5573 -0.8971
  715MOL0     H96484   1.346   1.001   6.234  0.0518 -0.6535  0.2000
  715MOL0     H96485   1.194   1.070   6.370  1.2693 -1.8841 -1.9064
  715MOL0     H96486   0.985   1.182   6.610 -2.4012 -1.4422 -0.6531
  715MOL0     H96487   1.102   1.261   6.504  0.2199 -1.1410 -0.5014
  715MOL0     H96488   0.934   1.300   6.486 -0.5577 -0.3953 -3.3554
  715MOL0     H96489   0.522   1.253   6.599  3.3235 -3.8645 -0.0582
  715MOL0     H96490   0.309   1.268   6.699 -1.1146  0.1868  0.2479
  715MOL0     H96491   0.030   1.074   6.798  1.4451  2.3867  2.7324
  715MOL0     H96492   0.106   1.217   6.770  1.1140 -2.7141  1.8500
  715MOL0     H96493  -0.096   1.300   6.624  0.0285  1.1512  0.2073
  715MOL0     H96494  -0.177   1.146   6.668  1.0858 -0.8791 -0.7029
  715MOL0     H96495  -0.117   1.216   6.922  1.0024 -0.2894 -0.6426
  715MOL0     H96496  -0.254   1.264   6.827 -0.3563 -2.9172 -1.3591
  715MOL0     H96497   0.012   1.415   6.887  1.1809  1.1067 -3.3005
  715MOL0     H96498  -0.102   1.475   6.766 -1.2970  1.5776  0.7172
  715MOL0     H96499  -0.264   1.540   6.906 -0.4003 -0.4045  0.4641
  715MOL0     H96500  -0.110   1.576   6.996 -0.2678 -0.6910  2.7797
  715MOL0     H96501  -0.286   1.336   7.053  0.2949  0.8919 -2.8855
  715MOL0     H96502  -0.148   1.379   7.146 -0.0034  0.0718 -0.1679
  715MOL0     H96503  -0.413   1.533   7.131 -0.3480 -0.6663  1.1925
  715MOL0     H96504  -0.253   1.610   7.179  1.4370 -0.7581  0.5450
  715MOL0     H96505  -0.244   1.440   7.356 -1.5528 -1.0839  0.9354
  715MOL0     H96506  -0.402   1.369   7.317  0.1354 -1.9241 -2.2264
  715MOL0     H96507   0.158   0.978   6.421 -0.1221 -1.6728  0.1315
  715MOL0     H96508   0.418   0.957   6.320 -1.6857 -1.2938  1.2579
  715MOL0     H96509   0.748   0.956   6.212 -1.2018 -1.0057  1.5563
  715MOL0     H96510   0.935   0.865   6.095 -4.6997  1.0683  0.0369
  715MOL0     H96511   2.274   0.352   6.272  0.1122 -0.7832  0.2329
  715MOL0     H96512   2.492   0.355   6.149 -1.8582  0.4785  1.2911
  715MOL0     H96513   2.982   0.528   6.226  0.8619  1.1644  0.0197
  715MOL0     H96514   3.212   0.518   6.151  2.4801 -1.9781  0.1944
  715MOL0     H96515   3.461   0.417   5.908 -1.1560  1.4626 -0.9033
  715MOL0     H96516   3.355   0.515   6.011  0.0445 -0.6770  1.1285
  715MOL0     H96517   3.426   0.372   6.202  0.9016  1.0968 -0.0890
  715MOL0     H96518   3.563   0.468   6.130  0.1785 -0.3943  0.4099
  715MOL0     H96519   3.672   0.263   6.154  1.9771 -2.9913 -3.6280
  715MOL0     H96520   3.619   0.267   5.999  2.1747  1.8235  1.6557
  715MOL0     H96521   3.416   0.135   6.054 -1.2436  0.2456  1.0744
  715MOL0     H96522   3.445   0.158   6.222 -0.0033  0.9289 -0.5224
  715MOL0     H96523   3.713  -0.172   6.090 -1.0300 -0.4093 -1.2095
  715MOL0     H96524   3.119   0.133   5.992 -0.3933  1.2647 -1.6804
  715MOL0     H96525   2.894   0.129   6.111 -0.6028 -1.1501 -1.3478
  716MOL0     O96526   8.825   5.594   5.484  1.1097 -0.5385 -0.4713
  716MOL0     C96527   8.938   5.643   5.472  0.0766  0.2609 -0.2631
  716MOL0     O96528   8.978   5.772   5.478  0.2086 -0.1259 -0.6927
  716MOL0     C96529   8.905   5.876   5.532  0.6297  0.0806 -0.3455
  716MOL0     C96530   8.762   5.871   5.551 -0.1751  0.8538 -0.3915
  716MOL0     C96531   8.691   5.969   5.613 -0.3520  0.6355  0.1993
  716MOL0     C96532   8.759   6.092   5.645 -0.0680  0.8025 -0.8551
  716MOL0     O96533   8.697   6.211   5.691  0.4611 -0.0110  0.4504
  716MOL0     C96534   8.734   6.228   5.833  0.1329  0.4943 -0.2545
  716MOL0     C96535   8.635   6.310   5.910 -0.0952  0.4370  0.2044
  716MOL0     C96536   8.698   6.365   6.037 -0.6975 -0.4259 -0.4907
  716MOL0     C96537   8.586   6.416   6.124  1.0368  0.3501 -1.0638
  716MOL0     C96538   8.648   6.465   6.253 -0.1474  0.1772 -0.0671
  716MOL0     C96539   8.548   6.538   6.336  0.0380  0.2891  0.8196
  716MOL0     C96540   8.601   6.575   6.479 -0.2417 -0.6496  0.1311
  716MOL0     C96541   8.489   6.576   6.587 -0.0715 -0.0392  0.3975
  716MOL0     N96542   8.373   6.660   6.548 -0.3063 -0.2362  0.0402
  716MOL0     C96543   8.352   6.782   6.608 -0.4604  0.2819  0.2086
  716MOL0     C96544   8.219   6.800   6.581 -0.1893  0.2930 -1.0199
  716MOL0     C96545   8.128   6.906   6.623 -0.0882  0.4313  0.3574
  716MOL0     C96546   7.998   6.857   6.684 -0.9482 -0.7427 -0.0658
  716MOL0     C96547   7.892   6.973   6.675  0.9003  0.0904 -0.8573
  716MOL0     C96548   7.753   6.935   6.733  0.8471  0.4822 -0.7717
  716MOL0     O96549   7.748   6.938   6.870  0.6901  0.2789  0.2567
  716MOL0     C96550   7.629   6.951   6.925 -0.0902 -0.1608 -0.3901
  716MOL0     C96551   7.507   6.919   6.863 -0.1184  0.2545  0.1904
  716MOL0     C96552   7.393   6.916   6.944  0.4473  0.4060 -0.1654
  716MOL0     C96553   7.258   6.879   6.895  0.9535 -0.0611 -0.5908
  716MOL0     C96554   7.392   6.953   7.081 -0.1014 -0.5585 -1.0698
  716MOL0     C96555   7.270   6.963   7.162 -0.2706 -0.2867  0.6202
  716MOL0     O96556   7.210   7.098   7.168 -0.2854  0.6270 -0.0309
  716MOL0     C96557   7.076   7.108   7.199 -0.2233 -0.4432  0.4207
  716MOL0     C96558   6.986   7.023   7.149  0.4259 -0.1743 -0.2783
  716MOL0     C96559   6.853   7.025   7.194  0.4672  0.9524  0.1761
  716MOL0     C96560   6.825   7.097   7.299  0.0856 -0.0121 -0.0546
  716MOL0     O96561   6.702   7.097   7.361  0.5943  0.3767  0.4023
  716MOL0     C96562   6.577   7.055   7.305  0.4379  0.4001  0.0659
  716MOL0     C96563   6.464   7.097   7.400 -0.4629 -0.1392  0.1486
  716MOL0     C96564   6.423   6.988   7.508 -0.0159 -0.3164  0.4738
  716MOL0     C96565   6.336   7.020   7.628  0.0596 -0.3641 -1.1583
  716MOL0     C96566   6.198   7.049   7.596  0.5346 -0.7492  0.3225
  716MOL0     C96567   6.123   7.083   7.723 -0.8207 -0.4133 -0.2996
  716MOL0     C96568   5.970   7.100   7.704 -0.1469 -0.1287  0.1364
  716MOL0     C96569   5.903   6.966   7.737  0.8765 -0.6550  0.3060
  716MOL0    Cl96570   5.922   6.924   7.911 -0.1077 -0.3568 -0.0414
  716MOL0     C96571   6.923   7.191   7.353  0.1126 -0.3658 -0.4536
  716MOL0     C96572   7.044   7.198   7.295  0.5912 -0.2720  0.3781
  716MOL0     O96573   7.223   6.861   7.213 -0.3996 -0.1970  0.3628
  716MOL0     C96574   7.514   6.972   7.136 -0.2416 -0.9441  0.2770
  716MOL0     C96575   7.631   6.963   7.059 -0.2584  0.5100 -0.2750
  716MOL0     N96576   8.176   6.686   6.506  0.1890  0.0528 -0.5822
  716MOL0     N96577   8.267   6.602   6.491  0.1628 -0.7690  0.4171
  716MOL0     C96578   8.901   6.101   5.621  0.7638 -0.0809 -0.1158
  716MOL0     C96579   8.970   5.993   5.572 -0.4277  0.5216 -0.4533
  716MOL0     C96580   9.039   5.544   5.445 -1.0755 -0.2538  0.2554
  716MOL0     C96581   9.009   5.408   5.434  0.4233  1.3178 -0.4983
  716MOL0     C96582   9.108   5.317   5.407  0.2581 -0.1715 -0.3486
  716MOL0     C96583   9.237   5.351   5.373 -0.7638  0.3077 -0.5611
  716MOL0     O96584   9.328   5.248   5.360  0.0562 -0.0115  0.1327
  716MOL0     C96585   9.467   5.275   5.346  0.4183 -0.5328  0.5155
  716MOL0     C96586   9.541   5.140   5.365 -0.0977 -0.2542  0.4897
  716MOL0     C96587   9.689   5.185   5.382 -0.5298  0.0084  0.9221
  716MOL0     C96588   9.791   5.071   5.394 -0.2872 -0.6191  0.2500
  716MOL0     C96589   9.769   5.011   5.514  0.1509  0.0206  0.2168
  716MOL0     C96590   9.720   4.939   5.598 -0.0174  0.1107  0.2747
  716MOL0     C96591   9.272   5.488   5.374  0.0437  0.2086 -0.1834
  716MOL0     C96592   9.175   5.583   5.420  0.5811  0.1550  0.2970
  716MOL0     H96593   8.704   5.783   5.524 -0.5128  0.3466  1.8019
  716MOL0     H96594   8.584   5.961   5.633 -0.2746  1.0988  0.8242
  716MOL0     H96595   8.743   6.130   5.879  1.3289 -0.1431 -1.7727
  716MOL0     H96596   8.833   6.274   5.829  1.1562 -1.6114 -0.4437
  716MOL0     H96597   8.594   6.388   5.845  2.3757  1.1695 -0.6043
  716MOL0     H96598   8.551   6.245   5.935 -0.1798 -0.2023 -1.6175
  716MOL0     H96599   8.768   6.303   6.095  3.4844  1.8761 -2.5659
  716MOL0     H96600   8.758   6.444   5.989 -0.3536  0.4894  1.3628
  716MOL0     H96601   8.542   6.503   6.074 -0.8155  0.3170  0.3977
  716MOL0     H96602   8.511   6.339   6.142  1.4908  0.1567  0.1591
  716MOL0     H96603   8.683   6.374   6.303  0.5795 -0.4847 -1.6866
  716MOL0     H96604   8.728   6.534   6.226 -0.4973  1.3357  1.6875
  716MOL0     H96605   8.514   6.635   6.299 -1.2592  0.0424  1.3011
  716MOL0     H96606   8.457   6.477   6.346 -1.6507  2.0222 -2.4915
  716MOL0     H96607   8.674   6.497   6.503 -0.9721 -1.2942  0.2781
  716MOL0     H96608   8.631   6.681   6.481 -3.2678  0.2986  0.0534
  716MOL0     H96609   8.527   6.605   6.685 -1.4745  0.2877  0.8518
  716MOL0     H96610   8.451   6.476   6.608 -0.8370  0.1810  0.0859
  716MOL0     H96611   8.421   6.843   6.667 -1.0504  0.7636  0.4134
  716MOL0     H96612   8.172   6.970   6.700 -1.7625  2.0713  0.0143
  716MOL0     H96613   8.106   6.965   6.533 -0.1269 -0.8442 -0.4963
  716MOL0     H96614   8.029   6.831   6.786  2.3150 -1.7062 -1.1912
  716MOL0     H96615   7.966   6.765   6.634 -0.8742 -1.4037  1.0829
  716MOL0     H96616   7.892   7.018   6.576 -0.8124  2.4554  0.1239
  716MOL0     H96617   7.916   7.044   6.756 -4.1661 -2.9479  4.0393
  716MOL0     H96618   7.727   6.837   6.692  0.2948 -0.2779  1.2788
  716MOL0     H96619   7.676   7.003   6.692 -0.3341 -0.6521 -0.5057
  716MOL0     H96620   7.497   6.875   6.765  0.6676 -2.3671  1.1912
  716MOL0     H96621   7.192   6.965   6.883 -1.4099 -2.1266 -3.9949
  716MOL0     H96622   7.269   6.837   6.794  2.1856  1.1934 -1.0069
  716MOL0     H96623   7.203   6.807   6.957 -0.7618 -1.3535 -3.3869
  716MOL0     H96624   7.020   6.959   7.068  1.5437  2.1787 -1.7686
  716MOL0     H96625   6.788   6.957   7.139  2.3567  1.4035 -2.8327
  716MOL0     H96626   6.567   7.095   7.204  1.9109  1.1519  0.1830
  716MOL0     H96627   6.570   6.946   7.298  0.4715  0.4745 -1.3682
  716MOL0     H96628   6.505   7.190   7.440  0.8420 -0.6389  0.0372
  716MOL0     H96629   6.378   7.129   7.341  0.1564  1.0637 -0.1427
  716MOL0     H96630   6.508   6.932   7.548 -0.8124 -1.1325  1.0409
  716MOL0     H96631   6.367   6.917   7.448 -1.5120 -0.7498  2.2874
  716MOL0     H96632   6.337   6.935   7.696 -3.1657 -0.1762 -0.7023
  716MOL0     H96633   6.376   7.107   7.682  0.0410 -2.0464  1.7543
  716MOL0     H96634   6.141   6.966   7.555  0.4064 -0.2157 -0.6015
  716MOL0     H96635   6.195   7.129   7.522  1.6522  2.0783  3.0852
  716MOL0     H96636   6.150   7.007   7.797  2.1319  2.7177  2.1489
  716MOL0     H96637   6.167   7.174   7.763  1.2864 -1.4470 -0.1460
  716MOL0     H96638   5.952   7.135   7.602 -0.6712 -0.2819  0.1769
  716MOL0     H96639   5.936   7.181   7.769  0.7259  0.2370  0.1499
  716MOL0     H96640   5.945   6.887   7.674 -1.6460 -0.8959 -1.1789
  716MOL0     H96641   5.799   6.973   7.707  0.5447  1.6686  1.7324
  716MOL0     H96642   6.904   7.256   7.438  1.0888  0.3471 -0.7466
  716MOL0     H96643   7.128   7.262   7.322  1.9653  0.7752 -5.0109
  716MOL0     H96644   7.528   7.011   7.235 -0.8965  4.3445 -1.4272
  716MOL0     H96645   7.727   6.979   7.106  0.5974 -0.5223 -1.6042
  716MOL0     H96646   8.949   6.196   5.640 -3.3948  2.4252 -1.0379
  716MOL0     H96647   9.079   5.995   5.568 -0.4547  1.3935 -1.0563
  716MOL0     H96648   8.912   5.366   5.458  1.8749 -1.4619  0.9933
  716MOL0     H96649   9.078   5.213   5.411 -0.7863  0.1230 -0.2097
  716MOL0     H96650   9.488   5.315   5.246  0.8371 -0.1166  0.7661
  716MOL0     H96651   9.489   5.349   5.423 -1.2082  0.9421 -0.3698
  716MOL0     H96652   9.508   5.077   5.282 -2.1731  2.7029 -1.1383
  716MOL0     H96653   9.518   5.092   5.461  3.7540 -0.6219  1.4095
  716MOL0     H96654   9.714   5.251   5.466  4.1230 -0.3160  0.0951
  716MOL0     H96655   9.719   5.242   5.293 -1.1320  0.1411  0.8029
  716MOL0     H96656   9.895   5.104   5.391 -0.7949  1.0186 -1.9215
  716MOL0     H96657   9.783   4.989   5.321 -0.0346 -1.1637  0.8212
  716MOL0     H96658   9.694   4.888   5.688  3.2880 -1.7783  0.3087
  716MOL0     H96659   9.376   5.520   5.366 -0.7148  3.1338  0.3814
  716MOL0     H96660   9.200   5.689   5.423 -2.9656  1.1488 -0.5682
  717MOL0     O96661  10.923   0.509   5.362 -0.4074  0.1428  0.2666
  717MOL0     C96662  10.898   0.492   5.485  0.2116 -0.7487  0.5625
  717MOL0     O96663  10.789   0.436   5.539 -0.2517  0.1073 -0.1869
  717MOL0     C96664  10.684   0.393   5.459  0.5034  0.5029 -0.6459
  717MOL0     C96665  10.650   0.250   5.467  0.3891 -0.4636  1.0574
  717MOL0     C96666  10.539   0.204   5.397 -0.1044 -0.0220  0.9637
  717MOL0     C96667  10.464   0.283   5.307  0.2536  0.0260 -0.1006
  717MOL0     O96668  10.368   0.246   5.215  0.7295 -0.1900  1.3843
  717MOL0     C96669  10.361   0.105   5.176 -0.0112  0.2495  0.2415
  717MOL0     C96670  10.273   0.081   5.054 -0.0546  1.0252  0.4488
  717MOL0     C96671  10.242  -0.068   5.019 -0.0963 -0.3985  0.8047
  717MOL0     C96672  10.374  -0.133   4.973 -0.5797  0.6490 -0.4935
  717MOL0     C96673  10.356  -0.291   4.960 -0.0049  0.7615 -0.1007
  717MOL0     C96674  10.482  -0.378   4.946  0.4681  0.0592  0.9254
  717MOL0     C96675  10.444  -0.519   4.908 -0.9898  0.4080  0.5678
  717MOL0     C96676  10.342  -0.543   4.794  0.7884 -0.1213  1.1654
  717MOL0     N96677  10.347  -0.675   4.736 -0.1060  0.5748 -0.1838
  717MOL0     C96678  10.342  -0.711   4.604 -0.1641  0.7008  0.5565
  717MOL0     C96679  10.369  -0.846   4.609 -0.3000 -0.0556  0.6950
  717MOL0     C96680  10.427  -0.935   4.503 -0.6118 -0.5534  0.1574
  717MOL0     C96681  10.573  -0.905   4.472 -1.2843  1.2871 -0.3700
  717MOL0     C96682  10.667  -0.926   4.595  0.0044  0.7278 -0.7260
  717MOL0     C96683  10.804  -0.882   4.578 -0.8393 -0.5038  0.0309
  717MOL0     O96684  10.806  -0.735   4.555  0.1770  0.1270 -0.3294
  717MOL0     C96685  10.817  -0.646   4.656 -0.5659 -0.0999 -0.2857
  717MOL0     C96686  10.845  -0.514   4.626  0.4711 -0.0734  0.4639
  717MOL0     C96687  10.862  -0.416   4.718 -0.1164 -0.9770 -0.2686
  717MOL0     C96688  10.919  -0.285   4.665  0.1255 -0.1391  0.7812
  717MOL0     C96689  10.847  -0.441   4.858 -0.1892 -0.7429 -0.2117
  717MOL0     C96690  10.875  -0.346   4.967 -0.2579  0.7203 -0.6955
  717MOL0     O96691  10.782  -0.358   5.074 -0.2620  0.6969  0.0525
  717MOL0     C96692  10.798  -0.297   5.196  0.9186 -0.2343  0.2564
  717MOL0     C96693  10.747  -0.171   5.190 -0.3594 -0.1503  0.3900
  717MOL0     C96694  10.753  -0.086   5.303  0.1656 -0.6033 -0.1812
  717MOL0     C96695  10.823  -0.128   5.416  0.1053 -1.0135  0.1353
  717MOL0     O96696  10.840  -0.035   5.511  0.0659  0.1045 -0.5534
  717MOL0     C96697  10.949   0.059   5.499 -0.7202 -0.9922  0.6243
  717MOL0     C96698  11.044   0.011   5.606 -0.4902  0.0548 -0.3685
  717MOL0     C96699  11.012   0.059   5.754  0.3019 -1.0893  0.0245
  717MOL0     C96700  11.115   0.162   5.804  0.5854  0.0454  0.1115
  717MOL0     C96701  11.101   0.182   5.955 -0.0758 -0.0821 -1.1319
  717MOL0     C96702  10.965   0.232   6.013 -0.1508  0.9360  0.5249
  717MOL0     C96703  10.957   0.252   6.163  0.5322  0.2594  0.0583
  717MOL0     C96704  10.824   0.266   6.225  0.6066  0.6696 -0.2646
  717MOL0    Cl96705  10.838   0.358   6.378 -0.3798 -0.5168  0.2716
  717MOL0     C96706  10.893  -0.247   5.408  0.7085  0.1959  0.5518
  717MOL0     C96707  10.876  -0.341   5.305  0.0571 -0.4160 -1.0319
  717MOL0     O96708  10.973  -0.275   4.967 -0.3938 -0.1166 -0.2972
  717MOL0     C96709  10.812  -0.573   4.892 -0.3480 -0.1505 -0.2871
  717MOL0     C96710  10.790  -0.678   4.795  0.4243 -0.2637 -0.2358
  717MOL0     N96711  10.368  -0.889   4.735  0.4431  0.0045 -0.1071
  717MOL0     N96712  10.352  -0.788   4.807  0.0304  0.0114  0.1456
  717MOL0     C96713  10.516   0.418   5.294  1.0956  1.0589  1.0704
  717MOL0     C96714  10.618   0.474   5.366 -0.6764 -0.2103  1.4815
  717MOL0     C96715  11.009   0.535   5.575 -0.4898 -0.1489 -0.2307
  717MOL0     C96716  10.989   0.540   5.719  0.0727 -0.0422  1.4670
  717MOL0     C96717  11.090   0.585   5.809 -0.3280 -0.0090  0.0218
  717MOL0     C96718  11.211   0.629   5.760 -0.7871  0.2793 -0.7796
  717MOL0     O96719  11.308   0.679   5.844  0.2360 -0.1573 -0.0373
  717MOL0     C96720  11.428   0.745   5.797  0.1304  0.3277  0.0776
  717MOL0     C96721  11.502   0.812   5.920  0.5840 -0.9068  0.6007
  717MOL0     C96722  11.520   0.735   6.052 -0.2976 -0.6868  0.3928
  717MOL0     C96723  11.607   0.613   6.017  0.1721  0.9984 -0.1113
  717MOL0     C96724  11.629   0.525   6.135  1.4917  0.6510  0.1147
  717MOL0     C96725  11.638   0.441   6.225 -0.6167  0.1978  0.8591
  717MOL0     C96726  11.235   0.619   5.621  0.4167  0.1846  0.0366
  717MOL0     C96727  11.133   0.583   5.533  0.4426  0.5253 -0.3175
  717MOL0     H96728  10.694   0.177   5.535 -0.6437 -0.8954  1.2754
  717MOL0     H96729  10.498   0.106   5.420  0.6754 -0.3623  0.9488
  717MOL0     H96730  10.463   0.067   5.167 -0.6908 -1.6284  0.0773
  717MOL0     H96731  10.317   0.049   5.259  1.9280 -0.2515  0.9838
  717MOL0     H96732  10.180   0.134   5.080 -1.2787  0.0979 -1.7329
  717MOL0     H96733  10.324   0.123   4.967 -1.4193 -0.7764 -1.3043
  717MOL0     H96734  10.193  -0.113   5.106  1.7867  1.2966  2.8607
  717MOL0     H96735  10.171  -0.061   4.935  0.4615  1.6230  0.4348
  717MOL0     H96736  10.407  -0.079   4.884 -1.0991 -0.7358 -1.5745
  717MOL0     H96737  10.461  -0.123   5.038 -0.0260 -0.6404 -0.9939
  717MOL0     H96738  10.306  -0.333   5.047  0.6649  0.3192  0.0760
  717MOL0     H96739  10.288  -0.309   4.877 -0.1997  0.0991  0.2023
  717MOL0     H96740  10.558  -0.339   4.878 -0.0564  0.9864  0.8568
  717MOL0     H96741  10.526  -0.378   5.046 -0.0383  0.3277  1.1505
  717MOL0     H96742  10.543  -0.561   4.888 -0.1505  1.8646  1.4623
  717MOL0     H96743  10.393  -0.559   4.996 -0.5416 -0.7110  0.3387
  717MOL0     H96744  10.362  -0.462   4.723  1.4588 -1.3598 -0.1066
  717MOL0     H96745  10.241  -0.532   4.835  1.4890  1.1991  2.6060
  717MOL0     H96746  10.346  -0.644   4.519  2.2186  0.6394  0.5473
  717MOL0     H96747  10.415  -1.041   4.527 -0.4340 -0.6712 -0.2547
  717MOL0     H96748  10.374  -0.916   4.409  1.2173 -2.3938 -1.3346
  717MOL0     H96749  10.581  -0.798   4.447  0.7859  1.6926  1.6538
  717MOL0     H96750  10.607  -0.967   4.388  0.2568 -2.2543  2.6241
  717MOL0     H96751  10.674  -1.027   4.635 -2.7391  0.1162 -1.6350
  717MOL0     H96752  10.628  -0.872   4.681 -0.5012 -1.4720  0.4900
  717MOL0     H96753  10.840  -0.933   4.488  2.0705  0.5105  0.5117
  717MOL0     H96754  10.873  -0.913   4.657 -2.9146  0.0303  2.1545
  717MOL0     H96755  10.858  -0.491   4.521 -3.2181 -0.5614 -0.2515
  717MOL0     H96756  10.872  -0.260   4.569  1.0689 -1.1471  0.0260
  717MOL0     H96757  10.883  -0.207   4.733 -0.0246  1.9415 -1.5508
  717MOL0     H96758  11.027  -0.273   4.666 -0.0403  1.7928  0.2744
  717MOL0     H96759  10.679  -0.138   5.112  1.6073 -0.3184 -1.4919
  717MOL0     H96760  10.692   0.004   5.306 -3.8583 -3.0624 -0.1359
  717MOL0     H96761  11.000   0.059   5.402  0.4915 -0.4318  1.2346
  717MOL0     H96762  10.920   0.161   5.525  4.1530  0.4634  1.4587
  717MOL0     H96763  11.066  -0.096   5.598 -3.0955 -0.7462  1.8793
  717MOL0     H96764  11.148   0.034   5.580  0.3945 -2.2806  0.7838
  717MOL0     H96765  11.011  -0.021   5.828 -0.8811  0.5778  1.9234
  717MOL0     H96766  10.912   0.103   5.758 -0.6404 -3.1003  4.6386
  717MOL0     H96767  11.214   0.123   5.777 -0.1509 -1.3300 -0.6995
  717MOL0     H96768  11.102   0.261   5.760 -0.5731 -0.4721 -0.7686
  717MOL0     H96769  11.184   0.247   5.986  0.8974 -0.3280 -3.0545
  717MOL0     H96770  11.125   0.086   6.001  0.8363 -0.9921 -3.3500
  717MOL0     H96771  10.948   0.331   5.970  0.7318  2.1587  2.8201
  717MOL0     H96772  10.881   0.171   5.978  1.2051  0.7119 -2.7682
  717MOL0     H96773  11.013   0.344   6.187  0.5925  0.5494 -1.1379
  717MOL0     H96774  11.011   0.168   6.207 -0.5000 -2.2790 -3.1772
  717MOL0     H96775  10.793   0.162   6.242 -1.2365  1.1881 -0.2168
  717MOL0     H96776  10.748   0.325   6.172 -0.5454 -0.7677 -0.2678
  717MOL0     H96777  10.955  -0.262   5.496  0.0969  0.2972  1.0054
  717MOL0     H96778  10.932  -0.434   5.296  0.3535 -0.2835 -0.5994
  717MOL0     H96779  10.801  -0.596   4.998  0.2691 -0.1746 -0.2234
  717MOL0     H96780  10.773  -0.780   4.828  0.9127 -0.1621  0.3617
  717MOL0     H96781  10.462   0.474   5.219 -0.3157 -3.0998 -1.2720
  717MOL0     H96782  10.633   0.581   5.358 -2.3471  0.0113  0.9912
  717MOL0     H96783  10.887   0.524   5.755  0.1153 -1.4002  1.0367
  717MOL0     H96784  11.083   0.590   5.917  0.0811  1.3966  0.0007
  717MOL0     H96785  11.481   0.665   5.744 -2.4626 -0.8836 -0.8720
  717MOL0     H96786  11.400   0.815   5.718 -3.0307  0.7528  1.4318
  717MOL0     H96787  11.437   0.900   5.928 -0.4295 -1.5013 -0.7075
  717MOL0     H96788  11.599   0.851   5.887 -0.8136  1.1297 -1.5210
  717MOL0     H96789  11.422   0.702   6.088 -1.0314  0.7235 -0.2168
  717MOL0     H96790  11.557   0.802   6.129 -1.4934 -1.4392  1.6850
  717MOL0     H96791  11.703   0.644   5.974  1.0263 -1.6916 -0.3094
  717MOL0     H96792  11.560   0.569   5.928  1.5321 -0.8986  0.0646
  717MOL0     H96793  11.659   0.377   6.308  0.6679  2.0963  2.0885
  717MOL0     H96794  11.324   0.660   5.573 -0.4947 -1.0583 -2.9531
  717MOL0     H96795  11.160   0.595   5.429  0.8157  3.0809 -0.0130
  718MOL0     O96796   7.943   3.189   3.678 -0.2817  0.1756  0.1495
  718MOL0     C96797   7.957   3.060   3.687 -0.1771  0.0515  0.5376
  718MOL0     O96798   7.865   2.966   3.642 -0.2705  0.3719 -0.1535
  718MOL0     C96799   7.754   2.996   3.570  0.4746 -0.4677 -0.3352
  718MOL0     C96800   7.715   2.901   3.483 -0.5854  0.1504  1.0591
  718MOL0     C96801   7.597   2.905   3.414  0.5220 -0.4091  0.6023
  718MOL0     C96802   7.514   3.008   3.440  0.1026  0.7451  0.5746
  718MOL0     O96803   7.388   3.009   3.393 -0.0088 -1.0891 -0.6161
  718MOL0     C96804   7.348   2.979   3.257 -0.3015  0.3267 -0.8317
  718MOL0     C96805   7.352   3.110   3.182  0.4395 -0.2568  0.0705
  718MOL0     C96806   7.228   3.201   3.228 -0.1629  0.6035  0.7719
  718MOL0     C96807   7.102   3.173   3.132 -0.4889 -0.3528 -0.4203
  718MOL0     C96808   6.998   3.281   3.159 -0.2880 -0.1971 -0.2064
  718MOL0     C96809   6.900   3.301   3.046  0.9515 -0.2573  0.3692
  718MOL0     C96810   6.840   3.161   3.001 -0.0547 -0.2074 -0.0710
  718MOL0     C96811   6.765   3.092   3.097  0.7199  0.1481 -0.1838
  718MOL0     N96812   6.688   2.977   3.051  0.3992  0.1629 -0.0514
  718MOL0     C96813   6.553   2.961   3.058  1.0334  0.8057 -0.2341
  718MOL0     C96814   6.537   2.840   3.001  0.1548 -0.2915 -0.0685
  718MOL0     C96815   6.400   2.786   2.974 -0.5892 -0.0611  0.2284
  718MOL0     C96816   6.389   2.635   3.012  0.0342  0.0304 -0.1342
  718MOL0     C96817   6.259   2.568   2.965  0.2231 -0.1377 -0.9371
  718MOL0     C96818   6.242   2.572   2.820 -0.7113 -0.0281 -0.3857
  718MOL0     O96819   6.371   2.538   2.755 -0.1204 -0.0324  0.1815
  718MOL0     C96820   6.382   2.465   2.640 -0.2058  0.2234  0.8081
  718MOL0     C96821   6.509   2.423   2.610  0.5673  0.3959 -0.0653
  718MOL0     C96822   6.539   2.343   2.498  0.6800  0.1630  0.5488
  718MOL0     C96823   6.682   2.298   2.486  0.2592 -0.2988 -0.0036
  718MOL0     C96824   6.430   2.303   2.416  0.7001  0.3310  0.1225
  718MOL0     C96825   6.445   2.214   2.294 -0.3681 -1.1900  0.8550
  718MOL0     O96826   6.569   2.160   2.273  0.0831 -0.0050 -0.4915
  718MOL0     C96827   6.611   2.098   2.153  0.1858  0.0006  0.2467
  718MOL0     C96828   6.750   2.116   2.126  0.3585  0.2245  0.1005
  718MOL0     C96829   6.803   2.040   2.026 -0.7066 -0.0566 -0.1705
  718MOL0     C96830   6.734   1.960   1.942  0.2381  0.2047 -0.4092
  718MOL0     O96831   6.790   1.887   1.841 -0.2587  0.1605 -0.0836
  718MOL0     C96832   6.927   1.851   1.836 -0.2206  0.4871  0.5687
  718MOL0     C96833   6.956   1.768   1.708  0.8005  0.3646  0.2432
  718MOL0     C96834   6.899   1.628   1.700  0.9466 -0.5135  0.3663
  718MOL0     C96835   6.975   1.534   1.605  0.0268 -0.1084 -0.0150
  718MOL0     C96836   6.889   1.406   1.594 -0.0448  0.2014 -0.1001
  718MOL0     C96837   6.950   1.315   1.493  0.2656 -0.1672 -0.4964
  718MOL0     C96838   6.853   1.198   1.456 -0.7549 -0.9838 -0.0325
  718MOL0     C96839   6.933   1.086   1.380 -0.2303  0.7969 -0.1464
  718MOL0    Cl96840   6.973   1.170   1.218 -0.0473 -0.3189  0.0054
  718MOL0     C96841   6.596   1.955   1.958 -0.1732 -0.4999 -0.5106
  718MOL0     C96842   6.528   2.024   2.064 -0.0664  0.1855  0.7098
  718MOL0     O96843   6.347   2.186   2.228  0.0843  0.1711  0.1382
  718MOL0     C96844   6.295   2.337   2.455 -0.8445 -0.2984 -0.0931
  718MOL0     C96845   6.277   2.426   2.564 -0.0341 -0.1047  0.4614
  718MOL0     N96846   6.658   2.783   2.967 -0.1238 -0.7042  0.4942
  718MOL0     N96847   6.746   2.873   2.995  0.2063  0.0308 -1.1574
  718MOL0     C96848   7.555   3.120   3.512 -0.2692  0.9224  0.5768
  718MOL0     C96849   7.677   3.113   3.581 -0.3448 -1.4716  0.7311
  718MOL0     C96850   8.085   3.015   3.745 -0.4158  0.3853  0.1118
  718MOL0     C96851   8.088   2.893   3.806  0.5532  0.9887 -0.1721
  718MOL0     C96852   8.208   2.851   3.875  1.8617  0.3778  0.0387
  718MOL0     C96853   8.318   2.933   3.872 -0.6456  0.4512  0.1715
  718MOL0     O96854   8.431   2.914   3.939  0.2615  0.6948  0.2763
  718MOL0     C96855   8.482   2.782   3.933 -0.5035  0.3642 -0.3956
  718MOL0     C96856   8.443   2.703   4.065 -1.5766  0.3468 -0.0698
  718MOL0     C96857   8.570   2.650   4.142 -0.2071  1.2888 -0.3540
  718MOL0     C96858   8.668   2.764   4.182  0.9139 -0.4492  0.2674
  718MOL0     C96859   8.794   2.701   4.203  0.0016 -0.1913  0.3588
  718MOL0     C96860   8.896   2.639   4.235 -0.9953 -0.3484 -0.3437
  718MOL0     C96861   8.306   3.058   3.817  0.0718 -1.1896 -0.4310
  718MOL0     C96862   8.195   3.102   3.754  0.9963 -0.6988  0.8591
  718MOL0     H96863   7.784   2.819   3.466  1.8001  2.3960 -1.0273
  718MOL0     H96864   7.571   2.824   3.346 -0.4326 -0.7191  1.3060
  718MOL0     H96865   7.406   2.900   3.208  2.4696  1.5466  0.2482
  718MOL0     H96866   7.244   2.945   3.262 -0.8313  2.0013  2.5544
  718MOL0     H96867   7.451   3.152   3.205  0.8147 -1.3231  0.4556
  718MOL0     H96868   7.336   3.087   3.076 -1.2332 -1.4858  0.5552
  718MOL0     H96869   7.193   3.165   3.325 -0.8222  1.6057  0.9139
  718MOL0     H96870   7.251   3.307   3.242  0.3047  0.5351  0.5181
  718MOL0     H96871   7.135   3.180   3.028 -0.9092 -2.0424 -0.6969
  718MOL0     H96872   7.069   3.075   3.167  2.2033 -0.8357  1.0644
  718MOL0     H96873   6.948   3.254   3.252  6.3550 -0.9031  3.8807
  718MOL0     H96874   7.037   3.381   3.182  1.7040 -1.1850  0.9561
  718MOL0     H96875   6.819   3.363   3.083 -0.3546 -1.5641 -0.2019
  718MOL0     H96876   6.961   3.339   2.964  2.3326 -0.1496  1.3950
  718MOL0     H96877   6.779   3.193   2.916 -0.9077  1.5367  1.1250
  718MOL0     H96878   6.923   3.102   2.962  2.4813  2.6264  0.6200
  718MOL0     H96879   6.709   3.166   3.155 -1.3771 -2.5126  1.4428
  718MOL0     H96880   6.839   3.047   3.163  1.2327  1.4109  0.1168
  718MOL0     H96881   6.478   3.028   3.099  0.8095  1.2237 -1.2742
  718MOL0     H96882   6.327   2.844   3.031 -0.5662 -0.4655  0.6682
  718MOL0     H96883   6.376   2.814   2.871  3.7527  3.1685 -0.1913
  718MOL0     H96884   6.377   2.627   3.120  0.2289  0.9100 -0.0358
  718MOL0     H96885   6.478   2.589   2.969 -0.2440  0.6781 -1.4649
  718MOL0     H96886   6.174   2.614   3.015 -0.9124 -3.4850  0.5499
  718MOL0     H96887   6.261   2.468   3.010 -0.2004  0.4927  0.5517
  718MOL0     H96888   6.218   2.672   2.783  0.4793  0.5944  0.4610
  718MOL0     H96889   6.165   2.498   2.795 -1.6412  1.6575 -2.9363
  718MOL0     H96890   6.584   2.453   2.682  0.6807 -1.1354  0.4813
  718MOL0     H96891   6.744   2.361   2.550  0.0546  1.1471 -1.1732
  718MOL0     H96892   6.676   2.199   2.531 -0.4331  1.2429  3.6630
  718MOL0     H96893   6.730   2.315   2.389  1.3229  2.8844  0.9593
  718MOL0     H96894   6.814   2.170   2.195  1.1482 -1.8149  1.0293
  718MOL0     H96895   6.912   2.040   2.022 -0.6875  1.6997 -0.0262
  718MOL0     H96896   6.996   1.935   1.842 -0.3558  0.6084  0.4511
  718MOL0     H96897   6.955   1.789   1.921  0.7228 -0.3537 -0.3223
  718MOL0     H96898   6.915   1.834   1.631  1.7620  1.0707  0.3085
  718MOL0     H96899   7.065   1.769   1.694  1.2327 -1.2101  2.8412
  718MOL0     H96900   6.802   1.636   1.649  0.8948  0.1723  0.5712
  718MOL0     H96901   6.894   1.581   1.798  1.9050 -1.8207 -0.1753
  718MOL0     H96902   6.996   1.582   1.509  1.5191 -4.9944 -2.4812
  718MOL0     H96903   7.072   1.520   1.653  1.1526  0.6217 -1.9855
  718MOL0     H96904   6.790   1.434   1.555  0.1490 -0.6740 -1.3100
  718MOL0     H96905   6.869   1.361   1.692 -1.4766 -1.3657 -1.0479
  718MOL0     H96906   6.958   1.373   1.401 -1.2572  1.1762  0.1663
  718MOL0     H96907   7.050   1.284   1.524  0.6362 -0.3817 -1.8473
  718MOL0     H96908   6.765   1.228   1.397 -1.1883 -2.4067 -0.1591
  718MOL0     H96909   6.834   1.154   1.554  3.3005  0.4143  1.5939
  718MOL0     H96910   6.870   0.997   1.372 -0.2320  0.8593 -0.9418
  718MOL0     H96911   7.017   1.053   1.442 -2.0578 -4.4478  0.0310
  718MOL0     H96912   6.526   1.919   1.883 -1.5576  0.7200  0.1396
  718MOL0     H96913   6.422   2.021   2.084 -0.2853 -0.6011 -0.4710
  718MOL0     H96914   6.207   2.307   2.399 -0.5215 -1.2446 -0.1054
  718MOL0     H96915   6.179   2.462   2.594  0.0757 -0.6198  1.4496
  718MOL0     H96916   7.481   3.199   3.518 -2.4379 -0.9562 -0.1453
  718MOL0     H96917   7.710   3.196   3.643 -0.8946 -2.2428  2.0988
  718MOL0     H96918   8.009   2.819   3.812  2.5573 -1.5532 -2.4397
  718MOL0     H96919   8.202   2.762   3.938 -0.8887 -0.0385 -0.6850
  718MOL0     H96920   8.441   2.720   3.852 -0.4453 -0.1001 -0.0762
  718MOL0     H96921   8.590   2.782   3.920 -0.1404  0.5728  2.0839
  718MOL0     H96922   8.378   2.623   4.027  2.1825 -1.9087 -2.4421
  718MOL0     H96923   8.386   2.765   4.135 -2.2106  0.2583 -0.5036
  718MOL0     H96924   8.610   2.583   4.065 -1.4906  2.4008 -2.0632
  718MOL0     H96925   8.536   2.592   4.229  0.8936 -0.8016 -1.2554
  718MOL0     H96926   8.628   2.815   4.270 -0.0797  1.6529 -1.2999
  718MOL0     H96927   8.677   2.844   4.108 -1.2378  1.1157  1.6159
  718MOL0     H96928   8.975   2.582   4.280 -0.7167  0.4537  0.2157
  718MOL0     H96929   8.396   3.117   3.830 -1.3457  1.2115 -1.0543
  718MOL0     H96930   8.195   3.208   3.730  3.9427 -1.2495 -2.3471
  719MOL0     O96931   3.698   3.896   1.373  0.5171 -0.6670  0.3493
  719MOL0     C96932   3.624   3.800   1.355 -0.6018 -0.8351 -0.4784
  719MOL0     O96933   3.496   3.814   1.303  0.0344 -0.1121  0.7810
  719MOL0     C96934   3.427   3.925   1.289  0.2842 -0.6597 -0.8167
  719MOL0     C96935   3.455   4.057   1.351 -0.5267 -0.0316 -0.6613
  719MOL0     C96936   3.361   4.158   1.349  0.2645  0.3737  0.4072
  719MOL0     C96937   3.238   4.137   1.293  0.1538  0.4545 -0.0572
  719MOL0     O96938   3.156   4.248   1.285 -0.0633  0.2227 -0.1633
  719MOL0     C96939   3.019   4.223   1.258  0.0052 -0.5688 -0.2100
  719MOL0     C96940   3.002   4.225   1.102  0.1432 -0.1956 -0.3425
  719MOL0     C96941   2.856   4.188   1.070  0.1164 -0.2257  1.3507
  719MOL0     C96942   2.821   4.039   1.092  1.7302  1.1236 -0.1475
  719MOL0     C96943   2.670   4.015   1.064  0.7652  0.1568  0.7409
  719MOL0     C96944   2.619   3.874   1.101 -0.2941  0.6657  0.5359
  719MOL0     C96945   2.465   3.885   1.134  0.5191 -0.6684  0.1654
  719MOL0     C96946   2.365   3.905   1.019 -0.4717  0.1662  0.3988
  719MOL0     N96947   2.317   3.783   0.941 -0.1833  0.2996  0.0289
  719MOL0     C96948   2.186   3.734   0.945 -0.5165  0.4311  0.5531
  719MOL0     C96949   2.197   3.621   0.865 -0.2168  0.3890 -0.1044
  719MOL0     C96950   2.096   3.512   0.840  0.8456  0.2218  0.3982
  719MOL0     C96951   2.101   3.431   0.716 -0.1013  0.7768  1.1672
  719MOL0     C96952   2.089   3.506   0.588 -0.5666  0.6610 -0.5427
  719MOL0     C96953   2.155   3.433   0.470  0.2634  1.1171  0.7531
  719MOL0     O96954   2.100   3.292   0.457  0.2694  0.3831  0.5142
  719MOL0     C96955   1.969   3.277   0.400  0.0764 -0.3220  0.3717
  719MOL0     C96956   1.930   3.149   0.390 -1.2767  0.1123 -0.3950
  719MOL0     C96957   1.814   3.104   0.337  0.6487 -0.8615 -0.7101
  719MOL0     C96958   1.782   2.962   0.329  0.2733  0.1365 -0.5855
  719MOL0     C96959   1.718   3.202   0.300  0.1011 -0.5620 -0.1280
  719MOL0     C96960   1.583   3.173   0.251 -0.1781  0.1328 -0.0520
  719MOL0     O96961   1.485   3.254   0.296 -0.2744 -0.1794 -0.2643
  719MOL0     C96962   1.353   3.236   0.261  0.5658  1.0746  0.0059
  719MOL0     C96963   1.266   3.343   0.238  0.3484 -0.7052 -0.1040
  719MOL0     C96964   1.123   3.327   0.223 -0.0970 -0.9389  0.2092
  719MOL0     C96965   1.070   3.197   0.231 -0.4079  0.1343  0.5204
  719MOL0     O96966   0.932   3.193   0.226  0.1897  0.7132 -0.1722
  719MOL0     C96967   0.892   3.066   0.271  0.1337 -1.1207 -0.0320
  719MOL0     C96968   0.749   3.065   0.297 -0.3449 -1.3615 -0.4117
  719MOL0     C96969   0.681   2.931   0.306 -0.1429 -0.4983  0.0937
  719MOL0     C96970   0.637   2.883   0.167 -0.1292  0.4250  0.5892
  719MOL0     C96971   0.605   2.732   0.178  0.4544 -1.2661 -0.2740
  719MOL0     C96972   0.458   2.720   0.227  0.5694  0.2338 -0.1423
  719MOL0     C96973   0.418   2.574   0.205  0.6462 -0.2570  0.3708
  719MOL0     C96974   0.281   2.538   0.271 -0.1052 -0.1144  0.0679
  719MOL0    Cl96975   0.140   2.608   0.178  0.6336  0.2218  0.0389
  719MOL0     C96976   1.162   3.096   0.256  0.6311  0.4578  0.3881
  719MOL0     C96977   1.299   3.110   0.270 -0.8766 -1.0294  0.6203
  719MOL0     O96978   1.578   3.091   0.162 -0.2551  0.2594 -0.4334
  719MOL0     C96979   1.761   3.344   0.295  0.2789 -0.5420  0.2845
  719MOL0     C96980   1.882   3.374   0.350 -0.5581  0.0801 -0.6699
  719MOL0     N96981   2.330   3.612   0.823  0.0278 -1.1319 -0.5298
  719MOL0     N96982   2.397   3.710   0.864 -0.3934  0.2830 -0.3221
  719MOL0     C96983   3.208   4.010   1.245 -0.1190 -0.0428  0.0123
  719MOL0     C96984   3.300   3.905   1.241 -0.7217 -0.3061 -0.0710
  719MOL0     C96985   3.683   3.672   1.375 -0.0712  0.5496 -0.1492
  719MOL0     C96986   3.821   3.659   1.423 -1.2786 -0.7149 -0.5180
  719MOL0     C96987   3.867   3.524   1.442 -0.3079 -0.0296  0.5407
  719MOL0     C96988   3.783   3.411   1.418 -0.0570  0.0949  0.0851
  719MOL0     O96989   3.820   3.288   1.430 -0.8605  0.3629  0.8378
  719MOL0     C96990   3.964   3.265   1.431  0.4164  0.2695  0.3663
  719MOL0     C96991   4.002   3.119   1.395  0.5576 -0.5823  0.0769
  719MOL0     C96992   4.150   3.091   1.418  0.6576 -0.4448  0.0096
  719MOL0     C96993   4.222   3.058   1.294  0.6274  0.0686  0.4079
  719MOL0     C96994   4.350   2.998   1.339 -0.2426  0.6763 -0.2732
  719MOL0     C96995   4.459   2.968   1.392  0.8651  0.7564 -0.6540
  719MOL0     C96996   3.654   3.428   1.371  0.8107 -0.9073  0.2395
  719MOL0     C96997   3.609   3.558   1.350  0.3922  0.0753 -0.6412
  719MOL0     H96998   3.555   4.075   1.389  0.0360 -1.8593 -1.1496
  719MOL0     H96999   3.382   4.257   1.389 -0.3476  0.6807 -0.0229
  719MOL0     H97000   2.985   4.128   1.301 -1.2780 -0.8280 -1.7154
  719MOL0     H97001   2.959   4.301   1.306  2.0527 -1.1731  3.7777
  719MOL0     H97002   3.042   4.317   1.059 -0.6286  0.2924 -0.0389
  719MOL0     H97003   3.063   4.147   1.055  3.6665  2.3304 -0.3586
  719MOL0     H97004   2.796   4.255   1.133  2.2999  4.9099 -1.3516
  719MOL0     H97005   2.838   4.225   0.968  1.6052 -1.8669  0.4200
  719MOL0     H97006   2.868   3.975   1.017 -0.3693 -2.3247  1.2360
  719MOL0     H97007   2.842   4.002   1.193 -2.3131 -0.4927  0.2532
  719MOL0     H97008   2.605   4.091   1.108 -0.2550 -0.2608 -0.0120
  719MOL0     H97009   2.658   4.026   0.956 -0.4113  1.1281  0.9527
  719MOL0     H97010   2.644   3.799   1.024 -0.9893 -1.0647  1.9348
  719MOL0     H97011   2.673   3.845   1.191  1.9751  2.7888 -0.0153
  719MOL0     H97012   2.425   3.798   1.188 -0.6240  0.1209  0.6258
  719MOL0     H97013   2.449   3.973   1.197 -0.1923 -0.7608  0.1202
  719MOL0     H97014   2.402   3.969   0.939  1.8584 -1.8987 -0.2792
  719MOL0     H97015   2.271   3.951   1.052 -0.8792 -0.8396  0.6799
  719MOL0     H97016   2.103   3.787   0.991  0.0216  2.2354 -0.4449
  719MOL0     H97017   2.092   3.437   0.920 -4.4292  2.7383  2.9896
  719MOL0     H97018   1.998   3.560   0.842  0.8927  0.4172 -1.0151
  719MOL0     H97019   2.023   3.354   0.721 -1.3451  1.8272 -0.8215
  719MOL0     H97020   2.195   3.375   0.710 -1.5302 -1.6005 -2.7875
  719MOL0     H97021   2.135   3.603   0.609  0.7564 -0.1839  0.6628
  719MOL0     H97022   1.984   3.518   0.562 -1.8559 -2.0270  2.6351
  719MOL0     H97023   2.261   3.410   0.478  0.7457  1.6163 -2.7715
  719MOL0     H97024   2.135   3.485   0.376 -0.7049  0.6926  0.7090
  719MOL0     H97025   1.997   3.067   0.413  0.2220  0.3399 -3.4375
  719MOL0     H97026   1.791   2.942   0.222 -1.2445  4.1113 -1.6312
  719MOL0     H97027   1.849   2.907   0.396 -0.1529  1.3276  0.8749
  719MOL0     H97028   1.675   2.953   0.352 -0.5435  0.3422 -3.8175
  719MOL0     H97029   1.312   3.439   0.219  0.7635 -0.8752  0.0337
  719MOL0     H97030   1.053   3.410   0.218 -1.7705 -2.3622 -1.1017
  719MOL0     H97031   0.924   2.984   0.207 -1.3658 -1.3181 -0.5677
  719MOL0     H97032   0.937   3.059   0.371  0.7757  2.7379  0.0991
  719MOL0     H97033   0.737   3.116   0.394  2.8684 -2.1567  0.5308
  719MOL0     H97034   0.690   3.103   0.213 -0.1906  2.4075  1.0008
  719MOL0     H97035   0.595   2.935   0.373 -0.1634  0.3134  0.0331
  719MOL0     H97036   0.754   2.858   0.342  0.2525 -1.2278 -2.0854
  719MOL0     H97037   0.558   2.942   0.121  1.3608  0.8101 -1.5870
  719MOL0     H97038   0.722   2.890   0.098  1.4269  0.9252  2.4586
  719MOL0     H97039   0.676   2.685   0.247  1.9107 -0.4588 -1.1595
  719MOL0     H97040   0.605   2.691   0.077 -0.8863 -1.1034 -0.3583
  719MOL0     H97041   0.450   2.738   0.334  2.2197  1.5757 -0.1987
  719MOL0     H97042   0.393   2.784   0.166  2.9057  0.1866 -2.8987
  719MOL0     H97043   0.491   2.510   0.255 -1.7245 -1.1760  2.9067
  719MOL0     H97044   0.405   2.549   0.099 -3.6207 -1.2361  0.9251
  719MOL0     H97045   0.282   2.590   0.367 -1.7098  0.2840 -0.0913
  719MOL0     H97046   0.273   2.430   0.282 -1.5676 -0.1363 -0.8739
  719MOL0     H97047   1.134   2.992   0.257 -0.6849  0.7949  0.8392
  719MOL0     H97048   1.361   3.026   0.299  0.5315 -1.0083 -2.0120
  719MOL0     H97049   1.705   3.432   0.264  2.9758  0.6554 -1.6828
  719MOL0     H97050   1.900   3.481   0.343  0.8850 -0.0611  0.4311
  719MOL0     H97051   3.108   3.993   1.207  0.4817 -1.1367 -1.1533
  719MOL0     H97052   3.270   3.805   1.213  2.5245 -1.3790 -0.0533
  719MOL0     H97053   3.883   3.746   1.438 -1.1809 -0.6374 -1.3401
  719MOL0     H97054   3.968   3.506   1.477  0.1318  2.3388  0.6468
  719MOL0     H97055   4.012   3.332   1.360  0.3677  0.5004  0.5502
  719MOL0     H97056   4.003   3.284   1.532  1.6781  0.1776 -0.0827
  719MOL0     H97057   3.989   3.106   1.287  0.3710  0.8158 -0.0815
  719MOL0     H97058   3.948   3.047   1.457 -0.2956 -0.2853 -0.2963
  719MOL0     H97059   4.154   3.007   1.489  1.1286  0.4297  1.0561
  719MOL0     H97060   4.201   3.176   1.465  0.3439 -0.1060 -0.2580
  719MOL0     H97061   4.250   3.137   1.224  1.3226 -0.6082 -0.0966
  719MOL0     H97062   4.162   2.983   1.240  2.9777 -1.5833 -0.0821
  719MOL0     H97063   4.543   2.925   1.443  1.6029  0.8389 -1.7681
  719MOL0     H97064   3.592   3.339   1.367  0.2377 -0.6871  2.6038
  719MOL0     H97065   3.502   3.568   1.334 -0.0664  0.0647  1.9813
  720MOL0     O97066   0.574   0.350   6.635 -0.2647  0.2332 -0.0283
  720MOL0     C97067   0.523   0.279   6.546  0.0481  0.6614  0.6086
  720MOL0     O97068   0.392   0.247   6.535  0.2992 -1.2963  0.1093
  720MOL0     C97069   0.318   0.264   6.646  0.2049  0.4028 -0.1258
  720MOL0     C97070   0.260   0.140   6.690  0.4171  0.3701 -0.0535
  720MOL0     C97071   0.211   0.137   6.817  0.0589  0.5606 -0.2585
  720MOL0     C97072   0.168   0.256   6.882  1.0975  0.4954 -1.1851
  720MOL0     O97073   0.113   0.251   7.018  0.5530 -0.2558  0.5204
  720MOL0     C97074  -0.022   0.192   7.039 -0.4405 -0.1196  0.7761
  720MOL0     C97075  -0.057   0.192   7.188 -0.7071 -0.3468 -0.5142
  720MOL0     C97076  -0.200   0.166   7.217 -0.1941  0.1647 -0.2429
  720MOL0     C97077  -0.227   0.160   7.367 -0.3098 -0.7586 -0.8605
  720MOL0     C97078  -0.376   0.151   7.399 -0.4264  0.0300  1.0499
  720MOL0     C97079  -0.408   0.191   7.541  0.0303  0.3126 -0.5785
  720MOL0     C97080  -0.539   0.122   7.563 -0.5918  0.4745 -0.0728
  720MOL0     C97081  -0.605   0.172   7.688  0.1598  0.6714 -1.1088
  720MOL0     N97082  -0.735   0.104   7.722 -0.3407  0.8206 -0.2242
  720MOL0     C97083  -0.851   0.125   7.653  0.2834  0.5153 -0.1042
  720MOL0     C97084  -0.934   0.020   7.698  0.3062  0.5205 -0.3908
  720MOL0     C97085  -1.081  -0.010   7.663  0.1788  0.1452  0.3934
  720MOL0     C97086  -1.183   0.047   7.762 -0.1424  0.3413 -0.4074
  720MOL0     C97087  -1.317   0.017   7.707 -0.2680 -0.1239  0.9088
  720MOL0     C97088  -1.433   0.080   7.788 -0.4207 -0.5289  0.4204
  720MOL0     O97089  -1.551   0.049   7.719  0.3445  0.4288 -0.5913
  720MOL0     C97090  -1.658   0.126   7.744 -0.5955  0.7790  0.6102
  720MOL0     C97091  -1.768   0.095   7.651 -0.4292  0.0842 -0.5372
  720MOL0     C97092  -1.893   0.156   7.671  0.2642  0.4756  0.2597
  720MOL0     C97093  -1.990   0.116   7.563 -0.4677 -0.1630  0.2476
  720MOL0     C97094  -1.923   0.247   7.775  0.5173  0.0069 -0.1726
  720MOL0     C97095  -2.059   0.314   7.798 -0.0237  0.3171  0.2798
  720MOL0     O97096  -2.162   0.305   7.710 -0.6843  0.7843 -0.7404
  720MOL0     C97097  -2.292   0.334   7.746 -0.3584 -0.5917 -0.2037
  720MOL0     C97098  -2.326   0.469   7.769  0.7318  0.4820  1.3431
  720MOL0     C97099  -2.452   0.506   7.811  0.7413 -0.9856  0.4239
  720MOL0     C97100  -2.556   0.414   7.823  0.1917  0.3605  0.3680
  720MOL0     O97101  -2.678   0.454   7.854 -0.5325  0.2259  0.4694
  720MOL0     C97102  -2.788   0.360   7.836  0.8265  0.3506 -0.3698
  720MOL0     C97103  -2.922   0.420   7.871  0.7318 -0.1012  0.0932
  720MOL0     C97104  -2.994   0.484   7.749  1.1388 -0.9725 -0.1839
  720MOL0     C97105  -2.990   0.637   7.758 -0.6378 -0.3953 -0.0308
  720MOL0     C97106  -3.062   0.703   7.876 -0.0880  0.3681 -0.4852
  720MOL0     C97107  -3.207   0.656   7.899 -0.3566  0.1750  0.0631
  720MOL0     C97108  -3.260   0.737   8.020  0.3840  0.4325 -0.0838
  720MOL0     C97109  -3.412   0.718   8.046  0.1569 -0.0524  0.3649
  720MOL0    Cl97110  -3.509   0.870   8.013  0.0540 -0.4101  0.0992
  720MOL0     C97111  -2.519   0.273   7.806  0.7154  0.6208  0.0623
  720MOL0     C97112  -2.388   0.238   7.773  0.6532 -0.0454 -0.1545
  720MOL0     O97113  -2.075   0.373   7.906  0.4921  0.1304  0.3051
  720MOL0     C97114  -1.812   0.262   7.861  1.3110  0.0444 -1.3465
  720MOL0     C97115  -1.686   0.207   7.850  0.0961 -0.6149 -0.8373
  720MOL0     N97116  -0.860  -0.054   7.800 -0.0072  0.4376 -0.4790
  720MOL0     N97117  -0.746  -0.002   7.813 -0.0848 -0.3685 -0.8163
  720MOL0     C97118   0.223   0.373   6.840  0.6507  0.5241  0.3445
  720MOL0     C97119   0.294   0.385   6.717  0.1416 -0.5928 -0.1803
  720MOL0     C97120   0.604   0.234   6.425 -0.6369 -0.4693  0.3053
  720MOL0     C97121   0.551   0.170   6.309  0.0276 -0.2474  0.1805
  720MOL0     C97122   0.625   0.141   6.197  0.4825  0.5041  0.4386
  720MOL0     C97123   0.763   0.160   6.198  0.4189 -0.3895 -0.0560
  720MOL0     O97124   0.830   0.143   6.081 -0.0257 -0.7856  0.1363
  720MOL0     C97125   0.971   0.172   6.078  0.5804  0.6662 -0.4147
  720MOL0     C97126   1.045   0.180   5.938  0.1314 -1.1499  0.3745
  720MOL0     C97127   1.197   0.169   5.940 -0.4325 -0.2673 -0.6780
  720MOL0     C97128   1.256   0.175   5.803  0.0683 -0.4073  0.3229
  720MOL0     C97129   1.406   0.180   5.820  0.2650 -0.2018 -0.0442
  720MOL0     C97130   1.522   0.185   5.851  0.3083 -0.4892 -0.5852
  720MOL0     C97131   0.815   0.218   6.316  0.7763  0.1388  0.3853
  720MOL0     C97132   0.738   0.250   6.429 -0.0531 -0.3270  0.1240
  720MOL0     H97133   0.275   0.044   6.641  0.7826 -0.3432  1.4276
  720MOL0     H97134   0.196   0.049   6.879  0.0938 -0.1201 -1.1839
  720MOL0     H97135  -0.097   0.249   6.984 -0.3699 -2.0416 -1.5042
  720MOL0     H97136  -0.034   0.090   7.000 -1.7275 -1.0237  3.3045
  720MOL0     H97137   0.000   0.115   7.240 -1.7323 -0.6681  0.1602
  720MOL0     H97138  -0.031   0.291   7.225 -2.1888 -0.3548  0.6572
  720MOL0     H97139  -0.271   0.235   7.170 -4.0787 -1.5159  2.6164
  720MOL0     H97140  -0.222   0.066   7.179  2.9551 -0.7150 -0.0344
  720MOL0     H97141  -0.180   0.078   7.422 -1.9270 -1.0193  0.1838
  720MOL0     H97142  -0.183   0.250   7.411  1.5751 -1.5750 -0.9547
  720MOL0     H97143  -0.435   0.214   7.331  0.3748 -0.1670  0.1595
  720MOL0     H97144  -0.403   0.046   7.389 -1.0674 -0.0795  3.4101
  720MOL0     H97145  -0.333   0.164   7.616  0.1511  3.2899  0.5132
  720MOL0     H97146  -0.419   0.300   7.544  2.3688  0.6404 -1.1922
  720MOL0     H97147  -0.614   0.132   7.484 -0.8746 -0.9418 -0.0046
  720MOL0     H97148  -0.517   0.015   7.576  0.3855  0.8338  1.5331
  720MOL0     H97149  -0.611   0.281   7.682  2.7091  0.8072 -2.6718
  720MOL0     H97150  -0.551   0.156   7.782 -3.2817 -0.2505  0.8925
  720MOL0     H97151  -0.868   0.200   7.577  1.5877  0.1246 -0.7938
  720MOL0     H97152  -1.112   0.048   7.576 -1.7299  3.0887  2.8340
  720MOL0     H97153  -1.092  -0.118   7.650  1.9068 -0.0092 -0.0825
  720MOL0     H97154  -1.171   0.155   7.762  0.5802  0.2825 -1.6423
  720MOL0     H97155  -1.173   0.008   7.864 -2.8518  0.3127 -0.0873
  720MOL0     H97156  -1.323  -0.090   7.688 -0.5213 -0.0491  0.5498
  720MOL0     H97157  -1.332   0.066   7.610 -1.3656 -5.0229 -1.7391
  720MOL0     H97158  -1.415   0.187   7.794 -1.0111 -0.3363 -0.8838
  720MOL0     H97159  -1.428   0.037   7.889  1.9519 -1.2154  0.0831
  720MOL0     H97160  -1.756   0.018   7.576  1.1935  0.7540 -1.0100
  720MOL0     H97161  -1.962   0.025   7.509 -0.6801  1.3151 -2.5015
  720MOL0     H97162  -2.090   0.100   7.605  0.8566 -0.8772  3.4386
  720MOL0     H97163  -1.981   0.195   7.489 -0.2983 -2.2822 -2.1199
  720MOL0     H97164  -2.249   0.545   7.765  0.7493  0.5533  2.8056
  720MOL0     H97165  -2.472   0.612   7.828  1.8632 -0.8420  0.9501
  720MOL0     H97166  -2.792   0.322   7.733  0.5539  0.3658 -0.3671
  720MOL0     H97167  -2.772   0.271   7.897 -0.3164 -0.6621 -1.4853
  720MOL0     H97168  -2.984   0.335   7.902 -1.0258  0.7028 -1.0569
  720MOL0     H97169  -2.922   0.482   7.960 -2.4962 -2.2217  1.7836
  720MOL0     H97170  -3.100   0.457   7.755  0.8264  0.5112  2.7454
  720MOL0     H97171  -2.947   0.453   7.655 -0.2195 -1.2720 -0.7918
  720MOL0     H97172  -2.885   0.662   7.775 -0.0122 -1.7784 -1.6206
  720MOL0     H97173  -3.029   0.684   7.668  0.7802 -0.8118 -0.8928
  720MOL0     H97174  -3.057   0.812   7.866 -2.0679  0.3084 -3.3030
  720MOL0     H97175  -3.011   0.673   7.968  1.0391 -1.3279 -1.5980
  720MOL0     H97176  -3.276   0.669   7.815 -0.8752 -0.0643  0.4487
  720MOL0     H97177  -3.222   0.551   7.925  0.4202  0.0536  0.0254
  720MOL0     H97178  -3.251   0.843   7.998  0.4972  0.6736  1.0598
  720MOL0     H97179  -3.200   0.711   8.108  1.1785 -0.2584 -0.8035
  720MOL0     H97180  -3.437   0.681   8.147  1.3565 -3.6436 -0.5131
  720MOL0     H97181  -3.449   0.636   7.985  2.3642 -0.3551 -0.6542
  720MOL0     H97182  -2.596   0.197   7.822  0.2401  1.6299  3.2681
  720MOL0     H97183  -2.356   0.136   7.755 -0.1002 -0.3386  0.1317
  720MOL0     H97184  -1.831   0.332   7.943  0.3946 -1.1909 -0.4695
  720MOL0     H97185  -1.608   0.217   7.925 -0.4122 -3.3493  0.1972
  720MOL0     H97186   0.217   0.462   6.901  0.0039  1.1714 -0.6405
  720MOL0     H97187   0.335   0.481   6.686 -2.1617  0.8915  1.0528
  720MOL0     H97188   0.444   0.153   6.314  0.1672 -0.9178  1.2575
  720MOL0     H97189   0.562   0.117   6.112 -3.4342  0.1466  3.1728
  720MOL0     H97190   0.985   0.267   6.129  0.3122  1.3961 -1.6577
  720MOL0     H97191   1.019   0.086   6.127  1.7365  1.1659 -0.6270
  720MOL0     H97192   1.029   0.272   5.881  0.6679 -0.4731  1.3074
  720MOL0     H97193   1.001   0.119   5.858 -2.0924 -0.4742  1.0174
  720MOL0     H97194   1.228   0.072   5.980 -0.2749  0.2569  0.5080
  720MOL0     H97195   1.237   0.251   6.000 -2.2522  0.3717 -0.2739
  720MOL0     H97196   1.219   0.270   5.763 -1.0994 -0.6111  0.8996
  720MOL0     H97197   1.224   0.089   5.745  1.4727 -1.0776  0.5041
  720MOL0     H97198   1.627   0.191   5.874  0.1562 -1.4418  0.4521
  720MOL0     H97199   0.922   0.232   6.328  0.7583 -0.5188  1.4056
  720MOL0     H97200   0.791   0.295   6.512  1.4469 -1.3708 -0.2157
  721MOL0     O97201   6.701   5.055   5.239 -0.1810 -0.1346 -0.6974
  721MOL0     C97202   6.756   5.019   5.342  0.3257 -0.0915  0.9529
  721MOL0     O97203   6.692   4.967   5.450  0.6565 -0.1441 -0.8608
  721MOL0     C97204   6.561   4.995   5.469  0.4666  0.5349 -0.1149
  721MOL0     C97205   6.503   5.125   5.436 -0.1098  0.4411 -0.3084
  721MOL0     C97206   6.366   5.148   5.454  0.5889  0.2730 -0.1828
  721MOL0     C97207   6.282   5.041   5.496 -0.2874  1.6699  0.7034
  721MOL0     O97208   6.144   5.051   5.476 -0.3673 -0.6559  0.5947
  721MOL0     C97209   6.085   5.171   5.435 -0.0103  0.3933 -0.5422
  721MOL0     C97210   5.932   5.145   5.442 -0.5819  1.0113  0.3408
  721MOL0     C97211   5.856   5.282   5.428  0.4650  0.5198 -0.8954
  721MOL0     C97212   5.873   5.347   5.298  0.0639 -1.0195  0.6323
  721MOL0     C97213   5.789   5.472   5.301 -0.2286  0.3427 -0.4622
  721MOL0     C97214   5.803   5.549   5.171 -0.1822  0.2173 -0.1278
  721MOL0     C97215   5.939   5.592   5.128 -0.0436 -0.7835 -0.0021
  721MOL0     C97216   6.026   5.677   5.219  0.4583  0.4492 -0.1971
  721MOL0     N97217   6.001   5.818   5.208  0.6683  0.2611 -0.5369
  721MOL0     C97218   5.893   5.900   5.248 -0.0341  0.0769  0.6153
  721MOL0     C97219   5.935   6.027   5.251 -0.1420 -0.2673  0.9363
  721MOL0     C97220   5.860   6.149   5.301 -0.5793  0.2741 -0.4919
  721MOL0     C97221   5.959   6.247   5.374  0.9132  0.5977  0.4495
  721MOL0     C97222   5.894   6.375   5.411 -0.0866 -0.3039  0.3100
  721MOL0     C97223   5.744   6.375   5.460 -0.3978 -0.0387  0.2080
  721MOL0     O97224   5.687   6.512   5.471 -0.1805  0.3723 -0.7492
  721MOL0     C97225   5.552   6.542   5.472 -0.6218 -0.1591 -0.3591
  721MOL0     C97226   5.517   6.674   5.497 -0.2164 -0.8151 -0.1297
  721MOL0     C97227   5.383   6.717   5.478  0.9184 -0.7469 -0.4680
  721MOL0     C97228   5.361   6.867   5.484 -0.3028  0.6321 -0.1064
  721MOL0     C97229   5.278   6.625   5.475  0.1391 -0.4297  0.4045
  721MOL0     C97230   5.136   6.658   5.472  0.3392 -0.4485  0.0622
  721MOL0     O97231   5.092   6.764   5.552 -0.3146  0.7128 -0.0083
  721MOL0     C97232   4.971   6.820   5.510 -0.2056 -0.2293 -0.8005
  721MOL0     C97233   4.972   6.940   5.440 -0.8426 -0.4789 -1.2164
  721MOL0     C97234   4.854   7.008   5.439 -0.2818 -0.6197  0.0345
  721MOL0     C97235   4.733   6.962   5.487  0.5089  1.0856 -0.0952
  721MOL0     O97236   4.618   7.041   5.451 -0.3483  0.8384 -0.7719
  721MOL0     C97237   4.497   7.014   5.522  0.3007  0.4326 -0.1920
  721MOL0     C97238   4.379   7.052   5.437 -1.1261 -0.5465  0.2545
  721MOL0     C97239   4.241   7.055   5.506  0.5196  0.1400 -0.0360
  721MOL0     C97240   4.152   6.929   5.482 -0.7953  0.0662  0.2568
  721MOL0     C97241   4.027   6.939   5.562  0.8722 -0.5570 -0.2875
  721MOL0     C97242   3.927   6.814   5.534 -0.5380  0.4056  0.9414
  721MOL0     C97243   3.847   6.781   5.656  0.9125  0.4507  1.0918
  721MOL0     C97244   3.742   6.877   5.703 -0.0819 -0.4109 -0.0694
  721MOL0    Cl97245   3.583   6.826   5.637  0.1449 -0.0022  0.3427
  721MOL0     C97246   4.730   6.828   5.535 -1.1439 -0.5816 -0.6448
  721MOL0     C97247   4.851   6.755   5.558 -0.2620  0.2923 -0.6613
  721MOL0     O97248   5.064   6.594   5.397 -0.3571 -1.0913 -1.0153
  721MOL0     C97249   5.317   6.492   5.462 -0.3161  0.1239  0.0455
  721MOL0     C97250   5.446   6.447   5.462  0.0653  0.5340  0.2969
  721MOL0     N97251   6.056   6.025   5.180  0.0797  0.6087  0.1423
  721MOL0     N97252   6.093   5.904   5.155 -0.1599 -0.1898  0.6767
  721MOL0     C97253   6.338   4.919   5.542  0.3580 -0.9066  0.6735
  721MOL0     C97254   6.478   4.896   5.522 -0.3628 -1.0912 -0.1694
  721MOL0     C97255   6.902   5.011   5.343  0.2468 -0.3302 -0.0540
  721MOL0     C97256   6.969   4.951   5.449 -0.8138 -0.4004  0.2604
  721MOL0     C97257   7.112   4.935   5.449 -0.1604 -0.5991  0.2633
  721MOL0     C97258   7.190   4.977   5.335 -0.3898 -1.0321 -0.3769
  721MOL0     O97259   7.327   4.956   5.353  0.5004  0.0974 -0.1459
  721MOL0     C97260   7.416   4.973   5.241  0.1732 -0.1228  0.4740
  721MOL0     C97261   7.564   4.982   5.277 -0.2223 -1.6172  0.0539
  721MOL0     C97262   7.625   4.851   5.327  1.1451 -0.6217 -0.3645
  721MOL0     C97263   7.779   4.839   5.317 -0.2841  0.4223 -0.3301
  721MOL0     C97264   7.832   4.840   5.178 -0.4820  0.2952  0.6106
  721MOL0     C97265   7.882   4.828   5.074 -0.2787  0.1132 -0.0735
  721MOL0     C97266   7.121   5.033   5.225 -0.6967 -0.4892 -0.7190
  721MOL0     C97267   6.979   5.052   5.233  0.4330  0.6969  0.3139
  721MOL0     H97268   6.571   5.201   5.400  2.8596 -1.7173  0.3481
  721MOL0     H97269   6.329   5.244   5.420  2.9600  0.4450 -2.5598
  721MOL0     H97270   6.109   5.255   5.499  1.3386 -0.8353  0.6178
  721MOL0     H97271   6.125   5.198   5.337 -1.4817  2.3199 -0.6837
  721MOL0     H97272   5.880   5.095   5.359 -1.8854  2.3575  0.2999
  721MOL0     H97273   5.920   5.085   5.532  0.5271 -1.5551 -1.1318
  721MOL0     H97274   5.751   5.254   5.439  0.5140 -0.3596 -2.3157
  721MOL0     H97275   5.872   5.343   5.517 -0.3040 -1.1883  0.4647
  721MOL0     H97276   5.980   5.370   5.295  0.4220 -2.3492  2.0815
  721MOL0     H97277   5.851   5.277   5.217  1.2097  0.2849 -0.8865
  721MOL0     H97278   5.690   5.430   5.322 -0.3937  2.2668  3.6589
  721MOL0     H97279   5.812   5.536   5.387  0.3021  1.2498 -1.2625
  721MOL0     H97280   5.772   5.482   5.090  4.5935 -1.4895 -0.8755
  721MOL0     H97281   5.734   5.633   5.169  0.5070  0.7884 -2.2598
  721MOL0     H97282   5.996   5.500   5.122 -2.2397 -2.2335  0.2871
  721MOL0     H97283   5.939   5.637   5.028 -3.9269  3.1234  1.4107
  721MOL0     H97284   6.129   5.657   5.190  1.3577  3.5169  0.5514
  721MOL0     H97285   6.016   5.652   5.326 -2.1994  2.3026  0.1051
  721MOL0     H97286   5.797   5.862   5.279 -0.6929  0.7945 -0.4624
  721MOL0     H97287   5.813   6.193   5.213  0.9021 -2.1791 -2.6343
  721MOL0     H97288   5.782   6.113   5.369 -0.1384 -3.8616 -1.8618
  721MOL0     H97289   6.041   6.266   5.304  1.0862  0.0975  0.5160
  721MOL0     H97290   6.008   6.196   5.457  1.9073 -1.1005 -1.0961
  721MOL0     H97291   5.900   6.436   5.320  2.8390 -1.4872 -0.3981
  721MOL0     H97292   5.955   6.425   5.488  0.9098  2.2077 -1.9318
  721MOL0     H97293   5.730   6.317   5.552 -2.7684 -0.7585 -0.5268
  721MOL0     H97294   5.687   6.328   5.379 -1.4127 -2.7012  2.3111
  721MOL0     H97295   5.602   6.741   5.505 -0.4420 -0.0681 -2.7875
  721MOL0     H97296   5.313   6.884   5.581  0.3640  1.0959  0.1575
  721MOL0     H97297   5.460   6.915   5.486 -0.9395  2.3194 -3.0854
  721MOL0     H97298   5.301   6.908   5.402 -0.4559 -0.5006 -0.5681
  721MOL0     H97299   5.066   6.979   5.404 -1.4755  1.3228 -1.0390
  721MOL0     H97300   4.846   7.111   5.406  0.8086 -0.1992  0.9981
  721MOL0     H97301   4.486   6.911   5.556 -1.2023  0.5212 -0.3091
  721MOL0     H97302   4.493   7.063   5.620 -1.3969 -2.4802  1.3339
  721MOL0     H97303   4.400   7.153   5.399  3.3105 -0.5664  2.0797
  721MOL0     H97304   4.386   6.990   5.347  1.2353 -0.1848  0.1325
  721MOL0     H97305   4.174   7.128   5.459 -0.4238 -0.3918  0.4505
  721MOL0     H97306   4.255   7.069   5.613  0.3314  0.0208  0.0043
  721MOL0     H97307   4.135   6.912   5.375  4.6531 -2.5755 -0.5157
  721MOL0     H97308   4.207   6.839   5.511  0.4178  0.2619 -1.2722
  721MOL0     H97309   3.979   7.034   5.539  0.2920 -0.2839  1.7955
  721MOL0     H97310   4.048   6.934   5.670  1.1668 -0.1960 -0.3295
  721MOL0     H97311   3.862   6.828   5.447  1.2233 -0.9831 -0.6749
  721MOL0     H97312   3.993   6.727   5.522 -0.5397  0.7514 -2.6831
  721MOL0     H97313   3.917   6.758   5.737  0.2204 -0.3098  1.4848
  721MOL0     H97314   3.806   6.680   5.656  0.0530  0.7895  0.7109
  721MOL0     H97315   3.763   6.979   5.670  0.1512 -1.1550 -2.3939
  721MOL0     H97316   3.743   6.878   5.813  0.3559 -1.1674 -0.0553
  721MOL0     H97317   4.637   6.785   5.569 -1.9536  1.6742  0.2013
  721MOL0     H97318   4.839   6.657   5.604 -1.9244  0.1914 -1.2484
  721MOL0     H97319   5.232   6.424   5.457 -0.4845 -0.0639  3.2804
  721MOL0     H97320   5.465   6.340   5.467 -1.8891  0.1676  0.6505
  721MOL0     H97321   6.279   4.832   5.569 -0.5401 -0.6617 -0.4568
  721MOL0     H97322   6.502   4.791   5.538 -1.1801 -1.4022 -0.9161
  721MOL0     H97323   6.925   4.909   5.539  3.3854 -0.9435  2.2834
  721MOL0     H97324   7.174   4.892   5.527  1.3676  1.5638  0.3397
  721MOL0     H97325   7.412   4.896   5.164  2.2885 -0.1733  0.3657
  721MOL0     H97326   7.388   5.069   5.197  1.5372  1.2668  2.4564
  721MOL0     H97327   7.587   5.054   5.355  2.8376  0.3118 -2.4065
  721MOL0     H97328   7.612   5.028   5.190 -0.7957  1.6087  1.3185
  721MOL0     H97329   7.575   4.765   5.281  0.7805  0.6916 -2.5733
  721MOL0     H97330   7.600   4.838   5.433  0.1568 -1.0458 -0.6366
  721MOL0     H97331   7.800   4.741   5.361 -3.6372 -0.4725 -0.4847
  721MOL0     H97332   7.830   4.914   5.379 -2.6795  0.5712  1.5943
  721MOL0     H97333   7.946   4.818   4.988 -0.0806  0.2329  0.0592
  721MOL0     H97334   7.176   5.072   5.139 -1.2901  0.8945 -0.5028
  721MOL0     H97335   6.929   5.098   5.148  1.2842  0.0937 -0.5350
  722MOL0     O97336   2.102   7.439  10.820  0.2135  0.3145 -0.4552
  722MOL0     C97337   2.057   7.532  10.894  0.0496 -0.0491 -0.6466
  722MOL0     O97338   2.067   7.666  10.868  0.4056 -0.5753 -0.4438
  722MOL0     C97339   2.167   7.723  10.785  0.2765 -0.2144 -0.2621
  722MOL0     C97340   2.148   7.861  10.759 -0.0086  0.2919 -0.1300
  722MOL0     C97341   2.224   7.920  10.663 -0.6494 -0.2815  0.0269
  722MOL0     C97342   2.326   7.855  10.589  0.9120  0.5515 -0.2868
  722MOL0     O97343   2.406   7.909  10.491  0.1990  0.5383  0.6820
  722MOL0     C97344   2.385   8.043  10.457 -0.0230 -1.0860  0.3367
  722MOL0     C97345   2.499   8.089  10.369  0.1003  0.6909 -0.0653
  722MOL0     C97346   2.499   8.246  10.365  0.4081  0.3261  0.3632
  722MOL0     C97347   2.605   8.300  10.275  0.3879 -0.3061 -0.2990
  722MOL0     C97348   2.634   8.456  10.323 -0.0560  0.0812  0.8095
  722MOL0     C97349   2.759   8.505  10.245  0.5479 -0.2649  0.3766
  722MOL0     C97350   2.802   8.638  10.295 -0.4090 -0.0461  0.1025
  722MOL0     C97351   2.940   8.660  10.231 -0.9949  0.0562  0.0346
  722MOL0     N97352   3.021   8.737  10.323 -0.6334 -0.5034 -0.3479
  722MOL0     C97353   3.044   8.877  10.306 -0.3530  0.5482 -0.0993
  722MOL0     C97354   3.095   8.919  10.416  0.2119 -1.0500  0.0688
  722MOL0     C97355   3.132   9.061  10.417  0.9816 -1.1020  0.0957
  722MOL0     C97356   3.279   9.065  10.435 -0.1169  0.1593  0.0740
  722MOL0     C97357   3.327   9.028  10.576  0.3800 -0.5273  0.0451
  722MOL0     C97358   3.476   9.064  10.589  0.2725 -0.9163  0.1157
  722MOL0     O97359   3.488   9.207  10.592 -0.2936 -0.3267 -0.7323
  722MOL0     C97360   3.613   9.257  10.579  0.4438  0.3578 -0.7659
  722MOL0     C97361   3.638   9.310  10.458  0.1263 -0.3741  0.2587
  722MOL0     C97362   3.766   9.373  10.426 -0.0743  0.1097  0.1356
  722MOL0     C97363   3.790   9.425  10.288 -0.7650  0.0630 -0.4760
  722MOL0     C97364   3.857   9.395  10.536  0.0358  0.4373  1.2267
  722MOL0     C97365   3.982   9.474  10.523  0.4726  0.5774 -0.2266
  722MOL0     O97366   4.035   9.491  10.643  0.3491 -0.6923  0.0437
  722MOL0     C97367   4.140   9.576  10.676  0.2411  0.0779 -0.1034
  722MOL0     C97368   4.207   9.540  10.795  0.8450  0.8149  0.1304
  722MOL0     C97369   4.317   9.609  10.836 -0.3129 -0.3100  0.4529
  722MOL0     C97370   4.371   9.713  10.755 -0.7635  0.6088 -0.6870
  722MOL0     O97371   4.497   9.763  10.797  0.2888  1.0775 -0.6508
  722MOL0     C97372   4.503   9.897  10.850  0.2026  0.8183  0.1597
  722MOL0     C97373   4.633   9.907  10.935  0.2554 -0.0273  0.1946
  722MOL0     C97374   4.760   9.894  10.859 -1.0433 -0.0267  0.5229
  722MOL0     C97375   4.888   9.871  10.949  0.4651 -0.2320  0.0997
  722MOL0     C97376   4.877   9.735  11.040  0.2431 -0.4567  0.7959
  722MOL0     C97377   5.014   9.688  11.076  0.2403  0.0151 -0.1132
  722MOL0     C97378   5.104   9.776  11.166  0.5365  0.6149 -0.0015
  722MOL0     C97379   5.241   9.723  11.205  0.5615  0.1932  0.0864
  722MOL0    Cl97380   5.330   9.688  11.042 -0.2491 -0.3944  0.2057
  722MOL0     C97381   4.308   9.736  10.624 -0.0112 -0.6503  0.3567
  722MOL0     C97382   4.198   9.671  10.584  0.2729  0.3594 -0.3364
  722MOL0     O97383   4.021   9.518  10.418 -0.9027  0.6151  0.0126
  722MOL0     C97384   3.824   9.337  10.656  0.6782 -0.2241 -0.2586
  722MOL0     C97385   3.707   9.264  10.676  0.1977  0.4509 -0.5511
  722MOL0     N97386   3.117   8.809  10.501  0.6687  0.6563  0.1812
  722MOL0     N97387   3.066   8.701  10.448 -0.0589 -0.8722  0.0342
  722MOL0     C97388   2.349   7.720  10.623 -0.2622 -0.1773  0.2270
  722MOL0     C97389   2.279   7.657  10.728 -1.2890 -0.6063 -0.0870
  722MOL0     C97390   1.961   7.489  11.010 -0.2619  0.5966 -0.1318
  722MOL0     C97391   1.987   7.365  11.072  0.2698 -0.0923  0.7451
  722MOL0     C97392   1.887   7.322  11.161  1.4548 -0.8555  0.2162
  722MOL0     C97393   1.777   7.395  11.204 -0.4298  0.0882 -0.1041
  722MOL0     O97394   1.672   7.341  11.274  0.7294 -0.0727  0.6274
  722MOL0     C97395   1.685   7.207  11.319 -0.3421  0.0027 -0.7887
  722MOL0     C97396   1.567   7.163  11.413 -0.0468 -0.4625  0.2477
  722MOL0     C97397   1.573   7.017  11.455 -0.4987  0.6465 -0.6942
  722MOL0     C97398   1.492   6.991  11.575  0.0455 -0.7117 -1.8723
  722MOL0     C97399   1.350   6.973  11.534  0.3178  0.5119  0.5918
  722MOL0     C97400   1.236   6.957  11.482 -0.2075  0.0145 -1.2245
  722MOL0     C97401   1.766   7.518  11.142  0.4080 -0.4377  0.2654
  722MOL0     C97402   1.844   7.566  11.037  0.1136  0.5544  0.0653
  722MOL0     H97403   2.066   7.905  10.816 -1.9866  0.0741 -2.6134
  722MOL0     H97404   2.204   8.025  10.645 -1.7771 -0.4213  0.3946
  722MOL0     H97405   2.286   8.051  10.411  0.6965  0.3929 -1.0297
  722MOL0     H97406   2.373   8.105  10.546 -1.5790  1.0431 -1.2721
  722MOL0     H97407   2.598   8.049  10.395  0.1049 -1.1366 -2.5389
  722MOL0     H97408   2.485   8.049  10.268  1.4623 -0.1945  0.0694
  722MOL0     H97409   2.405   8.296  10.340  1.1422  0.8418 -1.5053
  722MOL0     H97410   2.513   8.257  10.473 -0.5571  0.2076  0.5111
  722MOL0     H97411   2.699   8.244  10.288 -0.9807 -2.0116  3.3867
  722MOL0     H97412   2.587   8.300  10.167  2.0681  2.3826 -0.6947
  722MOL0     H97413   2.547   8.520  10.304  0.6172  0.6350 -0.5880
  722MOL0     H97414   2.660   8.459  10.429  0.1688 -1.3196  0.8164
  722MOL0     H97415   2.832   8.424  10.254 -1.1710 -1.7790  1.3525
  722MOL0     H97416   2.731   8.515  10.140 -2.8085  1.9043  1.3340
  722MOL0     H97417   2.736   8.724  10.281  2.1444  2.1349  0.6863
  722MOL0     H97418   2.815   8.617  10.402  1.3850  0.3026 -0.0186
  722MOL0     H97419   2.934   8.707  10.133  0.8215 -2.1891 -1.2738
  722MOL0     H97420   2.994   8.565  10.226  0.2408  0.6769  0.8904
  722MOL0     H97421   3.017   8.930  10.215 -0.0368  0.0419 -0.4908
  722MOL0     H97422   3.106   9.104  10.320 -0.6727 -0.5544  0.7556
  722MOL0     H97423   3.083   9.114  10.500 -1.8676 -0.7818 -1.6621
  722MOL0     H97424   3.326   9.158  10.402  5.1603 -1.7069  1.4220
  722MOL0     H97425   3.329   8.989  10.375 -1.4748 -0.0007 -0.9074
  722MOL0     H97426   3.319   8.920  10.593  0.2265 -0.6463 -0.7203
  722MOL0     H97427   3.271   9.086  10.649  0.1787 -3.7519  2.6806
  722MOL0     H97428   3.533   9.021  10.506 -1.5100 -3.9349  0.3064
  722MOL0     H97429   3.525   9.023  10.678  0.3997  0.4467  0.6951
  722MOL0     H97430   3.553   9.312  10.390 -1.2265  1.2978  1.9028
  722MOL0     H97431   3.708   9.401  10.219 -1.1278  3.0390 -1.2149
  722MOL0     H97432   3.788   9.533  10.299  1.7601  0.2126 -0.7282
  722MOL0     H97433   3.890   9.400  10.251 -1.4535 -1.5423 -1.3715
  722MOL0     H97434   4.184   9.457  10.860  1.0241  0.4441 -0.2705
  722MOL0     H97435   4.380   9.578  10.919 -0.2990 -0.4085  0.4063
  722MOL0     H97436   4.506   9.966  10.764 -2.0229 -0.9525 -1.4459
  722MOL0     H97437   4.416   9.928  10.908  2.0590  3.3258  1.8579
  722MOL0     H97438   4.629   9.988  11.008  2.3833 -0.0428  0.3796
  722MOL0     H97439   4.624   9.822  11.004 -1.0550 -0.1866 -0.1467
  722MOL0     H97440   4.767   9.981  10.794 -1.3973 -0.6670 -0.3972
  722MOL0     H97441   4.742   9.802  10.802 -1.8788 -1.4541  2.9244
  722MOL0     H97442   4.979   9.886  10.890  0.5281  1.9816  0.6538
  722MOL0     H97443   4.885   9.955  11.019 -3.0929  1.8469 -2.1916
  722MOL0     H97444   4.833   9.659  10.975 -0.4616 -1.5665  2.5056
  722MOL0     H97445   4.805   9.760  11.119  0.6823 -1.0521  1.3905
  722MOL0     H97446   5.006   9.594  11.130  1.0958 -0.8764 -1.4637
  722MOL0     H97447   5.070   9.669  10.984 -0.2580  0.2027 -0.4601
  722MOL0     H97448   5.049   9.798  11.259  1.3163  1.3648  0.2984
  722MOL0     H97449   5.116   9.878  11.127  0.9709  1.2241  1.6103
  722MOL0     H97450   5.220   9.639  11.272 -0.4731  1.5888  1.5997
  722MOL0     H97451   5.293   9.799  11.264 -2.0810  2.4598 -0.3509
  722MOL0     H97452   4.352   9.811  10.559 -1.1340 -0.3066 -0.0510
  722MOL0     H97453   4.158   9.692  10.486 -2.2454 -0.6785  0.3814
  722MOL0     H97454   3.899   9.339  10.735  4.0072  2.1711 -3.1516
  722MOL0     H97455   3.696   9.227  10.778 -1.5611 -2.7202 -1.7586
  722MOL0     H97456   2.421   7.663  10.564  0.0969  2.2121 -1.8134
  722MOL0     H97457   2.308   7.553  10.738  3.8458  0.5525  0.2082
  722MOL0     H97458   2.066   7.299  11.039  2.6610  2.4624  1.0106
  722MOL0     H97459   1.893   7.217  11.186 -1.4624 -1.8480 -2.4607
  722MOL0     H97460   1.676   7.131  11.241 -2.7851 -0.9839  0.3562
  722MOL0     H97461   1.770   7.193  11.386 -1.0750 -2.3849 -0.2804
  722MOL0     H97462   1.471   7.189  11.369  0.8841  1.2637 -0.8918
  722MOL0     H97463   1.577   7.226  11.502 -1.1801 -0.8413  0.6526
  722MOL0     H97464   1.679   6.997  11.476 -1.2382 -1.4287  1.3774
  722MOL0     H97465   1.540   6.951  11.374  2.7548  0.0259 -1.6562
  722MOL0     H97466   1.511   7.072  11.647  1.4482 -1.2677 -1.5945
  722MOL0     H97467   1.514   6.902  11.634 -1.3897  1.5050  2.4227
  722MOL0     H97468   1.143   6.935  11.433  0.0338 -2.3993 -0.6997
  722MOL0     H97469   1.677   7.578  11.157  0.6027 -0.0441 -0.1244
  722MOL0     H97470   1.822   7.664  10.995 -3.4653 -0.2700 -0.3027
  723MOL0     O97471   7.169   4.450  10.525  0.2521 -0.0606  0.4891
  723MOL0     C97472   7.163   4.525  10.424 -1.1316  1.1214 -0.5743
  723MOL0     O97473   7.088   4.505  10.316  0.0483 -0.4062  0.7381
  723MOL0     C97474   6.993   4.413  10.313  0.5262  0.9454  0.1500
  723MOL0     C97475   6.860   4.455  10.324  0.4421 -1.0395 -0.9482
  723MOL0     C97476   6.757   4.367  10.325  0.7088 -0.0881 -0.0405
  723MOL0     C97477   6.785   4.234  10.335  0.2335  0.0932  0.0061
  723MOL0     O97478   6.680   4.145  10.342  0.5288  0.1623  0.0636
  723MOL0     C97479   6.688   4.032  10.249  0.2014 -0.1720 -0.0757
  723MOL0     C97480   6.550   3.948  10.247  0.4552  0.2368 -0.7170
  723MOL0     C97481   6.574   3.803  10.209 -0.2707  0.2719  0.1564
  723MOL0     C97482   6.617   3.772  10.068 -0.1024 -0.3627 -0.7644
  723MOL0     C97483   6.604   3.627  10.046 -0.2043 -0.0158 -0.4360
  723MOL0     C97484   6.637   3.589   9.899 -0.3130 -1.6137 -0.5213
  723MOL0     C97485   6.607   3.438   9.885  0.2946 -0.3572 -0.1873
  723MOL0     C97486   6.611   3.389   9.742  0.3008  0.0645 -0.0538
  723MOL0     N97487   6.725   3.441   9.672  1.0934 -0.6071  0.2338
  723MOL0     C97488   6.849   3.408   9.712 -0.0132 -1.2511  0.4545
  723MOL0     C97489   6.926   3.468   9.619  0.2816 -0.4200 -0.0111
  723MOL0     C97490   7.070   3.488   9.628  0.5927  0.3090  0.5377
  723MOL0     C97491   7.113   3.570   9.747  0.0010 -0.8761  0.1364
  723MOL0     C97492   7.229   3.511   9.829 -0.8620  0.1022 -0.3543
  723MOL0     C97493   7.273   3.595   9.953  0.7627  0.2003  0.2218
  723MOL0     O97494   7.160   3.658  10.017  0.0785 -0.4938  0.5149
  723MOL0     C97495   7.085   3.580  10.104  0.2279  0.2190  0.3662
  723MOL0     C97496   7.091   3.447  10.141  0.3273  0.2305  0.1775
  723MOL0     C97497   6.995   3.383  10.234 -0.0447  0.2436  0.0188
  723MOL0     C97498   7.016   3.237  10.268 -0.4448  0.0096 -0.5934
  723MOL0     C97499   6.904   3.468  10.296 -0.4769  0.1889  0.7006
  723MOL0     C97500   6.823   3.420  10.407 -0.4332 -0.6716 -0.2084
  723MOL0     O97501   6.694   3.424  10.386 -0.2183  0.0586  0.2345
  723MOL0     C97502   6.617   3.388  10.489 -0.0286 -0.6228 -0.3434
  723MOL0     C97503   6.615   3.248  10.526 -0.1407  0.2885 -0.6999
  723MOL0     C97504   6.539   3.206  10.634 -0.8290  0.1490 -0.4847
  723MOL0     C97505   6.477   3.300  10.718 -0.0530  0.2398  0.2247
  723MOL0     O97506   6.418   3.246  10.836 -0.1645  0.3863 -0.2783
  723MOL0     C97507   6.431   3.316  10.963  0.4846 -0.2013  0.2083
  723MOL0     C97508   6.436   3.211  11.078 -0.1628 -0.1096 -0.6862
  723MOL0     C97509   6.416   3.281  11.214  0.2976  0.5526 -0.4984
  723MOL0     C97510   6.561   3.330  11.258 -0.1093  0.1576 -1.2030
  723MOL0     C97511   6.548   3.418  11.386  1.0443  0.2826  0.0883
  723MOL0     C97512   6.678   3.477  11.434  0.3311 -0.6110  0.3678
  723MOL0     C97513   6.666   3.534  11.577 -0.2471  0.2529  0.2832
  723MOL0     C97514   6.785   3.587  11.649 -0.5832  0.3377  0.2179
  723MOL0    Cl97515   6.910   3.660  11.538  0.3772  0.2934 -0.4682
  723MOL0     C97516   6.468   3.433  10.680  0.5372  0.9227  1.6555
  723MOL0     C97517   6.539   3.470  10.567 -0.1389  0.0760  0.4644
  723MOL0     O97518   6.880   3.382  10.510  0.6682  0.2173 -0.0560
  723MOL0     C97519   6.901   3.605  10.264 -0.3011  0.6947 -0.5858
  723MOL0     C97520   6.984   3.653  10.166 -0.0831 -0.2430  0.2688
  723MOL0     N97521   6.838   3.522   9.522  0.3815  0.2990 -0.2370
  723MOL0     N97522   6.713   3.499   9.557 -0.2583 -0.0381 -0.0400
  723MOL0     C97523   6.917   4.190  10.334  0.0009 -0.1943 -0.2598
  723MOL0     C97524   7.023   4.275  10.308  0.1621  0.1228  0.4508
  723MOL0     C97525   7.264   4.641  10.419 -0.1676  0.0282  0.5578
  723MOL0     C97526   7.370   4.651  10.518 -0.7263  0.5656 -0.1895
  723MOL0     C97527   7.462   4.764  10.508 -0.0305  0.9114 -0.1387
  723MOL0     C97528   7.444   4.861  10.404 -0.4953  0.7582  0.1580
  723MOL0     O97529   7.518   4.979  10.399 -0.6171  0.0576 -0.1181
  723MOL0     C97530   7.618   4.988  10.508 -0.0250 -0.2707 -0.5084
  723MOL0     C97531   7.689   5.119  10.501  0.5487  0.5008  0.5860
  723MOL0     C97532   7.776   5.119  10.374  0.1206 -0.1118 -0.0960
  723MOL0     C97533   7.845   5.255  10.357 -0.1142  0.1943  0.5443
  723MOL0     C97534   7.955   5.235  10.254  0.2252  0.5007 -0.1146
  723MOL0     C97535   8.041   5.224  10.165 -0.5849 -1.0636 -0.0716
  723MOL0     C97536   7.343   4.847  10.309  0.2311  0.1375  1.1830
  723MOL0     C97537   7.260   4.731  10.314 -0.0323 -0.9096 -0.0462
  723MOL0     H97538   6.832   4.559  10.311 -1.3256 -1.6420 -2.3823
  723MOL0     H97539   6.656   4.406  10.333  1.4809  2.0240 -0.0878
  723MOL0     H97540   6.717   4.078  10.154  2.2687 -0.4758  0.3528
  723MOL0     H97541   6.767   3.959  10.273  0.6128 -1.3822 -4.3271
  723MOL0     H97542   6.514   3.950  10.350  3.3151  1.2828  0.3394
  723MOL0     H97543   6.466   3.988  10.189  0.8121  0.3186 -1.1810
  723MOL0     H97544   6.645   3.758  10.279 -0.8950 -1.3237 -0.1993
  723MOL0     H97545   6.478   3.755  10.232 -0.1067  0.1746  0.6515
  723MOL0     H97546   6.558   3.833  10.000  2.0514  2.9785  0.1245
  723MOL0     H97547   6.720   3.801  10.044 -0.9371  2.5862 -1.1332
  723MOL0     H97548   6.679   3.567  10.098 -0.5681 -0.3973 -0.3494
  723MOL0     H97549   6.504   3.600  10.081  0.7096 -0.8665  1.6693
  723MOL0     H97550   6.570   3.642   9.831  1.3866 -1.3919 -2.0751
  723MOL0     H97551   6.741   3.606   9.872 -0.4736 -1.0202 -0.7837
  723MOL0     H97552   6.679   3.389   9.951  0.4670 -0.5279 -0.4984
  723MOL0     H97553   6.506   3.423   9.925  0.8109 -3.4991  0.1927
  723MOL0     H97554   6.524   3.429   9.689  0.7762  0.1203 -0.8096
  723MOL0     H97555   6.606   3.280   9.729  0.3198  0.2160 -1.5370
  723MOL0     H97556   6.870   3.350   9.802  0.4836 -2.4157 -0.3766
  723MOL0     H97557   7.110   3.387   9.618 -1.2899 -0.3574 -0.9194
  723MOL0     H97558   7.112   3.546   9.545  1.0042 -0.6064  0.1018
  723MOL0     H97559   7.027   3.575   9.815 -1.2111 -1.3447 -1.3023
  723MOL0     H97560   7.124   3.671   9.707 -3.2543 -0.3228  0.3514
  723MOL0     H97561   7.321   3.486   9.775  2.0317  0.9197  3.7506
  723MOL0     H97562   7.193   3.423   9.882 -1.2004  0.5784  0.2066
  723MOL0     H97563   7.350   3.669   9.928  3.8373 -1.1131  4.4620
  723MOL0     H97564   7.329   3.535  10.026 -0.8871  1.1284  2.3644
  723MOL0     H97565   7.173   3.383  10.111 -0.7722 -0.9512 -0.3960
  723MOL0     H97566   7.076   3.186  10.193  1.4970 -0.0199  0.8952
  723MOL0     H97567   7.060   3.224  10.368 -0.2444 -3.0280 -0.9874
  723MOL0     H97568   6.919   3.186  10.266  0.0527 -1.1705  1.6934
  723MOL0     H97569   6.673   3.182  10.462 -2.3834 -0.2576 -2.2731
  723MOL0     H97570   6.531   3.110  10.684 -1.8995  0.4970  0.0462
  723MOL0     H97571   6.518   3.381  10.955  3.6833 -4.0635  0.3356
  723MOL0     H97572   6.343   3.381  10.969 -0.6285 -1.0725 -3.6712
  723MOL0     H97573   6.353   3.143  11.059  1.0645 -1.9879  0.3724
  723MOL0     H97574   6.531   3.157  11.081 -0.1935 -0.0957  1.0902
  723MOL0     H97575   6.373   3.211  11.286 -0.2766  2.5970  1.2348
  723MOL0     H97576   6.350   3.368  11.207 -1.7140 -0.6986  1.7495
  723MOL0     H97577   6.626   3.247  11.287  1.1841  1.7311  0.6362
  723MOL0     H97578   6.614   3.382  11.178  0.9678  0.0424 -0.5747
  723MOL0     H97579   6.490   3.363  11.460  0.2774 -0.6652 -1.1695
  723MOL0     H97580   6.489   3.508  11.363 -0.4899 -1.2328 -2.2954
  723MOL0     H97581   6.762   3.408  11.429  1.5520  0.8876 -0.7246
  723MOL0     H97582   6.702   3.555  11.362 -2.3736  0.5228  0.5667
  723MOL0     H97583   6.634   3.449  11.638  0.7233 -1.1039 -1.0435
  723MOL0     H97584   6.584   3.606  11.577  0.5558  1.3649 -3.2558
  723MOL0     H97585   6.840   3.505  11.697 -1.0883  0.2517  0.6551
  723MOL0     H97586   6.743   3.659  11.720 -1.3582  1.4482 -1.3077
  723MOL0     H97587   6.418   3.503  10.745 -1.8006 -1.1360  2.2303
  723MOL0     H97588   6.522   3.576  10.552  0.0190  0.0802  0.3099
  723MOL0     H97589   6.832   3.668  10.319 -1.8887 -1.4182 -0.0225
  723MOL0     H97590   6.967   3.759  10.147 -4.0828 -0.1375  3.1821
  723MOL0     H97591   6.947   4.086  10.338  0.7773  0.0246 -0.3501
  723MOL0     H97592   7.122   4.233  10.293  0.2410  0.1474  0.8707
  723MOL0     H97593   7.377   4.571  10.591 -3.0331  0.5396  0.0618
  723MOL0     H97594   7.542   4.758  10.581  0.4498 -3.3585 -0.7440
  723MOL0     H97595   7.558   4.987  10.599  1.7699  0.5043  0.7232
  723MOL0     H97596   7.694   4.912  10.494 -0.0719 -0.0624 -2.1146
  723MOL0     H97597   7.764   5.123  10.580  1.2620 -3.4274  0.3244
  723MOL0     H97598   7.619   5.202  10.511  2.6335  2.1512  2.4038
  723MOL0     H97599   7.718   5.095  10.285  1.1738  1.7374 -1.3489
  723MOL0     H97600   7.845   5.035  10.380 -0.1431 -0.9295 -4.8093
  723MOL0     H97601   7.872   5.305  10.451  3.1522 -0.3106 -0.0094
  723MOL0     H97602   7.767   5.317  10.311  1.0172  0.0646 -1.6685
  723MOL0     H97603   8.112   5.220  10.086 -2.2551 -1.9473 -1.5945
  723MOL0     H97604   7.325   4.923  10.233 -2.7073 -0.9151  0.6767
  723MOL0     H97605   7.184   4.719  10.238 -1.3945  1.2348  0.9084
  724MOL0     O97606   3.475   1.053  11.288  0.7228  0.2086 -0.3792
  724MOL0     C97607   3.490   1.159  11.230 -0.4539 -0.3022  0.4151
  724MOL0     O97608   3.432   1.278  11.252  0.0408  0.0226  0.7542
  724MOL0     C97609   3.326   1.276  11.337 -0.6626  0.2358  0.0373
  724MOL0     C97610   3.215   1.187  11.306  0.0131  0.0979 -0.2666
  724MOL0     C97611   3.102   1.192  11.383  0.7226  0.6817 -0.6596
  724MOL0     C97612   3.096   1.285  11.496  0.2576 -0.2618  1.1257
  724MOL0     O97613   2.980   1.314  11.566 -0.1833 -0.2710 -0.6946
  724MOL0     C97614   2.896   1.198  11.585  0.5515  0.4548 -0.3623
  724MOL0     C97615   2.795   1.242  11.688 -0.2369  1.0094 -0.8522
  724MOL0     C97616   2.708   1.134  11.744 -0.7879 -0.2039 -0.3889
  724MOL0     C97617   2.595   1.097  11.659  0.0273 -0.4087  1.1053
  724MOL0     C97618   2.487   1.206  11.640  0.0370  0.7446 -0.0599
  724MOL0     C97619   2.351   1.148  11.604  0.3978  1.0618  0.3080
  724MOL0     C97620   2.354   1.058  11.473  0.3543  0.5991  0.7072
  724MOL0     C97621   2.211   1.032  11.422  0.3967  0.3865  0.3062
  724MOL0     N97622   2.117   0.981  11.524 -0.4213 -0.3528  0.7944
  724MOL0     C97623   2.129   0.858  11.574 -0.2088 -0.6863 -1.2513
  724MOL0     C97624   2.035   0.857  11.665  0.7474 -0.3779 -0.9736
  724MOL0     C97625   2.024   0.733  11.752 -0.0069 -0.6780  0.9105
  724MOL0     C97626   1.884   0.673  11.714  0.0178  1.3455  0.5584
  724MOL0     C97627   1.843   0.554  11.802 -0.0386 -0.4347  0.0392
  724MOL0     C97628   1.705   0.504  11.783  0.1073 -0.0623  0.8506
  724MOL0     O97629   1.604   0.604  11.812 -0.4544 -0.1800 -0.1215
  724MOL0     C97630   1.473   0.565  11.799 -0.4836 -0.2298 -0.0900
  724MOL0     C97631   1.431   0.448  11.736  0.2997  0.5075  0.7510
  724MOL0     C97632   1.297   0.396  11.755 -1.1948 -0.7134  0.3822
  724MOL0     C97633   1.270   0.256  11.706  1.0592  0.7941  0.6971
  724MOL0     C97634   1.203   0.480  11.814  0.2556  1.2661  0.0992
  724MOL0     C97635   1.066   0.443  11.846  0.3127  0.1098 -0.9435
  724MOL0     O97636   0.991   0.394  11.745 -0.0916  0.5496  0.3108
  724MOL0     C97637   0.872   0.338  11.781 -0.3565 -0.4886 -1.1158
  724MOL0     C97638   0.830   0.205  11.783  0.5641  0.5016  0.3974
  724MOL0     C97639   0.697   0.167  11.815 -0.3398 -0.9353 -0.0158
  724MOL0     C97640   0.600   0.273  11.844 -0.1376  0.6993 -0.5739
  724MOL0     O97641   0.481   0.265  11.907  0.4924  0.3634 -0.0767
  724MOL0     C97642   0.407   0.140  11.901  0.0535 -0.4093 -0.1711
  724MOL0     C97643   0.304   0.129  12.018 -0.9215 -0.4145  0.0830
  724MOL0     C97644   0.361   0.161  12.161  0.4707  0.0952 -0.4836
  724MOL0     C97645   0.255   0.221  12.258  0.4114 -0.1558 -0.5862
  724MOL0     C97646   0.143   0.120  12.273 -0.1197 -0.9773 -0.9227
  724MOL0     C97647   0.059   0.169  12.391  0.2531  0.1970 -0.0827
  724MOL0     C97648  -0.039   0.056  12.440 -0.4166  1.6029  0.9848
  724MOL0     C97649  -0.165   0.112  12.488  0.0462  0.2186 -0.2116
  724MOL0    Cl97650  -0.159   0.224  12.624  0.2444 -0.2122  0.3015
  724MOL0     C97651   0.639   0.407  11.831  0.3758 -0.7197 -0.1092
  724MOL0     C97652   0.776   0.438  11.799  0.8738 -0.0636 -0.7106
  724MOL0     O97653   1.023   0.450  11.967  0.6900 -0.4069  0.4647
  724MOL0     C97654   1.240   0.609  11.859 -0.1669 -0.2429  0.6355
  724MOL0     C97655   1.370   0.651  11.854  0.0245  0.5837 -0.2924
  724MOL0     N97656   1.958   0.975  11.663 -0.5831  0.7149  0.9001
  724MOL0     N97657   2.019   1.048  11.583 -0.4680 -0.0039 -0.1572
  724MOL0     C97658   3.206   1.371  11.519 -0.3075 -0.3914 -0.9686
  724MOL0     C97659   3.327   1.372  11.444 -0.3104  1.1040  0.1631
  724MOL0     C97660   3.590   1.147  11.126  0.6719 -0.7152  0.3958
  724MOL0     C97661   3.655   1.255  11.071  0.7495  0.2812 -0.0475
  724MOL0     C97662   3.756   1.244  10.968 -0.4289 -0.7986 -0.5700
  724MOL0     C97663   3.803   1.125  10.927 -0.7562  0.6311 -1.1200
  724MOL0     O97664   3.892   1.115  10.820 -0.4452 -0.3945  0.2228
  724MOL0     C97665   3.987   1.001  10.817  0.1058  0.5823  1.1688
  724MOL0     C97666   4.064   0.976  10.940 -0.2701  0.1617 -0.6327
  724MOL0     C97667   4.198   0.895  10.907  0.9396 -0.6326  0.2990
  724MOL0     C97668   4.290   0.861  11.029  0.2848 -1.1066  0.3215
  724MOL0     C97669   4.351   0.725  11.035 -0.1810 -0.4251 -0.1556
  724MOL0     C97670   4.419   0.629  11.023 -0.4816  0.0743  0.5387
  724MOL0     C97671   3.750   1.014  10.995 -0.8314  0.1189  0.3103
  724MOL0     C97672   3.642   1.020  11.084 -0.1364  0.3902  0.3578
  724MOL0     H97673   3.214   1.121  11.220 -0.9314  0.6857 -0.7209
  724MOL0     H97674   3.028   1.116  11.360  1.5088  0.6135 -3.2429
  724MOL0     H97675   2.836   1.180  11.496  0.4006  2.3132 -0.6816
  724MOL0     H97676   2.961   1.112  11.607 -2.4725 -2.4031 -1.7506
  724MOL0     H97677   2.845   1.287  11.774 -1.4955  4.6120 -1.8354
  724MOL0     H97678   2.735   1.327  11.656 -0.5974  1.2976  0.5158
  724MOL0     H97679   2.767   1.042  11.757 -0.7900  0.0831  2.2212
  724MOL0     H97680   2.682   1.160  11.847  2.3221  0.2350  0.3998
  724MOL0     H97681   2.625   1.060  11.561 -0.9498  0.6224  0.4017
  724MOL0     H97682   2.550   1.007  11.703 -1.9267  0.0423  0.1408
  724MOL0     H97683   2.475   1.256  11.736  0.3168  1.6887 -0.4977
  724MOL0     H97684   2.519   1.287  11.573 -2.8949  1.4826 -0.7045
  724MOL0     H97685   2.312   1.092  11.689 -0.8918  0.4858 -0.6310
  724MOL0     H97686   2.290   1.237  11.592 -1.0043 -0.1994 -3.8270
  724MOL0     H97687   2.412   1.113  11.398 -0.3103 -0.2830 -0.4793
  724MOL0     H97688   2.400   0.964  11.503  0.2760  1.4693  3.9738
  724MOL0     H97689   2.212   0.966  11.335 -0.7760  0.9086 -0.1204
  724MOL0     H97690   2.167   1.126  11.387  0.1337 -0.0241 -0.4781
  724MOL0     H97691   2.215   0.791  11.568  1.1712  0.7158  1.1715
  724MOL0     H97692   2.104   0.661  11.734 -0.0401 -0.6725  0.7389
  724MOL0     H97693   2.025   0.762  11.858  1.1232 -1.1484  1.0426
  724MOL0     H97694   1.887   0.626  11.615 -1.6510 -1.9160  1.9115
  724MOL0     H97695   1.806   0.749  11.709 -1.1815  0.2055 -5.0512
  724MOL0     H97696   1.855   0.573  11.910  1.1503 -2.2513  0.2666
  724MOL0     H97697   1.909   0.469  11.781 -0.0393 -1.1098  2.3792
  724MOL0     H97698   1.689   0.417  11.846  0.0385 -0.0369  0.8676
  724MOL0     H97699   1.687   0.488  11.676  0.6621  0.8545  0.6027
  724MOL0     H97700   1.501   0.380  11.688 -2.1444 -1.4673 -0.2230
  724MOL0     H97701   1.243   0.257  11.600 -0.4230  2.0367  1.0477
  724MOL0     H97702   1.358   0.192  11.716 -1.2393 -2.5514  1.1140
  724MOL0     H97703   1.189   0.199  11.753 -0.2360  0.0632 -2.1865
  724MOL0     H97704   0.890   0.117  11.763 -1.9424 -1.1946 -0.2664
  724MOL0     H97705   0.667   0.063  11.821  2.2783 -1.6462  2.8937
  724MOL0     H97706   0.343   0.132  11.812  1.4559 -1.1099 -1.1561
  724MOL0     H97707   0.467   0.048  11.895 -0.8066 -0.9604 -0.5009
  724MOL0     H97708   0.225   0.202  12.003 -0.8991 -0.0810  1.4412
  724MOL0     H97709   0.260   0.029  12.016  0.8894 -1.2768  0.6141
  724MOL0     H97710   0.424   0.250  12.151 -0.1090  0.3783 -1.7474
  724MOL0     H97711   0.415   0.076  12.204  0.2485 -1.4671 -3.1089
  724MOL0     H97712   0.286   0.252  12.359 -1.3715 -4.5719  1.5931
  724MOL0     H97713   0.204   0.306  12.211 -2.1481 -2.1229 -1.6375
  724MOL0     H97714   0.184   0.021  12.295 -0.8219 -1.6969 -2.6148
  724MOL0     H97715   0.082   0.108  12.183 -0.4310 -0.8646 -0.7284
  724MOL0     H97716   0.117   0.187  12.482 -0.6613 -0.1775  0.5927
  724MOL0     H97717   0.007   0.265  12.379  0.1248  0.4416  2.0151
  724MOL0     H97718   0.013  -0.009  12.512  1.1507  1.4984 -0.1914
  724MOL0     H97719  -0.049  -0.007  12.352 -0.9144  3.3675 -0.2684
  724MOL0     H97720  -0.220   0.027  12.531 -0.7291  1.4764  1.3973
  724MOL0     H97721  -0.233   0.161  12.418  1.0147  1.6125 -0.2173
  724MOL0     H97722   0.574   0.494  11.838  1.4792  0.1896 -0.8370
  724MOL0     H97723   0.806   0.542  11.786 -3.0976  1.4680  0.7205
  724MOL0     H97724   1.175   0.680  11.909  1.4074  1.8479 -0.1501
  724MOL0     H97725   1.409   0.748  11.881  0.0833  0.3225  0.5822
  724MOL0     H97726   3.183   1.442  11.598 -0.0227 -0.2668 -0.9960
  724MOL0     H97727   3.405   1.443  11.469 -0.0217  0.3914  1.3702
  724MOL0     H97728   3.615   1.349  11.106 -4.2203 -1.0935 -1.2267
  724MOL0     H97729   3.778   1.335  10.913  0.8374  0.2433  1.5254
  724MOL0     H97730   3.929   0.912  10.794 -1.0766  1.5702  0.1267
  724MOL0     H97731   4.055   1.030  10.736 -0.5326  3.2677  1.4830
  724MOL0     H97732   3.998   0.931  11.014 -2.1907  2.4884 -0.7913
  724MOL0     H97733   4.097   1.072  10.980  0.9471 -0.7379  0.6001
  724MOL0     H97734   4.260   0.947  10.834  1.1801 -0.8012  0.3816
  724MOL0     H97735   4.173   0.804  10.853 -0.7495 -0.8570  1.3612
  724MOL0     H97736   4.223   0.872  11.115  2.1462 -0.5685  1.7683
  724MOL0     H97737   4.357   0.945  11.053 -1.7752  0.2680  1.6075
  724MOL0     H97738   4.475   0.538  11.014  1.4687  1.1130  1.6196
  724MOL0     H97739   3.800   0.921  10.969  4.6180  2.9449 -0.7228
  724MOL0     H97740   3.599   0.922  11.105  0.4049 -0.9614 -3.8548
  725MOL0     O97741   3.499  11.336   5.230  0.4049 -0.2196 -0.3929
  725MOL0     C97742   3.524  11.456   5.224  0.0187 -0.4599 -0.3232
  725MOL0     O97743   3.430  11.558   5.201  0.5897 -0.2464  0.4142
  725MOL0     C97744   3.310  11.511   5.175  0.1537  0.1579 -0.0386
  725MOL0     C97745   3.271  11.449   5.059  0.3856  0.1440  0.8318
  725MOL0     C97746   3.136  11.418   5.030  0.0576 -0.6675  0.1686
  725MOL0     C97747   3.036  11.438   5.124 -0.2864 -0.2482  0.4310
  725MOL0     O97748   2.904  11.410   5.093  0.1147 -0.7983  0.8568
  725MOL0     C97749   2.842  11.334   5.193 -0.0860 -0.1664  0.2939
  725MOL0     C97750   2.697  11.368   5.196 -0.1205 -0.3174 -0.7086
  725MOL0     C97751   2.627  11.327   5.067 -0.2483 -0.4483  0.0605
  725MOL0     C97752   2.473  11.334   5.085  0.2303  1.5284  0.0445
  725MOL0     C97753   2.400  11.279   4.968  0.0811  0.2848  0.2804
  725MOL0     C97754   2.247  11.273   4.989 -0.5970 -0.9360  0.5577
  725MOL0     C97755   2.175  11.204   4.875  0.9527  0.9294  0.6550
  725MOL0     C97756   2.024  11.162   4.917 -0.0177 -0.5773 -0.3021
  725MOL0     N97757   1.953  11.085   4.813 -0.3147 -0.1237 -0.0294
  725MOL0     C97758   2.005  10.972   4.754 -0.1599  0.7595  0.2144
  725MOL0     C97759   1.906  10.940   4.663 -0.4580  1.1213 -0.7510
  725MOL0     C97760   1.881  10.808   4.592 -0.1441 -0.1452  0.8863
  725MOL0     C97761   1.778  10.826   4.479 -0.4301  0.6732  0.0337
  725MOL0     C97762   1.740  10.698   4.401  1.1328  0.8147  0.0063
  725MOL0     C97763   1.733  10.565   4.485 -0.1480  0.0617 -0.0973
  725MOL0     O97764   1.694  10.456   4.395 -0.1692 -0.4038 -0.2679
  725MOL0     C97765   1.688  10.326   4.440 -0.4943 -0.3790 -0.2508
  725MOL0     C97766   1.643  10.225   4.362  0.3135  0.4020  0.3771
  725MOL0     C97767   1.635  10.092   4.411 -0.4084 -0.5474 -0.5097
  725MOL0     C97768   1.588   9.996   4.294 -0.4301  0.2212 -0.6289
  725MOL0     C97769   1.678  10.063   4.542  0.8664 -0.2339  0.3088
  725MOL0     C97770   1.684   9.923   4.590  0.4484  0.2961  0.9001
  725MOL0     O97771   1.681   9.904   4.722 -0.6289 -0.8932 -0.5034
  725MOL0     C97772   1.710   9.774   4.761  0.0935  0.1567 -0.5082
  725MOL0     C97773   1.840   9.717   4.777 -0.3216  0.2597 -0.1088
  725MOL0     C97774   1.862   9.598   4.838  0.4851 -0.1479 -1.2905
  725MOL0     C97775   1.761   9.540   4.920 -0.0908  0.4213  0.8709
  725MOL0     O97776   1.797   9.441   4.992 -0.4493  1.0879 -0.1211
  725MOL0     C97777   1.725   9.418   5.114  0.2045  0.8411 -0.4800
  725MOL0     C97778   1.657   9.269   5.113  0.0151 -0.3889 -0.4694
  725MOL0     C97779   1.581   9.247   5.244 -0.0498  0.6682  0.2791
  725MOL0     C97780   1.445   9.330   5.259 -0.6364 -0.3765  0.5779
  725MOL0     C97781   1.357   9.288   5.143  0.0504  0.3063  0.3529
  725MOL0     C97782   1.207   9.307   5.182  0.5380  0.1802 -0.1425
  725MOL0     C97783   1.132   9.276   5.051 -0.7335 -0.4979  0.0944
  725MOL0     C97784   0.982   9.319   5.041 -0.4451  0.5339  0.5701
  725MOL0    Cl97785   0.980   9.493   5.073 -0.1534  0.2650 -0.5440
  725MOL0     C97786   1.629   9.588   4.905  0.1364 -0.1722  0.2057
  725MOL0     C97787   1.607   9.707   4.830 -0.0582  0.4797 -0.2817
  725MOL0     O97788   1.717   9.841   4.505 -0.5026  0.1327 -0.4725
  725MOL0     C97789   1.723  10.165   4.627 -0.0287  0.5560  0.6598
  725MOL0     C97790   1.732  10.294   4.571  0.0579  0.0531  0.9193
  725MOL0     N97791   1.814  11.037   4.667  0.4665  0.0967  0.9011
  725MOL0     N97792   1.832  11.113   4.759 -0.2676  0.0238 -0.6163
  725MOL0     C97793   3.077  11.497   5.253  0.0378  0.7044 -0.1144
  725MOL0     C97794   3.210  11.535   5.270  0.1419  0.8946  0.6598
  725MOL0     C97795   3.670  11.495   5.246 -0.3030 -0.7407 -0.3273
  725MOL0     C97796   3.747  11.407   5.327 -0.3937 -0.2392  0.0774
  725MOL0     C97797   3.884  11.423   5.336  0.0505  0.4061 -0.2730
  725MOL0     C97798   3.943  11.528   5.277  0.1135 -0.3722  0.5229
  725MOL0     O97799   4.077  11.558   5.275  0.3042 -0.0336 -0.0288
  725MOL0     C97800   4.169  11.447   5.294  0.4240  0.1436 -0.0798
  725MOL0     C97801   4.296  11.471   5.209 -0.0528 -0.5001 -0.6349
  725MOL0     C97802   4.375  11.336   5.200  0.1073  0.0848 -0.9363
  725MOL0     C97803   4.500  11.338   5.119 -0.5492  0.3170  0.1694
  725MOL0     C97804   4.470  11.390   4.979  0.6566 -0.4874 -0.1968
  725MOL0     C97805   4.451  11.453   4.874  0.3953 -0.7858  0.3774
  725MOL0     C97806   3.875  11.623   5.203 -0.2311 -0.1886 -0.2037
  725MOL0     C97807   3.734  11.611   5.186  0.3678 -1.0685 -1.0068
  725MOL0     H97808   3.352  11.425   4.991  0.5767  0.1493  1.0589
  725MOL0     H97809   3.117  11.401   4.924  2.4926 -2.8425 -0.0109
  725MOL0     H97810   2.842  11.230   5.159  1.0676  0.2814 -1.2033
  725MOL0     H97811   2.883  11.342   5.295 -1.6188  0.8600  0.8642
  725MOL0     H97812   2.650  11.308   5.274 -1.4096 -0.1581 -1.3247
  725MOL0     H97813   2.689  11.477   5.204  2.1916  0.0527 -2.3194
  725MOL0     H97814   2.638  11.390   4.978 -2.9052  1.2573  0.8400
  725MOL0     H97815   2.654  11.224   5.043  1.9597  0.7618 -3.4562
  725MOL0     H97816   2.439  11.278   5.172 -0.7506  2.6961  0.4544
  725MOL0     H97817   2.446  11.437   5.112  1.4058  1.1661  3.0033
  725MOL0     H97818   2.407  11.345   4.881 -0.1294  1.3736  1.0713
  725MOL0     H97819   2.428  11.175   4.949 -1.2693 -0.1053  0.2749
  725MOL0     H97820   2.231  11.205   5.073  1.1824 -0.0842  1.6378
  725MOL0     H97821   2.204  11.372   5.009  0.1473 -0.9091  2.2012
  725MOL0     H97822   2.171  11.281   4.798  0.4298  2.7026  2.3968
  725MOL0     H97823   2.225  11.115   4.834 -1.9052  0.3453 -1.9711
  725MOL0     H97824   1.976  11.258   4.937  2.7812  1.7081 -3.5349
  725MOL0     H97825   2.026  11.103   5.009 -0.2830 -1.7540 -1.0235
  725MOL0     H97826   2.086  10.912   4.793 -2.0371 -1.2828  1.2173
  725MOL0     H97827   1.977  10.778   4.549  0.3939  3.3985 -0.8006
  725MOL0     H97828   1.834  10.731   4.654 -2.7491 -0.8195 -1.6732
  725MOL0     H97829   1.805  10.905   4.408 -3.8509  1.9135 -0.1028
  725MOL0     H97830   1.683  10.862   4.521 -0.8016  0.3593 -0.5130
  725MOL0     H97831   1.813  10.682   4.321  1.4434 -1.6190  0.6844
  725MOL0     H97832   1.650  10.726   4.347  0.7051 -0.6145 -0.0760
  725MOL0     H97833   1.660  10.578   4.566 -0.7984  3.1152 -1.0298
  725MOL0     H97834   1.834  10.555   4.527  0.4516  3.4536 -0.4911
  725MOL0     H97835   1.618  10.266   4.265  1.1465 -1.3817 -0.6331
  725MOL0     H97836   1.513   9.937   4.346 -0.4951 -0.8359 -1.8608
  725MOL0     H97837   1.529  10.043   4.215 -3.1200  0.1182  1.1939
  725MOL0     H97838   1.667   9.925   4.265 -2.3987 -2.6254  0.5531
  725MOL0     H97839   1.915   9.771   4.721 -1.0662  2.2454  0.7108
  725MOL0     H97840   1.958   9.549   4.849 -0.0446 -0.5570  5.2012
  725MOL0     H97841   1.804   9.418   5.190  3.0342 -3.2597 -3.0117
  725MOL0     H97842   1.656   9.501   5.132  1.8238  2.6956 -2.2426
  725MOL0     H97843   1.592   9.263   5.025 -0.3838 -1.3070 -0.1214
  725MOL0     H97844   1.738   9.198   5.094 -1.3681 -1.6580 -1.9177
  725MOL0     H97845   1.648   9.275   5.326 -1.3039  0.6742  1.3399
  725MOL0     H97846   1.558   9.141   5.256  0.8106  0.6698  2.5490
  725MOL0     H97847   1.410   9.298   5.358 -0.1333 -3.3993 -0.1039
  725MOL0     H97848   1.461   9.437   5.246 -2.3330 -0.1620  0.0057
  725MOL0     H97849   1.374   9.189   5.099  0.4509  0.6590 -0.2974
  725MOL0     H97850   1.377   9.350   5.055  0.0471  2.0193  1.5268
  725MOL0     H97851   1.184   9.241   5.266 -1.1282  2.4579  1.2864
  725MOL0     H97852   1.193   9.410   5.214  3.4863  1.6318 -2.8918
  725MOL0     H97853   1.134   9.167   5.035 -2.1269 -0.4885 -0.2618
  725MOL0     H97854   1.199   9.320   4.977  0.6243  0.8212  2.0180
  725MOL0     H97855   0.916   9.254   5.099  0.3698 -1.5859 -0.7519
  725MOL0     H97856   0.953   9.297   4.938  0.6380  0.1637  0.3338
  725MOL0     H97857   1.547   9.549   4.964 -0.7389  3.3806  1.5567
  725MOL0     H97858   1.506   9.746   4.842 -0.4456  0.1458 -2.0525
  725MOL0     H97859   1.751  10.144   4.729  1.6601  2.4837  0.6563
  725MOL0     H97860   1.775  10.374   4.629  0.3135  0.3637  0.3152
  725MOL0     H97861   3.004  11.522   5.329 -2.0270  2.4479 -2.4678
  725MOL0     H97862   3.232  11.556   5.374 -0.9985 -1.7213  1.5073
  725MOL0     H97863   3.702  11.322   5.377  0.6096 -0.4658  0.6108
  725MOL0     H97864   3.948  11.352   5.388 -1.3790 -1.9914 -1.5724
  725MOL0     H97865   4.187  11.433   5.401  1.7876  0.1013 -0.2980
  725MOL0     H97866   4.126  11.349   5.270 -1.7413  0.4849  1.9845
  725MOL0     H97867   4.355  11.548   5.260  0.2493 -0.2521 -1.3468
  725MOL0     H97868   4.263  11.509   5.111  2.3393  3.9292  0.0080
  725MOL0     H97869   4.309  11.256   5.166 -2.1201  0.7995  1.3807
  725MOL0     H97870   4.400  11.304   5.302 -1.7422 -3.0893 -1.3355
  725MOL0     H97871   4.563  11.249   5.112  0.2116  0.9012 -0.6374
  725MOL0     H97872   4.576  11.405   5.160  1.9667 -1.5403 -1.1271
  725MOL0     H97873   4.440  11.520   4.791 -1.0332  1.3516  2.1843
  725MOL0     H97874   3.931  11.702   5.155  0.4954 -0.2098  0.5817
  725MOL0     H97875   3.674  11.681   5.129 -2.0039  0.4282  2.9526
  726MOL0     O97876   5.265   0.210   5.270  0.9134  0.5942 -0.3158
  726MOL0     C97877   5.265   0.192   5.150  0.1358  0.3479  0.6007
  726MOL0     O97878   5.158   0.149   5.072 -0.0612  0.1136  0.1914
  726MOL0     C97879   5.051   0.130   5.152  0.5141  0.3623 -0.3966
  726MOL0     C97880   5.015   0.015   5.224  0.3736  0.3170  1.1965
  726MOL0     C97881   4.893   0.015   5.299 -0.0025 -0.1503 -0.8522
  726MOL0     C97882   4.812   0.126   5.310 -0.5255 -0.0687  0.8752
  726MOL0     O97883   4.699   0.142   5.375  0.4703 -0.0933 -0.3867
  726MOL0     C97884   4.642   0.041   5.466  0.4051 -0.0746  0.9453
  726MOL0     C97885   4.526   0.095   5.544  0.3363 -0.6636 -0.3583
  726MOL0     C97886   4.579   0.200   5.640  0.7030  1.6343  0.6743
  726MOL0     C97887   4.470   0.273   5.723 -0.8704 -0.5326 -0.6620
  726MOL0     C97888   4.388   0.180   5.821  1.3697 -0.1229  0.7189
  726MOL0     C97889   4.287   0.270   5.879 -0.2864 -0.7744  0.7517
  726MOL0     C97890   4.225   0.203   6.003  0.8469 -0.6822 -0.0807
  726MOL0     C97891   4.099   0.275   6.041 -1.0271  0.6622  0.4924
  726MOL0     N97892   4.034   0.212   6.150  0.6936  0.9414  0.3380
  726MOL0     C97893   4.078   0.202   6.275  0.4604 -0.1041 -0.0854
  726MOL0     C97894   3.974   0.160   6.349 -0.0101 -0.9991  0.6184
  726MOL0     C97895   3.979   0.154   6.494  0.3714  0.7050 -0.8122
  726MOL0     C97896   3.827   0.131   6.544  0.0213  0.8139  0.0257
  726MOL0     C97897   3.807   0.114   6.696 -0.2822 -0.3788 -0.5395
  726MOL0     C97898   3.664   0.131   6.746  0.6961  0.4757  0.9467
  726MOL0     O97899   3.573   0.078   6.645 -0.3907 -0.1201  0.3833
  726MOL0     C97900   3.442   0.091   6.663 -0.0318  0.1099 -1.6452
  726MOL0     C97901   3.368   0.123   6.560  0.5463  0.0321  0.4714
  726MOL0     C97902   3.225   0.141   6.557 -0.1881  0.3378  0.4104
  726MOL0     C97903   3.167   0.175   6.428 -0.3194 -0.2901  0.4921
  726MOL0     C97904   3.155   0.111   6.677  0.9006 -0.0638  0.5047
  726MOL0     C97905   3.003   0.115   6.689  1.0033  0.1888 -0.5761
  726MOL0     O97906   2.950   0.115   6.817  0.0925  0.0318 -0.2573
  726MOL0     C97907   2.815   0.138   6.836  0.2803 -0.0671 -0.9104
  726MOL0     C97908   2.721   0.035   6.841  0.3367 -0.2545  0.2207
  726MOL0     C97909   2.583   0.055   6.873 -0.7152  0.1755 -0.3226
  726MOL0     C97910   2.535   0.187   6.906  0.3481  0.1340 -0.3667
  726MOL0     O97911   2.412   0.226   6.956 -0.0909 -0.1730 -0.3884
  726MOL0     C97912   2.321   0.122   6.988 -1.0767 -0.8827  0.3063
  726MOL0     C97913   2.180   0.170   7.000 -1.3018 -0.2943 -0.2315
  726MOL0     C97914   2.100   0.141   6.872 -0.0394  0.1926 -0.8231
  726MOL0     C97915   1.979   0.235   6.877  0.3154 -0.2531  0.5928
  726MOL0     C97916   1.883   0.215   6.994 -0.1985 -0.0125 -0.3791
  726MOL0     C97917   1.820   0.074   7.003 -0.4027  0.4448  0.4003
  726MOL0     C97918   1.731   0.055   6.879 -0.2053  0.9144 -0.8917
  726MOL0     C97919   1.627  -0.055   6.896  0.1062 -0.1820 -0.3861
  726MOL0    Cl97920   1.509  -0.069   6.762 -0.1051  0.5261  0.3091
  726MOL0     C97921   2.626   0.292   6.903  0.6165  0.5092 -0.4187
  726MOL0     C97922   2.765   0.267   6.872 -0.3547  0.7402 -0.6030
  726MOL0     O97923   2.933   0.131   6.583 -0.0293 -0.1397  0.2112
  726MOL0     C97924   3.228   0.089   6.792  0.2181 -0.3749  0.5676
  726MOL0     C97925   3.371   0.075   6.786  0.4200 -0.8028 -1.6327
  726MOL0     N97926   3.864   0.136   6.265 -0.5976 -0.8485 -1.0482
  726MOL0     N97927   3.900   0.172   6.148 -0.3207 -0.3843  0.2959
  726MOL0     C97928   4.852   0.241   5.243 -0.3028  1.0007 -0.0628
  726MOL0     C97929   4.963   0.237   5.158 -0.6894 -0.5846  0.6904
  726MOL0     C97930   5.389   0.226   5.082  0.6526  0.2490 -0.0291
  726MOL0     C97931   5.492   0.298   5.135 -0.3836 -0.1632 -0.3294
  726MOL0     C97932   5.612   0.316   5.078 -0.2280  0.0252 -0.2622
  726MOL0     C97933   5.636   0.275   4.944  0.0854  0.0144 -1.3513
  726MOL0     O97934   5.757   0.295   4.877  1.2750  0.5716  0.0768
  726MOL0     C97935   5.858   0.389   4.906  0.6805  0.0959 -0.2836
  726MOL0     C97936   5.808   0.538   4.893  0.0588  0.1621  0.9005
  726MOL0     C97937   5.933   0.625   4.917  0.5963  0.0934  0.5209
  726MOL0     C97938   5.898   0.775   4.914 -0.7027 -0.7911  0.0346
  726MOL0     C97939   6.027   0.850   4.917  0.6255  0.3005 -1.5440
  726MOL0     C97940   6.138   0.890   4.911  0.4544  0.2192 -0.2516
  726MOL0     C97941   5.537   0.203   4.882 -0.5573 -0.5923 -0.5265
  726MOL0     C97942   5.419   0.184   4.949  0.1191 -0.1563 -0.4812
  726MOL0     H97943   5.061  -0.082   5.207 -1.5724 -0.2271 -1.7143
  726MOL0     H97944   4.864  -0.077   5.348 -0.1405 -0.2114 -1.0467
  726MOL0     H97945   4.615  -0.043   5.402 -0.0905 -0.0044  1.0621
  726MOL0     H97946   4.722  -0.001   5.528  2.0418 -1.9266 -2.1424
  726MOL0     H97947   4.447   0.131   5.478 -0.2777 -0.3820  0.5039
  726MOL0     H97948   4.484   0.008   5.594  0.1668  0.0306  0.7450
  726MOL0     H97949   4.646   0.144   5.706  2.0653 -4.1386 -4.6853
  726MOL0     H97950   4.639   0.279   5.593  2.3495  0.5099  0.8156
  726MOL0     H97951   4.521   0.344   5.789  0.6065  0.7310 -3.0180
  726MOL0     H97952   4.411   0.331   5.652 -1.7838  0.7415  1.0542
  726MOL0     H97953   4.338   0.102   5.763 -0.1108 -0.1713  1.9776
  726MOL0     H97954   4.461   0.145   5.895  2.2934  0.1318 -0.0573
  726MOL0     H97955   4.336   0.361   5.914 -2.1547 -0.2738  2.2312
  726MOL0     H97956   4.215   0.294   5.800  1.4867 -1.0384 -1.0190
  726MOL0     H97957   4.195   0.098   5.988 -1.1618 -0.5909  2.7212
  726MOL0     H97958   4.299   0.194   6.083 -0.8056 -4.8817  1.3018
  726MOL0     H97959   4.039   0.285   5.950 -0.1894 -1.1394 -0.2992
  726MOL0     H97960   4.137   0.375   6.064  0.2221  0.2726  0.1957
  726MOL0     H97961   4.179   0.235   6.299  1.1281 -0.1730 -2.4974
  726MOL0     H97962   4.046   0.076   6.531  2.6269  1.8960 -2.1598
  726MOL0     H97963   4.010   0.244   6.546  3.3100 -0.2165 -0.7774
  726MOL0     H97964   3.778   0.048   6.491  0.0588  1.4263 -0.9970
  726MOL0     H97965   3.766   0.217   6.515 -0.5177 -0.4456 -2.9366
  726MOL0     H97966   3.868   0.184   6.754  0.7451 -2.2127  0.6876
  726MOL0     H97967   3.839   0.012   6.719  1.0227  0.0811 -0.2080
  726MOL0     H97968   3.644   0.239   6.743 -1.2928  0.1140 -0.9001
  726MOL0     H97969   3.640   0.096   6.847 -2.0796  0.1013  0.2312
  726MOL0     H97970   3.428   0.123   6.470  0.7446  0.2865  0.6018
  726MOL0     H97971   3.085   0.247   6.427 -1.7914 -1.7973 -2.6358
  726MOL0     H97972   3.254   0.211   6.372 -1.4989  0.7486 -0.7563
  726MOL0     H97973   3.132   0.090   6.368 -2.3719  1.3516 -0.8199
  726MOL0     H97974   2.764  -0.056   6.800  0.0560  0.8554 -2.8325
  726MOL0     H97975   2.514  -0.028   6.872 -0.1466 -0.3248  0.7829
  726MOL0     H97976   2.331   0.047   6.909 -1.4148 -1.5035  0.8473
  726MOL0     H97977   2.349   0.083   7.086 -0.7124  0.5658  0.8044
  726MOL0     H97978   2.128   0.111   7.076  0.0724 -0.9777  0.1978
  726MOL0     H97979   2.184   0.277   7.024  2.8078  0.1153 -1.9144
  726MOL0     H97980   2.066   0.038   6.859  0.6216 -0.6948  3.2173
  726MOL0     H97981   2.154   0.166   6.780  0.3649  3.7154  0.2246
  726MOL0     H97982   2.013   0.339   6.882 -1.7572  0.4324  2.5723
  726MOL0     H97983   1.924   0.216   6.784  0.7059 -0.6871  0.4518
  726MOL0     H97984   1.799   0.286   6.990  0.0211  0.3072  0.3522
  726MOL0     H97985   1.937   0.236   7.088 -2.7450 -0.2865  1.2497
  726MOL0     H97986   1.889  -0.011   7.010  1.0613  1.7174  2.0699
  726MOL0     H97987   1.767   0.069   7.098  0.6926 -0.4209  0.9818
  726MOL0     H97988   1.785   0.033   6.787  2.3310 -0.4696  0.8201
  726MOL0     H97989   1.675   0.149   6.871  0.7034  2.3190  4.8247
  726MOL0     H97990   1.577  -0.029   6.990  0.5503  1.7992 -0.6451
  726MOL0     H97991   1.675  -0.153   6.887 -0.2172 -0.5510  1.5048
  726MOL0     H97992   2.593   0.395   6.915 -0.5716 -0.1186  2.7182
  726MOL0     H97993   2.828   0.356   6.874  0.2210  0.3239  1.0599
  726MOL0     H97994   3.173   0.063   6.881  1.3356 -1.0228  1.0948
  726MOL0     H97995   3.435   0.061   6.873 -4.1512  1.4384  2.6232
  726MOL0     H97996   4.787   0.327   5.248 -1.5354  0.1501 -0.7777
  726MOL0     H97997   4.971   0.331   5.105 -2.0237  1.6910  4.1845
  726MOL0     H97998   5.480   0.327   5.239 -1.3957 -0.2389 -0.4069
  726MOL0     H97999   5.676   0.379   5.140 -0.2126 -0.0271 -0.2244
  726MOL0     H98000   5.889   0.369   5.009  1.0758  2.4546  0.1097
  726MOL0     H98001   5.943   0.380   4.838  1.4745  0.9223  0.5784
  726MOL0     H98002   5.723   0.566   4.956 -0.3496 -1.1320  0.9416
  726MOL0     H98003   5.775   0.558   4.791  0.7126 -0.2605  0.5992
  726MOL0     H98004   6.000   0.605   4.832 -1.8488  0.7657 -1.6855
  726MOL0     H98005   5.971   0.597   5.016 -1.2496 -1.0510  0.9478
  726MOL0     H98006   5.862   0.798   5.015  1.2318 -1.4018  0.9202
  726MOL0     H98007   5.838   0.804   4.828 -0.2168 -0.1875 -0.1129
  726MOL0     H98008   6.236   0.933   4.910  2.1184 -3.1659  0.8173
  726MOL0     H98009   5.553   0.166   4.781 -0.1569  0.2136 -0.7603
  726MOL0     H98010   5.339   0.128   4.903  1.2926 -1.2104 -1.2919
  727MOL0     O98011   2.461   3.175   6.947 -0.3080 -0.2974  0.6625
  727MOL0     C98012   2.509   3.164   6.836 -0.9852 -0.2602  0.4676
  727MOL0     O98013   2.447   3.118   6.719 -0.5397  0.0710 -0.2706
  727MOL0     C98014   2.325   3.053   6.748  0.9674  0.6070 -0.3051
  727MOL0     C98015   2.304   2.940   6.833 -0.0761  0.1500 -0.2642
  727MOL0     C98016   2.188   2.855   6.821 -0.0200 -1.0322  0.7659
  727MOL0     C98017   2.084   2.904   6.734 -0.0713 -0.3809  0.0609
  727MOL0     O98018   1.979   2.813   6.731  0.1405  0.3250  1.2120
  727MOL0     C98019   1.903   2.832   6.616  0.0015  0.0817 -0.3289
  727MOL0     C98020   1.809   2.710   6.598  0.0951 -0.3883  0.5787
  727MOL0     C98021   1.887   2.575   6.606  0.8587 -0.1192  0.0060
  727MOL0     C98022   1.810   2.452   6.566 -0.3801  0.4495 -0.2670
  727MOL0     C98023   1.889   2.321   6.569 -1.3949  0.6081  0.0876
  727MOL0     C98024   1.972   2.318   6.702 -0.5614  0.1747  0.2301
  727MOL0     C98025   2.012   2.169   6.750 -0.0619  0.1751  0.2628
  727MOL0     C98026   2.100   2.180   6.879  0.4646  0.2913 -0.0802
  727MOL0     N98027   2.243   2.221   6.878 -0.1044 -0.4451 -0.9922
  727MOL0     C98028   2.346   2.130   6.880  0.4115 -0.1032 -1.0886
  727MOL0     C98029   2.458   2.207   6.862  0.2945 -0.0361  1.0971
  727MOL0     C98030   2.602   2.144   6.850 -0.4915  0.4992 -0.2915
  727MOL0     C98031   2.732   2.239   6.830  1.1918 -0.2168 -0.4559
  727MOL0     C98032   2.757   2.318   6.944  0.1766 -0.0733 -0.0922
  727MOL0     C98033   2.878   2.419   6.931  0.5064  0.7484  0.1393
  727MOL0     O98034   2.977   2.376   7.023 -0.0147 -0.2018  0.5585
  727MOL0     C98035   3.100   2.434   7.025  0.3687  0.0213 -0.6773
  727MOL0     C98036   3.192   2.365   7.106 -1.0240 -0.8817 -0.0898
  727MOL0     C98037   3.328   2.406   7.126  0.3736  0.0457  0.7759
  727MOL0     C98038   3.417   2.322   7.214  0.4229 -0.9932  0.3277
  727MOL0     C98039   3.367   2.523   7.048 -0.0853 -0.6382 -1.0792
  727MOL0     C98040   3.496   2.582   7.036 -0.3349 -1.3213 -0.9968
  727MOL0     O98041   3.505   2.702   6.963  0.4588  0.6789  0.0685
  727MOL0     C98042   3.634   2.759   6.952 -0.2259 -0.1737 -0.3777
  727MOL0     C98043   3.729   2.708   6.871  0.0157 -0.0343 -0.2574
  727MOL0     C98044   3.853   2.762   6.862 -1.2912  0.7889  0.1296
  727MOL0     C98045   3.887   2.878   6.934 -0.1991  0.7672 -0.2053
  727MOL0     O98046   4.018   2.930   6.937  0.8823 -0.0396  0.5369
  727MOL0     C98047   4.111   2.897   6.835  0.5712  0.3655  0.8461
  727MOL0     C98048   4.230   2.988   6.872  0.1537 -0.7996 -0.1309
  727MOL0     C98049   4.343   2.966   6.767  0.1870 -0.4507 -1.0838
  727MOL0     C98050   4.463   3.061   6.787  0.2879  0.1554 -1.0583
  727MOL0     C98051   4.566   3.050   6.668  0.3488  1.2927 -0.6910
  727MOL0     C98052   4.569   3.160   6.557 -0.3108  0.1329  0.0848
  727MOL0     C98053   4.427   3.180   6.512 -0.2025 -0.6058  0.4647
  727MOL0     C98054   4.415   3.264   6.380 -0.4866 -0.4671  0.0702
  727MOL0    Cl98055   4.237   3.280   6.343  0.1103  0.0017  0.3284
  727MOL0     C98056   3.784   2.943   7.007  0.8296 -0.2906  0.3068
  727MOL0     C98057   3.653   2.887   7.019  0.3246  0.4839  0.2237
  727MOL0     O98058   3.583   2.532   7.103  0.0609  0.4180 -0.7803
  727MOL0     C98059   3.266   2.599   6.977 -0.1949 -0.0599 -0.3823
  727MOL0     C98060   3.139   2.553   6.958  0.3892  0.1989 -0.4905
  727MOL0     N98061   2.419   2.342   6.854  0.8189  0.1140  0.1347
  727MOL0     N98062   2.290   2.346   6.862 -0.0790  0.4562  0.2808
  727MOL0     C98063   2.096   3.024   6.659  0.5899  0.6922 -0.4304
  727MOL0     C98064   2.216   3.093   6.669  0.1092 -0.6164 -0.3503
  727MOL0     C98065   2.642   3.214   6.816 -1.0949  0.6813 -0.5018
  727MOL0     C98066   2.703   3.298   6.913  0.1652  0.2855  0.4833
  727MOL0     C98067   2.849   3.310   6.916 -0.2733 -0.5592  0.5919
  727MOL0     C98068   2.927   3.266   6.802  0.3517  1.1210 -0.1604
  727MOL0     O98069   3.059   3.288   6.803 -0.1566 -0.1697  0.3622
  727MOL0     C98070   3.133   3.242   6.691 -0.3595 -0.1299  0.2407
  727MOL0     C98071   3.282   3.274   6.717 -1.0038 -0.0214 -0.1396
  727MOL0     C98072   3.328   3.234   6.861  0.4920 -0.0166 -0.4384
  727MOL0     C98073   3.476   3.274   6.873  0.0191  0.0792 -0.4375
  727MOL0     C98074   3.537   3.238   7.001  0.4873 -1.3056 -0.0385
  727MOL0     C98075   3.603   3.203   7.096  0.6756 -0.1305 -0.9744
  727MOL0     C98076   2.855   3.212   6.688 -0.0169  0.7588  0.2362
  727MOL0     C98077   2.719   3.186   6.702 -0.7814 -0.3735 -1.0067
  727MOL0     H98078   2.375   2.898   6.903 -0.0970 -0.7774 -0.7696
  727MOL0     H98079   2.169   2.776   6.893 -0.2092  0.9012  2.9549
  727MOL0     H98080   1.835   2.916   6.631 -1.8237 -0.8871 -2.6102
  727MOL0     H98081   1.973   2.834   6.532  0.3359 -0.7268 -0.0841
  727MOL0     H98082   1.723   2.706   6.665 -0.3993 -1.9224 -0.0964
  727MOL0     H98083   1.769   2.714   6.496 -0.4902  1.7459  0.8327
  727MOL0     H98084   1.974   2.579   6.541  0.9607  3.9308  0.1427
  727MOL0     H98085   1.918   2.563   6.711  4.1784  2.7875 -0.4632
  727MOL0     H98086   1.718   2.444   6.625 -1.8816 -2.3451 -2.6956
  727MOL0     H98087   1.786   2.471   6.461  4.5332  0.2892 -1.6721
  727MOL0     H98088   1.826   2.234   6.548  0.9968 -0.7443 -2.1820
  727MOL0     H98089   1.967   2.326   6.492 -0.7208 -0.3811  0.6726
  727MOL0     H98090   2.062   2.380   6.699  0.5610 -1.3746  0.9420
  727MOL0     H98091   1.904   2.360   6.777 -2.2311  1.1728 -1.7294
  727MOL0     H98092   1.925   2.108   6.774  0.5547 -0.4561  0.9340
  727MOL0     H98093   2.068   2.122   6.669 -2.2181  0.1159 -1.2943
  727MOL0     H98094   2.099   2.079   6.923 -0.9367  0.7085  0.8990
  727MOL0     H98095   2.046   2.243   6.949 -1.1014  0.7325 -1.6127
  727MOL0     H98096   2.334   2.025   6.904 -3.4639  0.4684  0.2826
  727MOL0     H98097   2.614   2.085   6.941 -2.6690 -0.1953 -0.4152
  727MOL0     H98098   2.614   2.073   6.767  3.1089 -1.2558  1.4554
  727MOL0     H98099   2.702   2.310   6.752 -2.1233 -0.6324  0.2637
  727MOL0     H98100   2.823   2.184   6.807  2.0619  0.8524  0.2845
  727MOL0     H98101   2.777   2.243   7.021 -0.9595  1.0414  1.3652
  727MOL0     H98102   2.672   2.380   6.974  1.6616  1.8835  0.3260
  727MOL0     H98103   2.850   2.517   6.968  1.5703  0.5206  1.6565
  727MOL0     H98104   2.918   2.428   6.830 -1.5460 -1.3760 -0.9665
  727MOL0     H98105   3.150   2.280   7.160 -0.2878  1.1004  3.9539
  727MOL0     H98106   3.363   2.251   7.278  0.8671 -1.7962 -0.1629
  727MOL0     H98107   3.476   2.266   7.141 -0.8424 -2.9318  0.7041
  727MOL0     H98108   3.496   2.374   7.269  2.0583  0.4502 -3.0975
  727MOL0     H98109   3.699   2.623   6.810  1.1403  0.7550 -1.9911
  727MOL0     H98110   3.921   2.702   6.802 -0.9107  1.1239  0.2253
  727MOL0     H98111   4.142   2.794   6.852 -0.7523 -0.0373  0.9951
  727MOL0     H98112   4.072   2.915   6.734 -2.2316 -1.4028  1.4816
  727MOL0     H98113   4.205   3.094   6.878 -1.5346 -1.2090  0.6424
  727MOL0     H98114   4.260   2.958   6.972  0.0364 -0.4067  0.0228
  727MOL0     H98115   4.301   2.984   6.667  1.0478  0.6621 -1.2596
  727MOL0     H98116   4.381   2.863   6.769  1.8433  0.1421  0.6582
  727MOL0     H98117   4.429   3.165   6.795  0.5653  0.1728  0.1179
  727MOL0     H98118   4.524   3.043   6.876  1.2409  1.6982 -1.3572
  727MOL0     H98119   4.539   2.954   6.621 -2.2949  0.5547  2.0592
  727MOL0     H98120   4.667   3.038   6.708 -0.1623  2.2081  0.9277
  727MOL0     H98121   4.612   3.246   6.609  0.1361 -0.3906  0.5950
  727MOL0     H98122   4.639   3.134   6.477 -0.4261  1.5028 -0.4897
  727MOL0     H98123   4.360   3.233   6.581  0.7378  1.3214 -0.0521
  727MOL0     H98124   4.383   3.082   6.488 -0.5342 -0.3136 -0.1632
  727MOL0     H98125   4.464   3.203   6.304 -0.7422 -0.4624 -0.1008
  727MOL0     H98126   4.476   3.352   6.400 -1.3605  0.1002  0.2958
  727MOL0     H98127   3.817   3.034   7.055  1.8321  1.1235 -2.8085
  727MOL0     H98128   3.585   2.929   7.092  1.8220 -2.5755  3.6549
  727MOL0     H98129   3.270   2.695   6.926  0.8859 -0.2489 -0.6781
  727MOL0     H98130   3.061   2.611   6.908  0.1697  0.5469  0.2320
  727MOL0     H98131   2.018   3.048   6.588 -0.9398 -2.4290 -0.0187
  727MOL0     H98132   2.219   3.192   6.623 -1.4558  0.3733  1.5312
  727MOL0     H98133   2.655   3.336   7.003  1.7062  0.7606  1.1345
  727MOL0     H98134   2.900   3.357   7.000 -1.9551  0.8681  0.8746
  727MOL0     H98135   3.107   3.136   6.678 -2.5632  0.6551 -3.0317
  727MOL0     H98136   3.096   3.296   6.603 -0.3431  0.9496  0.8796
  727MOL0     H98137   3.298   3.382   6.709  0.6024 -0.1674  0.8632
  727MOL0     H98138   3.343   3.212   6.651  0.9741  0.0890  1.5063
  727MOL0     H98139   3.313   3.128   6.884  0.8844  0.2935  1.4030
  727MOL0     H98140   3.273   3.297   6.930  2.5669  1.0506  0.3174
  727MOL0     H98141   3.484   3.381   6.855 -3.8509  1.0131  2.1219
  727MOL0     H98142   3.532   3.232   6.789  1.3011 -3.4527  1.9446
  727MOL0     H98143   3.643   3.183   7.194 -0.0631  1.3620 -0.3413
  727MOL0     H98144   2.894   3.195   6.588 -0.8898  5.6731 -1.2076
  727MOL0     H98145   2.670   3.142   6.615 -2.6243  1.7747 -1.1395
  728MOL0     O98146   2.615   3.677   8.555  0.2892 -0.4285 -0.5154
  728MOL0     C98147   2.734   3.645   8.573 -0.0747  0.0171 -0.2287
  728MOL0     O98148   2.781   3.519   8.628  0.3799 -0.0619  0.0712
  728MOL0     C98149   2.675   3.432   8.654  0.2305 -0.3831 -0.0026
  728MOL0     C98150   2.614   3.362   8.554  0.5206  0.6286 -0.6888
  728MOL0     C98151   2.504   3.271   8.589  0.4036 -0.2944  1.1411
  728MOL0     C98152   2.476   3.244   8.722 -0.0931 -0.1530 -0.2136
  728MOL0     O98153   2.369   3.158   8.755  0.4487 -0.3755  0.2728
  728MOL0     C98154   2.416   3.035   8.815 -0.3831 -0.6133 -0.2873
  728MOL0     C98155   2.302   2.924   8.806  0.3143  0.3962 -0.0121
  728MOL0     C98156   2.195   2.937   8.916  0.2209  0.6312  0.1020
  728MOL0     C98157   2.085   2.836   8.884  0.8867  0.1904 -0.0940
  728MOL0     C98158   1.944   2.897   8.894 -0.5881  0.1727 -0.0331
  728MOL0     C98159   1.831   2.795   8.898  0.1587  0.5382 -0.2566
  728MOL0     C98160   1.705   2.869   8.852  0.4645 -0.0365  0.1619
  728MOL0     C98161   1.660   2.939   8.980 -0.0664 -0.9339 -0.2911
  728MOL0     N98162   1.517   2.952   8.988 -0.4307 -0.2504  0.4872
  728MOL0     C98163   1.439   3.008   8.896  0.3637  0.1421  0.6775
  728MOL0     C98164   1.310   2.984   8.940  0.1090  0.1759 -0.1070
  728MOL0     C98165   1.181   3.007   8.872  0.2962  0.2117  0.0060
  728MOL0     C98166   1.068   3.023   8.970 -0.7417  0.1941 -0.0601
  728MOL0     C98167   0.931   3.038   8.877 -1.0536  0.1553  0.4867
  728MOL0     C98168   0.815   3.050   8.968  0.3286  0.0782  0.4594
  728MOL0     O98169   0.728   3.155   8.931 -0.0155 -0.5262  0.2754
  728MOL0     C98170   0.600   3.151   8.972 -0.4481  0.0414 -0.0482
  728MOL0     C98171   0.504   3.217   8.892 -0.6991  0.5753  0.1576
  728MOL0     C98172   0.368   3.224   8.929 -1.0856 -0.4075  0.2052
  728MOL0     C98173   0.281   3.300   8.834  0.0273 -0.5895  0.2064
  728MOL0     C98174   0.326   3.176   9.055 -0.5121  0.1026 -0.4758
  728MOL0     C98175   0.181   3.190   9.096  0.0031  0.4226 -0.8748
  728MOL0     O98176   0.153   3.111   9.200 -0.5065  0.8435  0.4883
  728MOL0     C98177   0.030   3.108   9.259  0.3363  0.4688  0.0348
  728MOL0     C98178   0.028   3.096   9.401 -0.0232 -0.9554 -0.0642
  728MOL0     C98179  -0.091   3.079   9.469  0.2413  0.0587 -0.1067
  728MOL0     C98180  -0.222   3.086   9.406 -0.2705 -0.5157 -0.0395
  728MOL0     O98181  -0.337   3.058   9.480  0.0572  0.1246  0.1830
  728MOL0     C98182  -0.439   3.157   9.451 -0.1904 -0.3659 -0.6848
  728MOL0     C98183  -0.543   3.126   9.563  0.0250 -0.2478  0.2563
  728MOL0     C98184  -0.661   3.218   9.545  0.6424  0.2734 -0.5133
  728MOL0     C98185  -0.755   3.186   9.430  0.4802  0.0793  1.1075
  728MOL0     C98186  -0.870   3.281   9.401 -0.2480 -0.5299 -0.0091
  728MOL0     C98187  -0.807   3.416   9.373  0.5549 -0.5411 -1.1677
  728MOL0     C98188  -0.919   3.513   9.334  0.7143  0.1125  0.4303
  728MOL0     C98189  -0.863   3.644   9.319  0.0382  0.2689 -0.3022
  728MOL0    Cl98190  -0.808   3.677   9.162  0.1102  0.0436  0.3845
  728MOL0     C98191  -0.216   3.100   9.268  1.0947  0.1027  0.4556
  728MOL0     C98192  -0.097   3.107   9.196  0.5695 -0.1564  0.6588
  728MOL0     O98193   0.110   3.282   9.051  0.2642 -0.6190  0.7283
  728MOL0     C98194   0.417   3.101   9.131 -0.8910  0.6705 -0.6649
  728MOL0     C98195   0.556   3.096   9.096  0.1233 -0.3010  0.3377
  728MOL0     N98196   1.316   2.916   9.056  0.5659  0.2337  0.4162
  728MOL0     N98197   1.441   2.898   9.083  0.4645  0.0452  0.1981
  728MOL0     C98198   2.547   3.306   8.821 -0.6828 -1.0045  0.0408
  728MOL0     C98199   2.651   3.399   8.788  0.0442  0.2665 -1.4016
  728MOL0     C98200   2.839   3.721   8.504  0.2287  0.7072 -0.6112
  728MOL0     C98201   2.976   3.699   8.523 -1.0128 -0.6779 -0.6988
  728MOL0     C98202   3.081   3.764   8.451  0.4819  0.5896 -0.2331
  728MOL0     C98203   3.037   3.861   8.360 -0.3698 -0.3271  0.4982
  728MOL0     O98204   3.117   3.927   8.266 -0.1667  0.1899  1.0083
  728MOL0     C98205   3.262   3.911   8.253  0.4603  0.5286 -0.3827
  728MOL0     C98206   3.314   3.775   8.191  0.4118  0.6024  0.3410
  728MOL0     C98207   3.461   3.790   8.153 -0.1381 -1.1681 -0.5584
  728MOL0     C98208   3.570   3.793   8.260 -0.2083  0.2701  0.3734
  728MOL0     C98209   3.646   3.665   8.255 -0.3527 -0.2455  0.2151
  728MOL0     C98210   3.710   3.560   8.243 -0.5853 -1.0730  0.3639
  728MOL0     C98211   2.895   3.885   8.337 -0.2432 -0.4913  0.4369
  728MOL0     C98212   2.802   3.821   8.412  0.0370 -0.4579 -0.2331
  728MOL0     H98213   2.645   3.390   8.454  2.6714  0.8069 -0.0147
  728MOL0     H98214   2.441   3.230   8.510  0.4825  1.7526 -0.0502
  728MOL0     H98215   2.510   2.998   8.772  1.6958  1.1921  2.3121
  728MOL0     H98216   2.425   3.055   8.922  0.6103  1.2689 -0.6725
  728MOL0     H98217   2.263   2.941   8.705 -0.0992  0.2934  0.1310
  728MOL0     H98218   2.354   2.827   8.802  0.7081  0.5734  0.6318
  728MOL0     H98219   2.253   2.915   9.007  0.9435  3.1639  0.3460
  728MOL0     H98220   2.156   3.039   8.912 -2.6143 -0.3323  0.8622
  728MOL0     H98221   2.096   2.794   8.783  1.4453 -0.0089  0.0450
  728MOL0     H98222   2.103   2.743   8.939 -1.4325  0.0084  0.4826
  728MOL0     H98223   1.935   2.957   8.984 -0.1980  0.8232 -0.4186
  728MOL0     H98224   1.938   2.959   8.804 -0.6346 -1.6928 -1.3719
  728MOL0     H98225   1.857   2.721   8.821  0.3983  1.7752 -1.3920
  728MOL0     H98226   1.827   2.751   8.998  0.9019 -0.0758 -0.4860
  728MOL0     H98227   1.720   2.930   8.762  1.7815 -1.9022 -0.9504
  728MOL0     H98228   1.626   2.799   8.825 -1.2610  2.4312 -1.6702
  728MOL0     H98229   1.704   3.039   8.993  1.2418 -1.5079 -0.0784
  728MOL0     H98230   1.689   2.875   9.064  2.2630  0.3373 -0.0286
  728MOL0     H98231   1.475   3.040   8.799  3.0511 -1.0629  1.2060
  728MOL0     H98232   1.192   3.102   8.818 -2.8645  0.9927  0.5413
  728MOL0     H98233   1.148   2.925   8.808 -1.0685  0.9672 -0.3107
  728MOL0     H98234   1.080   3.116   9.026 -3.8362  0.2476  0.7431
  728MOL0     H98235   1.061   2.930   9.027  1.0247 -1.9224 -3.0001
  728MOL0     H98236   0.914   2.957   8.806  0.7872 -0.8633  1.1231
  728MOL0     H98237   0.936   3.130   8.816  0.7079  0.2029  0.6388
  728MOL0     H98238   0.838   3.058   9.075 -2.3546 -0.0936  1.1182
  728MOL0     H98239   0.755   2.960   8.956 -2.0478  1.6516 -0.1783
  728MOL0     H98240   0.528   3.260   8.796 -0.9196  1.9058  0.6730
  728MOL0     H98241   0.200   3.239   8.794  0.6420  0.5188 -3.1281
  728MOL0     H98242   0.244   3.394   8.877  1.2222  0.5608 -1.1718
  728MOL0     H98243   0.342   3.316   8.744  3.9021 -3.9976  1.9198
  728MOL0     H98244   0.130   3.081   9.437 -0.2345 -1.1200  0.4669
  728MOL0     H98245  -0.089   3.077   9.578 -0.4200 -0.9105 -0.0983
  728MOL0     H98246  -0.398   3.258   9.457 -1.4037  0.0672  1.6528
  728MOL0     H98247  -0.475   3.142   9.348  0.1556 -0.4226 -0.8001
  728MOL0     H98248  -0.572   3.022   9.545  0.6573 -0.2669 -0.6856
  728MOL0     H98249  -0.499   3.126   9.663  1.0882  0.3508 -0.2003
  728MOL0     H98250  -0.610   3.310   9.515  1.4790 -0.4812 -1.4713
  728MOL0     H98251  -0.715   3.226   9.639  0.2173 -0.0219 -0.7276
  728MOL0     H98252  -0.703   3.163   9.337 -1.5768  0.6942 -0.2436
  728MOL0     H98253  -0.799   3.088   9.451 -0.3087 -0.7148 -3.2987
  728MOL0     H98254  -0.941   3.285   9.485 -2.3347 -1.1629 -1.6504
  728MOL0     H98255  -0.931   3.254   9.314  3.0172  0.7430 -2.9087
  728MOL0     H98256  -0.752   3.446   9.463 -0.6780  1.1513 -0.9346
  728MOL0     H98257  -0.737   3.419   9.289  0.0045 -1.0571 -1.6540
  728MOL0     H98258  -0.993   3.527   9.414  0.8725  2.1628  0.2699
  728MOL0     H98259  -0.966   3.473   9.243 -1.2538  1.1742  0.9208
  728MOL0     H98260  -0.787   3.670   9.394  0.5268  2.3742 -1.4310
  728MOL0     H98261  -0.949   3.710   9.335  0.9185  2.1578 -2.6462
  728MOL0     H98262  -0.305   3.100   9.205 -1.6423  0.4318  4.0474
  728MOL0     H98263  -0.081   3.122   9.090  0.4885  1.4763  0.8384
  728MOL0     H98264   0.380   3.029   9.204 -2.6599  0.3742 -1.7801
  728MOL0     H98265   0.620   3.059   9.175  0.5331  1.0473  0.6613
  728MOL0     H98266   2.535   3.301   8.929  2.4271  0.9215  0.6129
  728MOL0     H98267   2.702   3.444   8.873  0.9873 -2.1785 -0.5623
  728MOL0     H98268   3.014   3.628   8.596 -1.2422  0.6542  0.7561
  728MOL0     H98269   3.187   3.746   8.471  0.6430  0.4406 -1.1645
  728MOL0     H98270   3.305   3.994   8.197  3.7015 -1.1769 -0.6206
  728MOL0     H98271   3.306   3.921   8.353  0.4339  0.2542 -0.3411
  728MOL0     H98272   3.259   3.745   8.101 -1.1407 -0.6482  1.6467
  728MOL0     H98273   3.309   3.693   8.263  3.3846 -1.2739 -1.3841
  728MOL0     H98274   3.455   3.889   8.106  0.8179 -2.0217 -2.5744
  728MOL0     H98275   3.490   3.723   8.072  3.8904 -3.7642  2.6151
  728MOL0     H98276   3.537   3.811   8.363  0.7859  1.8929  0.4492
  728MOL0     H98277   3.633   3.876   8.225 -0.3137 -0.7539 -2.5112
  728MOL0     H98278   3.759   3.466   8.227  1.1718 -0.0877 -0.3094
  728MOL0     H98279   2.864   3.966   8.271  3.0444  0.3534 -0.2996
  728MOL0     H98280   2.697   3.841   8.395  0.4233  0.5784 -1.5365
  729MOL0     O98281   7.686  10.618  10.930  1.2712  0.3028  0.3830
  729MOL0     C98282   7.637  10.717  10.982  0.4866  0.5865  1.1897
  729MOL0     O98283   7.516  10.775  10.944 -0.3337  0.0433 -0.1249
  729MOL0     C98284   7.466  10.735  10.823 -0.8990 -0.0585  1.3863
  729MOL0     C98285   7.513  10.814  10.717  0.2225  0.0047 -0.6389
  729MOL0     C98286   7.463  10.781  10.588  0.2058  0.7071 -0.7891
  729MOL0     C98287   7.374  10.669  10.562 -0.4952  0.5111  0.0709
  729MOL0     O98288   7.322  10.641  10.439  0.1616 -0.3681 -1.0023
  729MOL0     C98289   7.185  10.618  10.438  0.0144 -0.8877 -0.3619
  729MOL0     C98290   7.115  10.754  10.467  0.5431 -0.2302 -0.1767
  729MOL0     C98291   6.969  10.738  10.420 -0.5823 -0.0981  0.1943
  729MOL0     C98292   6.896  10.859  10.470  0.0646  0.0935  0.7145
  729MOL0     C98293   6.780  10.906  10.371 -0.8120  0.3408  0.6488
  729MOL0     C98294   6.645  10.825  10.382 -1.0441 -0.1482  0.5795
  729MOL0     C98295   6.535  10.872  10.287  0.5013 -0.3888  0.0576
  729MOL0     C98296   6.407  10.820  10.351  0.5706  0.2195 -0.3885
  729MOL0     N98297   6.295  10.832  10.254 -0.1999 -0.3957  0.0303
  729MOL0     C98298   6.185  10.909  10.263 -0.6298  0.2932  0.1221
  729MOL0     C98299   6.094  10.863  10.174 -0.0875 -0.0824 -0.5495
  729MOL0     C98300   5.946  10.883  10.153 -1.1299  0.9744  0.8201
  729MOL0     C98301   5.915  11.007  10.068  0.7819 -0.4803  0.4022
  729MOL0     C98302   5.767  11.030  10.006 -0.1853  0.6017  0.7516
  729MOL0     C98303   5.651  10.977  10.090 -0.7553  0.6002 -0.3241
  729MOL0     O98304   5.658  11.033  10.223  0.0751 -0.0741  0.0513
  729MOL0     C98305   5.543  11.023  10.306  0.5324 -0.2961  1.2248
  729MOL0     C98306   5.526  11.123  10.403  0.4900 -0.0787 -0.6371
  729MOL0     C98307   5.412  11.128  10.476  0.1735  0.9905  0.5133
  729MOL0     C98308   5.399  11.235  10.578 -0.5811 -0.6727 -0.1160
  729MOL0     C98309   5.328  11.003  10.484 -0.1909 -0.5147 -0.2846
  729MOL0     C98310   5.214  10.978  10.577 -0.7656  0.0823 -0.5056
  729MOL0     O98311   5.174  10.850  10.583  0.2886 -0.7183  0.2413
  729MOL0     C98312   5.062  10.838  10.663 -0.0135 -0.1151 -0.2148
  729MOL0     C98313   5.074  10.793  10.800  0.2916  0.1469  1.0741
  729MOL0     C98314   4.958  10.784  10.871 -0.5379 -0.5209  0.4224
  729MOL0     C98315   4.831  10.821  10.820  0.4797  0.3687 -0.1809
  729MOL0     O98316   4.725  10.840  10.899 -0.0347  0.6329 -0.4533
  729MOL0     C98317   4.695  10.726  10.985 -0.2237  0.4708  0.2339
  729MOL0     C98318   4.573  10.749  11.078 -0.0187  0.0505 -0.7021
  729MOL0     C98319   4.574  10.651  11.195 -0.6128 -0.0639 -0.0873
  729MOL0     C98320   4.445  10.664  11.280  0.2420  0.3370 -0.7232
  729MOL0     C98321   4.462  10.592  11.417  0.4340  0.2616  0.5080
  729MOL0     C98322   4.331  10.600  11.509 -0.0753 -0.0648  0.7163
  729MOL0     C98323   4.298  10.745  11.560 -0.8517  0.1773  0.5873
  729MOL0     C98324   4.203  10.739  11.683  0.2145  0.5844 -0.3846
  729MOL0    Cl98325   4.051  10.647  11.655  0.3246  0.4231 -0.1931
  729MOL0     C98326   4.816  10.844  10.681  0.0600  0.0200 -0.4754
  729MOL0     C98327   4.932  10.853  10.608  0.9820  0.3838  0.6401
  729MOL0     O98328   5.166  11.073  10.638 -0.2852 -0.4908 -0.1919
  729MOL0     C98329   5.340  10.901  10.380 -0.0927 -0.1619 -0.3401
  729MOL0     C98330   5.451  10.916  10.297  0.3841 -1.0013  0.7949
  729MOL0     N98331   6.170  10.763  10.108 -0.5146 -0.2671  0.1428
  729MOL0     N98332   6.287  10.750  10.148  0.7432 -0.9590 -0.0502
  729MOL0     C98333   7.350  10.585  10.669  0.9586 -0.7350  0.1070
  729MOL0     C98334   7.399  10.612  10.799  0.0925 -0.1136 -0.8500
  729MOL0     C98335   7.710  10.783  11.097 -0.0434 -0.0991 -0.1934
  729MOL0     C98336   7.724  10.923  11.104 -0.2136  0.1475  0.4435
  729MOL0     C98337   7.806  10.988  11.201  0.4123 -0.3850 -0.6562
  729MOL0     C98338   7.868  10.913  11.306  0.3615 -0.0386 -0.1655
  729MOL0     O98339   7.949  10.973  11.399  0.7004 -0.7159  0.1660
  729MOL0     C98340   8.053  11.064  11.362 -0.3906  0.7949 -0.1142
  729MOL0     C98341   8.159  10.982  11.280 -0.3227  0.0139 -0.3097
  729MOL0     C98342   8.281  11.064  11.246  0.4730  0.6505  0.0331
  729MOL0     C98343   8.366  10.990  11.140  0.1122 -0.7175  0.1078
  729MOL0     C98344   8.494  11.063  11.131 -0.1266  0.2891  0.9035
  729MOL0     C98345   8.605  11.119  11.125  0.4282  0.2150  1.0574
  729MOL0     C98346   7.855  10.780  11.300  0.6643 -0.4138  0.2736
  729MOL0     C98347   7.782  10.718  11.198  0.8469  0.1939 -0.9781
  729MOL0     H98348   7.571  10.905  10.718 -1.6836  1.2692 -0.2933
  729MOL0     H98349   7.499  10.842  10.506  2.1224  0.2085 -0.3719
  729MOL0     H98350   7.160  10.595  10.334 -0.5735  1.4769 -0.8101
  729MOL0     H98351   7.151  10.536  10.502 -2.0630 -1.0636 -1.6039
  729MOL0     H98352   7.116  10.776  10.574 -2.1463 -0.0822 -0.1281
  729MOL0     H98353   7.168  10.839  10.423  0.5966 -0.3444 -0.3344
  729MOL0     H98354   6.951  10.728  10.313 -2.6225 -0.9463  0.5688
  729MOL0     H98355   6.927  10.649  10.467  1.3653 -0.6310  1.0295
  729MOL0     H98356   6.863  10.836  10.571  2.2622  2.2484  2.0130
  729MOL0     H98357   6.955  10.951  10.479  2.5103 -1.1243 -1.5237
  729MOL0     H98358   6.764  11.014  10.379 -1.1084  0.8497 -4.0462
  729MOL0     H98359   6.814  10.898  10.267  0.2702 -0.5682  1.0486
  729MOL0     H98360   6.663  10.720  10.358  2.1114  0.3086  0.5077
  729MOL0     H98361   6.601  10.848  10.479  0.9568  0.1602  1.4480
  729MOL0     H98362   6.520  10.979  10.271 -1.0560 -0.6202 -0.2114
  729MOL0     H98363   6.552  10.829  10.188  2.1995 -0.9526  0.5644
  729MOL0     H98364   6.380  10.871  10.444 -1.1378 -2.1035  0.4757
  729MOL0     H98365   6.437  10.715  10.364 -0.0585 -0.3687 -3.1240
  729MOL0     H98366   6.157  10.977  10.342 -3.1339 -0.7184  0.2023
  729MOL0     H98367   5.898  10.791  10.122  0.8643 -0.1499  0.8715
  729MOL0     H98368   5.884  10.908  10.239 -2.1622  2.2413 -0.2389
  729MOL0     H98369   5.987  11.007   9.986  2.9061  0.4366  2.1579
  729MOL0     H98370   5.940  11.092  10.132  1.7504  1.1327 -1.9923
  729MOL0     H98371   5.771  10.967   9.916 -1.8957 -0.7036  1.5191
  729MOL0     H98372   5.752  11.130   9.964  0.4890 -0.8890 -3.4928
  729MOL0     H98373   5.676  10.872  10.109  1.9789  1.3515  0.8421
  729MOL0     H98374   5.556  10.994  10.039 -1.1416 -0.1942  0.1049
  729MOL0     H98375   5.586  11.213  10.415  0.3282  0.0635 -0.8789
  729MOL0     H98376   5.411  11.200  10.681 -1.1320  2.2973  1.0633
  729MOL0     H98377   5.488  11.297  10.566 -1.4717  1.1922  2.1138
  729MOL0     H98378   5.314  11.302  10.562  0.8776  1.0912 -0.8581
  729MOL0     H98379   5.165  10.764  10.850  0.4307 -0.1746  0.6377
  729MOL0     H98380   4.967  10.749  10.974  1.6086 -1.2315  0.0453
  729MOL0     H98381   4.677  10.630  10.937  0.0292 -0.4689  1.9381
  729MOL0     H98382   4.780  10.717  11.054 -0.3122  2.4110  0.6658
  729MOL0     H98383   4.577  10.851  11.120  2.1907 -1.2978  2.8538
  729MOL0     H98384   4.481  10.733  11.022 -2.4521  0.5471  2.8024
  729MOL0     H98385   4.650  10.679  11.268 -0.8954  0.6829 -0.0684
  729MOL0     H98386   4.584  10.549  11.156  1.2677 -0.1521  0.5343
  729MOL0     H98387   4.423  10.771  11.288  2.7439  0.7486  2.4540
  729MOL0     H98388   4.359  10.629  11.222 -1.1954 -2.5105  2.7405
  729MOL0     H98389   4.539  10.643  11.475  0.5910 -1.6138  2.0258
  729MOL0     H98390   4.490  10.489  11.395 -0.5480 -0.2801  1.6598
  729MOL0     H98391   4.252  10.549  11.453  0.3226  2.4405 -2.4657
  729MOL0     H98392   4.362  10.533  11.590 -1.1508 -3.3366 -1.3963
  729MOL0     H98393   4.254  10.802  11.478 -1.2971  0.1035  0.7680
  729MOL0     H98394   4.388  10.800  11.588 -1.2023  0.0710  2.0140
  729MOL0     H98395   4.182  10.839  11.722 -2.8310  0.0220 -0.3847
  729MOL0     H98396   4.246  10.686  11.769  2.2496  2.6777  0.0119
  729MOL0     H98397   4.718  10.863  10.638 -1.0136 -1.6251  1.1094
  729MOL0     H98398   4.931  10.892  10.507 -2.0757  2.0243  1.1798
  729MOL0     H98399   5.282  10.810  10.372  0.6077 -0.7892  1.3176
  729MOL0     H98400   5.477  10.843  10.222 -2.3651 -2.6773  1.3363
  729MOL0     H98401   7.304  10.490  10.648 -2.2706  0.1671  2.2871
  729MOL0     H98402   7.380  10.550  10.887  1.2330  0.3756 -0.2453
  729MOL0     H98403   7.683  10.984  11.025  3.3166 -3.2413 -4.5783
  729MOL0     H98404   7.816  11.097  11.197  0.9816 -0.3810  0.4548
  729MOL0     H98405   8.024  11.152  11.305 -0.4329  0.6006 -0.3920
  729MOL0     H98406   8.105  11.100  11.452 -0.4513  0.7129 -0.0458
  729MOL0     H98407   8.105  10.956  11.189 -0.8612 -0.4070  0.1227
  729MOL0     H98408   8.189  10.896  11.341 -1.7466 -0.5135 -0.2975
  729MOL0     H98409   8.337  11.092  11.335 -1.3040 -0.2242  1.4869
  729MOL0     H98410   8.241  11.156  11.203 -0.5319  0.1485 -0.1353
  729MOL0     H98411   8.326  10.986  11.039  1.1812  2.1171 -0.5078
  729MOL0     H98412   8.384  10.887  11.173  0.5470 -0.8258 -0.4521
  729MOL0     H98413   8.708  11.147  11.125  0.2813  0.8054  2.2589
  729MOL0     H98414   7.892  10.724  11.385 -3.8490 -1.7576  1.6087
  729MOL0     H98415   7.785  10.609  11.204 -0.7719  0.2260  2.8197
  730MOL0     O98416   0.301   5.616   0.400 -0.7712  0.1237 -0.3394
  730MOL0     C98417   0.217   5.710   0.397  0.1589  0.8135  0.3212
  730MOL0     O98418   0.237   5.838   0.423  0.0958 -0.5563  0.1622
  730MOL0     C98419   0.369   5.877   0.455 -0.5001 -0.6797 -0.3373
  730MOL0     C98420   0.476   5.881   0.363  0.0291 -0.9175 -0.7919
  730MOL0     C98421   0.593   5.946   0.400 -0.6676  0.4379 -0.1038
  730MOL0     C98422   0.609   6.004   0.530 -0.1781 -0.7006 -0.2711
  730MOL0     O98423   0.720   6.066   0.565 -0.0102 -0.7216  0.0016
  730MOL0     C98424   0.776   6.038   0.694  0.6529  0.1476  0.4767
  730MOL0     C98425   0.927   6.045   0.686 -0.0944 -0.3629 -0.0785
  730MOL0     C98426   0.986   6.036   0.827  0.9125  0.3169 -0.0970
  730MOL0     C98427   1.138   6.052   0.834 -0.1995 -0.0663  0.0331
  730MOL0     C98428   1.168   6.081   0.983  0.2033 -0.2389  0.6768
  730MOL0     C98429   1.312   6.080   1.026  0.5860 -0.1542 -0.6072
  730MOL0     C98430   1.407   5.966   0.978  0.3682  0.6149  0.3394
  730MOL0     C98431   1.358   5.814   1.004 -0.0140 -0.7951 -1.3029
  730MOL0     N98432   1.340   5.774   1.141  0.3701 -0.1913 -0.3871
  730MOL0     C98433   1.220   5.718   1.182  0.7590 -0.4052  0.0662
  730MOL0     C98434   1.249   5.695   1.314 -0.7161  0.1299  0.0210
  730MOL0     C98435   1.166   5.612   1.414  0.5886  0.3711  0.9773
  730MOL0     C98436   1.018   5.611   1.377 -0.5574  0.0400  0.0851
  730MOL0     C98437   0.929   5.555   1.490  0.0591 -1.1934  0.0279
  730MOL0     C98438   0.792   5.617   1.467  0.2116  0.6882 -0.8691
  730MOL0     O98439   0.711   5.563   1.572 -0.0704 -0.1617 -0.3546
  730MOL0     C98440   0.576   5.553   1.553  0.5907  0.2343  0.7523
  730MOL0     C98441   0.506   5.642   1.467  0.0032 -0.3230  0.7975
  730MOL0     C98442   0.376   5.640   1.450  0.2361 -0.1189  0.2690
  730MOL0     C98443   0.305   5.740   1.365 -0.1510  0.6846  0.1536
  730MOL0     C98444   0.299   5.537   1.516  0.3322  0.0329 -0.3173
  730MOL0     C98445   0.153   5.533   1.538  0.2599  0.5352  0.2478
  730MOL0     O98446   0.084   5.632   1.485  0.5163  0.7472  0.5371
  730MOL0     C98447  -0.054   5.625   1.475  0.3839  0.2074 -0.2005
  730MOL0     C98448  -0.103   5.577   1.352  0.4412 -0.2914  0.4817
  730MOL0     C98449  -0.241   5.566   1.342  0.3081 -0.3308  0.0419
  730MOL0     C98450  -0.326   5.607   1.442  0.4614  0.2483 -0.8190
  730MOL0     O98451  -0.463   5.574   1.420 -0.0608  0.1289  0.3067
  730MOL0     C98452  -0.563   5.630   1.508 -0.2303  0.3508 -0.5132
  730MOL0     C98453  -0.709   5.587   1.478  0.1354  0.8423  0.6600
  730MOL0     C98454  -0.744   5.440   1.511  0.5881  0.9844  0.0244
  730MOL0     C98455  -0.873   5.389   1.437  0.2101  0.4109  0.6464
  730MOL0     C98456  -0.907   5.244   1.460 -0.6495  0.5421 -0.0382
  730MOL0     C98457  -0.936   5.211   1.607  0.2473  0.6499  0.3782
  730MOL0     C98458  -0.998   5.069   1.601 -0.0039  0.5547 -0.2259
  730MOL0     C98459  -1.014   4.981   1.732 -0.3210  0.5002  0.2500
  730MOL0    Cl98460  -1.139   5.060   1.846  0.0076  0.2592  0.1156
  730MOL0     C98461  -0.276   5.658   1.558 -0.3581 -0.8913 -0.7792
  730MOL0     C98462  -0.137   5.676   1.573 -0.6638 -0.3203 -0.5736
  730MOL0     O98463   0.104   5.446   1.615 -0.4435  0.1470 -0.3837
  730MOL0     C98464   0.372   5.438   1.586  0.3350  0.0054  0.5089
  730MOL0     C98465   0.508   5.446   1.607  0.2249 -0.2779 -0.5593
  730MOL0     N98466   1.378   5.734   1.346  0.1785 -0.5899  0.1763
  730MOL0     N98467   1.433   5.785   1.238  0.1220 -0.7673  0.1928
  730MOL0     C98468   0.504   5.989   0.625 -0.5680  0.9726 -0.1718
  730MOL0     C98469   0.384   5.926   0.589 -0.3740  0.8260 -0.4506
  730MOL0     C98470   0.078   5.671   0.360 -0.3895  0.0321 -0.0632
  730MOL0     C98471   0.062   5.541   0.296  0.7489 -0.4159  0.7714
  730MOL0     C98472  -0.071   5.499   0.278 -0.3217 -0.4362  0.9001
  730MOL0     C98473  -0.182   5.586   0.305 -0.6033  0.2738 -0.5615
  730MOL0     O98474  -0.305   5.533   0.284  0.2756 -0.3159 -0.6853
  730MOL0     C98475  -0.409   5.599   0.362  0.9159 -0.3254  0.0176
  730MOL0     C98476  -0.546   5.530   0.340 -0.0995  1.2808 -0.3700
  730MOL0     C98477  -0.555   5.385   0.375 -0.4749 -0.3349  0.4022
  730MOL0     C98478  -0.560   5.339   0.520  0.3516 -0.0611  0.9032
  730MOL0     C98479  -0.693   5.336   0.574 -0.4921  0.0443  0.5569
  730MOL0     C98480  -0.804   5.327   0.629  0.1279 -0.2079  0.2792
  730MOL0     C98481  -0.152   5.712   0.366 -0.8197  0.6466 -0.1087
  730MOL0     C98482  -0.029   5.756   0.389  0.8319 -0.7555  0.4242
  730MOL0     H98483   0.465   5.840   0.263 -1.7164 -4.9386  0.8052
  730MOL0     H98484   0.675   5.950   0.329 -2.4770 -0.4038 -2.3658
  730MOL0     H98485   0.738   6.113   0.763  2.9435  1.8593 -0.0156
  730MOL0     H98486   0.746   5.937   0.724 -0.4552 -0.1671 -1.4670
  730MOL0     H98487   0.954   5.966   0.615 -0.3231 -2.0778  1.6560
  730MOL0     H98488   0.965   6.140   0.648 -0.3679 -0.0251  0.4873
  730MOL0     H98489   0.930   6.107   0.888 -1.3253 -0.2756 -1.3268
  730MOL0     H98490   0.963   5.933   0.856  3.4770 -0.1950  0.3184
  730MOL0     H98491   1.185   5.960   0.800  0.6914  0.3357  0.1342
  730MOL0     H98492   1.174   6.128   0.763  0.2687 -1.2277 -1.0158
  730MOL0     H98493   1.139   6.184   1.007 -2.9991 -1.6183  3.5127
  730MOL0     H98494   1.105   6.019   1.048  0.1680  0.5285  1.3867
  730MOL0     H98495   1.362   6.165   0.978  0.2024 -0.7747 -2.1585
  730MOL0     H98496   1.326   6.100   1.133 -1.5023  2.5139 -0.7131
  730MOL0     H98497   1.422   5.977   0.871  0.8401 -1.3976  0.1699
  730MOL0     H98498   1.501   5.973   1.033 -0.5754 -1.9138  2.5382
  730MOL0     H98499   1.438   5.748   0.969  1.2487  0.5683 -1.1326
  730MOL0     H98500   1.272   5.792   0.941  0.2558 -2.6302 -1.0871
  730MOL0     H98501   1.131   5.686   1.129 -0.4373 -3.7300  3.5913
  730MOL0     H98502   1.203   5.509   1.417 -1.7140 -0.4918  3.1414
  730MOL0     H98503   1.175   5.659   1.512  0.5883  0.4934  0.9186
  730MOL0     H98504   1.007   5.553   1.286 -3.4667  1.2414 -0.4382
  730MOL0     H98505   0.991   5.713   1.347 -1.2487 -0.8852 -2.6854
  730MOL0     H98506   0.967   5.575   1.590  1.5140  0.3364 -0.7688
  730MOL0     H98507   0.928   5.446   1.488 -1.8530 -1.2124  0.0890
  730MOL0     H98508   0.746   5.576   1.376 -0.6808 -1.5033  0.4967
  730MOL0     H98509   0.788   5.726   1.476 -5.2114  0.5760  3.5543
  730MOL0     H98510   0.555   5.729   1.424 -5.3166  1.4326 -2.7491
  730MOL0     H98511   0.218   5.687   1.323  1.3922 -1.5760 -0.3699
  730MOL0     H98512   0.259   5.826   1.414  1.0829  2.1358 -1.1311
  730MOL0     H98513   0.376   5.767   1.287  0.2365 -2.3008 -0.6752
  730MOL0     H98514  -0.046   5.529   1.274  2.9769 -0.7916  2.4961
  730MOL0     H98515  -0.294   5.524   1.257 -0.1879 -1.8427  1.0627
  730MOL0     H98516  -0.536   5.584   1.604  1.7672  0.2883 -1.0568
  730MOL0     H98517  -0.552   5.739   1.514 -3.6208  0.9059 -1.9434
  730MOL0     H98518  -0.784   5.645   1.533  0.0142  0.2660  1.1176
  730MOL0     H98519  -0.727   5.612   1.373 -0.0646  1.1608  0.7673
  730MOL0     H98520  -0.748   5.420   1.618 -1.4611  1.4776  0.0861
  730MOL0     H98521  -0.670   5.380   1.458 -0.7860 -0.5426 -0.2718
  730MOL0     H98522  -0.956   5.453   1.471  1.0032  0.8780  1.7589
  730MOL0     H98523  -0.855   5.390   1.329 -2.7789  1.6556  0.0434
  730MOL0     H98524  -0.819   5.184   1.435 -0.7477 -0.0756  1.0386
  730MOL0     H98525  -0.990   5.217   1.394 -1.3954  1.2476  0.5897
  730MOL0     H98526  -0.848   5.200   1.672 -0.8714 -4.0729  1.5119
  730MOL0     H98527  -1.001   5.292   1.641 -0.1712 -0.1780  1.6216
  730MOL0     H98528  -0.941   5.014   1.526  1.8953  0.1715  1.4078
  730MOL0     H98529  -1.100   5.081   1.562 -0.4175  1.8772  1.1781
  730MOL0     H98530  -0.921   4.962   1.786 -0.4787 -1.6951 -0.1545
  730MOL0     H98531  -1.053   4.889   1.688 -0.3376 -0.1345  1.5554
  730MOL0     H98532  -0.341   5.696   1.636 -3.4554 -3.3110 -1.9988
  730MOL0     H98533  -0.093   5.729   1.657  1.2428 -0.3680 -1.4913
  730MOL0     H98534   0.324   5.358   1.642 -2.2778  1.4226  0.4600
  730MOL0     H98535   0.558   5.368   1.663  2.4834  0.5638 -1.3069
  730MOL0     H98536   0.508   6.035   0.723 -3.2844  2.4089 -0.6300
  730MOL0     H98537   0.303   5.919   0.660 -0.8998  3.7301 -0.6583
  730MOL0     H98538   0.132   5.462   0.272 -1.6462 -2.2774 -0.5149
  730MOL0     H98539  -0.101   5.402   0.240 -0.2128 -0.4424  0.8315
  730MOL0     H98540  -0.391   5.599   0.470 -4.3305  1.4352  1.2001
  730MOL0     H98541  -0.426   5.702   0.328  0.7471 -1.0876 -2.3842
  730MOL0     H98542  -0.565   5.533   0.232  1.0899  0.6078 -0.6043
  730MOL0     H98543  -0.621   5.582   0.401  0.6680  1.4470  0.4563
  730MOL0     H98544  -0.470   5.340   0.323  1.4857  0.4302  2.7632
  730MOL0     H98545  -0.645   5.336   0.337 -0.4912 -2.2960  2.7468
  730MOL0     H98546  -0.505   5.412   0.580  1.1694 -0.1269  0.2657
  730MOL0     H98547  -0.522   5.237   0.517 -0.7020 -0.4416  0.1889
  730MOL0     H98548  -0.904   5.302   0.659 -0.3742 -0.9565 -1.8374
  730MOL0     H98549  -0.223   5.783   0.407 -1.1388 -0.8030  2.0403
  730MOL0     H98550  -0.023   5.849   0.445 -2.2705 -0.3302  0.2711
  731MOL0     O98551  10.035   0.534   1.140  0.3173 -0.4195 -0.3181
  731MOL0     C98552   9.954   0.578   1.219  0.7183  0.2704  0.3854
  731MOL0     O98553   9.942   0.710   1.255  0.6990 -0.2245  0.6793
  731MOL0     C98554  10.035   0.809   1.234  0.9837 -0.3401 -0.8855
  731MOL0     C98555   9.999   0.948   1.226 -0.4588 -0.2064 -0.5521
  731MOL0     C98556  10.098   1.048   1.193  0.1938 -0.9414 -0.6568
  731MOL0     C98557  10.230   1.021   1.152  0.0661 -0.0476 -0.5385
  731MOL0     O98558  10.305   1.130   1.111 -0.0508  0.1982  0.5118
  731MOL0     C98559  10.441   1.106   1.092  0.5892  0.3542  0.6340
  731MOL0     C98560  10.511   1.231   1.026  0.1313  0.7158  0.1304
  731MOL0     C98561  10.499   1.373   1.091 -0.3343  0.5071  0.3821
  731MOL0     C98562  10.553   1.390   1.223  0.0591  0.0209 -0.2959
  731MOL0     C98563  10.553   1.533   1.282  0.1381  0.0327  0.0921
  731MOL0     C98564  10.412   1.598   1.280  0.7764  0.8514  0.0868
  731MOL0     C98565  10.307   1.506   1.350 -0.1267  0.1236  0.1799
  731MOL0     C98566  10.168   1.571   1.330 -0.1668 -0.6513 -0.7536
  731MOL0     N98567  10.066   1.481   1.391 -0.9400  0.2673  0.1338
  731MOL0     C98568  10.023   1.480   1.521 -0.7651 -0.8565  0.6118
  731MOL0     C98569   9.943   1.370   1.539 -0.7927  0.1502  0.0002
  731MOL0     C98570   9.881   1.334   1.675 -0.4722  0.8250 -0.6302
  731MOL0     C98571   9.747   1.398   1.672  0.2040  1.2129  0.2926
  731MOL0     C98572   9.647   1.348   1.775 -0.3179 -0.5627 -0.4078
  731MOL0     C98573   9.538   1.447   1.769 -1.0845 -0.4794 -0.2673
  731MOL0     O98574   9.428   1.384   1.833  0.5818 -0.4362 -0.3189
  731MOL0     C98575   9.332   1.458   1.892 -0.7410 -0.4401  0.2133
  731MOL0     C98576   9.309   1.595   1.871 -0.4829  0.6946 -0.6052
  731MOL0     C98577   9.213   1.667   1.953  0.0871  0.0114  0.7410
  731MOL0     C98578   9.216   1.822   1.921 -0.4686  0.3807 -0.8520
  731MOL0     C98579   9.134   1.604   2.046  0.5775  0.0245  0.0708
  731MOL0     C98580   9.049   1.670   2.138  1.0799 -0.6516  0.1196
  731MOL0     O98581   8.971   1.581   2.217 -0.8819  0.5580 -0.0541
  731MOL0     C98582   8.868   1.614   2.305 -1.5489 -0.1892  0.2379
  731MOL0     C98583   8.782   1.723   2.293 -0.5950  0.1264 -0.6474
  731MOL0     C98584   8.687   1.744   2.398  0.3000 -0.5940  0.0076
  731MOL0     C98585   8.681   1.656   2.509  0.1605 -0.2727  0.6779
  731MOL0     O98586   8.575   1.672   2.591 -0.2085 -0.7174 -0.0034
  731MOL0     C98587   8.557   1.580   2.707  0.1877  0.2639  0.1402
  731MOL0     C98588   8.415   1.579   2.761  0.2526 -0.2075 -0.3131
  731MOL0     C98589   8.386   1.443   2.836 -0.4840  0.2017 -0.5194
  731MOL0     C98590   8.244   1.445   2.885 -0.4785 -0.2719 -0.0256
  731MOL0     C98591   8.208   1.335   2.992  0.5979 -0.2648 -0.0852
  731MOL0     C98592   8.058   1.336   3.007  0.4776  0.0364  0.0564
  731MOL0     C98593   8.010   1.200   3.060 -0.4024  0.2819  0.7525
  731MOL0     C98594   7.862   1.199   3.093 -0.0403  0.1918  0.7545
  731MOL0    Cl98595   7.805   1.031   3.125  0.0867 -0.2774 -0.6053
  731MOL0     C98596   8.785   1.566   2.529  0.5641  0.2061  1.0756
  731MOL0     C98597   8.875   1.545   2.420  0.0857 -0.9850  0.0687
  731MOL0     O98598   9.033   1.790   2.145 -1.4431 -0.6381  0.1463
  731MOL0     C98599   9.154   1.467   2.060  1.1922  0.9124  0.4259
  731MOL0     C98600   9.253   1.395   1.985 -0.5019 -1.0163  0.3350
  731MOL0     N98601   9.940   1.308   1.413 -0.3238  0.5526  0.0816
  731MOL0     N98602  10.004   1.379   1.325  0.5564  0.4202  0.4618
  731MOL0     C98603  10.269   0.884   1.168  0.9721  0.1227 -0.7873
  731MOL0     C98604  10.172   0.792   1.226 -0.4319  0.5690  0.4146
  731MOL0     C98605   9.837   0.486   1.237 -0.1015  0.0738 -0.5402
  731MOL0     C98606   9.805   0.369   1.162 -0.4447  0.5144 -0.1164
  731MOL0     C98607   9.700   0.280   1.199 -0.6966 -0.6479 -0.2322
  731MOL0     C98608   9.619   0.305   1.312  0.0613  0.3960  0.2735
  731MOL0     O98609   9.511   0.221   1.345 -0.8366  0.0856 -0.4179
  731MOL0     C98610   9.455   0.212   1.479  1.3706  0.3921  0.0502
  731MOL0     C98611   9.345   0.099   1.503  0.1752  0.2323  0.6721
  731MOL0     C98612   9.290   0.097   1.639 -0.3585  0.2923 -0.8827
  731MOL0     C98613   9.177   0.180   1.688  0.2847 -0.3305 -0.3918
  731MOL0     C98614   9.224   0.320   1.722  0.2146 -0.1595  1.0301
  731MOL0     C98615   9.288   0.417   1.767  0.7314  0.4441 -0.0755
  731MOL0     C98616   9.645   0.422   1.381 -0.5441  0.7249  0.1871
  731MOL0     C98617   9.747   0.510   1.345  0.7051 -0.4913 -0.3666
  731MOL0     H98618   9.899   0.979   1.254 -0.1714 -0.0142  0.2987
  731MOL0     H98619  10.064   1.151   1.191  0.1472 -0.9162  0.6495
  731MOL0     H98620  10.490   1.085   1.187  2.1078 -1.4250 -0.4590
  731MOL0     H98621  10.451   1.022   1.022  2.7693 -1.3370  2.8249
  731MOL0     H98622  10.617   1.204   1.021 -0.3205 -1.2412  0.2801
  731MOL0     H98623  10.483   1.235   0.920 -5.0896  0.9119  1.2562
  731MOL0     H98624  10.548   1.434   1.015  1.1492 -2.8188 -1.5554
  731MOL0     H98625  10.395   1.405   1.082 -0.2769  0.7880  0.7192
  731MOL0     H98626  10.528   1.308   1.291  2.9193 -0.8433 -0.1178
  731MOL0     H98627  10.661   1.380   1.204  0.2656  1.1306  0.2075
  731MOL0     H98628  10.598   1.533   1.382  0.4148 -1.7285  0.0061
  731MOL0     H98629  10.608   1.605   1.222  0.3812  0.2280  0.5442
  731MOL0     H98630  10.403   1.700   1.320 -0.0852  0.4156  1.0518
  731MOL0     H98631  10.377   1.613   1.178 -2.1777  0.5053  0.9586
  731MOL0     H98632  10.301   1.417   1.286  0.4516  1.5775 -2.0067
  731MOL0     H98633  10.341   1.488   1.452 -0.3147  2.5322  0.7115
  731MOL0     H98634  10.140   1.586   1.225 -0.2570 -1.7034 -0.8827
  731MOL0     H98635  10.177   1.668   1.381 -2.3968  0.2076 -1.8682
  731MOL0     H98636  10.069   1.550   1.590 -0.1509 -2.1205  1.5115
  731MOL0     H98637   9.874   1.226   1.696  3.0446  0.1339 -2.4033
  731MOL0     H98638   9.945   1.370   1.755  2.0016 -2.1582 -1.0873
  731MOL0     H98639   9.691   1.368   1.582 -1.7253  1.0647  1.4732
  731MOL0     H98640   9.764   1.505   1.662 -3.1789  1.8454 -0.1846
  731MOL0     H98641   9.684   1.348   1.878 -0.7707  0.7487 -0.2261
  731MOL0     H98642   9.612   1.249   1.746  0.5895 -0.6204 -1.3283
  731MOL0     H98643   9.501   1.480   1.672  1.2919  0.8352 -0.8016
  731MOL0     H98644   9.575   1.533   1.825  0.0239 -1.3757  0.4399
  731MOL0     H98645   9.369   1.648   1.798 -1.4472  0.7977 -1.3568
  731MOL0     H98646   9.112   1.849   1.901  0.0693  1.1792 -2.8426
  731MOL0     H98647   9.264   1.881   1.999  0.1625  2.7256 -2.8684
  731MOL0     H98648   9.268   1.837   1.826 -1.8036  2.1679 -1.3561
  731MOL0     H98649   8.792   1.797   2.214  2.4854 -2.1578 -2.6742
  731MOL0     H98650   8.618   1.828   2.390 -0.0862 -1.0395 -2.1868
  731MOL0     H98651   8.566   1.479   2.665  3.1271 -0.4358  2.1035
  731MOL0     H98652   8.633   1.596   2.784  0.5853  0.8703 -0.3723
  731MOL0     H98653   8.412   1.652   2.843 -1.1263 -0.8971  0.2786
  731MOL0     H98654   8.335   1.595   2.688 -1.7614  0.6365  1.9245
  731MOL0     H98655   8.452   1.429   2.921 -1.7051 -0.8488  0.2813
  731MOL0     H98656   8.396   1.357   2.769 -0.5115 -0.5818  0.4781
  731MOL0     H98657   8.213   1.546   2.915 -1.0156 -0.2312 -0.6876
  731MOL0     H98658   8.182   1.422   2.799 -1.5065  0.4011  0.5127
  731MOL0     H98659   8.257   1.360   3.086  3.2506 -1.6928 -0.9639
  731MOL0     H98660   8.240   1.234   2.964  0.4962 -0.5161  0.6732
  731MOL0     H98661   8.015   1.416   3.068 -4.6290 -1.4455 -1.0886
  731MOL0     H98662   8.020   1.334   2.904  0.4713 -0.6957  0.0703
  731MOL0     H98663   8.060   1.176   3.154  1.4471 -1.2757 -0.5273
  731MOL0     H98664   8.027   1.127   2.980  0.9052  0.4905  0.8176
  731MOL0     H98665   7.816   1.240   3.002  0.3694 -1.3370 -0.1649
  731MOL0     H98666   7.843   1.260   3.182 -0.6814 -0.3685  1.0091
  731MOL0     H98667   8.790   1.521   2.628  2.5119 -0.2053  0.8383
  731MOL0     H98668   8.956   1.473   2.426  1.8071  0.3081 -3.9453
  731MOL0     H98669   9.109   1.410   2.140  2.0893 -1.6847 -0.8124
  731MOL0     H98670   9.259   1.287   1.997  1.8769 -0.8636  0.9184
  731MOL0     H98671  10.372   0.860   1.144  0.5182 -2.2433 -0.6656
  731MOL0     H98672  10.216   0.693   1.232 -0.1239  0.7609  1.6301
  731MOL0     H98673   9.878   0.344   1.085 -0.4980 -2.8596  0.7599
  731MOL0     H98674   9.664   0.190   1.150 -2.4446 -0.0309 -0.1554
  731MOL0     H98675   9.534   0.206   1.554  1.2909 -0.9328  0.0476
  731MOL0     H98676   9.394   0.301   1.500 -0.4306 -0.5297 -0.9808
  731MOL0     H98677   9.386  -0.001   1.484  1.2632  0.7291  0.2882
  731MOL0     H98678   9.270   0.114   1.425  0.1987  3.8171  1.1819
  731MOL0     H98679   9.369   0.134   1.704 -0.8215 -0.7998  0.3542
  731MOL0     H98680   9.266  -0.006   1.667 -0.2814  1.0193  2.2274
  731MOL0     H98681   9.133   0.134   1.777 -4.8227  0.6205 -2.1010
  731MOL0     H98682   9.092   0.189   1.620  0.3259  0.4712 -0.3459
  731MOL0     H98683   9.338   0.501   1.812  1.5479  0.8579 -1.6830
  731MOL0     H98684   9.584   0.454   1.464 -1.5418 -0.5860 -0.0028
  731MOL0     H98685   9.759   0.597   1.410 -0.7522  0.7031 -1.6299
  732MOL0     O98686   3.295   4.140  10.966  0.3856 -0.3412 -0.6941
  732MOL0     C98687   3.205   4.103  11.039  0.1358 -0.1163 -0.7952
  732MOL0     O98688   3.223   4.059  11.168 -0.6252  0.3448  1.0005
  732MOL0     C98689   3.349   4.032  11.225 -0.8763  0.2262  0.6176
  732MOL0     C98690   3.353   3.929  11.320 -0.2392  0.4209  0.5919
  732MOL0     C98691   3.467   3.903  11.393  0.8395  0.4075  0.4268
  732MOL0     C98692   3.578   3.983  11.384  0.4380  0.2370 -0.0861
  732MOL0     O98693   3.696   3.950  11.449  0.9703  0.1227 -0.5076
  732MOL0     C98694   3.678   3.948  11.590  0.5574 -0.4207 -0.7636
  732MOL0     C98695   3.808   3.930  11.667  0.4239  0.5430  0.4920
  732MOL0     C98696   3.892   4.066  11.649  0.0754  0.2204 -0.6687
  732MOL0     C98697   4.004   4.073  11.753 -0.1350 -0.2906 -0.3884
  732MOL0     C98698   4.085   4.206  11.746  1.4276 -0.2492 -0.1480
  732MOL0     C98699   4.203   4.210  11.850  0.7118 -0.8947  0.0628
  732MOL0     C98700   4.320   4.126  11.813 -0.5874  1.2384 -0.8618
  732MOL0     C98701   4.446   4.159  11.891  0.1029 -0.3252 -0.9356
  732MOL0     N98702   4.561   4.085  11.850 -0.5957  0.1200  0.2607
  732MOL0     C98703   4.561   3.947  11.839  0.3375 -0.0401 -0.3750
  732MOL0     C98704   4.663   3.913  11.755  0.3543 -0.3139 -0.5789
  732MOL0     C98705   4.694   3.774  11.706  0.1270 -0.0458 -0.4352
  732MOL0     C98706   4.577   3.680  11.691  0.6819 -0.8719  0.4550
  732MOL0     C98707   4.511   3.696  11.556 -0.2591 -1.3877 -0.2494
  732MOL0     C98708   4.388   3.611  11.549  0.0255  0.5131 -0.2448
  732MOL0     O98709   4.269   3.679  11.528  0.5513  0.3337 -0.0524
  732MOL0     C98710   4.156   3.596  11.504  0.1588 -0.8873 -0.8473
  732MOL0     C98711   4.141   3.454  11.524 -0.1393  0.2605  0.0417
  732MOL0     C98712   4.024   3.389  11.483 -0.5454  0.4255  0.9075
  732MOL0     C98713   4.029   3.238  11.491 -0.8180  0.2480  0.2304
  732MOL0     C98714   3.913   3.464  11.436  0.0143 -0.1427  0.2184
  732MOL0     C98715   3.788   3.410  11.418 -0.0729 -0.6428 -0.0150
  732MOL0     O98716   3.721   3.472  11.307 -0.2855 -0.0110  0.4815
  732MOL0     C98717   3.592   3.438  11.280  0.3052 -0.2156  0.0868
  732MOL0     C98718   3.531   3.315  11.304 -0.0279 -0.0826 -0.0915
  732MOL0     C98719   3.397   3.292  11.260  0.2355 -0.2856  0.3860
  732MOL0     C98720   3.322   3.388  11.193  0.6140 -0.3093  0.4958
  732MOL0     O98721   3.202   3.336  11.149 -0.5303 -0.0664 -0.1773
  732MOL0     C98722   3.106   3.403  11.075 -0.1153  0.3294 -0.1317
  732MOL0     C98723   2.982   3.320  11.072  0.4506 -0.4100  0.0366
  732MOL0     C98724   2.907   3.323  11.206  0.0176  0.5581 -0.5959
  732MOL0     C98725   2.768   3.257  11.205 -0.5541 -0.6440  1.0071
  732MOL0     C98726   2.675   3.300  11.321  0.0474  0.0790  0.1616
  732MOL0     C98727   2.559   3.195  11.333  0.0581 -0.2650  0.4239
  732MOL0     C98728   2.596   3.067  11.405 -0.4991 -0.1213  0.5747
  732MOL0     C98729   2.558   3.053  11.545  0.1472 -0.0165 -0.2898
  732MOL0    Cl98730   2.378   3.041  11.566 -0.4080 -0.0723  0.4236
  732MOL0     C98731   3.378   3.517  11.175 -0.3592 -0.2316  0.0167
  732MOL0     C98732   3.514   3.539  11.216  0.6956  0.2106  0.5450
  732MOL0     O98733   3.738   3.330  11.500 -0.3458 -0.0315 -0.2730
  732MOL0     C98734   3.929   3.597  11.410 -0.5007 -1.0790  0.2561
  732MOL0     C98735   4.050   3.656  11.444 -0.1176  0.0781 -0.9861
  732MOL0     N98736   4.727   4.033  11.712  0.2398  0.7044 -0.8269
  732MOL0     N98737   4.672   4.124  11.776 -0.2598  0.0520  0.7605
  732MOL0     C98738   3.572   4.098  11.302 -0.2611  0.2615  0.3129
  732MOL0     C98739   3.463   4.123  11.216 -0.2997  0.4129 -0.3036
  732MOL0     C98740   3.072   4.081  10.972 -0.3660 -0.0014  0.4396
  732MOL0     C98741   3.066   4.083  10.833  0.0272  0.0344 -0.4244
  732MOL0     C98742   2.945   4.038  10.772 -0.2189 -0.4928  0.3937
  732MOL0     C98743   2.832   4.006  10.834 -0.0092 -0.2107  0.2806
  732MOL0     O98744   2.727   3.967  10.750 -0.2146 -1.0052 -0.2864
  732MOL0     C98745   2.600   3.961  10.804 -0.8551 -0.1983 -0.1572
  732MOL0     C98746   2.511   3.974  10.675  0.0334  0.5646  1.0533
  732MOL0     C98747   2.365   3.986  10.712 -0.6764  0.0001  0.9021
  732MOL0     C98748   2.274   3.979  10.580  0.6034 -0.4522  0.1178
  732MOL0     C98749   2.125   3.973  10.619  0.5502 -0.3217  0.3838
  732MOL0     C98750   2.000   3.968  10.629 -0.0081  0.6373  0.5986
  732MOL0     C98751   2.838   4.001  10.975 -0.6814  0.4212  0.4622
  732MOL0     C98752   2.956   4.043  11.044  0.1483 -0.3226  0.3545
  732MOL0     H98753   3.258   3.877  11.325  0.6338 -1.1800  1.3084
  732MOL0     H98754   3.470   3.810  11.450  0.8177 -0.8751 -1.5925
  732MOL0     H98755   3.628   4.043  11.610  0.5977 -1.0420  2.9811
  732MOL0     H98756   3.609   3.874  11.631 -0.1806  1.0412  0.7009
  732MOL0     H98757   3.788   3.919  11.774  1.9019 -0.0967  0.7153
  732MOL0     H98758   3.871   3.845  11.641  2.8344  2.2907  0.2946
  732MOL0     H98759   3.924   4.067  11.544 -3.5981  0.6450 -1.9342
  732MOL0     H98760   3.833   4.157  11.663 -0.5177 -0.0263 -1.4599
  732MOL0     H98761   3.954   4.057  11.848 -1.2834 -1.6161 -1.1793
  732MOL0     H98762   4.077   3.995  11.730  1.4221  1.4158 -1.4744
  732MOL0     H98763   4.125   4.218  11.645 -0.7444  0.9518 -0.9321
  732MOL0     H98764   4.015   4.289  11.757  0.3141 -1.0847 -0.6639
  732MOL0     H98765   4.232   4.316  11.850  1.4975 -1.0957 -1.2256
  732MOL0     H98766   4.159   4.180  11.946  1.2408 -2.0629 -0.0501
  732MOL0     H98767   4.302   4.020  11.834 -0.6500  1.9008  3.2727
  732MOL0     H98768   4.353   4.151  11.712 -2.1175  4.1482 -0.7278
  732MOL0     H98769   4.437   4.133  11.997  0.9482 -2.8706 -1.4068
  732MOL0     H98770   4.459   4.267  11.881 -1.2394 -0.3988 -5.4008
  732MOL0     H98771   4.501   3.868  11.882  0.5580 -1.2728 -2.2150
  732MOL0     H98772   4.745   3.780  11.609  1.1783 -1.3718  0.0128
  732MOL0     H98773   4.772   3.742  11.776  1.5975  0.8147 -1.5939
  732MOL0     H98774   4.503   3.703  11.768 -1.2789  1.3616 -1.8727
  732MOL0     H98775   4.607   3.575  11.697 -1.1863 -1.7112 -2.4371
  732MOL0     H98776   4.579   3.671  11.474  0.9225 -2.2379  0.9541
  732MOL0     H98777   4.470   3.798  11.553 -0.4159 -1.1350  4.1576
  732MOL0     H98778   4.387   3.566  11.649 -2.6315  3.3931  1.1998
  732MOL0     H98779   4.407   3.546  11.463 -1.5567 -1.3635  0.7572
  732MOL0     H98780   4.226   3.396  11.558 -0.1214 -2.6494 -4.0789
  732MOL0     H98781   4.039   3.188  11.394  0.9598  0.2048  0.3940
  732MOL0     H98782   4.119   3.213  11.548 -0.1985  0.2028 -0.7621
  732MOL0     H98783   3.941   3.196  11.541 -2.3717 -0.4892 -2.8979
  732MOL0     H98784   3.577   3.236  11.363 -2.6611 -1.3183  0.4831
  732MOL0     H98785   3.356   3.192  11.269  0.4945 -0.2180  4.1152
  732MOL0     H98786   3.073   3.494  11.125  1.2139  0.2878  0.8767
  732MOL0     H98787   3.131   3.424  10.971 -0.4851 -0.5376 -0.4094
  732MOL0     H98788   2.912   3.345  10.992 -3.1498  1.5249  3.4080
  732MOL0     H98789   3.010   3.215  11.057  0.5164 -0.5631  1.1258
  732MOL0     H98790   2.894   3.427  11.238 -3.2627  0.1333 -0.1819
  732MOL0     H98791   2.964   3.268  11.281  1.6247 -0.4959 -2.4816
  732MOL0     H98792   2.719   3.277  11.109  0.3763 -1.7276  0.2870
  732MOL0     H98793   2.776   3.149  11.199 -0.7706 -0.5774 -1.4291
  732MOL0     H98794   2.625   3.395  11.300  2.8976  1.6477  0.0774
  732MOL0     H98795   2.736   3.301  11.412  0.6372 -1.0490 -0.2062
  732MOL0     H98796   2.471   3.229  11.388  0.0594 -0.9213  0.8488
  732MOL0     H98797   2.524   3.171  11.233  0.2167  0.5055  0.1781
  732MOL0     H98798   2.703   3.055  11.387 -1.0682 -2.8375 -1.7817
  732MOL0     H98799   2.562   2.979  11.349  0.4073 -0.0421 -0.1202
  732MOL0     H98800   2.595   3.139  11.601  1.1968  0.1626 -1.2256
  732MOL0     H98801   2.595   2.972  11.608 -2.5663  1.0673  2.9765
  732MOL0     H98802   3.324   3.590  11.115  0.6979 -0.8456 -1.7321
  732MOL0     H98803   3.557   3.637  11.201  0.2525  0.1804 -1.0762
  732MOL0     H98804   3.848   3.663  11.382 -0.3829  0.8295  3.9007
  732MOL0     H98805   4.065   3.763  11.441 -1.5474  0.3494  0.4389
  732MOL0     H98806   3.662   4.159  11.304  1.0439 -1.5754 -0.3142
  732MOL0     H98807   3.459   4.214  11.158  0.4511  0.1878 -0.7190
  732MOL0     H98808   3.157   4.121  10.787  1.2786  1.6084  2.9363
  732MOL0     H98809   2.946   4.054  10.665  3.4043 -2.4495 -0.0091
  732MOL0     H98810   2.590   3.865  10.856 -0.8010  0.3961  0.9912
  732MOL0     H98811   2.576   4.032  10.884  0.2539  0.1609 -0.1226
  732MOL0     H98812   2.542   3.894  10.607 -0.3758  1.6262 -0.4228
  732MOL0     H98813   2.538   4.064  10.618 -1.6939  0.1293 -0.5244
  732MOL0     H98814   2.342   4.082  10.758 -1.9583  0.1752 -0.0634
  732MOL0     H98815   2.340   3.908  10.784  1.9959 -1.2770  0.5791
  732MOL0     H98816   2.311   3.890  10.530 -0.0109 -0.9327  0.4991
  732MOL0     H98817   2.298   4.062  10.513 -1.6051  0.8345  0.8189
  732MOL0     H98818   1.893   3.964  10.627 -0.0009  0.3781  0.6973
  732MOL0     H98819   2.752   3.964  11.030 -0.9557  0.6664  0.2051
  732MOL0     H98820   2.957   4.039  11.153  2.4654 -0.9762  0.3642
  733MOL0     O98821   2.172   7.505   4.979  0.3385  0.1861 -0.0592
  733MOL0     C98822   2.226   7.611   4.949 -0.6289 -0.1685 -0.4454
  733MOL0     O98823   2.164   7.727   4.903 -0.2855 -0.3062  0.1702
  733MOL0     C98824   2.031   7.715   4.867  0.8002  1.3116  0.0396
  733MOL0     C98825   1.978   7.608   4.789  0.1423 -0.6866 -1.0634
  733MOL0     C98826   1.841   7.598   4.754  0.2423  0.0452  0.2878
  733MOL0     C98827   1.756   7.704   4.776  0.9577  0.7465 -0.3840
  733MOL0     O98828   1.625   7.692   4.735 -0.5895  0.0668 -0.2089
  733MOL0     C98829   1.541   7.812   4.740 -0.5029  0.7566  0.1202
  733MOL0     C98830   1.408   7.782   4.671  0.0148 -0.1273 -0.6571
  733MOL0     C98831   1.295   7.885   4.713 -0.4739 -0.4237  1.1824
  733MOL0     C98832   1.154   7.847   4.659  0.3623 -0.8887 -0.7615
  733MOL0     C98833   1.048   7.966   4.680 -0.2686  0.2305 -0.0654
  733MOL0     C98834   0.995   7.975   4.827  0.2067  0.8309  0.6347
  733MOL0     C98835   0.914   8.105   4.837 -0.1525  0.4335  0.2758
  733MOL0     C98836   0.855   8.134   4.977  0.4520  0.0048 -1.5545
  733MOL0     N98837   0.741   8.221   4.974  0.4604 -0.0492  0.9587
  733MOL0     C98838   0.624   8.214   4.898 -0.5921 -0.1279  0.5977
  733MOL0     C98839   0.562   8.335   4.911 -0.3543 -0.7080 -0.2309
  733MOL0     C98840   0.445   8.364   4.819 -0.1293 -0.3654 -0.1532
  733MOL0     C98841   0.312   8.317   4.874 -0.1810 -0.3383 -0.1948
  733MOL0     C98842   0.254   8.393   4.998  0.0101  0.8467  0.0441
  733MOL0     C98843   0.105   8.372   5.011  0.2611  0.3944 -0.1925
  733MOL0     O98844   0.030   8.477   4.934  0.1533  1.0344 -0.3473
  733MOL0     C98845  -0.104   8.476   4.949  0.2506 -0.3645 -0.1058
  733MOL0     C98846  -0.176   8.579   4.888  0.2835  0.7283  0.5466
  733MOL0     C98847  -0.325   8.582   4.886 -0.3208 -0.1795 -0.1223
  733MOL0     C98848  -0.387   8.707   4.841 -0.0363  0.0126 -0.5540
  733MOL0     C98849  -0.389   8.478   4.945 -0.2457  0.4382  1.0901
  733MOL0     C98850  -0.541   8.463   4.952 -0.0175  0.0132  0.5995
  733MOL0     O98851  -0.583   8.357   5.040  0.1571 -0.4317  0.4277
  733MOL0     C98852  -0.721   8.339   5.048 -0.1984 -0.9516 -0.0853
  733MOL0     C98853  -0.791   8.286   4.941 -0.7431 -0.3961  0.9142
  733MOL0     C98854  -0.933   8.267   4.961 -0.4713  0.1719 -0.3189
  733MOL0     C98855  -0.996   8.317   5.078  0.8256  0.5170  0.2995
  733MOL0     O98856  -1.131   8.291   5.093  0.1459 -0.0788 -0.4220
  733MOL0     C98857  -1.207   8.400   5.140  0.1083 -0.1178  0.0781
  733MOL0     C98858  -1.352   8.385   5.108  0.4649 -0.3484 -0.1599
  733MOL0     C98859  -1.425   8.294   5.210  0.3423  0.0787 -0.4889
  733MOL0     C98860  -1.570   8.291   5.167 -0.9888 -0.6516  0.5445
  733MOL0     C98861  -1.642   8.218   5.279 -1.3452  0.2154  0.2507
  733MOL0     C98862  -1.797   8.243   5.276 -0.4031 -0.3758 -0.2957
  733MOL0     C98863  -1.873   8.108   5.262 -0.1917 -0.4993 -0.2599
  733MOL0     C98864  -1.844   8.037   5.125  1.0287 -0.2028  0.3525
  733MOL0    Cl98865  -1.925   8.132   5.000 -0.0764  0.2422  0.2238
  733MOL0     C98866  -0.916   8.378   5.174  1.0440  0.3914 -0.2993
  733MOL0     C98867  -0.772   8.379   5.172  0.6112 -0.7813 -0.1248
  733MOL0     O98868  -0.614   8.527   4.877 -0.2376 -0.6633 -0.4149
  733MOL0     C98869  -0.306   8.374   5.010  0.2617 -0.2527 -0.6404
  733MOL0     C98870  -0.172   8.384   5.023 -0.6562 -0.2235 -1.1717
  733MOL0     N98871   0.650   8.411   4.981  0.9042 -0.5589 -0.2243
  733MOL0     N98872   0.749   8.349   5.023  0.3576  0.7762 -0.4893
  733MOL0     C98873   1.812   7.817   4.849  0.1080  0.9465 -1.4689
  733MOL0     C98874   1.944   7.822   4.893 -0.1561  0.3878 -0.5684
  733MOL0     C98875   2.376   7.613   4.954  0.3541  0.3237 -0.1762
  733MOL0     C98876   2.449   7.725   4.916  0.3973  0.2834 -0.1800
  733MOL0     C98877   2.587   7.731   4.938  0.3619 -0.9394 -1.3353
  733MOL0     C98878   2.655   7.620   4.983 -0.4434 -0.3714 -0.4084
  733MOL0     O98879   2.794   7.620   4.992  0.7584  0.2765 -0.4109
  733MOL0     C98880   2.868   7.615   4.863  0.2358  0.3652  0.0712
  733MOL0     C98881   3.012   7.566   4.888  0.3264 -0.4228 -0.0456
  733MOL0     C98882   3.100   7.549   4.765  0.4498 -0.0355 -0.1599
  733MOL0     C98883   3.237   7.614   4.788  0.4377 -0.3032 -0.7834
  733MOL0     C98884   3.219   7.764   4.799 -0.3594  0.1778 -0.1406
  733MOL0     C98885   3.200   7.881   4.792  0.4603 -1.0297 -0.1568
  733MOL0     C98886   2.585   7.496   5.005  0.8327 -0.1255 -0.2041
  733MOL0     C98887   2.445   7.499   4.998 -0.3833 -0.0893  0.2980
  733MOL0     H98888   2.039   7.532   4.741 -2.1850 -1.3613 -3.1230
  733MOL0     H98889   1.806   7.524   4.683  0.1848  2.9896 -3.0775
  733MOL0     H98890   1.529   7.833   4.847  2.1270 -0.8548  0.8365
  733MOL0     H98891   1.594   7.899   4.700  0.9974  0.1614  0.7253
  733MOL0     H98892   1.431   7.789   4.564 -0.4309  0.7708 -0.7080
  733MOL0     H98893   1.376   7.682   4.700 -1.8676  0.2553 -1.2846
  733MOL0     H98894   1.292   7.894   4.822  2.8229  0.6046  1.2914
  733MOL0     H98895   1.324   7.985   4.677 -0.8735 -1.1938 -1.4913
  733MOL0     H98896   1.155   7.817   4.554 -0.7497 -1.0221 -0.7436
  733MOL0     H98897   1.118   7.760   4.715  1.3299  0.2824  1.8427
  733MOL0     H98898   1.094   8.060   4.649  3.8222 -1.8276 -0.9419
  733MOL0     H98899   0.957   7.938   4.626 -0.4941  1.4703 -0.3477
  733MOL0     H98900   0.935   7.884   4.838  2.6507 -0.8787  0.4386
  733MOL0     H98901   1.070   7.980   4.907 -0.8918  0.7654  1.7054
  733MOL0     H98902   0.953   8.200   4.799  1.0946  1.2983  3.4039
  733MOL0     H98903   0.827   8.083   4.774  0.5315 -1.6672 -0.0175
  733MOL0     H98904   0.929   8.185   5.041  2.8053 -2.0095 -2.4987
  733MOL0     H98905   0.826   8.040   5.025  2.4118  0.5702  0.9625
  733MOL0     H98906   0.605   8.129   4.834  1.2672  1.5287 -2.4047
  733MOL0     H98907   0.432   8.472   4.803 -3.9543 -0.6540  0.0731
  733MOL0     H98908   0.474   8.316   4.725  2.0886  0.5279  0.0135
  733MOL0     H98909   0.315   8.209   4.890 -4.0916 -0.6227 -0.3837
  733MOL0     H98910   0.240   8.332   4.793  0.4771  3.5132 -0.2768
  733MOL0     H98911   0.269   8.500   4.977 -4.8516  1.5317 -1.0398
  733MOL0     H98912   0.307   8.355   5.086  0.6828 -0.8960 -1.0734
  733MOL0     H98913   0.076   8.371   5.117 -1.3520 -2.7694 -0.5706
  733MOL0     H98914   0.079   8.272   4.978  2.2202 -0.8745  1.7633
  733MOL0     H98915  -0.127   8.659   4.833  2.8224 -0.0209  1.5673
  733MOL0     H98916  -0.413   8.686   4.737 -0.0232 -0.9651 -0.3772
  733MOL0     H98917  -0.474   8.733   4.902  0.3764 -0.3025  0.1826
  733MOL0     H98918  -0.319   8.792   4.836 -1.6116  1.4153  0.7338
  733MOL0     H98919  -0.722   8.255   4.865 -2.0280 -1.5236  0.1642
  733MOL0     H98920  -0.984   8.208   4.886 -2.4410  2.4376 -0.9111
  733MOL0     H98921  -1.190   8.425   5.245 -1.6109 -2.5346  1.0136
  733MOL0     H98922  -1.170   8.487   5.084  1.2566 -2.3395 -2.8529
  733MOL0     H98923  -1.396   8.485   5.119  0.5081 -0.5551  2.7708
  733MOL0     H98924  -1.370   8.358   5.004  0.0901 -0.6158 -0.0284
  733MOL0     H98925  -1.411   8.338   5.310 -1.1009  1.7409 -0.9622
  733MOL0     H98926  -1.388   8.191   5.216  0.7627  0.2368 -0.3118
  733MOL0     H98927  -1.601   8.395   5.150  0.4317 -0.6015 -2.5916
  733MOL0     H98928  -1.593   8.237   5.075 -0.3134 -0.5288  0.2998
  733MOL0     H98929  -1.599   8.253   5.373  0.1365 -0.1487 -0.2710
  733MOL0     H98930  -1.612   8.113   5.280 -1.2587  0.2225  1.9096
  733MOL0     H98931  -1.834   8.288   5.369  0.4864 -2.2162  1.0158
  733MOL0     H98932  -1.826   8.314   5.198  0.0791 -0.7497 -0.8217
  733MOL0     H98933  -1.980   8.120   5.283  0.2503 -0.8948  2.5426
  733MOL0     H98934  -1.842   8.036   5.338 -0.8434  0.4197  0.9122
  733MOL0     H98935  -1.896   7.942   5.138  0.2776  0.4549  2.6494
  733MOL0     H98936  -1.741   8.021   5.090  0.3816  0.1044 -1.8497
  733MOL0     H98937  -0.961   8.405   5.269  0.8556 -0.1554 -0.2250
  733MOL0     H98938  -0.715   8.403   5.261 -0.0815 -0.6152  0.2814
  733MOL0     H98939  -0.351   8.291   5.063 -4.4285  3.7704  2.5796
  733MOL0     H98940  -0.126   8.310   5.089  2.6531  0.2223 -2.7512
  733MOL0     H98941   1.748   7.905   4.857 -0.7455  0.1834  2.1812
  733MOL0     H98942   1.985   7.909   4.942 -1.5678 -0.0210  1.4269
  733MOL0     H98943   2.385   7.805   4.880 -1.7073  0.5711  3.6019
  733MOL0     H98944   2.648   7.818   4.917 -1.2103  0.3737 -0.7057
  733MOL0     H98945   2.805   7.553   4.798  0.7058  1.4064 -1.4393
  733MOL0     H98946   2.861   7.717   4.823  0.5506  0.5072  0.3706
  733MOL0     H98947   2.994   7.474   4.944 -4.8289  0.0649 -0.3813
  733MOL0     H98948   3.054   7.637   4.960  1.2800 -1.1636  0.1404
  733MOL0     H98949   3.049   7.600   4.682 -1.2529 -2.9122 -1.0160
  733MOL0     H98950   3.113   7.441   4.753 -2.2073 -0.9140  3.3712
  733MOL0     H98951   3.291   7.591   4.696 -1.5145  0.3419 -2.1595
  733MOL0     H98952   3.281   7.571   4.878 -1.0727  0.0460  0.1525
  733MOL0     H98953   3.189   7.985   4.816 -3.3486 -1.2365 -0.4287
  733MOL0     H98954   2.634   7.404   5.036 -2.3842 -1.3668  1.6446
  733MOL0     H98955   2.392   7.410   5.030  0.4885 -0.5073  0.6338
  734MOL0     O98956   0.150   1.581   2.924  0.5744 -0.2435  0.1038
  734MOL0     C98957   0.028   1.574   2.932  0.2275 -0.2659 -0.1252
  734MOL0     O98958  -0.063   1.675   2.896  0.1811  0.4296  0.3234
  734MOL0     C98959  -0.005   1.797   2.875 -0.5310 -0.9688 -0.9453
  734MOL0     C98960   0.000   1.852   2.741 -0.8221 -0.5633 -0.3239
  734MOL0     C98961   0.072   1.973   2.731 -0.3198 -0.7361  0.5844
  734MOL0     C98962   0.109   2.051   2.848 -0.4657  0.1194 -0.7379
  734MOL0     O98963   0.163   2.180   2.830  0.0834 -0.6231 -0.2296
  734MOL0     C98964   0.067   2.274   2.779 -0.7692 -0.7360  0.7926
  734MOL0     C98965   0.125   2.420   2.770 -0.1833 -0.8168 -0.4433
  734MOL0     C98966   0.045   2.508   2.667 -1.1096  1.1551  0.2264
  734MOL0     C98967   0.126   2.635   2.639  0.1480  0.2917 -0.2488
  734MOL0     C98968   0.046   2.726   2.541  0.1379 -1.1621  0.1768
  734MOL0     C98969   0.139   2.848   2.500 -0.5875 -0.8707  0.0939
  734MOL0     C98970   0.286   2.816   2.464 -0.8399 -0.3203 -0.3874
  734MOL0     C98971   0.352   2.950   2.400  0.4076 -0.1429  0.3387
  734MOL0     N98972   0.357   3.072   2.490  0.3373 -0.0603  0.0022
  734MOL0     C98973   0.385   3.072   2.633 -1.0357 -0.1538  0.7293
  734MOL0     C98974   0.339   3.201   2.666 -0.1636  0.3546  0.9228
  734MOL0     C98975   0.361   3.263   2.796 -0.7882 -0.1045 -0.1842
  734MOL0     C98976   0.256   3.237   2.902  0.1095 -0.4351 -0.9441
  734MOL0     C98977   0.246   3.092   2.954  0.5289 -0.5842  0.4521
  734MOL0     C98978   0.162   3.086   3.083  0.1662  0.6976 -0.2420
  734MOL0     O98979   0.130   2.949   3.106  0.3236 -0.3668  0.0292
  734MOL0     C98980   0.024   2.881   3.047  0.1122  0.2568 -0.7352
  734MOL0     C98981  -0.054   2.941   2.948  0.1805 -0.2628  0.2913
  734MOL0     C98982  -0.159   2.857   2.896  0.7210  0.3745  0.4535
  734MOL0     C98983  -0.237   2.919   2.781 -0.5509  0.0095 -0.0895
  734MOL0     C98984  -0.186   2.727   2.945  0.8502  0.1499  0.3480
  734MOL0     C98985  -0.287   2.629   2.881  0.2707  0.6272 -0.0868
  734MOL0     O98986  -0.261   2.501   2.922  0.2025  0.6905 -0.2342
  734MOL0     C98987  -0.312   2.399   2.850  0.4495 -0.1045 -0.7342
  734MOL0     C98988  -0.312   2.385   2.707  0.6852 -1.0076 -0.6752
  734MOL0     C98989  -0.369   2.280   2.643  0.2223  0.0348 -0.3961
  734MOL0     C98990  -0.425   2.176   2.716  0.7618  0.5406 -0.8084
  734MOL0     O98991  -0.481   2.072   2.643 -0.1828  0.6003  1.0034
  734MOL0     C98992  -0.497   1.942   2.705  0.2258  0.5114  0.4724
  734MOL0     C98993  -0.558   1.824   2.620 -0.4423  0.3216 -0.3839
  734MOL0     C98994  -0.458   1.773   2.515 -0.5730 -0.1591  0.4108
  734MOL0     C98995  -0.329   1.719   2.573  0.2561 -0.5636 -0.9756
  734MOL0     C98996  -0.268   1.604   2.491 -0.0240 -0.1152  0.2852
  734MOL0     C98997  -0.350   1.477   2.511 -0.7823 -0.4945  0.5133
  734MOL0     C98998  -0.292   1.353   2.453  0.2099 -0.3334 -0.4841
  734MOL0     C98999  -0.255   1.350   2.306 -0.4773 -0.3562 -1.4559
  734MOL0    Cl99000  -0.406   1.388   2.212  0.0920 -0.0758 -0.0642
  734MOL0     C99001  -0.409   2.177   2.856  0.2515  0.4353  0.0848
  734MOL0     C99002  -0.349   2.284   2.924  1.0611  0.6053 -0.7118
  734MOL0     O99003  -0.370   2.659   2.800 -0.6231  0.4191 -0.8235
  734MOL0     C99004  -0.090   2.682   3.037  0.5337  0.1200 -0.5459
  734MOL0     C99005   0.006   2.756   3.093  0.2867  0.0310 -0.1459
  734MOL0     N99006   0.286   3.263   2.561  0.0854 -0.1464 -0.6389
  734MOL0     N99007   0.296   3.195   2.457  0.1824  0.5622  1.0015
  734MOL0     C99008   0.085   1.999   2.972  0.1531 -0.0119 -0.8665
  734MOL0     C99009   0.039   1.871   2.990  0.1716  0.7374  0.4143
  734MOL0     C99010  -0.020   1.441   2.982 -0.2800 -0.7283  0.2904
  734MOL0     C99011  -0.156   1.439   3.004  0.3674 -0.7442  0.4966
  734MOL0     C99012  -0.221   1.327   3.061 -0.1061  0.3512  0.6858
  734MOL0     C99013  -0.143   1.223   3.102  0.2706 -0.6566 -0.9106
  734MOL0     O99014  -0.215   1.130   3.163 -0.3669  0.2905 -0.1331
  734MOL0     C99015  -0.152   1.022   3.233 -0.4475 -0.1871 -0.4214
  734MOL0     C99016  -0.103   0.904   3.138  0.1897 -0.1884 -0.2520
  734MOL0     C99017  -0.222   0.841   3.073 -0.0623  0.0876  0.2245
  734MOL0     C99018  -0.204   0.750   2.948 -0.0187  0.9914 -0.4633
  734MOL0     C99019  -0.161   0.831   2.834 -0.6199 -0.2828  0.7033
  734MOL0     C99020  -0.128   0.904   2.737 -0.5681  0.9759 -0.6168
  734MOL0     C99021   0.001   1.232   3.095 -0.9354  0.0713 -0.4092
  734MOL0     C99022   0.062   1.334   3.025 -0.1149 -0.4226  0.4434
  734MOL0     H99023  -0.031   1.791   2.657  0.0900 -1.8731  0.2440
  734MOL0     H99024   0.106   2.012   2.635  2.2751 -0.8453  1.3935
  734MOL0     H99025   0.041   2.252   2.675 -1.3444  0.2394  0.7102
  734MOL0     H99026  -0.018   2.268   2.848 -3.8815 -0.6853 -2.7220
  734MOL0     H99027   0.109   2.455   2.872 -1.6832  1.3379 -1.3457
  734MOL0     H99028   0.231   2.427   2.744 -0.0776 -1.5590 -0.2406
  734MOL0     H99029   0.022   2.445   2.580  1.6858  3.7810 -2.7037
  734MOL0     H99030  -0.056   2.539   2.695 -2.0670 -0.4971 -1.1459
  734MOL0     H99031   0.147   2.698   2.727 -0.6593 -0.2060  0.3250
  734MOL0     H99032   0.221   2.603   2.598  1.3966  3.5298 -0.1815
  734MOL0     H99033   0.015   2.666   2.454 -2.8994  1.7590 -1.0216
  734MOL0     H99034  -0.035   2.778   2.593  1.6679  0.7914  0.7134
  734MOL0     H99035   0.097   2.891   2.408  2.5438  0.7800 -0.7053
  734MOL0     H99036   0.127   2.928   2.573  2.8488 -0.7622  0.6833
  734MOL0     H99037   0.334   2.779   2.555 -2.6897  1.1032  1.2561
  734MOL0     H99038   0.294   2.745   2.381  0.1482  1.5316 -1.9480
  734MOL0     H99039   0.309   2.973   2.302 -0.3408  1.5246  1.0110
  734MOL0     H99040   0.455   2.926   2.375  1.0737  1.4845  1.3915
  734MOL0     H99041   0.430   2.993   2.692 -1.4383  0.2536  1.6159
  734MOL0     H99042   0.455   3.215   2.825 -2.9808 -5.5619 -0.9614
  734MOL0     H99043   0.385   3.369   2.783  2.1386 -0.9502 -3.1597
  734MOL0     H99044   0.160   3.270   2.862 -1.0858 -1.9557  0.5575
  734MOL0     H99045   0.273   3.303   2.987 -1.5632  0.3737 -1.2074
  734MOL0     H99046   0.344   3.050   2.977  0.2418 -2.3545 -1.3061
  734MOL0     H99047   0.214   3.032   2.868 -0.6167  2.6101 -1.5367
  734MOL0     H99048   0.072   3.146   3.065  0.6176  1.6787  0.6303
  734MOL0     H99049   0.208   3.137   3.169 -0.4612 -0.2555  0.6830
  734MOL0     H99050  -0.025   3.043   2.926  2.3006 -0.0338  3.5656
  734MOL0     H99051  -0.186   3.012   2.754  0.8580 -1.3940 -2.6851
  734MOL0     H99052  -0.229   2.847   2.699  0.1552 -1.9279  1.5758
  734MOL0     H99053  -0.343   2.933   2.801 -0.9361 -1.1541 -1.1947
  734MOL0     H99054  -0.273   2.466   2.645 -2.1619  0.6093 -0.5554
  734MOL0     H99055  -0.392   2.277   2.536 -0.8017 -1.2687 -0.1652
  734MOL0     H99056  -0.391   1.917   2.716  0.4846  1.3346 -0.0160
  734MOL0     H99057  -0.555   1.955   2.797  0.9615 -0.5462  1.1117
  734MOL0     H99058  -0.572   1.743   2.693 -0.7303  2.0208  1.5559
  734MOL0     H99059  -0.650   1.854   2.570 -0.7775 -0.9233 -0.5361
  734MOL0     H99060  -0.427   1.860   2.456  0.2168  0.1778  1.2796
  734MOL0     H99061  -0.507   1.697   2.454 -0.6978  2.2528 -2.6850
  734MOL0     H99062  -0.265   1.808   2.579 -2.7368  1.6660  1.0519
  734MOL0     H99063  -0.352   1.682   2.673 -0.1010 -0.9192 -1.1865
  734MOL0     H99064  -0.165   1.590   2.526 -0.2972 -0.4395  0.9555
  734MOL0     H99065  -0.270   1.618   2.382  2.0369  2.8724  0.4879
  734MOL0     H99066  -0.353   1.461   2.620  2.1198  1.2028  0.9670
  734MOL0     H99067  -0.450   1.476   2.467  0.3717  0.0012 -2.3361
  734MOL0     H99068  -0.373   1.282   2.471 -1.2017  1.2564 -0.2980
  734MOL0     H99069  -0.201   1.322   2.505 -0.2975 -3.2892 -1.1870
  734MOL0     H99070  -0.200   1.258   2.283  1.2378  0.4645 -0.8305
  734MOL0     H99071  -0.179   1.427   2.288 -2.2890  1.9784  0.2980
  734MOL0     H99072  -0.455   2.102   2.920 -1.6987  1.6498  0.2124
  734MOL0     H99073  -0.347   2.290   3.033  0.8784 -1.2850 -0.5673
  734MOL0     H99074  -0.109   2.583   3.077 -3.2653  0.5519 -0.9408
  734MOL0     H99075   0.064   2.723   3.179 -0.2200 -0.0829  0.1574
  734MOL0     H99076   0.113   2.061   3.057  0.3869 -1.8355  0.4365
  734MOL0     H99077   0.023   1.834   3.090  1.0218 -0.9306 -0.0282
  734MOL0     H99078  -0.215   1.526   2.976  0.7379  0.5027  3.2295
  734MOL0     H99079  -0.328   1.311   3.066 -0.3674  1.5699 -0.4100
  734MOL0     H99080  -0.060   1.050   3.284 -0.5590 -0.1535 -0.2381
  734MOL0     H99081  -0.194   0.979   3.324  1.2813 -1.4417 -0.1688
  734MOL0     H99082  -0.045   0.838   3.203 -1.7464 -1.6096  0.1154
  734MOL0     H99083  -0.042   0.949   3.059 -1.0026  0.5696 -0.7690
  734MOL0     H99084  -0.290   0.924   3.049  0.9403  0.5501 -1.1383
  734MOL0     H99085  -0.272   0.771   3.140  1.2273  0.4563  1.6247
  734MOL0     H99086  -0.303   0.712   2.920 -1.2746  2.4907  1.5948
  734MOL0     H99087  -0.129   0.672   2.963  0.5616  1.2309 -1.9821
  734MOL0     H99088  -0.102   0.970   2.656  1.6605  0.3260 -0.4775
  734MOL0     H99089   0.059   1.150   3.134  0.8433  0.5569 -1.9092
  734MOL0     H99090   0.169   1.337   3.008 -0.1173 -0.6294  0.3886
  735MOL0     O99091   5.089   7.113   9.137 -0.2423 -0.5536  0.0091
  735MOL0     C99092   5.151   7.056   9.225 -0.0208 -0.1047  0.4966
  735MOL0     O99093   5.126   6.930   9.284  0.4778 -1.0196 -0.0240
  735MOL0     C99094   5.000   6.900   9.269 -0.1031  1.1395  1.0116
  735MOL0     C99095   4.900   6.949   9.356  0.5520  0.4383  0.5063
  735MOL0     C99096   4.763   6.928   9.330 -0.7648 -0.9952 -0.3193
  735MOL0     C99097   4.723   6.845   9.228 -0.2893  1.2609 -0.4515
  735MOL0     O99098   4.590   6.827   9.204 -0.8619 -0.4283 -0.2306
  735MOL0     C99099   4.541   6.803   9.066  0.2407 -0.4066  0.8054
  735MOL0     C99100   4.388   6.789   9.067 -0.0860 -0.2432 -0.3834
  735MOL0     C99101   4.331   6.758   8.932  0.0993 -0.7103 -0.6045
  735MOL0     C99102   4.182   6.743   8.929  0.2388 -0.0142 -0.5082
  735MOL0     C99103   4.132   6.760   8.786  0.2522 -0.2271 -0.5797
  735MOL0     C99104   3.974   6.742   8.783  0.3629  0.1705 -0.5651
  735MOL0     C99105   3.922   6.739   8.642  0.4529  0.3084  0.8237
  735MOL0     C99106   3.937   6.612   8.558 -0.7491 -0.9178  0.5123
  735MOL0     N99107   3.836   6.508   8.590  0.2475 -0.0317 -0.1104
  735MOL0     C99108   3.714   6.503   8.540  0.8404  0.2625  0.0136
  735MOL0     C99109   3.663   6.384   8.587  0.5376  0.3402 -0.7736
  735MOL0     C99110   3.536   6.306   8.557  0.8881 -0.5008 -0.1647
  735MOL0     C99111   3.534   6.234   8.417 -0.1187 -0.5007 -0.2717
  735MOL0     C99112   3.386   6.214   8.369 -0.1762 -0.3256 -0.6490
  735MOL0     C99113   3.303   6.098   8.439  0.0863 -1.1086  0.2708
  735MOL0     O99114   3.163   6.130   8.446  0.2282 -0.2883  0.1630
  735MOL0     C99115   3.067   6.053   8.508 -0.7030  0.6727  0.5146
  735MOL0     C99116   2.935   6.106   8.534  0.2938  0.4261 -0.3896
  735MOL0     C99117   2.841   6.027   8.607 -1.0476 -0.8375  0.0026
  735MOL0     C99118   2.706   6.100   8.629 -0.6615 -0.1517  0.5494
  735MOL0     C99119   2.881   5.898   8.657  0.7846 -0.2665  0.2247
  735MOL0     C99120   2.790   5.799   8.724 -0.0873  0.5540 -0.2476
  735MOL0     O99121   2.837   5.668   8.721  0.0581 -0.4259 -0.1603
  735MOL0     C99122   2.754   5.567   8.769  0.2920  0.3885  0.0503
  735MOL0     C99123   2.621   5.556   8.731  0.1828 -1.1121 -0.2614
  735MOL0     C99124   2.540   5.438   8.754  0.2512 -1.0684  0.6364
  735MOL0     C99125   2.608   5.326   8.804 -0.2582  0.2745  0.8306
  735MOL0     O99126   2.542   5.204   8.824  0.3028  0.2699 -0.3257
  735MOL0     C99127   2.606   5.081   8.780 -0.0191 -0.2398 -0.5190
  735MOL0     C99128   2.514   4.966   8.792  0.0359  0.4529 -0.5452
  735MOL0     C99129   2.473   4.923   8.938 -0.1603  0.0475 -0.5490
  735MOL0     C99130   2.418   4.778   8.937 -0.9545 -0.7285  0.1103
  735MOL0     C99131   2.531   4.678   8.946 -0.3228 -0.4558  0.1133
  735MOL0     C99132   2.464   4.544   8.995  0.0970  1.0965 -0.2733
  735MOL0     C99133   2.578   4.449   9.039  0.5951  0.7035 -0.1992
  735MOL0     C99134   2.511   4.333   9.116  0.7015 -0.5057 -0.2019
  735MOL0    Cl99135   2.417   4.243   8.998  0.4426  0.2427 -0.0620
  735MOL0     C99136   2.747   5.332   8.835 -0.0386  0.3517  0.2834
  735MOL0     C99137   2.818   5.450   8.816  0.2551  0.4333  0.1767
  735MOL0     O99138   2.685   5.833   8.775  0.5643 -0.7862 -0.0608
  735MOL0     C99139   3.003   5.847   8.617  0.2138  0.0138  0.3030
  735MOL0     C99140   3.099   5.926   8.550  0.9350  0.2228  0.8401
  735MOL0     N99141   3.754   6.325   8.675 -1.0680 -1.0114  0.9276
  735MOL0     N99142   3.856   6.403   8.675 -1.1909 -0.0295  0.6144
  735MOL0     C99143   4.822   6.783   9.149  0.4198  0.1533  0.4748
  735MOL0     C99144   4.959   6.804   9.168  0.0193 -0.0713 -0.6611
  735MOL0     C99145   5.261   7.121   9.294 -0.1805 -0.0250  0.2281
  735MOL0     C99146   5.325   7.076   9.409  0.3781 -1.1369 -0.1793
  735MOL0     C99147   5.424   7.156   9.464 -0.6249 -0.3050 -0.3699
  735MOL0     C99148   5.454   7.279   9.419  0.1034 -0.1608  0.2035
  735MOL0     O99149   5.545   7.340   9.499 -0.5575  0.0103 -1.0639
  735MOL0     C99150   5.591   7.478   9.479 -0.6672  0.6443 -0.2119
  735MOL0     C99151   5.501   7.580   9.539  0.1571 -0.2737 -0.2938
  735MOL0     C99152   5.469   7.553   9.690  0.1028 -0.4101  0.2028
  735MOL0     C99153   5.401   7.682   9.737  0.5391  0.4556 -1.1701
  735MOL0     C99154   5.501   7.794   9.747 -0.0247  0.5773 -0.5899
  735MOL0     C99155   5.575   7.885   9.777 -0.6408  0.3677  0.2495
  735MOL0     C99156   5.395   7.327   9.305  0.6523 -1.0692  0.2385
  735MOL0     C99157   5.304   7.246   9.238 -0.3181 -0.7206  0.1428
  735MOL0     H99158   4.923   7.020   9.435 -3.5862 -0.7163  3.0533
  735MOL0     H99159   4.696   6.967   9.406 -0.1217 -0.3591 -0.0567
  735MOL0     H99160   4.559   6.890   9.002  0.5850 -0.9859  0.1035
  735MOL0     H99161   4.605   6.725   9.026  1.7284  1.3475 -0.4000
  735MOL0     H99162   4.374   6.705   9.136 -0.2983 -1.1961 -1.5632
  735MOL0     H99163   4.342   6.884   9.095 -0.1272  0.0292 -1.3669
  735MOL0     H99164   4.366   6.837   8.864 -1.6999  1.9080  1.3255
  735MOL0     H99165   4.377   6.662   8.905 -0.3400 -0.6186 -1.7570
  735MOL0     H99166   4.156   6.645   8.971 -0.6188 -0.0386 -1.0681
  735MOL0     H99167   4.131   6.815   8.994  2.3886  0.5300  0.6846
  735MOL0     H99168   4.160   6.859   8.749 -2.2456  0.4494 -0.8781
  735MOL0     H99169   4.177   6.685   8.721 -0.5001  0.7318 -2.2585
  735MOL0     H99170   3.955   6.645   8.828  2.0823  0.2090  0.3046
  735MOL0     H99171   3.914   6.799   8.855  2.2166 -1.6967  2.7119
  735MOL0     H99172   3.824   6.788   8.634  0.4385  0.8050  3.2638
  735MOL0     H99173   3.996   6.801   8.590  0.1001  0.5074  0.5541
  735MOL0     H99174   4.038   6.571   8.573  0.0634 -0.0810 -1.9998
  735MOL0     H99175   3.928   6.638   8.452 -1.8825 -2.0737  0.2992
  735MOL0     H99176   3.677   6.569   8.463  1.2808  1.9331  1.1764
  735MOL0     H99177   3.513   6.232   8.634 -0.9424  0.8489  0.6641
  735MOL0     H99178   3.457   6.381   8.571  0.7657 -0.6598 -0.0084
  735MOL0     H99179   3.586   6.138   8.422  1.8432  0.5844  1.3886
  735MOL0     H99180   3.592   6.301   8.352 -2.4486 -0.5857 -2.6121
  735MOL0     H99181   3.384   6.197   8.261 -0.1047 -0.7329 -0.5878
  735MOL0     H99182   3.323   6.304   8.375 -0.7659 -0.8158  0.8914
  735MOL0     H99183   3.357   6.084   8.534  2.5371  1.5758 -0.5968
  735MOL0     H99184   3.316   6.010   8.375  0.0980 -0.0414 -1.2357
  735MOL0     H99185   2.903   6.196   8.484  0.4773  0.0215 -1.2699
  735MOL0     H99186   2.686   6.110   8.736  0.1492  3.0165  0.4986
  735MOL0     H99187   2.710   6.204   8.595 -1.0433 -0.1652  0.4583
  735MOL0     H99188   2.623   6.058   8.571 -0.0760  0.3713 -0.7078
  735MOL0     H99189   2.574   5.633   8.671 -0.1058 -0.8658  0.2748
  735MOL0     H99190   2.437   5.449   8.722 -0.3071  2.4748  3.0122
  735MOL0     H99191   2.638   5.104   8.678  2.1475  1.4862  0.4502
  735MOL0     H99192   2.701   5.065   8.833  1.6419  0.6492 -3.0310
  735MOL0     H99193   2.427   4.978   8.727  0.2563  2.1892 -0.5622
  735MOL0     H99194   2.573   4.888   8.743 -0.9998  0.1852 -1.3983
  735MOL0     H99195   2.405   4.999   8.979  1.7802  0.9516  1.1910
  735MOL0     H99196   2.558   4.910   9.006 -1.0641 -3.7261  0.0505
  735MOL0     H99197   2.353   4.765   9.024  3.6816 -0.2839  4.1125
  735MOL0     H99198   2.370   4.767   8.840 -2.4158 -0.1197  0.7430
  735MOL0     H99199   2.600   4.710   9.025  2.0038  1.1168 -2.3595
  735MOL0     H99200   2.592   4.660   8.857  1.4617  1.1417  0.9312
  735MOL0     H99201   2.392   4.557   9.076 -0.2375 -3.0489  0.2967
  735MOL0     H99202   2.411   4.507   8.907  0.2938 -0.1060  0.1050
  735MOL0     H99203   2.651   4.492   9.108  0.7005  0.5717 -0.2290
  735MOL0     H99204   2.620   4.406   8.948 -2.2022 -3.9837  0.3710
  735MOL0     H99205   2.450   4.370   9.199 -1.3783  1.0216 -2.2868
  735MOL0     H99206   2.590   4.266   9.154 -1.7390 -4.3761 -1.3473
  735MOL0     H99207   2.793   5.239   8.866  2.2397  1.1347 -0.5012
  735MOL0     H99208   2.918   5.441   8.858 -0.5793 -1.9982  1.8869
  735MOL0     H99209   3.046   5.752   8.646  0.9691 -1.0603 -3.7527
  735MOL0     H99210   3.198   5.887   8.529  1.1240 -0.1470  2.3527
  735MOL0     H99211   4.797   6.715   9.067  0.5568  2.1852 -1.3458
  735MOL0     H99212   5.026   6.739   9.112  0.5003 -2.0115  1.9690
  735MOL0     H99213   5.279   6.989   9.454 -2.2969  0.6220  0.7990
  735MOL0     H99214   5.468   7.128   9.559 -0.3781  1.5856  0.1208
  735MOL0     H99215   5.688   7.490   9.528 -0.9987  2.0873  0.1388
  735MOL0     H99216   5.608   7.487   9.372 -1.6252 -3.1503 -0.8436
  735MOL0     H99217   5.401   7.569   9.497 -0.5581 -0.7573  1.4593
  735MOL0     H99218   5.544   7.679   9.525  2.5642 -0.8514  2.1537
  735MOL0     H99219   5.554   7.536   9.757 -0.1945  0.0109  0.6914
  735MOL0     H99220   5.410   7.463   9.703  2.0640 -2.1739 -2.0871
  735MOL0     H99221   5.342   7.668   9.829 -1.2691  0.8660 -2.2089
  735MOL0     H99222   5.323   7.711   9.666  0.1599  0.1334 -0.8975
  735MOL0     H99223   5.640   7.969   9.794 -1.8314  1.3844 -0.1120
  735MOL0     H99224   5.409   7.431   9.278 -1.9701 -0.1534  1.9594
  735MOL0     H99225   5.273   7.288   9.143  2.5262 -2.8304 -1.8693
  736MOL0     O99226   6.511   5.371   9.075  0.2758  0.2453  0.5029
  736MOL0     C99227   6.605   5.339   9.000 -0.0494  0.4414 -0.8789
  736MOL0     O99228   6.601   5.317   8.864 -0.7996 -0.0983 -0.3249
  736MOL0     C99229   6.490   5.325   8.795  0.4039  0.0655  0.3166
  736MOL0     C99230   6.376   5.240   8.827 -0.5560 -0.6314 -0.3949
  736MOL0     C99231   6.271   5.225   8.736  0.8739  0.5268 -0.4035
  736MOL0     C99232   6.268   5.303   8.623  0.7509 -0.4464  0.3530
  736MOL0     O99233   6.161   5.313   8.538 -0.7275 -0.2105 -0.3988
  736MOL0     C99234   6.041   5.379   8.581 -0.2851  0.2636  0.2629
  736MOL0     C99235   5.942   5.289   8.647  0.3639 -0.4970  0.3024
  736MOL0     C99236   5.888   5.188   8.554  0.6814  0.5870  0.0170
  736MOL0     C99237   5.795   5.243   8.443  0.6654 -1.3091  0.7535
  736MOL0     C99238   5.695   5.146   8.391  0.1204 -0.8569 -0.6557
  736MOL0     C99239   5.600   5.218   8.290  0.1077  0.0476  0.7608
  736MOL0     C99240   5.507   5.116   8.218  0.4122  0.0284 -0.8194
  736MOL0     C99241   5.422   5.181   8.111  1.7749 -0.9558  0.4177
  736MOL0     N99242   5.332   5.278   8.166 -0.5438  1.0179 -0.2985
  736MOL0     C99243   5.356   5.412   8.179 -0.2169  0.0872 -0.7596
  736MOL0     C99244   5.233   5.466   8.226 -0.7257 -0.8438  1.1005
  736MOL0     C99245   5.210   5.619   8.218  0.0005 -0.0437 -0.1433
  736MOL0     C99246   5.285   5.702   8.327 -0.1002 -0.3551  0.1471
  736MOL0     C99247   5.211   5.667   8.456 -0.5521  0.5258 -0.7253
  736MOL0     C99248   5.236   5.770   8.569 -0.6356  0.1888  0.1564
  736MOL0     O99249   5.189   5.904   8.547  0.8568 -0.4850 -0.0543
  736MOL0     C99250   5.051   5.926   8.548  0.8311 -0.4320 -0.4407
  736MOL0     C99251   4.993   6.020   8.460 -1.0999  0.9528  0.7395
  736MOL0     C99252   4.851   6.045   8.451 -0.5631  0.0736  0.3804
  736MOL0     C99253   4.800   6.129   8.343 -0.0161 -0.1101 -0.2570
  736MOL0     C99254   4.761   5.978   8.542  0.2773 -0.0589 -1.2519
  736MOL0     C99255   4.609   5.988   8.537  0.6232 -0.5780  0.6283
  736MOL0     O99256   4.540   5.876   8.575 -0.5964  0.0200  0.6552
  736MOL0     C99257   4.408   5.871   8.573  0.4124  1.0307 -1.0233
  736MOL0     C99258   4.342   5.771   8.655  0.1689 -0.2004 -0.1649
  736MOL0     C99259   4.206   5.773   8.677  0.0084  0.2832  0.3552
  736MOL0     C99260   4.129   5.867   8.606  0.4191  0.2451  0.6084
  736MOL0     O99261   3.995   5.856   8.632  0.4387 -0.0378 -0.3847
  736MOL0     C99262   3.912   5.949   8.570  0.3864  0.1053  0.2882
  736MOL0     C99263   3.769   5.948   8.620 -0.0601 -0.3864  0.4339
  736MOL0     C99264   3.687   5.822   8.570 -0.0735  0.1064  0.3153
  736MOL0     C99265   3.544   5.839   8.623 -0.3699 -0.3344  0.7997
  736MOL0     C99266   3.539   5.815   8.777  0.4141 -0.5288  0.0753
  736MOL0     C99267   3.388   5.821   8.827 -0.0490 -0.7678  0.1034
  736MOL0     C99268   3.383   5.718   8.935 -0.2530  0.2630  0.7928
  736MOL0     C99269   3.254   5.731   8.999 -0.6543 -0.6572  1.2547
  736MOL0    Cl99270   3.136   5.632   8.912 -0.1061  0.1385 -0.2766
  736MOL0     C99271   4.189   5.959   8.516  0.0339 -1.2184  0.0767
  736MOL0     C99272   4.327   5.953   8.495  0.6001 -0.2112 -0.2197
  736MOL0     O99273   4.565   6.101   8.506  0.2373  0.1587 -0.0902
  736MOL0     C99274   4.820   5.883   8.627 -0.3913  0.2750 -0.5845
  736MOL0     C99275   4.955   5.864   8.636  0.1366 -0.8203 -1.0165
  736MOL0     N99276   5.146   5.364   8.233  0.3173 -0.2212  0.1386
  736MOL0     N99277   5.205   5.257   8.209  0.1059  0.2716 -0.2073
  736MOL0     C99278   6.378   5.380   8.588 -0.3617  0.6398 -0.5998
  736MOL0     C99279   6.491   5.394   8.673  0.3110 -0.2000 -0.2051
  736MOL0     C99280   6.732   5.307   9.054  0.3423  0.2635  0.8985
  736MOL0     C99281   6.829   5.239   8.973  0.4902  0.2714 -1.6036
  736MOL0     C99282   6.947   5.188   9.026 -0.4080 -0.5660 -0.3784
  736MOL0     C99283   6.981   5.204   9.158  0.5285 -0.1024  0.7848
  736MOL0     O99284   7.097   5.158   9.212 -0.0612 -0.2385  0.4796
  736MOL0     C99285   7.189   5.073   9.145  0.5025 -0.5822  0.6053
  736MOL0     C99286   7.329   5.087   9.204  0.4242  0.7976 -0.4834
  736MOL0     C99287   7.335   5.016   9.343 -0.0183  0.1082 -0.5789
  736MOL0     C99288   7.478   5.001   9.393  0.5840  0.4013  0.3096
  736MOL0     C99289   7.531   5.123   9.455  0.6369 -0.4607 -0.0564
  736MOL0     C99290   7.574   5.221   9.505 -0.0586  0.3106  0.0752
  736MOL0     C99291   6.889   5.270   9.239  0.6482 -0.1305 -0.5681
  736MOL0     C99292   6.770   5.321   9.190 -0.4336 -0.2801 -0.0817
  736MOL0     H99293   6.373   5.183   8.919  0.5237  0.8951  0.6394
  736MOL0     H99294   6.191   5.154   8.754  0.6543  0.9640  0.4173
  736MOL0     H99295   6.071   5.465   8.642  3.0756  1.2091 -2.3985
  736MOL0     H99296   6.001   5.423   8.489 -1.2504  3.5614  2.0824
  736MOL0     H99297   5.994   5.233   8.726 -0.5671  0.1109  1.3824
  736MOL0     H99298   5.858   5.341   8.695 -1.3845 -0.8423 -2.1929
  736MOL0     H99299   5.964   5.129   8.501 -0.8015 -0.3663 -1.1514
  736MOL0     H99300   5.824   5.114   8.602 -0.4133 -0.5316 -2.9025
  736MOL0     H99301   5.742   5.334   8.473  0.9044 -1.4220  1.5576
  736MOL0     H99302   5.847   5.278   8.354 -0.4903 -0.2820  0.4455
  736MOL0     H99303   5.750   5.061   8.348 -0.0040 -0.7408 -1.0508
  736MOL0     H99304   5.639   5.106   8.475 -0.7599 -0.3192 -0.9734
  736MOL0     H99305   5.539   5.299   8.331 -0.8937  0.2295 -0.9980
  736MOL0     H99306   5.663   5.263   8.213 -0.3592  1.0838  0.9649
  736MOL0     H99307   5.572   5.048   8.162  0.4467 -1.9769  1.4881
  736MOL0     H99308   5.463   5.046   8.289  1.9873 -1.1742 -0.9550
  736MOL0     H99309   5.356   5.114   8.055  2.8216  0.2805 -2.4924
  736MOL0     H99310   5.488   5.219   8.033  0.5852  1.2714  0.3863
  736MOL0     H99311   5.433   5.467   8.126 -0.8551  1.0213 -0.7496
  736MOL0     H99312   5.229   5.665   8.120 -0.4916 -0.8736 -0.6439
  736MOL0     H99313   5.101   5.631   8.221 -0.2339 -2.0489  1.4798
  736MOL0     H99314   5.275   5.807   8.299  1.9642 -0.2576 -0.3582
  736MOL0     H99315   5.388   5.669   8.315  0.4581  2.0252 -3.1414
  736MOL0     H99316   5.246   5.573   8.498 -3.6812  0.8274  3.0306
  736MOL0     H99317   5.102   5.659   8.450 -0.6435 -1.0474  1.7836
  736MOL0     H99318   5.344   5.774   8.587 -0.3653  2.6035 -1.4957
  736MOL0     H99319   5.180   5.718   8.647 -2.6325 -1.1724 -2.0496
  736MOL0     H99320   5.048   6.074   8.383 -0.5014  0.5828  0.9009
  736MOL0     H99321   4.742   6.219   8.364  0.0745  0.5348 -2.4645
  736MOL0     H99322   4.889   6.159   8.286  1.4729 -0.4691  1.7612
  736MOL0     H99323   4.737   6.068   8.278 -0.7826  1.0827 -0.6579
  736MOL0     H99324   4.403   5.698   8.707 -2.6571 -0.6102  2.9531
  736MOL0     H99325   4.168   5.712   8.757  0.7873  0.0180  0.5356
  736MOL0     H99326   3.946   6.053   8.577  0.3002  0.1785 -0.3247
  736MOL0     H99327   3.911   5.926   8.463 -2.1164  0.2380  0.2067
  736MOL0     H99328   3.770   5.975   8.727  0.4454  0.2298  0.2810
  736MOL0     H99329   3.718   6.033   8.572 -1.5030 -1.2947  0.2957
  736MOL0     H99330   3.725   5.727   8.611 -0.0388  0.7940  1.9330
  736MOL0     H99331   3.677   5.826   8.461 -3.6375 -0.1050  0.5201
  736MOL0     H99332   3.512   5.943   8.612  0.6211 -0.1568 -0.7340
  736MOL0     H99333   3.462   5.785   8.575 -2.3921  1.8323  1.6731
  736MOL0     H99334   3.596   5.884   8.840  0.8801  0.0579 -0.9669
  736MOL0     H99335   3.568   5.710   8.789  0.9564 -0.1558  2.5010
  736MOL0     H99336   3.371   5.923   8.864  0.7021  0.5884 -2.9557
  736MOL0     H99337   3.318   5.800   8.745  1.0209 -1.2802 -0.7123
  736MOL0     H99338   3.460   5.756   9.003  2.6766 -1.7547 -1.1288
  736MOL0     H99339   3.407   5.615   8.906 -4.5340 -1.9380  3.9948
  736MOL0     H99340   3.224   5.837   8.999 -0.8661 -0.6198 -1.9572
  736MOL0     H99341   3.263   5.705   9.105 -1.6764  3.5776  2.6042
  736MOL0     H99342   4.144   6.034   8.453  5.3327  1.9525 -0.5744
  736MOL0     H99343   4.378   6.011   8.419  1.1705 -1.7649 -1.0712
  736MOL0     H99344   4.759   5.845   8.707  3.3479 -1.2953  1.7938
  736MOL0     H99345   4.998   5.819   8.725 -1.9349  1.1420  1.1251
  736MOL0     H99346   6.390   5.433   8.493  0.8686 -0.4851 -1.0899
  736MOL0     H99347   6.570   5.458   8.633 -0.6351  0.9793 -0.2204
  736MOL0     H99348   6.820   5.229   8.865 -0.7883  1.0335 -1.5841
  736MOL0     H99349   7.023   5.145   8.961 -0.3026 -1.3112  0.2313
  736MOL0     H99350   7.159   4.969   9.159  0.0657 -0.8055 -1.6183
  736MOL0     H99351   7.191   5.089   9.037  0.1510  0.0094  0.6775
  736MOL0     H99352   7.345   5.195   9.217 -1.2605  0.7483  3.0801
  736MOL0     H99353   7.400   5.041   9.135 -1.9124 -2.5820 -0.8429
  736MOL0     H99354   7.280   4.921   9.346  0.9169 -0.4382  0.7952
  736MOL0     H99355   7.289   5.085   9.414  2.3938  1.4417 -0.2133
  736MOL0     H99356   7.541   4.955   9.316  0.5789 -0.3256  0.7348
  736MOL0     H99357   7.472   4.930   9.475  0.3096 -1.0065 -0.8907
  736MOL0     H99358   7.607   5.307   9.558 -1.5651  0.4969  0.7672
  736MOL0     H99359   6.913   5.285   9.343 -2.2494  0.3026  0.1242
  736MOL0     H99360   6.714   5.372   9.268 -0.5905  3.7731 -2.5480
  737MOL0     O99361   8.029   7.734  10.910  0.0285  0.2572 -0.8283
  737MOL0     C99362   8.040   7.854  10.894 -0.1062 -0.4818  0.3671
  737MOL0     O99363   7.950   7.932  10.820  0.7124  0.2490 -0.3157
  737MOL0     C99364   7.852   7.875  10.746 -1.1448 -0.0967 -0.0061
  737MOL0     C99365   7.719   7.903  10.757  0.5784 -0.7940 -0.5286
  737MOL0     C99366   7.620   7.856  10.665  0.3784 -0.2297  0.3152
  737MOL0     C99367   7.663   7.758  10.574 -0.0940 -1.2675  1.0056
  737MOL0     O99368   7.579   7.693  10.492 -0.6258 -0.4608  0.0460
  737MOL0     C99369   7.481   7.611  10.564 -0.2804 -0.6227 -0.3411
  737MOL0     C99370   7.525   7.470  10.532  0.1580 -0.3094 -0.7824
  737MOL0     C99371   7.448   7.354  10.601 -0.2801 -0.0349 -0.6597
  737MOL0     C99372   7.310   7.336  10.541 -0.4102  0.2940  0.7818
  737MOL0     C99373   7.233   7.221  10.613 -0.0541 -0.0136  0.9838
  737MOL0     C99374   7.282   7.077  10.573  0.6921 -0.1852  0.4630
  737MOL0     C99375   7.182   6.977  10.628  0.3758 -0.5837  0.3876
  737MOL0     C99376   7.235   6.838  10.600 -0.6512  0.4628 -0.1816
  737MOL0     N99377   7.132   6.731  10.644 -0.4333  0.0416  0.0487
  737MOL0     C99378   7.081   6.714  10.774  0.0982 -0.6675  0.7281
  737MOL0     C99379   7.007   6.601  10.776  0.3590  0.7018  0.3365
  737MOL0     C99380   6.952   6.538  10.897  0.1136  1.0297  0.3265
  737MOL0     C99381   6.826   6.607  10.922 -0.0414 -0.8747 -0.3918
  737MOL0     C99382   6.729   6.536  11.012  1.5424  0.5152  0.5603
  737MOL0     C99383   6.583   6.596  11.016 -0.1049 -0.2618  0.2338
  737MOL0     O99384   6.491   6.531  11.101  0.6045  0.2139 -0.3381
  737MOL0     C99385   6.448   6.408  11.063  0.4764 -0.6569  0.1880
  737MOL0     C99386   6.387   6.335  11.169 -0.2668 -0.5335  0.3718
  737MOL0     C99387   6.372   6.196  11.154  0.5158 -0.0592 -0.4814
  737MOL0     C99388   6.323   6.119  11.282  0.4951 -0.3001  0.9215
  737MOL0     C99389   6.400   6.125  11.034 -1.3324 -0.1027 -0.5414
  737MOL0     C99390   6.393   5.976  11.006 -0.7082  0.2038 -0.8646
  737MOL0     O99391   6.307   5.899  11.068 -0.4716  0.0871 -0.2380
  737MOL0     C99392   6.314   5.760  11.044  0.1880 -1.1070  0.1122
  737MOL0     C99393   6.434   5.689  11.051 -0.1023 -0.5043 -0.2681
  737MOL0     C99394   6.428   5.548  11.036 -0.7289 -0.5090 -0.4529
  737MOL0     C99395   6.309   5.487  10.996  0.4660  0.0265 -0.1949
  737MOL0     O99396   6.306   5.354  10.960  0.1520 -1.0850 -0.3730
  737MOL0     C99397   6.210   5.269  11.016  0.1843  0.2988 -0.7577
  737MOL0     C99398   6.262   5.199  11.140 -0.3489 -0.6390 -0.5603
  737MOL0     C99399   6.238   5.294  11.258 -0.4437  0.4828  0.3243
  737MOL0     C99400   6.355   5.277  11.359 -0.2598  0.5631 -0.7694
  737MOL0     C99401   6.490   5.341  11.326 -0.4026 -0.8641  0.7044
  737MOL0     C99402   6.598   5.334  11.438  0.4696 -0.3553 -0.4492
  737MOL0     C99403   6.564   5.427  11.554  0.7762 -0.2924  0.9617
  737MOL0     C99404   6.674   5.417  11.665  0.5341 -0.7720  0.4058
  737MOL0    Cl99405   6.785   5.552  11.628 -0.0933  0.2125  0.1092
  737MOL0     C99406   6.192   5.572  10.978  0.1351 -0.1596 -0.3968
  737MOL0     C99407   6.199   5.706  11.002 -0.4971  0.0488 -0.8097
  737MOL0     O99408   6.485   5.934  10.929  0.6490  0.0200  0.3788
  737MOL0     C99409   6.440   6.207  10.925 -0.0325 -0.8287  0.2304
  737MOL0     C99410   6.456   6.346  10.937 -0.1350 -0.1053  0.3492
  737MOL0     N99411   7.014   6.549  10.644 -0.0688 -0.3468  0.6571
  737MOL0     N99412   7.099   6.623  10.566 -0.0770  0.1425 -0.4044
  737MOL0     C99413   7.799   7.725  10.554 -0.7494  0.3535  0.5955
  737MOL0     C99414   7.890   7.793  10.637  0.0352  0.9234 -0.8188
  737MOL0     C99415   8.158   7.906  10.975 -0.4352  0.3942 -1.1503
  737MOL0     C99416   8.214   8.038  10.954  0.2503 -1.0414 -0.7497
  737MOL0     C99417   8.324   8.086  11.024 -0.1980  0.3361 -0.0745
  737MOL0     C99418   8.392   8.007  11.115  0.5390 -0.1133 -0.6743
  737MOL0     O99419   8.511   8.061  11.176 -0.3941  0.4882  0.3598
  737MOL0     C99420   8.606   7.963  11.224  0.1619  0.1554  0.0986
  737MOL0     C99421   8.733   8.047  11.242 -0.2671 -1.3371 -0.2629
  737MOL0     C99422   8.860   7.960  11.272  0.0189 -0.9026 -0.0886
  737MOL0     C99423   8.932   7.944  11.146  0.7816 -0.2119  0.0447
  737MOL0     C99424   9.067   7.884  11.174  1.2097 -0.9665 -0.7009
  737MOL0     C99425   9.166   7.825  11.218  0.0058 -0.1478  0.4052
  737MOL0     C99426   8.334   7.874  11.140  0.2867 -0.4395 -0.2554
  737MOL0     C99427   8.226   7.823  11.070 -0.0722  0.0661  0.2467
  737MOL0     H99428   7.678   7.961  10.839 -2.4101  0.5659 -2.7616
  737MOL0     H99429   7.521   7.899  10.674  0.1048 -1.0525  1.4845
  737MOL0     H99430   7.475   7.643  10.669 -0.5546  0.8921 -0.7992
  737MOL0     H99431   7.381   7.625  10.522  0.1686  0.7795 -1.0028
  737MOL0     H99432   7.523   7.457  10.424 -1.5528 -1.6963 -0.6264
  737MOL0     H99433   7.626   7.459  10.571  0.3863 -1.7740 -1.7148
  737MOL0     H99434   7.510   7.265  10.590  0.6884  0.7594 -1.8538
  737MOL0     H99435   7.443   7.391  10.704 -0.9253  1.6975 -1.2761
  737MOL0     H99436   7.249   7.426  10.552  0.8671  1.1063  1.5004
  737MOL0     H99437   7.321   7.304  10.437 -0.6249 -4.0982  1.8880
  737MOL0     H99438   7.248   7.221  10.721  1.6672 -1.5916  0.8070
  737MOL0     H99439   7.129   7.234  10.583  0.3533 -2.4246 -2.0120
  737MOL0     H99440   7.297   7.079  10.464 -1.7955 -0.5920  0.0609
  737MOL0     H99441   7.377   7.064  10.625 -0.1665  2.7614  3.0533
  737MOL0     H99442   7.183   6.984  10.737 -2.2665 -2.5451  0.6326
  737MOL0     H99443   7.079   6.980  10.591  0.5515 -0.7726 -0.1261
  737MOL0     H99444   7.336   6.829  10.642 -0.2710 -1.5820 -1.4188
  737MOL0     H99445   7.248   6.820  10.493  1.2141  1.8162 -0.2439
  737MOL0     H99446   7.093   6.783  10.856  0.6079  1.7517 -1.2548
  737MOL0     H99447   6.932   6.433  10.876  0.8615  0.1009  3.6345
  737MOL0     H99448   7.024   6.550  10.978  1.4412 -0.8468 -0.5065
  737MOL0     H99449   6.773   6.624  10.828  0.1818  0.4948 -0.2873
  737MOL0     H99450   6.849   6.705  10.965 -0.6170  0.4015 -2.8268
  737MOL0     H99451   6.766   6.522  11.114  2.1305 -0.1496  0.2684
  737MOL0     H99452   6.715   6.438  10.964 -3.2282  1.7100 -0.9937
  737MOL0     H99453   6.540   6.606  10.916  2.9974 -2.0241 -1.4467
  737MOL0     H99454   6.590   6.702  11.045 -0.8534  0.4828 -2.0676
  737MOL0     H99455   6.360   6.378  11.265  1.3587 -1.8991  1.4953
  737MOL0     H99456   6.252   6.043  11.248  1.6739 -0.7543 -0.6396
  737MOL0     H99457   6.400   6.068  11.340 -1.4378 -1.5471  2.5071
  737MOL0     H99458   6.272   6.191  11.347 -0.3934  0.5678 -0.6654
  737MOL0     H99459   6.530   5.736  11.067 -0.4161  0.2862 -0.6480
  737MOL0     H99460   6.516   5.487  11.050 -0.6345 -0.4579 -0.8326
  737MOL0     H99461   6.120   5.323  11.045  1.2946  2.4994 -1.2291
  737MOL0     H99462   6.182   5.198  10.937  0.6992  0.1155 -0.7786
  737MOL0     H99463   6.200   5.112  11.162 -1.1682  0.6413  2.8369
  737MOL0     H99464   6.367   5.174  11.119  0.7418  2.7345  0.2134
  737MOL0     H99465   6.137   5.271  11.293 -1.0590 -0.9602 -2.1622
  737MOL0     H99466   6.240   5.399  11.227 -1.2612 -0.0857 -1.7898
  737MOL0     H99467   6.321   5.313  11.456  3.4354  0.9198  0.5388
  737MOL0     H99468   6.377   5.170  11.370 -0.3194  0.4157 -1.9514
  737MOL0     H99469   6.473   5.447  11.304 -1.1686 -0.9438  0.8993
  737MOL0     H99470   6.529   5.296  11.234 -0.2756  0.4517  0.0835
  737MOL0     H99471   6.622   5.230  11.462 -1.5328 -1.0744 -1.3438
  737MOL0     H99472   6.687   5.374  11.387 -0.5485  2.0934 -0.4155
  737MOL0     H99473   6.464   5.416  11.598  1.0326  1.7327  2.1621
  737MOL0     H99474   6.571   5.528  11.513  1.1258  1.0941  4.1312
  737MOL0     H99475   6.725   5.324  11.640 -1.1792 -1.4788 -0.6323
  737MOL0     H99476   6.642   5.441  11.767  3.2310  3.2139  0.5595
  737MOL0     H99477   6.096   5.532  10.947 -1.7929  2.0700  2.2407
  737MOL0     H99478   6.107   5.763  10.994 -1.1676 -1.1269 -1.8406
  737MOL0     H99479   6.458   6.167  10.826 -2.3147 -0.0648 -0.5581
  737MOL0     H99480   6.504   6.390  10.849  0.5472 -0.8736  0.3194
  737MOL0     H99481   7.838   7.654  10.483  0.0915  1.8814 -0.5403
  737MOL0     H99482   7.992   7.763  10.621  0.3733  1.4040  0.3325
  737MOL0     H99483   8.168   8.106  10.882  0.3717 -1.1702 -0.9485
  737MOL0     H99484   8.374   8.182  11.017  0.8437 -0.2484 -0.7847
  737MOL0     H99485   8.569   7.911  11.312 -2.6952  0.3846 -0.8877
  737MOL0     H99486   8.613   7.888  11.144 -3.0494 -0.8310  0.6056
  737MOL0     H99487   8.712   8.112  11.327 -2.6659  0.4388 -2.0488
  737MOL0     H99488   8.747   8.117  11.159 -1.3022  2.2872  2.4028
  737MOL0     H99489   8.836   7.864  11.318  0.0345  0.7288  3.6353
  737MOL0     H99490   8.918   8.021  11.342 -0.2996  0.4012 -0.9377
  737MOL0     H99491   8.940   8.039  11.092 -1.6624  1.1559  1.8797
  737MOL0     H99492   8.875   7.878  11.080 -0.1869 -0.8160  1.4355
  737MOL0     H99493   9.245   7.764  11.256  0.0604  1.3005  2.8643
  737MOL0     H99494   8.376   7.817  11.223 -0.8841  0.6177  1.1187
  737MOL0     H99495   8.183   7.727  11.095  2.1625 -1.0050  0.2637
  738MOL0     O99496   0.563   1.934   2.535 -0.2240  0.0403 -0.5553
  738MOL0     C99497   0.643   1.952   2.441 -0.5143 -0.1617 -0.2560
  738MOL0     O99498   0.776   2.015   2.450  0.0516  0.7433 -0.3172
  738MOL0     C99499   0.845   2.013   2.568 -0.0626  0.0629 -0.8218
  738MOL0     C99500   0.988   2.009   2.554  0.1635 -0.5949  0.0867
  738MOL0     C99501   1.075   2.020   2.670 -0.3473 -0.4037  0.1885
  738MOL0     C99502   1.023   2.023   2.808  0.0255 -1.0133  1.2982
  738MOL0     O99503   1.100   2.035   2.918 -1.4223  0.0217 -0.0247
  738MOL0     C99504   1.070   2.135   3.019  0.2438  0.4962  0.2414
  738MOL0     C99505   1.094   2.079   3.159  0.4105  0.0930 -0.3841
  738MOL0     C99506   1.116   2.188   3.267  0.8215  0.2542 -0.7695
  738MOL0     C99507   1.155   2.123   3.407  0.4835 -0.1790 -0.6286
  738MOL0     C99508   1.172   2.221   3.518  0.4576  0.2897  0.7744
  738MOL0     C99509   1.217   2.164   3.656  0.6232 -0.0875  1.1796
  738MOL0     C99510   1.367   2.116   3.641  1.2175 -0.0800  0.3418
  738MOL0     C99511   1.477   2.212   3.605  0.2512  0.9475  1.4571
  738MOL0     N99512   1.595   2.137   3.572  0.6509  0.2032 -0.5250
  738MOL0     C99513   1.628   2.019   3.630  0.4931 -0.0259  0.3962
  738MOL0     C99514   1.733   1.980   3.550  0.0018  0.7830  0.5224
  738MOL0     C99515   1.814   1.858   3.565  0.8221  0.1266 -0.4208
  738MOL0     C99516   1.716   1.741   3.606  0.2481 -0.0845 -0.2692
  738MOL0     C99517   1.796   1.605   3.620 -0.2673 -0.0383  0.7776
  738MOL0     C99518   1.703   1.487   3.652  0.6102 -0.1530 -0.1110
  738MOL0     O99519   1.595   1.472   3.549 -0.0049 -0.0751 -0.0664
  738MOL0     C99520   1.460   1.470   3.573 -0.3024 -0.1008  0.2497
  738MOL0     C99521   1.395   1.469   3.699 -0.2200  0.3904 -0.8195
  738MOL0     C99522   1.251   1.445   3.711 -0.2675 -0.6307 -1.3072
  738MOL0     C99523   1.196   1.446   3.847 -0.5837 -0.4564  0.1558
  738MOL0     C99524   1.171   1.433   3.596 -0.7029 -0.3846 -0.5619
  738MOL0     C99525   1.024   1.413   3.608  0.4679 -0.4604  0.1945
  738MOL0     O99526   0.962   1.468   3.499 -0.8997 -0.1623  0.1557
  738MOL0     C99527   0.832   1.434   3.466  0.3109 -0.4054  0.2568
  738MOL0     C99528   0.725   1.424   3.559  0.1728 -0.4756  0.0341
  738MOL0     C99529   0.595   1.402   3.509 -0.6624  0.3408  0.5623
  738MOL0     C99530   0.572   1.377   3.372  0.7811 -0.4350 -0.2074
  738MOL0     O99531   0.451   1.324   3.335  0.1475  0.1595  0.3957
  738MOL0     C99532   0.395   1.350   3.200  0.6968  0.4531 -0.6543
  738MOL0     C99533   0.365   1.495   3.189  0.2388  0.3865  0.4915
  738MOL0     C99534   0.264   1.554   3.275 -0.6162  0.3018 -0.5786
  738MOL0     C99535   0.303   1.715   3.292 -0.1171  0.3182  0.2333
  738MOL0     C99536   0.196   1.758   3.387 -0.0322 -0.2278  0.5799
  738MOL0     C99537   0.168   1.904   3.371 -0.0728 -0.1646  0.5063
  738MOL0     C99538   0.287   2.005   3.351 -0.7317 -0.3573  1.1202
  738MOL0     C99539   0.247   2.148   3.383  0.0117 -0.1203 -0.7643
  738MOL0    Cl99540   0.237   2.155   3.561 -0.3624 -0.2798  0.0897
  738MOL0     C99541   0.674   1.395   3.284 -0.1879  0.0949  0.3257
  738MOL0     C99542   0.810   1.433   3.333  1.3604 -0.3498  0.5740
  738MOL0     O99543   0.971   1.332   3.692 -0.5822 -0.2793  0.2837
  738MOL0     C99544   1.231   1.460   3.472 -0.1028  0.7342 -0.6965
  738MOL0     C99545   1.375   1.465   3.461  1.0727  0.4225  0.4017
  738MOL0     N99546   1.750   2.065   3.445  0.5600 -0.9037 -0.1973
  738MOL0     N99547   1.671   2.166   3.464  1.0319  0.4914 -0.2094
  738MOL0     C99548   0.881   2.025   2.815  0.4634  0.7924  0.5288
  738MOL0     C99549   0.799   2.018   2.707 -0.1833 -0.1454 -0.1323
  738MOL0     C99550   0.590   1.953   2.298  1.3173  0.1434  0.5110
  738MOL0     C99551   0.465   1.881   2.282 -0.6146 -0.3407  0.3106
  738MOL0     C99552   0.415   1.882   2.151  0.8452 -0.9085 -0.0710
  738MOL0     C99553   0.480   1.936   2.041 -0.1738  0.9208 -0.4775
  738MOL0     O99554   0.412   1.929   1.922 -0.0888 -1.0076  0.0275
  738MOL0     C99555   0.484   1.927   1.799 -0.0307 -0.9862  0.6905
  738MOL0     C99556   0.397   1.941   1.671 -0.4740  0.6679  0.5170
  738MOL0     C99557   0.351   2.088   1.658 -0.0900  0.5262 -0.3304
  738MOL0     C99558   0.275   2.137   1.533  0.2134  0.2268 -0.2125
  738MOL0     C99559   0.154   2.056   1.517 -0.7084 -0.4766  0.6637
  738MOL0     C99560   0.067   1.973   1.499  0.2856 -0.1102 -0.2733
  738MOL0     C99561   0.613   1.982   2.059 -0.1506  0.5903 -0.9417
  738MOL0     C99562   0.668   1.990   2.187  0.3004 -0.2587 -0.4268
  738MOL0     H99563   1.035   2.007   2.456 -1.1444 -4.9340 -0.6803
  738MOL0     H99564   1.182   2.011   2.654 -0.1115  1.6258  0.3766
  738MOL0     H99565   1.142   2.217   3.011  0.6079  0.2477  0.9506
  738MOL0     H99566   0.973   2.185   3.006  0.1703 -0.0647 -1.6450
  738MOL0     H99567   1.001   2.027   3.186 -0.4237  0.5586 -2.1760
  738MOL0     H99568   1.174   2.004   3.152  1.2591  0.9377  0.0697
  738MOL0     H99569   1.194   2.257   3.234  1.7258 -0.8713 -1.0822
  738MOL0     H99570   1.024   2.244   3.285  2.5661  3.3773 -0.9788
  738MOL0     H99571   1.076   2.051   3.429 -1.3944  1.5714 -1.3534
  738MOL0     H99572   1.252   2.074   3.390  0.6205  0.4199 -1.6305
  738MOL0     H99573   1.241   2.299   3.486  0.5519  0.4525  1.3630
  738MOL0     H99574   1.073   2.262   3.542 -0.0619  0.0353 -0.7985
  738MOL0     H99575   1.212   2.238   3.736  0.7241 -1.1627  2.2172
  738MOL0     H99576   1.143   2.086   3.678 -0.6178 -0.1963 -2.6133
  738MOL0     H99577   1.388   2.085   3.743 -1.2385 -0.7251  0.7248
  738MOL0     H99578   1.367   2.021   3.587 -2.9635 -0.9004  1.3952
  738MOL0     H99579   1.494   2.282   3.688 -0.2515  1.6025  1.0192
  738MOL0     H99580   1.450   2.279   3.522 -0.0623 -1.5502 -0.5820
  738MOL0     H99581   1.593   1.963   3.716  1.1370 -1.6875 -0.3898
  738MOL0     H99582   1.874   1.831   3.478  1.8397  1.5483 -0.1938
  738MOL0     H99583   1.896   1.864   3.638  2.1611 -0.5057 -1.8091
  738MOL0     H99584   1.642   1.735   3.526  0.6255 -2.9857 -0.5082
  738MOL0     H99585   1.668   1.752   3.703 -0.0258 -6.2390  0.6917
  738MOL0     H99586   1.874   1.618   3.695  0.3055  3.2354 -0.2107
  738MOL0     H99587   1.844   1.577   3.525 -1.1954 -1.8161  0.7876
  738MOL0     H99588   1.661   1.508   3.750 -0.0366 -2.0128  0.0419
  738MOL0     H99589   1.749   1.388   3.659  0.4071 -0.1983  0.5910
  738MOL0     H99590   1.462   1.489   3.782  0.6150  0.4752 -1.4960
  738MOL0     H99591   1.270   1.453   3.927  0.2784 -3.3218 -0.2873
  738MOL0     H99592   1.127   1.528   3.867 -0.6080 -0.4821  0.1774
  738MOL0     H99593   1.145   1.350   3.856  3.1014 -2.7594 -1.4619
  738MOL0     H99594   0.737   1.431   3.667 -3.3225  2.1177  0.4340
  738MOL0     H99595   0.506   1.404   3.571 -1.7454  1.1041 -0.9462
  738MOL0     H99596   0.457   1.311   3.119  1.5076  0.7667 -0.2017
  738MOL0     H99597   0.298   1.298   3.200 -1.1172  3.5538  1.2007
  738MOL0     H99598   0.452   1.561   3.188 -0.5207  1.4186 -1.1267
  738MOL0     H99599   0.320   1.501   3.090  0.8004 -0.1891  0.1930
  738MOL0     H99600   0.270   1.509   3.374 -0.0917  1.0737 -0.2519
  738MOL0     H99601   0.162   1.549   3.236 -0.9475  1.9418  0.0084
  738MOL0     H99602   0.404   1.737   3.327 -1.3611  2.6988  2.6996
  738MOL0     H99603   0.291   1.755   3.191  1.6257  1.0673  0.2782
  738MOL0     H99604   0.230   1.752   3.491  1.3955  0.6364  0.2046
  738MOL0     H99605   0.104   1.700   3.388 -1.3660  1.7690 -0.3673
  738MOL0     H99606   0.098   1.907   3.286  2.4054 -4.2118 -2.0351
  738MOL0     H99607   0.121   1.941   3.462 -0.7713 -0.5002  0.2881
  738MOL0     H99608   0.320   1.991   3.248 -2.8583  1.2774  0.1419
  738MOL0     H99609   0.374   1.979   3.412  0.8406  1.9956  0.0088
  738MOL0     H99610   0.156   2.166   3.326  0.6512 -0.5319 -1.9363
  738MOL0     H99611   0.332   2.208   3.349  0.9134  0.3011  1.9732
  738MOL0     H99612   0.660   1.388   3.177 -2.0451  1.6026  0.4097
  738MOL0     H99613   0.889   1.453   3.262  2.1255  0.4016  1.6098
  738MOL0     H99614   1.180   1.459   3.377  0.7527  1.3659 -1.1756
  738MOL0     H99615   1.420   1.465   3.362 -1.1492  0.0076 -0.6580
  738MOL0     H99616   0.837   2.026   2.915  0.2805  3.6616  0.4873
  738MOL0     H99617   0.694   2.029   2.733  0.3499  1.0536  1.7150
  738MOL0     H99618   0.433   1.814   2.361 -0.0967 -0.0095  0.8107
  738MOL0     H99619   0.323   1.835   2.117  1.6061 -1.0063 -2.1695
  738MOL0     H99620   0.564   2.001   1.798  3.2233 -4.0063  4.2371
  738MOL0     H99621   0.535   1.831   1.796  2.4132  0.1282  2.8655
  738MOL0     H99622   0.316   1.868   1.670  0.4637 -0.5270  3.0297
  738MOL0     H99623   0.466   1.912   1.591 -0.8697 -1.4576  0.8929
  738MOL0     H99624   0.440   2.151   1.658  0.8236 -0.6965  1.0901
  738MOL0     H99625   0.296   2.105   1.751  0.3078 -0.6727  0.1442
  738MOL0     H99626   0.328   2.132   1.437 -0.7844  0.2518 -0.7859
  738MOL0     H99627   0.250   2.236   1.570  0.7254 -0.4792  2.2015
  738MOL0     H99628  -0.015   1.905   1.488 -0.4432  0.1734  2.6332
  738MOL0     H99629   0.666   2.021   1.973  0.6678 -0.5979 -0.9914
  738MOL0     H99630   0.767   2.031   2.206 -0.2359  0.2485  1.5662
  739MOL0     O99631   1.943   6.918   7.776 -0.5895  0.2949  0.2411
  739MOL0     C99632   1.982   6.837   7.690 -1.1375  0.2323  0.4202
  739MOL0     O99633   1.906   6.774   7.594 -1.0024 -0.6325  0.5616
  739MOL0     C99634   1.774   6.780   7.606  0.1638  0.8634 -0.3375
  739MOL0     C99635   1.699   6.784   7.490 -0.4577 -0.0583 -0.2637
  739MOL0     C99636   1.560   6.780   7.501  0.3749 -0.0776 -0.4321
  739MOL0     C99637   1.492   6.773   7.626  0.5645  0.0946 -0.1006
  739MOL0     O99638   1.355   6.766   7.657 -0.0532 -1.3701 -0.2667
  739MOL0     C99639   1.260   6.777   7.546  0.0474 -0.5129 -0.0716
  739MOL0     C99640   1.251   6.650   7.464  0.6150 -0.9153 -0.7084
  739MOL0     C99641   1.139   6.564   7.517  0.0530  0.6851 -0.5389
  739MOL0     C99642   1.016   6.580   7.426  0.4486  0.1865  0.4178
  739MOL0     C99643   0.887   6.527   7.479  0.0832  0.3912  0.3862
  739MOL0     C99644   0.870   6.372   7.462  0.3397 -0.3841 -0.3244
  739MOL0     C99645   0.722   6.338   7.483  0.3311 -0.1904 -0.0795
  739MOL0     C99646   0.667   6.378   7.619  0.3285  0.2071 -0.1103
  739MOL0     N99647   0.524   6.330   7.619 -0.8934  0.2672 -0.1786
  739MOL0     C99648   0.470   6.268   7.726  0.0084  0.7011 -0.5884
  739MOL0     C99649   0.348   6.257   7.691 -0.3284 -0.2236  0.8633
  739MOL0     C99650   0.243   6.188   7.771  0.3723 -0.5088 -0.5784
  739MOL0     C99651   0.198   6.052   7.734 -0.1986 -0.0749  0.8976
  739MOL0     C99652   0.151   6.052   7.586  0.0607  0.1817 -0.2090
  739MOL0     C99653   0.079   5.921   7.547  0.5447 -0.0700 -0.9555
  739MOL0     O99654   0.003   5.940   7.424 -0.1779 -0.1944 -0.4675
  739MOL0     C99655  -0.064   5.834   7.369  0.4582 -0.3985 -0.3529
  739MOL0     C99656  -0.131   5.870   7.259 -0.9422  0.6863 -0.3519
  739MOL0     C99657  -0.201   5.782   7.177 -0.5151  0.5323  0.3744
  739MOL0     C99658  -0.275   5.833   7.056 -0.1791  0.0857  0.1477
  739MOL0     C99659  -0.212   5.646   7.225 -0.2044  0.8169 -0.0644
  739MOL0     C99660  -0.280   5.525   7.161  0.4966 -0.7555  0.4804
  739MOL0     O99661  -0.246   5.397   7.207 -0.4845  0.2295  0.2096
  739MOL0     C99662  -0.334   5.299   7.184  0.8702  0.3590  1.2535
  739MOL0     C99663  -0.293   5.188   7.110  1.0195  0.3730 -0.4350
  739MOL0     C99664  -0.379   5.079   7.088  0.2680 -0.8897  0.9621
  739MOL0     C99665  -0.510   5.087   7.131 -0.4492  1.2045 -0.0119
  739MOL0     O99666  -0.608   4.995   7.099  0.1589  0.0714  0.6263
  739MOL0     C99667  -0.570   4.876   7.031  0.9910  0.3336 -0.6727
  739MOL0     C99668  -0.691   4.788   7.057  0.0924 -0.3493 -0.0106
  739MOL0     C99669  -0.702   4.650   6.999  1.3818 -0.2408 -0.2021
  739MOL0     C99670  -0.653   4.640   6.850  0.1291  0.0964 -0.3980
  739MOL0     C99671  -0.698   4.506   6.800 -0.4269  0.4092 -0.4511
  739MOL0     C99672  -0.596   4.386   6.816  0.5399  0.1380 -0.3500
  739MOL0     C99673  -0.663   4.256   6.875  0.1263 -0.1797 -0.0998
  739MOL0     C99674  -0.545   4.166   6.925  0.5286  0.3034 -0.3565
  739MOL0    Cl99675  -0.429   4.127   6.793  0.2192  0.0834  0.0944
  739MOL0     C99676  -0.554   5.190   7.209  0.4004 -0.1652 -0.3506
  739MOL0     C99677  -0.464   5.296   7.244 -0.2182  0.0510  0.7213
  739MOL0     O99678  -0.342   5.548   7.061  0.2972  0.2109 -0.3111
  739MOL0     C99679  -0.143   5.611   7.345 -0.3282  0.4051  1.1601
  739MOL0     C99680  -0.068   5.704   7.418  0.7180  0.6826  0.8342
  739MOL0     N99681   0.322   6.321   7.580 -0.1933  0.6244 -0.0380
  739MOL0     N99682   0.429   6.360   7.532  0.0158  0.1782  0.1762
  739MOL0     C99683   1.569   6.772   7.741 -0.4006  0.0640 -0.8074
  739MOL0     C99684   1.708   6.760   7.733  0.3900  0.6352  0.4127
  739MOL0     C99685   2.131   6.815   7.680 -0.4012 -0.3107 -0.4703
  739MOL0     C99686   2.189   6.722   7.588 -0.4678 -0.4280 -0.4272
  739MOL0     C99687   2.323   6.708   7.574 -0.1378  0.1174  0.4833
  739MOL0     C99688   2.409   6.791   7.641  0.4621 -0.2986  0.0889
  739MOL0     O99689   2.547   6.781   7.624 -0.2505 -0.2398 -0.4082
  739MOL0     C99690   2.630   6.906   7.637  0.2697  0.5887 -0.1117
  739MOL0     C99691   2.752   6.887   7.559 -0.1183  0.0757 -0.0438
  739MOL0     C99692   2.827   7.015   7.545  0.1677  0.0374 -0.6390
  739MOL0     C99693   2.979   6.990   7.504 -0.0401  0.5204 -0.0631
  739MOL0     C99694   2.988   6.989   7.358 -0.1174 -0.9312 -0.3681
  739MOL0     C99695   2.993   6.984   7.234 -0.2380 -0.1346 -0.1338
  739MOL0     C99696   2.361   6.879   7.738 -0.8171  0.3719  1.1225
  739MOL0     C99697   2.221   6.896   7.752 -0.0548 -0.3647  0.0960
  739MOL0     H99698   1.757   6.779   7.399  1.5495 -0.0710  0.9521
  739MOL0     H99699   1.496   6.791   7.414  0.7362  1.4766 -0.5224
  739MOL0     H99700   1.163   6.808   7.587 -0.0031 -1.2893  0.4314
  739MOL0     H99701   1.301   6.857   7.484 -1.2211  1.6768  1.7573
  739MOL0     H99702   1.241   6.686   7.362 -2.4038 -3.1118 -1.3545
  739MOL0     H99703   1.346   6.595   7.461  0.1985 -1.7805  0.6214
  739MOL0     H99704   1.171   6.462   7.496 -1.0220  0.1033  0.5762
  739MOL0     H99705   1.115   6.562   7.623 -0.7834  1.4659 -0.7055
  739MOL0     H99706   0.999   6.687   7.410  2.4259  0.4600 -0.1418
  739MOL0     H99707   1.030   6.544   7.323 -1.6523  2.3496 -0.7355
  739MOL0     H99708   0.883   6.548   7.586  1.6376 -0.7382  0.6899
  739MOL0     H99709   0.803   6.586   7.439 -2.0577 -1.8523  1.2990
  739MOL0     H99710   0.905   6.339   7.365 -0.2078 -0.5008 -0.4891
  739MOL0     H99711   0.927   6.313   7.534 -0.0241 -4.5151 -3.0895
  739MOL0     H99712   0.677   6.379   7.392  0.7981  0.0805 -0.1964
  739MOL0     H99713   0.722   6.229   7.483  1.7457 -0.2421 -1.4947
  739MOL0     H99714   0.663   6.486   7.635 -1.5700  0.5804 -2.5412
  739MOL0     H99715   0.726   6.327   7.696  0.4233  0.9342  0.3098
  739MOL0     H99716   0.527   6.232   7.811 -1.1101 -1.5424 -0.7056
  739MOL0     H99717   0.275   6.177   7.875 -2.1288 -1.4190  0.1724
  739MOL0     H99718   0.152   6.250   7.776  0.9102  0.3515 -1.2665
  739MOL0     H99719   0.119   6.013   7.799 -2.5810  0.8235 -1.2948
  739MOL0     H99720   0.283   5.984   7.716  3.7793  4.6978 -0.7350
  739MOL0     H99721   0.237   6.057   7.519  0.2714  3.1072  0.1540
  739MOL0     H99722   0.091   6.141   7.565  0.6651  0.7856  0.5887
  739MOL0     H99723   0.025   5.884   7.635  0.1484  1.9060 -0.3088
  739MOL0     H99724   0.156   5.845   7.528  1.0972 -0.1508  1.3463
  739MOL0     H99725  -0.136   5.974   7.229 -0.8804  1.2715  1.5636
  739MOL0     H99726  -0.381   5.849   7.078 -0.2225  0.5548 -0.3872
  739MOL0     H99727  -0.226   5.928   7.033  3.1863  0.0706  5.5846
  739MOL0     H99728  -0.265   5.767   6.969  2.2999  1.4707 -0.6935
  739MOL0     H99729  -0.189   5.175   7.080  1.1474 -0.9798  0.4919
  739MOL0     H99730  -0.328   4.999   7.035  0.1093 -1.4286  1.6009
  739MOL0     H99731  -0.556   4.891   6.923  0.0252  1.1231 -0.6992
  739MOL0     H99732  -0.480   4.824   7.066  0.1458 -1.2305 -0.7623
  739MOL0     H99733  -0.714   4.780   7.164  0.0871  1.8394  0.1899
  739MOL0     H99734  -0.774   4.840   7.010  0.6449 -1.5552 -2.4717
  739MOL0     H99735  -0.808   4.629   6.985  1.9444 -3.4892 -0.4287
  739MOL0     H99736  -0.657   4.579   7.069 -0.4966 -1.7812 -0.4652
  739MOL0     H99737  -0.700   4.722   6.796  1.7274  0.5952 -1.0672
  739MOL0     H99738  -0.545   4.655   6.841  0.2443  0.0884  0.7421
  739MOL0     H99739  -0.713   4.520   6.693 -1.4928 -2.5172 -0.7705
  739MOL0     H99740  -0.798   4.474   6.831 -0.9356  0.4879 -1.9472
  739MOL0     H99741  -0.557   4.361   6.717  0.2168 -1.4094 -0.1148
  739MOL0     H99742  -0.511   4.413   6.879  0.1502 -1.0045  0.7105
  739MOL0     H99743  -0.719   4.213   6.792 -1.4001  3.2947 -1.0834
  739MOL0     H99744  -0.731   4.265   6.961  0.7805 -0.4272  0.4471
  739MOL0     H99745  -0.587   4.067   6.944 -0.2809  0.9204  1.2302
  739MOL0     H99746  -0.488   4.221   7.001  0.9196 -0.5475 -0.0249
  739MOL0     H99747  -0.650   5.189   7.262  1.1058 -1.5436  0.9793
  739MOL0     H99748  -0.496   5.371   7.316 -0.9977 -0.1360  0.5834
  739MOL0     H99749  -0.144   5.510   7.385  0.3608  0.2237  0.7326
  739MOL0     H99750  -0.007   5.685   7.506  3.8353  5.2725 -0.0419
  739MOL0     H99751   1.531   6.764   7.842  1.4470 -2.3201 -0.2203
  739MOL0     H99752   1.771   6.753   7.821  1.6284 -0.5239 -0.5307
  739MOL0     H99753   2.136   6.651   7.526 -0.5795  1.3152 -2.4703
  739MOL0     H99754   2.374   6.642   7.504  2.7365 -0.4762  2.9660
  739MOL0     H99755   2.578   6.997   7.604 -1.0981 -0.6259 -1.5058
  739MOL0     H99756   2.641   6.926   7.744 -1.7599  4.2800 -0.4189
  739MOL0     H99757   2.732   6.856   7.456 -2.1143  0.4891  0.1845
  739MOL0     H99758   2.806   6.804   7.606  0.4771  0.9519  0.8613
  739MOL0     H99759   2.834   7.070   7.639  2.7568  2.9260 -2.3164
  739MOL0     H99760   2.777   7.085   7.476 -0.0673  0.7608  0.2463
  739MOL0     H99761   3.019   6.896   7.543 -0.3039  1.0399  1.5161
  739MOL0     H99762   3.045   7.071   7.534  1.9076 -1.8105  2.4171
  739MOL0     H99763   2.983   6.958   7.131 -3.7180  0.0994  0.0385
  739MOL0     H99764   2.438   6.938   7.787  0.8010 -1.0610  0.4458
  739MOL0     H99765   2.196   6.970   7.827  1.5061 -0.3319  0.6178
  740MOL0     O99766   6.301   3.839   3.355 -0.2937  0.2281 -0.1754
  740MOL0     C99767   6.345   3.725   3.338 -0.1834 -0.9200  0.5190
  740MOL0     O99768   6.270   3.617   3.296  0.3585  0.2238 -0.8513
  740MOL0     C99769   6.138   3.640   3.284  0.5529  0.5063  0.3291
  740MOL0     C99770   6.078   3.602   3.167  0.6271  0.9886  0.5465
  740MOL0     C99771   5.942   3.603   3.149 -0.1260  0.4218 -0.2277
  740MOL0     C99772   5.854   3.642   3.261 -0.0472  0.3714  0.5258
  740MOL0     O99773   5.721   3.638   3.234  0.3276 -0.2225  0.8044
  740MOL0     C99774   5.626   3.676   3.341  0.2738  0.9244  0.2656
  740MOL0     C99775   5.492   3.661   3.271  0.5577 -0.0491  0.2850
  740MOL0     C99776   5.381   3.700   3.369 -0.2430 -0.6221 -1.1268
  740MOL0     C99777   5.252   3.624   3.341 -0.3483  0.0254 -0.1325
  740MOL0     C99778   5.183   3.698   3.224  0.0241  0.1147 -0.0427
  740MOL0     C99779   5.038   3.649   3.205  0.7109  0.1592  0.7055
  740MOL0     C99780   5.035   3.518   3.114 -0.0773  0.5141 -0.0032
  740MOL0     C99781   5.072   3.550   2.969  0.0455 -0.4345  0.3366
  740MOL0     N99782   5.070   3.438   2.867 -0.3964 -0.0568 -0.3688
  740MOL0     C99783   4.950   3.415   2.798  0.1304 -0.2681  0.1027
  740MOL0     C99784   4.963   3.289   2.753  0.0653 -0.4121 -0.3486
  740MOL0     C99785   4.860   3.206   2.688 -0.0949 -0.5685 -0.3706
  740MOL0     C99786   4.723   3.222   2.746 -0.3666  0.3878 -0.0108
  740MOL0     C99787   4.640   3.107   2.675 -0.1330  0.3564  0.1287
  740MOL0     C99788   4.502   3.088   2.729  0.5334  1.3730  0.5400
  740MOL0     O99789   4.431   3.218   2.751  0.4654  0.7186 -0.0140
  740MOL0     C99790   4.347   3.263   2.648  0.5252  0.4908  0.2807
  740MOL0     C99791   4.250   3.172   2.597 -0.0413  0.6876 -0.1238
  740MOL0     C99792   4.174   3.206   2.482  0.4097  0.2848  0.3131
  740MOL0     C99793   4.067   3.106   2.437  0.0009 -0.0128 -0.5515
  740MOL0     C99794   4.178   3.335   2.429 -0.4157 -0.1120  0.9096
  740MOL0     C99795   4.088   3.393   2.312 -0.1317  0.2270 -0.2899
  740MOL0     O99796   4.122   3.516   2.265  0.0469 -0.3384 -0.0401
  740MOL0     C99797   4.081   3.553   2.137 -0.0683 -0.4755  0.4122
  740MOL0     C99798   4.034   3.469   2.032 -0.2079  0.2541 -0.5766
  740MOL0     C99799   3.994   3.521   1.914  0.4792  0.0558 -1.0320
  740MOL0     C99800   3.987   3.656   1.896 -0.1463 -1.1134  0.9116
  740MOL0     O99801   3.935   3.714   1.777 -0.0276 -0.2849  0.0058
  740MOL0     C99802   3.806   3.775   1.802 -0.4658 -0.1457  0.0074
  740MOL0     C99803   3.692   3.677   1.769  0.0146  1.2070 -0.2956
  740MOL0     C99804   3.553   3.749   1.749 -0.3780  0.1023 -0.4583
  740MOL0     C99805   3.443   3.657   1.696  0.1596 -0.3189  0.7638
  740MOL0     C99806   3.325   3.748   1.662  0.3722  0.0279 -0.2841
  740MOL0     C99807   3.216   3.687   1.569 -0.8771 -0.3069  0.0130
  740MOL0     C99808   3.174   3.545   1.620  0.6914 -0.8656 -0.0782
  740MOL0     C99809   3.066   3.489   1.529 -1.0902 -1.1679  0.2947
  740MOL0    Cl99810   3.023   3.323   1.530 -0.2276  0.1898  0.3292
  740MOL0     C99811   4.044   3.740   1.990 -0.2587 -0.7305 -0.6911
  740MOL0     C99812   4.095   3.688   2.106 -0.3869  0.3666  1.0179
  740MOL0     O99813   4.000   3.322   2.274  0.1202  0.3192  0.5704
  740MOL0     C99814   4.264   3.428   2.487  0.1662 -0.6512  0.1246
  740MOL0     C99815   4.355   3.387   2.589 -0.0040 -0.8434 -0.1473
  740MOL0     N99816   5.076   3.233   2.804 -0.9636  0.5611  1.2284
  740MOL0     N99817   5.148   3.320   2.871 -1.0260 -0.2003  0.9244
  740MOL0     C99818   5.923   3.685   3.379 -0.3223  0.5144  0.6268
  740MOL0     C99819   6.064   3.684   3.389  0.3397  0.6580  0.0074
  740MOL0     C99820   6.487   3.705   3.368  0.2781  0.3132 -0.3654
  740MOL0     C99821   6.543   3.793   3.452 -0.3943 -0.0325  0.1678
  740MOL0     C99822   6.677   3.779   3.506  0.0606 -1.0052  0.0385
  740MOL0     C99823   6.750   3.664   3.469 -0.3637  0.4877 -0.6109
  740MOL0     O99824   6.872   3.663   3.524  0.3222  0.0998  0.5925
  740MOL0     C99825   6.974   3.563   3.477 -0.0232 -0.8695  0.5020
  740MOL0     C99826   7.122   3.601   3.519  1.1123  0.2999 -0.7171
  740MOL0     C99827   7.220   3.497   3.463 -0.5243  0.2271  0.0431
  740MOL0     C99828   7.359   3.520   3.528  1.0281  0.0941 -0.6005
  740MOL0     C99829   7.418   3.658   3.505  1.7677 -0.5301 -0.7788
  740MOL0     C99830   7.457   3.768   3.481  0.6090 -0.5686  0.4138
  740MOL0     C99831   6.691   3.568   3.380  0.9776  0.2175  0.9263
  740MOL0     C99832   6.557   3.585   3.331  0.4990 -0.0549  0.2641
  740MOL0     H99833   6.142   3.572   3.085  1.1172  0.4590  1.1092
  740MOL0     H99834   5.911   3.571   3.049  3.1548  1.5126 -1.7407
  740MOL0     H99835   5.628   3.608   3.427  0.8540 -0.5417 -0.8530
  740MOL0     H99836   5.652   3.777   3.372  0.9267  1.6884 -2.5225
  740MOL0     H99837   5.472   3.721   3.181 -1.2844  0.5754  1.0612
  740MOL0     H99838   5.488   3.557   3.238 -1.4460 -0.1041  0.5962
  740MOL0     H99839   5.417   3.667   3.467  1.2544 -0.3296 -1.5412
  740MOL0     H99840   5.372   3.809   3.369  1.4464 -0.4262  0.3230
  740MOL0     H99841   5.263   3.516   3.323  3.5225  0.2967 -0.1046
  740MOL0     H99842   5.183   3.642   3.424 -0.0207  0.5942  0.0184
  740MOL0     H99843   5.178   3.806   3.235 -0.8220  0.5520 -3.5116
  740MOL0     H99844   5.252   3.687   3.139  0.7176 -1.8373  0.7006
  740MOL0     H99845   4.998   3.615   3.300  1.2051 -2.1364  0.1543
  740MOL0     H99846   4.973   3.730   3.171 -1.8651 -1.7638  0.7589
  740MOL0     H99847   5.102   3.436   3.142  1.6666  1.2466 -1.7554
  740MOL0     H99848   4.934   3.476   3.115  0.8858 -2.0222  0.9702
  740MOL0     H99849   5.173   3.593   2.968 -0.8255  2.1373  3.8212
  740MOL0     H99850   5.001   3.625   2.934 -3.0822 -2.4793  1.8844
  740MOL0     H99851   4.869   3.487   2.789 -1.3350 -1.5534  2.2979
  740MOL0     H99852   4.856   3.206   2.579  1.8753 -2.5699 -0.4955
  740MOL0     H99853   4.892   3.104   2.708 -0.3511 -0.8347 -1.2796
  740MOL0     H99854   4.676   3.321   2.742  0.0339  0.5771 -0.1171
  740MOL0     H99855   4.733   3.194   2.851 -2.8517 -2.1708 -0.3209
  740MOL0     H99856   4.687   3.009   2.683 -1.2228 -0.4204 -2.1815
  740MOL0     H99857   4.632   3.124   2.568  2.2264 -2.9956 -0.7418
  740MOL0     H99858   4.508   3.041   2.827 -1.3655 -1.0129 -0.3863
  740MOL0     H99859   4.447   3.016   2.667  1.4054 -0.3318  1.6769
  740MOL0     H99860   4.241   3.076   2.646 -0.7786  1.0823  0.5400
  740MOL0     H99861   4.077   3.005   2.477 -3.8375 -1.5627 -2.9323
  740MOL0     H99862   3.970   3.150   2.461 -1.0177 -2.0249 -0.7683
  740MOL0     H99863   4.059   3.083   2.330 -0.4829 -0.1819 -0.4837
  740MOL0     H99864   4.036   3.362   2.046  0.8889  0.3685  0.3451
  740MOL0     H99865   3.961   3.450   1.839  1.8971 -0.4234 -1.2295
  740MOL0     H99866   3.795   3.816   1.903  1.9177  0.6646 -0.0164
  740MOL0     H99867   3.811   3.862   1.735  2.1916 -0.3675 -0.1714
  740MOL0     H99868   3.717   3.628   1.675  2.2055  0.8475  0.4091
  740MOL0     H99869   3.676   3.610   1.854  0.7606 -0.2627 -1.2808
  740MOL0     H99870   3.569   3.832   1.679  2.6234 -1.2531 -1.5481
  740MOL0     H99871   3.523   3.778   1.850  1.1421 -2.4994  0.8294
  740MOL0     H99872   3.469   3.608   1.602 -2.2072  2.8056 -1.7854
  740MOL0     H99873   3.419   3.575   1.764  0.5887 -1.9937 -1.0294
  740MOL0     H99874   3.351   3.841   1.611 -0.2050  0.9657  1.0719
  740MOL0     H99875   3.264   3.768   1.751 -1.3358 -3.5713 -0.4633
  740MOL0     H99876   3.129   3.752   1.561 -1.9571 -1.4255  1.8022
  740MOL0     H99877   3.251   3.687   1.466  0.6874  1.6772  0.4896
  740MOL0     H99878   3.131   3.549   1.720  0.9965  5.2124  0.1944
  740MOL0     H99879   3.265   3.485   1.608  1.9556  0.7507  0.9079
  740MOL0     H99880   3.109   3.504   1.429 -2.5638 -0.6259 -0.2841
  740MOL0     H99881   2.973   3.546   1.538  0.3328  1.8312 -2.0210
  740MOL0     H99882   4.068   3.839   1.953 -1.0054 -1.2965 -2.8584
  740MOL0     H99883   4.164   3.748   2.165 -0.6453  2.3420 -0.5773
  740MOL0     H99884   4.293   3.529   2.461  2.8208 -1.3103  0.2031
  740MOL0     H99885   4.436   3.454   2.616  1.2206 -1.7252 -1.4556
  740MOL0     H99886   5.870   3.737   3.459 -2.9322 -1.0840  0.0592
  740MOL0     H99887   6.122   3.709   3.477  1.4005  1.7012 -0.9410
  740MOL0     H99888   6.487   3.878   3.487  1.0970  0.8115  0.6148
  740MOL0     H99889   6.733   3.863   3.547  1.7758 -0.7983 -2.4945
  740MOL0     H99890   6.957   3.475   3.540 -0.5600 -0.3449  1.1126
  740MOL0     H99891   6.971   3.547   3.369 -3.9482 -2.6092  0.7123
  740MOL0     H99892   7.117   3.601   3.629 -1.7670 -0.3631 -0.7799
  740MOL0     H99893   7.151   3.701   3.486 -0.2045  0.3511 -1.7801
  740MOL0     H99894   7.216   3.486   3.354 -3.6962 -3.4125  0.3175
  740MOL0     H99895   7.184   3.400   3.499  1.4819 -0.1708  1.0554
  740MOL0     H99896   7.429   3.442   3.494  2.6423  0.1144  2.3566
  740MOL0     H99897   7.343   3.503   3.635  0.5257  2.9431 -0.1377
  740MOL0     H99898   7.469   3.874   3.465 -2.1709 -0.3424 -0.6174
  740MOL0     H99899   6.745   3.476   3.361 -0.0604 -0.6200  1.8658
  740MOL0     H99900   6.505   3.518   3.264  0.9599 -0.4273  0.2765
  741MOL0     O99901   6.390   9.634   4.818  0.3920 -0.0996  0.3185
  741MOL0     C99902   6.379   9.664   4.702  0.5027 -0.2765 -0.1645
  741MOL0     O99903   6.486   9.691   4.624 -0.0863  0.3703 -0.1426
  741MOL0     C99904   6.611   9.737   4.669  0.5571 -0.1805 -0.1784
  741MOL0     C99905   6.644   9.802   4.792  0.2869  0.3361  0.4646
  741MOL0     C99906   6.778   9.827   4.821 -0.0095 -1.1402 -0.5187
  741MOL0     C99907   6.883   9.798   4.724  0.2827 -0.0831  0.3262
  741MOL0     O99908   7.019   9.815   4.757  0.2967  0.4928  0.1318
  741MOL0     C99909   7.128   9.802   4.659  0.7972 -0.8412 -0.8893
  741MOL0     C99910   7.258   9.744   4.712  1.4091 -0.0597  0.2062
  741MOL0     C99911   7.240   9.592   4.726  0.2499  0.0156 -0.1449
  741MOL0     C99912   7.364   9.545   4.799  1.3072 -1.2679  0.7242
  741MOL0     C99913   7.370   9.392   4.792  0.5206 -0.1929  0.0126
  741MOL0     C99914   7.258   9.304   4.852 -0.3807 -0.2719  0.0899
  741MOL0     C99915   7.279   9.149   4.838 -0.1997  0.4185 -0.3180
  741MOL0     C99916   7.233   9.117   4.697 -0.5389 -0.7212 -0.1831
  741MOL0     N99917   7.265   8.977   4.669  0.1899  0.4013  0.0187
  741MOL0     C99918   7.169   8.882   4.690  0.4302  0.0349  0.1462
  741MOL0     C99919   7.220   8.772   4.642 -0.1858  0.3299 -0.4160
  741MOL0     C99920   7.159   8.644   4.631 -0.4567 -0.1218  0.3622
  741MOL0     C99921   7.030   8.635   4.703  0.2027 -0.3425 -0.3160
  741MOL0     C99922   7.042   8.629   4.855  0.3465  0.1439  0.0009
  741MOL0     C99923   6.916   8.583   4.925 -0.3078 -0.1755 -0.5188
  741MOL0     O99924   6.805   8.667   4.916 -0.0694 -0.2091  0.2187
  741MOL0     C99925   6.674   8.619   4.904  0.7161  0.5235 -0.0134
  741MOL0     C99926   6.612   8.502   4.957 -1.0272  0.2821  0.0266
  741MOL0     C99927   6.473   8.483   4.967  0.2063  0.8274 -0.2422
  741MOL0     C99928   6.432   8.352   5.024  0.0651 -0.1764 -0.6568
  741MOL0     C99929   6.386   8.576   4.900  0.4248 -0.4051  0.3048
  741MOL0     C99930   6.242   8.555   4.882 -0.3233 -0.2741  0.0079
  741MOL0     O99931   6.187   8.435   4.931 -0.5257 -0.0495  0.1093
  741MOL0     C99932   6.051   8.439   4.934 -0.0952  1.2517 -0.5003
  741MOL0     C99933   5.987   8.477   5.050 -0.3091 -0.2950  0.3737
  741MOL0     C99934   5.849   8.453   5.065 -1.2651 -0.3942 -0.0352
  741MOL0     C99935   5.785   8.409   4.949  0.4740  0.6244 -0.8156
  741MOL0     O99936   5.650   8.394   4.961 -0.5577 -0.1293 -0.1965
  741MOL0     C99937   5.561   8.399   5.076 -0.1681 -0.0770  0.2523
  741MOL0     C99938   5.430   8.325   5.056  0.5466  0.0519 -0.7560
  741MOL0     C99939   5.451   8.172   5.025 -0.1513 -0.9896  0.0334
  741MOL0     C99940   5.314   8.107   4.981  0.6823  0.4005 -0.4217
  741MOL0     C99941   5.324   7.957   4.947  0.2325  0.3708 -0.0114
  741MOL0     C99942   5.208   7.888   4.861  0.4295  0.3539 -1.1820
  741MOL0     C99943   5.066   7.886   4.919  0.3875  0.3365  0.2844
  741MOL0     C99944   5.057   7.845   5.062 -0.7176  0.0027 -0.9787
  741MOL0    Cl99945   4.896   7.808   5.096 -0.0018  0.1996 -0.0957
  741MOL0     C99946   5.837   8.386   4.830  0.2559  1.0796  0.2633
  741MOL0     C99947   5.977   8.403   4.822  1.1783 -0.4226 -0.7830
  741MOL0     O99948   6.178   8.643   4.828  0.1968  0.2711  0.6252
  741MOL0     C99949   6.442   8.685   4.833  0.1128  0.4104 -0.3038
  741MOL0     C99950   6.586   8.704   4.836 -0.0493  1.0341  1.2996
  741MOL0     N99951   7.347   8.795   4.606 -0.0604 -0.4842  0.5271
  741MOL0     N99952   7.373   8.925   4.616  0.2379 -0.6998  0.3292
  741MOL0     C99953   6.838   9.739   4.606  0.1290 -0.6372  0.1541
  741MOL0     C99954   6.706   9.704   4.576  0.1621 -0.0323 -0.4901
  741MOL0     C99955   6.246   9.661   4.629  0.7605  0.4654 -0.3764
  741MOL0     C99956   6.129   9.634   4.690 -0.3717 -0.1847  0.1474
  741MOL0     C99957   6.011   9.636   4.619  0.5761  1.6122 -0.1874
  741MOL0     C99958   6.005   9.650   4.483 -1.0323  1.3119  0.2776
  741MOL0     O99959   5.892   9.661   4.407 -0.4256  0.1433 -0.7883
  741MOL0     C99960   5.871   9.569   4.298  0.5667 -0.1682 -0.8688
  741MOL0     C99961   5.853   9.431   4.361 -0.4999 -0.1887 -0.0732
  741MOL0     C99962   5.740   9.420   4.461 -0.5632 -0.6672  0.1607
  741MOL0     C99963   5.683   9.286   4.457 -0.0896  0.0617 -0.1327
  741MOL0     C99964   5.583   9.268   4.557  0.3312 -0.6569 -0.0980
  741MOL0     C99965   5.499   9.235   4.636  0.2746  0.5972 -0.1927
  741MOL0     C99966   6.126   9.665   4.417 -0.8969 -0.3795  0.3163
  741MOL0     C99967   6.249   9.671   4.486  0.5614 -0.0141  0.6857
  741MOL0     H99968   6.558   9.827   4.852 -0.7115  0.5373 -0.9862
  741MOL0     H99969   6.813   9.869   4.914 -0.8311  1.5393 -1.3407
  741MOL0     H99970   7.096   9.751   4.567 -2.7859  3.1682 -2.1949
  741MOL0     H99971   7.167   9.899   4.628 -0.2444 -0.7440 -1.9758
  741MOL0     H99972   7.342   9.774   4.649 -0.3379  2.1806 -1.2113
  741MOL0     H99973   7.280   9.802   4.803  0.4306  2.2936 -0.9848
  741MOL0     H99974   7.145   9.549   4.761 -0.0488 -1.7546 -2.8535
  741MOL0     H99975   7.254   9.548   4.627  1.7424 -1.3666  0.6418
  741MOL0     H99976   7.457   9.578   4.752  0.6705 -1.3673 -0.6795
  741MOL0     H99977   7.360   9.582   4.902  1.9735  3.0350 -0.5573
  741MOL0     H99978   7.396   9.357   4.691 -2.7317  2.6031 -2.0305
  741MOL0     H99979   7.461   9.372   4.848  2.3635 -0.1703 -2.7841
  741MOL0     H99980   7.240   9.336   4.955 -2.5556 -2.3056  0.4268
  741MOL0     H99981   7.172   9.336   4.794 -0.3147  2.5384  1.4150
  741MOL0     H99982   7.382   9.117   4.855 -0.3377  0.4723  0.6820
  741MOL0     H99983   7.219   9.097   4.913  0.9898 -0.0008  0.3517
  741MOL0     H99984   7.288   9.176   4.622 -2.3819  0.4508 -0.6804
  741MOL0     H99985   7.127   9.140   4.681 -0.6754 -1.4768 -0.3822
  741MOL0     H99986   7.068   8.903   4.724  0.8920 -0.3993  1.8996
  741MOL0     H99987   7.139   8.617   4.527  1.3413 -0.2587  0.0118
  741MOL0     H99988   7.227   8.565   4.666  1.2625  0.6386 -1.0593
  741MOL0     H99989   6.969   8.553   4.665 -0.9009  1.6353 -3.2007
  741MOL0     H99990   6.970   8.722   4.674  1.4084  0.4679 -0.4592
  741MOL0     H99991   7.080   8.718   4.905 -1.5678 -0.2757  2.3589
  741MOL0     H99992   7.116   8.551   4.875 -1.2038 -1.5257 -0.4944
  741MOL0     H99993   6.952   8.585   5.028  0.8543 -0.8882 -0.8986
  741MOL0     H99994   6.907   8.477   4.900  0.9883 -1.1422  2.5428
  741MOL0     H99995   6.677   8.431   5.008 -0.7732  0.9826  0.6970
  741MOL0     H99996   6.400   8.285   4.944 -2.7890 -0.8346  0.8885
  741MOL0     H99997   6.523   8.313   5.073  0.4568  1.2814 -0.1589
  741MOL0     H99998   6.351   8.357   5.097 -1.4682  1.1714 -2.3709
  741MOL0     H99999   6.043   8.511   5.136 -1.2903  2.8165 -0.0890
  741MOL0     H    0   5.794   8.460   5.159 -1.6332 -0.0478 -0.2709
  741MOL0     H    1   5.602   8.352   5.166 -1.5669 -1.1049  0.3840
  741MOL0     H    2   5.543   8.506   5.094 -0.7595  0.2339 -1.8656
  741MOL0     H    3   5.361   8.335   5.140  0.0755 -2.4745 -0.7542
  741MOL0     H    4   5.372   8.371   4.975 -0.7033 -1.5239 -0.8158
  741MOL0     H    5   5.485   8.118   5.113 -2.3701  0.8706  2.1815
  741MOL0     H    6   5.524   8.155   4.945 -1.5040 -0.8503 -1.2892
  741MOL0     H    7   5.244   8.106   5.065 -0.3071 -0.5172 -1.2296
  741MOL0     H    8   5.271   8.165   4.899 -0.1474  0.0997 -0.2103
  741MOL0     H    9   5.359   7.911   5.039 -0.3627  1.1648  0.6222
  741MOL0     H   10   5.404   7.933   4.875 -1.8296  1.2240 -2.7817
  741MOL0     H   11   5.201   7.932   4.761 -3.5853 -0.8283 -1.5981
  741MOL0     H   12   5.244   7.787   4.839 -0.4147 -0.1424 -0.3607
  741MOL0     H   13   5.006   7.814   4.863  2.0486 -1.4240  0.6568
  741MOL0     H   14   5.025   7.985   4.894  2.1070  0.8987 -0.5163
  741MOL0     H   15   5.101   7.918   5.131 -1.6057 -1.4438  1.2189
  741MOL0     H   16   5.120   7.758   5.083  1.6030  2.1925  2.0103
  741MOL0     H   17   5.784   8.364   4.738  0.5148 -2.1467  0.7444
  741MOL0     H   18   6.036   8.379   4.734  0.0733  0.0723 -1.6854
  741MOL0     H   19   6.383   8.749   4.769 -0.0776 -1.0027 -1.6117
  741MOL0     H   20   6.625   8.792   4.786 -1.1895  1.6538  1.4718
  741MOL0     H   21   6.914   9.713   4.532  1.5840  2.3082  0.4624
  741MOL0     H   22   6.667   9.658   4.486 -2.0964 -0.3444  0.5970
  741MOL0     H   23   6.122   9.647   4.798 -1.1234  0.8361 -0.0083
  741MOL0     H   24   5.918   9.614   4.672  0.1019 -0.0203 -1.6018
  741MOL0     H   25   5.783   9.601   4.242 -0.0226  2.2175  1.1976
  741MOL0     H   26   5.952   9.582   4.226 -0.7020  3.8052 -1.8102
  741MOL0     H   27   5.952   9.397   4.390 -0.9564 -2.5243 -1.0586
  741MOL0     H   28   5.828   9.368   4.275  0.6756 -0.1252 -0.4834
  741MOL0     H   29   5.655   9.488   4.450 -0.4056 -0.5653 -0.4130
  741MOL0     H   30   5.774   9.432   4.565 -0.6540 -2.5534  0.4442
  741MOL0     H   31   5.757   9.208   4.477 -2.6541 -2.9758 -1.5438
  741MOL0     H   32   5.637   9.268   4.359  0.8049  3.1769 -1.2605
  741MOL0     H   33   5.421   9.211   4.706  0.7957  0.3056  0.2945
  741MOL0     H   34   6.123   9.697   4.313  0.4749  1.1224  0.6988
  741MOL0     H   35   6.339   9.696   4.431 -0.7398 -2.9067 -3.1744
  742MOL0     O   36   2.730  10.278   2.433  0.7038  0.9779 -0.5328
  742MOL0     C   37   2.823  10.336   2.386 -0.7980  0.2015  0.2937
  742MOL0     O   38   2.816  10.423   2.280 -0.9146  0.0485  0.0559
  742MOL0     C   39   2.688  10.447   2.230 -1.1820  0.5698 -0.7494
  742MOL0     C   40   2.605  10.557   2.265  1.4324  0.4541 -0.3661
  742MOL0     C   41   2.479  10.580   2.209 -0.4358 -0.0618 -0.2164
  742MOL0     C   42   2.428  10.478   2.122 -0.1553  0.4943  0.7770
  742MOL0     O   43   2.298  10.469   2.067 -0.0390  0.1599 -1.1377
  742MOL0     C   44   2.220  10.586   2.062 -0.1531 -0.1742  0.0796
  742MOL0     C   45   2.093  10.556   1.985  0.3116  0.0915  0.2782
  742MOL0     C   46   2.014  10.440   2.053  0.6480  0.0450 -0.0095
  742MOL0     C   47   1.879  10.403   1.978 -0.0298 -1.2814  0.7198
  742MOL0     C   48   1.753  10.449   2.056 -0.1473  0.2908 -1.0370
  742MOL0     C   49   1.622  10.452   1.976 -0.4247 -0.8089 -0.5333
  742MOL0     C   50   1.513  10.515   2.061 -0.5823  0.0353 -0.0684
  742MOL0     C   51   1.453  10.398   2.141 -0.3992 -0.6195  0.3624
  742MOL0     N   52   1.336  10.341   2.069 -0.7582 -0.9691  0.5497
  742MOL0     C   53   1.200  10.373   2.087  0.8284  0.3020  0.8938
  742MOL0     C   54   1.132  10.305   1.989  0.0143 -0.2980 -0.4970
  742MOL0     C   55   0.984  10.313   1.954  0.1965  0.3111 -2.0865
  742MOL0     C   56   0.891  10.330   2.079 -0.9827  0.2736  0.4804
  742MOL0     C   57   0.742  10.342   2.045 -0.3574 -0.0787 -0.1605
  742MOL0     C   58   0.684  10.202   2.048  0.0072  0.5970  0.1788
  742MOL0     O   59   0.557  10.217   1.983 -0.1373 -0.2746  0.3730
  742MOL0     C   60   0.465  10.123   2.006  0.3311  0.2694 -0.2452
  742MOL0     C   61   0.488   9.992   2.050  0.3886  0.2143  0.3549
  742MOL0     C   62   0.380   9.909   2.072  0.0490  1.0713 -0.0105
  742MOL0     C   63   0.416   9.760   2.109  0.2574 -0.0631 -0.6446
  742MOL0     C   64   0.246   9.959   2.058  0.2983 -0.6440 -0.4916
  742MOL0     C   65   0.128   9.870   2.077 -0.3844  0.6453  0.3935
  742MOL0     O   66   0.138   9.740   2.045  0.4258  0.7339 -0.0124
  742MOL0     C   67   0.048   9.652   2.090 -0.3800 -0.2364 -1.0254
  742MOL0     C   68   0.086   9.526   2.048 -0.6966 -0.0933  0.7811
  742MOL0     C   69   0.005   9.410   2.081 -0.7772 -0.7515 -1.0120
  742MOL0     C   70  -0.109   9.430   2.167 -0.5625  0.5861  0.1189
  742MOL0     O   71  -0.182   9.318   2.206 -0.0597 -0.5929 -0.7268
  742MOL0     C   72  -0.213   9.230   2.099  0.4079 -0.1043 -0.3331
  742MOL0     C   73  -0.340   9.150   2.132 -0.1913 -0.5289 -0.1391
  742MOL0     C   74  -0.383   9.064   2.012  0.8901 -0.0292  0.2602
  742MOL0     C   75  -0.308   8.926   2.018 -0.6727  0.3890 -0.1174
  742MOL0     C   76  -0.344   8.826   1.909  0.3600 -0.7936 -0.7251
  742MOL0     C   77  -0.311   8.872   1.771 -0.9650  0.2832  0.5893
  742MOL0     C   78  -0.159   8.902   1.759 -0.0866 -0.0293 -0.1657
  742MOL0     C   79  -0.107   8.912   1.620  0.8795 -0.8824  0.3357
  742MOL0    Cl   80  -0.212   9.028   1.524 -0.1338  0.4864  0.1468
  742MOL0     C   81  -0.148   9.558   2.203  0.0815  0.2392 -0.1402
  742MOL0     C   82  -0.070   9.671   2.170  0.0053 -0.0001 -0.1731
  742MOL0     O   83   0.034   9.927   2.127  0.3710  0.9030 -0.3027
  742MOL0     C   84   0.228  10.095   2.027 -0.8099  0.4721  0.2658
  742MOL0     C   85   0.340  10.174   2.003 -0.4307  0.8624  0.8345
  742MOL0     N   86   1.220  10.228   1.915  0.3049 -0.3210  0.6212
  742MOL0     N   87   1.332  10.245   1.970 -0.8991  0.3702  0.8190
  742MOL0     C   88   2.508  10.379   2.083  1.0174 -0.2465 -0.2169
  742MOL0     C   89   2.632  10.360   2.138 -0.2500 -0.1653  0.2117
  742MOL0     C   90   2.960  10.307   2.447  0.6118 -0.2597 -1.1453
  742MOL0     C   91   2.979  10.190   2.536  0.2335 -0.4351  0.1027
  742MOL0     C   92   3.106  10.168   2.589 -0.6588 -0.4005  0.7319
  742MOL0     C   93   3.215  10.256   2.568 -0.5180 -0.6263  0.6157
  742MOL0     O   94   3.346  10.251   2.617  0.1982 -0.5605  0.2572
  742MOL0     C   95   3.383  10.140   2.704 -0.2461 -0.9126 -0.5501
  742MOL0     C   96   3.327  10.168   2.846 -1.1594  0.4512 -0.3793
  742MOL0     C   97   3.342  10.042   2.934  0.3729  0.6475  0.1594
  742MOL0     C   98   3.310  10.073   3.084  0.0444  0.1096  0.5062
  742MOL0     C   99   3.407  10.167   3.147 -0.0223  1.0269 -0.2153
  742MOL0     C  100   3.497  10.241   3.194  0.4677  0.8052  0.7529
  742MOL0     C  101   3.193  10.363   2.482 -0.5467  0.3950 -0.4618
  742MOL0     C  102   3.069  10.388   2.424 -0.4358  0.4745 -1.0227
  742MOL0     H  103   2.630  10.633   2.338 -2.3007  2.4794 -0.9542
  742MOL0     H  104   2.414  10.660   2.243 -0.7061 -0.4798  0.2641
  742MOL0     H  105   2.192  10.621   2.161  0.7266  1.3699 -0.1881
  742MOL0     H  106   2.278  10.669   2.020 -0.8312  1.3016  1.9274
  742MOL0     H  107   2.031  10.645   1.979  1.4987  0.9043 -0.2240
  742MOL0     H  108   2.114  10.531   1.881  0.4905  1.7556 -0.1145
  742MOL0     H  109   2.076  10.351   2.062  1.3934  0.1763 -2.8745
  742MOL0     H  110   1.985  10.466   2.155  1.1366  0.5194  0.0086
  742MOL0     H  111   1.872  10.440   1.875  0.7143 -0.8769  0.8035
  742MOL0     H  112   1.894  10.295   1.969  3.2772 -0.8589 -0.1198
  742MOL0     H  113   1.732  10.384   2.142 -1.0053  1.7976 -0.0565
  742MOL0     H  114   1.774  10.549   2.094 -1.9713 -0.1711  1.5153
  742MOL0     H  115   1.636  10.512   1.885 -1.5307  2.2946  1.1728
  742MOL0     H  116   1.589  10.351   1.952 -1.8615 -0.9844  1.8205
  742MOL0     H  117   1.563  10.586   2.127  1.9480 -2.1958  0.5605
  742MOL0     H  118   1.438  10.571   2.004 -0.3739  0.8201  0.4066
  742MOL0     H  119   1.421  10.432   2.240 -3.7188  0.8877 -1.0846
  742MOL0     H  120   1.526  10.319   2.161  4.1937  3.3432  1.1168
  742MOL0     H  121   1.160  10.447   2.154  3.3793  0.2545  2.6097
  742MOL0     H  122   0.953  10.395   1.889 -1.5392  1.9933  0.6340
  742MOL0     H  123   0.961  10.214   1.913 -2.3787 -0.9813  1.9165
  742MOL0     H  124   0.920  10.420   2.134  0.4377  0.4365 -0.4889
  742MOL0     H  125   0.909  10.241   2.140 -1.6954 -0.8910 -0.9253
  742MOL0     H  126   0.717  10.390   1.950  1.7022  1.3384 -0.0590
  742MOL0     H  127   0.696  10.397   2.127  1.3603  2.2382 -0.6606
  742MOL0     H  128   0.664  10.179   2.153 -0.4762  1.7842  0.3593
  742MOL0     H  129   0.745  10.127   1.995  1.7259 -1.7338  4.8932
  742MOL0     H  130   0.590   9.958   2.058  0.1447 -0.1413  2.6499
  742MOL0     H  131   0.354   9.727   2.193 -1.5209  0.6412 -1.6262
  742MOL0     H  132   0.418   9.689   2.026 -1.0467 -2.8651  1.5613
  742MOL0     H  133   0.519   9.753   2.145  0.6113  0.1578 -1.5820
  742MOL0     H  134   0.179   9.526   1.992 -1.4986  0.6795 -0.6202
  742MOL0     H  135   0.028   9.307   2.055 -3.0215 -1.7681  0.7556
  742MOL0     H  136  -0.221   9.293   2.010  1.8833 -0.5795 -0.8414
  742MOL0     H  137  -0.130   9.159   2.089  1.1344  0.8505 -1.3063
  742MOL0     H  138  -0.317   9.090   2.221 -1.5567  0.7935  1.1689
  742MOL0     H  139  -0.424   9.217   2.151  1.4111  1.4185  0.4522
  742MOL0     H  140  -0.371   9.115   1.916 -1.7795 -0.6401 -0.4879
  742MOL0     H  141  -0.490   9.044   2.019  0.8708 -0.6259 -1.2673
  742MOL0     H  142  -0.199   8.937   2.022 -0.7220  1.6929 -1.4906
  742MOL0     H  143  -0.332   8.877   2.113  2.3337  1.5051  1.3649
  742MOL0     H  144  -0.453   8.816   1.915  0.1168  1.0203 -1.3965
  742MOL0     H  145  -0.297   8.728   1.921 -0.6202 -1.0090  1.8723
  742MOL0     H  146  -0.320   8.783   1.708  0.3600 -0.2914  1.1657
  742MOL0     H  147  -0.375   8.953   1.734 -1.7422 -0.4658  0.2482
  742MOL0     H  148  -0.106   8.825   1.815 -1.6729 -0.4825  0.7492
  742MOL0     H  149  -0.138   9.001   1.802 -0.5528 -0.2735  0.6347
  742MOL0     H  150  -0.127   8.817   1.569 -3.9494 -0.3215  0.7108
  742MOL0     H  151  -0.004   8.948   1.614  0.1637  2.0839  3.1257
  742MOL0     H  152  -0.231   9.566   2.273  1.0310 -1.1672  1.2294
  742MOL0     H  153  -0.112   9.770   2.186 -0.2354  0.4520 -3.1193
  742MOL0     H  154   0.134  10.149   2.015 -1.5673 -1.0276 -0.9325
  742MOL0     H  155   0.330  10.278   1.974 -0.5028  0.0623 -2.4158
  742MOL0     H  156   2.472  10.297   2.022  1.9873  0.1322 -1.3350
  742MOL0     H  157   2.697  10.279   2.105 -1.4083 -1.0714  0.0931
  742MOL0     H  158   2.891  10.131   2.560 -1.6006  1.1907 -2.2698
  742MOL0     H  159   3.137  10.080   2.645  0.7128 -0.0536  0.5573
  742MOL0     H  160   3.352  10.040   2.675 -4.0086 -0.7180  2.1588
  742MOL0     H  161   3.492  10.144   2.718 -0.2647 -2.1505  0.0603
  742MOL0     H  162   3.223  10.203   2.842 -0.8874  1.2788 -0.3633
  742MOL0     H  163   3.389  10.247   2.890  1.4434 -0.0901 -2.7965
  742MOL0     H  164   3.440   9.997   2.920 -0.4965 -1.1189 -0.5543
  742MOL0     H  165   3.271   9.972   2.890  1.4553 -1.9499  2.2151
  742MOL0     H  166   3.324   9.989   3.153  2.6790  1.1464  1.3499
  742MOL0     H  167   3.208  10.114   3.084 -0.2436 -0.5706  1.6062
  742MOL0     H  168   3.588  10.288   3.226  2.1626 -1.4191 -0.4771
  742MOL0     H  169   3.267  10.442   2.473 -1.8188  1.8664  1.3184
  742MOL0     H  170   3.064  10.479   2.364  1.5930 -0.4643 -2.7554
  743MOL0     O  171   9.400   8.851   3.838  0.4277  0.1438 -0.2089
  743MOL0     C  172   9.429   8.749   3.772 -1.5327  0.6617  0.9793
  743MOL0     O  173   9.339   8.660   3.727 -0.0220 -1.1021 -0.5639
  743MOL0     C  174   9.212   8.701   3.748  0.0480  0.3995 -0.0113
  743MOL0     C  175   9.137   8.643   3.853  0.6607  0.2710  0.0674
  743MOL0     C  176   8.999   8.671   3.866 -0.0698  0.3805 -0.1389
  743MOL0     C  177   8.932   8.752   3.770 -0.0381  0.7561  0.4311
  743MOL0     O  178   8.793   8.740   3.762  0.0095 -0.2961 -0.1489
  743MOL0     C  179   8.724   8.861   3.725 -0.8387  0.2997 -0.1032
  743MOL0     C  180   8.577   8.838   3.727  0.1210 -0.3020  0.9888
  743MOL0     C  181   8.494   8.946   3.657 -0.0175  0.5266 -0.1738
  743MOL0     C  182   8.345   8.911   3.677 -0.0864  0.8193  0.4560
  743MOL0     C  183   8.261   9.018   3.592  0.8041  0.6418 -0.3508
  743MOL0     C  184   8.112   9.006   3.631  0.9095 -0.8843  1.1460
  743MOL0     C  185   8.038   9.132   3.573  0.3886  0.5568  0.0974
  743MOL0     C  186   7.883   9.109   3.581 -0.2691  0.1776  0.0671
  743MOL0     N  187   7.807   9.160   3.469  0.1723 -0.2408  0.9820
  743MOL0     C  188   7.741   9.277   3.469  0.0240  0.1442  0.4354
  743MOL0     C  189   7.660   9.273   3.354 -0.4310  0.8973  0.0255
  743MOL0     C  190   7.557   9.381   3.330  0.3140 -0.3253  0.2070
  743MOL0     C  191   7.433   9.311   3.282  0.1049  0.4671  0.1096
  743MOL0     C  192   7.357   9.243   3.394 -0.2772  0.8449 -0.2577
  743MOL0     C  193   7.236   9.177   3.325  0.4965  0.0439  0.8391
  743MOL0     O  194   7.134   9.272   3.311 -0.7347  0.3485 -0.1196
  743MOL0     C  195   7.029   9.235   3.233  0.0385  0.0425  0.1218
  743MOL0     C  196   7.010   9.122   3.150 -0.2960 -0.2252 -0.5153
  743MOL0     C  197   6.895   9.099   3.069 -0.1920 -0.6472  0.0851
  743MOL0     C  198   6.906   8.969   2.984 -0.0639  0.0783 -0.1511
  743MOL0     C  199   6.791   9.196   3.078  0.3116  0.3419  0.6008
  743MOL0     C  200   6.663   9.175   3.005 -0.3759  0.6205 -0.5888
  743MOL0     O  201   6.587   9.286   2.987  0.8203 -0.5596  0.6670
  743MOL0     C  202   6.468   9.280   2.921 -0.4981 -0.0066 -0.4029
  743MOL0     C  203   6.409   9.411   2.891 -0.4874 -0.0511  0.9074
  743MOL0     C  204   6.295   9.419   2.818  1.2305  0.2285  1.1289
  743MOL0     C  205   6.230   9.307   2.767 -0.4087 -0.1108 -0.0573
  743MOL0     O  206   6.117   9.320   2.691 -0.6008  0.0092 -0.5791
  743MOL0     C  207   5.982   9.301   2.746 -0.1805 -0.4354 -0.2596
  743MOL0     C  208   5.927   9.157   2.751 -0.1745  0.5218 -0.5114
  743MOL0     C  209   5.781   9.156   2.777  0.2518 -0.0307 -0.4395
  743MOL0     C  210   5.709   9.055   2.680  0.5459  0.5238  0.9592
  743MOL0     C  211   5.556   9.069   2.688  0.2527 -0.2212  1.0238
  743MOL0     C  212   5.486   8.960   2.618  0.0031  1.7069 -0.9997
  743MOL0     C  213   5.488   8.965   2.467 -0.0398 -0.3005  0.2515
  743MOL0     C  214   5.457   8.831   2.400  0.2171 -0.6687  0.2393
  743MOL0    Cl  215   5.422   8.866   2.238  0.1218 -0.1065 -0.3590
  743MOL0     C  216   6.275   9.182   2.801 -0.2954  0.0832  0.1658
  743MOL0     C  217   6.389   9.171   2.882 -0.5521  0.3606 -0.0410
  743MOL0     O  218   6.638   9.058   2.970 -0.3014 -0.1620  0.1637
  743MOL0     C  219   6.810   9.309   3.157  0.6589 -0.0466 -0.3610
  743MOL0     C  220   6.923   9.330   3.233 -0.4255 -0.3227 -0.4505
  743MOL0     N  221   7.700   9.163   3.282  0.1643 -0.0062 -0.0498
  743MOL0     N  222   7.794   9.100   3.347 -0.7366 -0.0023  0.1369
  743MOL0     C  223   9.006   8.807   3.657 -0.0067  0.7702  0.1856
  743MOL0     C  224   9.145   8.785   3.656 -0.5685 -0.3276 -0.5539
  743MOL0     C  225   9.569   8.714   3.733  0.0158  0.1307  0.6469
  743MOL0     C  226   9.612   8.593   3.677  0.3416 -0.5586 -0.2824
  743MOL0     C  227   9.748   8.560   3.657  0.5353  0.1406 -0.0278
  743MOL0     C  228   9.847   8.659   3.684  0.1076  0.0002  0.2700
  743MOL0     O  229   9.977   8.635   3.661 -0.4370  0.4478 -0.4478
  743MOL0     C  230  10.028   8.657   3.521 -0.4917  0.5114 -0.5339
  743MOL0     C  231  10.173   8.701   3.532  0.5540 -0.7953  0.5281
  743MOL0     C  232  10.223   8.734   3.390 -0.6814  0.1201 -0.1636
  743MOL0     C  233  10.259   8.617   3.304  0.6309 -0.4487 -0.4199
  743MOL0     C  234  10.380   8.542   3.345 -0.0855 -0.6004  0.0913
  743MOL0     C  235  10.473   8.469   3.370 -0.8172 -0.5312 -0.0446
  743MOL0     C  236   9.799   8.782   3.729  0.0295 -0.7952  0.0585
  743MOL0     C  237   9.665   8.803   3.772  0.1163  0.2744  0.1821
  743MOL0     H  238   9.190   8.584   3.927 -0.8338  2.7943  3.4433
  743MOL0     H  239   8.932   8.632   3.943  0.3223  1.8024  0.9792
  743MOL0     H  240   8.748   8.939   3.797  1.5968 -2.0992  1.8961
  743MOL0     H  241   8.758   8.889   3.625  0.6991  2.1652  0.8917
  743MOL0     H  242   8.560   8.748   3.667 -0.3615  0.8983 -0.7726
  743MOL0     H  243   8.526   8.829   3.824 -2.6735  1.4183 -0.1858
  743MOL0     H  244   8.509   9.040   3.710 -0.6765 -1.0420  3.0420
  743MOL0     H  245   8.515   8.962   3.550 -2.1962  3.2994 -0.2989
  743MOL0     H  246   8.326   8.811   3.637  2.0800 -0.0457  1.4462
  743MOL0     H  247   8.327   8.910   3.785  0.0490 -1.9987  0.5032
  743MOL0     H  248   8.299   9.117   3.620  1.0705  0.1377  1.2027
  743MOL0     H  249   8.267   9.008   3.483  0.0896  1.5976 -0.4838
  743MOL0     H  250   8.081   8.912   3.584 -1.0646  0.9999 -1.6504
  743MOL0     H  251   8.098   9.008   3.739 -0.7249  3.2893  1.0258
  743MOL0     H  252   8.071   9.227   3.616  3.3103 -1.7983  3.6242
  743MOL0     H  253   8.059   9.139   3.466  0.5094  0.4137  0.1118
  743MOL0     H  254   7.850   9.158   3.674  0.9019  0.6828  0.2323
  743MOL0     H  255   7.863   9.002   3.586 -3.2259  0.5230 -1.9473
  743MOL0     H  256   7.732   9.350   3.549  1.3519  0.5582  0.2366
  743MOL0     H  257   7.537   9.439   3.420 -1.4252 -0.6652  0.0836
  743MOL0     H  258   7.594   9.451   3.255  0.0706  1.6656  1.8586
  743MOL0     H  259   7.458   9.238   3.205 -0.2476 -0.2452  0.6529
  743MOL0     H  260   7.368   9.385   3.235 -0.6386 -0.7517 -0.8523
  743MOL0     H  261   7.336   9.302   3.483  0.3192  2.2143 -0.9862
  743MOL0     H  262   7.433   9.169   3.423  1.1350  2.5563  0.6151
  743MOL0     H  263   7.188   9.105   3.392  1.8360 -1.1367  0.5775
  743MOL0     H  264   7.266   9.138   3.228 -2.4424 -1.5261  0.4673
  743MOL0     H  265   7.093   9.052   3.145  0.2530  0.3488  0.3990
  743MOL0     H  266   7.009   8.940   2.958 -0.3539  2.0754 -4.2060
  743MOL0     H  267   6.860   8.886   3.038  4.7776 -1.4808  2.1980
  743MOL0     H  268   6.860   8.959   2.886  0.4830 -1.4911 -0.2895
  743MOL0     H  269   6.462   9.494   2.936 -3.4004  1.7882  1.2090
  743MOL0     H  270   6.264   9.519   2.789  0.4864 -0.1269  0.6609
  743MOL0     H  271   5.968   9.352   2.841  1.1823  0.8076 -0.6933
  743MOL0     H  272   5.925   9.357   2.671  0.1199  0.4811  0.1775
  743MOL0     H  273   5.949   9.103   2.659  1.9647  1.4520 -0.5996
  743MOL0     H  274   5.981   9.099   2.827  2.6800  3.2126 -0.2658
  743MOL0     H  275   5.730   9.252   2.770 -0.9815 -0.5674  0.7570
  743MOL0     H  276   5.766   9.121   2.880  3.1384 -2.8754 -0.8208
  743MOL0     H  277   5.752   9.061   2.580 -0.1381 -1.0485  0.5371
  743MOL0     H  278   5.727   8.951   2.708  0.3067 -0.6810 -2.8590
  743MOL0     H  279   5.528   9.164   2.642  0.8082  1.5970  4.1094
  743MOL0     H  280   5.531   9.070   2.795  0.9247  3.9156  1.3277
  743MOL0     H  281   5.531   8.869   2.659  0.0801  2.0963 -0.2013
  743MOL0     H  282   5.381   8.972   2.646  0.3548  2.6670 -0.0204
  743MOL0     H  283   5.585   8.996   2.427 -0.9566  2.0421 -0.3309
  743MOL0     H  284   5.414   9.041   2.442 -0.0963  0.7388  3.2488
  743MOL0     H  285   5.376   8.786   2.457 -0.5787  1.2977  0.7604
  743MOL0     H  286   5.539   8.759   2.394  1.6335  0.9724 -2.4351
  743MOL0     H  287   6.227   9.088   2.776 -2.1089  0.9999  0.0293
  743MOL0     H  288   6.414   9.066   2.891  0.8146  0.6055 -0.8172
  743MOL0     H  289   6.735   9.387   3.168 -1.7911 -2.5606  2.8107
  743MOL0     H  290   6.927   9.413   3.303 -2.0862  1.2315 -2.0913
  743MOL0     H  291   8.962   8.852   3.569  0.2613  0.3805 -0.1485
  743MOL0     H  292   9.205   8.823   3.574 -0.3649  0.9723  0.1732
  743MOL0     H  293   9.541   8.513   3.654  1.9287 -3.5172  3.8994
  743MOL0     H  294   9.794   8.467   3.623  0.7058  0.3192 -0.2887
  743MOL0     H  295  10.020   8.563   3.466 -0.9790  0.2804 -0.0672
  743MOL0     H  296   9.968   8.737   3.476 -0.2180  0.7115 -0.5485
  743MOL0     H  297  10.236   8.625   3.580 -0.7523 -2.1873  0.1062
  743MOL0     H  298  10.173   8.792   3.593  0.7187 -1.6984  1.9124
  743MOL0     H  299  10.306   8.805   3.389 -0.3345 -0.2138 -3.0272
  743MOL0     H  300  10.139   8.784   3.342  1.5354  0.6362 -3.9071
  743MOL0     H  301  10.272   8.649   3.200 -3.2455 -1.0148 -1.2461
  743MOL0     H  302  10.179   8.542   3.299 -1.0558  1.3155 -1.0410
  743MOL0     H  303  10.553   8.401   3.391 -1.0130 -0.8047 -0.1698
  743MOL0     H  304   9.876   8.858   3.742 -1.0469  0.4666 -0.6288
  743MOL0     H  305   9.637   8.900   3.811  0.9477  0.6605 -0.1533
  744MOL0     O  306   5.622   8.962   7.938 -0.8059 -0.0245 -1.0210
  744MOL0     C  307   5.542   9.059   7.929 -0.2010  1.0771  0.6113
  744MOL0     O  308   5.408   9.044   7.914  0.4062  0.2096  0.1792
  744MOL0     C  309   5.361   8.914   7.879 -0.1665  0.5864  0.7805
  744MOL0     C  310   5.304   8.912   7.752  1.0720  0.4953  0.0426
  744MOL0     C  311   5.234   8.789   7.719 -0.5633  0.6032  1.0589
  744MOL0     C  312   5.234   8.670   7.798 -0.9851  0.5434  0.7166
  744MOL0     O  313   5.173   8.561   7.749 -1.1395 -0.5210  0.7522
  744MOL0     C  314   5.262   8.506   7.644 -0.8395 -0.5687 -0.2078
  744MOL0     C  315   5.276   8.358   7.635  0.2758  0.1015 -0.2173
  744MOL0     C  316   5.141   8.302   7.612 -0.7627  0.1486 -0.1391
  744MOL0     C  317   5.064   8.352   7.494  0.3831 -0.3582  0.6894
  744MOL0     C  318   4.933   8.275   7.476  0.3485 -0.0459 -0.0567
  744MOL0     C  319   4.827   8.352   7.382  0.1613  0.4630  0.4858
  744MOL0     C  320   4.741   8.448   7.463 -0.4597  0.7794 -0.2079
  744MOL0     C  321   4.768   8.592   7.457 -0.7947 -0.8217 -0.5412
  744MOL0     N  322   4.699   8.668   7.559 -0.7471 -0.8426  0.2376
  744MOL0     C  323   4.592   8.636   7.646  0.0669  0.0167  0.6265
  744MOL0     C  324   4.573   8.741   7.731 -0.2884  0.0959  0.1783
  744MOL0     C  325   4.455   8.746   7.822  0.3930 -0.1129  0.2406
  744MOL0     C  326   4.459   8.885   7.891 -0.4272  0.3768  0.4166
  744MOL0     C  327   4.364   8.899   8.001  0.9908  0.2713  0.2705
  744MOL0     C  328   4.388   9.024   8.085 -0.0633 -0.7665  0.2457
  744MOL0     O  329   4.267   9.068   8.151  0.1231  0.1294  0.3398
  744MOL0     C  330   4.283   9.180   8.237  0.2322 -0.8673  0.3555
  744MOL0     C  331   4.407   9.239   8.277 -0.4829 -0.3994  0.0910
  744MOL0     C  332   4.402   9.352   8.368  0.3654  0.0777  0.0743
  744MOL0     C  333   4.529   9.425   8.378  0.1759 -0.4165  0.6159
  744MOL0     C  334   4.282   9.384   8.432 -0.7020 -0.5578 -0.6070
  744MOL0     C  335   4.271   9.487   8.529  0.6238  0.2298 -0.6551
  744MOL0     O  336   4.381   9.515   8.588 -0.5853 -0.6195  0.1307
  744MOL0     C  337   4.394   9.580   8.699 -0.3251 -1.0832 -0.5241
  744MOL0     C  338   4.440   9.509   8.814  1.1962 -0.4953  0.7700
  744MOL0     C  339   4.468   9.576   8.938 -0.1420  0.4884 -0.3535
  744MOL0     C  340   4.447   9.718   8.940 -0.1323  0.3764  0.1497
  744MOL0     O  341   4.470   9.790   9.052 -0.1454 -0.6538 -0.8207
  744MOL0     C  342   4.601   9.784   9.103 -0.7320 -0.3184  0.1391
  744MOL0     C  343   4.621   9.896   9.205 -0.0221 -0.7699  0.2830
  744MOL0     C  344   4.756   9.887   9.286 -0.3494  0.2112  0.7541
  744MOL0     C  345   4.789  10.026   9.336  1.7481 -1.0185 -1.0228
  744MOL0     C  346   4.926  10.052   9.404 -1.0716  0.7928 -0.4732
  744MOL0     C  347   4.957   9.950   9.514 -0.6599  0.2880  0.1918
  744MOL0     C  348   5.097   9.967   9.580  0.2351  0.0245  0.3675
  744MOL0     C  349   5.145   9.849   9.669 -0.9144  0.2754 -0.5484
  744MOL0    Cl  350   5.223   9.725   9.577 -0.2013 -0.1869 -0.4592
  744MOL0     C  351   4.400   9.790   8.832 -0.0397 -0.1255 -0.1464
  744MOL0     C  352   4.375   9.718   8.713 -0.0031  0.8611 -0.0333
  744MOL0     O  353   4.156   9.540   8.556 -0.0001  0.2231 -0.0198
  744MOL0     C  354   4.159   9.314   8.399  0.3704  0.5707  0.0250
  744MOL0     C  355   4.166   9.218   8.301  0.9965  0.2133  0.7568
  744MOL0     N  356   4.668   8.831   7.688 -0.5128  0.8061 -0.5292
  744MOL0     N  357   4.751   8.791   7.599  0.3693  0.4436 -0.2285
  744MOL0     C  358   5.310   8.676   7.914  0.1447 -0.0867  0.0704
  744MOL0     C  359   5.373   8.800   7.951 -1.0531  0.1641 -0.3297
  744MOL0     C  360   5.607   9.196   7.933 -0.0015  0.4475  0.1995
  744MOL0     C  361   5.742   9.215   7.907 -0.1965 -0.1775  0.4988
  744MOL0     C  362   5.803   9.343   7.935  0.5245  0.6620  0.4069
  744MOL0     C  363   5.729   9.457   7.975 -0.2269  0.3270  0.7501
  744MOL0     O  364   5.807   9.567   7.996 -0.4432  0.2706  0.0569
  744MOL0     C  365   5.758   9.696   8.036 -0.5761  1.0297  0.8531
  744MOL0     C  366   5.719   9.780   7.907 -0.4652 -0.3576  0.1645
  744MOL0     C  367   5.832   9.810   7.815  0.1431  0.5797 -0.1021
  744MOL0     C  368   5.781   9.825   7.670  0.2292  0.3525 -0.2213
  744MOL0     C  369   5.681   9.927   7.650 -0.5485  0.9439  0.6192
  744MOL0     C  370   5.600  10.013   7.626  0.6104  0.2017 -0.3926
  744MOL0     C  371   5.592   9.442   7.989  0.6742 -0.4489 -0.7477
  744MOL0     C  372   5.539   9.312   7.977 -0.6222 -0.0463 -0.4309
  744MOL0     H  373   5.293   9.003   7.694  2.5467 -0.5346 -1.9953
  744MOL0     H  374   5.166   8.792   7.635  1.1601 -0.1627 -0.4377
  744MOL0     H  375   5.218   8.530   7.547 -0.8395  1.1133  0.1646
  744MOL0     H  376   5.361   8.553   7.651 -0.9403  0.0952 -2.4943
  744MOL0     H  377   5.337   8.322   7.552 -0.1099 -1.0397 -0.0255
  744MOL0     H  378   5.324   8.310   7.721 -2.5481 -2.0745  0.2891
  744MOL0     H  379   5.155   8.194   7.597  1.3770  0.5454 -1.3888
  744MOL0     H  380   5.089   8.321   7.707 -1.4734  0.3822 -0.5636
  744MOL0     H  381   5.019   8.451   7.503 -0.4658 -0.6969  0.2544
  744MOL0     H  382   5.129   8.354   7.407 -0.5368  2.8286 -0.0656
  744MOL0     H  383   4.965   8.177   7.439  0.3851 -0.0327 -0.0593
  744MOL0     H  384   4.898   8.255   7.578 -0.0412  1.8871  0.2218
  744MOL0     H  385   4.874   8.412   7.303  1.0559  1.8243  1.9762
  744MOL0     H  386   4.763   8.285   7.324  1.7480  1.3437 -2.5027
  744MOL0     H  387   4.636   8.440   7.435 -0.4022  0.8209 -0.4369
  744MOL0     H  388   4.750   8.411   7.565  1.6275  1.3428 -0.1318
  744MOL0     H  389   4.736   8.639   7.363 -1.0309  0.6168  0.2218
  744MOL0     H  390   4.875   8.610   7.466 -0.9937  0.1285  0.0992
  744MOL0     H  391   4.532   8.546   7.654 -1.9952  1.4526  2.3692
  744MOL0     H  392   4.357   8.741   7.774 -0.4847 -1.0065  2.0283
  744MOL0     H  393   4.466   8.659   7.888 -0.7113  2.0518  3.5684
  744MOL0     H  394   4.433   8.960   7.816  1.7529  0.9369  0.1725
  744MOL0     H  395   4.560   8.907   7.926  0.5018  0.7087 -2.2585
  744MOL0     H  396   4.376   8.809   8.063 -0.7350  1.5629  2.6196
  744MOL0     H  397   4.260   8.906   7.965  0.7864  1.3779  1.0306
  744MOL0     H  398   4.413   9.099   8.009 -1.9368 -2.3030 -2.0146
  744MOL0     H  399   4.472   9.008   8.153  0.1916 -3.3962 -0.5867
  744MOL0     H  400   4.501   9.204   8.235 -1.4462  0.1638 -2.7534
  744MOL0     H  401   4.589   9.391   8.464  1.6689 -2.1028 -1.0157
  744MOL0     H  402   4.583   9.423   8.284  0.3275  3.2715  0.4663
  744MOL0     H  403   4.502   9.531   8.381 -3.0301 -1.0628 -1.2948
  744MOL0     H  404   4.446   9.401   8.827 -1.2532 -0.6583  1.1048
  744MOL0     H  405   4.493   9.519   9.026 -2.6658 -0.7924 -0.3666
  744MOL0     H  406   4.619   9.680   9.132 -1.2201 -1.4336 -3.1210
  744MOL0     H  407   4.671   9.814   9.025  0.7154 -1.8636  0.7875
  744MOL0     H  408   4.611   9.992   9.153 -0.7442 -2.0905 -2.2003
  744MOL0     H  409   4.543   9.894   9.281  0.4160 -2.4300  0.7295
  744MOL0     H  410   4.833   9.858   9.214 -2.1537  3.0132 -2.6004
  744MOL0     H  411   4.761   9.814   9.367 -0.9091 -1.7802 -0.9357
  744MOL0     H  412   4.790  10.105   9.261  3.2120  1.2433  1.2351
  744MOL0     H  413   4.712  10.054   9.408  1.8469 -3.0655 -0.0331
  744MOL0     H  414   4.927  10.156   9.439  0.3799  0.4756  0.5610
  744MOL0     H  415   5.011  10.046   9.336  0.3742 -1.2062  1.3856
  744MOL0     H  416   4.884   9.954   9.596  0.4643 -0.2963  1.2781
  744MOL0     H  417   4.950   9.848   9.475 -3.5072  0.9315 -1.2393
  744MOL0     H  418   5.109  10.056   9.643  0.8711 -0.6916  1.2702
  744MOL0     H  419   5.173   9.976   9.501  2.1257 -0.7445  2.0323
  744MOL0     H  420   5.070   9.800   9.732  2.2027 -3.5902  0.5711
  744MOL0     H  421   5.223   9.886   9.737  0.0852 -1.2547 -0.8108
  744MOL0     H  422   4.375   9.895   8.839 -2.5570 -0.4371 -2.6722
  744MOL0     H  423   4.329   9.780   8.637 -2.0691  1.2651  1.4785
  744MOL0     H  424   4.063   9.329   8.446 -0.4152 -0.7452 -1.0863
  744MOL0     H  425   4.073   9.165   8.281 -0.7493  1.4856  4.5489
  744MOL0     H  426   5.320   8.589   7.980 -2.3566  0.8404  1.8226
  744MOL0     H  427   5.424   8.808   8.047 -1.3406 -2.8782  0.1889
  744MOL0     H  428   5.811   9.140   7.871  1.3429  1.6138 -0.4017
  744MOL0     H  429   5.910   9.348   7.922  0.7095 -0.9717  1.0858
  744MOL0     H  430   5.678   9.688   8.110 -1.9161  2.0023 -0.4299
  744MOL0     H  431   5.844   9.742   8.087  1.5783 -1.7779  0.0247
  744MOL0     H  432   5.673   9.877   7.927  1.8045  0.7841  0.1673
  744MOL0     H  433   5.647   9.727   7.844  1.5412  1.7390 -4.3370
  744MOL0     H  434   5.891   9.718   7.813  0.7384  0.8013  2.7405
  744MOL0     H  435   5.888   9.899   7.844 -0.7450  1.9249 -2.2462
  744MOL0     H  436   5.742   9.730   7.633 -1.7011  0.8811  0.3259
  744MOL0     H  437   5.869   9.840   7.607  1.4271 -2.4977  0.6523
  744MOL0     H  438   5.539  10.098   7.605  0.3040 -0.4970 -2.6504
  744MOL0     H  439   5.524   9.525   8.004  1.2653 -0.4552  2.6600
  744MOL0     H  440   5.433   9.300   7.998 -0.7521  1.9521  0.2658
  745MOL0     O  441   3.999   5.623   6.222 -0.7779 -0.6813  0.2758
  745MOL0     C  442   4.116   5.597   6.184  0.7659 -0.2369  0.2326
  745MOL0     O  443   4.158   5.472   6.164  0.2495 -0.1226  0.1741
  745MOL0     C  444   4.073   5.381   6.221  1.0073 -0.8229 -0.4719
  745MOL0     C  445   3.966   5.338   6.151 -0.2322 -0.3043  0.0710
  745MOL0     C  446   3.890   5.236   6.210 -0.1297 -0.9024  0.1018
  745MOL0     C  447   3.914   5.188   6.340 -0.6128 -0.3280  0.6790
  745MOL0     O  448   3.841   5.085   6.399  0.0431 -0.4606  0.1873
  745MOL0     C  449   3.826   4.968   6.313  0.2837 -0.1900 -0.1049
  745MOL0     C  450   3.740   4.859   6.378  0.4131 -0.9722 -0.0491
  745MOL0     C  451   3.594   4.908   6.399 -0.3005 -1.0260 -0.1104
  745MOL0     C  452   3.495   4.804   6.460 -0.3394  0.6789 -0.4378
  745MOL0     C  453   3.451   4.685   6.372 -0.2675 -0.3034 -1.1275
  745MOL0     C  454   3.387   4.751   6.253  0.4889  0.4371  0.4720
  745MOL0     C  455   3.361   4.645   6.141  0.0699 -0.9878  0.8311
  745MOL0     C  456   3.308   4.713   6.008 -0.4973  0.1851  0.3647
  745MOL0     N  457   3.165   4.734   6.007  0.6505 -0.1851 -0.4674
  745MOL0     C  458   3.064   4.648   5.944 -0.1449 -0.4984  0.0251
  745MOL0     C  459   2.950   4.708   5.967  0.0659 -0.1974  0.5218
  745MOL0     C  460   2.817   4.654   5.920  0.5572  0.4676 -0.4076
  745MOL0     C  461   2.745   4.624   6.043  0.1080 -0.3054  0.1459
  745MOL0     C  462   2.617   4.551   6.026  0.6357  0.3478 -0.5984
  745MOL0     C  463   2.632   4.393   6.001  0.0737  1.0266  0.0152
  745MOL0     O  464   2.494   4.343   6.010  0.0245  0.2272  0.2406
  745MOL0     C  465   2.447   4.307   6.135 -0.2514  0.9387  0.4485
  745MOL0     C  466   2.321   4.252   6.133 -0.0420  0.9772 -0.0307
  745MOL0     C  467   2.256   4.214   6.253  0.7321  0.8092  0.2575
  745MOL0     C  468   2.113   4.146   6.241  0.2593 -1.1896 -0.6492
  745MOL0     C  469   2.310   4.251   6.381  0.0262  0.0674  0.5330
  745MOL0     C  470   2.239   4.253   6.507  0.3627  0.0006 -0.8561
  745MOL0     O  471   2.306   4.224   6.619 -0.6026  0.1704 -0.7203
  745MOL0     C  472   2.241   4.239   6.742  0.6037 -0.4379  0.2310
  745MOL0     C  473   2.251   4.349   6.825  0.0149 -1.1188  0.0411
  745MOL0     C  474   2.194   4.342   6.959  0.1064  0.0909 -0.7015
  745MOL0     C  475   2.133   4.224   7.006  0.5085  0.6097 -0.4018
  745MOL0     O  476   2.089   4.214   7.144  0.4706 -0.3297 -0.1001
  745MOL0     C  477   1.999   4.112   7.178 -0.3816 -0.1240  0.5540
  745MOL0     C  478   1.979   4.101   7.322 -0.1933 -0.3508  0.1241
  745MOL0     C  479   1.851   4.029   7.360 -0.2236  0.7573 -0.8868
  745MOL0     C  480   1.835   4.015   7.519 -0.0407 -0.0109  0.3872
  745MOL0     C  481   1.701   3.948   7.563 -0.3853  0.5495  0.4846
  745MOL0     C  482   1.676   3.948   7.716  0.1076  0.1364  0.6494
  745MOL0     C  483   1.764   3.849   7.791 -0.5427  0.5633 -0.1535
  745MOL0     C  484   1.773   3.852   7.942  0.7360 -0.2121 -0.2021
  745MOL0    Cl  485   1.863   3.721   8.012  0.0508 -0.2801 -0.1182
  745MOL0     C  486   2.119   4.114   6.913 -0.0824 -0.6421  0.1756
  745MOL0     C  487   2.168   4.123   6.779  0.0813  0.8621  0.3025
  745MOL0     O  488   2.119   4.273   6.513 -0.3731 -0.3390 -0.2130
  745MOL0     C  489   2.442   4.298   6.371  0.1787  1.0423 -0.6095
  745MOL0     C  490   2.516   4.311   6.256 -0.0418 -0.1817  0.3796
  745MOL0     N  491   2.967   4.826   6.038 -0.1822  0.1437  0.6155
  745MOL0     N  492   3.093   4.846   6.053 -0.7079  0.0569  0.1890
  745MOL0     C  493   4.023   5.237   6.410 -0.6479  0.8338 -0.2129
  745MOL0     C  494   4.107   5.333   6.349 -0.1139 -0.2282  0.9355
  745MOL0     C  495   4.175   5.713   6.118 -0.5795  0.1379  0.1626
  745MOL0     C  496   4.158   5.839   6.171  0.4454  0.9855  0.4384
  745MOL0     C  497   4.209   5.952   6.109  0.2612  0.5225 -0.4680
  745MOL0     C  498   4.269   5.947   5.985  0.0623  0.6300 -0.1668
  745MOL0     O  499   4.316   6.062   5.935  0.5064  0.8391  0.1036
  745MOL0     C  500   4.365   6.054   5.806  0.1895 -0.6858  0.0811
  745MOL0     C  501   4.359   6.198   5.739 -0.0031 -0.5364 -0.0540
  745MOL0     C  502   4.213   6.242   5.729 -0.6372 -0.5905  1.2965
  745MOL0     C  503   4.191   6.328   5.605  0.4020  0.1373  0.7221
  745MOL0     C  504   4.050   6.369   5.587 -0.0379 -0.6781 -0.6669
  745MOL0     C  505   3.933   6.406   5.573 -0.7622 -0.2711 -0.0158
  745MOL0     C  506   4.284   5.819   5.929 -0.1798 -0.4789 -0.1947
  745MOL0     C  507   4.239   5.703   5.995  0.6646  0.3219  0.8271
  745MOL0     H  508   3.935   5.384   6.058  0.7224  0.0362 -0.0857
  745MOL0     H  509   3.808   5.191   6.156  1.0595 -2.0566 -0.8165
  745MOL0     H  510   3.769   5.017   6.234 -2.8633  3.8919  4.0923
  745MOL0     H  511   3.925   4.932   6.283 -0.6415  0.1928 -4.1432
  745MOL0     H  512   3.735   4.769   6.315 -1.2360 -0.9836  0.0501
  745MOL0     H  513   3.782   4.832   6.476  0.6041  1.0821  0.4743
  745MOL0     H  514   3.600   4.996   6.464  1.4068  0.0367 -1.6127
  745MOL0     H  515   3.555   4.963   6.313  1.8682  1.4004  0.3126
  745MOL0     H  516   3.536   4.765   6.553 -2.7017 -1.4217 -0.1693
  745MOL0     H  517   3.401   4.852   6.489 -0.8699  1.9898 -3.8222
  745MOL0     H  518   3.537   4.625   6.339  0.6633  0.9416 -1.0546
  745MOL0     H  519   3.376   4.629   6.427 -2.5528  0.6426 -3.1180
  745MOL0     H  520   3.290   4.792   6.280  0.0873 -0.4880  0.4821
  745MOL0     H  521   3.438   4.834   6.202 -1.2846  0.3114 -1.6579
  745MOL0     H  522   3.454   4.594   6.114  1.2411  1.9525 -1.2121
  745MOL0     H  523   3.305   4.556   6.169  0.2372 -2.1989 -2.2574
  745MOL0     H  524   3.340   4.651   5.923 -5.5136 -0.3600 -1.4928
  745MOL0     H  525   3.349   4.809   5.977  1.8850 -1.2097 -1.1242
  745MOL0     H  526   3.084   4.551   5.898 -3.2523 -1.3693  0.3414
  745MOL0     H  527   2.770   4.730   5.858  0.6266 -0.5682 -1.7745
  745MOL0     H  528   2.838   4.565   5.859  3.6494  0.0555  1.0493
  745MOL0     H  529   2.720   4.721   6.088  0.7074  1.0409 -2.2523
  745MOL0     H  530   2.814   4.564   6.103  0.8663 -1.5551 -1.8601
  745MOL0     H  531   2.559   4.598   5.946 -2.1960 -0.8950  0.5575
  745MOL0     H  532   2.565   4.568   6.122 -0.5944 -1.5083 -0.8824
  745MOL0     H  533   2.693   4.340   6.075 -1.9656 -1.9013 -0.2274
  745MOL0     H  534   2.684   4.360   5.910  1.8335  0.9142  1.0067
  745MOL0     H  535   2.280   4.229   6.035 -0.8615  1.3187  0.2311
  745MOL0     H  536   2.097   4.067   6.315  0.7595  0.1415  0.9530
  745MOL0     H  537   2.040   4.227   6.254  1.6128  0.4215 -2.4963
  745MOL0     H  538   2.095   4.104   6.142 -1.0018 -0.6727 -0.6607
  745MOL0     H  539   2.306   4.430   6.779  0.4490 -1.2814  0.2587
  745MOL0     H  540   2.199   4.427   7.027 -2.6364  0.9991 -1.5124
  745MOL0     H  541   1.905   4.138   7.129 -0.4892 -0.2795  0.6778
  745MOL0     H  542   2.022   4.012   7.140 -0.9497 -1.2389  2.9197
  745MOL0     H  543   2.061   4.043   7.365  0.5499 -1.2074 -2.2808
  745MOL0     H  544   1.987   4.194   7.379  1.0544  0.3575 -1.1343
  745MOL0     H  545   1.849   3.929   7.315 -0.3535 -0.0221  0.7714
  745MOL0     H  546   1.766   4.074   7.309 -0.6256  0.3064 -0.6217
  745MOL0     H  547   1.915   3.959   7.568 -0.1876 -0.5839 -0.0095
  745MOL0     H  548   1.847   4.114   7.565  2.2758  0.1112 -0.3320
  745MOL0     H  549   1.704   3.841   7.542 -1.1566  0.1823  2.0504
  745MOL0     H  550   1.616   3.990   7.509 -1.5595 -2.7753 -0.4889
  745MOL0     H  551   1.705   4.048   7.748 -2.0414  1.4256 -1.1372
  745MOL0     H  552   1.570   3.929   7.734  0.0890  0.8091  1.2617
  745MOL0     H  553   1.863   3.885   7.760 -0.6533  0.6904 -0.3572
  745MOL0     H  554   1.751   3.746   7.757 -2.1521  0.1911  1.4365
  745MOL0     H  555   1.670   3.854   7.980  1.8053  0.8961  2.9353
  745MOL0     H  556   1.812   3.950   7.971  0.3360  0.0071 -0.3928
  745MOL0     H  557   2.073   4.023   6.948 -1.9848  0.3654  0.4441
  745MOL0     H  558   2.149   4.052   6.700  0.2236  2.4106 -1.1758
  745MOL0     H  559   2.501   4.299   6.462  1.7801  1.1870 -1.6197
  745MOL0     H  560   2.615   4.353   6.267 -0.4273  0.7424  0.4180
  745MOL0     H  561   4.043   5.200   6.510 -2.1926  1.8292  0.5065
  745MOL0     H  562   4.181   5.382   6.412  0.6968  1.5354 -1.2462
  745MOL0     H  563   4.121   5.850   6.272  0.2534  3.1374  0.1885
  745MOL0     H  564   4.212   6.053   6.148  3.6406  0.4344 -0.2304
  745MOL0     H  565   4.466   6.014   5.809  0.0183 -1.1293  0.1196
  745MOL0     H  566   4.309   5.990   5.735  0.3014 -0.5906 -0.0939
  745MOL0     H  567   4.405   6.197   5.640  1.3553  0.9283  0.5157
  745MOL0     H  568   4.402   6.275   5.804 -1.3596  0.4649 -0.2801
  745MOL0     H  569   4.176   6.297   5.816 -1.6002 -0.7332  0.9804
  745MOL0     H  570   4.147   6.155   5.719  1.1664 -1.9612  0.7250
  745MOL0     H  571   4.222   6.275   5.514 -0.3761  1.3807 -0.3161
  745MOL0     H  572   4.258   6.415   5.601  0.6585 -0.0953 -2.1227
  745MOL0     H  573   3.835   6.438   5.542 -0.4079 -0.6260 -1.5998
  745MOL0     H  574   4.327   5.790   5.834 -1.4382  0.3978 -1.0610
  745MOL0     H  575   4.243   5.607   5.946  0.3707 -0.2039  1.7994
  746MOL0     O  576   8.454   8.783   1.686  0.0460  0.7503 -0.4848
  746MOL0     C  577   8.448   8.887   1.757 -0.4582  0.6116 -0.4597
  746MOL0     O  578   8.332   8.953   1.805 -0.0536 -0.1373 -0.0605
  746MOL0     C  579   8.207   8.892   1.774  0.0922 -0.4259 -0.4361
  746MOL0     C  580   8.162   8.872   1.644 -0.6911  0.4953 -0.4888
  746MOL0     C  581   8.031   8.835   1.616 -1.4885 -1.2026  0.0969
  746MOL0     C  582   7.941   8.824   1.718  1.3113 -0.6414 -0.6020
  746MOL0     O  583   7.811   8.789   1.692  0.1797  0.1722  0.2396
  746MOL0     C  584   7.765   8.747   1.563  0.5160  0.5665 -0.2215
  746MOL0     C  585   7.622   8.689   1.570 -0.1420  0.9452 -0.3446
  746MOL0     C  586   7.575   8.672   1.421 -0.8490  0.4824 -1.0279
  746MOL0     C  587   7.457   8.585   1.420 -0.2380  0.5794 -1.1579
  746MOL0     C  588   7.379   8.596   1.286 -0.0278  0.0399  0.4916
  746MOL0     C  589   7.246   8.508   1.265 -0.6728  0.7833  0.5061
  746MOL0     C  590   7.208   8.521   1.117  0.2923  0.6407  0.3153
  746MOL0     C  591   7.209   8.660   1.050  0.3611  1.1202  0.7164
  746MOL0     N  592   7.167   8.659   0.908  0.2452  0.1393 -0.3925
  746MOL0     C  593   7.042   8.714   0.863  0.3180 -0.1682 -0.7651
  746MOL0     C  594   7.025   8.665   0.741 -0.4079 -0.9617  0.6194
  746MOL0     C  595   6.919   8.718   0.646  0.3223  0.0216 -0.5887
  746MOL0     C  596   6.968   8.729   0.499  0.1033  0.3853 -0.0519
  746MOL0     C  597   6.848   8.736   0.401 -0.7244  0.1495  0.1176
  746MOL0     C  598   6.771   8.601   0.384 -0.4201 -0.5653 -0.6966
  746MOL0     O  599   6.681   8.618   0.275  0.3272  0.2687  0.1178
  746MOL0     C  600   6.587   8.523   0.248  0.0395 -0.2843  0.0488
  746MOL0     C  601   6.552   8.406   0.320 -0.3223  0.6809 -0.6285
  746MOL0     C  602   6.456   8.317   0.275 -0.5215  0.5374 -0.3294
  746MOL0     C  603   6.433   8.193   0.359 -0.8908 -0.9843 -0.0916
  746MOL0     C  604   6.375   8.348   0.167  0.3322 -0.5529 -0.2668
  746MOL0     C  605   6.260   8.260   0.121 -1.2199 -0.4671  0.3522
  746MOL0     O  606   6.228   8.281  -0.014  0.2709  0.0500  0.6188
  746MOL0     C  607   6.117   8.218  -0.069  0.1620 -0.0647 -1.1778
  746MOL0     C  608   6.120   8.083  -0.110  0.1211  0.8990  0.6530
  746MOL0     C  609   6.010   8.025  -0.160  0.0042 -1.0430  0.3809
  746MOL0     C  610   5.896   8.106  -0.178 -0.9409  0.2415  0.5402
  746MOL0     O  611   5.785   8.042  -0.233 -0.5458 -0.3094  1.1316
  746MOL0     C  612   5.786   8.030  -0.376  0.7116 -1.3173  0.3462
  746MOL0     C  613   5.652   7.969  -0.412 -0.3061  0.3978 -0.3232
  746MOL0     C  614   5.626   7.835  -0.341  0.7157 -0.2588 -0.0214
  746MOL0     C  615   5.475   7.794  -0.352  0.0084  0.6934  0.1730
  746MOL0     C  616   5.439   7.712  -0.478 -0.1672 -0.2202  0.4498
  746MOL0     C  617   5.287   7.706  -0.497  0.5107  0.8459 -0.1251
  746MOL0     C  618   5.260   7.647  -0.631 -0.8684  0.6092  0.5748
  746MOL0     C  619   5.114   7.676  -0.668  0.3101  0.3203 -0.0720
  746MOL0    Cl  620   5.028   7.559  -0.572 -0.0510 -0.0736 -0.4350
  746MOL0     C  621   5.888   8.231  -0.129  0.1366 -0.3129 -0.8898
  746MOL0     C  622   5.994   8.292  -0.072  0.0177  0.7749 -0.6891
  746MOL0     O  623   6.208   8.180   0.195 -0.4229  0.1190 -0.5169
  746MOL0     C  624   6.409   8.469   0.088  0.1714 -0.3746 -0.7414
  746MOL0     C  625   6.507   8.554   0.140 -0.2029 -0.2837  0.4559
  746MOL0     N  626   7.138   8.583   0.716  0.2703 -0.0115  0.1892
  746MOL0     N  627   7.222   8.581   0.811 -0.0192 -0.5287 -0.4414
  746MOL0     C  628   7.986   8.832   1.854  0.3139  0.5678  0.1208
  746MOL0     C  629   8.116   8.875   1.880 -0.2476 -0.3401  1.1269
  746MOL0     C  630   8.581   8.969   1.761  0.7719  0.5128 -0.2245
  746MOL0     C  631   8.590   9.095   1.829  0.0026 -0.3261  0.3256
  746MOL0     C  632   8.706   9.166   1.827  0.0470  0.0555  0.2130
  746MOL0     C  633   8.826   9.110   1.781  0.7318 -0.9579 -1.0572
  746MOL0     O  634   8.952   9.170   1.779 -0.2558 -0.3607 -0.4534
  746MOL0     C  635   8.982   9.287   1.866 -0.0712  0.2088 -0.3922
  746MOL0     C  636   9.036   9.241   2.007 -0.2636  0.0587 -0.0748
  746MOL0     C  637   9.172   9.182   2.002 -0.3637 -0.4311  0.1625
  746MOL0     C  638   9.288   9.260   1.935 -0.1539 -0.0782  0.2249
  746MOL0     C  639   9.408   9.180   1.950 -0.6329 -0.3487 -0.6665
  746MOL0     C  640   9.508   9.114   1.964 -0.4246  0.0823 -0.5867
  746MOL0     C  641   8.812   8.976   1.737 -0.0421 -0.1794 -0.0373
  746MOL0     C  642   8.696   8.909   1.718  0.0722  0.3657 -0.3511
  746MOL0     H  643   8.234   8.878   1.563 -0.3904 -3.7673 -0.7722
  746MOL0     H  644   8.010   8.840   1.510 -0.0382  0.8127 -0.1738
  746MOL0     H  645   7.762   8.836   1.499 -0.5225 -2.6848 -5.3378
  746MOL0     H  646   7.829   8.669   1.521 -0.3218 -1.7870  2.5995
  746MOL0     H  647   7.612   8.599   1.631  0.3438  2.5940  2.3475
  746MOL0     H  648   7.559   8.770   1.608 -2.1315  0.1351 -1.7694
  746MOL0     H  649   7.552   8.774   1.391 -0.4738  0.4560 -1.3987
  746MOL0     H  650   7.657   8.627   1.366 -0.4926  2.1653 -1.9179
  746MOL0     H  651   7.495   8.483   1.432 -1.8534  0.1213  0.6332
  746MOL0     H  652   7.395   8.602   1.508 -0.5096 -0.4350 -1.1334
  746MOL0     H  653   7.346   8.701   1.289 -0.6466 -0.1735  2.2233
  746MOL0     H  654   7.451   8.564   1.211 -0.6528 -1.5642  0.5469
  746MOL0     H  655   7.253   8.402   1.289 -0.3961  0.5441 -0.5900
  746MOL0     H  656   7.171   8.552   1.332 -1.1949  0.5410  0.0936
  746MOL0     H  657   7.278   8.456   1.063  1.2269  0.6707  1.4327
  746MOL0     H  658   7.106   8.482   1.112  0.3104  0.6995 -4.0006
  746MOL0     H  659   7.309   8.704   1.051  2.5434 -3.1897 -0.8969
  746MOL0     H  660   7.141   8.721   1.109 -2.2872  0.0346 -1.0110
  746MOL0     H  661   6.971   8.774   0.919  0.4835 -0.5244 -0.1705
  746MOL0     H  662   6.830   8.654   0.656  0.2238  0.4338  2.0274
  746MOL0     H  663   6.882   8.812   0.687  1.8324  0.2329  0.3864
  746MOL0     H  664   7.033   8.646   0.473 -3.5644 -3.1288  0.9841
  746MOL0     H  665   7.024   8.822   0.484  1.2327 -0.2939 -0.1172
  746MOL0     H  666   6.874   8.763   0.299 -1.5813 -2.7966 -0.9773
  746MOL0     H  667   6.798   8.818   0.454  2.7270  0.6203  3.0914
  746MOL0     H  668   6.711   8.574   0.471  1.6329 -3.2674  0.0483
  746MOL0     H  669   6.841   8.520   0.360  0.6986  0.3035 -0.4580
  746MOL0     H  670   6.601   8.388   0.415 -2.1207  1.7767  0.5685
  746MOL0     H  671   6.342   8.197   0.421 -0.2744  3.7290  0.9301
  746MOL0     H  672   6.424   8.110   0.289  1.3578 -0.0553 -1.5832
  746MOL0     H  673   6.515   8.172   0.428 -0.5997  2.3707  0.7726
  746MOL0     H  674   6.215   8.031  -0.101 -0.0176  0.5491  0.1484
  746MOL0     H  675   6.002   7.925  -0.202 -3.5382 -1.1449  0.9725
  746MOL0     H  676   5.807   8.129  -0.418 -1.9212  0.5462  2.9619
  746MOL0     H  677   5.866   7.960  -0.399 -1.0935 -3.2333 -0.4151
  746MOL0     H  678   5.567   8.036  -0.396  0.2392  0.6875  1.6669
  746MOL0     H  679   5.653   7.954  -0.520  0.7388 -1.6086 -0.0746
  746MOL0     H  680   5.650   7.839  -0.234 -0.0905 -2.0133  0.2628
  746MOL0     H  681   5.693   7.761  -0.385  0.7855 -0.2764  0.1114
  746MOL0     H  682   5.447   7.741  -0.261  0.4581 -1.7224 -0.9992
  746MOL0     H  683   5.417   7.887  -0.346  3.2721  2.9997 -1.1652
  746MOL0     H  684   5.480   7.610  -0.479  1.9837  0.4949 -3.1451
  746MOL0     H  685   5.482   7.764  -0.564  1.4387  0.3807  1.5633
  746MOL0     H  686   5.240   7.651  -0.415 -2.6048  1.9855 -0.9836
  746MOL0     H  687   5.241   7.805  -0.499 -3.5109 -0.8411  0.3407
  746MOL0     H  688   5.266   7.539  -0.644 -0.3375  0.8205 -1.2828
  746MOL0     H  689   5.334   7.688  -0.700  0.0075 -2.4057 -0.3915
  746MOL0     H  690   5.107   7.647  -0.773 -1.1484  1.1399 -0.2320
  746MOL0     H  691   5.096   7.784  -0.658  0.1742  0.6696 -3.2218
  746MOL0     H  692   5.794   8.282  -0.150  1.6391  2.8382 -0.4689
  746MOL0     H  693   5.976   8.392  -0.033  1.2686  0.5645  0.5086
  746MOL0     H  694   6.352   8.489  -0.002  0.9945 -1.9042 -1.6338
  746MOL0     H  695   6.517   8.656   0.101 -2.9883  0.5616  1.7000
  746MOL0     H  696   7.904   8.823   1.925 -0.4354 -0.0211 -0.7897
  746MOL0     H  697   8.136   8.878   1.987  2.7127 -0.1609  0.6697
  746MOL0     H  698   8.501   9.134   1.878  0.6672  0.2739  1.0922
  746MOL0     H  699   8.714   9.266   1.866 -1.1415  0.3635 -0.2818
  746MOL0     H  700   9.061   9.347   1.819  2.9666 -3.9565 -1.0876
  746MOL0     H  701   8.893   9.348   1.885 -1.4823 -1.1705 -2.2987
  746MOL0     H  702   8.969   9.161   2.040 -1.2426  0.1523 -1.6852
  746MOL0     H  703   9.037   9.328   2.073  3.0554 -0.0153  0.1159
  746MOL0     H  704   9.167   9.082   1.957  1.6953 -0.4904 -0.0564
  746MOL0     H  705   9.195   9.145   2.102  0.7211 -2.9611 -0.9429
  746MOL0     H  706   9.301   9.349   1.997 -0.3117  0.7274 -0.8694
  746MOL0     H  707   9.273   9.286   1.830 -1.6263  0.3215  0.5149
  746MOL0     H  708   9.582   9.043   1.995 -1.7475 -0.9909  0.2834
  746MOL0     H  709   8.902   8.930   1.697  0.4154  0.3006  0.4198
  746MOL0     H  710   8.698   8.811   1.671 -0.9071  1.0358 -1.8850
  747MOL0     O  711   0.630   9.364   2.629  0.6487  0.5497 -0.5187
  747MOL0     C  712   0.681   9.343   2.519  1.1882 -0.4137 -0.1329
  747MOL0     O  713   0.618   9.280   2.415 -0.3261  0.4108  0.2169
  747MOL0     C  714   0.489   9.237   2.430  0.5359  0.7389  0.5879
  747MOL0     C  715   0.386   9.289   2.357  0.4955 -0.7634  0.1237
  747MOL0     C  716   0.251   9.256   2.385 -0.6363 -1.2761  0.6535
  747MOL0     C  717   0.225   9.139   2.459  0.3240 -0.3143 -0.1499
  747MOL0     O  718   0.099   9.076   2.469 -0.2530 -0.5552 -0.4666
  747MOL0     C  719  -0.019   9.149   2.449 -0.0655  0.6030 -0.7850
  747MOL0     C  720  -0.130   9.044   2.453 -0.0050 -0.6416 -0.5837
  747MOL0     C  721  -0.136   8.960   2.580  0.6172  0.5003 -1.2689
  747MOL0     C  722  -0.176   9.042   2.707  0.1562 -0.1630  0.1255
  747MOL0     C  723  -0.203   8.963   2.832 -0.1538 -0.0966  0.0981
  747MOL0     C  724  -0.213   9.054   2.956  1.4056  0.1390  0.2357
  747MOL0     C  725  -0.355   9.126   2.955 -0.2497  0.0735  0.4947
  747MOL0     C  726  -0.344   9.249   3.048  0.3289 -0.0181 -0.3770
  747MOL0     N  727  -0.398   9.209   3.182 -0.4738 -0.7144 -1.0427
  747MOL0     C  728  -0.523   9.162   3.216 -0.2573  0.3591  0.7008
  747MOL0     C  729  -0.516   9.153   3.351  0.4514  0.5858 -0.0820
  747MOL0     C  730  -0.621   9.093   3.440  0.3649 -0.6863 -0.0793
  747MOL0     C  731  -0.567   8.957   3.494 -0.4417  0.3338 -1.2669
  747MOL0     C  732  -0.689   8.893   3.555  0.1235  0.0047 -0.6925
  747MOL0     C  733  -0.756   8.787   3.465 -0.2627  0.9897 -0.1340
  747MOL0     O  734  -0.823   8.847   3.351 -0.8093  0.9610  0.3613
  747MOL0     C  735  -0.762   8.838   3.227  0.1301 -1.2396 -0.2168
  747MOL0     C  736  -0.798   8.936   3.138  0.5245 -0.0409 -0.3680
  747MOL0     C  737  -0.746   8.938   3.005  0.4056 -0.1692 -0.2469
  747MOL0     C  738  -0.803   9.050   2.916 -1.1379  0.7393 -0.2394
  747MOL0     C  739  -0.644   8.842   2.959 -0.6519  0.0467  0.2352
  747MOL0     C  740  -0.577   8.843   2.821 -0.0095 -0.2696 -0.2510
  747MOL0     O  741  -0.620   8.940   2.727 -0.0899  0.3953  0.2367
  747MOL0     C  742  -0.633   8.899   2.600 -0.5743  0.4503 -0.3393
  747MOL0     C  743  -0.755   8.848   2.557 -0.3903 -0.1880  0.3937
  747MOL0     C  744  -0.770   8.799   2.426 -0.8890  0.2355  0.2313
  747MOL0     C  745  -0.664   8.806   2.333 -0.0108  0.4532  0.1251
  747MOL0     O  746  -0.667   8.753   2.204  0.0055  0.1468 -0.2769
  747MOL0     C  747  -0.798   8.738   2.141 -0.1453  1.0074 -0.2456
  747MOL0     C  748  -0.770   8.738   1.984  0.7071  0.0612 -0.8183
  747MOL0     C  749  -0.718   8.599   1.945  0.0881 -0.5965  0.1529
  747MOL0     C  750  -0.698   8.580   1.799  0.2622 -0.7388  0.1724
  747MOL0     C  751  -0.761   8.445   1.759 -0.4624  0.2605 -0.1333
  747MOL0     C  752  -0.695   8.394   1.624  0.2725  0.6975 -0.7871
  747MOL0     C  753  -0.727   8.249   1.609  0.2859  0.2593  0.2218
  747MOL0     C  754  -0.662   8.201   1.473 -0.7252  0.3154 -1.1824
  747MOL0    Cl  755  -0.475   8.203   1.485  0.5566 -0.1952  0.2177
  747MOL0     C  756  -0.548   8.862   2.381 -0.7367  1.3573 -0.5083
  747MOL0     C  757  -0.527   8.909   2.513  0.6104 -0.8494  0.0826
  747MOL0     O  758  -0.504   8.749   2.790 -0.2660  0.5098  0.1658
  747MOL0     C  759  -0.606   8.752   3.064  0.2736  0.2355  0.8232
  747MOL0     C  760  -0.666   8.747   3.183  0.2637  0.3152 -0.9917
  747MOL0     N  761  -0.402   9.212   3.399  0.3011 -0.4147 -0.2429
  747MOL0     N  762  -0.333   9.241   3.294 -0.0031  0.0736  0.2525
  747MOL0     C  763   0.329   9.066   2.515  0.5779 -0.3095  1.0469
  747MOL0     C  764   0.459   9.127   2.514  0.5551 -0.4553 -0.1499
  747MOL0     C  765   0.810   9.401   2.487 -0.3240 -0.8664  0.5299
  747MOL0     C  766   0.867   9.394   2.359  0.0511 -0.1159  0.6007
  747MOL0     C  767   0.991   9.451   2.337 -0.0663  0.4820 -0.5006
  747MOL0     C  768   1.072   9.498   2.445  0.8465  0.0634 -0.1854
  747MOL0     O  769   1.198   9.550   2.429 -0.2394  0.2407  0.4710
  747MOL0     C  770   1.274   9.542   2.307 -0.4808  0.8273  0.0318
  747MOL0     C  771   1.330   9.397   2.286 -0.8044 -0.0060  0.1723
  747MOL0     C  772   1.424   9.403   2.158  0.4741 -0.0982  0.0669
  747MOL0     C  773   1.380   9.340   2.028  0.0151 -0.8718  0.8698
  747MOL0     C  774   1.257   9.409   1.980 -0.3519 -0.5457 -0.7375
  747MOL0     C  775   1.152   9.464   1.954  0.3108 -0.3448  0.7421
  747MOL0     C  776   1.017   9.515   2.571  0.8815 -0.4526 -0.4632
  747MOL0     C  777   0.879   9.473   2.585 -1.4861  0.0277  0.4527
  747MOL0     H  778   0.415   9.364   2.284  0.0531 -0.4552  0.2639
  747MOL0     H  779   0.177   9.315   2.331  1.5852  0.1440 -0.9857
  747MOL0     H  780  -0.043   9.223   2.526 -1.0707  1.0385 -1.4848
  747MOL0     H  781  -0.024   9.206   2.356 -0.5171  1.8919  0.0020
  747MOL0     H  782  -0.233   9.081   2.447 -0.1973 -1.2606 -1.1815
  747MOL0     H  783  -0.113   8.981   2.366  2.2669  1.8781 -2.1036
  747MOL0     H  784  -0.216   8.888   2.561  1.7436 -0.9223 -0.7612
  747MOL0     H  785  -0.045   8.903   2.599  0.3871  0.6390  0.4177
  747MOL0     H  786  -0.092   9.110   2.719 -0.6760  0.7836  0.8083
  747MOL0     H  787  -0.266   9.102   2.689  1.1042  1.2810  0.0776
  747MOL0     H  788  -0.292   8.901   2.820 -0.0704  0.2266 -3.0839
  747MOL0     H  789  -0.116   8.896   2.833 -0.2469 -0.3548 -2.7580
  747MOL0     H  790  -0.215   8.997   3.049  0.6256  0.8888  0.6976
  747MOL0     H  791  -0.133   9.128   2.957  2.0605 -0.2605 -3.8384
  747MOL0     H  792  -0.384   9.172   2.860 -1.1451  0.1677  0.8041
  747MOL0     H  793  -0.440   9.059   2.970 -2.6192  2.5835 -0.7570
  747MOL0     H  794  -0.413   9.324   3.009 -1.3403 -1.4003 -0.2019
  747MOL0     H  795  -0.243   9.287   3.061  0.0595  0.1520  1.5550
  747MOL0     H  796  -0.603   9.112   3.161  0.1147 -0.8553  1.2233
  747MOL0     H  797  -0.643   9.179   3.504  3.7191  0.4835 -0.3245
  747MOL0     H  798  -0.713   9.081   3.382  2.1359 -3.2652 -2.6352
  747MOL0     H  799  -0.498   8.982   3.574  1.9028 -1.3272 -2.6519
  747MOL0     H  800  -0.519   8.900   3.414 -1.2149 -2.3160  0.0558
  747MOL0     H  801  -0.768   8.964   3.579 -0.4146 -0.4518 -1.0675
  747MOL0     H  802  -0.655   8.847   3.648 -1.0452 -2.4544 -1.3822
  747MOL0     H  803  -0.839   8.739   3.518 -0.7574  1.2884 -0.6278
  747MOL0     H  804  -0.686   8.709   3.433  1.3175  2.1596  0.3793
  747MOL0     H  805  -0.881   8.996   3.172  0.1285 -1.2645  0.9285
  747MOL0     H  806  -0.716   9.105   2.880  1.2486  0.1316  3.9372
  747MOL0     H  807  -0.868   9.005   2.839 -1.4861  0.6604  0.0981
  747MOL0     H  808  -0.861   9.122   2.973 -0.1644  1.1660  0.2288
  747MOL0     H  809  -0.836   8.846   2.628  0.7152  1.0718  1.7408
  747MOL0     H  810  -0.864   8.751   2.398 -0.0304 -2.4136  1.5275
  747MOL0     H  811  -0.838   8.641   2.175 -0.0950  0.6195 -1.2341
  747MOL0     H  812  -0.873   8.814   2.164 -2.4850 -1.1875 -0.0279
  747MOL0     H  813  -0.864   8.768   1.937 -0.7399  0.4273  2.0890
  747MOL0     H  814  -0.695   8.812   1.955 -1.3252  2.7907  0.4363
  747MOL0     H  815  -0.798   8.530   1.970 -0.3035 -0.4705 -0.7154
  747MOL0     H  816  -0.632   8.565   2.004 -0.6863 -2.3901  0.3018
  747MOL0     H  817  -0.739   8.665   1.744 -0.6266  0.0504  1.9666
  747MOL0     H  818  -0.590   8.582   1.777  0.2759 -0.3514  0.2627
  747MOL0     H  819  -0.870   8.440   1.751 -0.6922  2.4501  0.9656
  747MOL0     H  820  -0.727   8.372   1.833 -0.4872  0.5129  0.1287
  747MOL0     H  821  -0.731   8.458   1.543  1.5459  1.4552 -0.7870
  747MOL0     H  822  -0.588   8.416   1.628  0.2439  1.1947 -2.1571
  747MOL0     H  823  -0.836   8.241   1.610  0.3474 -2.1480 -1.5517
  747MOL0     H  824  -0.674   8.196   1.689 -3.5223 -1.3422  1.9582
  747MOL0     H  825  -0.700   8.267   1.395  1.1032  0.5501 -1.9237
  747MOL0     H  826  -0.701   8.100   1.458 -2.5409  1.0595 -1.7438
  747MOL0     H  827  -0.467   8.881   2.312  0.3088  1.4361  0.6983
  747MOL0     H  828  -0.442   8.946   2.570  0.7740  1.6101 -1.5988
  747MOL0     H  829  -0.537   8.672   3.040  1.5184  1.9710 -1.8815
  747MOL0     H  830  -0.648   8.655   3.237 -3.3600  0.6110  1.0604
  747MOL0     H  831   0.312   8.975   2.571 -1.2191 -0.9888 -0.4897
  747MOL0     H  832   0.535   9.065   2.561 -0.4698 -1.4710  0.2193
  747MOL0     H  833   0.807   9.359   2.275  0.7506  1.9866 -0.8632
  747MOL0     H  834   1.032   9.451   2.237  0.6414 -1.7999 -0.2682
  747MOL0     H  835   1.224   9.583   2.219  1.0266  2.4962 -0.1090
  747MOL0     H  836   1.369   9.596   2.310 -1.5286  2.8021 -0.6967
  747MOL0     H  837   1.252   9.321   2.274 -0.0484 -0.8323  0.3946
  747MOL0     H  838   1.390   9.361   2.370 -2.9320 -4.2472  0.1435
  747MOL0     H  839   1.502   9.332   2.186  0.6104 -0.6782 -1.6427
  747MOL0     H  840   1.460   9.505   2.145 -0.2475  0.7389  3.7499
  747MOL0     H  841   1.352   9.235   2.029 -4.0515  0.0439  0.7341
  747MOL0     H  842   1.470   9.355   1.967 -0.9367 -1.4910 -0.7562
  747MOL0     H  843   1.055   9.504   1.936  1.0246 -0.1804 -4.1053
  747MOL0     H  844   1.060   9.572   2.653  1.5132 -1.2132 -0.2537
  747MOL0     H  845   0.839   9.487   2.685  3.9312  1.7403  2.7550
  748MOL0     O  846   4.122   1.327   6.745 -0.3922 -0.2037 -0.0049
  748MOL0     C  847   4.197   1.411   6.801  0.6345 -0.1274  0.4558
  748MOL0     O  848   4.172   1.470   6.925 -0.2176  0.0664  0.3595
  748MOL0     C  849   4.055   1.440   6.999 -0.1371 -0.5573  1.2093
  748MOL0     C  850   4.066   1.417   7.125  0.3816 -0.3319 -0.4990
  748MOL0     C  851   3.951   1.423   7.214  0.5236  0.9130  0.2084
  748MOL0     C  852   3.825   1.437   7.153  0.2490 -0.0066  0.2825
  748MOL0     O  853   3.707   1.477   7.219  0.1006  0.1916  0.2714
  748MOL0     C  854   3.709   1.519   7.355  0.4525 -0.5137 -0.1395
  748MOL0     C  855   3.581   1.585   7.411 -0.4630 -0.5686 -0.0674
  748MOL0     C  856   3.463   1.490   7.408  0.4706  0.2764 -0.0454
  748MOL0     C  857   3.348   1.540   7.325  0.0045  0.2928  0.1311
  748MOL0     C  858   3.248   1.428   7.283  0.0730  0.5126 -0.2004
  748MOL0     C  859   3.277   1.367   7.147 -1.2929 -0.5952  0.0857
  748MOL0     C  860   3.240   1.470   7.031  0.0362  0.2312 -0.6842
  748MOL0     C  861   3.219   1.382   6.912  0.1662 -0.5103  0.3128
  748MOL0     N  862   3.275   1.457   6.797 -0.4521 -0.2287 -1.1024
  748MOL0     C  863   3.403   1.507   6.780  1.1431 -0.3730 -0.3058
  748MOL0     C  864   3.391   1.575   6.665  0.1800  0.1291  0.5841
  748MOL0     C  865   3.497   1.648   6.594  0.2493  0.2701 -0.2290
  748MOL0     C  866   3.588   1.564   6.507  0.8939 -0.6643  0.3903
  748MOL0     C  867   3.713   1.501   6.573 -0.1120 -0.0682 -0.1657
  748MOL0     C  868   3.845   1.557   6.520  0.1257 -0.1112  0.7387
  748MOL0     O  869   3.869   1.543   6.379  0.2885 -0.0815 -0.8936
  748MOL0     C  870   3.982   1.613   6.350 -0.6396  0.6831  0.8404
  748MOL0     C  871   3.978   1.744   6.302 -0.2814 -0.2370 -0.1316
  748MOL0     C  872   4.093   1.821   6.260 -0.1329  0.4518 -0.1087
  748MOL0     C  873   4.059   1.957   6.211 -0.5860  0.4042  0.8897
  748MOL0     C  874   4.222   1.761   6.254  0.9082  0.2371 -0.5020
  748MOL0     C  875   4.348   1.817   6.194 -0.2950 -0.7308  0.1800
  748MOL0     O  876   4.462   1.731   6.200  0.1752 -0.6806  0.8071
  748MOL0     C  877   4.588   1.787   6.172  0.4644 -0.1527  0.0906
  748MOL0     C  878   4.672   1.709   6.095  0.0587  0.8765  0.3197
  748MOL0     C  879   4.791   1.764   6.042 -0.2525  0.1846 -0.3904
  748MOL0     C  880   4.835   1.886   6.070  0.0906 -0.7260 -0.0529
  748MOL0     O  881   4.950   1.919   6.001 -0.4765  0.1434  0.4294
  748MOL0     C  882   4.961   2.058   5.961  0.4205  0.3644 -0.5348
  748MOL0     C  883   4.879   2.114   5.845 -0.0438 -1.1840  0.1815
  748MOL0     C  884   4.917   2.069   5.698  0.1759 -0.4237 -0.7458
  748MOL0     C  885   5.060   2.111   5.657  0.4533  1.2798  0.3556
  748MOL0     C  886   5.087   2.083   5.501 -0.8081 -0.0667 -0.7213
  748MOL0     C  887   5.248   2.086   5.491 -0.5889 -0.1631 -0.3462
  748MOL0     C  888   5.275   2.121   5.342 -0.0181 -0.1440  0.5415
  748MOL0     C  889   5.389   2.042   5.273 -0.7263  0.6059  0.2933
  748MOL0    Cl  890   5.416   1.875   5.309  0.1201  0.0575 -0.0434
  748MOL0     C  891   4.754   1.960   6.166 -0.5249 -1.3011  0.5156
  748MOL0     C  892   4.633   1.916   6.213 -0.3908  0.3813 -0.6470
  748MOL0     O  893   4.351   1.930   6.141  0.1069 -0.1758  0.1527
  748MOL0     C  894   4.232   1.636   6.313 -0.5301 -0.2077 -0.3936
  748MOL0     C  895   4.117   1.560   6.356  0.0466 -0.0349 -0.4005
  748MOL0     N  896   3.262   1.560   6.620 -0.4890 -0.1290  0.4533
  748MOL0     N  897   3.199   1.484   6.694 -0.1538  0.0206 -0.4917
  748MOL0     C  898   3.816   1.445   7.015 -0.4342  0.9214  0.7168
  748MOL0     C  899   3.931   1.459   6.937  0.6210 -0.4251 -0.0525
  748MOL0     C  900   4.327   1.440   6.729  0.5697  0.1897  0.1070
  748MOL0     C  901   4.345   1.388   6.597 -0.2194  0.8777  0.2262
  748MOL0     C  902   4.463   1.424   6.524  0.2306  1.1453 -0.9595
  748MOL0     C  903   4.561   1.501   6.579 -0.5340 -0.0691 -0.4489
  748MOL0     O  904   4.677   1.499   6.516  0.1308  0.4291  0.8352
  748MOL0     C  905   4.798   1.538   6.590 -0.4101 -0.0107  0.6017
  748MOL0     C  906   4.917   1.517   6.504 -0.5164  1.0323  0.0922
  748MOL0     C  907   4.930   1.602   6.385 -0.6352  0.0590  0.7204
  748MOL0     C  908   5.045   1.564   6.278  0.7695 -0.5837 -0.0721
  748MOL0     C  909   5.178   1.541   6.341  0.4271 -0.4064 -0.9716
  748MOL0     C  910   5.281   1.499   6.405  0.6140 -0.2079  0.3319
  748MOL0     C  911   4.542   1.546   6.711 -0.3415  0.8457 -0.2977
  748MOL0     C  912   4.426   1.521   6.779  0.5088  0.4717 -0.3563
  748MOL0     H  913   4.170   1.409   7.155  0.0441 -1.8228  0.3618
  748MOL0     H  914   3.948   1.413   7.322 -0.4323 -0.5051  0.0797
  748MOL0     H  915   3.759   1.447   7.421  1.7702  0.2007 -0.3330
  748MOL0     H  916   3.774   1.605   7.341 -1.9741  1.0259 -3.2159
  748MOL0     H  917   3.591   1.621   7.514 -1.6180  0.2349 -0.2093
  748MOL0     H  918   3.556   1.674   7.352  0.0882 -0.9404 -0.8754
  748MOL0     H  919   3.491   1.394   7.364  0.3175  0.8141 -1.3638
  748MOL0     H  920   3.430   1.481   7.512 -3.2532 -0.1231 -1.1154
  748MOL0     H  921   3.304   1.616   7.390  0.0897  0.3491  0.1237
  748MOL0     H  922   3.378   1.595   7.235 -2.4863  3.0639  0.8309
  748MOL0     H  923   3.254   1.348   7.357  2.2479  0.7461 -0.0371
  748MOL0     H  924   3.141   1.451   7.284 -0.7763 -2.6145 -2.9624
  748MOL0     H  925   3.383   1.342   7.146 -1.4186 -1.1512  0.2010
  748MOL0     H  926   3.218   1.275   7.141 -2.2087 -0.0830  1.0526
  748MOL0     H  927   3.144   1.516   7.053  0.3255 -0.8144  3.4391
  748MOL0     H  928   3.316   1.548   7.029  3.5357 -2.3654  4.8179
  748MOL0     H  929   3.112   1.361   6.903  0.4460 -2.4505  0.9512
  748MOL0     H  930   3.278   1.289   6.911  0.5657 -0.3732  3.3045
  748MOL0     H  931   3.490   1.498   6.844 -0.8452 -0.4088  2.5953
  748MOL0     H  932   3.453   1.719   6.523 -1.8364 -1.6248 -0.9392
  748MOL0     H  933   3.550   1.714   6.663  0.7016  1.3345 -1.5614
  748MOL0     H  934   3.613   1.624   6.420  1.3910 -0.8371  0.4069
  748MOL0     H  935   3.529   1.484   6.460 -2.9127  1.0464  1.8234
  748MOL0     H  936   3.713   1.393   6.559 -1.5198 -0.0998 -0.1032
  748MOL0     H  937   3.722   1.513   6.682  3.2398  0.6993 -0.4235
  748MOL0     H  938   3.927   1.511   6.576  0.2068 -1.9134 -0.7676
  748MOL0     H  939   3.851   1.664   6.543 -2.8027 -0.0489  1.5847
  748MOL0     H  940   3.882   1.794   6.296  1.2524  3.0243  0.3931
  748MOL0     H  941   3.963   2.001   6.239 -2.7477 -2.6525 -1.1021
  748MOL0     H  942   4.149   2.013   6.240  0.0442 -0.6312  0.9882
  748MOL0     H  943   4.055   1.955   6.102  1.4384 -2.3244  0.7546
  748MOL0     H  944   4.660   1.609   6.054  0.4414  0.4895  1.1308
  748MOL0     H  945   4.845   1.699   5.973 -1.0861 -1.7397  0.6805
  748MOL0     H  946   4.934   2.129   6.040  2.1256  0.5837 -0.0948
  748MOL0     H  947   5.066   2.079   5.936 -0.4043  1.8471 -3.1237
  748MOL0     H  948   4.775   2.081   5.859 -0.9930  1.5105 -0.0621
  748MOL0     H  949   4.874   2.223   5.851  2.1823 -0.8643 -1.9671
  748MOL0     H  950   4.838   2.122   5.644  0.4184 -0.0319 -0.7214
  748MOL0     H  951   4.907   1.961   5.679 -0.4223 -0.2294 -1.5640
  748MOL0     H  952   5.089   2.216   5.672  0.9932  1.0502  0.9821
  748MOL0     H  953   5.130   2.047   5.711 -0.0536 -1.3387 -1.8671
  748MOL0     H  954   5.056   2.171   5.444 -0.0969 -0.8563 -2.4123
  748MOL0     H  955   5.038   1.990   5.471 -4.3182  1.2511  0.3862
  748MOL0     H  956   5.282   2.166   5.558 -0.0272 -1.8497  1.4626
  748MOL0     H  957   5.301   1.995   5.519  2.4270  1.5375 -0.1525
  748MOL0     H  958   5.306   2.226   5.341 -0.6123  0.1622 -3.5758
  748MOL0     H  959   5.189   2.117   5.274  1.0587 -1.4916 -0.8175
  748MOL0     H  960   5.479   2.102   5.288 -1.8397  2.8786 -1.4529
  748MOL0     H  961   5.366   2.057   5.168 -0.5660  0.7194  0.2738
  748MOL0     H  962   4.790   2.061   6.185 -1.4601 -1.1038  1.3568
  748MOL0     H  963   4.578   1.955   6.298  1.3018 -0.1625  0.7622
  748MOL0     H  964   4.320   1.572   6.315 -1.0905 -0.9941 -0.6653
  748MOL0     H  965   4.131   1.454   6.376 -1.5975 -0.9883 -3.6353
  748MOL0     H  966   3.716   1.459   6.975 -0.1285 -1.0695 -0.8788
  748MOL0     H  967   3.909   1.499   6.838 -0.8900 -0.9193  0.0505
  748MOL0     H  968   4.271   1.330   6.544  1.6611 -2.3567  0.8578
  748MOL0     H  969   4.483   1.363   6.437 -0.0876 -1.4913  0.6895
  748MOL0     H  970   4.792   1.642   6.621 -0.2949  0.0953  0.2710
  748MOL0     H  971   4.805   1.475   6.680 -2.5188  1.2460  1.7399
  748MOL0     H  972   4.941   1.416   6.471  1.2903  1.6071 -0.4617
  748MOL0     H  973   5.005   1.530   6.568  0.3287 -2.3850 -0.1692
  748MOL0     H  974   4.954   1.705   6.414  0.3908 -0.4952  1.9264
  748MOL0     H  975   4.832   1.607   6.338 -0.0467  2.4883 -0.4490
  748MOL0     H  976   5.051   1.649   6.210  1.2254  0.9907  1.8379
  748MOL0     H  977   5.008   1.479   6.219 -1.5733 -0.0161  0.4698
  748MOL0     H  978   5.366   1.468   6.461  0.8005 -1.7136 -0.7016
  748MOL0     H  979   4.616   1.597   6.772  1.4007 -0.9488 -0.8163
  748MOL0     H  980   4.397   1.572   6.870 -0.2657  0.9554 -0.8543
  749MOL0     O  981   4.972  10.552   1.286 -0.2483  0.5472  0.2838
  749MOL0     C  982   5.014  10.540   1.399 -0.3591 -0.2208 -0.1001
  749MOL0     O  983   4.946  10.572   1.519  0.0422  0.2895  0.1228
  749MOL0     C  984   4.837  10.645   1.503  0.0028  0.9148 -0.8419
  749MOL0     C  985   4.735  10.601   1.594 -0.3455  0.6470 -0.3337
  749MOL0     C  986   4.616  10.673   1.599  0.3192 -0.2472 -0.4272
  749MOL0     C  987   4.599  10.786   1.516  0.4640  0.0669 -0.8719
  749MOL0     O  988   4.475  10.843   1.496 -0.1421  0.3832  0.1110
  749MOL0     C  989   4.361  10.807   1.583  0.3752  0.3749  0.4165
  749MOL0     C  990   4.251  10.915   1.559  1.5795  0.7907 -0.5596
  749MOL0     C  991   4.110  10.860   1.602 -0.2698  0.4821 -0.2316
  749MOL0     C  992   3.995  10.965   1.623  0.3148  0.3865 -0.3203
  749MOL0     C  993   3.867  10.908   1.674  1.0261 -0.0263 -0.2665
  749MOL0     C  994   3.767  11.027   1.698  0.0367  0.0540  0.1638
  749MOL0     C  995   3.702  11.075   1.565 -1.0950 -0.5328 -0.3337
  749MOL0     C  996   3.618  11.207   1.577  0.0606  0.5257  0.2243
  749MOL0     N  997   3.547  11.238   1.452  0.9886  0.5974 -0.5529
  749MOL0     C  998   3.425  11.199   1.411 -0.1270  0.0297 -0.4345
  749MOL0     C  999   3.397  11.264   1.293  1.8151  0.0816 -0.4505
  749MOL0     C 1000   3.265  11.258   1.205 -0.4159 -0.2180 -0.7537
  749MOL0     C 1001   3.161  11.354   1.265 -0.3992  0.5265 -0.6675
  749MOL0     C 1002   3.021  11.333   1.199  0.1883 -0.0306 -0.0788
  749MOL0     C 1003   2.992  11.374   1.055 -0.4208  0.5223 -0.3273
  749MOL0     O 1004   2.874  11.305   1.006 -0.1917 -0.3866  0.2194
  749MOL0     C 1005   2.766  11.375   0.963  0.3332  0.0638  0.4257
  749MOL0     C 1006   2.730  11.502   1.012 -0.4549 -0.1413  0.3339
  749MOL0     C 1007   2.608  11.559   0.980  0.0433 -0.0052 -0.2470
  749MOL0     C 1008   2.581  11.687   1.064  0.4239 -0.0796  0.0509
  749MOL0     C 1009   2.523  11.502   0.886  0.2950 -0.6710  0.1540
  749MOL0     C 1010   2.393  11.563   0.839 -0.8273 -0.0242 -0.0590
  749MOL0     O 1011   2.330  11.503   0.729  0.2287  0.1151 -0.1802
  749MOL0     C 1012   2.204  11.541   0.702  0.8109  0.1271  1.1079
  749MOL0     C 1013   2.117  11.433   0.696  0.0912 -1.1973  0.0691
  749MOL0     C 1014   1.976  11.455   0.654  0.6723  0.2693  0.2198
  749MOL0     C 1015   1.931  11.585   0.627 -0.0104  0.8753 -1.1424
  749MOL0     O 1016   1.799  11.601   0.584 -0.4450  0.5012  0.0796
  749MOL0     C 1017   1.692  11.567   0.671 -0.0482 -0.6217 -0.4004
  749MOL0     C 1018   1.556  11.571   0.594 -0.0923  0.4530  0.8782
  749MOL0     C 1019   1.452  11.508   0.673  0.2000  0.5520  0.6498
  749MOL0     C 1020   1.316  11.536   0.614 -0.0336 -0.3126 -0.0704
  749MOL0     C 1021   1.208  11.515   0.715 -0.4209 -0.1462 -0.6312
  749MOL0     C 1022   1.063  11.490   0.677  0.2871 -0.6442  0.9621
  749MOL0     C 1023   0.964  11.469   0.790  0.8741 -0.0984  1.3799
  749MOL0     C 1024   0.823  11.503   0.748 -0.7969 -0.4656 -0.4080
  749MOL0    Cl 1025   0.722  11.476   0.883 -0.0873 -0.2515 -0.0024
  749MOL0     C 1026   2.027  11.689   0.643 -0.3181  0.2436  0.6526
  749MOL0     C 1027   2.158  11.671   0.687 -0.6202  0.2621 -0.1001
  749MOL0     O 1028   2.340  11.646   0.910 -0.9755  0.3630 -0.2168
  749MOL0     C 1029   2.569  11.377   0.829 -0.1466  0.1015 -1.2441
  749MOL0     C 1030   2.689  11.318   0.865  0.4035  0.0138 -0.5826
  749MOL0     N 1031   3.490  11.368   1.285 -0.2951  0.4308 -0.2462
  749MOL0     N 1032   3.583  11.337   1.369  0.6379  0.1971  0.2677
  749MOL0     C 1033   4.698  10.828   1.437  0.1283  0.3749  0.5431
  749MOL0     C 1034   4.818  10.756   1.424  0.0080 -0.3357  0.6877
  749MOL0     C 1035   5.153  10.479   1.427  0.4577  0.2088  0.1452
  749MOL0     C 1036   5.187  10.451   1.556 -0.2051  0.2936  0.4034
  749MOL0     C 1037   5.318  10.418   1.588  0.0602 -0.3845  0.7705
  749MOL0     C 1038   5.410  10.400   1.495 -0.0531 -0.2184  0.4151
  749MOL0     O 1039   5.531  10.361   1.545 -0.1853  0.0718  0.8436
  749MOL0     C 1040   5.645  10.418   1.480  0.3274  0.0456  0.5474
  749MOL0     C 1041   5.774  10.351   1.530 -0.2025 -0.8055  0.7983
  749MOL0     C 1042   5.825  10.398   1.662  0.1948 -0.3930 -0.5770
  749MOL0     C 1043   5.843  10.555   1.658  0.1433  0.5875 -0.0734
  749MOL0     C 1044   5.928  10.581   1.772 -0.7511 -0.0138  0.3430
  749MOL0     C 1045   6.006  10.596   1.860 -0.5600  0.4161  0.2708
  749MOL0     C 1046   5.374  10.418   1.361  0.5387 -0.2981  0.6618
  749MOL0     C 1047   5.246  10.465   1.322 -0.0540  1.6007 -0.1950
  749MOL0     H 1048   4.755  10.511   1.652  0.7425 -0.8375 -2.8142
  749MOL0     H 1049   4.537  10.656   1.672 -0.1961  1.9298 -0.4365
  749MOL0     H 1050   4.317  10.712   1.553  0.6765 -0.4208  2.3624
  749MOL0     H 1051   4.388  10.793   1.688 -3.7643 -2.7511  1.2919
  749MOL0     H 1052   4.272  11.011   1.609  0.9654  1.2092 -1.0966
  749MOL0     H 1053   4.248  10.924   1.450 -1.1219 -1.2157 -0.7555
  749MOL0     H 1054   4.083  10.790   1.522  1.4215  3.2965 -3.5326
  749MOL0     H 1055   4.132  10.803   1.692 -0.8251  0.2066 -0.2673
  749MOL0     H 1056   4.035  11.045   1.686 -0.1974  1.1585 -0.9668
  749MOL0     H 1057   3.987  11.005   1.521  1.0373  0.0398 -0.5263
  749MOL0     H 1058   3.815  10.840   1.606  0.6478 -0.4457  0.4336
  749MOL0     H 1059   3.889  10.851   1.765 -1.8243 -2.9808 -1.2208
  749MOL0     H 1060   3.693  11.011   1.777  1.0540 -1.1053  0.9106
  749MOL0     H 1061   3.824  11.108   1.744 -0.9865 -0.0708  1.7424
  749MOL0     H 1062   3.773  11.093   1.484 -0.5728  1.6963  0.5539
  749MOL0     H 1063   3.630  10.998   1.537 -1.3909 -0.5196  0.3695
  749MOL0     H 1064   3.683  11.288   1.611  1.3306  1.2268 -3.4158
  749MOL0     H 1065   3.535  11.189   1.645 -3.1578  1.5968 -3.0857
  749MOL0     H 1066   3.359  11.129   1.461  0.3090 -0.9563 -1.1923
  749MOL0     H 1067   3.289  11.285   1.102 -2.4918  0.9883 -0.9738
  749MOL0     H 1068   3.219  11.159   1.207 -2.0713  0.5159  0.7314
  749MOL0     H 1069   3.193  11.457   1.247  0.8175  0.6424  1.8121
  749MOL0     H 1070   3.152  11.332   1.371  1.0966  1.2273 -0.3809
  749MOL0     H 1071   2.958  11.404   1.253  2.8750  2.5431 -0.1121
  749MOL0     H 1072   2.991  11.228   1.212 -3.0445  0.9335  1.1555
  749MOL0     H 1073   3.080  11.337   1.001 -1.7175 -1.6599 -1.0867
  749MOL0     H 1074   2.984  11.482   1.043 -1.3549  0.4706 -0.2154
  749MOL0     H 1075   2.802  11.543   1.081  1.7745 -0.7092 -1.5109
  749MOL0     H 1076   2.528  11.770   1.016 -0.9535 -0.9083  0.0746
  749MOL0     H 1077   2.523  11.679   1.157 -1.6052  0.9016 -1.0513
  749MOL0     H 1078   2.672  11.744   1.082 -1.4729  4.1821 -2.3747
  749MOL0     H 1079   2.156  11.332   0.706 -1.1117 -2.2261 -3.7955
  749MOL0     H 1080   1.910  11.369   0.650  0.6738  0.0606  2.9102
  749MOL0     H 1081   1.713  11.474   0.724 -1.0466 -0.3626  0.4852
  749MOL0     H 1082   1.690  11.636   0.756  0.6376  0.1007 -0.9541
  749MOL0     H 1083   1.530  11.676   0.578  1.4982  1.0800  2.1135
  749MOL0     H 1084   1.556  11.524   0.495 -1.3586  2.0777  0.0510
  749MOL0     H 1085   1.450  11.542   0.778 -5.3970  3.6092 -0.0696
  749MOL0     H 1086   1.479  11.402   0.678 -4.0985 -0.9592 -2.4539
  749MOL0     H 1087   1.307  11.644   0.598 -2.9190 -0.5131 -0.5190
  749MOL0     H 1088   1.302  11.475   0.524  1.7433 -0.7890 -0.0470
  749MOL0     H 1089   1.208  11.608   0.774  0.6062 -0.9941  0.7473
  749MOL0     H 1090   1.242  11.429   0.772 -0.5769 -1.7334 -2.8098
  749MOL0     H 1091   1.023  11.562   0.606  3.5202 -0.4359 -0.8572
  749MOL0     H 1092   1.071  11.402   0.612 -4.1771  0.9134 -2.1582
  749MOL0     H 1093   0.973  11.540   0.873 -2.9180  0.6971  1.2806
  749MOL0     H 1094   0.972  11.367   0.829  1.2082 -0.3398  0.6974
  749MOL0     H 1095   0.804  11.439   0.661  0.8173 -1.5194 -0.0245
  749MOL0     H 1096   0.834  11.608   0.719  1.5542 -1.2852 -2.9194
  749MOL0     H 1097   1.998  11.790   0.618  0.7750  0.3188 -0.3873
  749MOL0     H 1098   2.225  11.754   0.706  1.5413 -1.6346  1.0333
  749MOL0     H 1099   2.516  11.326   0.749  0.5680 -2.2854 -0.2841
  749MOL0     H 1100   2.720  11.227   0.815  0.9111  0.2280 -0.6635
  749MOL0     H 1101   4.672  10.905   1.365  0.2108 -0.1850 -0.0948
  749MOL0     H 1102   4.884  10.793   1.347 -1.7689 -0.5153 -0.9903
  749MOL0     H 1103   5.117  10.456   1.639 -0.4687  0.7996  0.1512
  749MOL0     H 1104   5.334  10.405   1.694 -0.5178  0.8761  1.0313
  749MOL0     H 1105   5.635  10.404   1.372 -2.7122 -1.6118  0.9259
  749MOL0     H 1106   5.653  10.525   1.500 -0.3300  0.4432 -1.1086
  749MOL0     H 1107   5.848  10.386   1.459 -1.9448 -0.7239 -1.0581
  749MOL0     H 1108   5.764  10.242   1.529 -2.5616 -0.6689  2.0813
  749MOL0     H 1109   5.920  10.349   1.685 -0.0520 -0.4021  0.5017
  749MOL0     H 1110   5.752  10.373   1.740  0.1376 -0.5417 -0.6769
  749MOL0     H 1111   5.742  10.592   1.678  0.6295  1.3399  1.0884
  749MOL0     H 1112   5.881  10.597   1.565  0.9355  1.3417  0.5744
  749MOL0     H 1113   6.092  10.603   1.923 -1.2000 -2.3841  1.6273
  749MOL0     H 1114   5.447  10.404   1.281 -0.4841  1.3931 -0.6396
  749MOL0     H 1115   5.227  10.492   1.218  0.9424  4.5274  0.2759
  750MOL0     O 1116   6.782  11.254   7.960  0.7623 -0.5148  0.0417
  750MOL0     C 1117   6.864  11.349   7.967 -0.5391  0.9719  0.4307
  750MOL0     O 1118   6.837  11.474   8.003 -0.2270  0.1729 -1.0593
  750MOL0     C 1119   6.708  11.506   8.035 -0.2405  0.0193  0.0738
  750MOL0     C 1120   6.676  11.477   8.170 -0.3610  0.2085  0.5887
  750MOL0     C 1121   6.538  11.488   8.206  0.7746  0.6198  0.1190
  750MOL0     C 1122   6.439  11.546   8.122 -0.9859 -0.1458  0.1941
  750MOL0     O 1123   6.313  11.569   8.162  0.9994  0.6651  0.0101
  750MOL0     C 1124   6.296  11.587   8.303 -0.2291 -0.9139  0.6004
  750MOL0     C 1125   6.161  11.664   8.320 -0.3641  0.2560  0.3228
  750MOL0     C 1126   6.181  11.808   8.294  0.1308 -0.3219 -0.6257
  750MOL0     C 1127   6.063  11.883   8.354  0.0045 -0.9345  0.0237
  750MOL0     C 1128   6.086  12.039   8.345 -0.2895 -0.0313 -0.2306
  750MOL0     C 1129   5.962  12.113   8.384 -0.1191 -0.2672 -0.2110
  750MOL0     C 1130   5.931  12.099   8.537 -0.2746  0.4667 -0.6686
  750MOL0     C 1131   6.041  12.124   8.640 -0.1591 -0.1228  0.2058
  750MOL0     N 1132   6.121  12.247   8.624  0.8383 -0.4056  0.5553
  750MOL0     C 1133   6.084  12.375   8.608  0.0484 -0.8232 -0.0594
  750MOL0     C 1134   6.201  12.443   8.597  0.8274  0.8559  0.9573
  750MOL0     C 1135   6.206  12.590   8.574 -0.3900  0.1364  0.0072
  750MOL0     C 1136   6.117  12.637   8.459 -0.7755  0.3048 -0.0503
  750MOL0     C 1137   6.144  12.776   8.401  0.2403 -0.4941  0.0660
  750MOL0     C 1138   6.154  12.880   8.508  0.2110  0.0162 -0.1574
  750MOL0     O 1139   6.046  12.865   8.598  0.4532  0.0029  0.2405
  750MOL0     C 1140   5.995  12.979   8.654 -0.0155 -0.3052 -0.4300
  750MOL0     C 1141   5.864  12.993   8.708 -0.2821 -0.5685 -0.2910
  750MOL0     C 1142   5.814  13.106   8.782  0.6439 -0.6100  0.5014
  750MOL0     C 1143   5.691  13.091   8.858  0.3244 -0.1040 -0.6496
  750MOL0     C 1144   5.894  13.228   8.772 -0.1468 -0.8562  0.5391
  750MOL0     C 1145   5.839  13.357   8.795  0.4504 -0.3298 -0.9092
  750MOL0     O 1146   5.700  13.374   8.787  0.0628  0.3305  0.1662
  750MOL0     C 1147   5.660  13.500   8.753  0.6672  0.0785 -0.5639
  750MOL0     C 1148   5.740  13.607   8.717 -0.2730  0.1415 -0.4474
  750MOL0     C 1149   5.687  13.734   8.691  0.4296  0.2763 -0.0839
  750MOL0     C 1150   5.557  13.759   8.722 -0.0059  0.3347  0.4251
  750MOL0     O 1151   5.496  13.884   8.719 -0.1609  0.1889 -0.4246
  750MOL0     C 1152   5.576  13.999   8.721 -0.4027 -0.4061 -0.0735
  750MOL0     C 1153   5.476  14.113   8.724  0.7391  0.4008  0.3499
  750MOL0     C 1154   5.390  14.122   8.853  0.6590 -0.1592 -0.2648
  750MOL0     C 1155   5.310  14.252   8.876 -0.4445 -0.0327  0.3872
  750MOL0     C 1156   5.275  14.269   9.018  0.8397 -0.1939 -0.0928
  750MOL0     C 1157   5.173  14.168   9.059 -0.1980  0.5515 -0.6001
  750MOL0     C 1158   5.129  14.211   9.200 -0.0095 -0.4567 -0.1529
  750MOL0     C 1159   5.020  14.112   9.250  0.6808 -0.1293  0.0251
  750MOL0    Cl 1160   4.872  14.129   9.164 -0.4031  0.0678 -0.0379
  750MOL0     C 1161   5.477  13.653   8.766 -0.4567 -0.7120 -0.3087
  750MOL0     C 1162   5.527  13.525   8.776 -0.3421  0.1072  0.9382
  750MOL0     O 1163   5.917  13.441   8.849  0.5902  0.9547 -0.9857
  750MOL0     C 1164   6.024  13.219   8.721 -0.0460  0.5807  0.0097
  750MOL0     C 1165   6.079  13.095   8.668  0.5672  0.3728  0.7004
  750MOL0     N 1166   6.304  12.353   8.595  0.7462 -0.0882 -0.3836
  750MOL0     N 1167   6.254  12.237   8.623  0.4694 -0.2366  0.2842
  750MOL0     C 1168   6.477  11.574   7.992 -0.3362  0.0316 -0.3740
  750MOL0     C 1169   6.604  11.554   7.946 -0.2602  0.6801 -0.1596
  750MOL0     C 1170   7.007  11.316   7.940 -0.7548  0.2353 -0.9944
  750MOL0     C 1171   7.112  11.408   7.974 -0.1074  0.3698  0.3562
  750MOL0     C 1172   7.240  11.394   7.933 -0.7287  0.7013  0.1361
  750MOL0     C 1173   7.278  11.282   7.858  0.1144  0.2229  0.1963
  750MOL0     O 1174   7.412  11.260   7.833  0.1502 -0.0451  0.3536
  750MOL0     C 1175   7.521  11.339   7.884  0.4161 -0.3785  0.2820
  750MOL0     C 1176   7.647  11.269   7.835  0.6009 -0.4442 -0.0278
  750MOL0     C 1177   7.690  11.295   7.687 -0.3737 -0.1079  0.3308
  750MOL0     C 1178   7.816  11.383   7.662  0.0655 -0.6223  0.4143
  750MOL0     C 1179   7.804  11.438   7.520  0.3493  0.1547  0.0350
  750MOL0     C 1180   7.786  11.468   7.406  0.0814 -0.3151  0.3368
  750MOL0     C 1181   7.186  11.178   7.824 -0.7458 -0.2876  1.2143
  750MOL0     C 1182   7.060  11.195   7.868  0.6772  0.1600  0.8375
  750MOL0     H 1183   6.752  11.437   8.236  0.5346 -0.7142 -0.9494
  750MOL0     H 1184   6.511  11.451   8.304  2.0847 -1.4407 -0.2379
  750MOL0     H 1185   6.282  11.494   8.358  0.4470 -1.6885 -0.4933
  750MOL0     H 1186   6.381  11.641   8.346 -0.1118  0.1222 -0.8381
  750MOL0     H 1187   6.085  11.631   8.248  0.7577 -2.6910  0.3835
  750MOL0     H 1188   6.131  11.651   8.424  1.3471  1.2328  0.9636
  750MOL0     H 1189   6.269  11.838   8.353 -0.7058  1.2722 -0.1354
  750MOL0     H 1190   6.204  11.815   8.187 -1.6706 -0.6436 -1.0554
  750MOL0     H 1191   5.975  11.854   8.295 -1.0460  1.0819  0.5458
  750MOL0     H 1192   6.047  11.861   8.460  1.4397  1.7498  0.8916
  750MOL0     H 1193   6.175  12.062   8.404  1.9113 -0.6286 -3.1096
  750MOL0     H 1194   6.107  12.071   8.243 -1.1101  0.8178 -0.1497
  750MOL0     H 1195   5.971  12.218   8.355  2.7510 -1.3214 -3.8768
  750MOL0     H 1196   5.875  12.077   8.328 -1.7121  3.6290 -0.5652
  750MOL0     H 1197   5.843  12.161   8.555 -0.6757  0.3337 -2.0806
  750MOL0     H 1198   5.900  11.997   8.561  0.0834  0.2842 -0.9741
  750MOL0     H 1199   6.113  12.043   8.639 -0.8321 -0.7393  0.6424
  750MOL0     H 1200   5.996  12.109   8.739  1.7091 -2.8358  0.7395
  750MOL0     H 1201   5.988  12.417   8.578  0.6293  1.3725  1.0014
  750MOL0     H 1202   6.184  12.641   8.669 -1.0018 -2.3444  1.2792
  750MOL0     H 1203   6.309  12.620   8.554 -1.1400  2.4077 -0.8394
  750MOL0     H 1204   6.010  12.628   8.480 -1.0996  5.3918  1.9091
  750MOL0     H 1205   6.141  12.563   8.383  1.7780 -2.1364  2.8279
  750MOL0     H 1206   6.059  12.800   8.336  0.4564 -0.5416 -0.2384
  750MOL0     H 1207   6.237  12.775   8.343  0.9867 -0.8034  1.2463
  750MOL0     H 1208   6.146  12.974   8.454 -2.0644  0.8776  1.5182
  750MOL0     H 1209   6.254  12.878   8.552  1.0250  0.8422 -1.8801
  750MOL0     H 1210   5.805  12.901   8.708 -0.6318 -0.3670  1.1120
  750MOL0     H 1211   5.701  13.155   8.946  1.7950 -0.3258 -0.6208
  750MOL0     H 1212   5.600  13.123   8.807  1.2119  0.6549 -1.7940
  750MOL0     H 1213   5.679  12.988   8.896  0.7575  0.7283  1.9709
  750MOL0     H 1214   5.844  13.606   8.686  0.0847 -0.7336  0.7229
  750MOL0     H 1215   5.747  13.819   8.661  0.5150  0.2051 -0.1139
  750MOL0     H 1216   5.647  14.003   8.804 -0.2388  1.1928 -0.2561
  750MOL0     H 1217   5.637  14.006   8.631  0.6701 -1.2277  0.5591
  750MOL0     H 1218   5.531  14.208   8.722  0.7965  0.9813  6.9151
  750MOL0     H 1219   5.419  14.104   8.632  0.7760 -1.0534  0.4395
  750MOL0     H 1220   5.458  14.120   8.939 -0.9945  0.2801  1.1030
  750MOL0     H 1221   5.320  14.038   8.859  3.4572 -2.7550 -1.3403
  750MOL0     H 1222   5.371  14.339   8.852  1.2828 -1.1005  0.6837
  750MOL0     H 1223   5.224  14.241   8.809  0.0430 -2.2105  0.0400
  750MOL0     H 1224   5.239  14.372   9.028  3.3765  0.8281 -0.6816
  750MOL0     H 1225   5.363  14.258   9.082 -0.8153 -0.2633  2.2730
  750MOL0     H 1226   5.081  14.180   9.001 -0.2796  2.2597 -0.1664
  750MOL0     H 1227   5.216  14.068   9.049 -0.7017  0.2552  0.1088
  750MOL0     H 1228   5.083  14.310   9.195 -0.2968 -0.5938 -0.2599
  750MOL0     H 1229   5.219  14.202   9.262 -1.2697 -1.9546  1.5581
  750MOL0     H 1230   4.997  14.139   9.354 -1.4136 -0.2513 -0.3635
  750MOL0     H 1231   5.053  14.008   9.236 -2.4297 -1.2912  0.5448
  750MOL0     H 1232   5.371  13.672   8.774 -0.5473 -0.3054 -2.0937
  750MOL0     H 1233   5.456  13.450   8.811  0.2797 -0.8826  0.1311
  750MOL0     H 1234   6.081  13.310   8.703  0.0732  0.9131  1.8312
  750MOL0     H 1235   6.182  13.104   8.635  0.2185 -1.3140 -0.9690
  750MOL0     H 1236   6.398  11.612   7.927  0.0180 -0.6014 -1.2004
  750MOL0     H 1237   6.616  11.592   7.845 -0.6064  0.3507 -0.3241
  750MOL0     H 1238   7.093  11.505   8.020  0.0215  0.1222  0.9492
  750MOL0     H 1239   7.309  11.475   7.958  1.1139 -0.8674  0.3737
  750MOL0     H 1240   7.514  11.436   7.834  0.0217 -0.6527 -0.1966
  750MOL0     H 1241   7.508  11.343   7.993 -0.6068  0.3826  0.1481
  750MOL0     H 1242   7.643  11.161   7.856  1.2257 -0.2956  0.9255
  750MOL0     H 1243   7.729  11.311   7.895  0.5401  0.0958 -0.3181
  750MOL0     H 1244   7.609  11.331   7.624  0.8988  1.7331 -0.3227
  750MOL0     H 1245   7.709  11.198   7.639 -1.0470  0.3549 -0.9239
  750MOL0     H 1246   7.907  11.324   7.676  0.7249 -0.0537 -1.2876
  750MOL0     H 1247   7.830  11.467   7.731  2.0413 -0.3189 -0.2888
  750MOL0     H 1248   7.750  11.517   7.317 -0.5975 -2.3498 -0.5693
  750MOL0     H 1249   7.211  11.083   7.777  3.1815  1.8889 -1.7022
  750MOL0     H 1250   6.985  11.123   7.838 -1.3416  1.3671  2.6970
  751MOL0     O 1251   9.512   4.837   7.713  0.0965 -0.3505  0.6760
  751MOL0     C 1252   9.559   4.731   7.663  0.1729 -1.1822  0.4748
  751MOL0     O 1253   9.539   4.684   7.539  0.5178  0.5505 -0.2926
  751MOL0     C 1254   9.423   4.717   7.484 -0.0817 -0.4221  0.1036
  751MOL0     C 1255   9.432   4.769   7.355 -0.8560 -0.4841 -0.3993
  751MOL0     C 1256   9.311   4.815   7.293 -0.4544  0.2221  1.0454
  751MOL0     C 1257   9.185   4.807   7.358  0.2152  0.3479  0.4709
  751MOL0     O 1258   9.058   4.831   7.303  0.1013  0.1466 -0.1565
  751MOL0     C 1259   9.050   4.859   7.165 -0.1934  0.1653 -0.3116
  751MOL0     C 1260   8.916   4.814   7.114  1.0073 -0.1611  0.1568
  751MOL0     C 1261   8.903   4.824   6.958  0.4441 -0.5692 -0.3921
  751MOL0     C 1262   8.798   4.734   6.884 -0.8373 -0.5681 -0.1144
  751MOL0     C 1263   8.645   4.749   6.921  0.1976 -0.0210  0.4866
  751MOL0     C 1264   8.608   4.692   7.060 -0.1478 -0.8580  1.0522
  751MOL0     C 1265   8.455   4.718   7.084  0.8841 -0.0776  0.3311
  751MOL0     C 1266   8.412   4.862   7.072  0.2631  0.2945  0.3688
  751MOL0     N 1267   8.350   4.888   6.942 -0.2563 -0.0987 -0.1175
  751MOL0     C 1268   8.227   4.850   6.911  0.1269 -0.0147 -0.0074
  751MOL0     C 1269   8.208   4.886   6.782  0.4857 -0.2927  0.2679
  751MOL0     C 1270   8.081   4.877   6.695 -0.2192 -0.6922 -0.7578
  751MOL0     C 1271   7.939   4.876   6.760 -0.1440 -0.1891  0.8807
  751MOL0     C 1272   7.837   4.840   6.644  0.3518 -0.5275  0.0435
  751MOL0     C 1273   7.691   4.861   6.687  0.1183 -0.2907  1.3048
  751MOL0     O 1274   7.609   4.842   6.565  0.1409  0.4771 -0.4942
  751MOL0     C 1275   7.470   4.805   6.572  0.3277 -0.7902  0.0777
  751MOL0     C 1276   7.392   4.833   6.685 -0.6504  0.0009 -0.4314
  751MOL0     C 1277   7.258   4.803   6.702  0.5266 -0.6876  0.1067
  751MOL0     C 1278   7.195   4.842   6.833 -0.3126  0.1427  0.2659
  751MOL0     C 1279   7.194   4.744   6.584 -0.5618  0.0488  0.0081
  751MOL0     C 1280   7.049   4.713   6.576  0.1958  0.5044 -0.2406
  751MOL0     O 1281   6.999   4.636   6.471  1.0821  0.4594 -0.7113
  751MOL0     C 1282   6.864   4.621   6.449  0.5389  0.6631 -0.6051
  751MOL0     C 1283   6.762   4.713   6.491  0.0948  0.5604  0.1419
  751MOL0     C 1284   6.626   4.703   6.447 -0.6186  0.3696  0.5618
  751MOL0     C 1285   6.595   4.601   6.356  0.0551  0.1278  0.1583
  751MOL0     O 1286   6.474   4.613   6.295 -0.7859  0.3684  0.3903
  751MOL0     C 1287   6.415   4.491   6.246 -1.4475  0.1607 -0.1832
  751MOL0     C 1288   6.264   4.491   6.274 -0.8029 -0.0519 -0.0784
  751MOL0     C 1289   6.178   4.574   6.184 -0.0814 -0.3522  0.3111
  751MOL0     C 1290   6.155   4.497   6.044 -0.0220  0.0232 -0.5705
  751MOL0     C 1291   6.056   4.568   5.947  0.1731  0.3019 -0.2279
  751MOL0     C 1292   5.915   4.525   5.980  0.8167  0.5635  0.4441
  751MOL0     C 1293   5.803   4.585   5.890  0.5331  0.4086  0.0432
  751MOL0     C 1294   5.706   4.668   5.965  0.2667 -0.0287  0.0641
  751MOL0    Cl 1295   5.612   4.550   6.055  0.0196 -0.0748  0.6086
  751MOL0     C 1296   6.696   4.512   6.319 -0.3874  0.1173  0.4550
  751MOL0     C 1297   6.828   4.524   6.361 -0.2458 -0.3142 -0.3899
  751MOL0     O 1298   6.989   4.748   6.680  0.2643  0.4975  0.7898
  751MOL0     C 1299   7.276   4.710   6.468 -0.0213 -0.6116 -0.7802
  751MOL0     C 1300   7.413   4.737   6.468 -0.1041  0.4241  0.2967
  751MOL0     N 1301   8.317   4.950   6.735  0.7724  0.7909 -0.1518
  751MOL0     N 1302   8.392   4.972   6.842 -0.2875  0.7208 -0.1103
  751MOL0     C 1303   9.181   4.747   7.478  0.2025  0.2790  0.3408
  751MOL0     C 1304   9.292   4.695   7.542  0.0638 -0.9816 -0.2993
  751MOL0     C 1305   9.661   4.664   7.752 -0.5829  0.1708  0.0881
  751MOL0     C 1306   9.649   4.675   7.890  0.1653 -0.5832 -0.4791
  751MOL0     C 1307   9.734   4.608   7.977 -0.8286  0.1415  0.1619
  751MOL0     C 1308   9.829   4.504   7.930  0.2784 -0.8213  0.4678
  751MOL0     O 1309   9.900   4.426   8.017 -0.6530 -0.0645  0.2202
  751MOL0     C 1310   9.983   4.323   7.960  0.1162  0.3275  0.1678
  751MOL0     C 1311  10.065   4.248   8.063 -0.0859 -0.1397 -0.6013
  751MOL0     C 1312  10.134   4.115   8.013 -0.4041 -0.6058 -0.9298
  751MOL0     C 1313  10.236   4.080   8.116  0.0128  0.4750 -0.1156
  751MOL0     C 1314  10.320   3.970   8.075 -0.2890 -0.1928  0.3073
  751MOL0     C 1315  10.390   3.887   8.040 -1.1693  0.4760  0.5064
  751MOL0     C 1316   9.829   4.489   7.788  0.1044 -0.1935 -0.1594
  751MOL0     C 1317   9.748   4.570   7.699 -1.0952  1.1837 -0.5246
  751MOL0     H 1318   9.528   4.782   7.306 -0.8655 -1.1766 -0.6172
  751MOL0     H 1319   9.319   4.850   7.191  1.4478 -3.6503 -0.3633
  751MOL0     H 1320   9.060   4.966   7.144 -4.5368  0.5312 -1.5421
  751MOL0     H 1321   9.130   4.804   7.114 -0.6011 -2.1654  1.3922
  751MOL0     H 1322   8.907   4.708   7.141 -1.1132 -1.0743 -3.3725
  751MOL0     H 1323   8.840   4.874   7.163 -0.5533 -1.4125 -0.6236
  751MOL0     H 1324   8.882   4.927   6.929 -2.7582  0.2011  3.6646
  751MOL0     H 1325   9.004   4.798   6.924  1.2679  0.4130  1.1669
  751MOL0     H 1326   8.801   4.742   6.775 -2.9062  0.0056 -0.1728
  751MOL0     H 1327   8.832   4.634   6.912 -2.2466 -1.3949 -1.2418
  751MOL0     H 1328   8.616   4.854   6.915  1.4311  0.4272  1.8318
  751MOL0     H 1329   8.583   4.712   6.838  2.5105  1.4085 -2.0507
  751MOL0     H 1330   8.624   4.585   7.046 -1.6956 -0.9282 -0.5961
  751MOL0     H 1331   8.665   4.740   7.140  0.7590 -3.1611  1.8481
  751MOL0     H 1332   8.394   4.658   7.017  1.9972 -1.5501  0.5844
  751MOL0     H 1333   8.437   4.681   7.185 -0.0492  0.0165  0.2002
  751MOL0     H 1334   8.488   4.941   7.078 -0.3111  0.7621  3.9007
  751MOL0     H 1335   8.328   4.884   7.139  0.1933  3.4253 -0.5765
  751MOL0     H 1336   8.148   4.802   6.968  0.3385 -0.0940  0.2254
  751MOL0     H 1337   8.081   4.957   6.620 -1.5086 -2.4271 -2.7153
  751MOL0     H 1338   8.103   4.787   6.638 -2.6781 -0.8276 -1.6638
  751MOL0     H 1339   7.915   4.973   6.803 -0.3569 -0.4996  1.4822
  751MOL0     H 1340   7.945   4.801   6.840  0.0017 -2.6050 -1.2424
  751MOL0     H 1341   7.850   4.736   6.615 -1.6671 -0.5487 -0.9675
  751MOL0     H 1342   7.858   4.907   6.560 -3.2052 -1.0222 -1.4513
  751MOL0     H 1343   7.676   4.962   6.725 -2.1175  0.8921 -2.2565
  751MOL0     H 1344   7.660   4.782   6.756  1.5453 -3.7818 -1.6978
  751MOL0     H 1345   7.448   4.877   6.767 -0.4014  0.5491 -0.8832
  751MOL0     H 1346   7.273   4.878   6.900  0.4863 -0.4421 -0.3265
  751MOL0     H 1347   7.119   4.918   6.811 -1.9422 -1.4386  0.1997
  751MOL0     H 1348   7.155   4.750   6.876 -2.0076 -2.0533 -5.1264
  751MOL0     H 1349   6.782   4.803   6.548 -1.3781 -0.1868  1.9675
  751MOL0     H 1350   6.561   4.783   6.481 -2.5465 -0.2208 -1.5217
  751MOL0     H 1351   6.436   4.473   6.140 -0.4763 -3.7629  0.4739
  751MOL0     H 1352   6.453   4.409   6.308  0.9211  2.4695  1.6431
  751MOL0     H 1353   6.227   4.389   6.271  0.2995 -0.4318 -2.0674
  751MOL0     H 1354   6.250   4.534   6.374  1.7698 -0.4384  0.5088
  751MOL0     H 1355   6.224   4.672   6.170  1.8067 -1.1492  0.6377
  751MOL0     H 1356   6.081   4.586   6.233 -1.0718 -2.4636 -0.9963
  751MOL0     H 1357   6.252   4.502   5.992  0.0340  1.2495 -0.3820
  751MOL0     H 1358   6.134   4.393   6.069 -1.8026  0.3497 -0.6081
  751MOL0     H 1359   6.091   4.532   5.850  0.7488  0.1417  0.0301
  751MOL0     H 1360   6.068   4.677   5.945 -0.6068  0.4509 -4.1749
  751MOL0     H 1361   5.914   4.418   5.954  0.1088  1.2939 -3.1348
  751MOL0     H 1362   5.897   4.538   6.087  1.8178 -1.2349  0.8827
  751MOL0     H 1363   5.741   4.517   5.832 -1.0350  2.1124 -0.3456
  751MOL0     H 1364   5.846   4.648   5.812  0.9756 -0.9037 -0.8020
  751MOL0     H 1365   5.649   4.731   5.897 -0.2026 -2.8549 -2.3762
  751MOL0     H 1366   5.756   4.721   6.047 -1.7087 -0.0451  1.3196
  751MOL0     H 1367   6.670   4.433   6.250 -1.2194  0.0556  0.8298
  751MOL0     H 1368   6.893   4.441   6.337 -0.4599  0.3009 -3.5439
  751MOL0     H 1369   7.230   4.664   6.381 -1.7615 -2.4072  1.0099
  751MOL0     H 1370   7.465   4.696   6.382  0.0801 -0.5396  0.8515
  751MOL0     H 1371   9.084   4.735   7.525 -0.2473  0.3353 -0.5627
  751MOL0     H 1372   9.286   4.640   7.635 -2.3184  2.4921  1.8366
  751MOL0     H 1373   9.589   4.747   7.945  0.9449 -0.5031  0.2818
  751MOL0     H 1374   9.718   4.622   8.083 -1.9445 -0.5495  0.0986
  751MOL0     H 1375   9.918   4.261   7.897  1.5169 -0.6507 -0.3588
  751MOL0     H 1376  10.055   4.367   7.891  0.3368  1.4444  1.0852
  751MOL0     H 1377  10.002   4.215   8.146 -0.7847  0.2721 -0.9485
  751MOL0     H 1378  10.143   4.315   8.101 -1.7232  1.2290  0.5200
  751MOL0     H 1379  10.191   4.136   7.922  0.6102  0.1799 -0.1417
  751MOL0     H 1380  10.060   4.038   7.991 -4.1959  2.7363 -1.1211
  751MOL0     H 1381  10.177   4.062   8.207  1.4350 -0.7600  0.5969
  751MOL0     H 1382  10.297   4.167   8.142 -1.1044  1.5668 -0.9857
  751MOL0     H 1383  10.457   3.816   7.998 -0.7926  1.6553 -0.9757
  751MOL0     H 1384   9.894   4.417   7.739 -1.4233  0.0394 -2.6821
  751MOL0     H 1385   9.751   4.541   7.594  0.5504  0.4088 -0.2883
  752MOL0     O 1386   9.236   9.478   0.164  1.0846 -0.5761  0.5813
  752MOL0     C 1387   9.120   9.510   0.140  0.3324 -0.6780  0.5522
  752MOL0     O 1388   9.083   9.607   0.045 -0.1239 -0.1949  0.5740
  752MOL0     C 1389   9.184   9.660  -0.034  0.4805  0.2565 -0.0119
  752MOL0     C 1390   9.283   9.736   0.019  0.7207 -0.3903  0.9558
  752MOL0     C 1391   9.373   9.794  -0.064 -0.9681  0.0522  0.1805
  752MOL0     C 1392   9.374   9.765  -0.195  0.1769 -0.2373 -0.0461
  752MOL0     O 1393   9.496   9.795  -0.260  0.3738 -1.0511 -0.1470
  752MOL0     C 1394   9.557   9.695  -0.331 -0.4017 -0.4969 -0.6841
  752MOL0     C 1395   9.707   9.690  -0.305  0.0158  0.0267  1.0997
  752MOL0     C 1396   9.732   9.626  -0.173 -0.1387  0.8681  0.2110
  752MOL0     C 1397   9.874   9.626  -0.130 -0.2364  0.2258  0.0004
  752MOL0     C 1398   9.896   9.564   0.002 -0.3317  0.5084  0.7554
  752MOL0     C 1399  10.049   9.535   0.025  0.2182 -0.7309 -0.3167
  752MOL0     C 1400  10.106   9.633   0.131 -0.8250 -0.1944 -0.7313
  752MOL0     C 1401  10.253   9.577   0.174  1.0261 -0.1862 -0.6011
  752MOL0     N 1402  10.254   9.454   0.257 -0.1215  0.0674 -0.1810
  752MOL0     C 1403  10.273   9.441   0.393 -0.0516 -1.1565  0.3697
  752MOL0     C 1404  10.300   9.312   0.423  0.0943 -0.6902 -0.5752
  752MOL0     C 1405  10.349   9.262   0.558 -0.5159 -0.5289 -0.6764
  752MOL0     C 1406  10.295   9.349   0.676 -0.2452 -0.3349 -0.7189
  752MOL0     C 1407  10.358   9.307   0.812  0.1731  0.0271  0.6786
  752MOL0     C 1408  10.320   9.407   0.918  0.3213 -0.5976  0.1872
  752MOL0     O 1409  10.178   9.421   0.934  0.2333  0.0844  0.1861
  752MOL0     C 1410  10.129   9.481   1.043 -0.4530  0.0054  0.1074
  752MOL0     C 1411   9.994   9.457   1.065  0.2719 -0.1711  0.5752
  752MOL0     C 1412   9.920   9.495   1.168  0.3595 -0.5678 -0.7724
  752MOL0     C 1413   9.766   9.478   1.173 -0.6040 -0.0540  0.8474
  752MOL0     C 1414   9.989   9.584   1.260  0.2763 -0.2637 -0.0961
  752MOL0     C 1415   9.914   9.632   1.385  0.7749 -0.3675 -0.8582
  752MOL0     O 1416   9.938   9.761   1.433  0.3004 -0.3590  0.2928
  752MOL0     C 1417   9.881   9.816   1.546 -0.2172 -0.1271 -0.6202
  752MOL0     C 1418   9.954   9.913   1.610  1.0939  0.9808  0.2330
  752MOL0     C 1419   9.903   9.982   1.727  0.6006 -0.1893  0.1500
  752MOL0     C 1420   9.784   9.935   1.789 -0.2345 -0.6203  0.9155
  752MOL0     O 1421   9.736  10.001   1.896  0.1387  0.0569 -0.1903
  752MOL0     C 1422   9.682   9.911   1.997 -0.3567 -1.1346  0.4689
  752MOL0     C 1423   9.604   9.992   2.097 -0.5228  0.1624  0.0563
  752MOL0     C 1424   9.691  10.069   2.192 -0.4558 -0.3917 -0.0666
  752MOL0     C 1425   9.619  10.136   2.312 -0.9807 -1.0249  0.3034
  752MOL0     C 1426   9.712  10.223   2.408  0.4085  0.0155 -0.6408
  752MOL0     C 1427   9.827  10.136   2.461  0.5807  0.1121 -0.3768
  752MOL0     C 1428   9.903  10.205   2.580 -0.3171 -0.6723  1.2988
  752MOL0     C 1429   9.980  10.330   2.531 -0.6621  0.4587  0.3233
  752MOL0    Cl 1430  10.057  10.306   2.376  0.1855  0.7425  0.1436
  752MOL0     C 1431   9.694   9.855   1.711  0.4538  0.1220 -0.3838
  752MOL0     C 1432   9.750   9.788   1.597 -0.1821 -0.6089 -0.1903
  752MOL0     O 1433   9.839   9.554   1.439 -0.0503  0.7067  0.0381
  752MOL0     C 1434  10.128   9.600   1.246 -0.2627 -0.1022 -0.3628
  752MOL0     C 1435  10.200   9.546   1.141  0.0683 -0.6431 -0.5166
  752MOL0     N 1436  10.286   9.242   0.307 -0.6360 -0.9578  0.6260
  752MOL0     N 1437  10.275   9.331   0.208  0.0899  0.7357  0.3432
  752MOL0     C 1438   9.279   9.683  -0.252  0.2699 -0.9374 -0.3047
  752MOL0     C 1439   9.170   9.644  -0.169  0.0192  0.5184  0.5013
  752MOL0     C 1440   9.016   9.439   0.213  1.1932 -1.1147  0.4995
  752MOL0     C 1441   9.041   9.319   0.281  0.0524  0.2063  0.2271
  752MOL0     C 1442   8.933   9.249   0.331  0.2122 -0.5429 -0.5207
  752MOL0     C 1443   8.800   9.291   0.312 -0.5666 -0.2715  0.1786
  752MOL0     O 1444   8.693   9.228   0.370  0.4121 -0.0977 -1.1055
  752MOL0     C 1445   8.718   9.125   0.466 -0.0072  1.0010 -1.1332
  752MOL0     C 1446   8.590   9.054   0.509 -0.2973 -0.1146 -0.6869
  752MOL0     C 1447   8.515   8.980   0.396  0.1525  0.4924  0.3181
  752MOL0     C 1448   8.422   8.877   0.452  0.3555 -0.2373 -0.0736
  752MOL0     C 1449   8.302   8.938   0.518  0.5835 -0.3292 -0.3733
  752MOL0     C 1450   8.201   8.989   0.559  0.7037 -1.0278  0.5467
  752MOL0     C 1451   8.778   9.415   0.248 -0.2437  1.0791 -1.1529
  752MOL0     C 1452   8.882   9.488   0.199 -0.9468  0.1737 -0.7176
  752MOL0     H 1453   9.284   9.748   0.127 -0.1568 -1.7912  1.1390
  752MOL0     H 1454   9.454   9.849  -0.017 -0.9681 -0.9465  1.4053
  752MOL0     H 1455   9.511   9.602  -0.296 -1.7359  1.0092  1.9034
  752MOL0     H 1456   9.540   9.696  -0.439  0.4379  0.1823 -0.8196
  752MOL0     H 1457   9.754   9.650  -0.395  0.9586  3.4805 -0.1033
  752MOL0     H 1458   9.750   9.791  -0.306 -0.2257  0.1451  1.8852
  752MOL0     H 1459   9.680   9.682  -0.095  4.1050  1.3619  3.0054
  752MOL0     H 1460   9.694   9.524  -0.176  0.2839  0.6407  1.8871
  752MOL0     H 1461   9.931   9.566  -0.202  0.6643 -1.8196  2.2971
  752MOL0     H 1462   9.921   9.724  -0.125  0.0320  0.3522 -3.0989
  752MOL0     H 1463   9.844   9.625   0.076 -2.0195 -1.0336  0.9182
  752MOL0     H 1464   9.853   9.463   0.006 -3.1917  1.5797 -0.0882
  752MOL0     H 1465  10.056   9.435   0.069 -0.7507  1.0439  4.4717
  752MOL0     H 1466  10.104   9.541  -0.069  1.4630 -0.7530  0.3871
  752MOL0     H 1467  10.118   9.733   0.089 -0.4004 -0.3964 -1.1097
  752MOL0     H 1468  10.049   9.640   0.223  0.6389  2.3110  0.0823
  752MOL0     H 1469  10.303   9.655   0.232 -0.0987  1.9157 -2.3179
  752MOL0     H 1470  10.315   9.562   0.085  3.5917  2.8440  0.4849
  752MOL0     H 1471  10.274   9.524   0.463  1.8981 -1.5965  0.9202
  752MOL0     H 1472  10.323   9.157   0.573  2.8176 -1.1145  2.3730
  752MOL0     H 1473  10.458   9.259   0.565 -0.3443  1.8121 -1.3484
  752MOL0     H 1474  10.186   9.344   0.671 -0.2454 -1.1604 -0.1710
  752MOL0     H 1475  10.331   9.452   0.669  1.2058 -0.3974  3.3878
  752MOL0     H 1476  10.465   9.322   0.794 -0.4333  4.5629 -0.3670
  752MOL0     H 1477  10.331   9.205   0.842 -0.2079  0.3576  1.4877
  752MOL0     H 1478  10.372   9.502   0.904 -2.1975  0.8811  0.1483
  752MOL0     H 1479  10.356   9.366   1.013  4.0425  2.5793  0.4068
  752MOL0     H 1480   9.942   9.382   1.006  2.0110 -1.8089  1.0028
  752MOL0     H 1481   9.745   9.410   1.257  0.2430  1.4663  2.3443
  752MOL0     H 1482   9.723   9.577   1.185  1.2549  1.0470 -0.9059
  752MOL0     H 1483   9.733   9.432   1.080 -1.7634 -0.7323  1.5676
  752MOL0     H 1484  10.042   9.957   1.564 -0.2640  1.8756 -1.6644
  752MOL0     H 1485   9.961  10.055   1.783 -1.8613 -0.5786  3.4838
  752MOL0     H 1486   9.605   9.845   1.957 -1.0555  0.2615 -0.5751
  752MOL0     H 1487   9.759   9.849   2.044  0.4423 -1.7854 -1.5888
  752MOL0     H 1488   9.553  10.067   2.037  1.8842  0.2464 -2.0848
  752MOL0     H 1489   9.535   9.927   2.151  2.2631 -3.5189 -0.3723
  752MOL0     H 1490   9.755  10.140   2.139 -0.0114  0.7422  1.8524
  752MOL0     H 1491   9.756   9.990   2.230  0.4094  0.0533 -0.5768
  752MOL0     H 1492   9.540  10.201   2.275  0.0455  1.4473  2.2150
  752MOL0     H 1493   9.581  10.052   2.371 -0.4524 -2.9327 -1.9277
  752MOL0     H 1494   9.663  10.256   2.500  2.1818  1.2034 -0.0713
  752MOL0     H 1495   9.747  10.311   2.353  1.3336  0.2263  0.2737
  752MOL0     H 1496   9.775  10.048   2.500 -1.3389  1.5204  0.4043
  752MOL0     H 1497   9.879  10.117   2.367  2.7293  0.3020  0.7303
  752MOL0     H 1498   9.976  10.140   2.628  1.7472  1.7565  1.6601
  752MOL0     H 1499   9.837  10.243   2.658 -0.9402  0.9623  0.0537
  752MOL0     H 1500  10.052  10.369   2.604  0.8083 -1.0861 -0.2474
  752MOL0     H 1501   9.908  10.412   2.527 -0.1984  0.8744  0.3298
  752MOL0     H 1502   9.593   9.842   1.748  0.0158 -4.8551 -2.5376
  752MOL0     H 1503   9.690   9.716   1.543 -0.7162 -0.1909 -0.1559
  752MOL0     H 1504  10.191   9.641   1.325  0.5545 -1.7186 -0.1295
  752MOL0     H 1505  10.308   9.558   1.140  0.2596 -2.1612 -0.5698
  752MOL0     H 1506   9.297   9.649  -0.354  0.8686  1.8330 -1.2036
  752MOL0     H 1507   9.097   9.576  -0.211 -2.1828  0.7237  3.6867
  752MOL0     H 1508   9.136   9.274   0.307  1.3654 -0.3821 -4.5637
  752MOL0     H 1509   8.952   9.167   0.400 -1.1697  0.0926  0.6653
  752MOL0     H 1510   8.783   9.049   0.421 -0.4813 -0.2873  0.2492
  752MOL0     H 1511   8.771   9.174   0.548 -0.9789 -0.5333  0.5223
  752MOL0     H 1512   8.523   9.127   0.556  1.1973 -0.3363  1.9963
  752MOL0     H 1513   8.622   8.984   0.586  1.3400  1.4365  0.1150
  752MOL0     H 1514   8.593   8.938   0.333 -0.7634 -2.5622  1.0842
  752MOL0     H 1515   8.447   9.043   0.338  0.5259 -0.0420 -0.7197
  752MOL0     H 1516   8.472   8.822   0.532  2.7548  1.4441 -0.3014
  752MOL0     H 1517   8.382   8.808   0.377  1.3161  1.8075 -2.6136
  752MOL0     H 1518   8.114   9.037   0.599  1.6866  1.3830  0.0182
  752MOL0     H 1519   8.678   9.455   0.235  0.5136  3.1181 -1.0862
  752MOL0     H 1520   8.852   9.570   0.134 -1.7588 -2.0137 -3.3283
  753MOL0     O 1521   3.047   0.812   6.306  0.7869  0.7147 -0.3402
  753MOL0     C 1522   2.993   0.914   6.329  0.5825 -0.4452 -0.3719
  753MOL0     O 1523   3.047   1.031   6.371  0.3521  0.4714 -0.0074
  753MOL0     C 1524   3.181   1.051   6.379 -0.0575  0.0961 -0.4577
  753MOL0     C 1525   3.218   1.159   6.448  0.7610 -0.5196 -0.4132
  753MOL0     C 1526   3.349   1.200   6.457 -0.4246 -0.3358  0.3908
  753MOL0     C 1527   3.451   1.124   6.396  0.6521 -0.2834  0.4551
  753MOL0     O 1528   3.582   1.174   6.398 -0.4933 -0.7009  0.1123
  753MOL0     C 1529   3.691   1.080   6.354  0.7529  0.2419 -0.9229
  753MOL0     C 1530   3.831   1.142   6.384  0.0664  0.2467 -0.0355
  753MOL0     C 1531   3.936   1.071   6.307 -0.4393  0.2240  0.2095
  753MOL0     C 1532   4.077   1.102   6.358 -0.4765 -0.7840 -0.4879
  753MOL0     C 1533   4.178   1.005   6.308 -0.4614 -0.3568  0.0172
  753MOL0     C 1534   4.321   1.035   6.364  0.7490  0.5408  0.1160
  753MOL0     C 1535   4.415   0.930   6.297 -0.7922 -0.2605 -0.3635
  753MOL0     C 1536   4.555   0.982   6.294  0.6555 -0.0938  0.8444
  753MOL0     N 1537   4.638   0.865   6.269  0.2820  0.4704  0.1135
  753MOL0     C 1538   4.716   0.839   6.165 -0.4481  0.8917  0.1888
  753MOL0     C 1539   4.813   0.755   6.217  0.1657  0.0860 -0.0368
  753MOL0     C 1540   4.922   0.697   6.138  0.1934 -0.3465 -0.5109
  753MOL0     C 1541   5.067   0.749   6.158 -0.4956 -0.8847 -0.0127
  753MOL0     C 1542   5.134   0.678   6.266  0.9184  0.0505 -0.1121
  753MOL0     C 1543   5.281   0.703   6.272 -0.2414  0.6922 -0.1603
  753MOL0     O 1544   5.351   0.612   6.185  0.1815  0.0533 -0.0612
  753MOL0     C 1545   5.479   0.622   6.137 -0.9179 -0.0533 -0.3465
  753MOL0     C 1546   5.547   0.742   6.131 -1.6584 -0.7530 -0.2157
  753MOL0     C 1547   5.679   0.760   6.078  0.5607 -0.2060 -0.0635
  753MOL0     C 1548   5.744   0.888   6.124  0.3775 -0.4372  1.2025
  753MOL0     C 1549   5.737   0.657   6.014  0.6225  0.3882  0.2207
  753MOL0     C 1550   5.870   0.658   5.948  0.5374  0.3954  0.1161
  753MOL0     O 1551   5.982   0.678   6.028 -0.0604  0.6103  0.4910
  753MOL0     C 1552   6.108   0.628   5.995  0.1303 -1.3454  0.8261
  753MOL0     C 1553   6.225   0.693   6.041  0.4465 -0.7737 -0.0517
  753MOL0     C 1554   6.349   0.628   6.015  0.1728  0.8274 -0.6438
  753MOL0     C 1555   6.360   0.498   5.953 -0.7681  0.2734 -0.0787
  753MOL0     O 1556   6.483   0.441   5.926  0.5999  0.3288  0.1004
  753MOL0     C 1557   6.485   0.313   5.856 -0.3313 -0.3068  0.3306
  753MOL0     C 1558   6.627   0.254   5.878  0.3429  0.7962 -0.0461
  753MOL0     C 1559   6.736   0.337   5.806 -0.6608  0.3390 -0.1420
  753MOL0     C 1560   6.868   0.267   5.839 -0.8387 -0.3856  0.4958
  753MOL0     C 1561   6.988   0.309   5.756 -0.3029  0.4524 -0.0921
  753MOL0     C 1562   7.025   0.460   5.774  0.7067  0.1978  0.4961
  753MOL0     C 1563   7.160   0.491   5.727 -0.9314 -0.0048 -0.2997
  753MOL0     C 1564   7.204   0.635   5.766  0.5085  0.1405  1.0322
  753MOL0    Cl 1565   7.371   0.659   5.690  0.0089 -0.5857  0.3364
  753MOL0     C 1566   6.235   0.439   5.922  0.5209  0.1563 -0.3212
  753MOL0     C 1567   6.115   0.503   5.945  0.1599  0.4381 -0.1693
  753MOL0     O 1568   5.873   0.614   5.831  0.4484  0.1520 -0.6862
  753MOL0     C 1569   5.670   0.531   6.019  0.9577 -0.4237 -0.8533
  753MOL0     C 1570   5.542   0.511   6.083 -0.4766 -0.3762  0.5922
  753MOL0     N 1571   4.786   0.723   6.344  0.2960  0.1834  0.1605
  753MOL0     N 1572   4.679   0.784   6.380 -0.1001 -0.0289  0.3658
  753MOL0     C 1573   3.409   1.007   6.315 -1.3066 -0.3539 -0.0855
  753MOL0     C 1574   3.279   0.978   6.301  0.3039  0.2809  0.5547
  753MOL0     C 1575   2.844   0.916   6.312 -0.0301 -0.1273 -0.1483
  753MOL0     C 1576   2.764   1.034   6.335 -0.5414 -0.4712 -0.6358
  753MOL0     C 1577   2.624   1.036   6.327 -0.1819 -0.2684 -0.9037
  753MOL0     C 1578   2.553   0.913   6.298 -0.3342  0.3696  0.3772
  753MOL0     O 1579   2.419   0.911   6.290  0.7828  0.0750  0.2404
  753MOL0     C 1580   2.366   0.808   6.194 -0.5597 -0.6612  0.1981
  753MOL0     C 1581   2.218   0.821   6.176  0.5746 -0.5385  0.2335
  753MOL0     C 1582   2.177   0.722   6.067  0.2187  0.4258 -0.0866
  753MOL0     C 1583   2.028   0.727   6.057  0.3511  0.1563 -0.4448
  753MOL0     C 1584   1.983   0.832   5.958  0.3800 -1.0047 -0.4805
  753MOL0     C 1585   1.962   0.924   5.877 -0.2757  0.3006 -0.3648
  753MOL0     C 1586   2.635   0.801   6.277  0.0177 -0.6655  0.0986
  753MOL0     C 1587   2.775   0.802   6.286 -0.3468  0.1964  0.1214
  753MOL0     H 1588   3.143   1.226   6.489  0.5478  0.3902 -2.2013
  753MOL0     H 1589   3.381   1.293   6.502  1.5750  1.3135 -3.9733
  753MOL0     H 1590   3.683   0.992   6.418 -0.7029  2.3611  2.0750
  753MOL0     H 1591   3.686   1.049   6.249 -3.0020 -0.7126 -0.6209
  753MOL0     H 1592   3.824   1.246   6.349 -0.0985 -0.3073 -1.6887
  753MOL0     H 1593   3.841   1.132   6.493  1.0920  0.5341 -0.0890
  753MOL0     H 1594   3.906   0.966   6.316 -0.0401 -0.0862 -1.7104
  753MOL0     H 1595   3.932   1.098   6.202  0.0193  0.3489  0.2224
  753MOL0     H 1596   4.094   1.202   6.318  0.6428 -0.0062  1.7724
  753MOL0     H 1597   4.088   1.110   6.466 -0.5325  1.9328 -0.6291
  753MOL0     H 1598   4.158   0.901   6.334 -0.5076 -0.5005 -0.5791
  753MOL0     H 1599   4.170   1.017   6.200 -1.3771 -1.3268 -0.0361
  753MOL0     H 1600   4.356   1.135   6.337 -0.7661  2.0997  3.4151
  753MOL0     H 1601   4.307   1.027   6.472 -2.5074  3.2091  0.0504
  753MOL0     H 1602   4.429   0.852   6.372  2.1346 -0.2901 -0.8154
  753MOL0     H 1603   4.383   0.891   6.200 -4.0188 -0.0361  0.5056
  753MOL0     H 1604   4.581   1.031   6.389 -0.3303  1.3681  0.3847
  753MOL0     H 1605   4.560   1.059   6.216  0.9133  1.8267  2.6669
  753MOL0     H 1606   4.714   0.896   6.073  1.0873 -0.4204 -0.7258
  753MOL0     H 1607   4.916   0.588   6.142  0.9470 -0.3677  0.7347
  753MOL0     H 1608   4.899   0.723   6.035 -2.2685  3.2369  0.7584
  753MOL0     H 1609   5.062   0.858   6.173 -6.9677 -1.0009  2.0436
  753MOL0     H 1610   5.111   0.716   6.064 -0.8321  1.3551 -1.0489
  753MOL0     H 1611   5.118   0.570   6.275 -0.6171  0.3836  1.6371
  753MOL0     H 1612   5.091   0.715   6.359 -1.6282  0.0703 -1.2248
  753MOL0     H 1613   5.310   0.685   6.376  0.3300  2.0122 -0.0739
  753MOL0     H 1614   5.313   0.805   6.248  3.7089 -0.5509 -0.9057
  753MOL0     H 1615   5.506   0.833   6.174 -3.0325 -1.1578 -0.6340
  753MOL0     H 1616   5.663   0.962   6.122 -0.2093 -0.9818 -3.2842
  753MOL0     H 1617   5.787   0.878   6.225  1.9905  1.1062  0.7185
  753MOL0     H 1618   5.812   0.919   6.044  0.6749  0.8332  1.9027
  753MOL0     H 1619   6.226   0.791   6.088  2.2273  1.4169 -4.0474
  753MOL0     H 1620   6.433   0.690   6.045 -0.4144  0.6158  1.6604
  753MOL0     H 1621   6.414   0.247   5.906 -0.9831  0.4101  0.3787
  753MOL0     H 1622   6.469   0.331   5.749 -0.1753  1.7746  0.6080
  753MOL0     H 1623   6.638   0.251   5.987 -2.3202 -1.1503  0.2853
  753MOL0     H 1624   6.620   0.153   5.837 -0.8880  1.3095 -1.2001
  753MOL0     H 1625   6.727   0.442   5.836  1.3498  0.7438 -0.7711
  753MOL0     H 1626   6.727   0.345   5.697 -1.6112  4.3473  0.0588
  753MOL0     H 1627   6.882   0.276   5.947 -2.9285  2.7214  0.6218
  753MOL0     H 1628   6.842   0.163   5.814 -3.4921  0.3719 -0.1821
  753MOL0     H 1629   6.978   0.287   5.649  3.5986  3.4193 -1.2903
  753MOL0     H 1630   7.069   0.248   5.797  0.3527  1.7009  0.5141
  753MOL0     H 1631   6.963   0.525   5.712  1.4008 -0.9559 -1.5353
  753MOL0     H 1632   7.019   0.480   5.881  1.2414  1.6604  0.2764
  753MOL0     H 1633   7.166   0.490   5.618 -5.6103  2.5441 -0.8483
  753MOL0     H 1634   7.234   0.428   5.778 -0.0749  0.0669 -1.4176
  753MOL0     H 1635   7.201   0.636   5.875 -0.3462  0.9291  1.0217
  753MOL0     H 1636   7.142   0.718   5.729 -0.0750 -0.0162  1.6396
  753MOL0     H 1637   6.238   0.341   5.875  2.5355  0.0931 -0.1272
  753MOL0     H 1638   6.028   0.441   5.922  1.0869 -1.2313  0.6118
  753MOL0     H 1639   5.725   0.448   5.974 -1.6701 -1.6274 -2.0115
  753MOL0     H 1640   5.498   0.412   6.085 -1.2311 -0.0383  2.2166
  753MOL0     H 1641   3.471   0.949   6.247 -3.3650 -1.3944 -1.1751
  753MOL0     H 1642   3.254   0.899   6.230 -0.3156  1.9142 -1.1141
  753MOL0     H 1643   2.819   1.119   6.376 -1.4184 -1.4542  2.8999
  753MOL0     H 1644   2.571   1.129   6.346 -1.5337 -1.0835 -0.4750
  753MOL0     H 1645   2.397   0.823   6.090 -2.0344  1.1932 -0.0206
  753MOL0     H 1646   2.396   0.708   6.229 -0.7411 -0.3705  1.2251
  753MOL0     H 1647   2.184   0.920   6.145 -2.9393 -1.6642  0.0272
  753MOL0     H 1648   2.180   0.814   6.279 -0.6654  2.8866  0.1278
  753MOL0     H 1649   2.219   0.625   6.094  0.8673 -0.0947 -2.7695
  753MOL0     H 1650   2.222   0.739   5.969  1.1228  0.4766  0.3193
  753MOL0     H 1651   1.981   0.749   6.154  0.3654 -2.9028  0.3423
  753MOL0     H 1652   1.995   0.626   6.030 -0.5111  0.7974 -1.8721
  753MOL0     H 1653   1.932   1.011   5.821 -0.4188  1.7197  1.7983
  753MOL0     H 1654   2.586   0.705   6.269  0.0689 -0.7757  1.0042
  753MOL0     H 1655   2.827   0.706   6.278 -1.9779 -0.5961 -1.7536
  754MOL0     O 1656   6.598   6.180   0.734 -0.4527 -0.7650  0.7356
  754MOL0     C 1657   6.606   6.279   0.652 -0.1715  0.6334 -0.0539
  754MOL0     O 1658   6.501   6.338   0.602  0.4233 -0.3469  0.0457
  754MOL0     C 1659   6.370   6.291   0.615 -0.5838 -0.4666  0.3307
  754MOL0     C 1660   6.275   6.379   0.652  0.6903  0.3302  0.4728
  754MOL0     C 1661   6.141   6.339   0.666  0.1376 -0.4909 -0.2533
  754MOL0     C 1662   6.108   6.207   0.650  0.7631 -0.4784 -0.2068
  754MOL0     O 1663   5.991   6.149   0.666  0.3099  0.2914  1.0800
  754MOL0     C 1664   5.872   6.224   0.668  0.6445 -0.0764 -0.3324
  754MOL0     C 1665   5.754   6.123   0.649 -0.0305  0.3084  0.5954
  754MOL0     C 1666   5.755   6.021   0.766  0.4711 -0.7023 -0.6311
  754MOL0     C 1667   5.628   5.937   0.767  0.1159  0.0770 -0.0273
  754MOL0     C 1668   5.626   5.839   0.883 -0.4620  0.6910  0.1978
  754MOL0     C 1669   5.621   5.902   1.028  0.2961 -0.3181 -0.2003
  754MOL0     C 1670   5.519   6.013   1.047 -0.0918 -0.6321  0.6635
  754MOL0     C 1671   5.513   6.060   1.195 -0.9128 -1.2035 -0.4937
  754MOL0     N 1672   5.415   6.176   1.214 -0.1386 -0.0429  0.5477
  754MOL0     C 1673   5.455   6.312   1.237 -0.8203  0.3077  0.4858
  754MOL0     C 1674   5.328   6.367   1.251 -0.5988  0.4850 -0.3975
  754MOL0     C 1675   5.317   6.515   1.267 -1.0003  0.1954  0.0908
  754MOL0     C 1676   5.332   6.583   1.407  0.2201 -0.0441  0.3426
  754MOL0     C 1677   5.246   6.514   1.523  0.0311  0.4458 -0.7575
  754MOL0     C 1678   5.274   6.556   1.664  0.0579  0.1562 -0.1701
  754MOL0     O 1679   5.261   6.695   1.675 -0.0960 -0.3133 -0.0428
  754MOL0     C 1680   5.147   6.766   1.660  0.6843 -0.5712 -0.5125
  754MOL0     C 1681   5.014   6.721   1.670  0.8561  0.3171 -0.0775
  754MOL0     C 1682   4.907   6.796   1.630 -0.6498  0.4847 -1.2883
  754MOL0     C 1683   4.785   6.713   1.619 -0.2330 -0.2893 -0.1930
  754MOL0     C 1684   4.916   6.926   1.596 -0.5479 -0.2195 -0.0921
  754MOL0     C 1685   4.801   7.016   1.580 -0.0609 -0.3091  1.4019
  754MOL0     O 1686   4.679   6.997   1.642 -0.4160 -0.3030  0.3923
  754MOL0     C 1687   4.579   7.078   1.596  0.9555  0.3227 -0.0379
  754MOL0     C 1688   4.562   7.216   1.614 -0.2569  1.4928  0.2364
  754MOL0     C 1689   4.450   7.279   1.558  0.6290  0.4476 -0.8270
  754MOL0     C 1690   4.349   7.211   1.492 -0.5168 -0.3480  1.1607
  754MOL0     O 1691   4.255   7.287   1.440  0.3807  0.3398  1.0824
  754MOL0     C 1692   4.165   7.233   1.342  0.6220  0.0166  0.0261
  754MOL0     C 1693   4.051   7.334   1.324  0.8317 -0.4506 -0.3769
  754MOL0     C 1694   3.969   7.305   1.201 -0.6497  0.6268  0.3551
  754MOL0     C 1695   3.862   7.415   1.173 -0.1168 -0.0794  0.8775
  754MOL0     C 1696   3.786   7.413   1.035 -0.1340 -0.3080  0.6189
  754MOL0     C 1697   3.695   7.298   1.001 -0.4666 -0.0900  0.2050
  754MOL0     C 1698   3.607   7.261   1.112 -0.0097  0.9417  0.6229
  754MOL0     C 1699   3.493   7.180   1.060  0.7856  0.2543 -1.3523
  754MOL0    Cl 1700   3.373   7.274   0.969  0.5702 -0.0439 -0.2686
  754MOL0     C 1701   4.359   7.076   1.475  0.7496  0.3852 -0.3070
  754MOL0     C 1702   4.468   7.005   1.534 -0.5893 -0.3175  0.0997
  754MOL0     O 1703   4.831   7.113   1.506  0.0623  0.2416 -0.3020
  754MOL0     C 1704   5.053   6.984   1.593  1.0130 -0.0255 -1.5532
  754MOL0     C 1705   5.158   6.894   1.618 -0.9261 -0.0047 -0.7501
  754MOL0     N 1706   5.227   6.275   1.232  0.7208  0.4095 -0.4322
  754MOL0     N 1707   5.281   6.156   1.221  0.1277 -0.5818  0.6245
  754MOL0     C 1708   6.212   6.121   0.620  0.1658 -0.2061 -0.7860
  754MOL0     C 1709   6.344   6.159   0.599 -0.2325 -0.6040 -0.6140
  754MOL0     C 1710   6.740   6.320   0.603 -0.1776 -0.8675 -1.1474
  754MOL0     C 1711   6.745   6.404   0.498  0.4518 -0.1757 -0.2492
  754MOL0     C 1712   6.863   6.449   0.449  0.0427 -0.5386  0.0162
  754MOL0     C 1713   6.985   6.431   0.514  0.0444  0.4792  0.1881
  754MOL0     O 1714   7.099   6.498   0.473  0.1450  0.0078 -0.4017
  754MOL0     C 1715   7.145   6.519   0.340  0.3548 -0.1483 -0.2918
  754MOL0     C 1716   7.156   6.671   0.314 -0.5536  0.2848 -0.2591
  754MOL0     C 1717   7.213   6.706   0.176 -0.6885 -0.5890  0.0506
  754MOL0     C 1718   7.364   6.684   0.169  0.6063 -0.5730  0.2982
  754MOL0     C 1719   7.426   6.776   0.258 -0.7913  0.6953 -0.5437
  754MOL0     C 1720   7.460   6.866   0.338  1.1604  0.2464 -0.2770
  754MOL0     C 1721   6.984   6.333   0.614 -0.2717 -0.1563  0.3538
  754MOL0     C 1722   6.863   6.280   0.658  0.6584 -0.2170  0.1616
  754MOL0     H 1723   6.308   6.481   0.670  1.8733  0.4627 -2.0855
  754MOL0     H 1724   6.072   6.421   0.686  0.5256  0.5549 -2.7692
  754MOL0     H 1725   5.859   6.268   0.767  0.7171 -1.5695  0.3761
  754MOL0     H 1726   5.866   6.305   0.595 -0.2818  0.0061 -0.1804
  754MOL0     H 1727   5.653   6.164   0.646 -0.5941 -1.0920 -1.0153
  754MOL0     H 1728   5.764   6.077   0.551  0.3851 -1.8707  1.5936
  754MOL0     H 1729   5.849   5.970   0.742  0.7136  0.3794 -2.1101
  754MOL0     H 1730   5.765   6.075   0.861 -2.3658 -1.6368  0.3090
  754MOL0     H 1731   5.541   6.002   0.782  0.9645  0.5607  3.8207
  754MOL0     H 1732   5.629   5.892   0.668  0.5568 -0.0094  0.0166
  754MOL0     H 1733   5.542   5.769   0.872  1.4057 -1.9614  1.6682
  754MOL0     H 1734   5.720   5.785   0.875 -1.8906 -1.5861 -3.1768
  754MOL0     H 1735   5.604   5.825   1.104  1.1749 -2.6900 -2.2965
  754MOL0     H 1736   5.713   5.950   1.063  0.3948 -0.9242  0.4066
  754MOL0     H 1737   5.542   6.104   0.990 -0.9725  0.4800  2.0059
  754MOL0     H 1738   5.423   5.971   1.018 -0.6452  0.8673  0.2129
  754MOL0     H 1739   5.613   6.087   1.228 -1.8763  2.5188 -0.2531
  754MOL0     H 1740   5.478   5.973   1.250 -1.1097 -0.8985 -0.1376
  754MOL0     H 1741   5.552   6.359   1.231 -2.6019  4.2060 -1.4204
  754MOL0     H 1742   5.393   6.564   1.205 -0.0578  1.2249  1.9683
  754MOL0     H 1743   5.223   6.553   1.225 -1.4829 -0.0472  0.9247
  754MOL0     H 1744   5.293   6.683   1.388 -0.6217  0.0022  2.1034
  754MOL0     H 1745   5.439   6.595   1.424  0.9482 -0.3241 -3.2169
  754MOL0     H 1746   5.272   6.408   1.524 -1.8312 -0.0914 -2.3042
  754MOL0     H 1747   5.141   6.532   1.496  0.3327  1.0461 -1.5565
  754MOL0     H 1748   5.381   6.537   1.674  0.6918  3.4667  0.7138
  754MOL0     H 1749   5.224   6.505   1.747  2.1236  0.3147  1.2338
  754MOL0     H 1750   4.994   6.621   1.705 -1.3493  0.8157  0.2583
  754MOL0     H 1751   4.803   6.631   1.548  0.8377 -1.3888  1.2887
  754MOL0     H 1752   4.763   6.663   1.714 -1.0176 -0.0171 -0.2219
  754MOL0     H 1753   4.696   6.763   1.580  0.8632 -0.0450 -2.5502
  754MOL0     H 1754   4.645   7.258   1.670  1.4171 -0.8695 -0.3026
  754MOL0     H 1755   4.437   7.385   1.578  0.3046  0.4668 -1.1351
  754MOL0     H 1756   4.200   7.223   1.239 -1.3246 -0.7858 -0.5872
  754MOL0     H 1757   4.116   7.139   1.372  1.8358 -1.4026 -2.1725
  754MOL0     H 1758   3.980   7.318   1.405  0.5043  0.8536 -0.3876
  754MOL0     H 1759   4.094   7.435   1.327  0.7084 -0.3818 -0.7987
  754MOL0     H 1760   3.920   7.209   1.219 -0.4955  0.9610  3.0178
  754MOL0     H 1761   4.035   7.296   1.115  0.1570 -1.5004  1.1409
  754MOL0     H 1762   3.788   7.429   1.253 -1.3781  2.3270 -0.5699
  754MOL0     H 1763   3.911   7.513   1.166 -0.6449  0.0892 -1.2670
  754MOL0     H 1764   3.858   7.433   0.955  0.6736  0.7219  1.5743
  754MOL0     H 1765   3.721   7.501   1.032 -0.3136 -0.4345  0.7919
  754MOL0     H 1766   3.642   7.325   0.909 -2.1808 -0.3748  1.0742
  754MOL0     H 1767   3.754   7.211   0.968 -0.0550 -0.8311  2.6836
  754MOL0     H 1768   3.569   7.351   1.161 -1.8663  0.4605  0.1489
  754MOL0     H 1769   3.655   7.203   1.191 -1.4252  0.4327  1.1511
  754MOL0     H 1770   3.441   7.130   1.142 -0.2556 -0.5239 -2.4370
  754MOL0     H 1771   3.538   7.095   1.007  1.3943  0.0579 -0.5365
  754MOL0     H 1772   4.302   7.028   1.396  2.7750 -1.7644 -0.5773
  754MOL0     H 1773   4.474   6.897   1.528 -2.3833 -0.5267  1.4843
  754MOL0     H 1774   5.072   7.091   1.591  1.1320 -0.0067 -0.0086
  754MOL0     H 1775   5.258   6.927   1.595  0.7567 -3.0889  1.4125
  754MOL0     H 1776   6.205   6.014   0.607  0.9453 -0.6745  2.0131
  754MOL0     H 1777   6.430   6.099   0.570  0.3446  0.0549 -0.2991
  754MOL0     H 1778   6.657   6.445   0.451  1.6896  1.4194 -1.2970
  754MOL0     H 1779   6.857   6.526   0.373  0.4123 -1.2294 -0.7276
  754MOL0     H 1780   7.241   6.466   0.330  1.2749  1.4862 -0.5501
  754MOL0     H 1781   7.079   6.473   0.267 -0.5978  2.2174 -1.0418
  754MOL0     H 1782   7.222   6.707   0.394  0.1016  1.7886 -1.4263
  754MOL0     H 1783   7.062   6.727   0.322 -0.4009  0.6997 -1.2339
  754MOL0     H 1784   7.189   6.810   0.152 -1.9698 -0.8936 -0.0593
  754MOL0     H 1785   7.169   6.641   0.100  0.4619  0.9885 -2.1001
  754MOL0     H 1786   7.401   6.691   0.066 -2.6432  0.5193 -0.9060
  754MOL0     H 1787   7.383   6.582   0.201 -0.4114 -0.8148  0.1558
  754MOL0     H 1788   7.484   6.951   0.399  0.3395  0.2335  0.0826
  754MOL0     H 1789   7.073   6.298   0.664 -0.8670  0.6767  2.1113
  754MOL0     H 1790   6.867   6.213   0.742  2.4675  0.2219  0.4662
  755MOL0     O 1791   7.667   7.466   3.896 -0.1040 -0.0032 -0.1142
  755MOL0     C 1792   7.668   7.384   3.988 -0.1742  0.2055 -0.2018
  755MOL0     O 1793   7.571   7.373   4.084  0.1069 -0.9089 -0.3382
  755MOL0     C 1794   7.464   7.459   4.063 -0.0490 -0.2071  0.5550
  755MOL0     C 1795   7.359   7.434   3.968 -0.0696  0.1789  0.2008
  755MOL0     C 1796   7.258   7.522   3.932 -0.0482 -0.0541 -0.5250
  755MOL0     C 1797   7.260   7.636   4.007  0.6468  0.6401 -1.3705
  755MOL0     O 1798   7.170   7.732   3.983  0.3029 -0.7677 -0.7443
  755MOL0     C 1799   7.109   7.795   4.093  0.2037 -0.7525  0.2930
  755MOL0     C 1800   6.981   7.846   4.061  0.3228 -0.4334  0.1132
  755MOL0     C 1801   6.920   7.923   4.184 -0.5245  0.0247 -0.0855
  755MOL0     C 1802   6.780   7.972   4.175 -0.1911 -0.8044 -0.1742
  755MOL0     C 1803   6.694   7.957   4.306 -0.0744  0.2316 -0.7959
  755MOL0     C 1804   6.618   7.821   4.298  0.1121 -0.1659 -0.5018
  755MOL0     C 1805   6.520   7.810   4.427 -0.2551 -0.6496 -0.0796
  755MOL0     C 1806   6.538   7.672   4.487 -0.2920 -0.2678  0.2855
  755MOL0     N 1807   6.504   7.570   4.386  0.2094  0.0176 -0.4542
  755MOL0     C 1808   6.556   7.442   4.379 -0.3006  0.4886 -0.5139
  755MOL0     C 1809   6.454   7.351   4.352 -0.5810 -0.0257 -1.1118
  755MOL0     C 1810   6.472   7.207   4.344  0.2499 -0.7707  0.6107
  755MOL0     C 1811   6.351   7.131   4.274  0.4406 -1.6486  0.2765
  755MOL0     C 1812   6.397   6.984   4.251 -0.1941 -0.9052  0.6252
  755MOL0     C 1813   6.299   6.895   4.173 -1.1025 -0.9395 -0.2273
  755MOL0     O 1814   6.192   6.872   4.264 -0.7196 -0.0057  0.1631
  755MOL0     C 1815   6.069   6.918   4.233 -0.4922  0.2587 -0.7657
  755MOL0     C 1816   5.958   6.837   4.262  0.2832 -0.4942  0.9909
  755MOL0     C 1817   5.825   6.862   4.222 -0.1937 -0.3669  0.6021
  755MOL0     C 1818   5.724   6.769   4.266  1.1741 -0.6849 -0.2409
  755MOL0     C 1819   5.797   6.981   4.147 -0.3704 -0.5992  0.2334
  755MOL0     C 1820   5.662   7.032   4.107  0.1816 -0.0761 -0.2636
  755MOL0     O 1821   5.656   7.105   3.992 -0.2011  0.4836  0.0431
  755MOL0     C 1822   5.544   7.158   3.939 -0.0942  1.0040 -0.9966
  755MOL0     C 1823   5.552   7.290   3.901  0.8604 -0.1999 -0.2123
  755MOL0     C 1824   5.432   7.356   3.848  0.1714  0.4494 -0.0948
  755MOL0     C 1825   5.312   7.288   3.833  0.7570 -0.5109 -0.8532
  755MOL0     O 1826   5.194   7.339   3.777  0.3577  0.0849  0.2402
  755MOL0     C 1827   5.202   7.473   3.732 -0.1795  0.2537 -0.2590
  755MOL0     C 1828   5.070   7.505   3.662 -0.2725 -0.7803  0.3104
  755MOL0     C 1829   5.058   7.651   3.615  0.2929 -0.2610 -1.0958
  755MOL0     C 1830   4.994   7.751   3.723  0.2268 -0.2495 -1.8636
  755MOL0     C 1831   4.965   7.892   3.662 -0.6916 -0.3044  0.0632
  755MOL0     C 1832   4.893   7.995   3.749 -0.2418 -0.1956 -0.5039
  755MOL0     C 1833   4.873   8.135   3.678  0.7481  0.1878  0.8464
  755MOL0     C 1834   4.817   8.239   3.776 -0.1720  1.0214  0.0761
  755MOL0    Cl 1835   4.744   8.382   3.694 -0.3842  0.2428  0.0962
  755MOL0     C 1836   5.303   7.153   3.874  0.1426 -0.5080  0.1175
  755MOL0     C 1837   5.418   7.088   3.923 -0.4465  0.0966 -0.6255
  755MOL0     O 1838   5.571   7.003   4.183  0.0914  0.0491  0.9614
  755MOL0     C 1839   5.913   7.058   4.106  0.3324  0.5465 -0.1202
  755MOL0     C 1840   6.040   7.027   4.148 -1.0853 -0.3312  0.0152
  755MOL0     N 1841   6.341   7.427   4.335 -0.0314  0.6683  0.2869
  755MOL0     N 1842   6.372   7.548   4.361 -0.9038 -1.5542 -0.9499
  755MOL0     C 1843   7.360   7.665   4.104  0.4122 -0.4974 -0.2139
  755MOL0     C 1844   7.457   7.575   4.137 -0.5039 -0.5002 -0.1316
  755MOL0     C 1845   7.795   7.310   4.015 -0.7518  0.4516  0.3247
  755MOL0     C 1846   7.824   7.261   4.144  0.3279  0.7165  1.0327
  755MOL0     C 1847   7.955   7.205   4.162 -0.1623  0.0152 -0.2629
  755MOL0     C 1848   8.048   7.199   4.055 -0.4347  0.7529 -0.0825
  755MOL0     O 1849   8.182   7.149   4.067  1.0596 -0.5470  0.1674
  755MOL0     C 1850   8.223   7.100   4.191 -0.1256  0.0669 -0.4148
  755MOL0     C 1851   8.345   7.010   4.175  0.4777  0.4068 -0.3014
  755MOL0     C 1852   8.320   6.886   4.076 -0.1035  0.0206  0.1234
  755MOL0     C 1853   8.437   6.787   4.061 -0.2934  0.1226 -0.6068
  755MOL0     C 1854   8.527   6.839   3.963  0.1595  0.0261 -0.5506
  755MOL0     C 1855   8.593   6.897   3.881 -0.6817  0.2476 -0.7220
  755MOL0     C 1856   8.007   7.239   3.926  0.4056  0.1853 -0.0859
  755MOL0     C 1857   7.884   7.296   3.905 -0.5237 -0.1673  0.2305
  755MOL0     H 1858   7.369   7.339   3.917 -3.4224  0.8365 -1.9918
  755MOL0     H 1859   7.179   7.508   3.859 -0.7913 -2.5808  0.6645
  755MOL0     H 1860   7.104   7.722   4.175  1.8818 -0.8596  0.3411
  755MOL0     H 1861   7.172   7.877   4.127  1.6224 -2.0941  1.0501
  755MOL0     H 1862   6.989   7.903   3.968 -2.2232  0.7209  0.5154
  755MOL0     H 1863   6.916   7.760   4.044 -0.7976  0.1456  1.2271
  755MOL0     H 1864   6.919   7.847   4.262  1.2201 -2.6979 -2.4783
  755MOL0     H 1865   6.980   8.009   4.212 -1.5930  0.7015  0.1676
  755MOL0     H 1866   6.795   8.078   4.155  0.3157 -0.7421  0.5023
  755MOL0     H 1867   6.725   7.937   4.087 -0.2457 -1.2644  0.0385
  755MOL0     H 1868   6.747   7.957   4.402 -2.4409 -1.9676  0.6486
  755MOL0     H 1869   6.622   8.039   4.310 -1.2435 -0.6073 -3.2367
  755MOL0     H 1870   6.554   7.813   4.210  0.1728 -3.4897 -0.3701
  755MOL0     H 1871   6.681   7.733   4.286 -1.3345 -1.0582 -1.8333
  755MOL0     H 1872   6.544   7.884   4.504  1.9754 -0.6471 -0.7127
  755MOL0     H 1873   6.415   7.829   4.402 -0.6733 -1.0032  1.3535
  755MOL0     H 1874   6.473   7.669   4.575 -0.6396 -1.6663 -0.0038
  755MOL0     H 1875   6.637   7.662   4.533 -0.7661  2.3048  2.1000
  755MOL0     H 1876   6.660   7.413   4.393 -0.0056  0.8329 -1.8473
  755MOL0     H 1877   6.562   7.186   4.286  0.3267  0.2243  0.3501
  755MOL0     H 1878   6.489   7.166   4.445  0.0133 -0.8485  0.6193
  755MOL0     H 1879   6.304   7.184   4.191 -1.4121  0.3052  2.4271
  755MOL0     H 1880   6.275   7.126   4.353  0.2297 -1.1212  0.1154
  755MOL0     H 1881   6.408   6.933   4.347 -1.4294 -2.2779  0.0697
  755MOL0     H 1882   6.494   6.989   4.200 -0.4592  0.5627  0.2130
  755MOL0     H 1883   6.347   6.798   4.158  2.6644  0.4891  1.4495
  755MOL0     H 1884   6.260   6.928   4.076  0.7694 -2.9190 -1.7341
  755MOL0     H 1885   5.983   6.744   4.313 -1.1071 -3.7116 -3.4999
  755MOL0     H 1886   5.663   6.828   4.336  1.4595 -0.6964  0.0170
  755MOL0     H 1887   5.673   6.716   4.185  2.1429 -2.6510  0.3675
  755MOL0     H 1888   5.763   6.680   4.318  1.1053 -1.8460 -2.0838
  755MOL0     H 1889   5.645   7.342   3.920 -0.6773  2.1276  1.4633
  755MOL0     H 1890   5.452   7.458   3.817  0.6207  0.4643  0.2374
  755MOL0     H 1891   5.200   7.542   3.817 -2.3551 -0.1452  0.0832
  755MOL0     H 1892   5.281   7.495   3.661  0.6371 -0.9258  0.2498
  755MOL0     H 1893   5.051   7.445   3.573 -1.9335 -2.3641  1.6585
  755MOL0     H 1894   4.985   7.491   3.730 -2.4880  0.4557 -2.0431
  755MOL0     H 1895   4.986   7.649   3.532  0.3667  0.8659 -1.1998
  755MOL0     H 1896   5.156   7.691   3.588 -0.6042  1.7486 -1.5432
  755MOL0     H 1897   4.892   7.720   3.745 -0.2258  0.7146 -2.5301
  755MOL0     H 1898   5.060   7.755   3.810  1.1139 -0.3557 -2.5077
  755MOL0     H 1899   4.903   7.881   3.572 -1.7633 -0.0698  0.7611
  755MOL0     H 1900   5.058   7.944   3.638 -0.0960 -1.6353 -0.6572
  755MOL0     H 1901   4.793   7.963   3.780 -0.6655  1.8398  0.4108
  755MOL0     H 1902   4.954   8.000   3.839  1.1171  4.3300 -1.3841
  755MOL0     H 1903   4.798   8.125   3.599  1.0433 -0.7847  0.6870
  755MOL0     H 1904   4.963   8.181   3.637  0.7093  1.3275  1.9649
  755MOL0     H 1905   4.901   8.279   3.833  1.1864 -0.6694 -0.6730
  755MOL0     H 1906   4.744   8.192   3.842 -0.0096 -2.9740 -2.2468
  755MOL0     H 1907   5.209   7.098   3.866 -0.3149  0.4263 -1.4436
  755MOL0     H 1908   5.412   6.987   3.960  1.2613  0.3173  0.3823
  755MOL0     H 1909   5.902   7.141   4.038 -1.0469 -0.3430 -1.0301
  755MOL0     H 1910   6.120   7.085   4.102  0.7856 -1.7211  1.3524
  755MOL0     H 1911   7.354   7.763   4.149  1.2841  0.5918 -2.2888
  755MOL0     H 1912   7.529   7.582   4.218 -2.0983 -0.0406  1.2797
  755MOL0     H 1913   7.757   7.262   4.229 -0.3748 -2.0256  0.5817
  755MOL0     H 1914   7.986   7.156   4.254  1.0092  2.8976  0.9787
  755MOL0     H 1915   8.250   7.180   4.261 -1.2102 -1.0098  1.3266
  755MOL0     H 1916   8.153   7.029   4.238 -1.7868  2.3048  0.6932
  755MOL0     H 1917   8.378   6.987   4.276  3.3398  0.0012 -1.2338
  755MOL0     H 1918   8.426   7.070   4.132  0.7741 -0.6427 -1.2578
  755MOL0     H 1919   8.275   6.909   3.979 -0.7147 -1.5541  0.0060
  755MOL0     H 1920   8.243   6.830   4.129  0.6404 -0.1099  1.0940
  755MOL0     H 1921   8.400   6.689   4.031  2.3584 -0.9494 -0.6431
  755MOL0     H 1922   8.496   6.765   4.151 -1.0326 -0.3705 -0.2345
  755MOL0     H 1923   8.640   6.936   3.792 -1.6829  0.4813 -1.1635
  755MOL0     H 1924   8.076   7.223   3.843 -0.1086  1.2885 -0.7602
  755MOL0     H 1925   7.862   7.344   3.810  1.9463 -0.3710 -0.5249
  756MOL0     O 1926   9.934   4.262   7.371  0.6919  1.1413  0.5618
  756MOL0     C 1927   9.910   4.239   7.252 -0.0628  0.3888  0.2918
  756MOL0     O 1928   9.786   4.210   7.198  0.3868 -0.2875 -0.4501
  756MOL0     C 1929   9.669   4.245   7.266 -0.4539  0.4253  1.1766
  756MOL0     C 1930   9.556   4.192   7.214  0.2808  0.7812  0.5398
  756MOL0     C 1931   9.427   4.215   7.274 -0.1266 -0.6756 -0.0203
  756MOL0     C 1932   9.422   4.298   7.389 -0.7281  0.4551 -0.8007
  756MOL0     O 1933   9.311   4.342   7.459 -0.6245  0.1966 -0.2494
  756MOL0     C 1934   9.188   4.265   7.449  0.5042 -0.2321  0.0286
  756MOL0     C 1935   9.078   4.349   7.520  0.9068  0.4717  0.4731
  756MOL0     C 1936   8.939   4.283   7.516  0.2261 -0.8475  0.1799
  756MOL0     C 1937   8.824   4.347   7.595 -1.1626 -0.3360 -0.1211
  756MOL0     C 1938   8.691   4.289   7.548 -0.1640  1.2546  0.5353
  756MOL0     C 1939   8.668   4.145   7.584  0.3301 -0.1729  0.1305
  756MOL0     C 1940   8.618   4.132   7.734 -1.0000  0.1780  0.8377
  756MOL0     C 1941   8.531   4.005   7.760  0.0273  0.7312 -0.1203
  756MOL0     N 1942   8.429   3.981   7.663 -1.0367  0.0554  0.3772
  756MOL0     C 1943   8.337   4.074   7.622 -0.1019 -0.0480 -0.4072
  756MOL0     C 1944   8.268   4.010   7.530  0.8218 -0.4126 -0.6167
  756MOL0     C 1945   8.159   4.068   7.439 -0.5847 -0.5355 -0.5171
  756MOL0     C 1946   8.054   4.143   7.518 -0.4334 -0.5275  0.7897
  756MOL0     C 1947   7.949   4.205   7.418  0.2851 -0.8690 -0.8893
  756MOL0     C 1948   7.857   4.309   7.471  0.1822 -0.2458  0.4411
  756MOL0     O 1949   7.797   4.258   7.594 -0.3978 -0.2518  0.0820
  756MOL0     C 1950   7.665   4.234   7.595  0.5950 -0.6083 -0.0250
  756MOL0     C 1951   7.620   4.132   7.678 -0.5007  0.0294 -0.7391
  756MOL0     C 1952   7.489   4.089   7.671  1.6354 -0.1027 -0.3384
  756MOL0     C 1953   7.458   3.962   7.747 -0.9214  0.2469 -0.2515
  756MOL0     C 1954   7.401   4.162   7.589  0.0825  0.0299 -0.3312
  756MOL0     C 1955   7.264   4.130   7.578 -0.3689  0.7361 -0.0642
  756MOL0     O 1956   7.226   4.105   7.451 -0.5321  0.5278  0.3676
  756MOL0     C 1957   7.097   4.134   7.427 -0.0682  0.3585  0.7212
  756MOL0     C 1958   7.011   4.037   7.453 -0.0526  0.3096 -1.4007
  756MOL0     C 1959   6.872   4.046   7.426  0.3450  0.1038  0.2289
  756MOL0     C 1960   6.824   4.167   7.376 -0.1457  0.2475  0.3768
  756MOL0     O 1961   6.689   4.188   7.356  0.3198 -0.4723  0.2557
  756MOL0     C 1962   6.644   4.124   7.230 -0.7360  0.3727  0.1983
  756MOL0     C 1963   6.513   4.178   7.204  0.6085 -1.3653  0.7312
  756MOL0     C 1964   6.458   4.104   7.079  1.2011  0.4155  0.2259
  756MOL0     C 1965   6.308   4.128   7.059  0.7819 -0.4080  0.2915
  756MOL0     C 1966   6.252   4.036   6.947  0.2227  0.3684 -0.1481
  756MOL0     C 1967   6.108   4.064   6.899  0.6274 -0.2601 -0.4836
  756MOL0     C 1968   6.017   4.125   7.011  0.5819  0.6813 -0.1018
  756MOL0     C 1969   5.885   4.171   6.943 -0.6045  0.2163 -0.2923
  756MOL0    Cl 1970   5.811   4.038   6.865 -0.0701  0.5615 -0.4037
  756MOL0     C 1971   6.917   4.270   7.364  0.5526  1.3159  0.1969
  756MOL0     C 1972   7.055   4.253   7.371 -0.5269  0.6192 -0.1491
  756MOL0     O 1973   7.190   4.154   7.678 -0.2800  0.4657  0.0775
  756MOL0     C 1974   7.441   4.271   7.513 -0.1004  0.1329  1.2097
  756MOL0     C 1975   7.574   4.307   7.521  0.2272  0.5529  0.6064
  756MOL0     N 1976   8.312   3.884   7.530 -0.5586  0.0052 -0.5898
  756MOL0     N 1977   8.411   3.869   7.592 -0.5008  0.0907 -0.4897
  756MOL0     C 1978   9.533   4.360   7.435 -1.1173 -0.5676 -0.0901
  756MOL0     C 1979   9.658   4.332   7.375 -0.0564  0.5775  0.2012
  756MOL0     C 1980  10.018   4.219   7.163  0.3911  0.3280  0.1003
  756MOL0     C 1981  10.154   4.213   7.211  0.5931 -0.7604  0.2295
  756MOL0     C 1982  10.263   4.206   7.127 -0.4702 -0.4744 -0.0726
  756MOL0     C 1983  10.244   4.202   6.986 -0.4108 -0.1589  0.8594
  756MOL0     O 1984  10.360   4.190   6.910  0.6648 -0.3367 -0.0589
  756MOL0     C 1985  10.353   4.151   6.768  0.2716  0.1678 -1.1917
  756MOL0     C 1986  10.350   4.273   6.673  0.2570 -0.6581  0.9511
  756MOL0     C 1987  10.348   4.234   6.519  0.1925  0.3561 -0.0780
  756MOL0     C 1988  10.488   4.258   6.459 -0.2924  0.3597 -0.1456
  756MOL0     C 1989  10.585   4.160   6.498 -0.1274  0.5207  0.0744
  756MOL0     C 1990  10.663   4.063   6.533 -0.0965  0.4482  0.7046
  756MOL0     C 1991  10.112   4.222   6.938  0.4898 -0.9104  0.0921
  756MOL0     C 1992  10.006   4.229   7.025 -0.6914 -0.4018  0.0341
  756MOL0     H 1993   9.575   4.117   7.139  0.9057 -1.7885  3.0916
  756MOL0     H 1994   9.331   4.175   7.244 -0.9378  0.4684  0.9423
  756MOL0     H 1995   9.153   4.249   7.346  0.4608  0.7826 -0.1247
  756MOL0     H 1996   9.196   4.167   7.497  1.3687  1.0007  2.5774
  756MOL0     H 1997   9.115   4.374   7.620 -0.4909  2.1047  0.6127
  756MOL0     H 1998   9.076   4.450   7.478  0.9197  0.6928  0.9923
  756MOL0     H 1999   8.912   4.288   7.410  1.4301 -2.7693 -0.2703
  756MOL0     H 2000   8.934   4.177   7.539 -1.3198 -0.4665  1.8019
  756MOL0     H 2001   8.829   4.330   7.703 -0.0929 -1.2226 -0.2999
  756MOL0     H 2002   8.822   4.455   7.576 -1.7643 -0.6904 -2.2582
  756MOL0     H 2003   8.605   4.350   7.578 -2.0684 -0.9407 -0.1726
  756MOL0     H 2004   8.696   4.290   7.438 -0.3039 -0.6610  0.4833
  756MOL0     H 2005   8.595   4.103   7.514 -2.4990  0.0694  2.6986
  756MOL0     H 2006   8.758   4.084   7.576  0.3050  0.0224 -2.1459
  756MOL0     H 2007   8.702   4.135   7.804 -0.1487  1.1242 -0.1913
  756MOL0     H 2008   8.556   4.217   7.763  1.8932  2.3218  1.1351
  756MOL0     H 2009   8.494   3.995   7.863  0.8220 -0.4020  0.0715
  756MOL0     H 2010   8.596   3.917   7.752  1.3336  1.7995 -1.8615
  756MOL0     H 2011   8.338   4.182   7.638 -0.4973  0.4217 -3.0384
  756MOL0     H 2012   8.205   4.138   7.369 -1.4602 -0.7347 -1.3045
  756MOL0     H 2013   8.111   3.988   7.381 -0.7322  1.3510 -3.1765
  756MOL0     H 2014   8.098   4.219   7.582  0.4151 -1.1044  0.9121
  756MOL0     H 2015   7.990   4.071   7.571 -1.9643  0.5270  0.4402
  756MOL0     H 2016   7.896   4.126   7.365  4.3242 -4.0468 -0.7211
  756MOL0     H 2017   8.004   4.266   7.345 -3.3221  0.1563 -2.9933
  756MOL0     H 2018   7.793   4.350   7.393 -2.0490 -1.4785  1.5012
  756MOL0     H 2019   7.925   4.388   7.502  0.1905 -0.2053  0.3178
  756MOL0     H 2020   7.692   4.068   7.728 -1.3824 -0.9172 -0.6678
  756MOL0     H 2021   7.352   3.935   7.735 -0.6893 -0.3840 -0.9090
  756MOL0     H 2022   7.527   3.879   7.728  1.5318  0.6231  5.1916
  756MOL0     H 2023   7.465   3.976   7.855  3.0306 -4.7903  0.4927
  756MOL0     H 2024   7.038   3.938   7.490 -0.3581  0.5684 -0.4332
  756MOL0     H 2025   6.809   3.965   7.462 -1.4415  1.6460  0.7329
  756MOL0     H 2026   6.719   4.141   7.153  1.9320 -0.4345  2.4374
  756MOL0     H 2027   6.645   4.017   7.255 -1.0784  0.9138  2.8732
  756MOL0     H 2028   6.454   4.163   7.295  1.0354  1.8238  1.6482
  756MOL0     H 2029   6.518   4.280   7.166 -1.7295 -2.8402 -4.4316
  756MOL0     H 2030   6.467   3.998   7.103  0.5672  0.2151 -0.4181
  756MOL0     H 2031   6.514   4.128   6.988 -3.1713  1.2855 -2.4970
  756MOL0     H 2032   6.252   4.100   7.149 -0.8846 -1.9229 -1.1463
  756MOL0     H 2033   6.295   4.234   7.034 -0.9004 -0.9465 -1.3591
  756MOL0     H 2034   6.242   3.933   6.983  1.6100  0.7939  1.6678
  756MOL0     H 2035   6.319   4.032   6.861  0.7201 -1.2153  0.2759
  756MOL0     H 2036   6.113   4.138   6.818 -0.2407  1.1113  0.6570
  756MOL0     H 2037   6.080   3.969   6.854 -0.8625  0.4205 -1.0741
  756MOL0     H 2038   6.050   4.219   7.056  1.1023 -0.6593  2.5588
  756MOL0     H 2039   5.990   4.053   7.090  1.9354  0.8393  0.5346
  756MOL0     H 2040   5.904   4.244   6.863 -0.8366  0.3622 -0.2163
  756MOL0     H 2041   5.822   4.218   7.019  0.4328 -0.9719  1.3786
  756MOL0     H 2042   6.881   4.364   7.323 -1.0497  0.5447 -0.2238
  756MOL0     H 2043   7.124   4.334   7.349 -1.3452  1.5367  0.5964
  756MOL0     H 2044   7.374   4.321   7.443  0.1517  0.9590  1.5513
  756MOL0     H 2045   7.613   4.386   7.458  1.6896 -1.6334 -1.3943
  756MOL0     H 2046   9.539   4.437   7.511 -3.7436  0.6292 -0.9641
  756MOL0     H 2047   9.744   4.390   7.405 -1.6180  2.4698  1.2620
  756MOL0     H 2048  10.176   4.225   7.317 -3.0351  1.0395  0.9481
  756MOL0     H 2049  10.360   4.203   7.175 -1.1650 -2.5285  1.3262
  756MOL0     H 2050  10.440   4.086   6.755  1.1052  0.9882  0.0596
  756MOL0     H 2051  10.267   4.086   6.746  0.0241 -0.0028  0.1748
  756MOL0     H 2052  10.430   4.343   6.701  1.6697 -0.8919 -2.1063
  756MOL0     H 2053  10.249   4.315   6.671  0.0582 -1.1418  0.4910
  756MOL0     H 2054  10.269   4.290   6.468 -1.8278 -1.9035  0.4031
  756MOL0     H 2055  10.325   4.128   6.507  0.0724  0.1757  1.5308
  756MOL0     H 2056  10.524   4.359   6.482 -2.7249  0.9750  1.3362
  756MOL0     H 2057  10.472   4.255   6.351 -1.2909  1.3913 -0.0474
  756MOL0     H 2058  10.737   3.997   6.572  1.2537  2.4796  1.7834
  756MOL0     H 2059  10.090   4.231   6.832  1.3265  1.2994  0.0464
  756MOL0     H 2060   9.909   4.233   6.976 -0.3427  0.1148 -0.6272
  757MOL0     O 2061  10.715   6.985   9.746  0.4837  0.1713  0.1658
  757MOL0     C 2062  10.648   6.888   9.773 -0.0884 -0.1719 -0.3438
  757MOL0     O 2063  10.513   6.874   9.735 -0.2782 -0.0879  0.5068
  757MOL0     C 2064  10.448   6.989   9.702  0.6215  0.2910 -0.3694
  757MOL0     C 2065  10.387   7.015   9.578  0.3578  0.1148  0.3729
  757MOL0     C 2066  10.310   7.131   9.552 -0.5249 -0.5420  0.2479
  757MOL0     C 2067  10.307   7.225   9.661  0.0744 -1.2404  0.5607
  757MOL0     O 2068  10.246   7.349   9.648 -0.9614 -0.3947  0.3738
  757MOL0     C 2069  10.215   7.406   9.523 -0.3961  1.2656 -0.3207
  757MOL0     C 2070  10.170   7.552   9.539  0.2885  0.7253 -0.0167
  757MOL0     C 2071  10.132   7.616   9.401  0.4667 -0.8186 -0.0700
  757MOL0     C 2072  10.169   7.763   9.388  0.3139  0.4905  0.0344
  757MOL0     C 2073  10.316   7.791   9.373 -0.5235 -0.9435  0.8789
  757MOL0     C 2074  10.379   7.723   9.246  0.1481  1.2520 -0.5459
  757MOL0     C 2075  10.522   7.776   9.233  0.4382  1.2012 -0.3115
  757MOL0     C 2076  10.586   7.710   9.111  0.3215  0.0234  0.4203
  757MOL0     N 2077  10.724   7.760   9.110  0.2377 -0.0024 -0.1916
  757MOL0     C 2078  10.822   7.719   9.191  0.3146 -0.5111 -0.9309
  757MOL0     C 2079  10.923   7.805   9.157 -0.2295 -0.1094  0.2964
  757MOL0     C 2080  11.063   7.794   9.206  0.1504 -0.1116  0.1837
  757MOL0     C 2081  11.131   7.658   9.192 -0.5094  0.0110 -0.0939
  757MOL0     C 2082  11.151   7.612   9.048  0.1492 -0.4675 -0.2712
  757MOL0     C 2083  11.235   7.495   9.032 -0.0655  0.4888 -0.5080
  757MOL0     O 2084  11.215   7.436   8.904  0.3841 -0.2129  0.1382
  757MOL0     C 2085  11.245   7.507   8.797  1.5413 -0.2407  0.9058
  757MOL0     C 2086  11.334   7.617   8.793 -0.4390 -1.0426 -0.6475
  757MOL0     C 2087  11.385   7.665   8.671 -0.6771  0.4335 -0.7137
  757MOL0     C 2088  11.484   7.772   8.688 -1.1370  0.4153 -0.0457
  757MOL0     C 2089  11.343   7.618   8.548  0.1201 -0.9852 -0.4175
  757MOL0     C 2090  11.394   7.665   8.418 -0.5146  0.1786 -0.1741
  757MOL0     O 2091  11.401   7.562   8.324  0.7541  0.2330  0.2547
  757MOL0     C 2092  11.368   7.587   8.191  0.1964 -0.2862  0.0391
  757MOL0     C 2093  11.417   7.503   8.094  0.6693  0.3618  0.8464
  757MOL0     C 2094  11.377   7.518   7.965 -0.9589  0.0147 -0.0895
  757MOL0     C 2095  11.315   7.628   7.914 -0.1850 -0.8681 -0.5673
  757MOL0     O 2096  11.305   7.640   7.781 -0.0364 -0.1532 -0.0234
  757MOL0     C 2097  11.309   7.765   7.716 -0.9122 -1.4187  0.1417
  757MOL0     C 2098  11.283   7.762   7.562 -0.0262  0.7659  0.4246
  757MOL0     C 2099  11.151   7.713   7.509 -0.3091  0.0610  0.0641
  757MOL0     C 2100  11.159   7.688   7.351 -0.5603 -0.0300  0.4366
  757MOL0     C 2101  11.040   7.603   7.306  0.3477 -0.3478 -0.5273
  757MOL0     C 2102  10.902   7.640   7.355  0.2084 -0.1115  1.0852
  757MOL0     C 2103  10.804   7.532   7.305  0.5620 -0.4718 -0.0824
  757MOL0     C 2104  10.664   7.566   7.347  0.1218 -0.3131 -0.1717
  757MOL0    Cl 2105  10.641   7.536   7.514  0.1314 -0.3203  0.0062
  757MOL0     C 2106  11.267   7.717   8.012  0.0773  0.4284 -1.0373
  757MOL0     C 2107  11.281   7.690   8.150 -0.4448  0.5050 -0.2292
  757MOL0     O 2108  11.405   7.787   8.401  0.8968 -0.8187 -0.3492
  757MOL0     C 2109  11.242   7.511   8.558  0.1316  0.4071  0.6609
  757MOL0     C 2110  11.193   7.456   8.676 -0.2146  0.6291 -0.0386
  757MOL0     N 2111  10.887   7.897   9.066 -0.0183  0.1835 -0.4829
  757MOL0     N 2112  10.765   7.864   9.038  0.0822 -0.1597 -1.0814
  757MOL0     C 2113  10.372   7.199   9.780  0.3892 -0.1718 -0.2714
  757MOL0     C 2114  10.432   7.082   9.812 -0.2684 -0.0600 -0.2708
  757MOL0     C 2115  10.717   6.759   9.808  1.2707  0.3067  0.8764
  757MOL0     C 2116  10.855   6.751   9.822  0.6770 -0.0639  0.0784
  757MOL0     C 2117  10.924   6.632   9.851  0.3715  0.3681  0.5476
  757MOL0     C 2118  10.849   6.513   9.859  0.0623 -0.9673  0.5348
  757MOL0     O 2119  10.934   6.406   9.890 -0.5347  0.0782  0.7920
  757MOL0     C 2120  10.882   6.288   9.943  1.0032  0.2336 -0.1340
  757MOL0     C 2121  10.862   6.190   9.830 -0.4758  0.0369  0.2016
  757MOL0     C 2122  10.838   6.058   9.888 -0.8659  0.7959  0.2823
  757MOL0     C 2123  10.830   5.944   9.775  0.1294  0.2540 -0.4624
  757MOL0     C 2124  10.786   5.811   9.834  0.2472 -0.6447  0.3514
  757MOL0     C 2125  10.743   5.698   9.853  0.8861 -0.5959 -0.1836
  757MOL0     C 2126  10.712   6.516   9.826  0.4417  0.0954 -0.3605
  757MOL0     C 2127  10.646   6.633   9.799  0.6416 -0.7794  0.7069
  757MOL0     H 2128  10.406   6.946   9.496  0.4363 -2.1746  2.1986
  757MOL0     H 2129  10.260   7.153   9.458 -0.8296 -2.2464 -0.0091
  757MOL0     H 2130  10.305   7.419   9.462  0.6526  1.3776  1.2038
  757MOL0     H 2131  10.134   7.349   9.476 -1.5177  2.5331 -0.0068
  757MOL0     H 2132  10.089   7.560   9.612  0.5479  3.9834  0.0342
  757MOL0     H 2133  10.253   7.609   9.581  0.2460  0.3396  0.6000
  757MOL0     H 2134  10.199   7.569   9.329 -0.5413 -0.8763 -1.0036
  757MOL0     H 2135  10.034   7.590   9.358 -0.1813 -0.3285  1.0739
  757MOL0     H 2136  10.114   7.798   9.300 -1.0342  1.2983  1.1477
  757MOL0     H 2137  10.119   7.821   9.467  0.9708 -0.5519  1.2537
  757MOL0     H 2138  10.317   7.899   9.353 -0.9691 -1.1915 -0.5512
  757MOL0     H 2139  10.370   7.768   9.465  2.7315  0.7206 -0.4683
  757MOL0     H 2140  10.380   7.617   9.272 -0.6009  1.9925  2.9034
  757MOL0     H 2141  10.322   7.731   9.153  0.0026  3.3941 -0.3310
  757MOL0     H 2142  10.526   7.884   9.222 -0.1609  1.1337 -1.2264
  757MOL0     H 2143  10.574   7.751   9.327 -2.3715 -3.3732  0.3591
  757MOL0     H 2144  10.527   7.748   9.027  0.6176 -1.5099 -0.5281
  757MOL0     H 2145  10.582   7.600   9.114 -2.7428  0.0325 -0.2489
  757MOL0     H 2146  10.822   7.642   9.267 -2.1589 -2.9421 -3.1772
  757MOL0     H 2147  11.120   7.870   9.152  1.4429 -1.1098  0.0791
  757MOL0     H 2148  11.069   7.816   9.313  0.1276 -1.7537  0.5597
  757MOL0     H 2149  11.069   7.583   9.241 -0.7967  0.4699  0.2528
  757MOL0     H 2150  11.230   7.664   9.238 -0.3980  2.3115 -0.5257
  757MOL0     H 2151  11.196   7.695   8.992 -0.0072  0.9287  1.5851
  757MOL0     H 2152  11.056   7.604   8.994  0.7471  4.0003 -2.5402
  757MOL0     H 2153  11.212   7.418   9.107  1.5480  1.4236  1.0218
  757MOL0     H 2154  11.342   7.516   9.039  0.1445 -0.0782 -1.7288
  757MOL0     H 2155  11.374   7.657   8.886 -2.2441  1.4039 -0.8249
  757MOL0     H 2156  11.447   7.844   8.762 -1.2328  0.6443 -0.3136
  757MOL0     H 2157  11.570   7.730   8.741  2.3897  4.9693 -1.4947
  757MOL0     H 2158  11.504   7.836   8.602  0.0240  3.8786  2.5667
  757MOL0     H 2159  11.484   7.420   8.115 -2.4331 -2.2165  1.3692
  757MOL0     H 2160  11.421   7.449   7.894  1.9169 -0.5049  1.9968
  757MOL0     H 2161  11.234   7.832   7.758 -0.4512 -1.1930  0.6196
  757MOL0     H 2162  11.409   7.808   7.728 -2.0647  0.9889  1.8223
  757MOL0     H 2163  11.299   7.861   7.518  1.3140  0.5111  0.3051
  757MOL0     H 2164  11.361   7.693   7.531 -1.9080 -0.8253 -0.9780
  757MOL0     H 2165  11.081   7.795   7.529  1.8352  2.4819 -1.6991
  757MOL0     H 2166  11.129   7.621   7.563 -0.8298  0.2623  0.2019
  757MOL0     H 2167  11.168   7.786   7.302  2.1119 -1.7393 -2.9043
  757MOL0     H 2168  11.248   7.642   7.308  1.4360  2.7926  1.1831
  757MOL0     H 2169  11.063   7.511   7.359 -0.0954  0.1153  0.4895
  757MOL0     H 2170  11.037   7.607   7.196 -1.0833 -0.1549 -0.4965
  757MOL0     H 2171  10.893   7.642   7.464 -0.5830 -1.0763  1.0522
  757MOL0     H 2172  10.876   7.741   7.323 -0.1484 -0.7594 -0.8561
  757MOL0     H 2173  10.840   7.436   7.345  2.2827  0.4368  0.6836
  757MOL0     H 2174  10.821   7.528   7.197  0.2205 -0.3933 -0.1382
  757MOL0     H 2175  10.594   7.502   7.292 -1.1928  0.3881  0.6448
  757MOL0     H 2176  10.636   7.669   7.325  1.0850  0.1691  0.7542
  757MOL0     H 2177  11.218   7.810   7.984  0.1214  0.6889 -0.2726
  757MOL0     H 2178  11.229   7.748   8.225 -1.9400  3.3837 -3.2176
  757MOL0     H 2179  11.213   7.461   8.466  6.1299 -0.1628 -1.3614
  757MOL0     H 2180  11.118   7.378   8.676  1.9469 -1.5858  0.0688
  757MOL0     H 2181  10.369   7.280   9.853  2.8237  0.2271 -0.5227
  757MOL0     H 2182  10.473   7.052   9.908 -0.2840 -0.1288 -0.2866
  757MOL0     H 2183  10.905   6.847   9.815 -0.1302  0.2728 -1.5084
  757MOL0     H 2184  11.029   6.640   9.874  0.2560  0.4323  1.0512
  757MOL0     H 2185  10.949   6.237  10.012 -0.1333 -1.8388 -0.4716
  757MOL0     H 2186  10.787   6.297   9.997  1.3441 -2.4661  1.0483
  757MOL0     H 2187  10.947   6.188   9.762 -1.2436 -3.1595 -0.8100
  757MOL0     H 2188  10.779   6.216   9.763  0.4827  0.6639 -0.7743
  757MOL0     H 2189  10.743   6.048   9.941 -2.0559  2.7733 -1.3074
  757MOL0     H 2190  10.930   6.037   9.942 -0.6096  2.7099  0.6670
  757MOL0     H 2191  10.929   5.931   9.730  2.0262  1.3813  3.0356
  757MOL0     H 2192  10.768   5.975   9.691  2.9811  1.7390 -2.1825
  757MOL0     H 2193  10.703   5.606   9.890 -0.6651  1.5582  4.2692
  757MOL0     H 2194  10.652   6.425   9.830 -0.1043  0.4393 -0.6571
  757MOL0     H 2195  10.538   6.628   9.803  0.5372 -0.6376 -1.0131
  758MOL0     O 2196   0.519   9.871   3.936  0.1603  0.4250 -0.5796
  758MOL0     C 2197   0.555   9.771   4.003  0.2396 -0.3332 -0.4768
  758MOL0     O 2198   0.484   9.655   4.006 -0.7219 -0.0542 -0.0174
  758MOL0     C 2199   0.383   9.632   3.917 -0.3087  0.2570 -0.1779
  758MOL0     C 2200   0.373   9.684   3.786 -0.9120  0.0013  0.7785
  758MOL0     C 2201   0.268   9.632   3.705  0.3437 -0.8380  0.0972
  758MOL0     C 2202   0.177   9.541   3.752  0.2120 -0.1889 -0.7158
  758MOL0     O 2203   0.070   9.498   3.684  0.3640  0.1200  0.6815
  758MOL0     C 2204   0.002   9.591   3.590 -0.4849  0.0536  0.2607
  758MOL0     C 2205  -0.135   9.532   3.541 -0.3313  0.3664  0.6126
  758MOL0     C 2206  -0.214   9.632   3.453 -0.6106 -0.7406 -0.0183
  758MOL0     C 2207  -0.338   9.579   3.385 -0.1910 -0.1571  0.1339
  758MOL0     C 2208  -0.468   9.603   3.465 -0.9498  0.3010  0.2646
  758MOL0     C 2209  -0.581   9.540   3.388  0.2285 -0.2937  0.4383
  758MOL0     C 2210  -0.714   9.594   3.452  0.3563  0.5460 -0.2247
  758MOL0     C 2211  -0.843   9.600   3.360 -0.5122  0.3103 -0.7521
  758MOL0     N 2212  -0.878   9.466   3.312  0.7585  0.4012  0.3373
  758MOL0     C 2213  -0.969   9.381   3.377  0.4689 -0.1357  0.6823
  758MOL0     C 2214  -0.964   9.261   3.312 -0.8735 -0.3725 -0.1432
  758MOL0     C 2215  -1.057   9.147   3.346 -0.5855  0.2844  0.2259
  758MOL0     C 2216  -1.202   9.173   3.305  0.5028 -0.2134  0.4258
  758MOL0     C 2217  -1.284   9.044   3.296 -0.3978 -0.6338 -0.9059
  758MOL0     C 2218  -1.430   9.084   3.263 -0.5719  0.9309 -0.2505
  758MOL0     O 2219  -1.507   8.964   3.277 -0.0833  0.2287 -0.3974
  758MOL0     C 2220  -1.647   8.976   3.259 -0.4262  0.3814 -0.5395
  758MOL0     C 2221  -1.725   8.875   3.320  0.1946  0.4175  1.0005
  758MOL0     C 2222  -1.869   8.889   3.329  0.7441 -0.8469 -0.6240
  758MOL0     C 2223  -1.936   8.772   3.394 -0.0565  0.5041 -0.1742
  758MOL0     C 2224  -1.936   8.999   3.269 -0.0928 -0.1045  0.5759
  758MOL0     C 2225  -2.085   9.025   3.274  0.6409 -0.1814  0.0789
  758MOL0     O 2226  -2.156   8.945   3.361  0.0775  0.1440  0.6644
  758MOL0     C 2227  -2.292   8.958   3.356  0.1992  0.5835 -0.1775
  758MOL0     C 2228  -2.375   9.061   3.408 -0.4092  0.9456 -0.5524
  758MOL0     C 2229  -2.512   9.063   3.389 -0.1270 -0.2963 -0.8140
  758MOL0     C 2230  -2.582   8.959   3.335  0.2132  0.3917  0.4543
  758MOL0     O 2231  -2.718   8.971   3.331 -0.2530  0.2980  0.0375
  758MOL0     C 2232  -2.787   8.922   3.207 -0.0120  0.7345 -0.7390
  758MOL0     C 2233  -2.789   9.033   3.100  0.5372 -0.7119  0.4223
  758MOL0     C 2234  -2.905   9.131   3.107  0.5900 -1.3813  0.0313
  758MOL0     C 2235  -3.021   9.078   3.013  0.3660  0.7743 -0.4045
  758MOL0     C 2236  -3.141   9.167   3.001 -0.3727  0.3121  0.3686
  758MOL0     C 2237  -3.224   9.184   3.123  0.2037  0.4653 -0.3266
  758MOL0     C 2238  -3.336   9.283   3.114 -0.1644 -0.1972 -0.0441
  758MOL0     C 2239  -3.446   9.246   3.014  0.4036 -0.4513  0.2956
  758MOL0    Cl 2240  -3.379   9.266   2.851  0.3194  0.0450  0.1877
  758MOL0     C 2241  -2.503   8.857   3.281 -0.3871  0.6454  0.0230
  758MOL0     C 2242  -2.361   8.851   3.296  1.0420  0.6547  0.7438
  758MOL0     O 2243  -2.137   9.107   3.190  0.0186 -0.0358 -0.1832
  758MOL0     C 2244  -1.859   9.093   3.210 -0.6413 -0.1028 -0.6217
  758MOL0     C 2245  -1.717   9.084   3.204 -0.4464 -0.3402 -0.1680
  758MOL0     N 2246  -0.857   9.275   3.224 -0.2036  0.8491  0.1877
  758MOL0     N 2247  -0.810   9.400   3.218 -0.9350  0.1348  0.4458
  758MOL0     C 2248   0.188   9.497   3.889 -0.6880  0.6500 -0.3085
  758MOL0     C 2249   0.293   9.534   3.963 -1.2878 -0.1894 -0.3084
  758MOL0     C 2250   0.684   9.774   4.058  0.3706  0.5899 -0.7308
  758MOL0     C 2251   0.749   9.645   4.081  0.9969 -0.2595 -0.2597
  758MOL0     C 2252   0.874   9.636   4.144  0.3045 -0.2983 -1.1233
  758MOL0     C 2253   0.938   9.751   4.180 -0.1661 -0.2422 -0.4494
  758MOL0     O 2254   1.042   9.758   4.259  0.4695  0.2560  0.0155
  758MOL0     C 2255   1.115   9.639   4.290  0.4670 -0.0585 -0.0628
  758MOL0     C 2256   1.200   9.604   4.170 -0.4366 -0.1103 -0.2439
  758MOL0     C 2257   1.329   9.688   4.141 -0.1623 -0.2605  0.2563
  758MOL0     C 2258   1.469   9.650   4.195 -0.2270 -0.1264  0.0063
  758MOL0     C 2259   1.469   9.621   4.341 -0.5542 -0.1985  0.7578
  758MOL0     C 2260   1.482   9.568   4.452 -0.1497  0.0898  0.3329
  758MOL0     C 2261   0.880   9.876   4.155  0.2782 -0.3809 -0.3253
  758MOL0     C 2262   0.755   9.888   4.087 -0.5525 -0.6306 -0.8693
  758MOL0     H 2263   0.451   9.744   3.739 -1.4220 -0.9077 -1.3141
  758MOL0     H 2264   0.262   9.655   3.599  0.0667 -1.0533  0.0644
  758MOL0     H 2265  -0.020   9.691   3.630 -0.5880 -0.3723  1.2944
  758MOL0     H 2266   0.062   9.604   3.500 -1.3863 -1.4184 -0.5831
  758MOL0     H 2267  -0.106   9.441   3.487  0.8913  0.6875  0.6838
  758MOL0     H 2268  -0.203   9.504   3.622 -3.4602  1.7279 -1.3803
  758MOL0     H 2269  -0.235   9.722   3.511  2.1379 -1.3059  2.0637
  758MOL0     H 2270  -0.137   9.658   3.381 -0.3307  0.9922  0.8692
  758MOL0     H 2271  -0.351   9.619   3.284  1.0676  1.3959  0.5670
  758MOL0     H 2272  -0.329   9.470   3.381  1.3252 -0.1246  1.6753
  758MOL0     H 2273  -0.460   9.562   3.566 -1.0993 -0.8288 -0.1698
  758MOL0     H 2274  -0.491   9.710   3.461  1.6485  0.9355  0.3944
  758MOL0     H 2275  -0.582   9.561   3.281 -1.5051  0.6602  0.6080
  758MOL0     H 2276  -0.600   9.432   3.394  0.0365 -0.3784 -1.3481
  758MOL0     H 2277  -0.736   9.534   3.541 -3.6644  2.0508  0.0053
  758MOL0     H 2278  -0.701   9.695   3.491  1.7344 -0.4230  2.0449
  758MOL0     H 2279  -0.814   9.658   3.272  1.3317 -0.3842 -0.6495
  758MOL0     H 2280  -0.923   9.652   3.413 -0.1193 -0.1871  0.3717
  758MOL0     H 2281  -1.033   9.398   3.464 -0.3666  1.8160 -0.2617
  758MOL0     H 2282  -1.022   9.052   3.305 -2.7592 -1.0026  1.2012
  758MOL0     H 2283  -1.056   9.138   3.455 -1.5017  0.0523  0.2206
  758MOL0     H 2284  -1.203   9.210   3.202  0.1029 -2.1880 -0.3240
  758MOL0     H 2285  -1.249   9.237   3.380  1.0941 -1.5552  2.0191
  758MOL0     H 2286  -1.268   8.995   3.393  2.5679  0.1185 -0.9341
  758MOL0     H 2287  -1.251   8.975   3.218 -2.3554 -1.5061 -1.0213
  758MOL0     H 2288  -1.433   9.114   3.158 -2.1497 -1.0367 -0.8161
  758MOL0     H 2289  -1.465   9.160   3.334  1.0273  0.2780  1.3427
  758MOL0     H 2290  -1.683   8.780   3.351 -2.9485 -2.3439 -2.3488
  758MOL0     H 2291  -2.006   8.719   3.329  1.2156  0.4219 -1.5184
  758MOL0     H 2292  -1.858   8.698   3.415 -0.1743  0.3268 -0.3595
  758MOL0     H 2293  -1.982   8.806   3.487  2.9373  2.4668  0.7590
  758MOL0     H 2294  -2.316   9.145   3.444 -1.5736  0.9558  1.4410
  758MOL0     H 2295  -2.562   9.146   3.438  3.1635  1.2874  0.1395
  758MOL0     H 2296  -2.738   8.832   3.168  1.1703  1.3673 -0.7519
  758MOL0     H 2297  -2.893   8.898   3.225  0.2440  0.2142  0.1199
  758MOL0     H 2298  -2.696   9.091   3.098  0.0547  0.0770 -0.7315
  758MOL0     H 2299  -2.788   8.979   3.005 -1.0147 -0.8227  0.4607
  758MOL0     H 2300  -2.870   9.227   3.069 -0.6475  0.4244  3.0435
  758MOL0     H 2301  -2.941   9.155   3.208  0.7212 -0.1108 -0.2048
  758MOL0     H 2302  -2.982   9.063   2.912 -0.3155  0.6113 -0.6477
  758MOL0     H 2303  -3.069   8.986   3.045  1.0988 -1.8914 -5.8050
  758MOL0     H 2304  -3.203   9.123   2.923  0.8808  0.3557 -0.6847
  758MOL0     H 2305  -3.115   9.268   2.966 -0.1194  0.3579  0.6829
  758MOL0     H 2306  -3.268   9.090   3.158  2.1865  0.3461  2.1117
  758MOL0     H 2307  -3.163   9.206   3.211 -0.8134 -0.3792  0.6246
  758MOL0     H 2308  -3.305   9.382   3.080 -2.4132  0.5646 -0.0704
  758MOL0     H 2309  -3.384   9.303   3.211  2.6315  2.7844  0.8918
  758MOL0     H 2310  -3.529   9.317   3.025 -0.0968 -1.0472  0.4272
  758MOL0     H 2311  -3.486   9.146   3.033  0.8697 -0.4192  1.5598
  758MOL0     H 2312  -2.555   8.766   3.254 -1.5184  1.2334  0.1218
  758MOL0     H 2313  -2.314   8.760   3.260 -0.7893 -0.7709  1.7588
  758MOL0     H 2314  -1.903   9.187   3.177  3.0497  1.9617 -0.2179
  758MOL0     H 2315  -1.657   9.159   3.154  1.9028 -1.7205  0.3849
  758MOL0     H 2316   0.111   9.428   3.925  0.0575  0.1094  0.2777
  758MOL0     H 2317   0.305   9.495   4.063 -0.2850 -0.4427 -0.5215
  758MOL0     H 2318   0.708   9.553   4.041 -1.8289  0.2382  1.2480
  758MOL0     H 2319   0.907   9.534   4.162 -0.2041  0.0252  2.5241
  758MOL0     H 2320   1.179   9.653   4.378 -2.0934  0.1194  1.8842
  758MOL0     H 2321   1.040   9.570   4.329 -1.0198  2.9283  2.9613
  758MOL0     H 2322   1.135   9.626   4.085 -2.2503 -1.6403  0.6655
  758MOL0     H 2323   1.220   9.496   4.176 -0.7798 -0.1248  1.1752
  758MOL0     H 2324   1.296   9.789   4.168 -0.7239 -0.7123  1.3156
  758MOL0     H 2325   1.358   9.699   4.036  0.4126 -1.5302  0.2643
  758MOL0     H 2326   1.545   9.726   4.177  2.1940 -2.7563 -1.6719
  758MOL0     H 2327   1.500   9.559   4.143  3.2381 -0.5962  2.5727
  758MOL0     H 2328   1.470   9.522   4.548 -1.2657  0.7856  0.5477
  758MOL0     H 2329   0.925   9.969   4.188  2.0215 -0.7542 -1.5267
  758MOL0     H 2330   0.715   9.986   4.066  0.6739  0.0186 -0.2826
  759MOL0     O 2331   2.886   6.390   8.739 -0.6865  0.6065  0.1313
  759MOL0     C 2332   2.848   6.371   8.853  0.5541  0.2086  0.1690
  759MOL0     O 2333   2.757   6.451   8.914 -0.1392 -0.6235 -0.0610
  759MOL0     C 2334   2.706   6.559   8.845 -0.6132  0.4136  1.0447
  759MOL0     C 2335   2.571   6.582   8.844  0.4287 -0.6079 -0.7711
  759MOL0     C 2336   2.515   6.698   8.779 -0.5119  0.4254  0.8150
  759MOL0     C 2337   2.597   6.798   8.729 -0.3157  1.2520  0.0311
  759MOL0     O 2338   2.557   6.908   8.658  0.0455  0.9257  0.3165
  759MOL0     C 2339   2.416   6.945   8.649  0.8880 -0.0286  0.0496
  759MOL0     C 2340   2.408   7.078   8.573  0.0890 -0.1166  0.2141
  759MOL0     C 2341   2.290   7.064   8.473  0.2058  0.3034 -0.1524
  759MOL0     C 2342   2.272   7.198   8.405 -0.0924 -0.2220 -0.7870
  759MOL0     C 2343   2.171   7.189   8.292  0.5959 -0.6764 -0.5023
  759MOL0     C 2344   2.201   7.305   8.192 -0.1305 -0.3175 -0.1956
  759MOL0     C 2345   2.092   7.339   8.095  0.4948  0.3527 -0.9443
  759MOL0     C 2346   2.136   7.428   7.988  0.6771 -0.1580 -0.2671
  759MOL0     N 2347   2.248   7.377   7.912  0.6511 -0.6358 -0.5820
  759MOL0     C 2348   2.231   7.281   7.814  0.0448 -0.8399  0.0793
  759MOL0     C 2349   2.340   7.299   7.730  0.6576  0.3937  0.2009
  759MOL0     C 2350   2.359   7.236   7.591 -0.3298  0.6418  0.9949
  759MOL0     C 2351   2.303   7.340   7.485  0.4714 -0.5961 -1.0792
  759MOL0     C 2352   2.355   7.316   7.343  0.5776 -0.8650  0.3530
  759MOL0     C 2353   2.338   7.441   7.256  0.2473 -0.2787  0.3145
  759MOL0     O 2354   2.424   7.549   7.291 -0.4133 -0.6070  0.3328
  759MOL0     C 2355   2.545   7.511   7.248  0.5320  0.6780 -0.4851
  759MOL0     C 2356   2.633   7.449   7.339 -0.5842 -0.6632 -1.1424
  759MOL0     C 2357   2.773   7.439   7.308 -0.1811  0.3259  0.2841
  759MOL0     C 2358   2.862   7.408   7.425  0.1144 -0.6276 -0.1626
  759MOL0     C 2359   2.817   7.463   7.170 -0.0480 -0.2251  0.4390
  759MOL0     C 2360   2.962   7.456   7.134  0.4250 -0.1768  0.3312
  759MOL0     O 2361   2.978   7.478   7.005  0.0522  1.1439  0.1479
  759MOL0     C 2362   3.109   7.471   6.948  0.0454 -0.4110  0.6370
  759MOL0     C 2363   3.178   7.585   6.898 -0.3029  0.0966  0.1063
  759MOL0     C 2364   3.304   7.561   6.829 -0.6739 -0.5673 -0.3462
  759MOL0     C 2365   3.348   7.430   6.806 -0.7634 -0.1723 -0.1809
  759MOL0     O 2366   3.462   7.416   6.732 -0.1364 -0.7583 -0.0734
  759MOL0     C 2367   3.509   7.285   6.689  0.1944  0.6689 -0.4595
  759MOL0     C 2368   3.631   7.275   6.603 -0.3776  0.0726  0.3519
  759MOL0     C 2369   3.617   7.354   6.467 -0.1707 -0.3568 -0.2254
  759MOL0     C 2370   3.545   7.273   6.359  0.3996  0.6212 -1.4668
  759MOL0     C 2371   3.567   7.322   6.221 -0.1147  0.4868 -0.1037
  759MOL0     C 2372   3.713   7.298   6.182 -0.4309 -0.2576 -0.6569
  759MOL0     C 2373   3.740   7.317   6.032  0.5595 -0.5649 -0.2220
  759MOL0     C 2374   3.894   7.303   6.007 -0.5951 -0.1629  0.6394
  759MOL0    Cl 2375   3.933   7.313   5.835 -0.5824 -0.2685 -0.2267
  759MOL0     C 2376   3.278   7.321   6.862 -0.2264 -0.2544  0.0300
  759MOL0     C 2377   3.164   7.348   6.937  0.2178  0.4569  0.4912
  759MOL0     O 2378   3.043   7.412   7.210  0.3919  0.1117 -0.2321
  759MOL0     C 2379   2.722   7.513   7.077  1.1366 -0.3347  0.6226
  759MOL0     C 2380   2.596   7.540   7.118  0.1820 -0.3434 -0.8180
  759MOL0     N 2381   2.417   7.401   7.778  0.2181 -0.2332 -0.4969
  759MOL0     N 2382   2.362   7.447   7.887 -0.9195 -0.0096  0.5311
  759MOL0     C 2383   2.733   6.775   8.719  0.5153 -0.0224 -0.0910
  759MOL0     C 2384   2.782   6.656   8.779  0.4818 -0.5207  0.3301
  759MOL0     C 2385   2.897   6.252   8.915 -0.1611  0.1693 -0.4141
  759MOL0     C 2386   2.828   6.206   9.024 -0.3104 -0.4091 -0.0237
  759MOL0     C 2387   2.857   6.074   9.076 -0.3090  0.2185 -0.1913
  759MOL0     C 2388   2.949   5.983   9.023  0.4686 -0.3241  0.6001
  759MOL0     O 2389   2.973   5.858   9.075 -0.3006  0.3412  0.0350
  759MOL0     C 2390   2.916   5.819   9.200 -0.4810  0.5253  0.6416
  759MOL0     C 2391   2.774   5.777   9.184 -0.2684  0.2622 -0.4740
  759MOL0     C 2392   2.760   5.655   9.088 -0.0072 -0.1626  0.4551
  759MOL0     C 2393   2.800   5.523   9.151  0.3335 -0.8885 -0.3716
  759MOL0     C 2394   2.695   5.479   9.239 -0.0788 -0.4237 -0.2779
  759MOL0     C 2395   2.610   5.450   9.323 -0.0171 -0.2781 -0.6715
  759MOL0     C 2396   3.022   6.032   8.916 -0.0892  0.4016  0.1958
  759MOL0     C 2397   2.998   6.162   8.869  0.1258 -0.3395  0.7390
  759MOL0     H 2398   2.508   6.515   8.901  0.3098 -0.7532 -1.0735
  759MOL0     H 2399   2.410   6.712   8.801  0.4592  1.0607  6.8876
  759MOL0     H 2400   2.355   6.872   8.595 -0.4087  2.3281 -1.8798
  759MOL0     H 2401   2.375   6.953   8.750 -2.0212  0.6060 -1.0725
  759MOL0     H 2402   2.402   7.163   8.641  0.6312  0.2165 -0.1443
  759MOL0     H 2403   2.501   7.094   8.517 -0.4757 -0.9594 -1.0092
  759MOL0     H 2404   2.314   6.990   8.396 -0.1039 -1.2963  1.2345
  759MOL0     H 2405   2.198   7.022   8.514 -0.5110  0.2986 -1.6854
  759MOL0     H 2406   2.248   7.271   8.482 -1.5378 -1.3695 -0.0989
  759MOL0     H 2407   2.370   7.224   8.364 -0.0325 -0.5188 -0.8367
  759MOL0     H 2408   2.196   7.103   8.230  4.2746  0.3437 -0.6572
  759MOL0     H 2409   2.071   7.191   8.336  0.4987  0.3932 -0.7429
  759MOL0     H 2410   2.220   7.392   8.257 -1.3667 -0.0994 -0.0966
  759MOL0     H 2411   2.291   7.274   8.138  1.5925  0.3698  2.0917
  759MOL0     H 2412   2.042   7.250   8.055 -1.0285  0.0418  1.4792
  759MOL0     H 2413   2.026   7.400   8.157 -0.2878  0.0643 -1.4771
  759MOL0     H 2414   2.155   7.525   8.035  1.5915 -1.2390  1.7446
  759MOL0     H 2415   2.058   7.437   7.912  1.7806  0.3174 -1.3633
  759MOL0     H 2416   2.144   7.217   7.802 -0.9590  0.7633 -1.9167
  759MOL0     H 2417   2.463   7.231   7.557 -1.1040  3.3234 -2.4725
  759MOL0     H 2418   2.302   7.144   7.576  0.6560  0.3596 -1.5452
  759MOL0     H 2419   2.329   7.442   7.514  1.3854 -0.3699 -2.5748
  759MOL0     H 2420   2.195   7.328   7.500 -0.0219  3.9477  0.6522
  759MOL0     H 2421   2.284   7.244   7.302 -2.0090  0.2371  2.6245
  759MOL0     H 2422   2.454   7.270   7.331  0.0855 -1.5124 -1.5073
  759MOL0     H 2423   2.236   7.477   7.270  1.3011  3.6103 -0.6934
  759MOL0     H 2424   2.357   7.401   7.156  1.6352 -0.7273  0.7339
  759MOL0     H 2425   2.593   7.424   7.437 -2.6429  0.5725 -1.6020
  759MOL0     H 2426   2.808   7.424   7.518  1.5857  1.7433  0.3702
  759MOL0     H 2427   2.897   7.305   7.416 -0.8973 -0.8439 -2.1940
  759MOL0     H 2428   2.937   7.488   7.431 -0.5726  0.0158 -0.0592
  759MOL0     H 2429   3.131   7.683   6.906  0.3936  0.3204  1.7866
  759MOL0     H 2430   3.352   7.643   6.776 -1.4103 -0.9778 -1.6654
  759MOL0     H 2431   3.540   7.232   6.779  1.2047  0.1778 -1.0754
  759MOL0     H 2432   3.429   7.232   6.637  0.0877 -0.6266  0.9745
  759MOL0     H 2433   3.711   7.320   6.662  1.1829 -0.7311 -1.0847
  759MOL0     H 2434   3.661   7.174   6.577  1.3121  0.8022 -0.6483
  759MOL0     H 2435   3.722   7.381   6.449  0.4144 -1.5495  1.2108
  759MOL0     H 2436   3.561   7.443   6.499  1.5096 -0.4904  3.6291
  759MOL0     H 2437   3.586   7.171   6.352  2.9516  1.5679 -1.1781
  759MOL0     H 2438   3.439   7.262   6.384  0.2241  2.9871 -0.9859
  759MOL0     H 2439   3.545   7.429   6.213  0.4434  0.7128  1.0405
  759MOL0     H 2440   3.502   7.261   6.158  0.0822 -3.5669  3.1079
  759MOL0     H 2441   3.789   7.348   6.243  0.6385 -2.5472 -0.0065
  759MOL0     H 2442   3.728   7.190   6.192 -0.4915 -0.0785  1.9436
  759MOL0     H 2443   3.699   7.414   6.002 -1.2533  1.2593  6.4417
  759MOL0     H 2444   3.680   7.243   5.978 -1.3776  1.0875 -0.4738
  759MOL0     H 2445   3.912   7.201   6.042  0.4657 -0.2049  0.0090
  759MOL0     H 2446   3.954   7.370   6.068  0.2882 -1.2180  0.9477
  759MOL0     H 2447   3.313   7.219   6.849 -3.0840 -1.1586 -1.3082
  759MOL0     H 2448   3.097   7.264   6.954 -0.4997  0.0924 -3.2606
  759MOL0     H 2449   2.748   7.531   6.974  3.2970  1.5617  1.4094
  759MOL0     H 2450   2.526   7.585   7.049 -1.1793 -3.5187 -1.6964
  759MOL0     H 2451   2.800   6.833   8.657 -1.1462  2.2103  0.0606
  759MOL0     H 2452   2.890   6.647   8.794  0.1197 -0.7725  3.3553
  759MOL0     H 2453   2.765   6.281   9.070  0.2695 -0.6432  1.2073
  759MOL0     H 2454   2.783   6.042   9.149  1.0109 -1.9848  0.2869
  759MOL0     H 2455   2.981   5.739   9.238  0.4910  0.1728 -1.5642
  759MOL0     H 2456   2.911   5.904   9.268 -0.3708  0.2571  0.9881
  759MOL0     H 2457   2.704   5.853   9.150 -2.9223 -2.2455 -0.9620
  759MOL0     H 2458   2.727   5.754   9.280  0.4409 -3.0161 -0.7826
  759MOL0     H 2459   2.820   5.646   8.997 -0.4916 -0.5480  0.1699
  759MOL0     H 2460   2.662   5.651   9.039  0.0030  1.7264  0.2074
  759MOL0     H 2461   2.890   5.535   9.212 -0.7878  0.7805  1.0301
  759MOL0     H 2462   2.819   5.440   9.081 -0.2671 -1.0261 -0.3763
  759MOL0     H 2463   2.546   5.417   9.402  1.8489 -0.2024  0.9565
  759MOL0     H 2464   3.090   5.967   8.861 -0.6743 -1.3870  1.4766
  759MOL0     H 2465   3.045   6.205   8.781 -0.8155 -1.6230 -0.4437
  760MOL0     O 2466   2.548   5.555   9.630  0.3208 -0.1632 -0.2055
  760MOL0     C 2467   2.587   5.551   9.746  0.4150  0.1135  0.0828
  760MOL0     O 2468   2.536   5.626   9.849 -0.5975 -0.5533 -0.3571
  760MOL0     C 2469   2.410   5.671   9.846 -0.1041 -0.0325 -0.1115
  760MOL0     C 2470   2.394   5.794   9.922 -0.2372 -0.8320  0.9440
  760MOL0     C 2471   2.265   5.860   9.925  0.6961 -0.3369 -0.7522
  760MOL0     C 2472   2.148   5.792   9.891 -0.7457 -0.0582 -0.0425
  760MOL0     O 2473   2.017   5.832   9.913  0.4591 -0.0978  0.2645
  760MOL0     C 2474   1.979   5.953   9.838 -0.6117 -0.0525 -0.3894
  760MOL0     C 2475   1.830   5.956   9.819 -0.5777  0.1813 -0.9729
  760MOL0     C 2476   1.793   6.105   9.787  0.2056  0.1410  0.8135
  760MOL0     C 2477   1.648   6.111   9.766 -0.0380 -0.0370 -0.6185
  760MOL0     C 2478   1.615   6.245   9.709  0.1727 -0.7255 -0.7758
  760MOL0     C 2479   1.468   6.245   9.666  0.3479 -0.2178 -0.8066
  760MOL0     C 2480   1.413   6.386   9.641 -0.7103  0.0050 -0.4912
  760MOL0     C 2481   1.269   6.386   9.618  0.4193  1.0162 -1.3323
  760MOL0     N 2482   1.220   6.518   9.585 -0.2010 -0.5130  0.2170
  760MOL0     C 2483   1.232   6.574   9.457  0.1060 -0.4255 -1.4815
  760MOL0     C 2484   1.201   6.712   9.484 -1.1617 -0.5568  0.1227
  760MOL0     C 2485   1.206   6.830   9.391 -0.3950 -0.6465 -1.0041
  760MOL0     C 2486   1.352   6.870   9.352 -0.1385 -0.0907  0.6076
  760MOL0     C 2487   1.359   6.988   9.260 -0.9460  0.2703 -0.2890
  760MOL0     C 2488   1.331   7.118   9.332  0.5054  0.1957 -0.4206
  760MOL0     O 2489   1.188   7.125   9.341  0.9650  0.1537 -0.7400
  760MOL0     C 2490   1.127   7.233   9.407 -0.4789 -0.5634  0.1442
  760MOL0     C 2491   1.186   7.362   9.405  1.0852 -0.1353  0.6045
  760MOL0     C 2492   1.136   7.470   9.476 -0.4067  0.0112 -0.7375
  760MOL0     C 2493   1.210   7.596   9.460 -0.1261  0.6612  0.4249
  760MOL0     C 2494   1.027   7.444   9.564 -0.3561 -0.0259 -0.4198
  760MOL0     C 2495   0.983   7.538   9.668  0.1056  0.1063 -0.2258
  760MOL0     O 2496   0.935   7.492   9.786  0.0599 -0.1663  0.7787
  760MOL0     C 2497   0.886   7.570   9.884  0.5633 -1.1444 -0.1084
  760MOL0     C 2498   0.786   7.673   9.869 -0.3747 -0.5336  0.0441
  760MOL0     C 2499   0.729   7.739   9.982 -0.3197 -0.0119  0.7545
  760MOL0     C 2500   0.764   7.693  10.109  0.5534 -0.1296 -0.9675
  760MOL0     O 2501   0.692   7.725  10.223 -0.1813  0.3517 -0.0814
  760MOL0     C 2502   0.607   7.839  10.226 -0.6468 -0.2268 -0.8822
  760MOL0     C 2503   0.696   7.965  10.230  0.1844  0.2345  0.1529
  760MOL0     C 2504   0.607   8.081  10.278 -1.5467  0.1921  0.0833
  760MOL0     C 2505   0.486   8.119  10.199 -0.2574  0.6310  0.8471
  760MOL0     C 2506   0.425   8.243  10.261 -0.1327 -0.3839  1.1204
  760MOL0     C 2507   0.290   8.269  10.200  0.2151  0.0347  0.3704
  760MOL0     C 2508   0.231   8.413  10.243  0.3472  0.6251  0.3342
  760MOL0     C 2509   0.086   8.440  10.218 -0.0435 -0.0464 -0.1629
  760MOL0    Cl 2510   0.053   8.611  10.200 -0.3982  0.4828  0.4248
  760MOL0     C 2511   0.853   7.589  10.127  0.3553 -0.0736 -0.0854
  760MOL0     C 2512   0.917   7.530  10.020  0.0832 -0.0113  0.9271
  760MOL0     O 2513   0.996   7.653   9.635  0.0182  0.1143 -1.1470
  760MOL0     C 2514   0.972   7.315   9.561 -0.8370  0.0454 -0.4074
  760MOL0     C 2515   1.025   7.215   9.486  0.4697  0.4247  0.3546
  760MOL0     N 2516   1.156   6.720   9.616  0.0978  0.6915 -0.4571
  760MOL0     N 2517   1.170   6.609   9.679  0.6539  0.0049 -0.5688
  760MOL0     C 2518   2.176   5.665   9.829  0.8247 -0.1112  0.3571
  760MOL0     C 2519   2.296   5.609   9.796 -0.3476  0.7527  0.2246
  760MOL0     C 2520   2.711   5.474   9.771  0.8407  0.0689  0.6212
  760MOL0     C 2521   2.804   5.438   9.677 -0.9976  0.3466 -0.5122
  760MOL0     C 2522   2.920   5.363   9.713  0.4354 -0.4872 -0.8696
  760MOL0     C 2523   2.943   5.335   9.847  0.3520  0.6002  0.2458
  760MOL0     O 2524   3.060   5.270   9.886 -0.0799  0.0956  0.5638
  760MOL0     C 2525   3.092   5.233  10.024  0.7879 -0.5288  0.1399
  760MOL0     C 2526   3.214   5.140  10.021 -1.0002 -0.3171 -0.0077
  760MOL0     C 2527   3.180   5.000   9.955  0.6072 -0.6419 -0.2395
  760MOL0     C 2528   3.305   4.925   9.904  0.1719 -0.2093  0.5109
  760MOL0     C 2529   3.381   5.003   9.804 -0.3178  0.6544 -0.2756
  760MOL0     C 2530   3.437   5.060   9.711 -0.9195  0.1129 -0.1296
  760MOL0     C 2531   2.845   5.367   9.934 -0.8422 -0.0822 -0.8585
  760MOL0     C 2532   2.736   5.444   9.903  0.3959 -0.3415  0.0314
  760MOL0     H 2533   2.490   5.831   9.958  0.7014 -0.3707 -1.7646
  760MOL0     H 2534   2.243   5.959   9.964  1.8077  0.3413 -1.7799
  760MOL0     H 2535   2.021   6.036   9.895 -0.0397 -1.6397  1.6217
  760MOL0     H 2536   2.017   5.960   9.736 -0.2162  0.5803 -0.2002
  760MOL0     H 2537   1.805   5.889   9.736 -1.5370 -2.2602  1.1484
  760MOL0     H 2538   1.771   5.931   9.908  2.3373 -0.7250  0.8245
  760MOL0     H 2539   1.824   6.168   9.871 -1.5057 -0.2477  1.7858
  760MOL0     H 2540   1.848   6.145   9.701 -1.3367 -1.6902 -1.1240
  760MOL0     H 2541   1.614   6.030   9.700  0.9366 -1.3587  0.4481
  760MOL0     H 2542   1.600   6.102   9.864  2.3155 -0.1171  0.5857
  760MOL0     H 2543   1.631   6.319   9.788 -0.0920 -1.1685 -0.3019
  760MOL0     H 2544   1.677   6.274   9.623 -1.1214  1.5839 -0.9942
  760MOL0     H 2545   1.451   6.175   9.583 -1.2661 -3.0119  1.6588
  760MOL0     H 2546   1.412   6.219   9.756 -1.0949  3.6789 -0.4154
  760MOL0     H 2547   1.428   6.447   9.731  1.8031 -0.2991 -0.6391
  760MOL0     H 2548   1.467   6.434   9.559 -3.3177 -0.4412 -2.6263
  760MOL0     H 2549   1.202   6.346   9.694  0.5723 -1.2569 -2.3120
  760MOL0     H 2550   1.260   6.317   9.534 -0.6362 -1.8423  0.9793
  760MOL0     H 2551   1.269   6.523   9.369 -0.6485 -2.5248 -0.6316
  760MOL0     H 2552   1.149   6.799   9.303  1.8261 -1.4528 -2.2325
  760MOL0     H 2553   1.154   6.917   9.432  1.7952  1.4889 -2.5335
  760MOL0     H 2554   1.402   6.796   9.289 -0.7970  1.9683 -2.5897
  760MOL0     H 2555   1.411   6.888   9.442  0.5587 -0.4690  0.2373
  760MOL0     H 2556   1.295   6.966   9.174 -2.8566 -0.9466  1.3656
  760MOL0     H 2557   1.465   6.983   9.232 -1.1481  1.0949 -1.2201
  760MOL0     H 2558   1.387   7.204   9.295  5.2023 -1.8615  1.0603
  760MOL0     H 2559   1.353   7.109   9.439  0.2087 -1.8599 -0.4991
  760MOL0     H 2560   1.265   7.381   9.334 -0.0294  1.6074 -0.2258
  760MOL0     H 2561   1.279   7.597   9.376  0.3146 -3.7679  0.5010
  760MOL0     H 2562   1.138   7.671   9.427  0.5691  1.1290 -0.0476
  760MOL0     H 2563   1.259   7.630   9.552  1.0829  1.5228 -0.5088
  760MOL0     H 2564   0.747   7.703   9.773  0.6087 -0.8429 -0.4617
  760MOL0     H 2565   0.660   7.822   9.970  1.3658  1.1498 -1.8233
  760MOL0     H 2566   0.537   7.844  10.142 -0.3818 -0.2690 -1.1053
  760MOL0     H 2567   0.536   7.842  10.309 -2.4073 -1.2519 -2.2928
  760MOL0     H 2568   0.797   7.953  10.271  0.1012 -3.1461 -0.2885
  760MOL0     H 2569   0.724   7.974  10.125  0.1629  2.3289  0.2831
  760MOL0     H 2570   0.677   8.165  10.268 -1.0246 -0.1598  0.6372
  760MOL0     H 2571   0.573   8.067  10.381 -1.6904  0.9113  0.1400
  760MOL0     H 2572   0.496   8.140  10.092  3.2185  1.3408  1.1853
  760MOL0     H 2573   0.424   8.030  10.210  4.4111 -3.1039 -0.0017
  760MOL0     H 2574   0.492   8.329  10.255  2.2752 -2.2447 -0.8326
  760MOL0     H 2575   0.405   8.222  10.367 -0.1370 -0.8993  1.0208
  760MOL0     H 2576   0.298   8.279  10.091  1.1469  3.2637  0.6181
  760MOL0     H 2577   0.218   8.195  10.235  1.1287 -1.1783 -0.2279
  760MOL0     H 2578   0.299   8.486  10.200 -0.7054  1.0135 -0.7168
  760MOL0     H 2579   0.260   8.429  10.348  0.6947  0.0742  0.3252
  760MOL0     H 2580   0.016   8.395  10.289 -2.2725  3.0958 -0.1902
  760MOL0     H 2581   0.054   8.399  10.122 -0.4576  2.0906 -0.9748
  760MOL0     H 2582   0.869   7.549  10.227 -0.0649 -0.8422 -0.3138
  760MOL0     H 2583   0.982   7.443  10.019  1.4761  0.8954 -2.1820
  760MOL0     H 2584   0.902   7.290   9.641  1.7796 -0.9819  1.6854
  760MOL0     H 2585   0.985   7.114   9.480  4.7277 -1.3767 -1.9368
  760MOL0     H 2586   2.088   5.616   9.788  2.2199 -1.8903 -0.6390
  760MOL0     H 2587   2.298   5.509   9.753  1.8744  1.3958 -1.3498
  760MOL0     H 2588   2.790   5.469   9.574 -0.1838  2.5544 -0.0117
  760MOL0     H 2589   2.987   5.331   9.634 -0.1968 -2.9249 -0.4907
  760MOL0     H 2590   3.117   5.318  10.089  1.0103 -0.1384 -0.4401
  760MOL0     H 2591   3.011   5.182  10.076  0.6357  1.7872  2.4101
  760MOL0     H 2592   3.238   5.104  10.122 -0.8517 -0.5067 -0.1081
  760MOL0     H 2593   3.300   5.194   9.979 -0.0081  0.6341  3.0276
  760MOL0     H 2594   3.107   5.000   9.874 -2.3370  0.2381  2.2484
  760MOL0     H 2595   3.129   4.939  10.030 -0.2474  1.4572  0.9718
  760MOL0     H 2596   3.282   4.829   9.857  2.1912 -1.1555  1.2962
  760MOL0     H 2597   3.368   4.896   9.989  0.9901 -1.3566 -0.4466
  760MOL0     H 2598   3.504   5.093   9.634  3.7150 -2.9913  2.1120
  760MOL0     H 2599   2.847   5.324  10.034  2.1312 -1.1705 -1.2833
  760MOL0     H 2600   2.670   5.487   9.978  0.2600 -0.7665  0.1576
  761MOL0     O 2601   5.253   5.554   4.559 -0.5138 -0.1149  0.3406
  761MOL0     C 2602   5.283   5.441   4.522 -0.5279 -0.1617 -0.0644
  761MOL0     O 2603   5.195   5.340   4.488 -1.5615 -0.9361 -0.2410
  761MOL0     C 2604   5.064   5.344   4.504 -1.0148  0.3634  0.2873
  761MOL0     C 2605   5.023   5.345   4.633 -0.0359  0.2217 -1.0631
  761MOL0     C 2606   4.883   5.350   4.650 -0.0246 -0.7778  0.0721
  761MOL0     C 2607   4.794   5.346   4.541 -0.5155  0.1820 -0.0044
  761MOL0     O 2608   4.655   5.352   4.551 -0.1587 -0.2989 -0.9509
  761MOL0     C 2609   4.593   5.416   4.668 -0.1566  0.7102  0.6339
  761MOL0     C 2610   4.451   5.469   4.631 -1.5677  0.0782  0.0952
  761MOL0     C 2611   4.466   5.598   4.547 -0.1056 -0.3899 -0.5815
  761MOL0     C 2612   4.344   5.619   4.464 -0.3027 -0.2840 -0.1442
  761MOL0     C 2613   4.328   5.765   4.422  0.5483 -0.2530 -0.1484
  761MOL0     C 2614   4.430   5.817   4.324 -0.7617  0.0539 -0.1258
  761MOL0     C 2615   4.425   5.963   4.339  0.2953 -0.0582  0.4506
  761MOL0     C 2616   4.306   6.043   4.277 -0.6925 -0.6884 -0.2929
  761MOL0     N 2617   4.251   6.145   4.373 -0.4384 -0.1867 -0.0532
  761MOL0     C 2618   4.137   6.138   4.455  0.1654 -0.0694 -0.1228
  761MOL0     C 2619   4.143   6.245   4.541 -0.2400  0.0228 -0.0219
  761MOL0     C 2620   4.046   6.269   4.654  0.1977 -0.1286 -1.0517
  761MOL0     C 2621   3.941   6.371   4.624  0.1569  0.4380  0.7357
  761MOL0     C 2622   3.802   6.349   4.693  0.4431  0.4139  0.1611
  761MOL0     C 2623   3.678   6.422   4.631 -0.4938 -0.4781  0.0657
  761MOL0     O 2624   3.601   6.458   4.739 -0.0295  0.1249 -0.1662
  761MOL0     C 2625   3.472   6.488   4.723 -1.0912 -0.6098 -0.9977
  761MOL0     C 2626   3.405   6.489   4.600  0.6658 -0.3247  0.0869
  761MOL0     C 2627   3.267   6.516   4.588 -0.1852  1.0175  1.2174
  761MOL0     C 2628   3.212   6.536   4.443 -0.5845  0.4425 -0.0121
  761MOL0     C 2629   3.190   6.541   4.705  0.0107 -0.2440  0.0878
  761MOL0     C 2630   3.040   6.576   4.712 -0.6556 -0.5151 -0.4957
  761MOL0     O 2631   2.984   6.561   4.837 -0.2546 -0.8433 -0.2393
  761MOL0     C 2632   2.848   6.578   4.857 -0.7350 -0.3851  0.5685
  761MOL0     C 2633   2.801   6.708   4.863 -0.0500 -0.0685  0.1653
  761MOL0     C 2634   2.663   6.733   4.872 -0.5485 -0.0843  0.4950
  761MOL0     C 2635   2.566   6.630   4.883 -0.0781  0.0594  1.4683
  761MOL0     O 2636   2.446   6.666   4.920 -0.9043 -0.2841 -0.4993
  761MOL0     C 2637   2.344   6.570   4.934 -0.5100  0.7935 -0.3446
  761MOL0     C 2638   2.214   6.641   4.942  0.2627  0.4697  0.7763
  761MOL0     C 2639   2.160   6.711   4.809 -1.0265  0.7936  0.1041
  761MOL0     C 2640   2.032   6.786   4.815 -0.1389  0.4840  0.0523
  761MOL0     C 2641   1.915   6.689   4.839  0.1151 -0.0967  0.1264
  761MOL0     C 2642   1.792   6.762   4.880  0.7272 -1.1404  0.1925
  761MOL0     C 2643   1.663   6.676   4.891 -0.8528  0.6563  0.0448
  761MOL0     C 2644   1.542   6.757   4.947 -0.5134  0.1444 -0.3717
  761MOL0    Cl 2645   1.514   6.926   4.885 -0.6311 -0.1887  0.0816
  761MOL0     C 2646   2.622   6.499   4.866  0.2994  0.8149  0.8575
  761MOL0     C 2647   2.756   6.471   4.842 -0.5568 -0.1466  0.6180
  761MOL0     O 2648   2.975   6.594   4.607 -0.1577  0.0108  0.5352
  761MOL0     C 2649   3.254   6.530   4.824 -0.1242  0.2903  0.4585
  761MOL0     C 2650   3.391   6.504   4.838  1.0403  0.4458  0.8318
  761MOL0     N 2651   4.267   6.312   4.515 -0.1847  0.0201 -0.4121
  761MOL0     N 2652   4.322   6.255   4.411 -0.4894  0.1703 -0.4172
  761MOL0     C 2653   4.844   5.346   4.417  0.9672 -0.0095  0.0056
  761MOL0     C 2654   4.984   5.342   4.403 -0.5093 -0.1371  1.0524
  761MOL0     C 2655   5.421   5.423   4.474 -0.1800 -0.7240 -0.0640
  761MOL0     C 2656   5.476   5.292   4.437  0.5454  0.0764  0.5428
  761MOL0     C 2657   5.612   5.275   4.399  0.2995 -0.4030  0.3001
  761MOL0     C 2658   5.701   5.381   4.390  0.2215 -0.8549  0.6900
  761MOL0     O 2659   5.840   5.359   4.356  1.0605 -0.3227  0.2392
  761MOL0     C 2660   5.915   5.284   4.454  0.4972 -1.1280  0.1311
  761MOL0     C 2661   6.022   5.356   4.547 -0.4249 -0.1312  0.8399
  761MOL0     C 2662   6.121   5.450   4.476 -0.2194  0.7692  0.8890
  761MOL0     C 2663   6.249   5.469   4.560 -0.4678  0.7957  0.1121
  761MOL0     C 2664   6.331   5.350   4.572  0.3953  0.4600 -0.2588
  761MOL0     C 2665   6.396   5.245   4.556  0.3483 -0.5681 -0.0458
  761MOL0     C 2666   5.653   5.509   4.420  0.4697 -0.1460 -0.3733
  761MOL0     C 2667   5.514   5.528   4.454  0.5110  0.5810 -0.0534
  761MOL0     H 2668   5.092   5.360   4.715  4.0856 -1.0963 -3.9836
  761MOL0     H 2669   4.840   5.353   4.750 -1.2395 -0.4445 -0.4409
  761MOL0     H 2670   4.590   5.350   4.755  0.3153 -1.1731 -0.6927
  761MOL0     H 2671   4.651   5.503   4.698  0.5601  0.7981 -0.8988
  761MOL0     H 2672   4.398   5.386   4.583 -1.6455  1.6087 -2.6511
  761MOL0     H 2673   4.403   5.502   4.723  2.0501  2.7960  1.2088
  761MOL0     H 2674   4.484   5.683   4.613 -1.5878  0.2131 -0.9174
  761MOL0     H 2675   4.552   5.582   4.481  0.4749 -2.1035  0.5130
  761MOL0     H 2676   4.331   5.559   4.374 -1.9792 -2.1637  1.2442
  761MOL0     H 2677   4.244   5.604   4.506 -1.2371 -1.3076 -2.5687
  761MOL0     H 2678   4.227   5.777   4.381  0.0165 -0.5734  1.0195
  761MOL0     H 2679   4.325   5.828   4.511 -1.3733 -1.4784  0.7355
  761MOL0     H 2680   4.527   5.776   4.354 -1.5675 -1.8320  0.0002
  761MOL0     H 2681   4.403   5.793   4.220 -0.6323 -1.6103  0.1946
  761MOL0     H 2682   4.444   5.980   4.446  4.1070 -0.3578 -0.0559
  761MOL0     H 2683   4.514   6.004   4.290 -0.4317  0.0673 -0.8060
  761MOL0     H 2684   4.224   5.977   4.248 -1.2927  0.6249 -1.6720
  761MOL0     H 2685   4.336   6.085   4.181 -2.6155  0.0551 -0.5970
  761MOL0     H 2686   4.061   6.061   4.450 -0.0169  0.0032  1.1592
  761MOL0     H 2687   4.002   6.176   4.688 -2.1099  1.0147 -0.7180
  761MOL0     H 2688   4.107   6.296   4.741 -1.3701 -1.6504  0.5931
  761MOL0     H 2689   3.931   6.377   4.515  0.6894 -1.1463  0.5801
  761MOL0     H 2690   3.981   6.471   4.644 -1.6386  1.9426 -2.2799
  761MOL0     H 2691   3.817   6.380   4.797  2.5983 -2.7237  0.8951
  761MOL0     H 2692   3.778   6.243   4.695  3.1792 -0.4159 -3.0132
  761MOL0     H 2693   3.626   6.357   4.560  1.5523 -1.1370 -0.9073
  761MOL0     H 2694   3.712   6.515   4.584 -2.2514  1.0992  1.7445
  761MOL0     H 2695   3.453   6.482   4.504 -2.3228  0.4311 -1.6060
  761MOL0     H 2696   3.116   6.487   4.423 -0.9214  1.7069 -1.8042
  761MOL0     H 2697   3.199   6.644   4.429 -0.7250  0.8363  2.5275
  761MOL0     H 2698   3.283   6.507   4.365  0.4614  0.3765  0.9413
  761MOL0     H 2699   2.877   6.785   4.870  2.6804 -2.7004  1.4146
  761MOL0     H 2700   2.621   6.833   4.867 -1.0334 -0.3312 -0.4935
  761MOL0     H 2701   2.345   6.491   4.859  0.5868 -0.9039  1.3718
  761MOL0     H 2702   2.363   6.525   5.032 -1.8616  2.1716  0.6122
  761MOL0     H 2703   2.151   6.557   4.972 -2.6603  1.9225 -0.9679
  761MOL0     H 2704   2.215   6.714   5.024 -2.1265  0.1813  1.1349
  761MOL0     H 2705   2.148   6.629   4.737  2.4163 -0.5316  0.8394
  761MOL0     H 2706   2.240   6.780   4.780 -0.8539  1.1254  1.3334
  761MOL0     H 2707   2.044   6.855   4.899  1.8324  0.6084 -0.2920
  761MOL0     H 2708   2.006   6.850   4.730  1.7359  2.4050  0.8396
  761MOL0     H 2709   1.930   6.608   4.910 -0.6077 -1.7397 -1.5126
  761MOL0     H 2710   1.901   6.641   4.742  2.7875 -0.5399 -0.1204
  761MOL0     H 2711   1.792   6.814   4.976 -1.7630 -2.0172  0.7390
  761MOL0     H 2712   1.779   6.832   4.796  1.4465 -2.2635 -0.8889
  761MOL0     H 2713   1.687   6.603   4.969  0.4673 -0.3460 -1.2419
  761MOL0     H 2714   1.638   6.621   4.799 -0.6430 -2.8963  1.9184
  761MOL0     H 2715   1.550   6.764   5.056  0.7405  1.9860 -0.5375
  761MOL0     H 2716   1.454   6.697   4.922 -1.2302  0.4787  1.2559
  761MOL0     H 2717   2.562   6.409   4.863  0.8255  0.3313  3.0781
  761MOL0     H 2718   2.798   6.377   4.809 -3.6019 -1.4032  0.0586
  761MOL0     H 2719   3.205   6.554   4.918 -1.8959  1.4718 -0.7136
  761MOL0     H 2720   3.443   6.498   4.933  1.6445 -0.6024  0.4526
  761MOL0     H 2721   4.774   5.344   4.334 -0.3144 -1.2449  1.0562
  761MOL0     H 2722   5.032   5.324   4.307 -1.0123  3.2446  0.0355
  761MOL0     H 2723   5.413   5.206   4.455  4.9120 -3.0699  2.4129
  761MOL0     H 2724   5.643   5.176   4.368 -2.9360 -0.6545 -2.7180
  761MOL0     H 2725   5.851   5.225   4.519  1.5841  0.4115  2.7578
  761MOL0     H 2726   5.968   5.211   4.392  1.1227 -0.0113 -0.7124
  761MOL0     H 2727   6.071   5.286   4.614  3.5381 -0.9274 -2.4964
  761MOL0     H 2728   5.954   5.404   4.618  0.9752  0.8664  1.5352
  761MOL0     H 2729   6.061   5.542   4.467 -0.4132  0.5647 -0.1098
  761MOL0     H 2730   6.153   5.408   4.380 -1.1665 -1.8926  1.6530
  761MOL0     H 2731   6.230   5.500   4.663  1.8910  2.2443  0.1852
  761MOL0     H 2732   6.301   5.552   4.512 -0.6875  1.6905  1.3732
  761MOL0     H 2733   6.444   5.150   4.567  2.0828  0.3777  1.0521
  761MOL0     H 2734   5.717   5.597   4.412  0.0854  0.1828  0.0790
  761MOL0     H 2735   5.475   5.627   4.475  0.1947  0.0274  2.2578
  762MOL0     O 2736   3.097   4.358  11.224 -0.8077 -0.0542 -0.5317
  762MOL0     C 2737   3.071   4.470  11.256  0.1427  0.6096  0.8286
  762MOL0     O 2738   2.951   4.511  11.310 -0.0593  0.6734  0.2986
  762MOL0     C 2739   2.852   4.416  11.311 -0.0918 -1.2388 -0.4168
  762MOL0     C 2740   2.860   4.297  11.390 -0.5566  0.5123 -0.4759
  762MOL0     C 2741   2.758   4.196  11.397 -0.2366 -0.0608  0.2441
  762MOL0     C 2742   2.638   4.216  11.327  0.2201 -0.3510  0.0804
  762MOL0     O 2743   2.541   4.119  11.329 -0.4863  0.7953  0.3840
  762MOL0     C 2744   2.437   4.121  11.228  0.0065 -1.6227 -0.4108
  762MOL0     C 2745   2.389   3.985  11.180 -0.1079  0.0525  0.2093
  762MOL0     C 2746   2.256   3.986  11.102  0.2979 -0.4777 -0.1206
  762MOL0     C 2747   2.126   4.016  11.169 -0.8479 -0.2421  0.8388
  762MOL0     C 2748   2.010   3.985  11.084 -0.2159 -0.1951  0.3415
  762MOL0     C 2749   1.867   4.012  11.149  0.2725  0.0639 -0.3143
  762MOL0     C 2750   1.751   4.010  11.054 -0.3964  0.4307 -0.2240
  762MOL0     C 2751   1.624   3.942  11.117 -1.0330  0.2866 -0.3200
  762MOL0     N 2752   1.520   3.914  11.022  0.5099 -0.0143  0.3430
  762MOL0     C 2753   1.440   3.800  11.033  0.1983 -0.6639 -0.4393
  762MOL0     C 2754   1.343   3.820  10.941  0.2518  0.3010  0.0517
  762MOL0     C 2755   1.245   3.719  10.902 -0.4431 -0.0641  0.0157
  762MOL0     C 2756   1.172   3.763  10.778  0.4650 -0.1898 -0.5963
  762MOL0     C 2757   1.064   3.871  10.802 -0.0413  0.8180 -0.9354
  762MOL0     C 2758   0.962   3.850  10.919  0.1823  0.4589  1.0895
  762MOL0     O 2759   0.908   3.714  10.927  0.0400 -0.9841 -0.2833
  762MOL0     C 2760   0.844   3.647  10.826  0.3602  0.1642  0.7621
  762MOL0     C 2761   0.760   3.721  10.743  0.0658  1.6990  0.3038
  762MOL0     C 2762   0.698   3.657  10.637  0.4054 -0.0254 -0.0138
  762MOL0     C 2763   0.595   3.719  10.545  1.0742  0.1291 -1.0396
  762MOL0     C 2764   0.708   3.518  10.619  0.4310  0.6201 -0.5880
  762MOL0     C 2765   0.672   3.446  10.491 -0.4220  0.0356  0.7613
  762MOL0     O 2766   0.727   3.492  10.372  0.4115 -0.3681  0.5187
  762MOL0     C 2767   0.682   3.433  10.259  0.0461  0.6511 -0.4784
  762MOL0     C 2768   0.554   3.457  10.206 -0.4712 -0.5556 -0.7552
  762MOL0     C 2769   0.517   3.403  10.082  0.2605  0.4079 -1.0247
  762MOL0     C 2770   0.602   3.332  10.002 -0.0084  0.3577 -0.1573
  762MOL0     O 2771   0.556   3.287   9.880 -0.5845 -0.3764 -0.3271
  762MOL0     C 2772   0.632   3.193   9.806 -0.3378 -0.5671 -0.4781
  762MOL0     C 2773   0.523   3.129   9.726 -0.6976  0.6072  0.5044
  762MOL0     C 2774   0.498   3.211   9.597 -0.2197  0.0738  1.2442
  762MOL0     C 2775   0.381   3.302   9.613  0.1864 -0.9851  0.4759
  762MOL0     C 2776   0.367   3.412   9.503  0.7565 -0.3256  0.3344
  762MOL0     C 2777   0.470   3.526   9.517  0.3536  0.1883 -0.7339
  762MOL0     C 2778   0.444   3.641   9.422  1.1709 -0.2747 -0.5967
  762MOL0     C 2779   0.310   3.714   9.429 -0.0597  0.0686  0.5265
  762MOL0    Cl 2780   0.324   3.848   9.323  0.3900 -0.2863 -0.2699
  762MOL0     C 2781   0.724   3.304  10.057 -0.2946 -0.1527  0.5378
  762MOL0     C 2782   0.766   3.350  10.182  0.7712 -0.7901  0.2497
  762MOL0     O 2783   0.632   3.325  10.505 -0.7957  0.4140 -0.0772
  762MOL0     C 2784   0.779   3.435  10.705  0.3308  0.7767 -0.2799
  762MOL0     C 2785   0.842   3.506  10.812 -0.8398  0.5935  0.6809
  762MOL0     N 2786   1.363   3.948  10.878 -0.9420  1.4212  0.9000
  762MOL0     N 2787   1.478   3.993  10.921 -0.2433  0.0596  0.3386
  762MOL0     C 2788   2.621   4.347  11.262  0.7152  0.3223 -1.8520
  762MOL0     C 2789   2.727   4.444  11.251  0.4867 -0.2963  0.1517
  762MOL0     C 2790   3.187   4.560  11.261  0.4334 -0.1797 -0.1094
  762MOL0     C 2791   3.185   4.670  11.354 -0.2320 -0.1256  0.6226
  762MOL0     C 2792   3.297   4.749  11.373  0.4758  0.0073  0.7161
  762MOL0     C 2793   3.406   4.733  11.295  0.4297  0.3611  0.0464
  762MOL0     O 2794   3.501   4.824  11.310 -0.9378 -0.3763 -0.6125
  762MOL0     C 2795   3.504   4.921  11.206  0.3690  0.1989  0.0906
  762MOL0     C 2796   3.583   4.874  11.087 -0.9622  0.9998  0.6494
  762MOL0     C 2797   3.733   4.889  11.120  0.1232 -0.4795 -0.2004
  762MOL0     C 2798   3.819   4.867  10.994 -0.6569 -0.5338  0.5844
  762MOL0     C 2799   3.958   4.832  11.030 -0.7985  0.2226 -0.0548
  762MOL0     C 2800   4.077   4.826  11.051 -0.0650  0.3535 -0.1286
  762MOL0     C 2801   3.413   4.625  11.205 -0.4495 -0.6621 -0.0423
  762MOL0     C 2802   3.304   4.542  11.181 -0.8705  0.2244  1.2508
  762MOL0     H 2803   2.937   4.273  11.462  0.1784 -0.1314 -1.4420
  762MOL0     H 2804   2.778   4.110  11.460 -2.0178 -0.2715  0.5841
  762MOL0     H 2805   2.353   4.179  11.268  2.4835  1.5772  0.5778
  762MOL0     H 2806   2.480   4.167  11.138 -1.0940 -1.6166 -0.9636
  762MOL0     H 2807   2.473   3.941  11.126 -0.0092  1.0677 -0.4809
  762MOL0     H 2808   2.379   3.933  11.276  4.5734 -0.6181  0.5827
  762MOL0     H 2809   2.269   4.074  11.038 -0.3994 -0.1426  0.1938
  762MOL0     H 2810   2.250   3.891  11.049  1.5239  0.6076 -2.3609
  762MOL0     H 2811   2.118   3.951  11.257 -0.3823 -0.5593  0.6519
  762MOL0     H 2812   2.131   4.117  11.211 -1.5535 -1.5560  4.4650
  762MOL0     H 2813   2.016   4.042  10.991 -0.4878 -1.3781 -0.4074
  762MOL0     H 2814   2.009   3.879  11.059  0.1908 -0.3065  0.7841
  762MOL0     H 2815   1.851   3.941  11.231 -0.3464 -1.7085 -1.9133
  762MOL0     H 2816   1.872   4.116  11.184 -0.8717  0.7234 -1.9959
  762MOL0     H 2817   1.717   4.114  11.050  0.9507  1.0940  2.6345
  762MOL0     H 2818   1.786   3.968  10.960  0.2562  1.4974 -0.4845
  762MOL0     H 2819   1.590   4.001  11.203 -2.4226  0.1225 -0.7348
  762MOL0     H 2820   1.648   3.842  11.154  0.3973  0.2954 -1.1386
  762MOL0     H 2821   1.474   3.718  11.095  3.4573 -0.4675 -1.7784
  762MOL0     H 2822   1.289   3.622  10.874 -1.4583 -0.0208 -1.9090
  762MOL0     H 2823   1.183   3.691  10.987 -1.0185 -5.6819 -1.8353
  762MOL0     H 2824   1.113   3.678  10.743 -3.3174  2.1451 -0.4389
  762MOL0     H 2825   1.238   3.801  10.700 -0.1238  0.6120 -0.7176
  762MOL0     H 2826   1.006   3.875  10.709 -0.6565  0.2140 -0.5907
  762MOL0     H 2827   1.108   3.970  10.814 -3.2369  2.1930  0.5477
  762MOL0     H 2828   0.887   3.930  10.921 -0.2508  0.0694  0.5787
  762MOL0     H 2829   1.020   3.859  11.012 -0.9905  2.2977  1.6848
  762MOL0     H 2830   0.746   3.828  10.754 -2.1588  1.5518 -0.4916
  762MOL0     H 2831   0.498   3.674  10.568  0.1962  3.0819  1.9780
  762MOL0     H 2832   0.576   3.826  10.559  2.5298  0.1374  1.5487
  762MOL0     H 2833   0.607   3.717  10.436  1.8227 -0.4073 -0.9509
  762MOL0     H 2834   0.488   3.502  10.279  0.9076  1.3587 -0.6199
  762MOL0     H 2835   0.417   3.433  10.051  0.0407  2.6613  1.4519
  762MOL0     H 2836   0.709   3.237   9.742 -0.6081  0.2074 -0.2783
  762MOL0     H 2837   0.684   3.128   9.877  2.8495  4.0697  1.9327
  762MOL0     H 2838   0.556   3.029   9.698 -1.8754  0.2201  0.4593
  762MOL0     H 2839   0.434   3.110   9.787 -0.3800  1.1203  1.1424
  762MOL0     H 2840   0.482   3.145   9.512  0.2011 -1.7404  2.5169
  762MOL0     H 2841   0.588   3.264   9.564 -1.4270  0.4409 -1.7255
  762MOL0     H 2842   0.290   3.242   9.617 -0.0806 -0.7046 -1.0329
  762MOL0     H 2843   0.397   3.354   9.708  2.5026  1.3005 -1.0455
  762MOL0     H 2844   0.266   3.452   9.513  1.3385  2.0061 -2.1338
  762MOL0     H 2845   0.385   3.363   9.407  3.1357 -1.7539  1.4022
  762MOL0     H 2846   0.476   3.567   9.619  1.0978 -1.6619  0.0141
  762MOL0     H 2847   0.564   3.480   9.489  0.1934 -1.3091  1.0160
  762MOL0     H 2848   0.460   3.607   9.319  1.0373 -0.2658 -0.6206
  762MOL0     H 2849   0.516   3.720   9.445  0.7355 -0.2643  0.8132
  762MOL0     H 2850   0.285   3.750   9.529  1.6518  2.1945  0.2671
  762MOL0     H 2851   0.238   3.638   9.398  0.3560 -1.0399  2.1340
  762MOL0     H 2852   0.792   3.253   9.989 -1.6569  0.0690 -1.0900
  762MOL0     H 2853   0.872   3.340  10.202  1.2029  1.6349 -0.4895
  762MOL0     H 2854   0.795   3.328  10.705  1.6224  0.9549 -0.6240
  762MOL0     H 2855   0.905   3.447  10.878 -0.3771 -1.2742 -1.2883
  762MOL0     H 2856   2.531   4.377  11.210  0.4250  3.0165 -0.0036
  762MOL0     H 2857   2.714   4.537  11.196 -0.0924 -0.3656  0.1715
  762MOL0     H 2858   3.093   4.679  11.411 -0.5688  2.7828 -0.2297
  762MOL0     H 2859   3.295   4.816  11.458 -0.1935 -0.5192  1.1300
  762MOL0     H 2860   3.399   4.928  11.176  0.1305 -0.5846  0.6968
  762MOL0     H 2861   3.531   5.024  11.231 -1.5381  0.0326  3.4954
  762MOL0     H 2862   3.554   4.936  11.002 -2.2688 -2.6910 -1.8615
  762MOL0     H 2863   3.561   4.772  11.052  2.4422 -0.3370  1.9474
  762MOL0     H 2864   3.765   4.812  11.190  2.4495  0.5337 -0.0613
  762MOL0     H 2865   3.753   4.986  11.166  2.3308 -0.8679 -0.2480
  762MOL0     H 2866   3.819   4.963  10.943  2.3408  0.9864  3.1101
  762MOL0     H 2867   3.780   4.796  10.920 -1.5821 -0.5023  1.0289
  762MOL0     H 2868   4.183   4.838  11.059 -0.2276  1.5860  0.5849
  762MOL0     H 2869   3.509   4.606  11.157 -0.4756 -3.8714  0.9468
  762MOL0     H 2870   3.327   4.468  11.105  1.4535  1.4803  0.6343
  763MOL0     O 2871  10.796   6.943   7.182 -0.2404 -0.2013  0.7157
  763MOL0     C 2872  10.837   7.054   7.218  0.6310 -0.3275  0.4427
  763MOL0     O 2873  10.781   7.137   7.307  0.6166  0.4044  1.3059
  763MOL0     C 2874  10.677   7.086   7.379 -0.3868 -0.2426  0.0692
  763MOL0     C 2875  10.678   6.956   7.441  1.6979  0.0224 -0.0391
  763MOL0     C 2876  10.557   6.925   7.503  0.5809  0.4961 -0.2083
  763MOL0     C 2877  10.458   7.015   7.518  0.5050 -0.5429  0.1826
  763MOL0     O 2878  10.347   6.988   7.588  0.4402  0.1707 -0.4378
  763MOL0     C 2879  10.376   6.986   7.731 -0.4915 -1.3975  1.0983
  763MOL0     C 2880  10.246   6.944   7.793  0.6359  0.0316 -0.5089
  763MOL0     C 2881  10.252   6.928   7.944 -0.5232  0.0487 -1.0606
  763MOL0     C 2882  10.103   6.905   7.981 -0.0593 -0.3387 -0.3051
  763MOL0     C 2883  10.096   6.834   8.122  0.1835  0.7784 -0.5751
  763MOL0     C 2884   9.949   6.824   8.163  0.4163  0.5837 -0.2180
  763MOL0     C 2885   9.881   6.688   8.128 -0.6228  0.1848  0.3613
  763MOL0     C 2886   9.740   6.688   8.158 -0.2050 -0.2509  0.0135
  763MOL0     N 2887   9.668   6.570   8.112 -0.4955 -0.8200  1.2550
  763MOL0     C 2888   9.632   6.463   8.191 -0.2315 -0.4944 -0.2625
  763MOL0     C 2889   9.595   6.370   8.108  0.5608  1.3340  0.3651
  763MOL0     C 2890   9.550   6.230   8.143  0.7050  0.0560 -0.0095
  763MOL0     C 2891   9.440   6.222   8.250 -0.4859 -0.2642  0.0696
  763MOL0     C 2892   9.321   6.314   8.227  0.2267  1.1540  0.0893
  763MOL0     C 2893   9.195   6.287   8.316 -0.2176 -0.4504  0.0168
  763MOL0     O 2894   9.229   6.317   8.453 -0.2828  0.0630 -0.3738
  763MOL0     C 2895   9.133   6.292   8.551 -0.5369  1.0935  0.7851
  763MOL0     C 2896   9.163   6.349   8.676 -0.6781 -0.4183  0.4951
  763MOL0     C 2897   9.082   6.339   8.789 -0.1665  0.2732  0.3411
  763MOL0     C 2898   9.105   6.430   8.915 -0.2565 -0.1076 -0.8591
  763MOL0     C 2899   8.960   6.262   8.772 -0.3805  0.2886 -0.2080
  763MOL0     C 2900   8.856   6.251   8.878 -0.3429 -0.7041  0.1964
  763MOL0     O 2901   8.721   6.245   8.833 -0.4456 -0.4099 -0.7923
  763MOL0     C 2902   8.609   6.203   8.914 -0.0114 -0.2334 -0.4915
  763MOL0     C 2903   8.478   6.218   8.860 -1.5513 -0.0397 -0.1088
  763MOL0     C 2904   8.366   6.177   8.929 -0.1209  0.4022 -0.3458
  763MOL0     C 2905   8.375   6.110   9.051 -0.6436  0.3777  1.0337
  763MOL0     O 2906   8.254   6.062   9.093  0.0428 -0.7947  0.9303
  763MOL0     C 2907   8.247   6.005   9.222 -0.4620  0.3802  0.2507
  763MOL0     C 2908   8.111   6.003   9.289  0.2978 -0.4573 -0.2016
  763MOL0     C 2909   7.996   5.947   9.209  0.0424  0.5864 -0.0577
  763MOL0     C 2910   7.862   5.991   9.265  0.2114  0.0487  0.1692
  763MOL0     C 2911   7.757   5.941   9.180  0.0786  0.5508  0.6970
  763MOL0     C 2912   7.605   5.972   9.212  0.3556 -0.0000 -0.6920
  763MOL0     C 2913   7.504   5.950   9.095 -1.0080 -0.9782  0.2964
  763MOL0     C 2914   7.363   5.981   9.144 -1.1892 -0.9816  0.8578
  763MOL0    Cl 2915   7.368   6.147   9.196  0.2319  0.2179  0.0130
  763MOL0     C 2916   8.503   6.095   9.104 -0.5683  0.1312  0.0298
  763MOL0     C 2917   8.617   6.147   9.042 -0.3714  0.2902  0.4778
  763MOL0     O 2918   8.897   6.247   8.996  0.0549 -0.4853 -1.0694
  763MOL0     C 2919   8.933   6.201   8.647  0.4651 -0.0972 -1.4285
  763MOL0     C 2920   9.007   6.227   8.535  0.3242  0.6417 -0.5014
  763MOL0     N 2921   9.595   6.421   7.980  0.3826  0.2994  0.2353
  763MOL0     N 2922   9.648   6.535   7.982  1.4350  0.3411 -0.1699
  763MOL0     C 2923  10.470   7.144   7.466 -0.2501 -0.2446 -0.5020
  763MOL0     C 2924  10.584   7.186   7.398 -0.2735  0.2967  0.8677
  763MOL0     C 2925  10.967   7.096   7.162  0.3999 -0.2870 -1.3794
  763MOL0     C 2926  11.015   7.229   7.178  0.4679  1.1726 -0.3540
  763MOL0     C 2927  11.139   7.270   7.134  0.2033  0.1271 -0.0454
  763MOL0     C 2928  11.229   7.181   7.070  0.3454  0.5139  0.0952
  763MOL0     O 2929  11.353   7.216   7.023  0.8643  0.5684  0.2169
  763MOL0     C 2930  11.359   7.357   6.984 -0.2710  0.3216  0.1914
  763MOL0     C 2931  11.475   7.369   6.887  0.0217 -1.3627  0.2659
  763MOL0     C 2932  11.608   7.299   6.946  0.0213 -0.5587  0.7033
  763MOL0     C 2933  11.736   7.325   6.864 -0.1885 -0.1557  0.3088
  763MOL0     C 2934  11.766   7.466   6.901  0.0007  0.1145  0.1803
  763MOL0     C 2935  11.789   7.579   6.917  0.3996 -0.2630  1.0608
  763MOL0     C 2936  11.177   7.049   7.044 -0.2892 -0.1860 -1.1404
  763MOL0     C 2937  11.055   7.012   7.095 -0.5138 -0.6845  0.0545
  763MOL0     H 2938  10.761   6.886   7.438  0.3833 -1.7825  2.0831
  763MOL0     H 2939  10.534   6.830   7.550 -2.5808  0.7563 -0.9935
  763MOL0     H 2940  10.452   6.912   7.758  0.5578 -0.4108  0.9301
  763MOL0     H 2941  10.408   7.088   7.754  1.2167 -1.6488 -0.0131
  763MOL0     H 2942  10.167   7.014   7.764  1.7353  2.5389  2.0502
  763MOL0     H 2943  10.224   6.845   7.754 -0.5649 -0.3893  1.1107
  763MOL0     H 2944  10.318   6.846   7.973 -1.4455  0.1581  1.6145
  763MOL0     H 2945  10.282   7.026   7.981 -0.6553  0.2141 -1.3812
  763MOL0     H 2946  10.043   6.996   7.976 -1.6231 -1.4060 -2.4500
  763MOL0     H 2947  10.052   6.838   7.911 -0.2476 -0.5969  0.0761
  763MOL0     H 2948  10.133   6.731   8.113  2.0654  1.2193  1.3067
  763MOL0     H 2949  10.152   6.879   8.204  2.2649 -0.8908 -0.9846
  763MOL0     H 2950   9.944   6.832   8.272 -3.3473  0.9244 -0.2933
  763MOL0     H 2951   9.894   6.905   8.116  0.2082  0.8651  0.4888
  763MOL0     H 2952   9.885   6.673   8.020  0.4540 -2.8341  0.7155
  763MOL0     H 2953   9.932   6.600   8.170  1.4334  0.4411 -1.4453
  763MOL0     H 2954   9.691   6.772   8.109 -0.7167 -0.7749 -0.3866
  763MOL0     H 2955   9.749   6.707   8.266 -0.6560  0.5151 -0.0806
  763MOL0     H 2956   9.643   6.454   8.299 -2.0002  0.1822  0.0104
  763MOL0     H 2957   9.502   6.187   8.055 -1.6434  1.6110  0.4251
  763MOL0     H 2958   9.626   6.162   8.184  1.2351  0.2062 -0.7303
  763MOL0     H 2959   9.482   6.255   8.345 -0.9063 -0.2792  0.2638
  763MOL0     H 2960   9.406   6.118   8.240  1.9808 -0.9754 -2.4814
  763MOL0     H 2961   9.295   6.330   8.122 -0.9063  2.8198  0.5818
  763MOL0     H 2962   9.360   6.413   8.255  0.3668  1.4229 -0.9952
  763MOL0     H 2963   9.170   6.181   8.305  0.9402 -0.6953 -0.3834
  763MOL0     H 2964   9.113   6.347   8.276  1.0876  1.0140 -0.5943
  763MOL0     H 2965   9.256   6.404   8.676 -0.9267  0.1914 -2.5616
  763MOL0     H 2966   9.136   6.377   9.005 -0.0190  5.6425  2.9939
  763MOL0     H 2967   9.191   6.498   8.903 -0.3114 -0.1821 -1.7285
  763MOL0     H 2968   9.012   6.481   8.939  0.5581  0.6265  0.9174
  763MOL0     H 2969   8.490   6.274   8.768 -4.3032  2.8282  1.0859
  763MOL0     H 2970   8.268   6.206   8.891 -1.2004  0.4947  2.2554
  763MOL0     H 2971   8.301   5.910   9.226 -1.4285 -0.1770  0.3297
  763MOL0     H 2972   8.304   6.079   9.279 -0.2037  0.4876 -0.1408
  763MOL0     H 2973   8.122   5.943   9.380  2.0426 -0.5106 -0.4172
  763MOL0     H 2974   8.080   6.105   9.313  0.5633 -0.9156  2.3453
  763MOL0     H 2975   8.006   5.838   9.207 -3.4606  0.1453  0.1269
  763MOL0     H 2976   8.010   5.976   9.104  0.7204 -0.0340 -0.1530
  763MOL0     H 2977   7.848   5.940   9.361 -3.0078 -2.2494 -1.3298
  763MOL0     H 2978   7.849   6.094   9.299 -2.3122 -0.5738  1.3780
  763MOL0     H 2979   7.761   5.833   9.164 -3.9014  0.6806 -3.2137
  763MOL0     H 2980   7.778   5.989   9.084  0.0573  0.6459  0.7401
  763MOL0     H 2981   7.579   5.915   9.302  1.5835  2.6507  1.4674
  763MOL0     H 2982   7.604   6.077   9.240 -0.8839  0.2263 -1.4811
  763MOL0     H 2983   7.511   5.849   9.054  0.3566 -0.2928 -1.2575
  763MOL0     H 2984   7.526   6.010   9.007  0.5047 -0.9277  0.6751
  763MOL0     H 2985   7.346   5.913   9.228  2.2448 -1.4062  1.3536
  763MOL0     H 2986   7.283   5.970   9.070 -0.0160  1.3935 -0.9067
  763MOL0     H 2987   8.510   6.046   9.200 -0.9161  1.7368  0.9015
  763MOL0     H 2988   8.714   6.132   9.088  1.0458  3.2039 -1.2786
  763MOL0     H 2989   8.837   6.152   8.631  1.3304 -2.5279  0.2493
  763MOL0     H 2990   8.956   6.196   8.444 -0.8544 -4.4624  1.5611
  763MOL0     H 2991  10.398   7.223   7.479 -0.4499 -0.3823 -0.7475
  763MOL0     H 2992  10.598   7.288   7.362  0.3100  0.2869  1.0651
  763MOL0     H 2993  10.958   7.301   7.235 -1.6533 -2.2962  2.2842
  763MOL0     H 2994  11.154   7.375   7.155  1.8108  0.5691 -2.8375
  763MOL0     H 2995  11.263   7.373   6.933 -0.4733  0.3914  0.5928
  763MOL0     H 2996  11.372   7.416   7.074 -0.6021  1.3124 -0.3970
  763MOL0     H 2997  11.493   7.470   6.849 -0.0995 -0.1412  3.1578
  763MOL0     H 2998  11.439   7.331   6.791 -0.1133  1.0996 -0.7462
  763MOL0     H 2999  11.594   7.191   6.954 -0.8687 -0.3022  4.9334
  763MOL0     H 3000  11.628   7.333   7.048  0.4678 -1.4007  0.9017
  763MOL0     H 3001  11.721   7.299   6.759 -3.5252 -1.4885  1.0002
  763MOL0     H 3002  11.821   7.264   6.897 -0.6621 -2.8891 -2.9788
  763MOL0     H 3003  11.808   7.683   6.932 -0.3908 -0.5223  5.1472
  763MOL0     H 3004  11.243   6.977   6.998  1.0189  0.7667 -0.8127
  763MOL0     H 3005  11.030   6.909   7.073 -0.4744 -0.4458 -1.1796
  764MOL0     O 3006   2.996   9.866   4.270  0.4562  0.4064  0.2016
  764MOL0     C 3007   3.058   9.974   4.268 -0.4895 -0.0443  0.6053
  764MOL0     O 3008   3.074  10.050   4.156 -0.3142 -0.3169 -0.0494
  764MOL0     C 3009   3.038  10.005   4.031  0.4346  0.5288 -0.4035
  764MOL0     C 3010   2.917   9.978   3.988 -0.0283 -0.3065 -0.4583
  764MOL0     C 3011   2.882   9.972   3.859 -0.9794 -0.0336  0.3799
  764MOL0     C 3012   2.978   9.978   3.760 -0.6393  0.8936  0.7957
  764MOL0     O 3013   2.945   9.954   3.632  0.2049 -0.4260 -0.4010
  764MOL0     C 3014   2.846  10.043   3.577  0.0261 -0.7066 -0.2259
  764MOL0     C 3015   2.920  10.147   3.499  0.1653  0.7372 -0.1899
  764MOL0     C 3016   2.836  10.268   3.457 -0.7911  0.6306 -0.4267
  764MOL0     C 3017   2.760  10.252   3.334 -0.5461  0.0050 -0.5871
  764MOL0     C 3018   2.676  10.368   3.295  0.6997  0.0335  0.6538
  764MOL0     C 3019   2.584  10.342   3.170 -0.1731  0.0028 -0.6223
  764MOL0     C 3020   2.498  10.466   3.133 -0.1947  0.6068  0.0293
  764MOL0     C 3021   2.374  10.436   3.038  0.5335  0.2280 -0.8219
  764MOL0     N 3022   2.316  10.553   2.972  0.9094  0.1000  0.5183
  764MOL0     C 3023   2.264  10.542   2.848 -0.3757  0.6950 -0.6254
  764MOL0     C 3024   2.183  10.646   2.837  0.1459 -0.0513  0.4375
  764MOL0     C 3025   2.101  10.677   2.714 -0.1385  0.3929 -0.4154
  764MOL0     C 3026   1.975  10.585   2.711 -0.1947 -0.3148 -0.0998
  764MOL0     C 3027   1.867  10.610   2.824 -0.1693  1.0104  0.6122
  764MOL0     C 3028   1.737  10.532   2.786  0.0523 -0.0076 -0.5096
  764MOL0     O 3029   1.769  10.395   2.782 -0.6347  0.3124 -0.0525
  764MOL0     C 3030   1.666  10.302   2.793  0.8605  0.2104 -0.2459
  764MOL0     C 3031   1.712  10.173   2.797  0.1287 -0.0770 -0.1688
  764MOL0     C 3032   1.632  10.058   2.803 -0.6130 -0.9406  0.2867
  764MOL0     C 3033   1.703   9.924   2.780 -0.2333  0.0241 -0.5207
  764MOL0     C 3034   1.497  10.081   2.812  0.0231 -0.2048 -0.7622
  764MOL0     C 3035   1.398   9.974   2.822 -0.2359  0.5057 -0.3442
  764MOL0     O 3036   1.274   9.985   2.776  0.5476 -0.5814  0.0211
  764MOL0     C 3037   1.173   9.899   2.807 -0.1502 -0.2586  0.1439
  764MOL0     C 3038   1.074   9.897   2.708 -0.2459  0.6724  0.3285
  764MOL0     C 3039   0.955   9.825   2.732  0.3625  0.4664  0.1754
  764MOL0     C 3040   0.933   9.750   2.848 -1.4622  0.8472  0.3504
  764MOL0     O 3041   0.806   9.694   2.870 -0.1009  0.3652 -0.3226
  764MOL0     C 3042   0.780   9.593   2.972 -0.1224 -0.3455  0.8331
  764MOL0     C 3043   0.640   9.555   2.960  0.4731  0.3351 -0.0551
  764MOL0     C 3044   0.545   9.663   3.026 -0.5429  0.7324 -0.0191
  764MOL0     C 3045   0.395   9.638   2.989 -0.0310 -0.6335 -0.3978
  764MOL0     C 3046   0.303   9.741   3.046  0.6424 -0.1393 -0.4108
  764MOL0     C 3047   0.153   9.725   3.028 -0.2531 -0.2407  0.5169
  764MOL0     C 3048   0.092   9.629   3.125 -0.2403 -0.1376 -0.1596
  764MOL0     C 3049  -0.047   9.571   3.097 -0.2125  0.7203  0.2729
  764MOL0    Cl 3050  -0.164   9.708   3.082 -0.0262 -0.2132  0.2918
  764MOL0     C 3051   1.040   9.753   2.941  0.0879  0.2194  0.3700
  764MOL0     C 3052   1.163   9.824   2.921  0.7590  0.4325 -0.4675
  764MOL0     O 3053   1.444   9.872   2.872  0.4696 -0.3530  0.2241
  764MOL0     C 3054   1.446  10.208   2.798  1.1255  0.4083 -0.4525
  764MOL0     C 3055   1.529  10.322   2.792  0.7446  0.7368 -0.1440
  764MOL0     N 3056   2.178  10.722   2.951  0.4527  0.1813 -1.1526
  764MOL0     N 3057   2.261  10.665   3.031 -0.1569 -0.5500 -0.0750
  764MOL0     C 3058   3.106  10.002   3.795 -0.0492 -0.8461  0.7541
  764MOL0     C 3059   3.137  10.018   3.931 -0.2375  0.1255 -0.2429
  764MOL0     C 3060   3.111  10.010   4.393  1.1460 -1.3654 -0.3075
  764MOL0     C 3061   3.219  10.105   4.396 -0.5190  0.0014  0.4033
  764MOL0     C 3062   3.259  10.181   4.506 -0.5917 -0.5851 -0.3292
  764MOL0     C 3063   3.203  10.150   4.629 -0.9796  0.1960 -0.5330
  764MOL0     O 3064   3.244  10.240   4.728  0.3176  0.6414  0.2646
  764MOL0     C 3065   3.196  10.228   4.864 -0.0454 -0.4980  0.7063
  764MOL0     C 3066   3.281  10.313   4.963  0.0146  0.9949  0.5012
  764MOL0     C 3067   3.421  10.253   4.952 -0.0390  0.1481 -0.3166
  764MOL0     C 3068   3.520  10.328   5.043  0.4135  0.5785 -0.6785
  764MOL0     C 3069   3.646  10.252   5.086 -0.0602  0.0287  0.3684
  764MOL0     C 3070   3.729  10.187   5.137  0.0101  0.1543  0.8352
  764MOL0     C 3071   3.104  10.049   4.638 -0.1232  0.5664  0.5812
  764MOL0     C 3072   3.051   9.981   4.522 -1.1240  0.2722 -0.5462
  764MOL0     H 3073   2.833   9.992   4.055  1.8634  0.7973  1.8219
  764MOL0     H 3074   2.778   9.949   3.836 -1.2599  1.1159  0.4292
  764MOL0     H 3075   2.774   9.983   3.522 -0.7264 -0.9204  0.9709
  764MOL0     H 3076   2.793  10.099   3.655  2.9980 -2.5456  3.4523
  764MOL0     H 3077   3.010  10.173   3.556 -1.1882 -1.9260  3.5953
  764MOL0     H 3078   2.956  10.109   3.403 -2.4178  2.0806 -1.7857
  764MOL0     H 3079   2.770  10.298   3.540 -0.6873 -2.8272  1.1050
  764MOL0     H 3080   2.917  10.340   3.442  0.8960 -0.7566  1.5140
  764MOL0     H 3081   2.831  10.235   3.252  0.5778  2.3587 -0.1826
  764MOL0     H 3082   2.703  10.159   3.333 -1.5509  0.4618  2.9209
  764MOL0     H 3083   2.612  10.392   3.380  2.3125 -0.3628  2.0300
  764MOL0     H 3084   2.746  10.447   3.266  0.1319 -0.3383 -2.0439
  764MOL0     H 3085   2.644  10.302   3.088  0.5971  2.1753 -1.2031
  764MOL0     H 3086   2.518  10.259   3.194  5.0568 -3.2712  5.5439
  764MOL0     H 3087   2.463  10.521   3.222 -1.1912 -1.1215  0.7687
  764MOL0     H 3088   2.566  10.541   3.091 -0.7439  1.6165  0.8841
  764MOL0     H 3089   2.309  10.370   3.096 -0.8358  1.5540 -0.8041
  764MOL0     H 3090   2.422  10.372   2.963  3.1566 -2.9349  3.1031
  764MOL0     H 3091   2.282  10.461   2.778  1.4140 -0.3709  0.9389
  764MOL0     H 3092   2.088  10.786   2.714  1.2337  0.5732  0.3356
  764MOL0     H 3093   2.150  10.638   2.624 -0.7960 -1.9107  0.1728
  764MOL0     H 3094   2.002  10.479   2.723 -0.2124 -0.3660 -0.4863
  764MOL0     H 3095   1.925  10.600   2.615  0.7031 -0.4378 -0.5982
  764MOL0     H 3096   1.858  10.719   2.831  2.5443  1.5994 -2.4303
  764MOL0     H 3097   1.911  10.560   2.911 -1.3279 -1.1523  0.0397
  764MOL0     H 3098   1.692  10.565   2.692 -2.0244 -0.0300  0.4206
  764MOL0     H 3099   1.663  10.558   2.862  0.2972  1.4833 -0.7567
  764MOL0     H 3100   1.820  10.163   2.804 -0.0821 -3.6073  0.0134
  764MOL0     H 3101   1.635   9.854   2.728 -1.0527  0.8142 -0.5348
  764MOL0     H 3102   1.783   9.934   2.706  1.3273 -1.4544  0.8829
  764MOL0     H 3103   1.749   9.879   2.868 -0.5996 -1.9998 -1.2808
  764MOL0     H 3104   1.084   9.951   2.614  3.4037  5.4862  2.9921
  764MOL0     H 3105   0.882   9.825   2.652  0.9025  0.7838 -0.3318
  764MOL0     H 3106   0.830   9.498   2.950 -3.8062 -2.0370 -1.1465
  764MOL0     H 3107   0.807   9.629   3.071 -0.6615 -1.7442  1.5128
  764MOL0     H 3108   0.619   9.540   2.854  4.5015 -0.9809 -0.8382
  764MOL0     H 3109   0.632   9.464   3.020  2.5191  1.1731  1.6236
  764MOL0     H 3110   0.586   9.762   3.004 -0.7149  0.8467  0.1738
  764MOL0     H 3111   0.549   9.650   3.134  2.9304 -1.5374 -0.2668
  764MOL0     H 3112   0.381   9.622   2.881 -0.9735 -3.6741  0.0806
  764MOL0     H 3113   0.379   9.540   3.034 -0.3028 -0.7090 -0.6513
  764MOL0     H 3114   0.343   9.833   3.002 -3.0025  1.6087 -0.4103
  764MOL0     H 3115   0.321   9.742   3.154 -1.6909  1.6361  0.0483
  764MOL0     H 3116   0.093   9.816   3.025  0.4587  0.2629 -2.5031
  764MOL0     H 3117   0.139   9.685   2.927 -2.8556  1.7194 -0.0235
  764MOL0     H 3118   0.080   9.678   3.222  3.2581 -0.9035  0.8120
  764MOL0     H 3119   0.159   9.543   3.139 -1.0390 -0.7063  0.2222
  764MOL0     H 3120  -0.074   9.502   3.177  2.6249  0.6988  1.3348
  764MOL0     H 3121  -0.054   9.533   2.995  1.7306  2.0006 -0.4016
  764MOL0     H 3122   1.034   9.696   3.033 -0.3016  2.3588  1.7421
  764MOL0     H 3123   1.243   9.823   2.994  1.6008  1.6471 -1.3378
  764MOL0     H 3124   1.339  10.228   2.801  1.4333  2.0821  1.4543
  764MOL0     H 3125   1.491  10.423   2.796  4.4386  2.3640 -1.6205
  764MOL0     H 3126   3.174  10.033   3.716 -0.6831  0.2500  0.6199
  764MOL0     H 3127   3.238  10.036   3.964 -1.7406  2.3933  3.7895
  764MOL0     H 3128   3.263  10.131   4.301 -2.2681  0.8840 -0.2148
  764MOL0     H 3129   3.331  10.261   4.497 -1.1249  0.2066  1.8104
  764MOL0     H 3130   3.096  10.271   4.866  0.1228 -0.0430 -0.2216
  764MOL0     H 3131   3.183  10.120   4.878 -0.4779 -0.7291 -1.2080
  764MOL0     H 3132   3.225  10.324   5.056 -1.5182  1.1941 -0.4087
  764MOL0     H 3133   3.296  10.412   4.918  0.1205  0.4005 -0.8016
  764MOL0     H 3134   3.458  10.264   4.849  1.3794  0.8023  0.2305
  764MOL0     H 3135   3.410  10.153   4.994 -2.5679  0.4896 -0.0261
  764MOL0     H 3136   3.471  10.361   5.135 -0.6989 -4.2505  0.7634
  764MOL0     H 3137   3.550  10.417   4.987  2.0121 -0.2271 -1.1455
  764MOL0     H 3138   3.802  10.127   5.186 -0.0180  0.4100  1.1964
  764MOL0     H 3139   3.056  10.026   4.732  1.3377 -0.9473  1.0051
  764MOL0     H 3140   2.959   9.925   4.535 -0.6863 -0.0136  1.7058
  765MOL0     O 3141   1.375   7.044  10.836 -0.0326 -0.1037 -0.2518
  765MOL0     C 3142   1.461   7.117  10.889 -0.7803 -0.0960  0.6149
  765MOL0     O 3143   1.440   7.213  10.988  0.1830 -0.1443 -0.0426
  765MOL0     C 3144   1.307   7.226  11.035 -0.3619 -0.3488  0.8201
  765MOL0     C 3145   1.282   7.179  11.157  0.7418 -0.9058 -0.7368
  765MOL0     C 3146   1.152   7.181  11.207 -0.8711  0.2664 -0.3299
  765MOL0     C 3147   1.046   7.223  11.132  0.6870  0.6042  0.3426
  765MOL0     O 3148   0.923   7.211  11.189 -0.1405  0.0052  0.3316
  765MOL0     C 3149   0.797   7.251  11.119 -0.5823 -1.1577  0.1006
  765MOL0     C 3150   0.678   7.200  11.197  0.2310  0.6762 -0.8953
  765MOL0     C 3151   0.556   7.220  11.122 -0.0427 -0.2558  0.4438
  765MOL0     C 3152   0.440   7.155  11.191 -0.3946 -0.4644 -0.1458
  765MOL0     C 3153   0.304   7.189  11.117  0.4428 -0.0890  1.2352
  765MOL0     C 3154   0.198   7.114  11.196 -1.5970  0.3414  0.1576
  765MOL0     C 3155   0.068   7.135  11.119 -0.4078 -0.2033  0.6909
  765MOL0     C 3156  -0.032   7.036  11.172 -0.8032 -0.4475  0.3746
  765MOL0     N 3157  -0.104   7.067  11.297 -0.2497 -0.4400  0.4949
  765MOL0     C 3158  -0.094   6.995  11.414 -0.0266 -0.6696 -0.1579
  765MOL0     C 3159  -0.194   7.042  11.494  0.2842 -0.2607 -0.2680
  765MOL0     C 3160  -0.225   6.993  11.629 -0.7680  0.6748  0.6956
  765MOL0     C 3161  -0.132   7.073  11.730 -0.8237  0.2790  0.3992
  765MOL0     C 3162  -0.148   7.027  11.879  1.1648  0.1579 -0.1469
  765MOL0     C 3163  -0.073   7.126  11.978 -0.2357  0.6978  0.0077
  765MOL0     O 3164  -0.139   7.251  11.983 -0.1648 -0.7879  0.5237
  765MOL0     C 3165  -0.215   7.277  12.091  0.6732  0.2694 -0.1455
  765MOL0     C 3166  -0.206   7.406  12.147 -0.3518 -0.0718  0.1134
  765MOL0     C 3167  -0.293   7.453  12.249  0.2731  1.1953 -0.6470
  765MOL0     C 3168  -0.291   7.598  12.295  0.0525 -0.1506 -0.1783
  765MOL0     C 3169  -0.383   7.353  12.301  1.1579 -0.9252  0.1771
  765MOL0     C 3170  -0.485   7.391  12.409  0.5798 -0.3766 -0.6572
  765MOL0     O 3171  -0.600   7.303  12.428 -0.0369  0.2512 -0.2521
  765MOL0     C 3172  -0.705   7.360  12.498  0.3078  0.3712  0.0461
  765MOL0     C 3173  -0.732   7.310  12.632 -0.4512  0.4479  0.2074
  765MOL0     C 3174  -0.844   7.347  12.693 -0.0867  0.1573  0.6776
  765MOL0     C 3175  -0.923   7.447  12.646 -0.1560  0.9694 -0.1067
  765MOL0     O 3176  -1.026   7.482  12.733  0.7478  0.0827  0.5397
  765MOL0     C 3177  -1.138   7.402  12.767 -0.6058  0.7738  0.7693
  765MOL0     C 3178  -1.220   7.479  12.873  0.4577  2.3340  0.3882
  765MOL0     C 3179  -1.367   7.420  12.887 -0.0865 -0.8252 -0.0199
  765MOL0     C 3180  -1.386   7.378  13.027  0.4871 -0.0941 -0.0830
  765MOL0     C 3181  -1.536   7.341  13.068 -1.2883  0.6935 -0.5722
  765MOL0     C 3182  -1.560   7.316  13.211 -0.3595 -0.1591  0.4133
  765MOL0     C 3183  -1.532   7.425  13.311 -0.1561 -0.6168  0.2516
  765MOL0     C 3184  -1.608   7.425  13.444 -0.5274  0.1471  0.9262
  765MOL0    Cl 3185  -1.571   7.302  13.564 -0.4424  0.0417 -0.2119
  765MOL0     C 3186  -0.906   7.503  12.519 -0.1024  0.1671 -0.0036
  765MOL0     C 3187  -0.790   7.454  12.443 -0.7058 -0.1165  0.9177
  765MOL0     O 3188  -0.477   7.494  12.476  0.2119  0.3227 -0.1604
  765MOL0     C 3189  -0.400   7.226  12.242 -0.6815  0.3143 -0.0906
  765MOL0     C 3190  -0.316   7.189  12.143  0.2559 -0.7888 -0.2246
  765MOL0     N 3191  -0.266   7.138  11.421 -0.2603  0.4030  0.4386
  765MOL0     N 3192  -0.215   7.148  11.300 -0.0189  0.5663  0.7978
  765MOL0     C 3193   1.067   7.260  10.997  0.4711 -0.1011 -0.1591
  765MOL0     C 3194   1.201   7.264  10.951  0.8231 -0.6940  0.2352
  765MOL0     C 3195   1.606   7.097  10.838 -0.5478 -0.3765  0.9427
  765MOL0     C 3196   1.634   6.979  10.760 -0.5404 -0.6697 -0.4619
  765MOL0     C 3197   1.766   6.962  10.714  0.3306  0.3162 -1.0189
  765MOL0     C 3198   1.866   7.059  10.735  0.4145 -0.1434 -0.5034
  765MOL0     O 3199   1.983   7.045  10.670  0.4081  0.9589  0.0999
  765MOL0     C 3200   2.085   7.013  10.763  0.5566  0.1754  0.4687
  765MOL0     C 3201   2.229   7.022  10.700 -0.0240  0.3851  0.1733
  765MOL0     C 3202   2.340   7.026  10.805 -1.4761  1.0472 -1.5041
  765MOL0     C 3203   2.478   7.066  10.743  0.1066 -0.8917  0.5087
  765MOL0     C 3204   2.486   7.212  10.721 -1.0384  0.4315  0.1949
  765MOL0     C 3205   2.489   7.337  10.714 -0.8371  0.0455  0.2849
  765MOL0     C 3206   1.843   7.178  10.817 -0.3275  0.6352 -0.3680
  765MOL0     C 3207   1.715   7.190  10.863  0.7112  0.6304  0.1639
  765MOL0     H 3208   1.364   7.147  11.220  1.2908  2.7732  0.6977
  765MOL0     H 3209   1.142   7.141  11.307 -1.2939 -0.0427 -0.4914
  765MOL0     H 3210   0.805   7.359  11.103  1.9943 -1.7237 -3.5335
  765MOL0     H 3211   0.783   7.199  11.024 -1.4299 -0.3852 -0.2018
  765MOL0     H 3212   0.693   7.092  11.202 -1.1241  0.3420 -2.9714
  765MOL0     H 3213   0.672   7.233  11.301  0.5338 -1.4590 -0.1624
  765MOL0     H 3214   0.547   7.329  11.122  2.2865  0.0667  3.0893
  765MOL0     H 3215   0.566   7.180  11.021 -0.1089 -2.8175  1.3793
  765MOL0     H 3216   0.464   7.048  11.184  1.1686 -0.1021 -0.7776
  765MOL0     H 3217   0.433   7.180  11.297 -0.8717 -2.1323  0.2526
  765MOL0     H 3218   0.283   7.295  11.134  0.1456 -0.0050  0.3918
  765MOL0     H 3219   0.319   7.159  11.013 -1.0443  1.3696  0.5479
  765MOL0     H 3220   0.223   7.008  11.206 -3.5474 -0.0529  1.3731
  765MOL0     H 3221   0.198   7.140  11.302  1.7644 -0.3062  0.4196
  765MOL0     H 3222   0.015   7.230  11.132  0.0168  0.0390  0.6766
  765MOL0     H 3223   0.088   7.103  11.017  1.2369 -0.3665  1.0311
  765MOL0     H 3224   0.007   6.934  11.176  0.2691 -0.0995 -0.3995
  765MOL0     H 3225  -0.106   7.044  11.092 -0.6213  0.4741  0.2851
  765MOL0     H 3226  -0.017   6.920  11.431 -0.1755 -0.7589  0.1233
  765MOL0     H 3227  -0.327   7.030  11.647 -1.9874 -1.2882 -1.6615
  765MOL0     H 3228  -0.224   6.884  11.633 -1.7823  0.4707 -2.3012
  765MOL0     H 3229  -0.165   7.178  11.726 -3.8595 -0.6038 -0.3009
  765MOL0     H 3230  -0.028   7.076  11.695 -1.3920 -0.3086 -1.4461
  765MOL0     H 3231  -0.110   6.925  11.886  1.2505  0.0593 -1.6597
  765MOL0     H 3232  -0.256   7.036  11.896  1.1467 -0.0847 -0.1396
  765MOL0     H 3233   0.030   7.137  11.943 -0.1584  0.4098  0.1331
  765MOL0     H 3234  -0.068   7.077  12.076 -1.6590  1.5090  0.5084
  765MOL0     H 3235  -0.128   7.465  12.100 -0.1644 -1.8210 -1.9348
  765MOL0     H 3236  -0.226   7.662  12.233 -1.2993  1.7227  0.2579
  765MOL0     H 3237  -0.386   7.651  12.284 -2.8256 -4.2861  2.2974
  765MOL0     H 3238  -0.271   7.593  12.402 -0.4740 -2.3863 -0.1445
  765MOL0     H 3239  -0.673   7.230  12.675 -1.6843 -0.0431  1.0318
  765MOL0     H 3240  -0.866   7.296  12.787 -0.6692 -0.1712  0.3688
  765MOL0     H 3241  -1.196   7.382  12.677 -3.1677 -0.1735  2.4984
  765MOL0     H 3242  -1.109   7.304  12.806 -1.0153 -1.7566 -4.5097
  765MOL0     H 3243  -1.163   7.465  12.966 -0.2977  0.7178  0.6403
  765MOL0     H 3244  -1.224   7.588  12.865 -1.1567  2.3258  0.8098
  765MOL0     H 3245  -1.368   7.331  12.822 -0.3079 -2.2950  1.9056
  765MOL0     H 3246  -1.445   7.491  12.861  1.5231  0.0437 -2.8900
  765MOL0     H 3247  -1.336   7.282  13.043 -0.4797 -0.3986  1.3288
  765MOL0     H 3248  -1.348   7.452  13.097 -0.7673 -0.7029  1.3142
  765MOL0     H 3249  -1.571   7.258  13.006 -1.4555  0.8693 -0.7139
  765MOL0     H 3250  -1.594   7.429  13.038 -1.9615  0.1291 -0.9712
  765MOL0     H 3251  -1.666   7.290  13.217 -0.5951  0.5166 -0.6397
  765MOL0     H 3252  -1.500   7.235  13.254 -0.5932 -0.1694  0.7286
  765MOL0     H 3253  -1.563   7.508  13.246 -0.9475 -0.5228  0.7408
  765MOL0     H 3254  -1.427   7.435  13.340  0.5204  2.3978 -2.5803
  765MOL0     H 3255  -1.712   7.433  13.410 -0.4359  2.4391  0.9864
  765MOL0     H 3256  -1.583   7.520  13.492  3.2960 -0.7901  1.1165
  765MOL0     H 3257  -0.968   7.577  12.471  1.1025  2.2434  1.4711
  765MOL0     H 3258  -0.768   7.495  12.345  0.3176 -0.1853  1.1065
  765MOL0     H 3259  -0.462   7.153  12.292  0.8013 -0.6340  0.4554
  765MOL0     H 3260  -0.329   7.090  12.102  1.2255 -0.7473 -0.6494
  765MOL0     H 3261   0.990   7.296  10.929  0.4260  0.3641  0.1330
  765MOL0     H 3262   1.222   7.289  10.847  0.8660 -3.1272 -0.4199
  765MOL0     H 3263   1.559   6.909  10.727 -0.9816  0.1188 -1.1723
  765MOL0     H 3264   1.797   6.875  10.657 -1.1649 -0.6387 -0.4236
  765MOL0     H 3265   2.077   7.081  10.848 -1.0293 -0.0483  0.5346
  765MOL0     H 3266   2.076   6.916  10.813  1.2524 -0.6228 -0.9038
  765MOL0     H 3267   2.231   7.115  10.643 -2.5856 -0.2599 -1.0938
  765MOL0     H 3268   2.241   6.939  10.630  0.0655 -0.3287  1.0122
  765MOL0     H 3269   2.349   6.926  10.847 -0.5320  0.9039 -2.0196
  765MOL0     H 3270   2.309   7.090  10.888  0.9692 -1.1142  1.2828
  765MOL0     H 3271   2.472   7.025  10.642  0.4629  1.3222 -0.4787
  765MOL0     H 3272   2.565   7.039  10.803  0.9783  1.2246  0.3064
  765MOL0     H 3273   2.490   7.443  10.699  0.9992 -0.3129 -3.1496
  765MOL0     H 3274   1.918   7.255  10.836  2.0049 -2.1655  3.3925
  765MOL0     H 3275   1.692   7.285  10.911  1.1947  2.4125 -2.9217
  766MOL0     O 3276   5.023   0.988  10.283 -0.1935  0.0497 -0.0421
  766MOL0     C 3277   5.103   0.922  10.211  0.2261  0.3074  0.4824
  766MOL0     O 3278   5.081   0.857  10.082  0.3123  0.2223  0.1958
  766MOL0     C 3279   4.958   0.880  10.027 -0.2783  0.7058 -0.1661
  766MOL0     C 3280   4.886   0.763   9.982 -0.3560 -0.6779  0.3019
  766MOL0     C 3281   4.771   0.775   9.906  0.1268 -0.4058 -0.4442
  766MOL0     C 3282   4.720   0.910   9.884  0.4965  1.1584 -0.4327
  766MOL0     O 3283   4.603   0.935   9.819  0.1085  0.2225 -0.2492
  766MOL0     C 3284   4.512   1.011   9.894  0.8627 -0.6710 -0.1817
  766MOL0     C 3285   4.383   1.014   9.801 -0.1602 -0.5860  0.2686
  766MOL0     C 3286   4.318   0.875   9.779  0.2064  1.0300 -0.0280
  766MOL0     C 3287   4.164   0.867   9.805 -1.0182 -0.1878 -0.5639
  766MOL0     C 3288   4.106   0.728   9.797  0.1043 -0.9356 -0.0484
  766MOL0     C 3289   4.128   0.634   9.927 -0.1116 -0.7978  0.5651
  766MOL0     C 3290   4.036   0.506   9.910  0.0507  0.3497 -0.2194
  766MOL0     C 3291   3.877   0.535   9.923 -0.5832  0.3459 -0.4252
  766MOL0     N 3292   3.809   0.580   9.804  0.7481  0.1583 -0.7295
  766MOL0     C 3293   3.714   0.680   9.805 -0.3929  0.6549 -0.4422
  766MOL0     C 3294   3.720   0.738   9.683  0.8581 -0.2140  0.2906
  766MOL0     C 3295   3.637   0.854   9.639  0.5468 -0.5326  0.3825
  766MOL0     C 3296   3.724   0.974   9.657 -0.1182  0.7190 -0.2922
  766MOL0     C 3297   3.761   1.012   9.809  0.0801 -0.0379 -0.2827
  766MOL0     C 3298   3.889   1.094   9.810  0.3160  1.0056  0.3274
  766MOL0     O 3299   3.856   1.224   9.773  0.3955 -0.7438 -0.0173
  766MOL0     C 3300   3.962   1.313   9.741  0.8093  0.1077 -0.3279
  766MOL0     C 3301   3.932   1.453   9.739  0.3303 -0.0667 -0.9998
  766MOL0     C 3302   4.019   1.555   9.706  0.7652 -0.0185 -0.6197
  766MOL0     C 3303   3.963   1.695   9.685 -0.1834  0.3703  0.2971
  766MOL0     C 3304   4.159   1.515   9.687 -0.2897  0.0714 -0.4994
  766MOL0     C 3305   4.264   1.621   9.673 -1.0070  0.7810  0.2325
  766MOL0     O 3306   4.395   1.585   9.685  0.2000 -0.2388 -0.4714
  766MOL0     C 3307   4.495   1.681   9.660  0.5609 -0.3102  0.1996
  766MOL0     C 3308   4.563   1.737   9.773 -1.4711 -0.1928 -0.1429
  766MOL0     C 3309   4.667   1.822   9.758 -0.7634 -0.2883  0.2709
  766MOL0     C 3310   4.716   1.852   9.626  0.1807  0.1637  0.5862
  766MOL0     O 3311   4.822   1.938   9.609 -0.2965 -0.6120  0.0653
  766MOL0     C 3312   4.944   1.883   9.643  0.4048 -0.0599 -0.9118
  766MOL0     C 3313   5.019   1.889   9.507  0.8362  0.0740 -0.1143
  766MOL0     C 3314   5.164   1.876   9.529 -0.2375 -0.2023  0.0569
  766MOL0     C 3315   5.222   1.731   9.519  0.9558 -0.4515 -0.3169
  766MOL0     C 3316   5.217   1.669   9.381 -0.2333  0.4264 -0.1036
  766MOL0     C 3317   5.320   1.554   9.365  0.0859  1.1347  0.1238
  766MOL0     C 3318   5.282   1.451   9.253 -0.0352  0.3266  0.5130
  766MOL0     C 3319   5.279   1.513   9.118 -0.4326 -0.2009 -0.4853
  766MOL0    Cl 3320   5.441   1.581   9.069  0.1248 -0.1442 -0.3838
  766MOL0     C 3321   4.632   1.808   9.515 -0.4198  0.8374  0.9628
  766MOL0     C 3322   4.523   1.722   9.528  0.6831  0.1724 -0.2218
  766MOL0     O 3323   4.227   1.730   9.636  0.7310  0.3591  0.2823
  766MOL0     C 3324   4.197   1.383   9.695  1.2409 -0.8861 -0.3794
  766MOL0     C 3325   4.100   1.278   9.711  0.1638  0.6653  0.4028
  766MOL0     N 3326   3.804   0.662   9.609 -1.0775  0.2738 -0.0434
  766MOL0     N 3327   3.862   0.579   9.683  0.5478 -0.0214 -0.6863
  766MOL0     C 3328   4.787   1.018   9.935 -0.2641  0.1488  0.5197
  766MOL0     C 3329   4.908   1.006  10.000 -0.0894  0.2628 -0.5262
  766MOL0     C 3330   5.239   0.895  10.267  0.1419  0.3555 -0.2470
  766MOL0     C 3331   5.279   0.978  10.382 -0.6606 -0.1999  0.1939
  766MOL0     C 3332   5.395   0.961  10.450  0.5220  0.5950 -0.0397
  766MOL0     C 3333   5.489   0.875  10.391 -0.3188  0.8286  0.2165
  766MOL0     O 3334   5.615   0.899  10.448  0.9042  0.7443  0.0170
  766MOL0     C 3335   5.706   0.956  10.354  0.0018  0.0786  0.8079
  766MOL0     C 3336   5.850   0.921  10.397  0.4516  0.4116 -1.0199
  766MOL0     C 3337   5.908   0.783  10.355  0.5274 -0.2830  0.4327
  766MOL0     C 3338   6.030   0.753  10.432 -0.7722 -0.2218  0.4555
  766MOL0     C 3339   6.119   0.644  10.391  0.3690  0.4283  0.7954
  766MOL0     C 3340   6.198   0.567  10.352 -0.3841 -0.4662 -0.7909
  766MOL0     C 3341   5.459   0.795  10.275 -0.5173 -0.8438  0.2804
  766MOL0     C 3342   5.329   0.802  10.213  0.5551  0.9407  0.2545
  766MOL0     H 3343   4.931   0.665   9.981 -0.5779 -0.7811  0.3385
  766MOL0     H 3344   4.720   0.695   9.853 -0.3471 -0.8493  0.6507
  766MOL0     H 3345   4.482   0.950   9.980 -0.3480 -2.6209 -1.8956
  766MOL0     H 3346   4.537   1.116   9.914  2.6831 -1.2085  0.5995
  766MOL0     H 3347   4.312   1.091   9.833  0.5393  0.3116 -0.2718
  766MOL0     H 3348   4.412   1.056   9.704 -0.8012  0.6264  0.5675
  766MOL0     H 3349   4.328   0.846   9.674  0.4019  1.6099 -0.1770
  766MOL0     H 3350   4.374   0.800   9.836 -0.4764 -0.6742 -1.5120
  766MOL0     H 3351   4.138   0.919   9.897 -2.0560 -4.8864  2.1440
  766MOL0     H 3352   4.119   0.917   9.718  0.1755 -0.2750 -1.2583
  766MOL0     H 3353   4.001   0.756   9.781 -0.3515 -1.6950  1.4075
  766MOL0     H 3354   4.144   0.682   9.706  1.7002  1.0198 -0.4341
  766MOL0     H 3355   4.235   0.612   9.922 -0.1866 -1.0098 -0.2743
  766MOL0     H 3356   4.115   0.686  10.022  2.1083  0.8613  0.0487
  766MOL0     H 3357   4.063   0.456   9.817  0.0775  0.6515 -0.3728
  766MOL0     H 3358   4.069   0.438   9.990  1.7189  1.5959  0.1921
  766MOL0     H 3359   3.856   0.603  10.006 -0.5455  0.6973 -0.7046
  766MOL0     H 3360   3.833   0.440   9.956 -2.8133  1.1342 -0.9443
  766MOL0     H 3361   3.655   0.711   9.890 -0.1883  3.3956 -1.2175
  766MOL0     H 3362   3.600   0.851   9.537  0.2256  0.0708  0.4814
  766MOL0     H 3363   3.553   0.856   9.709  0.0780 -1.4567 -0.1423
  766MOL0     H 3364   3.671   1.057   9.610 -2.7557 -0.5281  0.3478
  766MOL0     H 3365   3.816   0.962   9.599 -1.0207 -0.1535 -1.5761
  766MOL0     H 3366   3.776   0.921   9.869 -1.7236 -0.8954 -1.0632
  766MOL0     H 3367   3.688   1.079   9.853  0.4178 -0.5019  1.0399
  766MOL0     H 3368   3.951   1.046   9.733 -0.7649 -3.2269  1.8759
  766MOL0     H 3369   3.940   1.099   9.907 -0.0815 -2.8215  0.8951
  766MOL0     H 3370   3.828   1.473   9.764  1.2775  1.2658  2.4220
  766MOL0     H 3371   3.986   1.715   9.580  2.9680  1.2551  1.0435
  766MOL0     H 3372   3.855   1.688   9.699 -0.1074 -0.1283  0.6695
  766MOL0     H 3373   4.000   1.775   9.749 -3.4383  1.7458  0.6225
  766MOL0     H 3374   4.525   1.723   9.874 -3.1806 -0.4567 -0.8034
  766MOL0     H 3375   4.727   1.868   9.835  0.3244 -0.4323 -0.4667
  766MOL0     H 3376   4.986   1.944   9.724 -0.7407  0.9538 -1.0466
  766MOL0     H 3377   4.947   1.779   9.675 -2.3818 -0.4209 -1.5408
  766MOL0     H 3378   4.979   1.818   9.434  0.4928 -0.3584  0.4795
  766MOL0     H 3379   5.009   1.993   9.475 -0.1132  0.2837  0.8126
  766MOL0     H 3380   5.198   1.911   9.627  1.5649  2.7524 -1.4947
  766MOL0     H 3381   5.212   1.941   9.456 -1.7231 -0.3281 -1.0908
  766MOL0     H 3382   5.326   1.749   9.546  0.5556  0.6382  0.5827
  766MOL0     H 3383   5.173   1.657   9.583  3.7853  0.0290  2.6629
  766MOL0     H 3384   5.243   1.744   9.307 -1.4390  0.7501 -0.2261
  766MOL0     H 3385   5.120   1.629   9.348  0.4732 -0.2533 -1.4370
  766MOL0     H 3386   5.421   1.591   9.344  0.6901 -0.3750  0.2044
  766MOL0     H 3387   5.325   1.495   9.457 -2.3937  0.5147 -0.0639
  766MOL0     H 3388   5.185   1.409   9.279  0.1023  0.0493  0.5826
  766MOL0     H 3389   5.350   1.366   9.254 -1.9272 -1.2494  0.3211
  766MOL0     H 3390   5.201   1.590   9.118  0.8483  1.1453  0.3347
  766MOL0     H 3391   5.253   1.430   9.051  0.8333  0.4669 -1.8679
  766MOL0     H 3392   4.662   1.843   9.417  2.0379  1.0287  1.7231
  766MOL0     H 3393   4.469   1.678   9.445 -0.4725  1.7364 -0.3384
  766MOL0     H 3394   4.300   1.354   9.682  1.2705 -0.3372 -1.4923
  766MOL0     H 3395   4.131   1.174   9.709 -1.7898  0.0296  0.5571
  766MOL0     H 3396   4.757   1.122   9.925 -0.7239  0.2130  2.1353
  766MOL0     H 3397   4.957   1.099  10.028 -1.6002  1.5775 -2.0275
  766MOL0     H 3398   5.202   1.043  10.423 -0.8981  0.0564 -0.6423
  766MOL0     H 3399   5.409   1.027  10.534 -0.8042  0.3131  0.4278
  766MOL0     H 3400   5.698   0.922  10.251 -3.6622  1.8224  0.3136
  766MOL0     H 3401   5.686   1.064  10.359 -0.1676  0.1307 -0.6554
  766MOL0     H 3402   5.844   0.924  10.506  1.1040 -1.4514 -0.9005
  766MOL0     H 3403   5.925   0.991  10.361  0.3747  0.8593 -0.3313
  766MOL0     H 3404   5.923   0.771  10.248  2.2836 -1.3691  0.7535
  766MOL0     H 3405   5.830   0.714  10.389  1.2797 -0.5655  1.6581
  766MOL0     H 3406   6.013   0.726  10.537 -1.7110  2.0216  0.9372
  766MOL0     H 3407   6.086   0.847  10.429  1.6169 -1.5539  0.8669
  766MOL0     H 3408   6.287   0.513  10.326  1.6574  2.1439  0.1804
  766MOL0     H 3409   5.542   0.744  10.227 -1.0887 -1.4157 -0.1024
  766MOL0     H 3410   5.304   0.745  10.124  2.1095  2.6481 -1.3668
  767MOL0     O 3411   0.395   0.455  11.273 -0.7473  0.2276  0.5481
  767MOL0     C 3412   0.468   0.450  11.373  0.1862 -0.5443  0.5803
  767MOL0     O 3413   0.447   0.375  11.493  1.0503 -0.0291  0.0360
  767MOL0     C 3414   0.325   0.321  11.518  1.2576 -0.8481  0.0335
  767MOL0     C 3415   0.250   0.246  11.424  0.2443  0.3278  0.4459
  767MOL0     C 3416   0.115   0.198  11.456  1.2024 -0.4299  0.5280
  767MOL0     C 3417   0.053   0.236  11.579 -0.3898 -0.3012 -0.1676
  767MOL0     O 3418  -0.084   0.221  11.616 -0.4970 -0.0032  0.6478
  767MOL0     C 3419  -0.133   0.088  11.565  0.1864  0.0202 -0.5760
  767MOL0     C 3420  -0.271   0.068  11.632  0.1863  0.5554 -0.3286
  767MOL0     C 3421  -0.326  -0.072  11.610 -0.1106  0.2358 -0.8184
  767MOL0     C 3422  -0.442  -0.116  11.697  1.2283  0.6273 -0.4223
  767MOL0     C 3423  -0.501  -0.258  11.649  0.0876 -0.8688 -0.4054
  767MOL0     C 3424  -0.616  -0.297  11.739 -0.0798 -0.7272  0.3058
  767MOL0     C 3425  -0.647  -0.453  11.714  0.5477  0.4455  1.3397
  767MOL0     C 3426  -0.701  -0.533  11.832  0.4933 -0.3289 -0.3043
  767MOL0     N 3427  -0.836  -0.500  11.864  1.2040  0.2094  0.5225
  767MOL0     C 3428  -0.903  -0.569  11.960  0.7374  0.8298 -0.1426
  767MOL0     C 3429  -1.019  -0.494  11.981 -0.7248 -1.0089  0.0640
  767MOL0     C 3430  -1.122  -0.526  12.080  0.1341  1.2606 -0.2918
  767MOL0     C 3431  -1.243  -0.587  12.011 -0.0524  0.4073  0.3201
  767MOL0     C 3432  -1.350  -0.597  12.121 -0.4299 -0.2453 -0.0747
  767MOL0     C 3433  -1.489  -0.643  12.080 -0.4947 -0.2153 -0.3193
  767MOL0     O 3434  -1.486  -0.782  12.041  0.3821 -0.3038 -0.3327
  767MOL0     C 3435  -1.609  -0.839  12.000 -0.3588 -0.5630 -0.3735
  767MOL0     C 3436  -1.657  -0.810  11.873 -0.1646  0.1273  0.7695
  767MOL0     C 3437  -1.786  -0.848  11.829  0.3464  0.5733 -0.1970
  767MOL0     C 3438  -1.838  -0.799  11.692 -0.5757 -0.2789 -0.5573
  767MOL0     C 3439  -1.869  -0.922  11.923 -0.6147 -0.5649  0.5056
  767MOL0     C 3440  -2.016  -0.955  11.893  0.1333  0.3205 -0.2776
  767MOL0     O 3441  -2.094  -0.894  11.793  0.1589  0.1065 -0.5027
  767MOL0     C 3442  -2.206  -0.953  11.728  0.2839 -0.2643 -0.7703
  767MOL0     C 3443  -2.301  -1.041  11.781  0.5742 -0.4153 -0.0563
  767MOL0     C 3444  -2.405  -1.093  11.699  0.0017 -0.5716 -0.1707
  767MOL0     C 3445  -2.420  -1.047  11.566 -0.9939 -0.0635 -0.3225
  767MOL0     O 3446  -2.526  -1.097  11.495  0.1750 -0.3788  0.9353
  767MOL0     C 3447  -2.575  -1.030  11.376  0.2667 -0.6568 -0.4615
  767MOL0     C 3448  -2.711  -1.070  11.333  0.1459  0.9167 -0.0354
  767MOL0     C 3449  -2.802  -1.072  11.459  0.1567 -0.5647  0.3930
  767MOL0     C 3450  -2.825  -1.215  11.516  0.2301  0.7859  0.6521
  767MOL0     C 3451  -2.774  -1.232  11.655  0.0745  0.5494  1.3376
  767MOL0     C 3452  -2.783  -1.370  11.711 -1.4736  0.6630  0.0236
  767MOL0     C 3453  -2.715  -1.366  11.848  0.5701  0.0797 -0.9301
  767MOL0     C 3454  -2.640  -1.500  11.865 -0.7744  0.0650  0.3539
  767MOL0    Cl 3455  -2.747  -1.642  11.850  0.3803  0.0133 -0.4129
  767MOL0     C 3456  -2.327  -0.955  11.526  0.2002  0.2968 -0.7348
  767MOL0     C 3457  -2.226  -0.903  11.601 -0.9838  0.3586 -0.1002
  767MOL0     O 3458  -2.059  -1.037  11.968 -0.3532 -0.3104  0.1690
  767MOL0     C 3459  -1.820  -0.954  12.054  0.2591 -0.2203 -0.5821
  767MOL0     C 3460  -1.685  -0.914  12.091  0.0764 -1.0407 -0.9075
  767MOL0     N 3461  -1.011  -0.380  11.903 -0.2125  0.1071  0.3175
  767MOL0     N 3462  -0.904  -0.392  11.830  0.3591  1.2489  0.6670
  767MOL0     C 3463   0.128   0.304  11.668 -1.3604 -0.1870  0.0764
  767MOL0     C 3464   0.260   0.337  11.639 -0.8581 -0.3323  0.0672
  767MOL0     C 3465   0.598   0.505  11.359 -0.3663  0.8641  1.1456
  767MOL0     C 3466   0.697   0.479  11.444  0.3672 -0.4017 -1.0077
  767MOL0     C 3467   0.820   0.533  11.420  0.3838  0.2142 -0.2546
  767MOL0     C 3468   0.851   0.612  11.309  0.1607 -0.5065 -0.0543
  767MOL0     O 3469   0.963   0.673  11.290 -0.2111 -0.1567 -0.5453
  767MOL0     C 3470   1.049   0.682  11.412 -0.1539 -0.4804 -0.2577
  767MOL0     C 3471   1.160   0.789  11.393  0.3635  0.4266 -0.0423
  767MOL0     C 3472   1.284   0.724  11.346 -0.6000 -0.0276 -0.2366
  767MOL0     C 3473   1.369   0.660  11.463 -0.6277 -0.7985 -0.0177
  767MOL0     C 3474   1.429   0.761  11.549  0.1765 -0.1974  0.2545
  767MOL0     C 3475   1.492   0.839  11.620 -0.4850  0.1771 -0.5488
  767MOL0     C 3476   0.746   0.648  11.229  0.4740  0.3974 -0.3547
  767MOL0     C 3477   0.622   0.594  11.248 -0.1225  0.0523 -0.1791
  767MOL0     H 3478   0.290   0.203  11.333 -2.2518 -5.2826  1.5726
  767MOL0     H 3479   0.059   0.142  11.382  0.8032 -0.8819  1.1629
  767MOL0     H 3480  -0.150   0.074  11.458 -1.6052  3.2860 -0.8414
  767MOL0     H 3481  -0.062   0.008  11.591 -0.3526 -2.2023 -5.0344
  767MOL0     H 3482  -0.265   0.074  11.741 -1.0977 -1.2708 -0.1182
  767MOL0     H 3483  -0.340   0.146  11.596  0.9409  0.8603 -1.1586
  767MOL0     H 3484  -0.334  -0.101  11.505  3.0285 -0.6918 -0.9256
  767MOL0     H 3485  -0.254  -0.142  11.653 -1.0069 -0.6791 -0.7643
  767MOL0     H 3486  -0.403  -0.128  11.798  4.3393 -0.4061 -1.6219
  767MOL0     H 3487  -0.516  -0.036  11.697 -1.0398 -1.3316  0.2845
  767MOL0     H 3488  -0.532  -0.255  11.544  1.9464  0.4211 -0.9832
  767MOL0     H 3489  -0.423  -0.333  11.660 -0.4772 -1.4640 -0.4085
  767MOL0     H 3490  -0.585  -0.297  11.844 -0.2700 -1.3327  0.3677
  767MOL0     H 3491  -0.714  -0.249  11.731 -1.4607 -3.0401  1.9079
  767MOL0     H 3492  -0.709  -0.467  11.625  2.7396 -0.4741 -0.1383
  767MOL0     H 3493  -0.551  -0.502  11.697  0.9752  1.5347  0.4624
  767MOL0     H 3494  -0.632  -0.532  11.916  0.3480 -0.3411 -0.1836
  767MOL0     H 3495  -0.703  -0.635  11.793  1.3971 -0.1158 -0.9262
  767MOL0     H 3496  -0.875  -0.667  12.000  1.2532  1.5190  1.2644
  767MOL0     H 3497  -1.087  -0.606  12.146  1.5609  0.3192 -2.1080
  767MOL0     H 3498  -1.130  -0.431  12.134  0.4093  0.6184  0.9283
  767MOL0     H 3499  -1.226  -0.683  11.961 -1.9181 -0.5910  1.4795
  767MOL0     H 3500  -1.270  -0.530  11.922  0.9490  1.2661  0.5482
  767MOL0     H 3501  -1.362  -0.495  12.158 -0.7217 -0.2724 -0.0930
  767MOL0     H 3502  -1.317  -0.669  12.196  1.1468 -3.0105 -3.1717
  767MOL0     H 3503  -1.507  -0.579  11.993  0.4260  0.3411 -0.1179
  767MOL0     H 3504  -1.561  -0.628  12.161 -0.1433  1.3842 -0.2741
  767MOL0     H 3505  -1.587  -0.751  11.814  0.3266 -2.2418 -1.1739
  767MOL0     H 3506  -1.896  -0.710  11.717 -0.0099  0.7446 -2.6755
  767MOL0     H 3507  -1.752  -0.766  11.633  0.1009 -0.0507  0.5161
  767MOL0     H 3508  -1.898  -0.870  11.635 -0.4113  0.2141 -1.3579
  767MOL0     H 3509  -2.299  -1.063  11.888 -1.0758  2.3288  0.6634
  767MOL0     H 3510  -2.464  -1.171  11.746 -0.6459 -1.1877 -1.8994
  767MOL0     H 3511  -2.566  -0.922  11.391  0.7685 -0.9819  2.0339
  767MOL0     H 3512  -2.518  -1.059  11.287  1.4735 -2.8613  0.9341
  767MOL0     H 3513  -2.751  -1.007  11.253 -0.4773 -2.2056 -2.3753
  767MOL0     H 3514  -2.704  -1.171  11.291 -1.1720  1.8890 -2.8299
  767MOL0     H 3515  -2.899  -1.032  11.429 -0.8226 -2.4003  0.9108
  767MOL0     H 3516  -2.767  -1.003  11.536  1.1940 -2.2405  1.5068
  767MOL0     H 3517  -2.932  -1.235  11.525  0.4591 -0.7134  0.3132
  767MOL0     H 3518  -2.784  -1.291  11.449  0.7597  0.4241  1.3714
  767MOL0     H 3519  -2.831  -1.161  11.715 -2.1468  0.9819 -1.1339
  767MOL0     H 3520  -2.673  -1.189  11.657  0.3100  0.2724 -1.1644
  767MOL0     H 3521  -2.885  -1.409  11.716 -0.7149 -1.4541 -0.1015
  767MOL0     H 3522  -2.732  -1.440  11.644 -2.7735  1.7423 -2.2301
  767MOL0     H 3523  -2.784  -1.352  11.932 -1.4352 -1.6957 -2.1837
  767MOL0     H 3524  -2.645  -1.283  11.860 -2.4989  2.6057  1.2183
  767MOL0     H 3525  -2.596  -1.502  11.966 -1.1869  0.7293  0.5466
  767MOL0     H 3526  -2.562  -1.503  11.789 -0.4643  3.0658  0.4221
  767MOL0     H 3527  -2.347  -0.915  11.427 -2.8431  2.2843  0.5262
  767MOL0     H 3528  -2.156  -0.828  11.565  0.8038 -1.3185 -0.2341
  767MOL0     H 3529  -1.878  -0.995  12.136  0.4544  1.2595  0.3417
  767MOL0     H 3530  -1.648  -0.937  12.191 -3.3362 -0.3745  0.6574
  767MOL0     H 3531   0.084   0.329  11.764 -3.1620  1.6977 -1.1432
  767MOL0     H 3532   0.325   0.389  11.709  0.3219  1.9524 -2.5603
  767MOL0     H 3533   0.681   0.425  11.536  0.6962  1.7283  0.3612
  767MOL0     H 3534   0.892   0.493  11.491  0.9645  2.1683  0.2962
  767MOL0     H 3535   0.987   0.723  11.492  1.6266  2.3183 -0.1679
  767MOL0     H 3536   1.090   0.584  11.438  0.5863 -0.9099 -2.7935
  767MOL0     H 3537   1.169   0.836  11.491 -0.9673  0.8545 -0.0936
  767MOL0     H 3538   1.139   0.874  11.327  0.9309 -0.7947 -1.8910
  767MOL0     H 3539   1.336   0.809  11.301 -0.1143  1.2045  2.4338
  767MOL0     H 3540   1.247   0.660  11.266  0.0051  0.9133 -1.3092
  767MOL0     H 3541   1.463   0.610  11.439  0.1031 -0.4021  1.8676
  767MOL0     H 3542   1.298   0.591  11.510 -1.5958 -1.7550 -2.6637
  767MOL0     H 3543   1.545   0.912  11.677 -2.2738  2.5587 -1.7442
  767MOL0     H 3544   0.768   0.699  11.136  1.7381 -0.8623 -0.7822
  767MOL0     H 3545   0.545   0.622  11.177 -0.9121 -0.1290  0.5909
  768MOL0     O 3546  10.590   9.867  10.185  0.9397  0.0297 -0.0330
  768MOL0     C 3547  10.667   9.966  10.187 -0.8435  0.7521 -0.4007
  768MOL0     O 3548  10.642  10.089  10.136 -0.7884  0.3978  0.2480
  768MOL0     C 3549  10.517  10.117  10.086 -0.3981 -0.8430  0.3732
  768MOL0     C 3550  10.506  10.138   9.943  0.4007 -0.5189  0.6220
  768MOL0     C 3551  10.379  10.161   9.893  0.0689  0.7449 -0.2270
  768MOL0     C 3552  10.263  10.161   9.974  0.3259 -0.6704 -0.4495
  768MOL0     O 3553  10.134  10.181   9.941 -0.0696  0.6182 -0.0306
  768MOL0     C 3554  10.098  10.157   9.808  0.3783  0.2109  0.0267
  768MOL0     C 3555   9.975  10.238   9.778  0.3433  0.6407 -0.2406
  768MOL0     C 3556   9.960  10.255   9.624 -0.7837 -0.7303 -0.1519
  768MOL0     C 3557   9.816  10.237   9.568 -0.0941 -0.4148 -0.0438
  768MOL0     C 3558   9.771  10.086   9.591  0.0622  0.0864  0.6632
  768MOL0     C 3559   9.628  10.078   9.540 -0.6754  0.5481 -0.3560
  768MOL0     C 3560   9.588   9.935   9.564  0.3460 -0.8724 -0.6594
  768MOL0     C 3561   9.456   9.903   9.507 -0.4575 -0.1026  0.0571
  768MOL0     N 3562   9.341   9.931   9.594  0.0765 -0.7999  0.2290
  768MOL0     C 3563   9.312   9.857   9.701 -1.0423 -0.0640 -0.4897
  768MOL0     C 3564   9.211   9.918   9.761 -0.1261  0.5392  0.2484
  768MOL0     C 3565   9.135   9.875   9.886  0.2111  0.3502  0.2599
  768MOL0     C 3566   8.982   9.875   9.861 -0.4272  0.0774 -0.0645
  768MOL0     C 3567   8.915   9.802   9.974  0.1302  0.3552 -0.0258
  768MOL0     C 3568   8.762   9.795   9.975  0.3205  0.1663  0.6706
  768MOL0     O 3569   8.714   9.671   9.912 -0.4521  0.0143 -0.2934
  768MOL0     C 3570   8.582   9.630   9.927  0.4290 -0.0988  0.2295
  768MOL0     C 3571   8.551   9.510   9.868 -0.2179  0.9992  0.8520
  768MOL0     C 3572   8.425   9.452   9.870  0.9019 -0.3853 -0.5210
  768MOL0     C 3573   8.405   9.316   9.821  0.0053  0.3738  1.2138
  768MOL0     C 3574   8.314   9.519   9.935  0.3727  0.4698  0.0966
  768MOL0     C 3575   8.183   9.454   9.937 -0.4486  0.6267  0.6641
  768MOL0     O 3576   8.080   9.483   9.854 -0.4316 -0.3962  0.6278
  768MOL0     C 3577   8.101   9.567   9.747 -0.9223  0.1666 -0.5673
  768MOL0     C 3578   8.172   9.523   9.633  0.3232 -0.1942 -0.5500
  768MOL0     C 3579   8.202   9.611   9.523  0.5380 -0.2554 -0.3696
  768MOL0     C 3580   8.134   9.744   9.516 -0.7501  1.3858 -0.1908
  768MOL0     O 3581   8.143   9.839   9.413 -0.9725  0.4135 -0.6508
  768MOL0     C 3582   8.224   9.816   9.300  0.3139  0.0597 -0.5317
  768MOL0     C 3583   8.186   9.915   9.191 -0.7128 -0.5017  0.6250
  768MOL0     C 3584   8.035   9.930   9.166 -0.9177  0.4907 -0.0669
  768MOL0     C 3585   8.024  10.052   9.076 -0.7602  0.4735  0.2657
  768MOL0     C 3586   7.884  10.054   9.022  1.1194 -0.6289  0.3328
  768MOL0     C 3587   7.788  10.142   9.109  0.4375  1.1523  0.5158
  768MOL0     C 3588   7.643  10.119   9.063  1.0232 -0.3232 -0.1484
  768MOL0     C 3589   7.546  10.229   9.083 -0.3893  0.1054  0.0752
  768MOL0    Cl 3590   7.544  10.356   8.952 -0.0098  0.1063  0.1328
  768MOL0     C 3591   8.076   9.778   9.639  0.6562  0.3003  0.0779
  768MOL0     C 3592   8.061   9.698   9.749  0.0224 -0.1558 -0.3837
  768MOL0     O 3593   8.172   9.384  10.038 -0.3680 -0.4197 -0.0870
  768MOL0     C 3594   8.346   9.641   9.993  0.2421 -0.1893  0.1024
  768MOL0     C 3595   8.481   9.689   9.998  0.6180  0.5511  0.3484
  768MOL0     N 3596   9.181  10.032   9.690  0.1183  0.2013 -0.2903
  768MOL0     N 3597   9.260  10.043   9.594 -0.0766  0.5604 -0.3440
  768MOL0     C 3598  10.284  10.145  10.111  0.2734  0.7006  0.8998
  768MOL0     C 3599  10.408  10.130  10.172 -0.3291 -1.0287  0.0339
  768MOL0     C 3600  10.788   9.939  10.262 -0.9854  0.6380 -0.3282
  768MOL0     C 3601  10.813   9.812  10.326  0.4982 -0.2513 -0.1645
  768MOL0     C 3602  10.928   9.794  10.398  0.6729  0.1035 -0.4944
  768MOL0     C 3603  11.032   9.892  10.412  0.1565 -0.2962 -0.0230
  768MOL0     O 3604  11.131   9.858  10.497 -0.6732  0.1513  0.2287
  768MOL0     C 3605  11.229   9.960  10.529  0.0360 -0.0061  0.5289
  768MOL0     C 3606  11.168  10.064  10.622 -0.4082  0.6685  0.0413
  768MOL0     C 3607  11.043  10.013  10.710 -0.0046 -1.0306 -0.1499
  768MOL0     C 3608  11.080   9.890  10.801 -0.0609 -0.1184 -0.7264
  768MOL0     C 3609  11.148   9.931  10.929 -0.2322  0.3209 -0.0771
  768MOL0     C 3610  11.196   9.980  11.024 -0.3346  0.1918  0.4368
  768MOL0     C 3611  11.009  10.010  10.338 -0.4666  0.2692 -0.7914
  768MOL0     C 3612  10.885  10.039  10.268  0.8293  0.6156 -0.4781
  768MOL0     H 3613  10.589  10.135   9.873 -0.3962  2.6928 -0.6379
  768MOL0     H 3614  10.366  10.186   9.788 -0.6895  1.7488  0.0870
  768MOL0     H 3615  10.176  10.184   9.737  1.3056 -1.7410  0.2539
  768MOL0     H 3616  10.070  10.052   9.797  1.8773  0.0011 -2.4465
  768MOL0     H 3617   9.891  10.178   9.815  0.1705 -1.3373 -3.4097
  768MOL0     H 3618   9.965  10.334   9.827  0.0035  0.4435  0.0816
  768MOL0     H 3619   9.998  10.351   9.587  1.0698 -1.9774 -1.7514
  768MOL0     H 3620  10.031  10.182   9.583  4.2277  1.1806  3.9715
  768MOL0     H 3621   9.748  10.308   9.615  2.4732  1.2062  1.5230
  768MOL0     H 3622   9.825  10.256   9.461 -1.0242 -0.8367 -0.2002
  768MOL0     H 3623   9.844  10.029   9.532 -0.1589 -1.3736  1.7669
  768MOL0     H 3624   9.786  10.049   9.692  0.5308  0.6183  0.7944
  768MOL0     H 3625   9.574  10.138   9.614 -2.0541  0.1732 -1.0280
  768MOL0     H 3626   9.622  10.108   9.436  0.2297 -1.1827 -0.9534
  768MOL0     H 3627   9.661   9.861   9.529 -0.7464 -2.1544 -0.3327
  768MOL0     H 3628   9.583   9.919   9.672 -2.7924 -0.8477 -0.6966
  768MOL0     H 3629   9.451   9.796   9.487  3.1425 -0.3384 -0.0776
  768MOL0     H 3630   9.435   9.950   9.411 -1.6381 -0.3287  0.1872
  768MOL0     H 3631   9.356   9.762   9.730 -1.3605  0.5108  2.1667
  768MOL0     H 3632   9.172   9.774   9.907 -2.3068 -0.8406 -0.5901
  768MOL0     H 3633   9.165   9.947   9.963 -1.8494  1.2368  0.3070
  768MOL0     H 3634   8.956   9.832   9.764 -2.0743 -0.6174  0.6343
  768MOL0     H 3635   8.955   9.981   9.856 -0.7409 -0.0294 -0.8266
  768MOL0     H 3636   8.942   9.860  10.063 -0.7145 -0.1363  0.5620
  768MOL0     H 3637   8.950   9.698   9.974 -2.8728 -0.7596 -0.4001
  768MOL0     H 3638   8.720   9.879   9.918  0.2376 -0.2734  0.0774
  768MOL0     H 3639   8.736   9.808  10.081 -0.6360 -2.1348  0.7738
  768MOL0     H 3640   8.627   9.446   9.824 -0.8602 -1.3154  2.8660
  768MOL0     H 3641   8.362   9.312   9.721  3.0045 -1.6112 -0.1556
  768MOL0     H 3642   8.492   9.251   9.806 -2.6399 -2.7359 -3.3157
  768MOL0     H 3643   8.341   9.258   9.889 -2.1134  1.8303  0.5381
  768MOL0     H 3644   8.201   9.420   9.617  0.2837 -0.1322 -1.0318
  768MOL0     H 3645   8.262   9.578   9.440  1.5876  1.5278 -0.3644
  768MOL0     H 3646   8.331   9.829   9.318 -0.3889  2.2282  3.0990
  768MOL0     H 3647   8.202   9.721   9.250  1.5582  0.5180 -1.9985
  768MOL0     H 3648   8.231  10.014   9.203 -1.2395 -0.1611 -0.0626
  768MOL0     H 3649   8.217   9.868   9.097 -2.4202 -3.9580  1.6158
  768MOL0     H 3650   7.972   9.944   9.254 -0.8071  0.0786  0.0796
  768MOL0     H 3651   8.003   9.854   9.094 -0.3719  1.3384 -1.2509
  768MOL0     H 3652   8.053  10.145   9.127  2.4003  1.1013 -2.3435
  768MOL0     H 3653   8.098  10.034   8.997 -2.7781 -2.9155 -1.0639
  768MOL0     H 3654   7.833   9.957   9.015 -1.4894  0.7690 -1.8930
  768MOL0     H 3655   7.877  10.095   8.921 -2.7846  0.8756  1.0531
  768MOL0     H 3656   7.804  10.113   9.213  3.2502  1.2139  0.1646
  768MOL0     H 3657   7.809  10.249   9.102  0.5431  1.4395  3.8465
  768MOL0     H 3658   7.608  10.028   9.113  1.6645  0.6628  2.2381
  768MOL0     H 3659   7.639  10.096   8.956 -0.7182 -0.7743 -0.0059
  768MOL0     H 3660   7.561  10.276   9.181  0.7390  0.0284 -0.0479
  768MOL0     H 3661   7.446  10.185   9.079 -0.6397  0.7641 -1.0923
  768MOL0     H 3662   8.025   9.873   9.652  0.8443  0.3039  0.8176
  768MOL0     H 3663   8.008   9.730   9.838  1.9507 -1.1737  1.1951
  768MOL0     H 3664   8.273   9.701  10.047  1.0429 -0.8905  2.0646
  768MOL0     H 3665   8.497   9.778  10.057  0.4766  1.0337 -0.3213
  768MOL0     H 3666  10.196  10.177  10.168  0.7036  1.0513  1.3760
  768MOL0     H 3667  10.424  10.128  10.279  3.5217 -0.5548 -0.3913
  768MOL0     H 3668  10.742   9.730  10.330  0.8148 -0.7098 -2.5491
  768MOL0     H 3669  10.929   9.701  10.453  1.9832 -0.0734 -0.7981
  768MOL0     H 3670  11.302   9.907  10.590  1.9966 -0.2393 -1.8630
  768MOL0     H 3671  11.274  10.009  10.442  1.0025 -2.5982 -0.5321
  768MOL0     H 3672  11.121  10.142  10.562  0.0797 -0.1068 -1.4043
  768MOL0     H 3673  11.243  10.121  10.678 -2.4523  3.9173 -0.2675
  768MOL0     H 3674  10.955   9.992  10.649 -0.7818  2.6369 -0.5135
  768MOL0     H 3675  11.013  10.097  10.773  2.9755  0.2963 -0.3382
  768MOL0     H 3676  11.156   9.830  10.750  1.6259  2.2765 -1.2425
  768MOL0     H 3677  10.992   9.828  10.817 -0.4132  0.7360  0.8733
  768MOL0     H 3678  11.232  10.031  11.111  2.3335  1.0245 -1.0530
  768MOL0     H 3679  11.088  10.084  10.349  0.2035 -0.6951  1.5332
  768MOL0     H 3680  10.884  10.135  10.218 -0.8943  2.0192  2.0789
  769MOL0     O 3681   9.826   5.180   5.752 -0.0403 -0.1830 -0.2642
  769MOL0     C 3682   9.922   5.222   5.821 -0.5302 -0.3713 -0.4532
  769MOL0     O 3683   9.978   5.338   5.821 -0.3669  0.1145 -0.3232
  769MOL0     C 3684   9.940   5.437   5.739  0.3364  0.3496  0.0090
  769MOL0     C 3685   9.948   5.565   5.792  0.4383  0.5547  0.2005
  769MOL0     C 3686   9.935   5.677   5.707  1.2420 -0.3256 -0.6848
  769MOL0     C 3687   9.892   5.654   5.570 -0.2851  0.8387 -0.2161
  769MOL0     O 3688   9.853   5.754   5.486  0.9380  0.3289 -0.2283
  769MOL0     C 3689   9.715   5.779   5.498  0.4146 -0.4389 -0.7611
  769MOL0     C 3690   9.659   5.883   5.403 -0.6515  0.1293  0.7695
  769MOL0     C 3691   9.515   5.921   5.429 -0.2177  0.0001 -0.7941
  769MOL0     C 3692   9.442   6.004   5.314  0.5029  1.1443 -0.2856
  769MOL0     C 3693   9.282   6.008   5.329  0.7993  0.7326 -0.7808
  769MOL0     C 3694   9.198   6.008   5.200 -0.6698  0.2765 -0.1942
  769MOL0     C 3695   9.055   5.973   5.229 -0.1511  0.7166  0.1041
  769MOL0     C 3696   8.982   5.973   5.092 -0.4108  0.1530  0.4146
  769MOL0     N 3697   8.838   5.945   5.097  0.0411 -0.1285 -0.2493
  769MOL0     C 3698   8.776   5.862   5.181 -0.2798  0.3608  0.2816
  769MOL0     C 3699   8.649   5.861   5.150 -0.1196  0.7536  1.0449
  769MOL0     C 3700   8.543   5.799   5.229  0.0617  0.4216  0.7516
  769MOL0     C 3701   8.469   5.910   5.305  0.8728  0.2702 -0.1161
  769MOL0     C 3702   8.365   5.861   5.411 -0.1086 -0.4424  0.0483
  769MOL0     C 3703   8.265   5.962   5.460 -0.2114  0.1222 -0.7815
  769MOL0     O 3704   8.337   6.069   5.505 -0.2239 -0.7888  0.1725
  769MOL0     C 3705   8.273   6.162   5.585 -0.7945  0.1660 -0.8853
  769MOL0     C 3706   8.130   6.166   5.614 -0.0380 -0.3039 -0.5402
  769MOL0     C 3707   8.078   6.263   5.702  0.1748  0.1096 -0.1661
  769MOL0     C 3708   7.918   6.274   5.713 -0.3903 -0.1645  0.4636
  769MOL0     C 3709   8.161   6.361   5.760  0.8359  0.6376  0.5746
  769MOL0     C 3710   8.121   6.476   5.844 -0.5562  0.7322 -0.6122
  769MOL0     O 3711   8.209   6.522   5.933 -0.5995 -0.8087 -0.1587
  769MOL0     C 3712   8.204   6.651   5.981 -0.7273  0.1894 -0.0140
  769MOL0     C 3713   8.201   6.762   5.899 -0.2884 -0.1801 -0.7636
  769MOL0     C 3714   8.163   6.886   5.962 -0.4978  0.4862 -0.0164
  769MOL0     C 3715   8.148   6.905   6.096 -0.1783 -0.1819 -0.1957
  769MOL0     O 3716   8.117   7.023   6.152  0.6752  0.0675 -0.4550
  769MOL0     C 3717   8.223   7.119   6.176  0.8327 -0.1056 -0.3155
  769MOL0     C 3718   8.336   7.069   6.274  0.0800 -0.9056  0.2643
  769MOL0     C 3719   8.437   6.987   6.203 -0.1712 -0.2086  0.3695
  769MOL0     C 3720   8.583   7.047   6.206 -0.0950  0.4587 -0.1725
  769MOL0     C 3721   8.674   6.925   6.153  0.0206  0.3488 -0.3852
  769MOL0     C 3722   8.821   6.970   6.112  0.3940 -0.1764 -0.6149
  769MOL0     C 3723   8.892   7.041   6.218  0.5143  0.5835 -0.0805
  769MOL0     C 3724   9.032   7.093   6.176  0.4307  0.0178  1.4318
  769MOL0    Cl 3725   9.018   7.229   6.060 -0.2920  0.2711  0.5163
  769MOL0     C 3726   8.169   6.785   6.179  1.2053 -0.9051  0.2521
  769MOL0     C 3727   8.201   6.659   6.123  0.5440  0.2456 -0.7903
  769MOL0     O 3728   8.017   6.531   5.818 -0.3723 -0.1965  0.3916
  769MOL0     C 3729   8.300   6.359   5.722 -0.1545 -0.1825 -0.4447
  769MOL0     C 3730   8.355   6.263   5.635 -0.2711 -0.1466  0.0114
  769MOL0     N 3731   8.629   5.951   5.045  0.2699  0.0368 -0.3595
  769MOL0     N 3732   8.746   5.993   5.011  0.0072 -0.3722  0.5843
  769MOL0     C 3733   9.894   5.530   5.515  1.4532 -0.7910 -0.1848
  769MOL0     C 3734   9.918   5.419   5.601 -0.0343 -0.2565 -0.1087
  769MOL0     C 3735   9.971   5.120   5.919 -0.0107  0.7211 -0.8965
  769MOL0     C 3736  10.087   5.137   5.992 -0.0906  0.2196 -0.4162
  769MOL0     C 3737  10.136   5.034   6.083  0.6399 -0.8796  0.7508
  769MOL0     C 3738  10.068   4.918   6.091  0.5610  0.2471 -0.2945
  769MOL0     O 3739  10.118   4.824   6.174  0.0427  0.0544  0.0583
  769MOL0     C 3740  10.074   4.688   6.162  0.4871  0.5307 -0.6007
  769MOL0     C 3741  10.117   4.624   6.035  0.4058  0.4081  0.4311
  769MOL0     C 3742  10.269   4.635   6.013  0.0262  0.3689 -0.4448
  769MOL0     C 3743  10.325   4.528   5.919  0.2528 -0.1527  0.1559
  769MOL0     C 3744  10.315   4.387   5.979  0.9562  0.3568  0.6321
  769MOL0     C 3745  10.293   4.270   6.027  0.4424 -1.5408 -0.5493
  769MOL0     C 3746   9.955   4.905   6.024  0.6600  0.0613  0.3444
  769MOL0     C 3747   9.901   5.002   5.942 -0.2259 -0.3190  0.6022
  769MOL0     H 3748   9.956   5.567   5.900 -0.2779 -0.4375  0.2855
  769MOL0     H 3749   9.938   5.783   5.732 -2.0165  0.0714 -1.4359
  769MOL0     H 3750   9.654   5.691   5.476  0.6005 -0.2837 -1.9272
  769MOL0     H 3751   9.695   5.816   5.599 -2.5405  1.6944 -1.9800
  769MOL0     H 3752   9.713   5.977   5.412 -1.4058  0.4757  1.8648
  769MOL0     H 3753   9.668   5.840   5.303 -0.6763  3.0665 -0.5872
  769MOL0     H 3754   9.451   5.833   5.437  0.2707 -0.2288  1.3626
  769MOL0     H 3755   9.496   5.982   5.518 -1.2862 -0.9568 -0.3442
  769MOL0     H 3756   9.487   6.103   5.305  0.5587  1.1518  0.0766
  769MOL0     H 3757   9.471   5.954   5.221  2.9718  2.5941 -0.3964
  769MOL0     H 3758   9.253   5.921   5.388 -1.4164 -0.3295 -3.2194
  769MOL0     H 3759   9.255   6.092   5.393  2.1812 -0.7281  1.8884
  769MOL0     H 3760   9.195   6.111   5.163 -1.0263  0.1746 -0.4501
  769MOL0     H 3761   9.244   5.943   5.126  0.3355 -0.9422  1.4241
  769MOL0     H 3762   9.050   5.877   5.282  2.5878 -1.5203 -3.2107
  769MOL0     H 3763   9.026   6.062   5.285 -1.3139  1.8686 -2.1654
  769MOL0     H 3764   9.025   5.895   5.029 -0.1682 -0.0082  0.7778
  769MOL0     H 3765   8.994   6.072   5.047  0.5464 -0.8668 -1.7674
  769MOL0     H 3766   8.820   5.801   5.260 -2.0131 -0.3426  0.7327
  769MOL0     H 3767   8.477   5.739   5.166  1.0860  0.0394  0.0156
  769MOL0     H 3768   8.596   5.732   5.297  0.1328 -0.7946 -0.4706
  769MOL0     H 3769   8.414   5.971   5.233 -0.2568  0.3710  0.8120
  769MOL0     H 3770   8.545   5.972   5.354 -2.0097  4.0942  0.0071
  769MOL0     H 3771   8.424   5.823   5.494  2.2142  0.5086 -1.0742
  769MOL0     H 3772   8.303   5.781   5.370 -2.1120  0.7743  0.5932
  769MOL0     H 3773   8.197   5.925   5.537  1.3954 -0.8582  0.2091
  769MOL0     H 3774   8.196   5.986   5.378 -0.4872  3.1967  0.2039
  769MOL0     H 3775   8.062   6.090   5.576  2.6272 -3.3987  0.4602
  769MOL0     H 3776   7.875   6.187   5.663 -1.8903 -0.4769  2.1624
  769MOL0     H 3777   7.881   6.274   5.816  1.9268  1.9523  1.3940
  769MOL0     H 3778   7.872   6.359   5.662 -2.2160 -1.1862  0.3330
  769MOL0     H 3779   8.210   6.767   5.791 -0.9672  2.0148 -0.7820
  769MOL0     H 3780   8.143   6.971   5.898  0.2581  1.4874  1.0464
  769MOL0     H 3781   8.260   7.148   6.077 -0.0531 -2.3335 -1.3701
  769MOL0     H 3782   8.185   7.209   6.223  0.1834  0.8652 -2.5580
  769MOL0     H 3783   8.383   7.159   6.315  0.1071 -0.7377 -0.1281
  769MOL0     H 3784   8.283   7.017   6.354 -0.5485 -1.2631 -0.3686
  769MOL0     H 3785   8.395   6.982   6.103  1.0532  0.0834 -0.1788
  769MOL0     H 3786   8.452   6.890   6.251  1.3884 -0.7268 -1.0733
  769MOL0     H 3787   8.591   7.131   6.136 -0.0739  0.6404  0.0499
  769MOL0     H 3788   8.613   7.082   6.305 -2.2564  1.5454  0.1658
  769MOL0     H 3789   8.622   6.885   6.066 -3.0043 -0.2383  1.5450
  769MOL0     H 3790   8.697   6.843   6.222  1.2350  1.5800  0.7427
  769MOL0     H 3791   8.867   6.874   6.089 -1.0462 -0.6525 -1.6978
  769MOL0     H 3792   8.822   7.020   6.014  0.4875 -1.5204 -1.3197
  769MOL0     H 3793   8.899   6.983   6.310 -0.4728  1.3613  0.5091
  769MOL0     H 3794   8.824   7.124   6.240  0.4948  1.2302 -2.3052
  769MOL0     H 3795   9.096   7.016   6.132  3.1076  3.0241 -0.3213
  769MOL0     H 3796   9.086   7.135   6.262 -0.0598  3.3652  0.2371
  769MOL0     H 3797   8.155   6.794   6.286  1.7366 -0.0637  0.2580
  769MOL0     H 3798   8.213   6.570   6.183  2.5447  0.4824 -0.7791
  769MOL0     H 3799   8.368   6.439   5.749  0.3790 -0.0961 -1.9348
  769MOL0     H 3800   8.462   6.266   5.614 -0.3802 -0.6320 -0.6558
  769MOL0     H 3801   9.873   5.532   5.408  0.6289 -0.5473 -0.0289
  769MOL0     H 3802   9.939   5.320   5.561 -0.8467 -0.9024  0.9895
  769MOL0     H 3803  10.139   5.231   5.980 -0.3369  0.7276  2.0687
  769MOL0     H 3804  10.220   5.057   6.147 -0.6304  1.8518  1.6094
  769MOL0     H 3805  10.118   4.626   6.241  2.1527  0.6127 -1.4308
  769MOL0     H 3806   9.966   4.672   6.170  0.7019 -1.0847 -0.5774
  769MOL0     H 3807  10.060   4.663   5.951  1.9335  0.0614 -0.8014
  769MOL0     H 3808  10.086   4.519   6.047  0.7899  0.4395  1.8831
  769MOL0     H 3809  10.315   4.613   6.110  0.8665  3.2807 -0.0624
  769MOL0     H 3810  10.304   4.731   5.974 -0.3824  0.8349  0.3252
  769MOL0     H 3811  10.425   4.554   5.884  0.3949 -1.2034 -0.2685
  769MOL0     H 3812  10.255   4.532   5.835  0.6194  0.6537 -0.1111
  769MOL0     H 3813  10.256   4.174   6.057 -1.7635 -0.2396  1.2007
  769MOL0     H 3814   9.889   4.819   6.030  0.2908  0.2530 -0.7429
  769MOL0     H 3815   9.803   4.992   5.896  0.3348 -1.9538 -0.2971
  770MOL0     O 3816   0.932   0.603   9.471  0.1595 -0.1704  0.2889
  770MOL0     C 3817   0.961   0.496   9.519  0.2142  0.5230  0.9887
  770MOL0     O 3818   0.880   0.411   9.586  0.8711 -0.7689 -0.1440
  770MOL0     C 3819   0.755   0.457   9.583  0.6356 -0.1347 -0.3668
  770MOL0     C 3820   0.651   0.401   9.498 -0.1744  1.0436  0.0027
  770MOL0     C 3821   0.520   0.453   9.501  0.0836  1.2748  0.3956
  770MOL0     C 3822   0.486   0.551   9.586  0.1535  1.4142 -0.3299
  770MOL0     O 3823   0.363   0.603   9.568 -0.3615 -0.0654 -1.0040
  770MOL0     C 3824   0.359   0.746   9.587  1.5055 -0.2689 -0.1496
  770MOL0     C 3825   0.242   0.810   9.517 -0.0167  0.5972  1.2489
  770MOL0     C 3826   0.252   0.958   9.519 -0.7558 -0.4847  0.4994
  770MOL0     C 3827   0.139   1.035   9.443  0.1046  0.4755  0.2649
  770MOL0     C 3828   0.012   1.028   9.509 -0.2410  0.5277 -0.0590
  770MOL0     C 3829  -0.085   1.112   9.423 -0.0672 -0.1098 -0.3758
  770MOL0     C 3830  -0.224   1.100   9.487  0.5500  0.1365  1.1768
  770MOL0     C 3831  -0.333   1.150   9.390 -0.7270 -0.0873 -0.1626
  770MOL0     N 3832  -0.378   1.047   9.296  0.5824 -0.4853 -0.3193
  770MOL0     C 3833  -0.457   0.945   9.333  0.4741  0.1903  0.5136
  770MOL0     C 3834  -0.494   0.894   9.214 -0.5134  0.0655  0.5443
  770MOL0     C 3835  -0.573   0.776   9.187 -0.0279 -0.2629 -0.9792
  770MOL0     C 3836  -0.723   0.764   9.233 -1.2447 -0.4146  0.1685
  770MOL0     C 3837  -0.748   0.812   9.376  0.2741  0.9086 -0.3536
  770MOL0     C 3838  -0.858   0.726   9.446 -0.4339  0.0978 -0.1095
  770MOL0     O 3839  -0.906   0.789   9.563  0.3373 -0.3047 -0.4365
  770MOL0     C 3840  -1.008   0.886   9.545  0.4660  0.0006 -1.2320
  770MOL0     C 3841  -1.059   0.939   9.431 -0.3294  0.6023  0.0267
  770MOL0     C 3842  -1.182   1.011   9.430 -0.2419  0.5984  0.1685
  770MOL0     C 3843  -1.232   1.042   9.297  0.3006 -0.4519  1.0484
  770MOL0     C 3844  -1.229   1.066   9.554 -0.2611  0.9388  0.3944
  770MOL0     C 3845  -1.344   1.168   9.561  0.2137  0.3259 -0.5251
  770MOL0     O 3846  -1.387   1.193   9.690  0.0873  0.5386 -0.1964
  770MOL0     C 3847  -1.478   1.295   9.713  0.4292 -0.1566 -0.6160
  770MOL0     C 3848  -1.603   1.307   9.651  0.8288  1.0146  0.3047
  770MOL0     C 3849  -1.701   1.394   9.697  0.5898 -0.2923 -0.3486
  770MOL0     C 3850  -1.671   1.479   9.811  0.1847 -0.1566  0.5374
  770MOL0     O 3851  -1.773   1.569   9.838 -0.8015 -0.3256 -0.4765
  770MOL0     C 3852  -1.779   1.626   9.971 -0.0963  0.5606  0.6783
  770MOL0     C 3853  -1.901   1.716   9.973  0.6239  0.8015 -0.0072
  770MOL0     C 3854  -1.907   1.806  10.101 -0.3780  0.8170 -0.5674
  770MOL0     C 3855  -2.013   1.913  10.077  0.3952 -0.5639 -0.4155
  770MOL0     C 3856  -2.063   1.962  10.211  0.5311  0.4918  0.5076
  770MOL0     C 3857  -2.151   2.097  10.192 -0.2097  0.6453  0.4653
  770MOL0     C 3858  -2.261   2.085  10.095  0.9567  0.2021 -0.2913
  770MOL0     C 3859  -2.338   2.219  10.093 -1.0962 -0.1674 -0.1988
  770MOL0    Cl 3860  -2.222   2.334  10.030 -0.2184  0.0478  0.1963
  770MOL0     C 3861  -1.545   1.462   9.877  0.2682  0.6968  0.1862
  770MOL0     C 3862  -1.449   1.374   9.830  0.4232  0.0357 -0.5905
  770MOL0     O 3863  -1.391   1.217   9.458  0.1445 -0.1909 -0.2724
  770MOL0     C 3864  -1.168   1.022   9.672  0.0803 -0.0445  0.1351
  770MOL0     C 3865  -1.071   0.925   9.673 -0.1785  0.3817  0.5181
  770MOL0     N 3866  -0.438   0.965   9.104  0.5336 -0.6197  0.3403
  770MOL0     N 3867  -0.373   1.062   9.165 -0.0898 -0.8540  0.3880
  770MOL0     C 3868   0.580   0.607   9.675 -0.5760 -0.4043  0.3869
  770MOL0     C 3869   0.711   0.557   9.672 -0.3300 -0.4730  0.5368
  770MOL0     C 3870   1.112   0.460   9.516  0.3348 -0.0399 -0.3565
  770MOL0     C 3871   1.205   0.531   9.430  0.4580  0.4367  0.0911
  770MOL0     C 3872   1.339   0.492   9.431 -0.1463  0.1045 -0.1091
  770MOL0     C 3873   1.387   0.406   9.537  0.7645  0.0039 -0.5558
  770MOL0     O 3874   1.517   0.391   9.555  1.0248 -0.1731  0.6887
  770MOL0     C 3875   1.574   0.260   9.571  0.1948 -0.8023 -0.2299
  770MOL0     C 3876   1.730   0.274   9.562 -0.0600  0.1024 -0.3338
  770MOL0     C 3877   1.782   0.327   9.437 -1.1162  0.1666 -0.7230
  770MOL0     C 3878   1.917   0.274   9.374  0.4598  0.1531 -0.1388
  770MOL0     C 3879   2.022   0.305   9.468  0.6330  0.0145 -0.1542
  770MOL0     C 3880   2.138   0.307   9.510  0.3185  1.1286 -0.1429
  770MOL0     C 3881   1.295   0.349   9.623  0.6110 -0.2336 -0.4093
  770MOL0     C 3882   1.155   0.366   9.605  0.8700 -0.6936  0.4770
  770MOL0     H 3883   0.686   0.317   9.438  1.1644  1.6216 -0.0666
  770MOL0     H 3884   0.450   0.408   9.432  0.7263  0.1075  0.4789
  770MOL0     H 3885   0.356   0.764   9.695 -1.7973  2.2611 -0.5014
  770MOL0     H 3886   0.448   0.799   9.552  3.5227 -3.9675 -1.1363
  770MOL0     H 3887   0.247   0.783   9.411 -2.7413  0.8353  0.9731
  770MOL0     H 3888   0.150   0.774   9.565  2.1577 -2.7126  3.2751
  770MOL0     H 3889   0.255   1.001   9.619  0.0165 -0.2232  0.3750
  770MOL0     H 3890   0.348   0.982   9.471 -1.6423 -2.3054 -2.4643
  770MOL0     H 3891   0.176   1.138   9.443  3.1996 -0.5088  0.8759
  770MOL0     H 3892   0.126   1.000   9.340  0.4654 -0.1350  0.4191
  770MOL0     H 3893  -0.026   0.925   9.505  1.5792 -0.2438  0.9687
  770MOL0     H 3894   0.010   1.079   9.606  1.3861  0.9190 -0.1986
  770MOL0     H 3895  -0.052   1.216   9.426 -0.3514 -0.0186 -0.3773
  770MOL0     H 3896  -0.081   1.074   9.320 -0.4874 -0.4589 -0.2652
  770MOL0     H 3897  -0.257   0.996   9.496 -2.3577  0.6457 -1.6622
  770MOL0     H 3898  -0.233   1.161   9.577  2.9693  1.0907  0.8365
  770MOL0     H 3899  -0.290   1.236   9.337  0.6147  0.0948  1.1580
  770MOL0     H 3900  -0.422   1.182   9.446 -0.8034 -3.0244  1.5565
  770MOL0     H 3901  -0.476   0.902   9.431  1.5487  0.7661  0.9965
  770MOL0     H 3902  -0.568   0.767   9.078  0.2973 -0.7792 -0.9268
  770MOL0     H 3903  -0.515   0.699   9.239  1.3454  0.7198 -0.9864
  770MOL0     H 3904  -0.763   0.666   9.206 -1.2002 -0.0568 -1.2838
  770MOL0     H 3905  -0.775   0.837   9.169  0.8972  2.6631  1.6474
  770MOL0     H 3906  -0.770   0.919   9.381  1.9292  1.2021  1.2693
  770MOL0     H 3907  -0.657   0.789   9.432 -1.0445 -2.7758  0.5181
  770MOL0     H 3908  -0.826   0.625   9.475  0.6267  1.1679  2.7401
  770MOL0     H 3909  -0.937   0.720   9.370 -1.1918  0.2685  0.6420
  770MOL0     H 3910  -1.021   0.909   9.334 -1.6520  1.1552 -0.6883
  770MOL0     H 3911  -1.164   1.009   9.218 -2.2404 -1.7262 -0.7775
  770MOL0     H 3912  -1.333   1.019   9.262  0.9368  3.1316 -4.4515
  770MOL0     H 3913  -1.228   1.151   9.288  1.4419 -0.6339 -1.5044
  770MOL0     H 3914  -1.637   1.233   9.579  0.2372  1.4644  0.1121
  770MOL0     H 3915  -1.803   1.406   9.661 -1.9317 -2.2460  5.0073
  770MOL0     H 3916  -1.788   1.544  10.044  2.5538  1.2965  1.9518
  770MOL0     H 3917  -1.689   1.683   9.994 -0.3742  1.2378  0.1034
  770MOL0     H 3918  -1.907   1.791   9.893 -3.4458  0.6649 -0.0085
  770MOL0     H 3919  -1.990   1.654   9.968  2.6938 -2.2742 -1.7140
  770MOL0     H 3920  -1.807   1.844  10.121  0.1090 -0.7746  0.1551
  770MOL0     H 3921  -1.930   1.736  10.181  2.0610 -1.8688 -2.0358
  770MOL0     H 3922  -1.978   1.998  10.018 -0.4095 -0.8812 -1.3803
  770MOL0     H 3923  -2.103   1.882  10.022 -0.8519 -0.7479  1.6174
  770MOL0     H 3924  -1.971   1.979  10.268  1.4445 -2.5202  0.0724
  770MOL0     H 3925  -2.128   1.885  10.253  0.9226  0.2273  0.6341
  770MOL0     H 3926  -2.191   2.121  10.291 -3.7070 -0.3673 -0.5484
  770MOL0     H 3927  -2.084   2.176  10.155  0.3999  0.6286  1.5144
  770MOL0     H 3928  -2.334   2.007  10.122  0.0940  1.1112  0.0550
  770MOL0     H 3929  -2.220   2.060   9.996  1.2862 -2.4070  0.4371
  770MOL0     H 3930  -2.376   2.238  10.194  0.5933 -0.8687  0.6015
  770MOL0     H 3931  -2.425   2.214  10.026 -2.7084 -0.7997  1.8199
  770MOL0     H 3932  -1.522   1.516   9.969 -0.7677  0.9521  0.3141
  770MOL0     H 3933  -1.356   1.362   9.885  0.5964  1.3036 -0.5962
  770MOL0     H 3934  -1.196   1.061   9.770 -0.9483 -0.8672  0.1746
  770MOL0     H 3935  -1.047   0.863   9.759  2.1295 -1.0666 -1.0575
  770MOL0     H 3936   0.557   0.688   9.743  1.1482  0.6839 -0.2611
  770MOL0     H 3937   0.791   0.602   9.730  0.8144 -1.6980 -0.0196
  770MOL0     H 3938   1.170   0.592   9.347 -1.2105 -0.4857  0.0715
  770MOL0     H 3939   1.414   0.529   9.362 -1.8542  1.7836 -1.1336
  770MOL0     H 3940   1.545   0.208   9.662  0.1283 -0.3808 -0.0043
  770MOL0     H 3941   1.534   0.214   9.481 -2.0820  0.2600  0.1747
  770MOL0     H 3942   1.768   0.172   9.568  2.7969  1.1080  0.0530
  770MOL0     H 3943   1.769   0.333   9.645  0.9958 -0.8927 -0.0943
  770MOL0     H 3944   1.780   0.436   9.448 -2.0376  0.1989 -1.1633
  770MOL0     H 3945   1.714   0.299   9.357 -1.5977 -0.8788  0.0313
  770MOL0     H 3946   1.935   0.338   9.287 -1.0971  1.8447  0.7257
  770MOL0     H 3947   1.908   0.166   9.360 -1.4532  0.1707  0.7348
  770MOL0     H 3948   2.240   0.317   9.540  0.8252  0.3260 -1.5191
  770MOL0     H 3949   1.334   0.278   9.696 -2.2618 -0.9647  0.5641
  770MOL0     H 3950   1.083   0.318   9.670  0.1478  0.6574  0.7209
  771MOL0     O 3951   1.253   3.703   8.898 -0.2702 -0.1175 -0.2235
  771MOL0     C 3952   1.368   3.684   8.865  0.3487 -0.2983 -0.0777
  771MOL0     O 3953   1.467   3.777   8.876 -0.3342  0.4149  0.2329
  771MOL0     C 3954   1.449   3.911   8.895  0.3934  0.5973 -0.2292
  771MOL0     C 3955   1.337   3.991   8.868  0.1908 -0.6287 -0.7921
  771MOL0     C 3956   1.334   4.129   8.889 -0.4160 -0.3559 -2.2875
  771MOL0     C 3957   1.441   4.189   8.947  0.2032 -0.0502 -0.1892
  771MOL0     O 3958   1.446   4.325   8.954  0.8222  0.3394 -0.1902
  771MOL0     C 3959   1.565   4.391   8.989  0.6005 -1.7373  0.4766
  771MOL0     C 3960   1.551   4.542   9.005 -0.6151 -0.2116  0.2049
  771MOL0     C 3961   1.514   4.616   8.870 -0.2123  0.5167  0.2062
  771MOL0     C 3962   1.466   4.754   8.895 -0.1562 -1.5780 -1.0564
  771MOL0     C 3963   1.415   4.827   8.772  1.1770  0.4176 -0.5024
  771MOL0     C 3964   1.299   4.763   8.704 -0.0029  0.0523  0.2444
  771MOL0     C 3965   1.176   4.735   8.789  0.1517  0.4827  0.2885
  771MOL0     C 3966   1.061   4.704   8.686  0.1035 -0.5078 -0.4084
  771MOL0     N 3967   0.950   4.643   8.753  0.0649 -0.5166 -0.6802
  771MOL0     C 3968   0.891   4.522   8.737 -0.5067  0.7331  1.0226
  771MOL0     C 3969   0.774   4.535   8.798  0.2340 -0.2775 -0.5141
  771MOL0     C 3970   0.680   4.421   8.799  0.2305 -0.1076 -1.0300
  771MOL0     C 3971   0.564   4.433   8.904 -0.6946  0.0376 -0.1688
  771MOL0     C 3972   0.610   4.381   9.041  1.4418 -0.0260  0.0822
  771MOL0     C 3973   0.497   4.422   9.141  0.4342  0.3842 -0.3257
  771MOL0     O 3974   0.381   4.327   9.132 -0.0842  0.4297  0.1775
  771MOL0     C 3975   0.288   4.343   9.230  0.3594  0.7309 -0.5878
  771MOL0     C 3976   0.213   4.229   9.264 -0.3834 -0.1079 -0.0537
  771MOL0     C 3977   0.133   4.228   9.383  1.1330 -0.0178  0.7479
  771MOL0     C 3978   0.051   4.101   9.410 -0.1043 -0.0302  0.7127
  771MOL0     C 3979   0.102   4.352   9.445 -0.0188 -0.9491  0.4848
  771MOL0     C 3980  -0.004   4.373   9.546 -0.2638  0.0246  0.0130
  771MOL0     O 3981  -0.044   4.500   9.556 -0.2816  0.3037 -0.3407
  771MOL0     C 3982  -0.132   4.537   9.655 -0.7384 -0.0681 -0.4767
  771MOL0     C 3983  -0.272   4.503   9.649 -0.2278  0.1047 -0.0235
  771MOL0     C 3984  -0.364   4.562   9.735 -0.6133 -0.0567  0.7976
  771MOL0     C 3985  -0.334   4.643   9.844  0.2538 -0.3094  0.1987
  771MOL0     O 3986  -0.429   4.691   9.927 -0.4922 -0.6884  0.0452
  771MOL0     C 3987  -0.557   4.715   9.875  1.3893 -0.8030  0.0096
  771MOL0     C 3988  -0.651   4.815   9.962 -0.7400 -0.2686 -0.8566
  771MOL0     C 3989  -0.804   4.818   9.919 -0.6951  0.3700  1.3117
  771MOL0     C 3990  -0.892   4.714   9.986  0.1941  0.7693 -0.5896
  771MOL0     C 3991  -1.033   4.696   9.926 -0.3403 -0.6236  0.5953
  771MOL0     C 3992  -1.132   4.791  10.004 -0.1178 -0.3273  0.3394
  771MOL0     C 3993  -1.272   4.779   9.953 -0.0939 -0.2414 -0.3897
  771MOL0     C 3994  -1.362   4.881  10.015 -0.3618  0.1259 -0.3166
  771MOL0    Cl 3995  -1.519   4.849   9.930  0.3208 -0.4378  0.0798
  771MOL0     C 3996  -0.202   4.672   9.857 -0.7967 -0.2472  0.0761
  771MOL0     C 3997  -0.101   4.627   9.766 -0.0316  0.4381 -0.0038
  771MOL0     O 3998  -0.036   4.279   9.621 -0.5450 -0.1501  0.5480
  771MOL0     C 3999   0.159   4.467   9.391  0.6740 -0.7242  0.0757
  771MOL0     C 4000   0.244   4.461   9.286 -0.0435  0.7485 -0.7897
  771MOL0     N 4001   0.759   4.663   8.845 -0.0567 -0.5633  0.6294
  771MOL0     N 4002   0.872   4.722   8.830 -0.1102 -0.9198 -0.2676
  771MOL0     C 4003   1.551   4.110   8.977 -0.2436  0.4530  0.2978
  771MOL0     C 4004   1.551   3.976   8.958  0.4215  0.3893  0.4793
  771MOL0     C 4005   1.388   3.550   8.801  0.1879  0.4146 -0.5678
  771MOL0     C 4006   1.272   3.473   8.758 -0.0569 -0.8202  0.8748
  771MOL0     C 4007   1.287   3.349   8.697 -0.4852  0.5005 -0.6107
  771MOL0     C 4008   1.422   3.293   8.684  0.0262 -0.7274  0.2286
  771MOL0     O 4009   1.448   3.173   8.615 -0.5492  0.4209 -0.2249
  771MOL0     C 4010   1.356   3.108   8.523  0.1313 -0.4016 -0.8630
  771MOL0     C 4011   1.357   3.171   8.386  0.0801 -0.2395  0.5052
  771MOL0     C 4012   1.492   3.190   8.330 -1.3156 -0.0636  0.1088
  771MOL0     C 4013   1.561   3.331   8.366  0.3213  0.5316 -0.7648
  771MOL0     C 4014   1.555   3.423   8.255  0.2255 -0.1164  0.1953
  771MOL0     C 4015   1.543   3.506   8.170 -0.3645  0.3091  0.2666
  771MOL0     C 4016   1.530   3.358   8.737  0.6650 -0.4013  0.4800
  771MOL0     C 4017   1.515   3.484   8.788  0.3063  0.4986 -0.2758
  771MOL0     H 4018   1.246   3.947   8.829  0.0343 -0.1346 -0.9871
  771MOL0     H 4019   1.246   4.186   8.862 -3.9903 -5.4158 -2.9154
  771MOL0     H 4020   1.617   4.357   9.079  4.3574  0.9448 -0.4509
  771MOL0     H 4021   1.634   4.361   8.909  0.7481  0.0390 -0.0979
  771MOL0     H 4022   1.469   4.562   9.074 -0.6316  2.6926 -0.5286
  771MOL0     H 4023   1.645   4.584   9.043 -1.0120  2.0454 -1.1344
  771MOL0     H 4024   1.595   4.604   8.798  1.7660 -0.4980  2.4741
  771MOL0     H 4025   1.435   4.557   8.822 -0.9810  0.8869  0.9859
  771MOL0     H 4026   1.382   4.753   8.966 -0.0605  0.7713 -0.8334
  771MOL0     H 4027   1.547   4.811   8.941 -3.1528  2.3928 -0.0762
  771MOL0     H 4028   1.400   4.933   8.795  0.8824  0.7280 -2.0328
  771MOL0     H 4029   1.494   4.839   8.697 -0.7007  2.6154 -2.2945
  771MOL0     H 4030   1.279   4.841   8.629 -1.0092 -0.5933 -0.1734
  771MOL0     H 4031   1.319   4.674   8.644 -3.7604 -0.3446 -0.6320
  771MOL0     H 4032   1.196   4.649   8.854 -3.0534 -1.1601 -0.6646
  771MOL0     H 4033   1.144   4.821   8.847 -2.7395 -0.8969  0.9680
  771MOL0     H 4034   1.093   4.631   8.611  1.8074 -3.7264  3.1011
  771MOL0     H 4035   1.031   4.797   8.638  0.2139 -0.4428 -0.3545
  771MOL0     H 4036   0.931   4.434   8.688  2.3543  1.8059  1.1997
  771MOL0     H 4037   0.650   4.393   8.697  2.3160 -2.6571 -1.0313
  771MOL0     H 4038   0.735   4.330   8.824 -1.9824 -1.1607  0.3606
  771MOL0     H 4039   0.484   4.362   8.879 -1.1046 -0.0825  1.3923
  771MOL0     H 4040   0.540   4.539   8.907 -0.8098  0.0190 -0.3678
  771MOL0     H 4041   0.702   4.432   9.070  1.5355 -0.4756  0.5983
  771MOL0     H 4042   0.621   4.273   9.052 -1.0127 -0.5712 -1.8184
  771MOL0     H 4043   0.462   4.520   9.109  2.8615  1.4322  0.0653
  771MOL0     H 4044   0.531   4.430   9.244 -1.5715  0.4320  0.3641
  771MOL0     H 4045   0.219   4.145   9.195  1.2299 -0.2964  0.2899
  771MOL0     H 4046   0.101   4.042   9.488  1.9621 -2.0473 -1.9086
  771MOL0     H 4047  -0.050   4.121   9.447 -0.3792  0.4690 -0.2764
  771MOL0     H 4048   0.051   4.042   9.317  1.5921  1.3581 -0.2357
  771MOL0     H 4049  -0.312   4.426   9.583 -1.6125 -0.5625  1.5319
  771MOL0     H 4050  -0.467   4.545   9.704 -0.0019  0.1672 -1.5686
  771MOL0     H 4051  -0.553   4.747   9.770  0.7638  2.2289  0.8228
  771MOL0     H 4052  -0.607   4.618   9.877 -0.7179  0.2488  0.6231
  771MOL0     H 4053  -0.647   4.781  10.066  0.1151  0.8911 -0.4976
  771MOL0     H 4054  -0.623   4.920   9.955  0.6034 -0.6999 -3.2406
  771MOL0     H 4055  -0.807   4.809   9.810  2.7591 -0.1584  1.1419
  771MOL0     H 4056  -0.843   4.918   9.940 -1.0651  0.5890 -0.2307
  771MOL0     H 4057  -0.832   4.623   9.971  1.1781  1.4938 -1.1676
  771MOL0     H 4058  -0.896   4.736  10.093 -0.1218 -0.6604 -0.2820
  771MOL0     H 4059  -1.071   4.596   9.949 -0.2423 -0.8352 -0.1660
  771MOL0     H 4060  -1.041   4.701   9.818 -0.1669 -1.0062  0.5638
  771MOL0     H 4061  -1.140   4.753  10.107 -3.1480  0.9809  0.6620
  771MOL0     H 4062  -1.094   4.893  10.003  0.0401 -0.3698  0.9751
  771MOL0     H 4063  -1.318   4.680   9.966 -0.1937 -0.4528 -2.0565
  771MOL0     H 4064  -1.260   4.794   9.845  0.8082 -2.6804 -0.6906
  771MOL0     H 4065  -1.322   4.979   9.985  0.1281  0.8828  2.5506
  771MOL0     H 4066  -1.366   4.858  10.121 -2.7962  0.1973 -0.3321
  771MOL0     H 4067  -0.172   4.739   9.937 -1.8163  0.6865 -0.2979
  771MOL0     H 4068  -0.001   4.668   9.774 -0.1788  1.6138 -3.1146
  771MOL0     H 4069   0.138   4.569   9.424 -1.9057 -1.5368  1.2170
  771MOL0     H 4070   0.294   4.546   9.240  1.5302  1.4287  1.9380
  771MOL0     H 4071   1.642   4.148   9.023  1.1055 -2.1475 -0.0538
  771MOL0     H 4072   1.643   3.921   8.969 -1.0568 -1.9890  1.6366
  771MOL0     H 4073   1.177   3.516   8.786  0.1292 -1.0431  1.9067
  771MOL0     H 4074   1.205   3.284   8.669  1.7390 -2.0031 -1.7270
  771MOL0     H 4075   1.393   3.007   8.501  0.9084  0.2808 -2.9495
  771MOL0     H 4076   1.253   3.111   8.560  0.8708  4.2908  1.5204
  771MOL0     H 4077   1.304   3.266   8.390  2.2901  1.1618 -1.1215
  771MOL0     H 4078   1.291   3.112   8.322 -1.5559  1.9530  0.0618
  771MOL0     H 4079   1.489   3.177   8.222 -1.3322  0.8483 -0.0041
  771MOL0     H 4080   1.556   3.108   8.364 -1.6885 -0.2331  0.4125
  771MOL0     H 4081   1.664   3.307   8.392  0.2776 -0.2248 -1.2496
  771MOL0     H 4082   1.516   3.378   8.454  1.3307  0.7851 -0.3699
  771MOL0     H 4083   1.532   3.571   8.086 -0.7867 -1.1386 -0.8574
  771MOL0     H 4084   1.621   3.299   8.749  0.2357 -1.0327  0.6585
  771MOL0     H 4085   1.604   3.530   8.829  1.7158 -0.1822 -2.3981
  772MOL0     O 4086   3.667   0.686   6.251 -0.2250  0.7953  0.9454
  772MOL0     C 4087   3.730   0.634   6.341 -0.7563  0.3527 -0.2979
  772MOL0     O 4088   3.682   0.569   6.445  0.4185 -0.6116 -0.0090
  772MOL0     C 4089   3.545   0.556   6.476 -0.1230 -0.2660  1.1128
  772MOL0     C 4090   3.507   0.460   6.559 -0.6451  0.4357 -0.2994
  772MOL0     C 4091   3.374   0.446   6.607 -1.7540 -0.6299 -0.4234
  772MOL0     C 4092   3.275   0.528   6.568 -0.2136 -0.2033  0.6710
  772MOL0     O 4093   3.156   0.514   6.633 -0.5223 -0.6388 -0.2331
  772MOL0     C 4094   3.040   0.557   6.566  0.4028  0.0029 -0.0219
  772MOL0     C 4095   2.938   0.551   6.672  0.9907 -0.3407  0.6530
  772MOL0     C 4096   2.811   0.608   6.614 -0.0697 -0.2628  0.0538
  772MOL0     C 4097   2.687   0.561   6.690  0.2053  0.5175 -0.5412
  772MOL0     C 4098   2.560   0.585   6.617 -0.2399 -0.3447  0.1935
  772MOL0     C 4099   2.444   0.534   6.696 -0.6698 -0.0652 -0.1121
  772MOL0     C 4100   2.306   0.576   6.640  0.0333 -0.7264 -0.4694
  772MOL0     C 4101   2.190   0.513   6.720  0.6812 -0.1156  0.3792
  772MOL0     N 4102   2.122   0.600   6.821 -0.2655 -0.0287 -0.2948
  772MOL0     C 4103   2.157   0.599   6.956 -0.6360 -0.7718 -0.0748
  772MOL0     C 4104   2.117   0.721   7.011  0.1899  0.3110 -0.4054
  772MOL0     C 4105   2.141   0.764   7.155 -0.3620 -0.7013  0.2862
  772MOL0     C 4106   2.289   0.758   7.204  0.2101 -0.0652 -0.7099
  772MOL0     C 4107   2.305   0.742   7.353  0.8212  0.6515 -0.3128
  772MOL0     C 4108   2.453   0.711   7.387 -0.1805 -0.3404  0.5382
  772MOL0     O 4109   2.465   0.634   7.505  0.7604 -0.4819 -0.8616
  772MOL0     C 4110   2.597   0.616   7.552  0.5111  0.5910 -0.1054
  772MOL0     C 4111   2.662   0.710   7.623  0.1169  0.4963 -0.3066
  772MOL0     C 4112   2.797   0.707   7.667  0.8133  0.9489  1.0102
  772MOL0     C 4113   2.842   0.811   7.756 -0.2685 -0.1109 -0.3856
  772MOL0     C 4114   2.876   0.589   7.639  0.0142 -0.3041  0.2417
  772MOL0     C 4115   3.025   0.568   7.658 -0.0986  0.5740  0.2350
  772MOL0     O 4116   3.081   0.460   7.601 -0.5974  0.7291  0.3980
  772MOL0     C 4117   3.222   0.463   7.577  0.9658 -0.2306  0.6152
  772MOL0     C 4118   3.304   0.342   7.564  0.6192 -0.6534 -0.3247
  772MOL0     C 4119   3.440   0.350   7.534 -0.2438 -0.1040 -0.0478
  772MOL0     C 4120   3.506   0.473   7.525  0.6413  0.2377 -0.6817
  772MOL0     O 4121   3.638   0.500   7.509  0.1924  0.0827 -0.2192
  772MOL0     C 4122   3.720   0.393   7.459 -0.7642 -0.2354  0.2788
  772MOL0     C 4123   3.866   0.424   7.437 -0.9173 -0.8429 -0.5279
  772MOL0     C 4124   3.925   0.501   7.552 -0.1966  0.2795 -0.7519
  772MOL0     C 4125   4.077   0.487   7.549  0.5853 -0.0756 -0.3518
  772MOL0     C 4126   4.135   0.567   7.665 -0.6477 -0.2053 -0.6239
  772MOL0     C 4127   4.284   0.594   7.662  0.6131 -0.2404  0.7597
  772MOL0     C 4128   4.377   0.488   7.726  0.0825 -0.1196 -0.4764
  772MOL0     C 4129   4.510   0.544   7.765 -0.1186 -0.2788 -0.2149
  772MOL0    Cl 4130   4.608   0.421   7.838  0.4059 -0.2797 -0.3012
  772MOL0     C 4131   3.417   0.586   7.518  0.3200 -0.6204 -0.2922
  772MOL0     C 4132   3.280   0.584   7.540  0.3449 -0.0909 -0.0297
  772MOL0     O 4133   3.082   0.640   7.740  0.4711 -0.2955  0.1474
  772MOL0     C 4134   2.810   0.500   7.553  0.0498 -0.5382  0.3919
  772MOL0     C 4135   2.675   0.509   7.515  0.4168 -0.1889  0.2711
  772MOL0     N 4136   2.047   0.781   6.908  0.7524  0.2022 -0.1204
  772MOL0     N 4137   2.057   0.712   6.801  0.4613  0.5047  0.1627
  772MOL0     C 4138   3.307   0.628   6.475 -0.3062  0.5408  0.9231
  772MOL0     C 4139   3.440   0.635   6.425 -0.8902  0.1411 -0.1753
  772MOL0     C 4140   3.878   0.617   6.325  0.1716 -1.1795  0.5744
  772MOL0     C 4141   3.963   0.546   6.413  0.6695  0.6108 -0.0422
  772MOL0     C 4142   4.098   0.545   6.388  0.2365 -0.0506 -0.8519
  772MOL0     C 4143   4.163   0.591   6.275  0.5342  0.1646  0.6586
  772MOL0     O 4144   4.297   0.582   6.242 -0.4390 -0.7089  0.2154
  772MOL0     C 4145   4.363   0.467   6.296  0.1606  0.5971 -0.3832
  772MOL0     C 4146   4.518   0.490   6.277 -0.0616  0.3469 -0.0686
  772MOL0     C 4147   4.594   0.363   6.311  0.1996 -0.2159  0.1761
  772MOL0     C 4148   4.743   0.359   6.286  0.0754  0.6214  0.4090
  772MOL0     C 4149   4.755   0.361   6.140 -0.5337  0.0364 -0.5127
  772MOL0     C 4150   4.760   0.357   6.019 -0.1236 -0.3665 -0.1649
  772MOL0     C 4151   4.081   0.669   6.192  0.2468 -0.3320 -0.6852
  772MOL0     C 4152   3.945   0.684   6.216  0.9117  0.9184 -0.2457
  772MOL0     H 4153   3.578   0.380   6.574 -0.0221  0.5632 -2.2983
  772MOL0     H 4154   3.337   0.372   6.678  0.7089 -2.1706 -0.6188
  772MOL0     H 4155   3.049   0.658   6.527  0.3223 -0.2081 -0.5945
  772MOL0     H 4156   3.011   0.485   6.489 -2.5877  0.8347  0.2096
  772MOL0     H 4157   2.919   0.448   6.705  5.7404 -1.4905  0.6023
  772MOL0     H 4158   2.963   0.608   6.762 -3.4965  2.8547  0.1540
  772MOL0     H 4159   2.812   0.718   6.620 -1.3010 -0.2205 -0.2520
  772MOL0     H 4160   2.801   0.581   6.509 -0.0219  0.5074 -0.1601
  772MOL0     H 4161   2.696   0.451   6.692 -2.2615  0.2449  2.4297
  772MOL0     H 4162   2.686   0.601   6.792 -3.7609  1.3894 -0.7460
  772MOL0     H 4163   2.550   0.687   6.581 -2.0131 -0.0960  1.2721
  772MOL0     H 4164   2.566   0.529   6.523 -0.3461 -1.7577  0.9931
  772MOL0     H 4165   2.451   0.425   6.693 -0.6753 -0.3900  4.5515
  772MOL0     H 4166   2.454   0.568   6.799 -0.4031  0.2634 -0.2444
  772MOL0     H 4167   2.294   0.685   6.639  0.4641 -0.6767 -0.4266
  772MOL0     H 4168   2.304   0.539   6.537 -0.0369 -0.1107 -0.6948
  772MOL0     H 4169   2.215   0.417   6.766  1.8589  0.0740  0.1668
  772MOL0     H 4170   2.111   0.503   6.645  1.0411 -1.6317  0.1860
  772MOL0     H 4171   2.212   0.516   7.000 -1.8729 -1.2410  0.6502
  772MOL0     H 4172   2.111   0.868   7.165 -0.0439 -0.5132 -0.6359
  772MOL0     H 4173   2.072   0.702   7.213  1.3699 -2.9761  0.0582
  772MOL0     H 4174   2.341   0.841   7.155  0.7349 -0.4997 -0.9011
  772MOL0     H 4175   2.338   0.671   7.158  4.3046  1.2904  0.6468
  772MOL0     H 4176   2.247   0.657   7.391  0.8759  0.7742  0.0424
  772MOL0     H 4177   2.267   0.834   7.397 -0.5597 -0.9029  1.9664
  772MOL0     H 4178   2.513   0.801   7.406 -0.7270  0.1293  0.0920
  772MOL0     H 4179   2.498   0.649   7.309  1.0601  1.2267 -0.0513
  772MOL0     H 4180   2.606   0.798   7.653 -2.2729 -0.2509 -2.2362
  772MOL0     H 4181   2.759   0.882   7.765  0.8292  1.9491 -4.2964
  772MOL0     H 4182   2.878   0.761   7.847  0.6995 -3.0541 -2.2629
  772MOL0     H 4183   2.932   0.861   7.720  1.3674  0.4346  3.9127
  772MOL0     H 4184   3.258   0.243   7.564  0.1429 -0.4409  0.3605
  772MOL0     H 4185   3.489   0.255   7.516 -0.7584 -0.4065  0.1065
  772MOL0     H 4186   3.718   0.312   7.532 -0.6697 -1.7294 -1.3134
  772MOL0     H 4187   3.672   0.365   7.365 -1.0770  0.6967  0.1477
  772MOL0     H 4188   3.919   0.330   7.427  1.1377  0.3427 -1.3830
  772MOL0     H 4189   3.874   0.476   7.340  0.9303  0.0230  0.0426
  772MOL0     H 4190   3.880   0.450   7.638 -0.0323  0.0648 -0.7937
  772MOL0     H 4191   3.895   0.606   7.560  0.1333  0.2693  0.8949
  772MOL0     H 4192   4.100   0.380   7.547 -2.6602 -0.8920  0.1322
  772MOL0     H 4193   4.114   0.517   7.450  1.2143 -0.5371 -0.2610
  772MOL0     H 4194   4.105   0.514   7.756  0.9446  0.1823  0.1679
  772MOL0     H 4195   4.098   0.670   7.661 -1.0429 -0.3848 -2.2844
  772MOL0     H 4196   4.311   0.625   7.560 -0.1828 -0.8458  0.3466
  772MOL0     H 4197   4.284   0.674   7.736 -1.8739 -0.1896  0.7922
  772MOL0     H 4198   4.389   0.408   7.652 -0.6371 -0.4382 -0.2588
  772MOL0     H 4199   4.329   0.458   7.820  0.8759  1.2977  0.4275
  772MOL0     H 4200   4.509   0.629   7.834 -1.6139 -1.5749  1.4780
  772MOL0     H 4201   4.561   0.589   7.679 -0.7857 -0.9038 -0.9614
  772MOL0     H 4202   3.451   0.687   7.495 -1.4834 -0.2097 -1.3777
  772MOL0     H 4203   3.226   0.678   7.540  1.3949  0.5353 -0.8263
  772MOL0     H 4204   2.857   0.413   7.508 -2.3754 -1.1243 -1.2026
  772MOL0     H 4205   2.622   0.426   7.468  0.7043  0.2437 -0.8504
  772MOL0     H 4206   3.248   0.709   6.432 -0.0859  0.3271  0.2041
  772MOL0     H 4207   3.470   0.722   6.368  0.1792 -0.2737 -0.2724
  772MOL0     H 4208   3.921   0.485   6.492  1.3160 -0.8047 -0.7555
  772MOL0     H 4209   4.159   0.503   6.468 -0.8987  0.4492  0.3131
  772MOL0     H 4210   4.336   0.443   6.399 -1.3453 -1.4781 -1.1991
  772MOL0     H 4211   4.338   0.380   6.235  2.8853 -0.3022 -0.3471
  772MOL0     H 4212   4.536   0.563   6.357  0.1489  0.2915 -0.0651
  772MOL0     H 4213   4.537   0.543   6.183 -1.8155 -1.0618 -1.2957
  772MOL0     H 4214   4.547   0.278   6.262 -0.2219  0.1107  0.0113
  772MOL0     H 4215   4.575   0.344   6.417  1.4179 -0.6467  0.3336
  772MOL0     H 4216   4.770   0.260   6.323  0.6386  1.3272  1.9411
  772MOL0     H 4217   4.799   0.438   6.337 -1.0186  0.6312  1.6221
  772MOL0     H 4218   4.762   0.357   5.912  2.3236  1.6530 -0.2070
  772MOL0     H 4219   4.125   0.716   6.105  0.5784 -2.3840 -1.6890
  772MOL0     H 4220   3.891   0.744   6.144 -1.5099 -0.3536  0.3844
  773MOL0     O 4221   4.184  11.061  10.905  0.2981 -0.2033  0.0130
  773MOL0     C 4222   4.296  11.112  10.941 -0.0742 -0.1698  0.6022
  773MOL0     O 4223   4.336  11.148  11.072 -0.0108 -0.7748  0.1349
  773MOL0     C 4224   4.240  11.139  11.174 -0.7146 -0.1499  0.3009
  773MOL0     C 4225   4.105  11.172  11.157 -0.0568  0.7158  0.2747
  773MOL0     C 4226   4.026  11.153  11.264  0.9174 -0.2780  0.3128
  773MOL0     C 4227   4.067  11.122  11.388 -0.4396 -0.0568 -0.8325
  773MOL0     O 4228   3.971  11.100  11.480  0.4242 -0.6764 -0.3124
  773MOL0     C 4229   3.991  11.061  11.619  0.4927 -0.7652 -0.9680
  773MOL0     C 4230   3.856  11.080  11.680  0.6981  0.1244 -1.0038
  773MOL0     C 4231   3.802  11.227  11.686  0.4689  1.2551  1.0898
  773MOL0     C 4232   3.663  11.236  11.765 -0.0395  0.4567  0.2008
  773MOL0     C 4233   3.611  11.383  11.747  0.3250  0.1392  0.2907
  773MOL0     C 4234   3.469  11.420  11.796  0.9456 -0.1365 -0.3791
  773MOL0     C 4235   3.355  11.345  11.737  0.0979 -0.4486  1.0105
  773MOL0     C 4236   3.341  11.359  11.579 -0.2272  0.3958  0.1000
  773MOL0     N 4237   3.222  11.425  11.530 -0.3501  0.1768  0.1052
  773MOL0     C 4238   3.215  11.556  11.481 -0.2781  0.4695  0.1961
  773MOL0     C 4239   3.090  11.566  11.450  0.1820 -0.4085  0.8117
  773MOL0     C 4240   3.020  11.699  11.403  0.1146 -0.5730 -0.7745
  773MOL0     C 4241   3.019  11.732  11.253 -0.2777 -0.1136 -0.4697
  773MOL0     C 4242   2.991  11.609  11.161 -0.0061  0.3334 -0.6906
  773MOL0     C 4243   2.942  11.650  11.021 -0.3066 -0.2414 -0.6110
  773MOL0     O 4244   2.966  11.540  10.925 -0.0627 -0.2072 -0.1404
  773MOL0     C 4245   2.856  11.454  10.906 -0.2131 -0.8015  0.3254
  773MOL0     C 4246   2.832  11.349  10.988 -0.7736  0.3215  0.5853
  773MOL0     C 4247   2.732  11.254  10.960 -0.8081  0.1763 -0.8609
  773MOL0     C 4248   2.716  11.139  11.065 -0.8081  0.4186  0.6844
  773MOL0     C 4249   2.644  11.283  10.848  0.4319  0.0203 -0.0781
  773MOL0     C 4250   2.526  11.204  10.809 -0.4803  0.6127 -0.7616
  773MOL0     O 4251   2.547  11.072  10.847 -0.7432 -0.1537 -0.0477
  773MOL0     C 4252   2.443  10.988  10.852  0.0879  0.9688 -0.4128
  773MOL0     C 4253   2.465  10.862  10.796  0.6011  0.5975  0.3034
  773MOL0     C 4254   2.367  10.758  10.789  0.6103 -0.3500  0.1007
  773MOL0     C 4255   2.239  10.777  10.838  0.6841  0.5562  0.0288
  773MOL0     O 4256   2.141  10.680  10.833  0.5089  0.7882 -0.3195
  773MOL0     C 4257   2.156  10.582  10.930  0.0856  0.4386 -0.1496
  773MOL0     C 4258   2.043  10.482  10.949 -0.8034 -0.2921  0.2987
  773MOL0     C 4259   1.935  10.550  11.037 -0.4628 -0.2766 -0.3698
  773MOL0     C 4260   1.819  10.457  11.083  0.4987 -0.1599 -0.0109
  773MOL0     C 4261   1.691  10.530  11.114  0.5256 -0.9898  0.1765
  773MOL0     C 4262   1.562  10.450  11.128 -0.0334 -0.8366  0.5847
  773MOL0     C 4263   1.436  10.535  11.164 -0.2939  0.4887  0.1710
  773MOL0     C 4264   1.311  10.460  11.122  0.2451  0.1521  0.4772
  773MOL0    Cl 4265   1.168  10.560  11.159 -0.0086 -0.1614 -0.0533
  773MOL0     C 4266   2.218  10.889  10.915 -0.1392 -1.8822 -0.1832
  773MOL0     C 4267   2.314  11.001  10.913  0.3270 -0.1683 -0.0439
  773MOL0     O 4268   2.426  11.242  10.750 -0.0596 -0.3142  0.5326
  773MOL0     C 4269   2.662  11.398  10.777 -0.5640 -0.2988  0.1944
  773MOL0     C 4270   2.769  11.484  10.802 -0.1503 -0.8975  0.1737
  773MOL0     N 4271   3.024  11.448  11.479  0.6029  0.0320 -0.3138
  773MOL0     N 4272   3.106  11.361  11.519  0.4257  0.4702 -0.0100
  773MOL0     C 4273   4.201  11.089  11.407  0.3794  0.2835  0.6667
  773MOL0     C 4274   4.292  11.111  11.298  0.6451 -1.1284  0.0286
  773MOL0     C 4275   4.402  11.124  10.825  0.5902 -0.5785 -0.5391
  773MOL0     C 4276   4.375  11.112  10.686  0.2811 -0.6930  0.1510
  773MOL0     C 4277   4.473  11.135  10.591 -0.0370  1.3423 -0.5685
  773MOL0     C 4278   4.601  11.154  10.617 -0.4117 -0.2135  0.2990
  773MOL0     O 4279   4.693  11.162  10.516  0.4878 -0.0369 -0.2589
  773MOL0     C 4280   4.829  11.168  10.552  0.5416  0.1930  0.2219
  773MOL0     C 4281   4.888  11.306  10.578 -0.6627 -0.5120 -0.2904
  773MOL0     C 4282   4.890  11.402  10.455 -0.2182 -0.5009 -0.3175
  773MOL0     C 4283   4.896  11.550  10.491 -1.3053  0.2009  1.0486
  773MOL0     C 4284   4.773  11.595  10.551 -0.3743 -0.3937 -0.1851
  773MOL0     C 4285   4.666  11.612  10.605 -0.2452 -0.3532 -0.5245
  773MOL0     C 4286   4.631  11.163  10.758 -0.0832  0.7837 -0.3888
  773MOL0     C 4287   4.533  11.147  10.862  0.0180 -0.2345  0.3199
  773MOL0     H 4288   4.053  11.192  11.063 -2.6768  0.2178  1.5232
  773MOL0     H 4289   3.920  11.162  11.244  1.2990  1.0442 -1.3366
  773MOL0     H 4290   4.021  10.957  11.630 -0.5070 -0.8011  3.7868
  773MOL0     H 4291   4.067  11.123  11.669  1.6816 -0.3766 -3.1485
  773MOL0     H 4292   3.790  11.015  11.622 -2.4215  2.3293 -0.2362
  773MOL0     H 4293   3.851  11.049  11.785 -0.9203  0.1692 -1.0405
  773MOL0     H 4294   3.873  11.296  11.732  2.5491  0.2524 -0.4748
  773MOL0     H 4295   3.775  11.238  11.581 -0.5528  2.7877  1.4788
  773MOL0     H 4296   3.589  11.161  11.736 -1.3822  1.4531  0.9319
  773MOL0     H 4297   3.688  11.208  11.868  1.2281 -0.6821 -0.3864
  773MOL0     H 4298   3.689  11.447  11.790  0.4041 -0.7382  1.5248
  773MOL0     H 4299   3.604  11.405  11.640 -0.7667 -2.1641 -0.1783
  773MOL0     H 4300   3.467  11.401  11.904  1.4086  1.3090 -0.0823
  773MOL0     H 4301   3.449  11.528  11.793 -1.1328 -0.5229 -1.2628
  773MOL0     H 4302   3.376  11.239  11.753  1.5826 -0.5424 -1.1295
  773MOL0     H 4303   3.256  11.366  11.779 -0.4410  2.0792 -1.2433
  773MOL0     H 4304   3.343  11.257  11.538  1.6898  0.5097 -0.1885
  773MOL0     H 4305   3.429  11.405  11.532 -0.6864  0.1057 -1.0814
  773MOL0     H 4306   3.299  11.625  11.485  2.1484 -2.3204  1.4086
  773MOL0     H 4307   2.916  11.687  11.436  0.1986  0.0077 -0.2876
  773MOL0     H 4308   3.054  11.780  11.468 -4.0463  1.1076 -0.3613
  773MOL0     H 4309   3.118  11.773  11.230 -0.7881  2.2822  1.2554
  773MOL0     H 4310   2.946  11.809  11.228  0.5480 -0.1773 -3.5215
  773MOL0     H 4311   2.914  11.543  11.204  2.9315 -1.9927  1.4754
  773MOL0     H 4312   3.080  11.545  11.158  1.7119  2.4246  1.4495
  773MOL0     H 4313   2.991  11.739  10.981  1.6754 -0.5765  0.9076
  773MOL0     H 4314   2.833  11.659  11.015 -0.2878 -0.6655 -2.2831
  773MOL0     H 4315   2.900  11.333  11.071  1.6967 -3.0556 -1.7944
  773MOL0     H 4316   2.726  11.041  11.018  2.3343  0.5097  0.9636
  773MOL0     H 4317   2.792  11.147  11.143 -0.0591  3.2711 -0.2097
  773MOL0     H 4318   2.618  11.143  11.113 -1.7317  3.8525 -1.1305
  773MOL0     H 4319   2.563  10.838  10.755  0.5364  0.7793  0.0401
  773MOL0     H 4320   2.407  10.672  10.736 -1.8590 -1.3517 -0.2796
  773MOL0     H 4321   2.239  10.513  10.914 -1.1154 -0.8127 -1.4052
  773MOL0     H 4322   2.177  10.626  11.028  1.0360  0.6196 -0.4299
  773MOL0     H 4323   1.992  10.474  10.852 -2.3281 -1.6983  1.1549
  773MOL0     H 4324   2.078  10.385  10.986  0.9240  0.6580  1.2684
  773MOL0     H 4325   1.896  10.642  10.992 -0.3402  0.4611  0.9610
  773MOL0     H 4326   1.992  10.582  11.125 -0.5242 -0.8459 -0.1166
  773MOL0     H 4327   1.791  10.399  10.994  1.9357  0.7778 -1.1114
  773MOL0     H 4328   1.857  10.380  11.150  3.3577  0.1148 -1.1746
  773MOL0     H 4329   1.679  10.619  11.052 -0.8039  0.1820  2.0009
  773MOL0     H 4330   1.699  10.577  11.213  3.3733 -1.0129  0.0317
  773MOL0     H 4331   1.547  10.394  11.035 -1.3604 -0.6101  0.6366
  773MOL0     H 4332   1.587  10.383  11.210 -2.8477  0.2968  2.5173
  773MOL0     H 4333   1.439  10.634  11.117  1.6062  0.5615  0.3754
  773MOL0     H 4334   1.426  10.540  11.272 -1.0588 -0.1081  0.1374
  773MOL0     H 4335   1.303  10.371  11.186  1.2353  1.8713  3.1307
  773MOL0     H 4336   1.318  10.428  11.017 -0.3891 -1.3799  0.8647
  773MOL0     H 4337   2.131  10.903  10.978  1.2139  0.7634  1.3021
  773MOL0     H 4338   2.301  11.099  10.957  1.6174  0.7138 -1.5221
  773MOL0     H 4339   2.596  11.421  10.693  0.3996 -1.7024 -0.9827
  773MOL0     H 4340   2.790  11.568  10.736 -0.6990 -0.8085  0.1066
  773MOL0     H 4341   4.230  11.050  11.504  1.1682 -3.3995 -0.8800
  773MOL0     H 4342   4.400  11.103  11.300  0.5547 -2.8206  0.5426
  773MOL0     H 4343   4.275  11.093  10.649  1.1587 -4.2463 -0.7066
  773MOL0     H 4344   4.442  11.128  10.487  0.7596 -2.6862 -0.7213
  773MOL0     H 4345   4.842  11.116  10.647  0.5156 -1.9192 -0.8555
  773MOL0     H 4346   4.891  11.107  10.485  4.0466 -0.0624  3.3898
  773MOL0     H 4347   4.993  11.293  10.608 -0.1865 -1.8590 -2.3553
  773MOL0     H 4348   4.833  11.352  10.660  0.2483 -2.8264  1.7537
  773MOL0     H 4349   4.806  11.387  10.387  0.4314  2.6340 -2.0193
  773MOL0     H 4350   4.964  11.369  10.382 -0.3433 -2.2436  0.3006
  773MOL0     H 4351   4.922  11.606  10.400  0.6436  2.5887  2.9190
  773MOL0     H 4352   4.979  11.568  10.559  0.2476  3.0919 -1.3913
  773MOL0     H 4353   4.568  11.637  10.639  0.6967  2.0204  0.6341
  773MOL0     H 4354   4.728  11.169  10.807 -0.7681 -3.5644  2.0223
  773MOL0     H 4355   4.563  11.150  10.966  2.2059 -1.0019 -0.2339
  774MOL0     O 4356   7.015   7.858  10.623  1.1891 -0.3960  0.7949
  774MOL0     C 4357   7.108   7.792  10.671  0.1252  0.0861 -0.6857
  774MOL0     O 4358   7.131   7.657  10.642  0.0329  0.2703 -0.3692
  774MOL0     C 4359   7.041   7.593  10.562 -0.8937  0.4770 -0.4427
  774MOL0     C 4360   7.011   7.633  10.425 -0.0098  0.3149 -0.1055
  774MOL0     C 4361   6.930   7.549  10.344  0.0561  0.1986 -0.3838
  774MOL0     C 4362   6.846   7.445  10.404  0.1341 -0.0625 -0.3981
  774MOL0     O 4363   6.748   7.370  10.343  0.0059 -0.4618  0.4196
  774MOL0     C 4364   6.751   7.369  10.198  0.3003 -0.0229  0.4100
  774MOL0     C 4365   6.630   7.283  10.153 -0.3817 -0.6855  0.3235
  774MOL0     C 4366   6.660   7.139  10.121  0.9636 -0.7906  0.1960
  774MOL0     C 4367   6.548   7.040  10.162 -0.0561  0.5366  0.2479
  774MOL0     C 4368   6.565   6.891  10.111 -0.0991 -0.4900 -0.6598
  774MOL0     C 4369   6.437   6.806  10.156 -0.7239  0.7086  0.7663
  774MOL0     C 4370   6.462   6.659  10.152  1.1680  0.2082  0.6226
  774MOL0     C 4371   6.333   6.581  10.107 -0.1138  0.5630  0.4998
  774MOL0     N 4372   6.240   6.577  10.214  0.3930  0.8082 -1.0799
  774MOL0     C 4373   6.124   6.509  10.200  0.1711 -0.2068 -1.2251
  774MOL0     C 4374   6.053   6.533  10.312 -0.0044 -0.6228 -0.3873
  774MOL0     C 4375   5.911   6.488  10.337 -0.0047 -0.1089  0.1103
  774MOL0     C 4376   5.826   6.584  10.417 -0.4921 -1.0974 -0.5397
  774MOL0     C 4377   5.687   6.535  10.419  0.1384  0.0661 -0.0029
  774MOL0     C 4378   5.596   6.631  10.509 -0.9439  0.2240  0.1432
  774MOL0     O 4379   5.476   6.563  10.529  0.3612  0.3463 -0.5046
  774MOL0     C 4380   5.376   6.619  10.608 -0.0600  0.5810  0.1496
  774MOL0     C 4381   5.370   6.753  10.654 -0.2100  0.2401  0.3047
  774MOL0     C 4382   5.272   6.798  10.742  0.4618 -0.2327  0.3495
  774MOL0     C 4383   5.305   6.939  10.804 -0.1691  0.9132  0.7413
  774MOL0     C 4384   5.163   6.714  10.791 -0.7259  0.0794  1.0532
  774MOL0     C 4385   5.073   6.750  10.908  0.8659  0.5883  0.8406
  774MOL0     O 4386   5.015   6.639  10.962  0.1152 -0.0892 -0.6808
  774MOL0     C 4387   4.925   6.665  11.061 -0.0692 -0.5169  0.8968
  774MOL0     C 4388   4.803   6.723  11.031 -0.3608  0.8237 -1.0670
  774MOL0     C 4389   4.701   6.751  11.125 -0.0012  0.1387 -0.2770
  774MOL0     C 4390   4.719   6.710  11.262  0.7243 -0.4087  0.3384
  774MOL0     O 4391   4.617   6.738  11.348  0.2299  0.3024 -0.1198
  774MOL0     C 4392   4.597   6.642  11.452 -0.6273  0.5724 -0.2125
  774MOL0     C 4393   4.453   6.666  11.495  0.6733 -0.5645  0.0136
  774MOL0     C 4394   4.405   6.568  11.602 -0.1215 -0.4700  0.1311
  774MOL0     C 4395   4.253   6.579  11.645  0.2039  0.5677  0.4698
  774MOL0     C 4396   4.234   6.498  11.772 -0.2605 -0.1674 -0.1635
  774MOL0     C 4397   4.087   6.485  11.823 -0.8911  0.2805  0.7377
  774MOL0     C 4398   4.051   6.368  11.918  0.0774  0.3093  0.2452
  774MOL0     C 4399   3.917   6.401  11.987  0.4229  0.0493 -0.7993
  774MOL0    Cl 4400   3.859   6.261  12.086 -0.1960 -0.1266  0.1547
  774MOL0     C 4401   4.837   6.644  11.290 -0.1819 -0.2960 -0.9335
  774MOL0     C 4402   4.940   6.627  11.195 -0.2641  0.8162 -0.7089
  774MOL0     O 4403   5.056   6.867  10.938  0.7815  0.2905 -0.3300
  774MOL0     C 4404   5.161   6.590  10.729 -0.7447  0.3230 -0.1761
  774MOL0     C 4405   5.264   6.539  10.638  0.1676  0.7594 -0.1072
  774MOL0     N 4406   6.114   6.637  10.382 -0.0887 -0.0542 -0.4557
  774MOL0     N 4407   6.229   6.656  10.325  0.1705  0.4595  0.1981
  774MOL0     C 4408   6.880   7.410  10.528 -0.2435 -0.2389 -0.6080
  774MOL0     C 4409   6.971   7.485  10.610  0.5855  0.0997  0.6158
  774MOL0     C 4410   7.192   7.856  10.770 -0.4410  0.6260 -0.7771
  774MOL0     C 4411   7.165   7.985  10.831 -0.7114  0.7429 -0.1742
  774MOL0     C 4412   7.254   8.042  10.927 -0.8076 -0.1404 -0.0731
  774MOL0     C 4413   7.362   7.972  10.976 -1.0267  0.0189 -0.7577
  774MOL0     O 4414   7.441   8.014  11.080  0.1738 -0.0053 -0.5898
  774MOL0     C 4415   7.436   8.149  11.134  0.1241 -0.6254  0.2229
  774MOL0     C 4416   7.564   8.165  11.211  0.2808 -0.1129 -0.4496
  774MOL0     C 4417   7.551   8.293  11.284  0.0531  0.2851 -0.3054
  774MOL0     C 4418   7.675   8.323  11.364 -0.1152 -0.4632 -0.2742
  774MOL0     C 4419   7.720   8.239  11.474 -0.3431 -0.4414 -0.4087
  774MOL0     C 4420   7.736   8.164  11.562  0.9467  0.2573  0.7311
  774MOL0     C 4421   7.389   7.846  10.921  0.2201  0.8211 -0.2057
  774MOL0     C 4422   7.302   7.788  10.826  0.8655 -0.6294  0.3140
  774MOL0     H 4423   7.068   7.718  10.389  1.2340  0.1125  1.2744
  774MOL0     H 4424   6.913   7.569  10.239 -1.4976  1.1890  0.0164
  774MOL0     H 4425   6.744   7.471  10.160  2.1488  0.1976  0.5918
  774MOL0     H 4426   6.838   7.314  10.162 -0.8741 -1.1709 -0.8370
  774MOL0     H 4427   6.547   7.289  10.224  0.8668  3.1601  1.7216
  774MOL0     H 4428   6.602   7.343  10.066  3.9047  2.7105  0.9514
  774MOL0     H 4429   6.697   7.139  10.018  0.1178  2.7595 -0.2299
  774MOL0     H 4430   6.743   7.109  10.185  2.9904  1.8390 -1.0170
  774MOL0     H 4431   6.529   7.052  10.269 -0.0980  0.0558  0.2960
  774MOL0     H 4432   6.458   7.065  10.106  0.6003 -1.0664 -1.6599
  774MOL0     H 4433   6.572   6.908  10.003  0.2630 -0.0140 -0.5689
  774MOL0     H 4434   6.660   6.853  10.150  0.6932  1.4893 -0.5121
  774MOL0     H 4435   6.413   6.843  10.256  0.9898 -0.6450  1.7342
  774MOL0     H 4436   6.350   6.823  10.093 -0.1514 -0.6417 -0.4359
  774MOL0     H 4437   6.532   6.628  10.074 -1.9806 -3.0946 -1.1708
  774MOL0     H 4438   6.508   6.616  10.242  0.6505  1.6365  1.6082
  774MOL0     H 4439   6.359   6.475  10.099  0.1442  0.7324 -1.3271
  774MOL0     H 4440   6.291   6.614  10.012 -0.1475 -0.8209  0.0205
  774MOL0     H 4441   6.093   6.452  10.114  0.3971  2.0676 -2.8998
  774MOL0     H 4442   5.859   6.467  10.243 -1.2027 -0.7655  0.8777
  774MOL0     H 4443   5.932   6.390  10.380 -0.3121 -0.9280 -1.5653
  774MOL0     H 4444   5.827   6.684  10.372 -0.2088 -1.8083 -2.1898
  774MOL0     H 4445   5.874   6.571  10.515 -1.2573  0.4905  0.0683
  774MOL0     H 4446   5.679   6.430  10.447 -0.1580  0.0802 -0.0310
  774MOL0     H 4447   5.656   6.546  10.315  0.8023  1.5646 -0.0653
  774MOL0     H 4448   5.584   6.729  10.463 -2.9915  0.5420  1.2301
  774MOL0     H 4449   5.649   6.645  10.603  2.4998 -2.1102 -1.2526
  774MOL0     H 4450   5.458   6.812  10.633  0.1052  0.1721  1.3814
  774MOL0     H 4451   5.406   6.971  10.777 -0.1702 -0.6782 -1.3270
  774MOL0     H 4452   5.229   7.017  10.792 -0.5360  0.4421 -0.0566
  774MOL0     H 4453   5.319   6.927  10.912 -0.4596  0.4990  0.7325
  774MOL0     H 4454   4.777   6.749  10.929 -0.8573 -0.2561 -1.2345
  774MOL0     H 4455   4.610   6.798  11.090 -0.4776 -1.2887 -1.0128
  774MOL0     H 4456   4.612   6.538  11.421 -0.8638 -0.2791  2.3259
  774MOL0     H 4457   4.664   6.664  11.535 -0.9069 -1.5923  0.6540
  774MOL0     H 4458   4.433   6.770  11.521  1.0611  0.5293 -3.5805
  774MOL0     H 4459   4.396   6.652  11.403  1.5239 -1.5670 -0.3737
  774MOL0     H 4460   4.459   6.578  11.697 -2.8725  1.3805  1.6418
  774MOL0     H 4461   4.423   6.467  11.566  1.5656 -0.0755 -0.2092
  774MOL0     H 4462   4.220   6.682  11.662 -0.9667  0.1367  0.9237
  774MOL0     H 4463   4.189   6.529  11.571 -0.5835  4.4649 -1.7452
  774MOL0     H 4464   4.290   6.554  11.847  0.7323 -1.4208  0.0745
  774MOL0     H 4465   4.276   6.399  11.749 -3.4793 -1.5380 -0.6850
  774MOL0     H 4466   4.051   6.573  11.878 -3.7970 -2.8142  4.4039
  774MOL0     H 4467   4.019   6.490  11.737  3.0739  2.6200 -2.6412
  774MOL0     H 4468   4.126   6.351  11.995  0.9716  1.2431 -0.4004
  774MOL0     H 4469   4.048   6.268  11.872 -1.0260  1.2440 -1.8774
  774MOL0     H 4470   3.837   6.422  11.915 -0.6820  2.3869  0.9732
  774MOL0     H 4471   3.921   6.493  12.045 -2.5450 -0.0893 -0.1994
  774MOL0     H 4472   4.862   6.606  11.389 -0.7666  1.1958 -0.1863
  774MOL0     H 4473   5.036   6.582  11.222 -0.9710 -0.1250  0.3836
  774MOL0     H 4474   5.079   6.521  10.748  1.7827 -2.2346  2.4883
  774MOL0     H 4475   5.270   6.438  10.599  1.7398  0.4685  0.7976
  774MOL0     H 4476   6.827   7.332  10.583 -4.6515  0.8929 -2.7580
  774MOL0     H 4477   6.975   7.449  10.712  1.4036 -1.7710 -0.0337
  774MOL0     H 4478   7.088   8.050  10.790 -2.6702  1.0324  3.5673
  774MOL0     H 4479   7.226   8.139  10.967  0.4066  0.5526 -0.8480
  774MOL0     H 4480   7.425   8.229  11.060 -2.3646 -2.8072 -2.0031
  774MOL0     H 4481   7.348   8.162  11.199 -0.8269 -1.0004 -0.9480
  774MOL0     H 4482   7.658   8.165  11.155  0.9151  1.3292  0.5524
  774MOL0     H 4483   7.558   8.088  11.289 -0.0480 -1.9429 -2.1876
  774MOL0     H 4484   7.469   8.269  11.353  0.2557 -2.6031 -0.9449
  774MOL0     H 4485   7.529   8.371  11.210 -0.4132  0.9700  0.5345
  774MOL0     H 4486   7.654   8.420  11.410 -1.3319 -0.4470 -0.8415
  774MOL0     H 4487   7.744   8.332  11.279 -1.8156  1.5000 -1.5482
  774MOL0     H 4488   7.764   8.110  11.650 -0.0860  2.0014  2.1882
  774MOL0     H 4489   7.467   7.774  10.944 -0.8532 -0.1609  0.5067
  774MOL0     H 4490   7.332   7.688  10.795  1.9648  0.8835 -4.2131
  775MOL0     O 4491  11.105   7.299   4.862  0.1401 -0.5550 -0.5952
  775MOL0     C 4492  11.120   7.408   4.914 -0.4157  0.2104  0.3576
  775MOL0     O 4493  11.022   7.490   4.956 -0.0430 -0.1536  0.1654
  775MOL0     C 4494  10.896   7.458   4.990  0.4338  1.0283 -0.3200
  775MOL0     C 4495  10.848   7.324   5.010 -0.3669 -0.2635 -0.4736
  775MOL0     C 4496  10.719   7.286   5.058  0.1636 -0.0394  1.2489
  775MOL0     C 4497  10.619   7.385   5.067 -0.6440 -0.4859  0.1644
  775MOL0     O 4498  10.488   7.350   5.092  0.2733 -0.1114 -0.1885
  775MOL0     C 4499  10.403   7.363   4.971  0.0094  0.4836  0.5239
  775MOL0     C 4500  10.301   7.244   4.959  0.7471  0.3826  0.2017
  775MOL0     C 4501  10.195   7.235   5.073 -0.8309 -0.2520 -0.0140
  775MOL0     C 4502  10.097   7.123   5.065 -0.3857  0.3853 -0.0048
  775MOL0     C 4503  10.000   7.124   5.186 -0.5436 -0.6914  0.4789
  775MOL0     C 4504  10.078   7.112   5.323  0.9581 -0.0692  0.4098
  775MOL0     C 4505   9.988   7.106   5.446 -0.1268  0.9727  0.2302
  775MOL0     C 4506   9.911   7.239   5.474  0.0172  0.5260  0.2740
  775MOL0     N 4507   9.844   7.229   5.605 -0.3323  0.0820 -0.8806
  775MOL0     C 4508   9.757   7.125   5.637  0.5777 -0.0916 -0.0507
  775MOL0     C 4509   9.739   7.133   5.770 -0.5888  0.6052  0.4117
  775MOL0     C 4510   9.664   7.035   5.856 -0.0113  0.2861 -0.4409
  775MOL0     C 4511   9.719   6.891   5.837 -0.7169  0.5063 -0.4453
  775MOL0     C 4512   9.632   6.800   5.921  0.3714  0.1580 -0.4276
  775MOL0     C 4513   9.656   6.649   5.901  0.5175  0.4263  0.5034
  775MOL0     O 4514   9.560   6.570   5.973 -0.1335  0.3089  0.1340
  775MOL0     C 4515   9.621   6.471   6.051 -0.7107 -0.8814  0.6067
  775MOL0     C 4516   9.632   6.477   6.186 -0.4503  0.3486 -0.4105
  775MOL0     C 4517   9.697   6.381   6.258 -0.9361 -0.0952 -0.7138
  775MOL0     C 4518   9.690   6.394   6.415  0.7945  0.6734  1.0910
  775MOL0     C 4519   9.761   6.266   6.191 -0.0636 -0.0459 -0.8773
  775MOL0     C 4520   9.830   6.142   6.256  0.0162 -0.5976  0.7901
  775MOL0     O 4521   9.882   6.048   6.170 -0.2555 -0.1638 -1.1430
  775MOL0     C 4522   9.947   5.932   6.215 -0.1559  0.0233  0.8739
  775MOL0     C 4523   9.995   5.863   6.109 -0.3825  0.2814  0.4884
  775MOL0     C 4524  10.051   5.741   6.128  0.0854  0.0965  0.3906
  775MOL0     C 4525  10.080   5.690   6.249  0.8598 -0.3370  0.5142
  775MOL0     O 4526  10.140   5.569   6.243 -0.1172  0.0989  0.1998
  775MOL0     C 4527  10.114   5.485   6.357 -0.3091 -0.0542  0.4563
  775MOL0     C 4528  10.174   5.352   6.312  0.1483  0.1009  1.0929
  775MOL0     C 4529  10.169   5.270   6.438  0.3905  0.1444 -0.2129
  775MOL0     C 4530  10.240   5.135   6.411 -0.2484  0.0319 -0.5678
  775MOL0     C 4531  10.259   5.066   6.541  0.3873  0.4941  0.6064
  775MOL0     C 4532  10.304   4.914   6.526  0.3976 -0.5686  0.5732
  775MOL0     C 4533  10.438   4.891   6.447  0.0175 -0.8729  0.4928
  775MOL0     C 4534  10.507   4.768   6.502  0.6476 -0.3048 -0.0064
  775MOL0    Cl 4535  10.400   4.621   6.482 -0.3431 -0.1334  0.4908
  775MOL0     C 4536  10.038   5.760   6.360  0.7152 -0.1380 -1.1522
  775MOL0     C 4537   9.976   5.886   6.345  0.2120 -0.5993  0.0038
  775MOL0     O 4538   9.841   6.141   6.377 -0.2610 -0.4520 -0.3621
  775MOL0     C 4539   9.744   6.256   6.060  0.0399  0.7427  0.4177
  775MOL0     C 4540   9.679   6.354   5.986  1.6850 -0.6575  0.4985
  775MOL0     N 4541   9.820   7.237   5.811  1.1170  0.3098 -0.1220
  775MOL0     N 4542   9.880   7.300   5.718  0.1763  0.8428  0.2947
  775MOL0     C 4543  10.658   7.521   5.049  0.1388 -0.5792  0.5072
  775MOL0     C 4544  10.797   7.555   5.011 -0.0873 -0.3960 -0.6211
  775MOL0     C 4545  11.262   7.468   4.894  0.7019  0.1509 -0.3304
  775MOL0     C 4546  11.366   7.382   4.852  0.1062 -0.2600  0.6557
  775MOL0     C 4547  11.496   7.432   4.832 -0.4822  1.6716  0.2350
  775MOL0     C 4548  11.521   7.577   4.851  0.5708  0.0101  0.9895
  775MOL0     O 4549  11.642   7.639   4.834  1.1117  0.2970  0.5294
  775MOL0     C 4550  11.760   7.563   4.801  0.0909  0.2377 -0.1181
  775MOL0     C 4551  11.883   7.660   4.801 -0.5397  0.3845 -0.1126
  775MOL0     C 4552  12.015   7.587   4.778 -0.8903 -0.1731 -0.2323
  775MOL0     C 4553  12.119   7.685   4.783  0.3175 -0.7035 -0.2549
  775MOL0     C 4554  12.226   7.629   4.708  1.0115  0.2609  0.5530
  775MOL0     C 4555  12.312   7.579   4.636  0.8255  0.6176  1.1345
  775MOL0     C 4556  11.410   7.653   4.883 -0.1368  0.0540  0.0213
  775MOL0     C 4557  11.289   7.603   4.922  0.6965  0.6738  0.2479
  775MOL0     H 4558  10.916   7.240   5.008  0.9063  0.7020 -2.7304
  775MOL0     H 4559  10.694   7.181   5.067  1.6326 -0.4136  1.2458
  775MOL0     H 4560  10.357   7.462   4.961  1.1586  0.9132 -0.7880
  775MOL0     H 4561  10.467   7.358   4.882  0.1934  1.8526  0.5539
  775MOL0     H 4562  10.251   7.253   4.862 -0.7049 -2.7409  0.5309
  775MOL0     H 4563  10.348   7.145   4.952 -1.4628 -0.7032 -0.1912
  775MOL0     H 4564  10.262   7.218   5.158  1.0068 -0.0143 -1.3392
  775MOL0     H 4565  10.148   7.333   5.087 -1.2804 -0.3683 -0.6373
  775MOL0     H 4566  10.056   7.117   4.964  3.5125  0.5743 -1.7718
  775MOL0     H 4567  10.147   7.026   5.075 -0.8610  0.1824  0.5046
  775MOL0     H 4568   9.949   7.221   5.187 -0.5386 -0.6733 -0.5262
  775MOL0     H 4569   9.924   7.047   5.168 -0.8413 -0.6773  1.5746
  775MOL0     H 4570  10.128   7.014   5.323  0.4359 -0.3598  1.6615
  775MOL0     H 4571  10.159   7.184   5.338  0.0048  0.4682  3.9208
  775MOL0     H 4572   9.915   7.024   5.434 -2.2750  2.5477  1.7849
  775MOL0     H 4573  10.041   7.077   5.538 -2.2388 -0.4677  1.0907
  775MOL0     H 4574   9.852   7.259   5.384  0.6839 -0.4922 -0.4137
  775MOL0     H 4575   9.982   7.322   5.485  0.3037  0.3073  0.0757
  775MOL0     H 4576   9.705   7.049   5.579  1.2461 -3.2164  3.0484
  775MOL0     H 4577   9.683   7.058   5.961  2.5120  3.0704 -1.3752
  775MOL0     H 4578   9.557   7.041   5.834  0.5009 -1.0484 -3.9546
  775MOL0     H 4579   9.823   6.881   5.869  0.0656 -1.3801 -3.1690
  775MOL0     H 4580   9.708   6.862   5.732  1.0450  1.6103 -0.9670
  775MOL0     H 4581   9.530   6.807   5.883 -0.9725  2.1469  3.0476
  775MOL0     H 4582   9.619   6.824   6.027  0.8543  0.6595 -0.4757
  775MOL0     H 4583   9.758   6.617   5.923  0.6664 -2.2880 -3.1373
  775MOL0     H 4584   9.650   6.623   5.795  1.3359 -0.7467  0.7252
  775MOL0     H 4585   9.593   6.564   6.238 -0.8700  1.2321 -2.1107
  775MOL0     H 4586   9.787   6.383   6.465  1.2267 -1.6781 -0.1237
  775MOL0     H 4587   9.658   6.497   6.434 -1.3934  0.3470 -0.5524
  775MOL0     H 4588   9.615   6.328   6.459  0.8312 -1.0921 -1.3083
  775MOL0     H 4589   9.991   5.914   6.013  2.1363 -0.7414 -0.2473
  775MOL0     H 4590  10.077   5.679   6.043  0.4660 -0.3432  0.8238
  775MOL0     H 4591  10.167   5.527   6.443  0.9420 -1.3146  0.3471
  775MOL0     H 4592  10.007   5.474   6.373 -0.6830  0.9089 -1.2707
  775MOL0     H 4593  10.123   5.307   6.226 -2.8331  2.5577  1.3530
  775MOL0     H 4594  10.275   5.372   6.277 -0.4489  1.4474  0.0051
  775MOL0     H 4595  10.076   5.243   6.489  1.0510 -4.3531 -0.9496
  775MOL0     H 4596  10.220   5.325   6.517 -4.1732 -0.6232  3.7468
  775MOL0     H 4597  10.174   5.074   6.348  1.2184 -2.3131  0.0550
  775MOL0     H 4598  10.335   5.138   6.358  0.6505  2.3265  1.0513
  775MOL0     H 4599  10.163   5.065   6.593  0.9227 -0.7546  1.6217
  775MOL0     H 4600  10.324   5.119   6.610 -1.2399 -0.0165  2.6269
  775MOL0     H 4601  10.295   4.863   6.622  1.9239 -0.3551  0.8562
  775MOL0     H 4602  10.222   4.879   6.463 -0.4370  1.3915  0.4963
  775MOL0     H 4603  10.502   4.979   6.458  0.5998 -0.5737 -3.7298
  775MOL0     H 4604  10.428   4.881   6.339  1.3593  0.9165  0.1592
  775MOL0     H 4605  10.537   4.789   6.605 -1.2473  3.8064 -0.0904
  775MOL0     H 4606  10.598   4.750   6.444  1.3230 -0.6732  1.1316
  775MOL0     H 4607  10.049   5.719   6.460 -0.2844 -0.7550 -1.2816
  775MOL0     H 4608   9.944   5.948   6.428 -1.7608  0.1787 -1.2778
  775MOL0     H 4609   9.770   6.166   6.005 -3.9158 -0.3028 -0.0054
  775MOL0     H 4610   9.669   6.351   5.878  2.6579  2.8347  0.1839
  775MOL0     H 4611  10.588   7.604   5.059  2.9256  1.6184  4.5166
  775MOL0     H 4612  10.820   7.661   5.006 -1.7082  0.0435  0.6182
  775MOL0     H 4613  11.349   7.275   4.841 -0.3200 -0.1359  0.0590
  775MOL0     H 4614  11.569   7.354   4.814 -2.0161 -0.8705  3.8937
  775MOL0     H 4615  11.782   7.478   4.867  0.5040 -1.6714 -2.5431
  775MOL0     H 4616  11.738   7.512   4.707  0.2867 -1.3875  0.6771
  775MOL0     H 4617  11.880   7.712   4.897  1.7712 -2.3885  1.6120
  775MOL0     H 4618  11.858   7.735   4.724 -2.6659  0.2017  0.3425
  775MOL0     H 4619  12.009   7.536   4.681  1.1869  1.0115 -1.0569
  775MOL0     H 4620  12.041   7.512   4.853  2.3085 -0.5063 -1.5557
  775MOL0     H 4621  12.148   7.717   4.883 -2.4575  2.7863 -0.4074
  775MOL0     H 4622  12.097   7.775   4.724 -2.8646 -2.5277 -2.1559
  775MOL0     H 4623  12.386   7.534   4.573 -2.0694 -0.9824 -1.3809
  775MOL0     H 4624  11.413   7.762   4.882  1.8942  0.3560  5.0946
  775MOL0     H 4625  11.207   7.672   4.938  1.4140  2.7309 -3.6117
  776MOL0     O 4626   0.005   5.717   2.173  0.0373 -0.7140 -0.0342
  776MOL0     C 4627   0.024   5.725   2.047 -0.2043 -0.5576  0.4950
  776MOL0     O 4628  -0.068   5.684   1.950 -0.2963  0.5825 -0.0437
  776MOL0     C 4629  -0.186   5.629   1.987 -0.2764 -0.4619 -0.5101
  776MOL0     C 4630  -0.233   5.533   1.901  0.3051 -0.4797  0.6236
  776MOL0     C 4631  -0.352   5.457   1.933  0.2744 -0.1442 -0.1969
  776MOL0     C 4632  -0.432   5.485   2.037  0.1285  0.4137  0.0485
  776MOL0     O 4633  -0.552   5.414   2.052 -0.1201 -0.0928 -0.0827
  776MOL0     C 4634  -0.608   5.417   2.179  0.4101  0.3222 -0.2009
  776MOL0     C 4635  -0.736   5.337   2.184 -0.4413  0.6164 -0.2861
  776MOL0     C 4636  -0.843   5.406   2.107 -0.2856 -0.3349  0.6629
  776MOL0     C 4637  -0.973   5.335   2.107 -0.3828 -0.2057 -0.5133
  776MOL0     C 4638  -1.047   5.307   2.235 -0.9814 -0.5154  0.5131
  776MOL0     C 4639  -1.013   5.172   2.296 -0.3957  0.0744  0.0494
  776MOL0     C 4640  -1.064   5.164   2.438 -0.2226  0.1371  0.3663
  776MOL0     C 4641  -1.023   5.044   2.520 -0.2007  0.3830  0.3844
  776MOL0     N 4642  -1.109   5.060   2.634 -0.2750 -0.1213 -0.1573
  776MOL0     C 4643  -1.223   4.994   2.652 -0.0641 -0.4914 -0.4554
  776MOL0     C 4644  -1.287   5.054   2.757  1.1926  0.4717  0.6098
  776MOL0     C 4645  -1.421   5.014   2.820 -0.1565 -0.1316 -0.3272
  776MOL0     C 4646  -1.531   5.071   2.727 -0.5773 -0.2897 -0.5263
  776MOL0     C 4647  -1.668   5.030   2.771 -0.2312 -0.5055  0.8656
  776MOL0     C 4648  -1.762   5.077   2.654 -0.6820  0.1191  0.1979
  776MOL0     O 4649  -1.899   5.054   2.685 -0.0756  0.6100 -0.8044
  776MOL0     C 4650  -1.977   5.149   2.740  1.0164 -0.6447  0.4040
  776MOL0     C 4651  -1.934   5.255   2.821 -0.2145 -0.4042  0.9227
  776MOL0     C 4652  -2.024   5.348   2.876  0.4475 -0.2370  0.2521
  776MOL0     C 4653  -1.969   5.471   2.936 -1.1757 -1.0549 -1.1045
  776MOL0     C 4654  -2.164   5.315   2.856  0.1520  0.1638 -0.5641
  776MOL0     C 4655  -2.258   5.401   2.936  0.6036 -0.6857  0.1851
  776MOL0     O 4656  -2.384   5.409   2.880 -0.8443 -0.0864  0.3970
  776MOL0     C 4657  -2.487   5.417   2.967 -0.6128 -0.8704  0.5545
  776MOL0     C 4658  -2.598   5.479   2.923 -0.0726  1.0088  0.6670
  776MOL0     C 4659  -2.712   5.487   2.996  0.1821 -0.1846  0.9880
  776MOL0     C 4660  -2.720   5.426   3.120  0.1502 -0.4426 -0.1488
  776MOL0     O 4661  -2.820   5.431   3.214  0.2832 -0.4761  0.4028
  776MOL0     C 4662  -2.947   5.464   3.159  0.3691 -0.0105 -0.4591
  776MOL0     C 4663  -3.039   5.432   3.273 -0.8730  0.4086  0.0320
  776MOL0     C 4664  -3.193   5.448   3.269  0.2402  0.4672  0.3311
  776MOL0     C 4665  -3.238   5.450   3.416 -0.9430 -0.0804  0.9901
  776MOL0     C 4666  -3.392   5.444   3.425  0.4004 -0.0158  0.2736
  776MOL0     C 4667  -3.463   5.582   3.405  0.1539  0.4913  0.1759
  776MOL0     C 4668  -3.612   5.597   3.442  0.1960 -0.1928 -0.0448
  776MOL0     C 4669  -3.714   5.521   3.344 -0.2112 -0.9455  0.3874
  776MOL0    Cl 4670  -3.873   5.551   3.409  0.6834  0.2518 -0.4048
  776MOL0     C 4671  -2.606   5.361   3.169 -0.9112  0.5319 -0.0417
  776MOL0     C 4672  -2.491   5.353   3.092  0.0842  0.0966 -0.3194
  776MOL0     O 4673  -2.223   5.465   3.039  0.0149  0.8016  0.2290
  776MOL0     C 4674  -2.206   5.211   2.775  0.0324 -0.3155 -0.0289
  776MOL0     C 4675  -2.112   5.125   2.720 -0.2145 -0.5015  1.0528
  776MOL0     N 4676  -1.210   5.157   2.800 -0.3839  0.4888  0.2515
  776MOL0     N 4677  -1.106   5.154   2.731 -0.9504  0.0438 -0.2153
  776MOL0     C 4678  -0.397   5.588   2.127  0.6993  0.6886 -0.2504
  776MOL0     C 4679  -0.273   5.665   2.102  0.6709 -0.6155  0.3039
  776MOL0     C 4680   0.158   5.748   1.991 -0.6315 -0.1271  0.3850
  776MOL0     C 4681   0.262   5.784   2.075  0.3876 -0.4186 -0.6727
  776MOL0     C 4682   0.383   5.819   2.013 -0.5983 -0.2204 -0.0514
  776MOL0     C 4683   0.408   5.823   1.874 -1.6058  0.1237  0.9503
  776MOL0     O 4684   0.525   5.877   1.820 -0.0467 -0.1741 -0.3960
  776MOL0     C 4685   0.593   5.985   1.895  0.5483 -0.7632  0.5457
  776MOL0     C 4686   0.707   6.035   1.812 -0.5106  0.4947 -0.9669
  776MOL0     C 4687   0.814   5.920   1.804 -0.4037 -0.1382  0.1328
  776MOL0     C 4688   0.902   5.899   1.926 -0.0792  0.0681 -0.2513
  776MOL0     C 4689   1.009   6.005   1.936  0.3876 -0.1781  0.1997
  776MOL0     C 4690   1.088   6.096   1.939  0.0481 -0.2873 -0.1118
  776MOL0     C 4691   0.308   5.776   1.794 -0.1570  0.4000 -0.8919
  776MOL0     C 4692   0.191   5.730   1.855  0.2297  0.2774  1.0106
  776MOL0     H 4693  -0.169   5.502   1.819  0.2405 -1.6380  0.9897
  776MOL0     H 4694  -0.382   5.378   1.865  1.4597  1.5266 -2.8537
  776MOL0     H 4695  -0.536   5.373   2.248  0.0305  1.3480  0.8772
  776MOL0     H 4696  -0.636   5.518   2.211 -2.3832 -0.9388  1.7124
  776MOL0     H 4697  -0.712   5.241   2.138  0.9667  0.3554  0.9247
  776MOL0     H 4698  -0.765   5.311   2.286 -2.7431 -3.1092 -1.6980
  776MOL0     H 4699  -0.842   5.512   2.133  3.2237  0.6617 -2.5649
  776MOL0     H 4700  -0.800   5.399   2.006  2.0181  0.6559  1.4961
  776MOL0     H 4701  -1.034   5.388   2.034 -0.2703  0.5313 -0.0816
  776MOL0     H 4702  -0.959   5.239   2.056 -1.7989 -0.8158  0.1915
  776MOL0     H 4703  -1.034   5.389   2.306 -1.0639 -0.3247  0.3100
  776MOL0     H 4704  -1.153   5.304   2.209 -1.5560  1.1743  2.3723
  776MOL0     H 4705  -1.068   5.089   2.250 -0.1643 -0.0201 -0.0576
  776MOL0     H 4706  -0.909   5.138   2.285 -1.3073 -3.7303  1.6993
  776MOL0     H 4707  -1.036   5.256   2.489 -2.0148  0.4037  0.9295
  776MOL0     H 4708  -1.173   5.164   2.426 -0.0356  0.2800 -1.6093
  776MOL0     H 4709  -0.919   5.057   2.550 -1.0625  1.6882  3.2240
  776MOL0     H 4710  -1.025   4.955   2.456  3.2326 -0.0964  0.7593
  776MOL0     H 4711  -1.256   4.906   2.598 -1.9492 -0.0361 -0.1097
  776MOL0     H 4712  -1.426   4.906   2.837  0.0294 -0.1723 -0.5219
  776MOL0     H 4713  -1.431   5.067   2.915 -1.9406  0.5696 -0.8582
  776MOL0     H 4714  -1.502   5.032   2.629  1.9188  1.2959 -0.5026
  776MOL0     H 4715  -1.529   5.180   2.736  0.3326 -0.3894  0.8147
  776MOL0     H 4716  -1.701   5.080   2.862 -3.6534  0.5425 -0.7649
  776MOL0     H 4717  -1.675   4.923   2.790  0.6842 -0.5395  1.0698
  776MOL0     H 4718  -1.746   5.031   2.556  2.1292  3.2576 -1.0252
  776MOL0     H 4719  -1.745   5.183   2.636 -0.8978  0.0669 -0.3100
  776MOL0     H 4720  -1.827   5.257   2.840  0.0247  0.3467 -0.4171
  776MOL0     H 4721  -1.971   5.455   3.044 -2.0751 -3.8966 -1.4739
  776MOL0     H 4722  -1.865   5.495   2.910 -1.1383 -0.2278 -0.2494
  776MOL0     H 4723  -2.035   5.556   2.917 -1.5799 -1.4087 -1.3026
  776MOL0     H 4724  -2.583   5.545   2.838  1.6929 -0.0161  0.1045
  776MOL0     H 4725  -2.785   5.554   2.952  0.7078  0.5111  1.1606
  776MOL0     H 4726  -2.959   5.571   3.138 -0.8666 -0.2516 -1.0118
  776MOL0     H 4727  -2.968   5.399   3.074 -3.8734 -0.5136  0.7336
  776MOL0     H 4728  -3.027   5.324   3.286 -0.1538  0.1428 -2.4536
  776MOL0     H 4729  -3.001   5.475   3.367  0.0511 -4.9119  2.4561
  776MOL0     H 4730  -3.241   5.364   3.218  3.5319 -0.1454 -2.0332
  776MOL0     H 4731  -3.221   5.539   3.215 -0.0857  0.5865  0.6920
  776MOL0     H 4732  -3.200   5.371   3.482  1.4665  1.0889  1.1191
  776MOL0     H 4733  -3.207   5.548   3.454 -1.7867 -0.1703  1.9255
  776MOL0     H 4734  -3.423   5.407   3.524  0.6576 -1.2278 -0.0849
  776MOL0     H 4735  -3.437   5.373   3.355 -2.0870  0.2064  1.5077
  776MOL0     H 4736  -3.433   5.657   3.478 -0.5315 -0.7276  1.7749
  776MOL0     H 4737  -3.444   5.620   3.304 -1.6395 -1.3347 -0.9229
  776MOL0     H 4738  -3.638   5.702   3.427 -1.6870 -1.0411 -4.2640
  776MOL0     H 4739  -3.618   5.579   3.550  3.6633  0.6760  0.4224
  776MOL0     H 4740  -3.687   5.415   3.337  1.3682 -0.8394  3.2806
  776MOL0     H 4741  -3.703   5.568   3.246  2.1736 -0.5716  0.7535
  776MOL0     H 4742  -2.617   5.321   3.269 -2.5903 -2.4241 -1.2765
  776MOL0     H 4743  -2.414   5.297   3.144 -1.2538 -0.7892  0.7683
  776MOL0     H 4744  -2.314   5.194   2.772 -0.1663  0.9366 -0.8408
  776MOL0     H 4745  -2.143   5.043   2.656 -0.4970  1.3539 -1.3607
  776MOL0     H 4746  -0.445   5.603   2.223  0.8654 -1.7413  0.2781
  776MOL0     H 4747  -0.242   5.752   2.158 -0.7284  2.5704 -3.3685
  776MOL0     H 4748   0.255   5.791   2.183 -0.2520  1.8593 -0.8046
  776MOL0     H 4749   0.467   5.851   2.074  1.4716 -0.9382 -2.3733
  776MOL0     H 4750   0.531   6.075   1.904  0.6628 -0.5401 -0.6999
  776MOL0     H 4751   0.633   5.953   1.992 -0.9403  0.2286  1.5286
  776MOL0     H 4752   0.759   6.120   1.856 -2.1350  1.1005 -0.1591
  776MOL0     H 4753   0.662   6.059   1.715 -0.8973 -3.4201 -1.9536
  776MOL0     H 4754   0.871   5.947   1.714 -0.3401 -1.3607 -0.2183
  776MOL0     H 4755   0.771   5.823   1.776  1.7355 -0.8069 -1.0559
  776MOL0     H 4756   0.958   5.806   1.913  2.0118  0.9780  1.4793
  776MOL0     H 4757   0.839   5.892   2.015 -2.4912 -2.6991 -1.9993
  776MOL0     H 4758   1.149   6.184   1.944 -0.6943  0.1752  1.1610
  776MOL0     H 4759   0.317   5.773   1.686 -2.7124 -0.8957 -1.1387
  776MOL0     H 4760   0.107   5.706   1.791 -0.1918  2.1186  0.8004
  777MOL0     O 4761   6.252   7.413   1.219 -0.6017  0.4892  0.8473
  777MOL0     C 4762   6.315   7.419   1.330 -0.2126  0.0716  0.5986
  777MOL0     O 4763   6.257   7.422   1.457 -0.6101 -0.1029  0.2700
  777MOL0     C 4764   6.122   7.439   1.483 -0.6124  0.2876  0.2198
  777MOL0     C 4765   6.096   7.508   1.607 -0.0093 -0.1598 -0.3871
  777MOL0     C 4766   5.967   7.551   1.637 -0.3847  0.9278  1.3088
  777MOL0     C 4767   5.866   7.529   1.556 -0.2727  0.0891  0.1805
  777MOL0     O 4768   5.756   7.590   1.598  0.0784  0.3443  0.5486
  777MOL0     C 4769   5.628   7.578   1.525 -0.2342 -0.8668 -0.6486
  777MOL0     C 4770   5.539   7.701   1.534  0.7336 -0.2499  0.1552
  777MOL0     C 4771   5.421   7.706   1.434 -0.2209 -0.2592 -1.0911
  777MOL0     C 4772   5.353   7.849   1.432 -1.1309  0.2886  0.1153
  777MOL0     C 4773   5.226   7.844   1.340  0.2013  0.8565 -0.8486
  777MOL0     C 4774   5.142   7.973   1.375  0.0517 -0.1002 -0.3726
  777MOL0     C 4775   5.005   7.989   1.306 -0.0646 -1.0644 -0.2043
  777MOL0     C 4776   4.921   8.099   1.388 -0.3930  0.1583  0.3761
  777MOL0     N 4777   4.812   8.147   1.303 -0.0392 -0.2860  0.3307
  777MOL0     C 4778   4.819   8.221   1.186 -0.1413  0.1776 -0.6308
  777MOL0     C 4779   4.694   8.228   1.143  0.9484  0.2623 -0.1231
  777MOL0     C 4780   4.638   8.306   1.021 -0.2646 -0.0231 -0.2025
  777MOL0     C 4781   4.576   8.441   1.070  0.0102  0.0682 -0.2098
  777MOL0     C 4782   4.463   8.412   1.171  0.1219  0.0413  0.7904
  777MOL0     C 4783   4.367   8.525   1.197  0.6779  0.0424  0.4754
  777MOL0     O 4784   4.291   8.533   1.070  0.2357 -0.0863  0.0827
  777MOL0     C 4785   4.185   8.622   1.060  0.1948 -0.4564 -0.0045
  777MOL0     C 4786   4.100   8.614   0.948 -0.0224 -0.1275  0.3747
  777MOL0     C 4787   3.989   8.701   0.933 -0.3013 -0.8549  1.0874
  777MOL0     C 4788   3.903   8.698   0.812  1.3364 -0.4436  0.6911
  777MOL0     C 4789   3.963   8.803   1.031  0.2443 -0.1319 -0.2091
  777MOL0     C 4790   3.857   8.907   1.029 -0.5563 -0.4248  0.0304
  777MOL0     O 4791   3.797   8.923   0.911 -0.6373  0.8416 -0.1235
  777MOL0     C 4792   3.667   8.964   0.908 -0.8383 -0.0680 -0.5993
  777MOL0     C 4793   3.571   8.916   0.997  0.3113 -0.3097 -0.3266
  777MOL0     C 4794   3.434   8.962   0.981  0.1042  0.5799  0.3807
  777MOL0     C 4795   3.399   9.049   0.878  0.4540 -0.1151 -1.0784
  777MOL0     O 4796   3.274   9.100   0.867 -0.4649 -0.4083  0.7350
  777MOL0     C 4797   3.170   9.004   0.886 -0.5291  0.2068 -0.3080
  777MOL0     C 4798   3.042   9.069   0.859  0.1466 -0.5439  0.6569
  777MOL0     C 4799   3.029   9.091   0.701 -0.6006  0.3476  0.6241
  777MOL0     C 4800   2.952   8.972   0.642  0.3681 -0.2153  0.8360
  777MOL0     C 4801   2.950   8.985   0.481  0.1278 -0.3156 -0.4754
  777MOL0     C 4802   2.844   8.899   0.418  0.3469 -0.1754  0.3385
  777MOL0     C 4803   2.859   8.905   0.258  0.4853 -0.1768  0.0095
  777MOL0     C 4804   2.722   8.937   0.181  0.1847  0.1707  0.7378
  777MOL0    Cl 4805   2.587   8.863   0.265 -0.1723  0.1389 -0.0618
  777MOL0     C 4806   3.495   9.093   0.789  0.2161 -0.6724  0.3331
  777MOL0     C 4807   3.629   9.054   0.808  0.6613 -0.2961  0.1098
  777MOL0     O 4808   3.830   8.981   1.126 -0.3631  0.8063 -0.2387
  777MOL0     C 4809   4.052   8.803   1.141  0.1717 -0.1154 -0.2426
  777MOL0     C 4810   4.155   8.717   1.159  0.0403 -0.5660 -0.1505
  777MOL0     N 4811   4.617   8.134   1.217 -0.2497 -0.3017  0.0838
  777MOL0     N 4812   4.688   8.092   1.315  0.1353  0.7061 -0.4814
  777MOL0     C 4813   5.878   7.458   1.436 -0.0963 -0.1576 -0.2988
  777MOL0     C 4814   6.009   7.424   1.395  0.3111  0.6216  0.0539
  777MOL0     C 4815   6.461   7.410   1.323  0.5625 -0.0705 -0.0724
  777MOL0     C 4816   6.540   7.413   1.433 -0.3173 -0.6312 -0.1240
  777MOL0     C 4817   6.683   7.415   1.420  0.7981 -0.1661 -0.3258
  777MOL0     C 4818   6.740   7.403   1.296 -0.2107  0.6105  0.4844
  777MOL0     O 4819   6.873   7.413   1.257  0.1560 -0.3053  0.7976
  777MOL0     C 4820   6.983   7.399   1.344 -0.8029  0.3906 -0.7489
  777MOL0     C 4821   6.997   7.261   1.394  0.1054 -0.9635  0.9756
  777MOL0     C 4822   7.092   7.266   1.516 -0.4745 -0.0683  0.9688
  777MOL0     C 4823   7.108   7.134   1.581  0.3692 -0.6410 -0.0556
  777MOL0     C 4824   7.141   7.022   1.490 -0.1439 -0.3753 -0.3527
  777MOL0     C 4825   7.160   6.928   1.413  0.3375 -0.8773 -0.0275
  777MOL0     C 4826   6.660   7.402   1.186 -0.0030 -0.4547 -0.5225
  777MOL0     C 4827   6.522   7.400   1.196 -0.3762  0.3409  1.0126
  777MOL0     H 4828   6.177   7.529   1.676  0.6145  0.6866 -1.3489
  777MOL0     H 4829   5.953   7.613   1.725 -2.2816  0.4386  1.3951
  777MOL0     H 4830   5.650   7.574   1.418  1.3938 -1.1429 -0.3354
  777MOL0     H 4831   5.572   7.491   1.561  0.0369 -0.2985  1.2286
  777MOL0     H 4832   5.488   7.721   1.629 -0.9823  0.2819 -0.8348
  777MOL0     H 4833   5.604   7.787   1.516 -2.4779  3.0754  2.9579
  777MOL0     H 4834   5.456   7.689   1.332  0.0757 -2.1625 -0.7058
  777MOL0     H 4835   5.347   7.630   1.460  3.1696 -3.4234  0.2458
  777MOL0     H 4836   5.335   7.873   1.538  0.1778  0.4163  0.3259
  777MOL0     H 4837   5.412   7.931   1.390 -2.6192  1.2141 -0.2172
  777MOL0     H 4838   5.247   7.831   1.233  2.6218 -2.3056 -0.1551
  777MOL0     H 4839   5.164   7.758   1.369  2.0411 -0.2240  0.0660
  777MOL0     H 4840   5.124   7.959   1.482 -2.6631 -0.1120 -0.7692
  777MOL0     H 4841   5.197   8.067   1.374 -0.0875 -0.0114  0.0525
  777MOL0     H 4842   5.021   8.009   1.199  2.5574 -2.9390 -0.2663
  777MOL0     H 4843   4.957   7.891   1.309 -0.9689 -0.6089  1.4611
  777MOL0     H 4844   4.987   8.184   1.406  0.2716  0.1986 -1.8539
  777MOL0     H 4845   4.890   8.061   1.485  1.8133  1.1218  1.5282
  777MOL0     H 4846   4.908   8.277   1.157  0.7971 -0.3914  1.0386
  777MOL0     H 4847   4.705   8.318   0.936 -3.4197 -0.5883 -2.9573
  777MOL0     H 4848   4.557   8.250   0.974  1.5226 -1.7605 -1.3700
  777MOL0     H 4849   4.537   8.498   0.985  0.6336  0.5353 -0.1897
  777MOL0     H 4850   4.657   8.495   1.120  2.2188 -2.5069 -0.7756
  777MOL0     H 4851   4.513   8.399   1.267  0.9809  1.0025  0.5017
  777MOL0     H 4852   4.409   8.325   1.132  0.8623  0.3434 -1.0379
  777MOL0     H 4853   4.430   8.612   1.218  0.8401 -0.4180  1.9772
  777MOL0     H 4854   4.297   8.494   1.274  2.1063 -2.9033  0.7392
  777MOL0     H 4855   4.141   8.548   0.872  0.7987  1.2089 -0.3641
  777MOL0     H 4856   3.910   8.787   0.750 -1.2932 -0.1235  0.7426
  777MOL0     H 4857   3.915   8.614   0.743  1.3846 -1.1936  1.5761
  777MOL0     H 4858   3.801   8.675   0.846  0.1390  0.0566 -2.2483
  777MOL0     H 4859   3.605   8.845   1.072  1.6839  1.7420  1.1080
  777MOL0     H 4860   3.366   8.922   1.056 -1.7709  2.0420 -0.4639
  777MOL0     H 4861   3.175   8.910   0.829 -3.7064 -0.0059 -0.3915
  777MOL0     H 4862   3.174   8.963   0.988  3.2908 -2.0594 -1.1468
  777MOL0     H 4863   2.961   9.005   0.895 -0.1965  0.1227  1.0875
  777MOL0     H 4864   3.040   9.167   0.909 -2.0166  0.3669 -1.0291
  777MOL0     H 4865   3.121   9.088   0.642 -0.7493  0.2161  0.3974
  777MOL0     H 4866   2.987   9.188   0.673  2.4993  1.0945 -2.0621
  777MOL0     H 4867   3.008   8.882   0.668  2.3678  0.7481  0.0407
  777MOL0     H 4868   2.853   8.978   0.688  0.8309 -0.5345  1.9293
  777MOL0     H 4869   3.051   8.962   0.444  0.9314  2.2896 -0.1094
  777MOL0     H 4870   2.947   9.091   0.456  2.6929  0.1291  0.7891
  777MOL0     H 4871   2.842   8.794   0.449  1.8305  0.1434  1.6162
  777MOL0     H 4872   2.750   8.952   0.439 -0.6182 -1.1967 -1.2141
  777MOL0     H 4873   2.890   8.804   0.227 -0.7329 -1.1801  1.8604
  777MOL0     H 4874   2.933   8.975   0.219  0.7264 -0.5551 -0.2284
  777MOL0     H 4875   2.723   8.891   0.082  0.8733 -0.9094  1.2346
  777MOL0     H 4876   2.706   9.045   0.169  2.9394  0.7022  1.3214
  777MOL0     H 4877   3.478   9.182   0.728  1.1080  0.3035  1.4415
  777MOL0     H 4878   3.698   9.109   0.744  0.2025 -0.9250 -0.9404
  777MOL0     H 4879   4.027   8.862   1.229  1.7912 -1.3117  1.0854
  777MOL0     H 4880   4.218   8.724   1.247  4.1147  0.2284 -2.8513
  777MOL0     H 4881   5.796   7.449   1.365 -0.4682  0.1835  0.0883
  777MOL0     H 4882   6.029   7.404   1.290  3.3856 -0.0036  0.6465
  777MOL0     H 4883   6.494   7.415   1.531 -1.0259  0.2109 -0.4613
  777MOL0     H 4884   6.750   7.414   1.505  0.0443  4.1612  0.5594
  777MOL0     H 4885   7.072   7.429   1.287  1.3397 -1.0760  1.5997
  777MOL0     H 4886   6.972   7.474   1.422 -0.3976  0.2302 -0.5351
  777MOL0     H 4887   7.033   7.196   1.314  1.8249 -0.1084  0.9915
  777MOL0     H 4888   6.900   7.225   1.431 -2.5872  2.2714 -2.2991
  777MOL0     H 4889   7.047   7.329   1.593 -0.9377  0.5455  0.2112
  777MOL0     H 4890   7.185   7.312   1.482 -1.5054  2.8550  1.7984
  777MOL0     H 4891   7.020   7.107   1.641 -1.6877  3.1468 -1.0196
  777MOL0     H 4892   7.193   7.142   1.648  1.5554 -1.7769 -1.3502
  777MOL0     H 4893   7.174   6.843   1.350 -0.5163 -1.5456  0.6726
  777MOL0     H 4894   6.714   7.405   1.092  0.5742  0.1256 -0.1773
  777MOL0     H 4895   6.462   7.386   1.107 -0.0174  0.2557  0.7791
  778MOL0     O 4896  10.517   6.294   5.793 -0.3714  0.2380  0.2008
  778MOL0     C 4897  10.602   6.342   5.718  0.6109 -0.0504  0.5404
  778MOL0     O 4898  10.592   6.448   5.642  0.3045 -0.2210 -0.1686
  778MOL0     C 4899  10.469   6.478   5.593  0.3434  0.2667 -0.0647
  778MOL0     C 4900  10.369   6.387   5.557  0.5697 -0.4890 -0.1789
  778MOL0     C 4901  10.261   6.434   5.480  0.2895 -0.5276  0.3195
  778MOL0     C 4902  10.247   6.561   5.419  0.3816  0.9578 -0.2757
  778MOL0     O 4903  10.148   6.605   5.342 -0.4752 -0.0357  0.3089
  778MOL0     C 4904  10.033   6.532   5.316 -0.6054  0.7835  0.5458
  778MOL0     C 4905   9.934   6.607   5.235  0.2451 -0.6858  0.2911
  778MOL0     C 4906   9.977   6.603   5.096  0.1505  0.3013  0.9216
  778MOL0     C 4907   9.878   6.700   5.018 -0.7123  0.3370  0.4071
  778MOL0     C 4908   9.734   6.645   4.994  0.0784  0.1040 -0.3302
  778MOL0     C 4909   9.653   6.746   4.909  0.1346  0.7257 -0.3723
  778MOL0     C 4910   9.499   6.692   4.907  0.4758 -0.6672 -0.3248
  778MOL0     C 4911   9.439   6.768   4.787  0.5897  0.5133 -0.6982
  778MOL0     N 4912   9.445   6.914   4.790 -0.3597 -0.1406  0.6786
  778MOL0     C 4913   9.344   6.994   4.828  0.3146  0.4166  0.3455
  778MOL0     C 4914   9.378   7.117   4.784  1.0925 -0.3960  0.4125
  778MOL0     C 4915   9.287   7.235   4.783  0.1437  1.0705  0.8161
  778MOL0     C 4916   9.144   7.199   4.748 -0.3727 -1.0439 -0.2730
  778MOL0     C 4917   9.053   7.323   4.759  0.2439 -0.4686 -0.3066
  778MOL0     C 4918   8.908   7.294   4.731 -0.2886  0.2278  0.1374
  778MOL0     O 4919   8.846   7.417   4.694 -0.0519 -0.0192 -0.1646
  778MOL0     C 4920   8.706   7.419   4.690  0.6429  0.2537  0.3893
  778MOL0     C 4921   8.620   7.309   4.670  0.0341  0.8778  0.0067
  778MOL0     C 4922   8.484   7.310   4.657 -0.4862  0.7270  0.0971
  778MOL0     C 4923   8.414   7.172   4.666  0.7281 -0.6625 -0.2350
  778MOL0     C 4924   8.420   7.428   4.647  0.6256 -0.4920  0.4702
  778MOL0     C 4925   8.284   7.456   4.616  0.5754 -0.3144 -0.1318
  778MOL0     O 4926   8.223   7.358   4.544 -0.3262  0.2962  0.1456
  778MOL0     C 4927   8.088   7.378   4.524 -0.9328  0.1715  0.0966
  778MOL0     C 4928   8.040   7.424   4.400  0.0317 -0.3555 -0.0468
  778MOL0     C 4929   7.899   7.427   4.379 -0.2725  0.2598 -1.1535
  778MOL0     C 4930   7.811   7.394   4.479  0.8223 -0.4620  0.8323
  778MOL0     O 4931   7.679   7.405   4.454 -0.0606  0.2311 -0.2647
  778MOL0     C 4932   7.578   7.338   4.531 -0.1062 -0.5778 -0.3408
  778MOL0     C 4933   7.449   7.376   4.453  0.7302  0.5079 -0.1195
  778MOL0     C 4934   7.335   7.269   4.455 -0.0080  0.3407 -0.7511
  778MOL0     C 4935   7.274   7.248   4.594 -0.2992 -0.0711 -0.3648
  778MOL0     C 4936   7.195   7.127   4.621 -0.2884  0.0279  0.3276
  778MOL0     C 4937   7.056   7.131   4.547 -0.4023 -0.1831 -0.4386
  778MOL0     C 4938   6.941   7.049   4.608  0.2113 -0.4410  0.2047
  778MOL0     C 4939   6.820   7.058   4.515  0.2695  0.4053  0.7309
  778MOL0    Cl 4940   6.698   6.944   4.579  0.2043 -0.1990  0.1580
  778MOL0     C 4941   7.854   7.345   4.602 -0.0162 -1.0866  1.0606
  778MOL0     C 4942   7.992   7.338   4.622  0.6562  0.1973 -0.1834
  778MOL0     O 4943   8.235   7.568   4.640  0.5416  0.1650  0.8593
  778MOL0     C 4944   8.504   7.549   4.654 -0.6030 -0.1561 -0.1179
  778MOL0     C 4945   8.640   7.540   4.677 -0.5737 -0.4095 -0.3840
  778MOL0     N 4946   9.505   7.112   4.725 -0.5002  0.9495 -0.3803
  778MOL0     N 4947   9.546   6.986   4.728 -0.0759 -0.5528 -1.0215
  778MOL0     C 4948  10.348   6.656   5.455 -0.5172  0.9913 -0.1643
  778MOL0     C 4949  10.464   6.607   5.533  0.7004 -1.2086 -0.1953
  778MOL0     C 4950  10.747   6.291   5.721 -0.0535 -0.4262  0.0946
  778MOL0     C 4951  10.842   6.352   5.640 -1.3596  0.2495  0.1051
  778MOL0     C 4952  10.971   6.299   5.638 -0.0522  0.3227  0.1385
  778MOL0     C 4953  11.007   6.189   5.719  0.4403  0.4643 -0.5665
  778MOL0     O 4954  11.137   6.146   5.722 -0.1561  0.7884 -0.7320
  778MOL0     C 4955  11.214   6.165   5.607  0.3250  0.1120  1.6642
  778MOL0     C 4956  11.211   6.041   5.513  0.4538 -0.3825  0.2375
  778MOL0     C 4957  11.313   6.027   5.401  1.2306 -0.6581  0.1317
  778MOL0     C 4958  11.466   6.031   5.441  0.0537 -0.3484 -1.3051
  778MOL0     C 4959  11.496   5.955   5.569  0.5021  0.9286  0.5405
  778MOL0     C 4960  11.525   5.903   5.674  0.1566  0.2695  0.2554
  778MOL0     C 4961  10.915   6.145   5.811  0.6093  0.8772  0.8929
  778MOL0     C 4962  10.786   6.188   5.808  0.2294  0.0907  0.3184
  778MOL0     H 4963  10.388   6.283   5.583 -0.0431 -0.4583  0.4443
  778MOL0     H 4964  10.195   6.355   5.445 -0.6455  0.3292  0.1123
  778MOL0     H 4965  10.051   6.431   5.278  0.9172  0.6685  1.4812
  778MOL0     H 4966   9.991   6.511   5.414 -1.1349 -0.2982  0.1009
  778MOL0     H 4967   9.832   6.568   5.240  0.1056 -0.9296 -2.7035
  778MOL0     H 4968   9.946   6.708   5.275  1.5791  0.1266 -1.9282
  778MOL0     H 4969  10.077   6.646   5.086 -0.1432  1.0978  1.3211
  778MOL0     H 4970   9.977   6.504   5.049  0.5841  1.0236 -0.6662
  778MOL0     H 4971   9.869   6.797   5.068 -4.2840  1.9891 -2.9896
  778MOL0     H 4972   9.917   6.709   4.917 -1.8308  0.4666 -0.0248
  778MOL0     H 4973   9.734   6.540   4.965 -1.1958 -0.5056  1.6972
  778MOL0     H 4974   9.681   6.635   5.089  1.6565 -1.7794  0.4171
  778MOL0     H 4975   9.663   6.848   4.948  3.0966  0.0514  0.8629
  778MOL0     H 4976   9.687   6.745   4.805 -1.4945 -3.2177 -1.0577
  778MOL0     H 4977   9.479   6.586   4.891  0.2654 -0.4810 -1.3727
  778MOL0     H 4978   9.454   6.724   5.002  0.3354  0.4622 -0.7558
  778MOL0     H 4979   9.332   6.754   4.769  0.5170 -0.1108  0.1426
  778MOL0     H 4980   9.497   6.736   4.700  2.5438 -0.0401  0.7263
  778MOL0     H 4981   9.259   6.960   4.887  1.9807 -3.9103  0.6500
  778MOL0     H 4982   9.277   7.286   4.879  0.6293 -0.1193  1.5200
  778MOL0     H 4983   9.327   7.302   4.706  1.2913 -0.6529 -0.1584
  778MOL0     H 4984   9.108   7.117   4.811  0.5120 -0.2192  1.3659
  778MOL0     H 4985   9.135   7.171   4.643  4.0712  0.7951 -1.3680
  778MOL0     H 4986   9.090   7.410   4.703 -3.6302  0.6665 -1.4134
  778MOL0     H 4987   9.061   7.351   4.864  0.0569 -0.6352 -0.2476
  778MOL0     H 4988   8.880   7.236   4.820  0.1831  0.1037  0.2078
  778MOL0     H 4989   8.906   7.230   4.642 -1.5271 -0.2433  0.4885
  778MOL0     H 4990   8.666   7.211   4.674  0.2945  0.9409 -1.0312
  778MOL0     H 4991   8.439   7.113   4.577 -0.6114 -1.0497 -0.3686
  778MOL0     H 4992   8.454   7.128   4.758  1.2602  0.9353  0.3334
  778MOL0     H 4993   8.306   7.177   4.681  0.7402 -1.2652  0.0975
  778MOL0     H 4994   8.111   7.435   4.320  1.3914 -0.1518  1.1443
  778MOL0     H 4995   7.877   7.470   4.282  1.6948  2.3561 -0.7737
  778MOL0     H 4996   7.600   7.231   4.523  3.3596 -0.0892  0.6451
  778MOL0     H 4997   7.568   7.361   4.638 -0.8974 -2.3427 -0.0017
  778MOL0     H 4998   7.414   7.470   4.497 -0.3655  0.8693 -1.6654
  778MOL0     H 4999   7.472   7.397   4.349  0.0022  1.6694 -0.0732
  778MOL0     H 5000   7.385   7.177   4.425  2.6151  0.6051  2.3219
  778MOL0     H 5001   7.261   7.286   4.375 -0.6532  2.8324  0.2907
  778MOL0     H 5002   7.356   7.252   4.666 -1.8700  0.4023  1.4712
  778MOL0     H 5003   7.213   7.334   4.622  1.3669  0.7701  0.8804
  778MOL0     H 5004   7.171   7.117   4.727 -3.0640 -0.1752 -0.2530
  778MOL0     H 5005   7.258   7.042   4.592 -0.0974 -1.0016  3.3727
  778MOL0     H 5006   7.023   7.234   4.561 -3.1994 -0.9003 -1.1277
  778MOL0     H 5007   7.062   7.113   4.439  3.4286 -1.1101 -0.2072
  778MOL0     H 5008   6.922   7.104   4.701 -2.9968  1.8332 -1.5633
  778MOL0     H 5009   6.966   6.946   4.633  0.1682 -0.8768 -1.4576
  778MOL0     H 5010   6.845   7.015   4.417 -1.7837 -1.0441  0.7797
  778MOL0     H 5011   6.769   7.153   4.500  0.2826 -0.0451 -3.1916
  778MOL0     H 5012   7.791   7.311   4.683 -1.8287  0.2352  0.2789
  778MOL0     H 5013   8.023   7.302   4.720 -1.8276 -0.4062  0.4698
  778MOL0     H 5014   8.474   7.648   4.623 -1.1515 -0.6385 -1.1680
  778MOL0     H 5015   8.698   7.631   4.676 -3.0405  1.2482 -0.1277
  778MOL0     H 5016  10.340   6.754   5.409 -0.2542  0.9098 -0.3876
  778MOL0     H 5017  10.541   6.679   5.561  0.0287 -0.7413  0.4847
  778MOL0     H 5018  10.824   6.437   5.575  2.2768  1.6280  0.6643
  778MOL0     H 5019  11.030   6.346   5.559  1.2515 -0.0432  0.8687
  778MOL0     H 5020  11.199   6.261   5.555  1.5644 -0.3372  0.3879
  778MOL0     H 5021  11.318   6.168   5.643  1.0590 -1.9819 -0.0638
  778MOL0     H 5022  11.112   6.037   5.466 -0.0663 -2.2868  1.3532
  778MOL0     H 5023  11.207   5.953   5.578 -4.2754 -2.2101 -2.0207
  778MOL0     H 5024  11.284   6.095   5.321 -1.2739 -0.6631  0.9272
  778MOL0     H 5025  11.290   5.928   5.361 -1.7999  0.7536 -1.9957
  778MOL0     H 5026  11.491   6.138   5.450  1.0278 -0.6866  0.5038
  778MOL0     H 5027  11.534   6.001   5.361  0.3254 -2.2924 -0.3927
  778MOL0     H 5028  11.545   5.862   5.772 -2.5733  1.4340  1.3942
  778MOL0     H 5029  10.939   6.067   5.883  2.1455 -0.4691 -0.9877
  778MOL0     H 5030  10.716   6.148   5.880  0.3005 -0.1087  0.2771
  779MOL0     O 5031   7.172   6.326   8.769  0.1231 -0.0540  0.1391
  779MOL0     C 5032   7.211   6.390   8.867  0.5843 -0.2152 -0.6087
  779MOL0     O 5033   7.134   6.464   8.948  0.9967  0.5971 -0.0969
  779MOL0     C 5034   7.004   6.513   8.919  0.5485  0.5650  0.3086
  779MOL0     C 5035   6.928   6.535   9.035 -0.4465  0.8362 -0.3599
  779MOL0     C 5036   6.792   6.570   9.030 -0.7269 -1.2822 -1.3922
  779MOL0     C 5037   6.741   6.602   8.906  0.1430  0.4572 -0.1246
  779MOL0     O 5038   6.614   6.647   8.882  0.3053 -0.3709 -0.1780
  779MOL0     C 5039   6.530   6.685   8.996 -0.5431  0.1042  0.0861
  779MOL0     C 5040   6.392   6.743   8.943 -0.5702  0.0502 -0.1627
  779MOL0     C 5041   6.314   6.641   8.868 -0.0132  0.0144 -0.0095
  779MOL0     C 5042   6.208   6.706   8.776 -0.7760  0.1890  0.5393
  779MOL0     C 5043   6.096   6.749   8.867  0.4303 -0.3957 -0.0949
  779MOL0     C 5044   5.966   6.771   8.789 -0.2212  0.0632 -0.0319
  779MOL0     C 5045   5.897   6.637   8.782  0.8735 -0.5824 -0.7978
  779MOL0     C 5046   5.781   6.672   8.689  0.0162  0.2101 -0.1549
  779MOL0     N 5047   5.700   6.552   8.663  0.0700 -0.3120 -0.9344
  779MOL0     C 5048   5.683   6.469   8.556  0.2936 -0.3680 -0.2803
  779MOL0     C 5049   5.603   6.367   8.605 -0.4325  0.2041 -0.1139
  779MOL0     C 5050   5.543   6.262   8.522 -0.3094 -0.4074 -0.2445
  779MOL0     C 5051   5.606   6.124   8.560  0.1974 -0.3619 -0.3791
  779MOL0     C 5052   5.525   6.035   8.672 -0.4998  0.5398  0.9239
  779MOL0     C 5053   5.498   6.088   8.815  0.0343  0.1486 -0.5696
  779MOL0     O 5054   5.417   6.002   8.890 -0.5082  0.4494 -0.0329
  779MOL0     C 5055   5.323   6.065   8.970 -0.6012 -0.7043 -0.3297
  779MOL0     C 5056   5.202   6.009   8.974 -0.7235  0.8288 -1.0106
  779MOL0     C 5057   5.094   6.048   9.059 -0.8413 -0.5815 -0.3823
  779MOL0     C 5058   4.973   5.961   9.066  0.3976  0.6509  0.3058
  779MOL0     C 5059   5.107   6.165   9.133  0.0985  0.1538 -0.1372
  779MOL0     C 5060   4.994   6.246   9.193  0.0196 -0.3742  0.2806
  779MOL0     O 5061   4.863   6.202   9.193 -0.2956 -0.0521 -0.9470
  779MOL0     C 5062   4.758   6.277   9.239 -0.8160 -0.0332 -0.4753
  779MOL0     C 5063   4.663   6.216   9.316  0.3528  0.4568  0.5082
  779MOL0     C 5064   4.550   6.287   9.366 -0.3120  0.6689  1.0013
  779MOL0     C 5065   4.535   6.420   9.334  0.2633  0.7080 -0.2283
  779MOL0     O 5066   4.422   6.493   9.373  0.3768 -0.1466 -0.2298
  779MOL0     C 5067   4.328   6.436   9.466 -0.2702  0.0663 -1.2696
  779MOL0     C 5068   4.236   6.529   9.537  0.6123  0.0061  0.9462
  779MOL0     C 5069   4.138   6.465   9.639  0.9606 -0.4492  0.4033
  779MOL0     C 5070   4.020   6.564   9.683  0.3290  0.2397 -0.0659
  779MOL0     C 5071   3.929   6.492   9.782  0.4869 -0.1374 -0.0036
  779MOL0     C 5072   3.806   6.590   9.832 -0.5250 -0.3752 -0.7857
  779MOL0     C 5073   3.696   6.503   9.896  0.4043  0.2080 -0.4569
  779MOL0     C 5074   3.733   6.444  10.031  0.0382 -0.0297  0.0339
  779MOL0    Cl 5075   3.608   6.342  10.110  0.2465 -0.1561 -0.5359
  779MOL0     C 5076   4.639   6.480   9.255  0.3806  0.6619  0.4811
  779MOL0     C 5077   4.748   6.410   9.209  0.3279  0.2856  0.5408
  779MOL0     O 5078   5.040   6.349   9.252  0.4325  0.8975  0.2650
  779MOL0     C 5079   5.236   6.222   9.130 -0.5857  0.1953  1.1947
  779MOL0     C 5080   5.345   6.175   9.049  0.2337  0.0361  0.4018
  779MOL0     N 5081   5.576   6.386   8.739 -0.0042  0.2569 -0.3975
  779MOL0     N 5082   5.634   6.492   8.774  0.4739 -0.0903  0.1514
  779MOL0     C 5083   6.818   6.580   8.792  0.3329 -0.2278 -0.2515
  779MOL0     C 5084   6.939   6.521   8.795 -0.4958  0.1410  1.0502
  779MOL0     C 5085   7.347   6.367   8.901 -0.0470 -1.4330  0.1999
  779MOL0     C 5086   7.441   6.311   8.808  0.0965 -0.1522  0.6319
  779MOL0     C 5087   7.582   6.296   8.843  0.1531 -0.9218 -0.5304
  779MOL0     C 5088   7.631   6.342   8.963  0.0183 -0.7098 -0.4054
  779MOL0     O 5089   7.763   6.340   8.989 -0.8472  0.4472 -0.3073
  779MOL0     C 5090   7.809   6.381   9.119 -0.1211  0.5152  0.6927
  779MOL0     C 5091   7.954   6.345   9.119  0.3512 -0.9205  0.4026
  779MOL0     C 5092   8.039   6.433   9.027  0.6923  0.4175 -0.0790
  779MOL0     C 5093   8.059   6.582   9.075  1.1834 -0.2194 -0.6955
  779MOL0     C 5094   8.160   6.589   9.180  0.1578 -0.5315  0.5548
  779MOL0     C 5095   8.245   6.592   9.267  0.4820 -0.1377 -0.3189
  779MOL0     C 5096   7.533   6.391   9.058 -0.3576  0.2690 -0.1501
  779MOL0     C 5097   7.398   6.403   9.026 -0.4248  0.5129 -0.4206
  779MOL0     H 5098   6.975   6.530   9.132 -0.9863  2.2691  0.0012
  779MOL0     H 5099   6.733   6.576   9.120  0.3609  2.3337 -0.7478
  779MOL0     H 5100   6.507   6.603   9.064 -1.1726  1.0657  1.0705
  779MOL0     H 5101   6.584   6.759   9.056 -2.2595  1.1644  0.3939
  779MOL0     H 5102   6.329   6.762   9.030 -0.6991 -0.5942 -0.1101
  779MOL0     H 5103   6.409   6.833   8.882  0.9200 -1.7028 -2.5617
  779MOL0     H 5104   6.388   6.583   8.814  0.2429 -1.4618  1.8231
  779MOL0     H 5105   6.263   6.566   8.928 -2.0918  0.4553 -1.1327
  779MOL0     H 5106   6.255   6.789   8.722 -1.5858 -0.1986 -0.7936
  779MOL0     H 5107   6.181   6.640   8.694  1.0064  2.0292 -1.6861
  779MOL0     H 5108   6.088   6.675   8.947 -0.6168  0.5677  0.7286
  779MOL0     H 5109   6.120   6.836   8.928 -0.5678 -0.3622  0.2670
  779MOL0     H 5110   5.907   6.841   8.849  1.0869 -2.5178  4.8279
  779MOL0     H 5111   5.988   6.799   8.686 -0.3583  2.6451  0.5712
  779MOL0     H 5112   5.967   6.574   8.726 -0.9372  0.9206 -5.2880
  779MOL0     H 5113   5.860   6.596   8.876 -1.7584  0.8843 -1.0836
  779MOL0     H 5114   5.830   6.707   8.598  5.1258 -2.1412  1.2557
  779MOL0     H 5115   5.716   6.751   8.727  0.7626  0.3370  0.9225
  779MOL0     H 5116   5.703   6.479   8.450  0.3246  3.6281 -0.0481
  779MOL0     H 5117   5.436   6.255   8.547 -0.4537  1.6352 -0.1059
  779MOL0     H 5118   5.556   6.274   8.414 -2.1839 -2.7625 -0.8374
  779MOL0     H 5119   5.713   6.136   8.579  0.2295  1.1205 -1.3261
  779MOL0     H 5120   5.600   6.066   8.468  0.8655 -3.7370  1.5588
  779MOL0     H 5121   5.580   5.940   8.673 -0.9065  0.2448 -1.0361
  779MOL0     H 5122   5.425   5.998   8.646 -0.1953  0.0576  0.4281
  779MOL0     H 5123   5.440   6.181   8.811 -0.6642 -0.2705 -0.2311
  779MOL0     H 5124   5.593   6.125   8.855  0.2645  0.8565 -1.7170
  779MOL0     H 5125   5.181   5.923   8.912  0.0654  0.0303 -0.1954
  779MOL0     H 5126   5.008   5.858   9.076  0.1523  0.3494 -1.6151
  779MOL0     H 5127   4.904   5.973   9.151 -1.4421 -2.3726 -0.5853
  779MOL0     H 5128   4.931   5.988   8.969 -0.2947  0.0122  0.4186
  779MOL0     H 5129   4.685   6.116   9.351  0.3909  0.5639  0.7968
  779MOL0     H 5130   4.476   6.237   9.427  0.0280  0.1036  0.9582
  779MOL0     H 5131   4.270   6.363   9.409 -1.6317  1.7405 -2.0684
  779MOL0     H 5132   4.386   6.386   9.545  1.4259  2.5064 -0.8534
  779MOL0     H 5133   4.293   6.612   9.580  2.5512  0.2151 -1.8100
  779MOL0     H 5134   4.167   6.576   9.466  0.1204 -0.2085  1.2758
  779MOL0     H 5135   4.194   6.422   9.722 -0.3028 -6.5164 -1.3788
  779MOL0     H 5136   4.093   6.376   9.593 -1.4546 -0.4404  2.5519
  779MOL0     H 5137   4.060   6.656   9.727  2.3111 -1.4990  2.0038
  779MOL0     H 5138   3.962   6.596   9.596  2.4442  1.7433 -1.0057
  779MOL0     H 5139   3.985   6.448   9.865 -0.8852 -1.8640  0.0711
  779MOL0     H 5140   3.878   6.410   9.731  2.7570 -3.4411  2.5295
  779MOL0     H 5141   3.843   6.666   9.901  3.1145  0.3749 -3.2496
  779MOL0     H 5142   3.762   6.656   9.757  1.1901  4.6566  2.1676
  779MOL0     H 5143   3.673   6.417   9.833 -0.0969  0.6403 -0.8801
  779MOL0     H 5144   3.599   6.553   9.897  0.6422  0.7030 -1.1838
  779MOL0     H 5145   3.779   6.525  10.088 -1.8355  0.7128  0.5671
  779MOL0     H 5146   3.809   6.367  10.013  1.0096  0.2840  2.3904
  779MOL0     H 5147   4.638   6.584   9.225 -0.6985  0.6938  0.5907
  779MOL0     H 5148   4.815   6.467   9.145 -0.3555 -1.2179 -1.6223
  779MOL0     H 5149   5.254   6.318   9.177  0.6404 -0.2358  1.6174
  779MOL0     H 5150   5.442   6.223   9.047  1.5445 -2.4568 -0.0305
  779MOL0     H 5151   6.764   6.600   8.700 -0.7516  0.3484  0.4865
  779MOL0     H 5152   6.990   6.500   8.701  0.7895  1.4641  1.4037
  779MOL0     H 5153   7.412   6.283   8.707  4.3175  1.7013 -1.3339
  779MOL0     H 5154   7.654   6.244   8.779  1.8150  1.6973 -0.9470
  779MOL0     H 5155   7.799   6.488   9.137 -2.4099  0.4272  0.1288
  779MOL0     H 5156   7.754   6.322   9.193 -3.4933  0.6157 -1.5751
  779MOL0     H 5157   7.966   6.240   9.093 -3.1964 -1.0542 -1.2930
  779MOL0     H 5158   7.992   6.360   9.221 -1.0277 -2.7788  1.2542
  779MOL0     H 5159   8.004   6.427   8.923  0.4688 -0.3192  0.0357
  779MOL0     H 5160   8.135   6.383   9.038  0.9578  1.3809  3.1887
  779MOL0     H 5161   7.964   6.623   9.108 -0.0494 -3.2842 -0.1460
  779MOL0     H 5162   8.085   6.635   8.983  0.7355  1.6398  0.2084
  779MOL0     H 5163   8.326   6.603   9.336 -0.2348  0.1709  0.4885
  779MOL0     H 5164   7.559   6.437   9.153 -3.1751 -0.6909  1.2024
  779MOL0     H 5165   7.337   6.462   9.093 -0.3707  1.7537 -1.4251
  780MOL0     O 5166   0.071   4.105   2.688  0.3192 -0.8451 -0.7644
  780MOL0     C 5167   0.104   4.219   2.726  0.8374  0.5411 -0.8675
  780MOL0     O 5168   0.017   4.316   2.781  0.1246  0.2664  0.2568
  780MOL0     C 5169  -0.119   4.302   2.771  0.5253 -0.3819 -0.1313
  780MOL0     C 5170  -0.194   4.285   2.653  0.5313 -1.1319 -0.2255
  780MOL0     C 5171  -0.337   4.285   2.664 -0.3604  0.1862  0.2711
  780MOL0     C 5172  -0.408   4.281   2.786  0.3545  0.2622 -0.0319
  780MOL0     O 5173  -0.545   4.289   2.784  0.0151 -0.6270  0.2393
  780MOL0     C 5174  -0.596   4.247   2.908 -0.3064 -0.9374 -0.1857
  780MOL0     C 5175  -0.750   4.230   2.897  0.4709 -0.3321  0.4001
  780MOL0     C 5176  -0.821   4.370   2.863  0.3968 -0.3237  0.1309
  780MOL0     C 5177  -0.978   4.362   2.857  0.1172  0.5720  0.0232
  780MOL0     C 5178  -1.028   4.503   2.811 -0.3078  0.7465  0.2353
  780MOL0     C 5179  -1.166   4.518   2.852 -0.1622  0.1622 -1.1080
  780MOL0     C 5180  -1.269   4.419   2.785 -1.1411  0.3306 -0.4888
  780MOL0     C 5181  -1.304   4.449   2.644  0.4056 -0.8060  0.8104
  780MOL0     N 5182  -1.410   4.547   2.617  0.2676  0.3196 -0.3355
  780MOL0     C 5183  -1.544   4.513   2.630  0.2833 -0.1976  0.2975
  780MOL0     C 5184  -1.611   4.628   2.606 -0.8600 -0.1102  0.2221
  780MOL0     C 5185  -1.760   4.660   2.588 -0.2180  0.1406 -0.8625
  780MOL0     C 5186  -1.840   4.639   2.720  0.3043 -0.4352  0.3291
  780MOL0     C 5187  -1.993   4.675   2.709 -0.1325  0.4711 -0.0400
  780MOL0     C 5188  -2.082   4.618   2.828  0.8826 -0.2242 -0.2519
  780MOL0     O 5189  -2.217   4.668   2.797 -0.0853  0.6495  0.6359
  780MOL0     C 5190  -2.323   4.636   2.877 -0.4543  0.9484  0.9076
  780MOL0     C 5191  -2.315   4.565   2.993 -0.3359 -0.8081  0.6531
  780MOL0     C 5192  -2.440   4.535   3.057 -0.2097 -1.1167  0.0653
  780MOL0     C 5193  -2.436   4.458   3.181  0.1422 -0.3055  0.0603
  780MOL0     C 5194  -2.567   4.582   3.007 -0.3372  0.0656 -0.1541
  780MOL0     C 5195  -2.695   4.571   3.077  0.1760  0.5552  0.4516
  780MOL0     O 5196  -2.690   4.574   3.213 -0.2200  0.1845  0.6441
  780MOL0     C 5197  -2.807   4.562   3.280 -1.0262  0.8310 -0.4141
  780MOL0     C 5198  -2.850   4.433   3.318  0.1710 -0.1625  0.0560
  780MOL0     C 5199  -2.981   4.410   3.367 -0.3442  0.0242 -0.2156
  780MOL0     C 5200  -3.065   4.519   3.390 -1.1882 -0.7408 -0.4019
  780MOL0     O 5201  -3.194   4.487   3.429 -0.9364 -0.0698 -0.0532
  780MOL0     C 5202  -3.262   4.586   3.499 -0.2915 -0.1362 -0.9571
  780MOL0     C 5203  -3.387   4.519   3.561 -0.4496  0.1432  0.3382
  780MOL0     C 5204  -3.459   4.641   3.623 -0.4499 -0.2951  0.6752
  780MOL0     C 5205  -3.598   4.601   3.675 -0.5201 -0.4901 -0.3437
  780MOL0     C 5206  -3.668   4.707   3.766 -0.3946 -0.0903  1.2245
  780MOL0     C 5207  -3.819   4.666   3.771  0.7704 -0.3907 -0.1766
  780MOL0     C 5208  -3.902   4.750   3.858 -1.5085  0.0902 -0.2939
  780MOL0     C 5209  -4.054   4.725   3.864 -0.7936 -0.4154  0.5429
  780MOL0    Cl 5210  -4.137   4.810   3.998  0.3207 -0.0945  0.1064
  780MOL0     C 5211  -3.022   4.654   3.361 -0.1251  0.3976 -0.7024
  780MOL0     C 5212  -2.889   4.673   3.315  0.6226  0.2894 -1.3441
  780MOL0     O 5213  -2.798   4.547   3.012  0.5808  0.0286 -0.0920
  780MOL0     C 5214  -2.563   4.639   2.881 -0.2919  0.0074  1.0236
  780MOL0     C 5215  -2.442   4.671   2.815 -0.1097  0.5963 -0.1383
  780MOL0     N 5216  -1.510   4.721   2.584  1.0363 -0.7766 -0.6955
  780MOL0     N 5217  -1.396   4.675   2.586 -0.2828  0.8491  0.1025
  780MOL0     C 5218  -0.333   4.301   2.909  0.4323  0.5635 -0.2584
  780MOL0     C 5219  -0.191   4.308   2.898  0.1801 -0.8030  0.4867
  780MOL0     C 5220   0.248   4.244   2.717  0.1784 -0.6240 -0.7517
  780MOL0     C 5221   0.349   4.150   2.741 -0.5146 -0.0529 -0.2251
  780MOL0     C 5222   0.484   4.180   2.763  0.4588 -0.8192 -0.3801
  780MOL0     C 5223   0.527   4.316   2.742  0.7224  0.2199 -0.8784
  780MOL0     O 5224   0.649   4.371   2.774  0.3505  0.1128  0.3643
  780MOL0     C 5225   0.762   4.286   2.771  0.6484 -0.0884  0.1762
  780MOL0     C 5226   0.891   4.363   2.793  0.6736 -1.0918 -0.1679
  780MOL0     C 5227   0.934   4.398   2.650 -0.3987 -0.1304  0.6625
  780MOL0     C 5228   1.044   4.497   2.622 -0.0530  0.4202 -0.8356
  780MOL0     C 5229   1.166   4.413   2.597 -0.8025  0.4415 -0.6773
  780MOL0     C 5230   1.267   4.350   2.576 -0.0294  0.2893  0.8707
  780MOL0     C 5231   0.428   4.411   2.716  0.7971  0.1082  0.5118
  780MOL0     C 5232   0.289   4.379   2.710  0.0681  0.7454 -0.3531
  780MOL0     H 5233  -0.156   4.266   2.553 -3.7200  0.7232 -2.4370
  780MOL0     H 5234  -0.386   4.293   2.567  0.1761  0.1067 -0.0051
  780MOL0     H 5235  -0.551   4.150   2.934  3.7333  1.2776  1.9830
  780MOL0     H 5236  -0.578   4.327   2.980  1.0350  0.2612 -1.7846
  780MOL0     H 5237  -0.775   4.151   2.826 -0.7534 -1.5811  2.1497
  780MOL0     H 5238  -0.784   4.187   2.991  0.2275 -2.7554 -0.7284
  780MOL0     H 5239  -0.792   4.440   2.941 -0.5606 -1.1610  1.2816
  780MOL0     H 5240  -0.789   4.405   2.764 -1.7991 -0.2708 -0.6154
  780MOL0     H 5241  -1.019   4.285   2.790 -2.0695  1.0683  0.7036
  780MOL0     H 5242  -1.022   4.333   2.953  1.1537 -2.4923 -0.3084
  780MOL0     H 5243  -0.956   4.580   2.842  0.1450  1.1816 -1.7808
  780MOL0     H 5244  -1.033   4.508   2.702 -3.0289 -0.5238  0.2140
  780MOL0     H 5245  -1.172   4.506   2.961  0.4738 -5.6855 -1.3978
  780MOL0     H 5246  -1.192   4.622   2.829 -2.9328 -0.5700 -1.6959
  780MOL0     H 5247  -1.217   4.323   2.794 -0.5663  0.2546 -3.5085
  780MOL0     H 5248  -1.359   4.411   2.846 -2.8579  3.9202 -2.2534
  780MOL0     H 5249  -1.335   4.356   2.594 -0.1150 -0.1973 -0.0386
  780MOL0     H 5250  -1.216   4.494   2.597 -0.0163  1.7118  2.2814
  780MOL0     H 5251  -1.576   4.414   2.660  1.6567 -0.5358  0.6762
  780MOL0     H 5252  -1.777   4.762   2.550 -0.0132  1.5765  2.5187
  780MOL0     H 5253  -1.801   4.585   2.520  0.8037 -0.7424 -0.5310
  780MOL0     H 5254  -1.803   4.696   2.806 -1.9726  1.6545  0.0571
  780MOL0     H 5255  -1.829   4.534   2.748  2.4378 -0.1993  0.5697
  780MOL0     H 5256  -2.039   4.644   2.614 -0.5819 -0.5516  0.4980
  780MOL0     H 5257  -1.989   4.784   2.708  0.7712  0.5594  3.3633
  780MOL0     H 5258  -2.050   4.657   2.925 -0.3303 -0.6409  0.3352
  780MOL0     H 5259  -2.078   4.509   2.838 -0.9654 -0.2139  1.1422
  780MOL0     H 5260  -2.218   4.535   3.033 -0.5502 -0.1804  1.7024
  780MOL0     H 5261  -2.464   4.523   3.265  3.8121  3.0917 -1.0090
  780MOL0     H 5262  -2.505   4.378   3.155  0.6663 -0.6290 -0.3453
  780MOL0     H 5263  -2.337   4.416   3.202 -0.4629 -0.6693  2.5750
  780MOL0     H 5264  -2.779   4.351   3.319  0.1763 -0.1585  0.3563
  780MOL0     H 5265  -3.024   4.310   3.376 -0.3809  0.1244  0.7401
  780MOL0     H 5266  -3.201   4.611   3.587 -0.9233 -4.4784  0.9667
  780MOL0     H 5267  -3.276   4.677   3.439 -1.4749  0.8098  0.6714
  780MOL0     H 5268  -3.460   4.486   3.487 -0.9034 -0.2277  0.9357
  780MOL0     H 5269  -3.354   4.444   3.633  0.6017 -0.2725 -0.5617
  780MOL0     H 5270  -3.474   4.732   3.565  3.1506 -0.4341 -0.7175
  780MOL0     H 5271  -3.401   4.677   3.708  2.6469 -1.0315 -0.9864
  780MOL0     H 5272  -3.652   4.582   3.582  0.6327  0.6498 -1.2813
  780MOL0     H 5273  -3.600   4.506   3.729  1.8701 -0.7885 -0.6681
  780MOL0     H 5274  -3.656   4.811   3.733  1.7439 -0.3486  1.0079
  780MOL0     H 5275  -3.613   4.693   3.860  4.2816 -0.2622 -1.2332
  780MOL0     H 5276  -3.858   4.656   3.669  1.4272  1.4148 -0.6554
  780MOL0     H 5277  -3.819   4.565   3.814 -0.5355 -1.1022 -1.7572
  780MOL0     H 5278  -3.883   4.855   3.832 -1.6289 -0.6087 -3.6101
  780MOL0     H 5279  -3.859   4.727   3.956 -0.7019  3.0101  0.1513
  780MOL0     H 5280  -4.074   4.620   3.885 -2.9375 -0.2944 -0.5669
  780MOL0     H 5281  -4.098   4.764   3.771  1.2406  0.6739 -0.0154
  780MOL0     H 5282  -3.079   4.746   3.362  2.0909  1.8512  1.7059
  780MOL0     H 5283  -2.853   4.768   3.277  2.1293 -0.1793 -1.1607
  780MOL0     H 5284  -2.663   4.648   2.840 -0.0828 -0.6199  0.3768
  780MOL0     H 5285  -2.433   4.724   2.721  0.3745 -0.6804 -0.8427
  780MOL0     H 5286  -0.377   4.322   3.006  1.7315  2.0080  0.0675
  780MOL0     H 5287  -0.134   4.331   2.988  1.5266  3.2468 -1.1555
  780MOL0     H 5288   0.312   4.048   2.752 -1.4755  0.3644  0.6023
  780MOL0     H 5289   0.549   4.096   2.784 -0.4937 -1.0641  1.8806
  780MOL0     H 5290   0.746   4.209   2.848  0.7870 -0.7903 -0.4881
  780MOL0     H 5291   0.775   4.219   2.685 -1.0057 -1.6024  1.0440
  780MOL0     H 5292   0.967   4.309   2.850  0.1411  0.4335  2.1401
  780MOL0     H 5293   0.872   4.449   2.859 -0.3321 -2.5121  1.4644
  780MOL0     H 5294   0.846   4.446   2.606  0.1359  0.6412  0.4177
  780MOL0     H 5295   0.959   4.305   2.599 -0.5438 -0.6968  1.6115
  780MOL0     H 5296   1.066   4.554   2.713 -2.0571  3.7385 -2.2525
  780MOL0     H 5297   1.024   4.576   2.549  1.2196  2.2519  0.7186
  780MOL0     H 5298   1.367   4.318   2.556 -0.7894 -1.1916 -0.8272
  780MOL0     H 5299   0.443   4.519   2.723 -2.4205  0.5162  2.8031
  780MOL0     H 5300   0.219   4.461   2.703 -0.7709  0.2855  1.7436
  781MOL0     O 5301   6.899   9.324   8.597  0.2663  0.0963  0.1887
  781MOL0     C 5302   6.915   9.315   8.479  0.4614  0.5965 -0.0199
  781MOL0     O 5303   6.823   9.289   8.388  0.1461 -0.1271  0.4354
  781MOL0     C 5304   6.691   9.265   8.424 -1.0085 -0.2458 -0.5267
  781MOL0     C 5305   6.617   9.327   8.529 -0.4837 -0.1511  0.0542
  781MOL0     C 5306   6.484   9.298   8.536 -1.3558 -0.1072 -0.1903
  781MOL0     C 5307   6.422   9.218   8.439 -0.1037 -0.0790  0.1188
  781MOL0     O 5308   6.285   9.196   8.473  0.3791 -0.0475 -0.0760
  781MOL0     C 5309   6.202   9.163   8.355 -0.7001 -0.1424  0.4416
  781MOL0     C 5310   6.063   9.139   8.407  0.1864 -0.2495 -0.0381
  781MOL0     C 5311   5.957   9.115   8.309 -0.2543 -0.1995 -0.5675
  781MOL0     C 5312   5.826   9.096   8.382 -0.2163 -0.3628  1.5509
  781MOL0     C 5313   5.722   9.079   8.267 -0.3696 -0.2614 -1.2058
  781MOL0     C 5314   5.586   9.070   8.330  0.2768  0.1128  0.3723
  781MOL0     C 5315   5.536   9.220   8.352 -0.5398  0.1179  0.4357
  781MOL0     C 5316   5.383   9.243   8.368  1.1291 -0.0262  1.0084
  781MOL0     N 5317   5.291   9.232   8.249 -0.0191  0.3122 -0.2542
  781MOL0     C 5318   5.232   9.113   8.202 -0.9994  0.4705 -0.3880
  781MOL0     C 5319   5.152   9.143   8.092 -0.4106 -0.3447 -0.2802
  781MOL0     C 5320   5.071   9.056   8.006  0.4537  0.8077  0.3225
  781MOL0     C 5321   4.938   9.017   8.074 -0.4620 -0.0124  0.1403
  781MOL0     C 5322   4.853   8.922   7.996 -0.5782  0.5390  0.5404
  781MOL0     C 5323   4.906   8.781   7.968  0.7337  0.3531 -0.2538
  781MOL0     O 5324   4.991   8.733   8.073 -0.0243 -0.8705 -0.2857
  781MOL0     C 5325   4.934   8.655   8.164  0.3411  0.1047 -0.2757
  781MOL0     C 5326   4.825   8.685   8.251  1.3877  0.3669 -0.6554
  781MOL0     C 5327   4.759   8.588   8.333  0.3203 -0.3499  0.5049
  781MOL0     C 5328   4.641   8.629   8.410  1.1829 -0.5033  0.2664
  781MOL0     C 5329   4.818   8.465   8.344  0.5914  0.9392  0.1444
  781MOL0     C 5330   4.776   8.363   8.440  0.1377  0.3348 -0.2736
  781MOL0     O 5331   4.746   8.236   8.396 -0.0077 -0.4134 -0.1889
  781MOL0     C 5332   4.707   8.157   8.489  0.2069 -0.5952 -0.6194
  781MOL0     C 5333   4.793   8.079   8.559  0.0988 -0.4898 -0.3083
  781MOL0     C 5334   4.751   8.005   8.668 -0.2357 -0.1867  0.1994
  781MOL0     C 5335   4.615   8.010   8.711 -0.2476 -0.2230 -0.2510
  781MOL0     O 5336   4.589   7.947   8.826  0.1721  0.6312  0.2461
  781MOL0     C 5337   4.463   7.974   8.892  0.1550  0.5994  0.3390
  781MOL0     C 5338   4.462   7.929   9.041 -0.1316  0.4457 -0.5448
  781MOL0     C 5339   4.317   7.958   9.102 -0.6221  0.3229 -0.0677
  781MOL0     C 5340   4.258   8.093   9.073 -0.1640  0.4540  0.1530
  781MOL0     C 5341   4.120   8.109   9.145  0.0587  0.3336  0.2638
  781MOL0     C 5342   4.130   8.182   9.286  0.4069  0.4754  0.4768
  781MOL0     C 5343   3.998   8.186   9.347 -0.5486 -0.8837 -0.5694
  781MOL0     C 5344   3.990   8.226   9.502  0.1666 -1.0553  0.5266
  781MOL0    Cl 5345   3.819   8.248   9.558  0.1500 -0.1894  0.0855
  781MOL0     C 5346   4.521   8.085   8.632 -0.9602  0.0834 -1.2396
  781MOL0     C 5347   4.571   8.158   8.524 -0.7697  0.8100 -0.3632
  781MOL0     O 5348   4.792   8.393   8.559 -0.6489  0.2528 -1.1168
  781MOL0     C 5349   4.929   8.434   8.255 -0.5005 -0.2181 -0.8112
  781MOL0     C 5350   4.973   8.527   8.160 -0.2307 -0.0386  1.0084
  781MOL0     N 5351   5.164   9.282   8.079 -0.2399 -0.4660 -1.0594
  781MOL0     N 5352   5.243   9.333   8.178 -0.4206 -0.2575  0.0980
  781MOL0     C 5353   6.495   9.149   8.345  0.5093  1.0836  0.4993
  781MOL0     C 5354   6.632   9.176   8.336  0.3731 -0.2864  0.2702
  781MOL0     C 5355   7.049   9.341   8.420 -0.2365 -0.6915  0.2954
  781MOL0     C 5356   7.075   9.356   8.282 -0.0465 -0.4716 -0.7663
  781MOL0     C 5357   7.201   9.387   8.241 -0.3264 -0.1140 -0.2659
  781MOL0     C 5358   7.308   9.399   8.335  0.3283  0.9172  0.3066
  781MOL0     O 5359   7.441   9.424   8.314 -0.3750 -0.1517 -0.1955
  781MOL0     C 5360   7.478   9.449   8.179 -0.0607  0.2986  0.0208
  781MOL0     C 5361   7.519   9.336   8.092  0.3436  0.4328  0.1185
  781MOL0     C 5362   7.669   9.304   8.115  0.7688  0.0180 -0.3922
  781MOL0     C 5363   7.711   9.187   8.023 -0.0013  0.4859  0.1233
  781MOL0     C 5364   7.655   9.058   8.069  0.0628  0.0962  0.3315
  781MOL0     C 5365   7.599   8.967   8.120  0.5122 -0.1833 -0.0147
  781MOL0     C 5366   7.280   9.387   8.473 -0.0123  0.1650 -0.2395
  781MOL0     C 5367   7.156   9.348   8.516  0.4094 -0.0324  0.6489
  781MOL0     H 5368   6.652   9.400   8.601 -2.0796 -0.9563  1.7513
  781MOL0     H 5369   6.422   9.357   8.603 -1.7942 -0.8153  0.0392
  781MOL0     H 5370   6.203   9.254   8.295  1.0969  0.1734  0.9017
  781MOL0     H 5371   6.246   9.083   8.295 -1.3450  1.0953 -1.8284
  781MOL0     H 5372   6.076   9.051   8.471  2.2413 -0.1258 -0.2311
  781MOL0     H 5373   6.026   9.218   8.474  1.1549  0.6506 -0.5437
  781MOL0     H 5374   5.941   9.197   8.238 -2.3051 -1.4457 -1.6173
  781MOL0     H 5375   5.978   9.032   8.241 -1.0946  0.1734 -1.2928
  781MOL0     H 5376   5.829   9.008   8.447  1.0024 -2.7253 -1.4497
  781MOL0     H 5377   5.813   9.195   8.428  0.8710  1.0760 -1.0491
  781MOL0     H 5378   5.742   9.156   8.193  0.7486  0.2610 -0.4012
  781MOL0     H 5379   5.743   8.982   8.220  3.5361 -0.7737  1.1525
  781MOL0     H 5380   5.507   9.040   8.261 -1.0312 -0.6370  2.0926
  781MOL0     H 5381   5.575   9.016   8.425  0.7074  0.5923  0.7010
  781MOL0     H 5382   5.584   9.259   8.442 -0.3693  0.1650  0.3250
  781MOL0     H 5383   5.572   9.280   8.268 -1.9888  2.0113  1.0883
  781MOL0     H 5384   5.362   9.347   8.398 -0.6154  0.1999 -0.8285
  781MOL0     H 5385   5.339   9.189   8.452 -1.2057  0.0064 -0.1186
  781MOL0     H 5386   5.241   9.026   8.266  1.1999  1.3597  0.5753
  781MOL0     H 5387   5.052   9.110   7.913 -2.4786 -1.2357 -0.4112
  781MOL0     H 5388   5.119   8.966   7.965 -0.5806  2.2908 -4.8936
  781MOL0     H 5389   4.883   9.104   8.109 -1.1455 -0.6005  0.5459
  781MOL0     H 5390   4.962   8.969   8.169  0.0156  1.2173  0.6629
  781MOL0     H 5391   4.832   8.945   7.892  2.9476  0.1112 -0.4072
  781MOL0     H 5392   4.762   8.910   8.056 -1.1141  2.1837  0.1043
  781MOL0     H 5393   4.980   8.786   7.887  2.4953 -1.3683  1.1603
  781MOL0     H 5394   4.826   8.713   7.937 -0.4560  1.4062  0.4108
  781MOL0     H 5395   4.785   8.786   8.257  0.0034 -0.2229  0.7070
  781MOL0     H 5396   4.596   8.540   8.452  2.7055 -2.1663 -1.4132
  781MOL0     H 5397   4.669   8.704   8.485  1.7799 -0.4462 -0.0040
  781MOL0     H 5398   4.565   8.686   8.355 -0.3628 -2.7174 -0.0145
  781MOL0     H 5399   4.896   8.075   8.525  0.1011 -0.2308 -0.3336
  781MOL0     H 5400   4.827   7.943   8.713 -0.9021 -0.0337  1.5978
  781MOL0     H 5401   4.446   8.082   8.892  1.6304  0.9318 -2.1623
  781MOL0     H 5402   4.377   7.935   8.837 -0.3223  1.5648  0.3911
  781MOL0     H 5403   4.483   7.822   9.048 -1.5119  0.1371 -0.8935
  781MOL0     H 5404   4.547   7.983   9.085 -1.6625  2.5095  0.0467
  781MOL0     H 5405   4.328   7.948   9.211  1.7420 -0.4112 -0.3178
  781MOL0     H 5406   4.251   7.875   9.074 -2.5745  0.6027  3.2058
  781MOL0     H 5407   4.334   8.170   9.088 -1.2799  1.2344  2.2847
  781MOL0     H 5408   4.235   8.108   8.967 -2.3907  1.2485  0.6900
  781MOL0     H 5409   4.079   8.009   9.157  2.2569 -0.9151 -1.7448
  781MOL0     H 5410   4.048   8.165   9.085 -0.9895 -1.0931  0.1449
  781MOL0     H 5411   4.198   8.116   9.340 -0.1819  0.2105  0.8998
  781MOL0     H 5412   4.171   8.283   9.274 -0.8188  0.9189 -0.1228
  781MOL0     H 5413   3.949   8.090   9.332 -2.7050  0.0994 -0.2630
  781MOL0     H 5414   3.942   8.263   9.293 -0.1647  1.5600  2.2202
  781MOL0     H 5415   4.048   8.318   9.515  0.4074 -0.7948 -1.9235
  781MOL0     H 5416   4.043   8.151   9.562  0.4965 -0.6726  0.7165
  781MOL0     H 5417   4.417   8.080   8.663 -1.1267  0.4828 -1.7161
  781MOL0     H 5418   4.503   8.216   8.462  0.5068  0.0282 -2.6124
  781MOL0     H 5419   4.977   8.337   8.261 -2.3093 -1.1386 -0.6900
  781MOL0     H 5420   5.043   8.491   8.085 -0.5212 -2.0317  1.6432
  781MOL0     H 5421   6.456   9.068   8.284 -1.4718  2.2886  0.0457
  781MOL0     H 5422   6.704   9.134   8.266  0.4657 -1.5337  1.0802
  781MOL0     H 5423   6.992   9.358   8.211 -1.5060  1.2250  0.8898
  781MOL0     H 5424   7.225   9.408   8.137  1.6961 -0.5150  0.0834
  781MOL0     H 5425   7.399   9.500   8.123 -2.0728 -3.6708 -1.1558
  781MOL0     H 5426   7.567   9.512   8.175  0.4618 -0.4899 -1.9610
  781MOL0     H 5427   7.496   9.361   7.988 -2.0491  2.0450  0.9575
  781MOL0     H 5428   7.453   9.251   8.112 -1.3573  1.4696 -0.8472
  781MOL0     H 5429   7.690   9.289   8.222  0.4997  0.3273 -0.2936
  781MOL0     H 5430   7.723   9.392   8.078  1.0670 -0.8337 -2.0686
  781MOL0     H 5431   7.820   9.181   8.013 -0.2540 -1.0335 -2.8123
  781MOL0     H 5432   7.682   9.208   7.920 -0.3611  0.3698  0.2005
  781MOL0     H 5433   7.561   8.879   8.169  0.7644 -0.7220 -0.7613
  781MOL0     H 5434   7.362   9.391   8.544 -0.5189  0.6082  0.3314
  781MOL0     H 5435   7.145   9.336   8.623  2.6007 -0.9851  0.8169
  782MOL0     O 5436   7.725   1.422   5.251  0.0979  0.6868  0.5160
  782MOL0     C 5437   7.787   1.414   5.357 -0.3661  0.4414 -0.3172
  782MOL0     O 5438   7.887   1.327   5.382  0.0891  0.2250 -0.5074
  782MOL0     C 5439   7.917   1.220   5.291 -0.8468 -0.2995  0.2873
  782MOL0     C 5440   7.830   1.127   5.247 -0.3438 -0.3844  0.3158
  782MOL0     C 5441   7.864   1.019   5.166 -0.1701 -0.5735 -0.6218
  782MOL0     C 5442   7.998   1.007   5.118 -0.0536  0.8685 -1.3391
  782MOL0     O 5443   8.056   0.906   5.044  0.5896 -0.4946  0.2044
  782MOL0     C 5444   7.964   0.841   4.952  0.4466  0.2643 -0.0721
  782MOL0     C 5445   8.037   0.759   4.840 -0.1710 -0.1183  0.2218
  782MOL0     C 5446   8.154   0.683   4.891  0.4268 -0.4055  0.9135
  782MOL0     C 5447   8.190   0.577   4.782 -0.1701 -0.0347 -0.0560
  782MOL0     C 5448   8.304   0.487   4.831 -0.2026 -0.5122  0.1656
  782MOL0     C 5449   8.338   0.389   4.713 -0.0486  0.1892  0.0688
  782MOL0     C 5450   8.441   0.286   4.778  0.6469 -0.0322 -0.0058
  782MOL0     C 5451   8.522   0.208   4.660  0.3977 -0.1007 -0.4021
  782MOL0     N 5452   8.426   0.114   4.593  0.9033  0.3741 -0.1589
  782MOL0     C 5453   8.415  -0.018   4.613 -0.2931 -0.0771 -0.3449
  782MOL0     C 5454   8.318  -0.060   4.521 -0.1099  0.5674  0.3527
  782MOL0     C 5455   8.276  -0.207   4.519 -0.1508 -1.1540 -0.0856
  782MOL0     C 5456   8.167  -0.221   4.408  0.2379  0.4886  0.9602
  782MOL0     C 5457   8.132  -0.363   4.389  0.2445  1.1090 -0.1633
  782MOL0     C 5458   7.995  -0.389   4.325  0.4919 -0.0681  0.1838
  782MOL0     O 5459   7.883  -0.351   4.403  0.3554  0.3413  0.1033
  782MOL0     C 5460   7.778  -0.323   4.319 -0.4805  0.3492  0.4178
  782MOL0     C 5461   7.726  -0.194   4.309  1.2017 -0.2135  0.9042
  782MOL0     C 5462   7.605  -0.167   4.242  0.5187  0.2298  0.1735
  782MOL0     C 5463   7.566  -0.020   4.242  0.1578 -0.5055  0.7724
  782MOL0     C 5464   7.531  -0.271   4.185 -0.4121 -0.0067 -0.3821
  782MOL0     C 5465   7.395  -0.257   4.119 -0.7244 -0.6851 -0.3488
  782MOL0     O 5466   7.307  -0.357   4.136 -0.3487 -0.0429  0.0200
  782MOL0     C 5467   7.196  -0.373   4.064  0.8293  0.8566  0.1926
  782MOL0     C 5468   7.137  -0.496   4.075  0.7600 -0.1985 -0.1775
  782MOL0     C 5469   7.031  -0.535   3.992  0.2356  0.2870 -0.1572
  782MOL0     C 5470   6.978  -0.452   3.898  0.2467 -1.1086 -0.5961
  782MOL0     O 5471   6.891  -0.496   3.803  0.7583 -0.4720 -0.3142
  782MOL0     C 5472   6.751  -0.473   3.838  0.0450 -0.3003 -0.5636
  782MOL0     C 5473   6.636  -0.546   3.764 -0.7595 -0.2137 -0.6958
  782MOL0     C 5474   6.664  -0.682   3.721  0.0402  0.6937  0.3405
  782MOL0     C 5475   6.566  -0.795   3.760 -0.5665  0.0845  0.4191
  782MOL0     C 5476   6.430  -0.792   3.682 -0.6646  0.7472 -0.2910
  782MOL0     C 5477   6.315  -0.880   3.736  0.2211 -0.6287 -0.5792
  782MOL0     C 5478   6.180  -0.851   3.676  0.9466  0.6924 -0.4646
  782MOL0     C 5479   6.059  -0.901   3.749 -0.3317 -0.8193 -0.0822
  782MOL0    Cl 5480   6.024  -0.808   3.896  0.4865  0.2332  0.2428
  782MOL0     C 5481   7.043  -0.329   3.877 -0.3222  0.6674 -0.7048
  782MOL0     C 5482   7.151  -0.289   3.960 -0.0731  0.7511  0.6114
  782MOL0     O 5483   7.370  -0.151   4.064  0.3619  0.6323  0.0722
  782MOL0     C 5484   7.575  -0.401   4.207 -0.8078  0.4420 -0.8940
  782MOL0     C 5485   7.698  -0.428   4.272 -0.4160  1.1191  0.3598
  782MOL0     N 5486   8.275   0.049   4.443 -0.4556  0.6630 -0.3079
  782MOL0     N 5487   8.349   0.149   4.489  1.2917 -0.3291 -0.1937
  782MOL0     C 5488   8.091   1.095   5.184 -0.3162  0.5733 -0.2317
  782MOL0     C 5489   8.049   1.201   5.266 -0.9295  0.3757 -0.3542
  782MOL0     C 5490   7.760   1.518   5.457 -0.4818  0.3745 -0.2596
  782MOL0     C 5491   7.688   1.637   5.423  0.7656  0.8721 -0.5327
  782MOL0     C 5492   7.663   1.731   5.522  0.6835  0.8140 -0.3807
  782MOL0     C 5493   7.710   1.722   5.652  0.4430  0.6669  0.1407
  782MOL0     O 5494   7.687   1.826   5.744 -0.1202 -1.0403  0.3646
  782MOL0     C 5495   7.593   1.932   5.728 -0.0020 -0.5669  0.6612
  782MOL0     C 5496   7.452   1.867   5.757  0.0298  0.4788 -0.7918
  782MOL0     C 5497   7.349   1.942   5.681 -0.3932  0.9017  0.1696
  782MOL0     C 5498   7.199   1.904   5.703  0.2999  0.2513 -0.1518
  782MOL0     C 5499   7.151   1.953   5.833  0.3010  0.0733 -0.4571
  782MOL0     C 5500   7.112   1.976   5.947  0.0945  0.3809 -0.8091
  782MOL0     C 5501   7.794   1.617   5.683  0.3724 -0.7089  0.1004
  782MOL0     C 5502   7.819   1.514   5.587 -0.2615  0.1511 -0.0929
  782MOL0     H 5503   7.728   1.116   5.282 -0.7246 -1.8496 -1.1395
  782MOL0     H 5504   7.787   0.946   5.144 -2.1399  0.7990  1.2799
  782MOL0     H 5505   7.900   0.773   5.008 -0.6610  2.2279  1.1455
  782MOL0     H 5506   7.905   0.922   4.910 -0.2093 -0.9070 -1.4855
  782MOL0     H 5507   7.970   0.684   4.796 -0.9533  1.3319 -1.1710
  782MOL0     H 5508   8.063   0.816   4.750 -3.2752 -0.7061 -1.1991
  782MOL0     H 5509   8.231   0.756   4.917 -1.4102  2.1120 -0.2795
  782MOL0     H 5510   8.138   0.640   4.990  0.6161  1.1868  1.6714
  782MOL0     H 5511   8.102   0.522   4.748 -0.2652 -0.5807  1.0385
  782MOL0     H 5512   8.226   0.636   4.697  0.5614 -2.1420 -1.2837
  782MOL0     H 5513   8.386   0.554   4.858  0.0516 -1.0152  0.6640
  782MOL0     H 5514   8.257   0.437   4.916 -1.6938 -1.3891 -1.1082
  782MOL0     H 5515   8.249   0.335   4.680 -1.1609  0.3362  2.6361
  782MOL0     H 5516   8.392   0.439   4.631  2.6361  1.6272  2.5347
  782MOL0     H 5517   8.510   0.334   4.848  1.4151 -1.6423  0.3966
  782MOL0     H 5518   8.378   0.216   4.834 -0.0035  1.5899  1.3390
  782MOL0     H 5519   8.598   0.153   4.715 -0.1357  2.2412  3.0244
  782MOL0     H 5520   8.566   0.273   4.585  3.7596 -1.5520  0.1530
  782MOL0     H 5521   8.464  -0.076   4.690 -0.0383  2.1537  1.2893
  782MOL0     H 5522   8.369  -0.261   4.500  1.2343  0.4073  1.8601
  782MOL0     H 5523   8.240  -0.231   4.619 -0.3232 -1.2960 -0.1800
  782MOL0     H 5524   8.198  -0.187   4.309  0.5442  0.9418  1.2038
  782MOL0     H 5525   8.076  -0.166   4.436  0.7697  0.5300  2.7271
  782MOL0     H 5526   8.123  -0.406   4.489 -1.8862  1.1736 -0.2612
  782MOL0     H 5527   8.213  -0.411   4.334  2.8296  0.7352  3.5923
  782MOL0     H 5528   7.988  -0.497   4.309  0.0657  0.0213 -0.2652
  782MOL0     H 5529   7.999  -0.356   4.221  2.3477 -0.3638  0.1236
  782MOL0     H 5530   7.782  -0.113   4.354  0.4099  0.1831  1.1840
  782MOL0     H 5531   7.657   0.034   4.267  0.6941  0.4174 -2.5820
  782MOL0     H 5532   7.551   0.017   4.140  1.2778  2.8065  1.6784
  782MOL0     H 5533   7.486   0.015   4.308  0.2730  2.5145 -0.4942
  782MOL0     H 5534   7.172  -0.556   4.159  3.1957  1.9365  0.4466
  782MOL0     H 5535   6.971  -0.622   4.018 -0.1303  0.4943 -0.2987
  782MOL0     H 5536   6.736  -0.499   3.943 -0.2748  0.7275 -0.3465
  782MOL0     H 5537   6.737  -0.366   3.827  1.1344 -0.0574  0.2402
  782MOL0     H 5538   6.559  -0.542   3.841  0.3410 -2.4192  0.6023
  782MOL0     H 5539   6.608  -0.493   3.672  2.3060 -1.4129 -2.4691
  782MOL0     H 5540   6.758  -0.715   3.767 -0.2524  0.9489  1.1456
  782MOL0     H 5541   6.673  -0.684   3.612  1.6839 -3.2621  0.4041
  782MOL0     H 5542   6.623  -0.880   3.720  1.7863  2.5369 -1.7889
  782MOL0     H 5543   6.560  -0.786   3.869  2.6812  1.3507  0.5991
  782MOL0     H 5544   6.467  -0.833   3.588  1.6809 -0.1024  0.9118
  782MOL0     H 5545   6.386  -0.693   3.667 -0.4985  1.4335  3.0063
  782MOL0     H 5546   6.337  -0.987   3.734 -0.1980 -0.7252 -0.2416
  782MOL0     H 5547   6.300  -0.851   3.841  1.3915  0.6591 -0.7476
  782MOL0     H 5548   6.181  -0.902   3.579 -3.4273 -0.9136  0.1292
  782MOL0     H 5549   6.169  -0.743   3.665  0.1082  0.9290  2.1787
  782MOL0     H 5550   6.064  -1.002   3.789 -2.4197 -0.4663  1.2105
  782MOL0     H 5551   5.970  -0.902   3.684  1.0076 -0.2391 -2.0024
  782MOL0     H 5552   7.013  -0.260   3.799 -1.0867  0.0464 -0.9735
  782MOL0     H 5553   7.197  -0.194   3.938  0.7595  0.2880  0.3056
  782MOL0     H 5554   7.528  -0.494   4.173 -0.1429  0.0635 -0.7957
  782MOL0     H 5555   7.744  -0.526   4.280  1.7813  2.1016  0.4894
  782MOL0     H 5556   8.196   1.068   5.181 -0.6423 -0.7330 -1.0637
  782MOL0     H 5557   8.121   1.251   5.330 -0.1393 -2.2726  0.9650
  782MOL0     H 5558   7.641   1.651   5.326  0.3336 -0.6466 -0.5712
  782MOL0     H 5559   7.605   1.819   5.495 -0.4298 -0.7670 -3.6867
  782MOL0     H 5560   7.610   2.012   5.800  2.0073  0.5359 -0.9706
  782MOL0     H 5561   7.607   1.974   5.628  3.1948 -0.0370  1.2440
  782MOL0     H 5562   7.436   1.858   5.865  2.5387 -0.8278 -0.4555
  782MOL0     H 5563   7.454   1.771   5.705 -1.2658 -0.3706  0.6631
  782MOL0     H 5564   7.367   1.912   5.578 -3.0490 -3.8881  0.7919
  782MOL0     H 5565   7.358   2.050   5.697  0.2175  0.3877  4.4566
  782MOL0     H 5566   7.186   1.796   5.693 -1.0578  0.5408 -2.3347
  782MOL0     H 5567   7.140   1.950   5.623 -2.0873  0.4603  1.6342
  782MOL0     H 5568   7.078   1.977   6.048  2.8540 -1.8314  0.2652
  782MOL0     H 5569   7.838   1.615   5.782 -2.5719  0.1453  1.5518
  782MOL0     H 5570   7.888   1.434   5.614  1.2151  0.6857 -2.1007
  783MOL0     O 5571   5.153   3.166   9.634  0.5933  0.4739  0.2471
  783MOL0     C 5572   5.176   3.161   9.517 -0.1445  0.4445 -0.1530
  783MOL0     O 5573   5.082   3.152   9.417  0.5497 -0.4477 -0.0875
  783MOL0     C 5574   4.958   3.143   9.459 -0.7927 -1.3990  0.0432
  783MOL0     C 5575   4.875   3.047   9.406  0.1469 -0.6383 -0.2554
  783MOL0     C 5576   4.738   3.037   9.441  0.5102 -0.1838  0.8491
  783MOL0     C 5577   4.678   3.131   9.526  0.6955  0.1850 -0.1531
  783MOL0     O 5578   4.548   3.122   9.560  0.3032 -0.0999 -0.6537
  783MOL0     C 5579   4.489   3.190   9.668  0.4646 -0.2853 -0.9799
  783MOL0     C 5580   4.337   3.148   9.668 -0.6969 -0.4285 -0.1502
  783MOL0     C 5581   4.328   3.005   9.707 -0.0262  0.8119  0.5068
  783MOL0     C 5582   4.187   2.947   9.733  0.0101 -0.3661  0.1117
  783MOL0     C 5583   4.191   2.802   9.772  0.8792  0.6769 -0.4734
  783MOL0     C 5584   4.053   2.730   9.800 -0.0510 -0.0413 -0.1887
  783MOL0     C 5585   4.055   2.575   9.797  0.4659 -0.0161 -1.0448
  783MOL0     C 5586   4.057   2.509   9.937  0.2888 -0.1639  0.0842
  783MOL0     N 5587   3.933   2.547  10.012  0.2004 -1.1268  0.4031
  783MOL0     C 5588   3.805   2.497   9.998 -0.0700  0.5316 -0.0959
  783MOL0     C 5589   3.729   2.566  10.092 -1.2757 -0.2743  0.2400
  783MOL0     C 5590   3.588   2.531  10.117 -0.3882  0.2498 -0.1273
  783MOL0     C 5591   3.560   2.426  10.215  0.7970  0.8316 -0.7614
  783MOL0     C 5592   3.549   2.285  10.147  0.7550  0.3941 -0.7751
  783MOL0     C 5593   3.556   2.178  10.259 -0.7171  0.0630  0.2096
  783MOL0     O 5594   3.439   2.179  10.341 -0.4365 -0.1068  0.4400
  783MOL0     C 5595   3.402   2.058  10.396  0.5767  0.1121 -0.3247
  783MOL0     C 5596   3.267   2.024  10.396 -0.2543 -0.0386 -0.3731
  783MOL0     C 5597   3.218   1.901  10.439  0.2468  0.6812 -0.3637
  783MOL0     C 5598   3.062   1.882  10.432  0.2726  0.6534 -0.2930
  783MOL0     C 5599   3.308   1.812  10.488  0.3776  0.3136  0.9184
  783MOL0     C 5600   3.275   1.674  10.532 -1.1833  0.5941 -0.8548
  783MOL0     O 5601   3.372   1.574  10.534 -1.1134  0.2190 -0.1335
  783MOL0     C 5602   3.347   1.442  10.558  0.3046  0.1520 -0.6946
  783MOL0     C 5603   3.443   1.360  10.614 -0.0827  0.0414 -0.2030
  783MOL0     C 5604   3.417   1.225  10.653  0.5844  0.7491 -0.0482
  783MOL0     C 5605   3.296   1.169  10.616  0.0277 -0.1620 -0.1426
  783MOL0     O 5606   3.274   1.041  10.650 -0.7018  0.0268 -0.2523
  783MOL0     C 5607   3.339   0.948  10.563  0.1610 -0.6672 -0.5781
  783MOL0     C 5608   3.238   0.824  10.558  0.5482  0.2817 -0.0648
  783MOL0     C 5609   3.291   0.727  10.445  0.8251 -0.4264  0.0634
  783MOL0     C 5610   3.416   0.644  10.471 -0.4230 -0.8400 -0.2933
  783MOL0     C 5611   3.431   0.544  10.356 -1.0229  0.3737 -0.7859
  783MOL0     C 5612   3.568   0.458  10.354 -0.5605 -0.6238  0.2789
  783MOL0     C 5613   3.611   0.414  10.214  0.1457  0.1443  0.6634
  783MOL0     C 5614   3.747   0.330  10.220  0.4405  0.6529  0.0847
  783MOL0    Cl 5615   3.877   0.425  10.299 -0.2453 -0.0456 -0.0808
  783MOL0     C 5616   3.195   1.249  10.546 -0.3243 -0.2104 -0.2561
  783MOL0     C 5617   3.224   1.385  10.521 -0.5807 -0.5770 -0.5140
  783MOL0     O 5618   3.159   1.667  10.583 -0.6503 -0.3511  0.2776
  783MOL0     C 5619   3.447   1.846  10.490  0.4741  0.1720  0.8028
  783MOL0     C 5620   3.495   1.968  10.442 -0.5039  0.9720  0.1699
  783MOL0     N 5621   3.807   2.671  10.149  0.2559 -0.1216 -0.4510
  783MOL0     N 5622   3.926   2.644  10.114  0.0126  0.2502 -0.0184
  783MOL0     C 5623   4.766   3.227   9.585  0.7228 -0.1188  0.3389
  783MOL0     C 5624   4.898   3.228   9.551  0.5556 -0.1596 -0.7416
  783MOL0     C 5625   5.320   3.137   9.475 -1.0802  0.4373  0.0426
  783MOL0     C 5626   5.364   3.116   9.337 -0.0062  0.0849 -0.7032
  783MOL0     C 5627   5.493   3.103   9.299  0.2743 -0.2470  0.0133
  783MOL0     C 5628   5.593   3.109   9.394  0.6092 -0.1659  0.1115
  783MOL0     O 5629   5.721   3.103   9.339 -0.4261  0.2997 -0.2933
  783MOL0     C 5630   5.835   3.138   9.433  0.7059  0.9319  0.5365
  783MOL0     C 5631   5.959   3.086   9.368 -0.4930  0.5937  1.2001
  783MOL0     C 5632   6.028   3.183   9.265 -1.1461  0.1931 -0.7985
  783MOL0     C 5633   6.157   3.122   9.204 -0.1076 -0.7600 -0.6957
  783MOL0     C 5634   6.267   3.092   9.306 -0.2618 -0.0923  0.6977
  783MOL0     C 5635   6.361   3.063   9.382  1.0584  0.5253  0.6285
  783MOL0     C 5636   5.561   3.119   9.531 -1.0369 -0.1403  0.3881
  783MOL0     C 5637   5.431   3.135   9.572  0.3973  0.3178 -0.2086
  783MOL0     H 5638   4.928   2.986   9.333 -1.1112 -1.1338 -0.7833
  783MOL0     H 5639   4.666   2.970   9.395 -2.2332  1.8061  1.9642
  783MOL0     H 5640   4.544   3.172   9.760  2.4336  1.8780 -1.6089
  783MOL0     H 5641   4.488   3.298   9.651 -0.0514  0.1749  1.5460
  783MOL0     H 5642   4.283   3.207   9.742 -2.7714 -0.8229 -1.2806
  783MOL0     H 5643   4.287   3.160   9.571 -0.4838 -1.5684 -0.4214
  783MOL0     H 5644   4.373   2.949   9.625  0.1836  0.6939  0.7024
  783MOL0     H 5645   4.376   2.983   9.803 -0.6881  1.0010  0.8824
  783MOL0     H 5646   4.157   3.008   9.818  2.8221 -0.7216  1.4863
  783MOL0     H 5647   4.123   2.961   9.645 -0.2792 -2.8306 -0.1628
  783MOL0     H 5648   4.250   2.751   9.696  0.4598  1.4345 -1.3238
  783MOL0     H 5649   4.264   2.800   9.853 -1.3221 -0.6494  1.6144
  783MOL0     H 5650   4.026   2.763   9.900  0.8707 -3.2505  1.2641
  783MOL0     H 5651   3.984   2.777   9.730  1.0349  2.6586  0.4445
  783MOL0     H 5652   3.972   2.543   9.734 -1.0837 -0.5117  1.1351
  783MOL0     H 5653   4.148   2.535   9.756  2.0664 -0.0536  2.2672
  783MOL0     H 5654   4.140   2.541  10.002  0.4470  0.9903 -0.6515
  783MOL0     H 5655   4.067   2.403   9.915  1.7264  0.4171 -2.3764
  783MOL0     H 5656   3.780   2.408   9.942 -0.2313 -0.0838  0.9382
  783MOL0     H 5657   3.537   2.619  10.157 -1.4537 -0.3219 -0.1931
  783MOL0     H 5658   3.541   2.512  10.020 -0.1827  0.7642 -0.3281
  783MOL0     H 5659   3.464   2.444  10.263  0.7699  0.2086 -0.5728
  783MOL0     H 5660   3.632   2.427  10.297  0.9068 -3.4149 -0.5818
  783MOL0     H 5661   3.635   2.270  10.082  3.1969  1.0599  2.1094
  783MOL0     H 5662   3.455   2.285  10.091 -0.9975  1.7090  1.9428
  783MOL0     H 5663   3.645   2.188  10.321 -0.0620 -0.5718 -0.6173
  783MOL0     H 5664   3.563   2.081  10.210 -0.2395  0.5436 -0.6892
  783MOL0     H 5665   3.197   2.101  10.364  0.8655  1.1884  0.0439
  783MOL0     H 5666   3.026   1.780  10.414 -4.0286  2.1030 -0.9067
  783MOL0     H 5667   3.017   1.919  10.524  0.1654  2.0468 -0.8714
  783MOL0     H 5668   3.018   1.944  10.353  3.5897  0.9118 -2.1708
  783MOL0     H 5669   3.542   1.398  10.637 -0.5244 -0.1499  2.2894
  783MOL0     H 5670   3.490   1.163  10.704  1.0534  1.5538  0.2660
  783MOL0     H 5671   3.349   0.994  10.464 -1.8622  1.0076 -0.0695
  783MOL0     H 5672   3.434   0.919  10.610 -1.6931 -0.8930  3.4844
  783MOL0     H 5673   3.218   0.772  10.651 -3.1727  1.6601  0.0640
  783MOL0     H 5674   3.137   0.857  10.532  0.3615  1.4533  1.9615
  783MOL0     H 5675   3.296   0.793  10.357  2.6227  1.1791  1.2881
  783MOL0     H 5676   3.216   0.653  10.416  0.5147  0.3888 -1.3235
  783MOL0     H 5677   3.489   0.725  10.463 -2.6090  1.7464  3.0251
  783MOL0     H 5678   3.413   0.595  10.568  0.8058 -1.0345 -0.3406
  783MOL0     H 5679   3.429   0.585  10.255 -0.8020 -1.5488 -1.6128
  783MOL0     H 5680   3.345   0.477  10.363  0.2925 -1.2660  1.6817
  783MOL0     H 5681   3.650   0.510  10.404  0.5533  0.6196 -2.6732
  783MOL0     H 5682   3.559   0.369  10.417 -2.5638 -0.4273  0.3217
  783MOL0     H 5683   3.635   0.499  10.149  1.9117  0.7960  2.1010
  783MOL0     H 5684   3.528   0.360  10.167  0.7190  0.9364 -1.3663
  783MOL0     H 5685   3.781   0.293  10.123 -1.2410 -0.1769 -0.2070
  783MOL0     H 5686   3.729   0.246  10.287  0.4962 -0.7740 -1.6239
  783MOL0     H 5687   3.104   1.195  10.520 -0.2160 -1.1355  1.1341
  783MOL0     H 5688   3.156   1.445  10.461 -0.3292 -0.1666 -0.4020
  783MOL0     H 5689   3.526   1.780  10.523  0.8378 -1.8635 -3.4742
  783MOL0     H 5690   3.599   1.997  10.446 -0.8888  2.5445 -0.3218
  783MOL0     H 5691   4.729   3.294   9.662  0.1710 -0.8439  0.7139
  783MOL0     H 5692   4.955   3.307   9.598 -0.0326 -1.2120  1.8778
  783MOL0     H 5693   5.291   3.099   9.259 -2.7232 -1.8556  2.0130
  783MOL0     H 5694   5.511   3.087   9.193  0.0531 -1.6987  0.1772
  783MOL0     H 5695   5.830   3.247   9.443 -0.7978  1.2957 -2.8139
  783MOL0     H 5696   5.825   3.094   9.533  1.2798  0.8578  0.5645
  783MOL0     H 5697   5.937   2.991   9.318  2.3168  0.3810  0.1861
  783MOL0     H 5698   6.036   3.063   9.443 -1.9851  0.0975  2.6393
  783MOL0     H 5699   6.058   3.275   9.317  1.1458 -0.8817 -0.0711
  783MOL0     H 5700   5.963   3.208   9.181 -0.1491  0.8726 -1.3929
  783MOL0     H 5701   6.200   3.192   9.131  5.1209 -3.5018 -0.7471
  783MOL0     H 5702   6.121   3.034   9.149  1.6162 -1.7871 -0.2337
  783MOL0     H 5703   6.446   3.054   9.446  0.4760  2.3532  1.7193
  783MOL0     H 5704   5.633   3.113   9.611 -2.0208 -1.8270  1.2005
  783MOL0     H 5705   5.399   3.139   9.675 -0.7059  0.6088 -0.5451
  784MOL0     O 5706  10.849   9.492   3.856  0.3655 -0.2558  0.0040
  784MOL0     C 5707  10.883   9.394   3.919 -0.3488  0.3182  1.1450
  784MOL0     O 5708  10.811   9.286   3.945  0.1010  0.3753  0.0869
  784MOL0     C 5709  10.701   9.244   3.876 -0.3603  0.0324 -0.0947
  784MOL0     C 5710  10.617   9.166   3.948  0.2824 -0.2807 -0.7990
  784MOL0     C 5711  10.496   9.128   3.899  0.2703 -0.4741 -0.3052
  784MOL0     C 5712  10.461   9.150   3.763  1.0917  0.8782 -0.5378
  784MOL0     O 5713  10.340   9.102   3.713 -0.8068  0.1149 -1.2876
  784MOL0     C 5714  10.225   9.156   3.787 -0.1848  0.2454  0.0332
  784MOL0     C 5715  10.108   9.139   3.698  0.3481 -1.3977  0.1688
  784MOL0     C 5716   9.983   9.207   3.755  0.6951  0.5352 -0.8736
  784MOL0     C 5717   9.877   9.182   3.653  0.5040 -0.1278 -0.0686
  784MOL0     C 5718   9.736   9.192   3.712 -0.5211 -0.4360  0.9200
  784MOL0     C 5719   9.624   9.144   3.607 -0.1547  0.2376 -0.1505
  784MOL0     C 5720   9.487   9.147   3.676  0.1295 -0.0358  0.1995
  784MOL0     C 5721   9.379   9.143   3.575  0.4764 -0.2338 -0.8736
  784MOL0     N 5722   9.259   9.191   3.628 -0.0852 -0.7601  0.2784
  784MOL0     C 5723   9.192   9.125   3.735 -0.3623  0.0105  0.6174
  784MOL0     C 5724   9.069   9.185   3.745  0.5359 -0.0364  0.1741
  784MOL0     C 5725   8.952   9.154   3.837 -0.7107  0.6583  0.2920
  784MOL0     C 5726   8.980   9.196   3.977 -0.6566 -0.4122 -0.2867
  784MOL0     C 5727   8.867   9.143   4.063 -0.5470 -0.1060 -0.0030
  784MOL0     C 5728   8.879   9.208   4.197  0.6002 -0.6823 -0.2892
  784MOL0     O 5729   8.771   9.159   4.282 -0.1980  0.4077 -0.5658
  784MOL0     C 5730   8.762   9.205   4.410 -0.9431 -0.1361  0.4610
  784MOL0     C 5731   8.864   9.256   4.491 -0.0459  1.0118 -0.7886
  784MOL0     C 5732   8.829   9.314   4.617 -0.9346  0.5482 -0.0936
  784MOL0     C 5733   8.940   9.393   4.684 -0.2456 -0.3552  0.3213
  784MOL0     C 5734   8.691   9.309   4.665 -0.6022 -0.9337  1.1357
  784MOL0     C 5735   8.645   9.386   4.785  0.5129  0.1751 -0.0759
  784MOL0     O 5736   8.642   9.522   4.791  0.2387  0.8540  0.0319
  784MOL0     C 5737   8.559   9.560   4.894 -0.2038  0.5741 -0.6230
  784MOL0     C 5738   8.430   9.595   4.865  0.0817 -0.5596  0.2000
  784MOL0     C 5739   8.337   9.627   4.963  0.0554  0.8250  0.7129
  784MOL0     C 5740   8.388   9.631   5.098  0.6309  0.0166  0.6103
  784MOL0     O 5741   8.308   9.659   5.211  0.9284  0.8712 -0.5404
  784MOL0     C 5742   8.159   9.673   5.205  0.2485 -0.1399  0.5786
  784MOL0     C 5743   8.110   9.666   5.351  1.1518 -0.6368 -0.6599
  784MOL0     C 5744   8.175   9.775   5.449 -0.7366  0.4767  1.3569
  784MOL0     C 5745   8.088   9.820   5.564  0.0513  0.1428  1.1949
  784MOL0     C 5746   7.963   9.899   5.529 -0.0711 -0.9604 -0.0074
  784MOL0     C 5747   7.995  10.054   5.499 -0.4726  0.2938  0.1740
  784MOL0     C 5748   7.861  10.115   5.523 -0.4578 -1.1028  0.9245
  784MOL0     C 5749   7.876  10.274   5.492 -0.2063  0.1029 -0.3636
  784MOL0    Cl 5750   7.999  10.354   5.594 -0.4322 -0.1519  0.1229
  784MOL0     C 5751   8.518   9.584   5.126 -0.3581 -0.3754  0.6357
  784MOL0     C 5752   8.598   9.543   5.023 -0.3447 -0.9289  0.0601
  784MOL0     O 5753   8.627   9.307   4.879  0.4712 -0.5422 -0.2303
  784MOL0     C 5754   8.606   9.237   4.593  0.8255 -0.3312 -0.2068
  784MOL0     C 5755   8.635   9.184   4.467 -0.7846 -0.1398 -0.2719
  784MOL0     N 5756   9.069   9.292   3.656 -0.7011  0.7444 -0.5716
  784MOL0     N 5757   9.186   9.295   3.592  0.2544 -0.0831 -0.1253
  784MOL0     C 5758  10.561   9.208   3.686  0.0970 -0.5028  0.3615
  784MOL0     C 5759  10.673   9.272   3.740 -0.4167  0.0814  0.2205
  784MOL0     C 5760  11.017   9.409   3.986 -0.1127 -0.2444  0.9272
  784MOL0     C 5761  11.034   9.341   4.103  0.2809 -1.0879 -0.9736
  784MOL0     C 5762  11.161   9.348   4.172 -0.0832  0.6367  0.4020
  784MOL0     C 5763  11.263   9.436   4.112  0.6366 -0.0102 -1.0284
  784MOL0     O 5764  11.384   9.457   4.172  0.0097 -0.4736  0.7598
  784MOL0     C 5765  11.437   9.357   4.262 -0.5347 -0.5736 -0.7994
  784MOL0     C 5766  11.406   9.401   4.402  0.1655 -0.1536 -0.3213
  784MOL0     C 5767  11.508   9.504   4.458 -0.9279 -0.1489 -0.6288
  784MOL0     C 5768  11.504   9.537   4.615  0.4409 -0.2497  0.2336
  784MOL0     C 5769  11.632   9.575   4.669 -0.2358 -0.6488 -0.6928
  784MOL0     C 5770  11.742   9.616   4.705 -0.3479 -0.1373 -0.1709
  784MOL0     C 5771  11.239   9.509   3.993  0.7461 -0.0379  0.1362
  784MOL0     C 5772  11.115   9.493   3.926 -0.0128  1.0181  0.1656
  784MOL0     H 5773  10.641   9.143   4.051 -1.8732 -0.1902 -0.2193
  784MOL0     H 5774  10.439   9.067   3.969  3.2982 -0.3470  2.5009
  784MOL0     H 5775  10.206   9.097   3.877 -0.2577  0.6389  0.2828
  784MOL0     H 5776  10.254   9.260   3.808  3.3973 -0.5429 -0.4433
  784MOL0     H 5777  10.139   9.178   3.600 -2.3141  0.5853 -0.0052
  784MOL0     H 5778  10.088   9.032   3.687 -1.7422 -1.0661  0.3499
  784MOL0     H 5779   9.958   9.156   3.848 -0.5194 -3.0600 -2.9934
  784MOL0     H 5780  10.004   9.312   3.778  2.9100 -0.4670  2.2192
  784MOL0     H 5781   9.893   9.257   3.574  1.4895  0.4567  0.6578
  784MOL0     H 5782   9.890   9.083   3.610  1.9050 -0.9842  2.1838
  784MOL0     H 5783   9.734   9.148   3.812 -1.1317 -2.5914 -0.0058
  784MOL0     H 5784   9.719   9.299   3.728 -0.6247 -0.2361 -0.4028
  784MOL0     H 5785   9.627   9.204   3.516  2.2467 -2.1803 -1.8096
  784MOL0     H 5786   9.640   9.037   3.594 -0.1026 -0.1931  2.8595
  784MOL0     H 5787   9.472   9.053   3.731 -2.0009 -1.3635 -2.4222
  784MOL0     H 5788   9.485   9.231   3.746 -3.1326  1.4156 -1.4394
  784MOL0     H 5789   9.363   9.038   3.546  0.9174 -0.9887  1.3829
  784MOL0     H 5790   9.407   9.211   3.494 -1.9383  2.8992  0.7073
  784MOL0     H 5791   9.220   9.032   3.783  4.1756  0.2517 -1.1134
  784MOL0     H 5792   8.868   9.216   3.804  0.1440  2.0113  0.5690
  784MOL0     H 5793   8.924   9.048   3.839 -2.0787  1.0091  0.9846
  784MOL0     H 5794   8.990   9.305   3.982  1.3453 -0.5970  1.0427
  784MOL0     H 5795   9.078   9.156   4.004 -0.8841 -0.3053  0.7789
  784MOL0     H 5796   8.886   9.037   4.080 -1.6106 -0.1176  1.2692
  784MOL0     H 5797   8.773   9.156   4.008  0.2178 -3.1244 -2.3108
  784MOL0     H 5798   8.884   9.317   4.183  1.3668 -0.5805  0.6691
  784MOL0     H 5799   8.971   9.169   4.241  1.2812 -0.7955 -1.7445
  784MOL0     H 5800   8.966   9.268   4.456  2.7605 -2.3962  4.8278
  784MOL0     H 5801   9.035   9.343   4.703 -0.1974  0.3514  2.1183
  784MOL0     H 5802   8.970   9.473   4.615 -1.6311 -1.0419 -1.1478
  784MOL0     H 5803   8.888   9.440   4.768 -2.8449 -1.2469 -0.6929
  784MOL0     H 5804   8.403   9.608   4.761  2.1493  2.5707 -0.0854
  784MOL0     H 5805   8.237   9.665   4.947  1.4018  5.2011  1.5413
  784MOL0     H 5806   8.128   9.767   5.157 -0.0038 -1.4828 -2.0283
  784MOL0     H 5807   8.124   9.592   5.141  0.5739 -1.5361  2.1026
  784MOL0     H 5808   8.001   9.666   5.353  1.0915  0.0796 -2.2041
  784MOL0     H 5809   8.146   9.570   5.389 -0.5630 -0.8748  0.4272
  784MOL0     H 5810   8.214   9.863   5.397  1.8145  0.8976  3.7172
  784MOL0     H 5811   8.269   9.726   5.478  0.3938  1.1965 -0.8910
  784MOL0     H 5812   8.052   9.730   5.615  0.2930 -0.3344  0.5425
  784MOL0     H 5813   8.154   9.877   5.631  1.1808  0.6817 -0.3205
  784MOL0     H 5814   7.896   9.893   5.615  0.1745  0.9753  0.3591
  784MOL0     H 5815   7.908   9.863   5.441 -1.5919  1.4464 -0.1399
  784MOL0     H 5816   8.070  10.097   5.566  0.2342 -1.0690  0.2969
  784MOL0     H 5817   8.027  10.063   5.395  0.0367 -0.5167  0.2556
  784MOL0     H 5818   7.816  10.093   5.620  2.9632  1.2490  3.2780
  784MOL0     H 5819   7.794  10.068   5.450 -1.6073  0.7579  0.7288
  784MOL0     H 5820   7.778  10.323   5.499 -0.4584 -0.0910 -1.9935
  784MOL0     H 5821   7.912  10.296   5.391 -1.5930  3.1954 -0.2881
  784MOL0     H 5822   8.564   9.583   5.225 -0.4433  2.0244  0.7654
  784MOL0     H 5823   8.702   9.521   5.042  0.2234  1.3102 -0.2210
  784MOL0     H 5824   8.510   9.240   4.643 -0.5565 -3.8990 -2.2000
  784MOL0     H 5825   8.557   9.135   4.409 -1.1525 -0.7068  0.6785
  784MOL0     H 5826  10.542   9.226   3.581  1.0818 -0.5176  0.1753
  784MOL0     H 5827  10.746   9.320   3.676  0.2402 -2.3690 -0.9831
  784MOL0     H 5828  10.949   9.291   4.149 -0.4921  2.1594  1.4836
  784MOL0     H 5829  11.177   9.287   4.260 -2.4235  1.1511  1.2385
  784MOL0     H 5830  11.403   9.254   4.247 -0.8651 -0.5385 -0.3035
  784MOL0     H 5831  11.546   9.356   4.257 -0.5412 -1.1825 -0.8368
  784MOL0     H 5832  11.385   9.321   4.474 -1.9521 -0.0242 -0.7408
  784MOL0     H 5833  11.308   9.449   4.404 -1.8632 -3.9720  1.5581
  784MOL0     H 5834  11.501   9.599   4.404  1.7701 -0.1819 -1.1452
  784MOL0     H 5835  11.611   9.474   4.440 -0.8995 -0.9056  0.6957
  784MOL0     H 5836  11.456   9.456   4.669  2.0578 -1.0748  0.4916
  784MOL0     H 5837  11.438   9.624   4.620  1.0264  0.3729 -1.7051
  784MOL0     H 5838  11.840   9.642   4.738 -0.3564 -2.0209  1.5547
  784MOL0     H 5839  11.314   9.583   3.967 -0.3640  1.4820  1.0863
  784MOL0     H 5840  11.097   9.540   3.830 -0.5763  1.0701  0.2965
  785MOL0     O 5841   9.110   0.281   0.898  0.0948 -0.1081  0.3615
  785MOL0     C 5842   9.147   0.369   0.826 -0.2395  0.3344  1.0264
  785MOL0     O 5843   9.077   0.424   0.722  0.1605  0.1104  0.4685
  785MOL0     C 5844   8.973   0.359   0.666  0.1888  0.5294  0.8545
  785MOL0     C 5845   8.957   0.215   0.664 -0.2411 -1.1264 -0.1249
  785MOL0     C 5846   8.852   0.154   0.592  0.3200 -0.0728  0.0498
  785MOL0     C 5847   8.750   0.234   0.537  0.3456 -0.0423  0.0760
  785MOL0     O 5848   8.664   0.168   0.452 -0.2590 -0.6152  0.6037
  785MOL0     C 5849   8.545   0.229   0.413  1.1041  0.0488  0.5310
  785MOL0     C 5850   8.476   0.124   0.326 -0.4570 -0.0166 -0.4095
  785MOL0     C 5851   8.357   0.181   0.256  0.5112  0.3303 -0.0883
  785MOL0     C 5852   8.291   0.077   0.177  0.2899  0.4909 -0.3281
  785MOL0     C 5853   8.153   0.134   0.131 -0.3384  0.0717 -0.4180
  785MOL0     C 5854   8.066   0.030   0.065  0.2641 -0.3681 -0.0834
  785MOL0     C 5855   7.923   0.071   0.062 -0.9358  0.4578  0.9056
  785MOL0     C 5856   7.900   0.161  -0.056  0.4696 -0.0559  1.0199
  785MOL0     N 5857   7.870   0.093  -0.180 -0.0472 -0.3407  0.1352
  785MOL0     C 5858   7.954   0.064  -0.294 -0.8268 -0.0420  0.3405
  785MOL0     C 5859   7.885  -0.027  -0.367  0.5898  0.0829 -0.4597
  785MOL0     C 5860   7.924  -0.086  -0.492 -0.2808 -0.4447 -1.0192
  785MOL0     C 5861   7.974  -0.225  -0.481 -0.2680 -0.0423 -0.8024
  785MOL0     C 5862   7.993  -0.298  -0.616  0.4804 -0.5160 -0.2463
  785MOL0     C 5863   8.104  -0.251  -0.716 -0.4232 -0.0020  0.6273
  785MOL0     O 5864   8.230  -0.273  -0.654 -0.3836  0.4310  0.9483
  785MOL0     C 5865   8.336  -0.265  -0.746  0.1244 -0.9117  0.0323
  785MOL0     C 5866   8.326  -0.233  -0.886 -0.1331  0.3529  0.7283
  785MOL0     C 5867   8.439  -0.223  -0.964  0.0590 -1.0213  0.2949
  785MOL0     C 5868   8.409  -0.185  -1.114 -0.3680 -0.7990  0.4222
  785MOL0     C 5869   8.562  -0.214  -0.904  0.0518 -0.5441 -0.5451
  785MOL0     C 5870   8.694  -0.212  -0.983  0.9758 -0.2116 -0.9523
  785MOL0     O 5871   8.688  -0.168  -1.108 -0.2590  0.1567 -0.2925
  785MOL0     C 5872   8.799  -0.112  -1.167 -0.5902  0.0394  0.8109
  785MOL0     C 5873   8.787   0.015  -1.217 -0.6531 -0.1007 -0.0795
  785MOL0     C 5874   8.892   0.078  -1.283  0.1166 -0.3518  0.4439
  785MOL0     C 5875   9.007   0.008  -1.309 -0.7348  0.3909 -0.8767
  785MOL0     O 5876   9.126   0.059  -1.364 -0.9480  0.0693  0.6468
  785MOL0     C 5877   9.166   0.192  -1.316  0.7035 -0.7222 -0.0691
  785MOL0     C 5878   9.312   0.215  -1.318 -0.7795  0.0646  0.2880
  785MOL0     C 5879   9.359   0.345  -1.238 -0.2551  1.3113  0.0645
  785MOL0     C 5880   9.356   0.464  -1.329  0.1299 -0.0302  0.0033
  785MOL0     C 5881   9.360   0.602  -1.258 -1.0899  0.7451  0.9119
  785MOL0     C 5882   9.476   0.596  -1.157  0.1740 -0.9266 -0.7465
  785MOL0     C 5883   9.494   0.716  -1.057  0.4092  0.1917  0.0022
  785MOL0     C 5884   9.375   0.721  -0.959 -0.5101 -0.4331 -0.2427
  785MOL0    Cl 5885   9.386   0.875  -0.872 -0.6118  0.2867 -0.4364
  785MOL0     C 5886   9.006  -0.123  -1.263 -0.1348 -0.1965 -0.0910
  785MOL0     C 5887   8.918  -0.186  -1.188  0.0781  0.8748  0.4019
  785MOL0     O 5888   8.800  -0.245  -0.925 -0.2654 -0.4390 -0.6874
  785MOL0     C 5889   8.569  -0.229  -0.764 -0.6480 -0.0582 -1.1976
  785MOL0     C 5890   8.457  -0.255  -0.685 -0.2916 -0.8219 -1.5840
  785MOL0     N 5891   7.775  -0.061  -0.291  0.0720 -0.1393 -0.0240
  785MOL0     N 5892   7.757   0.010  -0.184  0.6296 -0.2713 -0.4105
  785MOL0     C 5893   8.763   0.375   0.546  0.1935 -0.2317  0.4473
  785MOL0     C 5894   8.869   0.441   0.605 -0.1438 -0.2680 -0.3203
  785MOL0     C 5895   9.281   0.433   0.843  0.1044  0.0014 -0.2299
  785MOL0     C 5896   9.363   0.388   0.948 -0.0110  0.4868  0.6027
  785MOL0     C 5897   9.481   0.449   0.967  1.1390 -0.1203  0.2251
  785MOL0     C 5898   9.529   0.549   0.883 -0.1326  0.0469  0.0355
  785MOL0     O 5899   9.656   0.595   0.904 -0.5449 -0.5771  0.1536
  785MOL0     C 5900   9.724   0.641   0.781 -0.2912 -0.0875  0.6046
  785MOL0     C 5901   9.870   0.602   0.801  0.7710  0.8811  1.2182
  785MOL0     C 5902   9.960   0.613   0.670  0.2870  0.7948 -0.8937
  785MOL0     C 5903   9.959   0.489   0.577  0.2871 -1.0161  0.3221
  785MOL0     C 5904   9.865   0.502   0.469  0.7653 -0.3704  1.4373
  785MOL0     C 5905   9.788   0.513   0.371 -0.1684  0.5075  0.7134
  785MOL0     C 5906   9.445   0.605   0.788 -1.1080 -0.2417 -0.3646
  785MOL0     C 5907   9.326   0.547   0.759 -0.0436  0.1762  0.2003
  785MOL0     H 5908   9.022   0.146   0.716  0.0166 -1.6585 -1.1253
  785MOL0     H 5909   8.856   0.046   0.580 -2.4690 -0.3952  1.1744
  785MOL0     H 5910   8.477   0.263   0.492 -0.0203 -0.3874 -0.2344
  785MOL0     H 5911   8.563   0.318   0.352  1.9505 -0.5173 -0.0662
  785MOL0     H 5912   8.551   0.087   0.256  2.1790  1.1916  1.6136
  785MOL0     H 5913   8.459   0.045   0.400  2.3128 -0.7630 -0.4681
  785MOL0     H 5914   8.293   0.216   0.337 -0.1653 -1.3788  0.1707
  785MOL0     H 5915   8.390   0.262   0.191  1.8058 -1.1598 -1.3663
  785MOL0     H 5916   8.362   0.038   0.103  2.1236  0.4944  1.3583
  785MOL0     H 5917   8.275  -0.009   0.242 -2.7785  1.1920 -0.0252
  785MOL0     H 5918   8.100   0.190   0.209  0.5116 -0.4268  0.5537
  785MOL0     H 5919   8.163   0.208   0.051  0.1949  0.7821  0.2839
  785MOL0     H 5920   8.107   0.010  -0.034  2.9136  2.6436  0.2120
  785MOL0     H 5921   8.074  -0.063   0.121  0.1240  0.3650  1.2059
  785MOL0     H 5922   7.855  -0.015   0.065 -0.6948  0.2813  1.5098
  785MOL0     H 5923   7.894   0.125   0.152 -2.4250  0.4281  0.4654
  785MOL0     H 5924   7.988   0.226  -0.063  1.2090 -1.2420 -1.9735
  785MOL0     H 5925   7.816   0.225  -0.028  0.8990  0.8075  0.3966
  785MOL0     H 5926   8.047   0.112  -0.323  0.0590 -2.3796 -0.9580
  785MOL0     H 5927   7.823  -0.100  -0.532 -1.5390 -0.0953  1.7966
  785MOL0     H 5928   7.984  -0.026  -0.562 -2.1589  0.9714 -1.5100
  785MOL0     H 5929   7.890  -0.273  -0.431  0.5954 -0.5072  0.2556
  785MOL0     H 5930   8.067  -0.230  -0.424 -2.2372 -1.6233  2.5784
  785MOL0     H 5931   7.897  -0.295  -0.669  0.6970  2.1789 -0.6420
  785MOL0     H 5932   8.023  -0.401  -0.596  2.0967 -0.2248 -0.9709
  785MOL0     H 5933   8.084  -0.147  -0.741 -3.2023 -0.7048 -0.5623
  785MOL0     H 5934   8.091  -0.312  -0.807  2.0457  2.0648 -1.2698
  785MOL0     H 5935   8.230  -0.207  -0.929 -0.9754 -2.4206  0.7356
  785MOL0     H 5936   8.428  -0.270  -1.181 -1.7403  0.0740 -1.1558
  785MOL0     H 5937   8.303  -0.162  -1.126  0.3957  3.0718 -0.3800
  785MOL0     H 5938   8.453  -0.087  -1.135 -1.5995  0.3632  2.8381
  785MOL0     H 5939   8.700   0.078  -1.205  0.3411  1.7426 -1.8683
  785MOL0     H 5940   8.880   0.184  -1.306  0.5193  0.1479  2.2997
  785MOL0     H 5941   9.112   0.270  -1.369  1.3657  2.1260  3.1323
  785MOL0     H 5942   9.139   0.206  -1.211 -1.7000  0.2075 -0.7300
  785MOL0     H 5943   9.364   0.128  -1.277  2.0663  1.2380 -0.5823
  785MOL0     H 5944   9.346   0.233  -1.420  0.7135  1.6191  1.0044
  785MOL0     H 5945   9.461   0.311  -1.217  0.2435  0.0552 -3.6568
  785MOL0     H 5946   9.312   0.366  -1.142 -0.4306  1.4492 -0.0503
  785MOL0     H 5947   9.439   0.458  -1.401 -0.7022 -0.3162 -0.9519
  785MOL0     H 5948   9.275   0.471  -1.402  3.2157  0.6693 -3.7313
  785MOL0     H 5949   9.266   0.625  -1.207 -0.7619  2.8099  0.6653
  785MOL0     H 5950   9.385   0.685  -1.325 -0.7928 -0.6717 -0.8170
  785MOL0     H 5951   9.443   0.529  -1.077 -0.6929 -0.7330 -0.9294
  785MOL0     H 5952   9.571   0.570  -1.206 -0.0955 -2.5835 -0.4697
  785MOL0     H 5953   9.498   0.806  -1.120 -0.4671  1.5791  1.8525
  785MOL0     H 5954   9.589   0.708  -1.003 -0.5805 -0.3027  1.7488
  785MOL0     H 5955   9.372   0.642  -0.883 -0.0309 -0.7029 -0.4966
  785MOL0     H 5956   9.280   0.710  -1.011 -1.8798  1.5529  1.7004
  785MOL0     H 5957   9.096  -0.181  -1.280  0.7654  0.2219  2.7877
  785MOL0     H 5958   8.934  -0.286  -1.147 -0.9366 -1.1501 -3.6370
  785MOL0     H 5959   8.665  -0.215  -0.716 -1.6339 -0.2187  0.9426
  785MOL0     H 5960   8.462  -0.252  -0.577 -2.1392  0.6218 -1.4947
  785MOL0     H 5961   8.678   0.435   0.515 -0.4269 -0.6945  1.2188
  785MOL0     H 5962   8.883   0.548   0.606 -1.1161 -0.0782  2.7059
  785MOL0     H 5963   9.328   0.311   1.016  0.5510  0.1788  0.5514
  785MOL0     H 5964   9.539   0.421   1.054  0.6869  1.3571  1.0211
  785MOL0     H 5965   9.691   0.595   0.687  0.3772 -3.8717  2.0486
  785MOL0     H 5966   9.718   0.750   0.777 -0.5772 -0.1345 -0.4656
  785MOL0     H 5967   9.881   0.502   0.844  4.2693  0.7326  0.3358
  785MOL0     H 5968   9.915   0.670   0.874 -0.9622 -0.0690  3.2864
  785MOL0     H 5969  10.059   0.627   0.714  0.6926  0.7465 -1.7740
  785MOL0     H 5970   9.934   0.701   0.611 -1.4901  1.2429  0.4271
  785MOL0     H 5971   9.917   0.399   0.625 -0.0427 -1.7629 -1.2972
  785MOL0     H 5972  10.061   0.465   0.548  0.2827  1.0957 -1.6641
  785MOL0     H 5973   9.722   0.533   0.290  1.2805  2.3223 -0.0758
  785MOL0     H 5974   9.484   0.686   0.727  0.2288  0.0362  0.7891
  785MOL0     H 5975   9.264   0.580   0.676  1.0732 -2.9737 -2.1077
  786MOL0     O 5976   2.872   5.232   1.411  0.4659 -0.3827  0.1679
  786MOL0     C 5977   2.794   5.152   1.453  0.4696 -0.6762  0.6690
  786MOL0     O 5978   2.665   5.188   1.498 -0.0719  0.2283  0.2017
  786MOL0     C 5979   2.615   5.312   1.506 -1.0198  1.1738 -0.9783
  786MOL0     C 5980   2.544   5.376   1.406 -0.7950 -0.1464 -0.2839
  786MOL0     C 5981   2.488   5.505   1.441 -0.5548  0.0312  0.6733
  786MOL0     C 5982   2.509   5.574   1.561 -0.1290 -0.2270  0.2363
  786MOL0     O 5983   2.439   5.694   1.570  1.2840  0.1382 -0.6058
  786MOL0     C 5984   2.418   5.737   1.711 -0.1833 -1.0321  0.1050
  786MOL0     C 5985   2.282   5.808   1.746  0.5579  0.3859 -0.1762
  786MOL0     C 5986   2.162   5.711   1.721 -0.3384 -0.7533  0.7087
  786MOL0     C 5987   2.066   5.772   1.613  0.2178  0.8127 -0.5143
  786MOL0     C 5988   1.931   5.692   1.612  0.5159 -0.5745 -0.6399
  786MOL0     C 5989   1.837   5.724   1.496 -0.8125  1.3047  0.2156
  786MOL0     C 5990   1.903   5.691   1.359 -0.4401  0.4531  1.0746
  786MOL0     C 5991   1.792   5.696   1.249  0.4622  0.4056  0.1453
  786MOL0     N 5992   1.762   5.554   1.201  1.1513  0.0729 -0.3711
  786MOL0     C 5993   1.651   5.480   1.243  0.2947 -0.0744  0.5611
  786MOL0     C 5994   1.637   5.397   1.140  0.2352  0.2024  0.5418
  786MOL0     C 5995   1.523   5.305   1.113 -0.0731  0.1204  0.7633
  786MOL0     C 5996   1.370   5.340   1.153  0.5862  0.1301  0.3328
  786MOL0     C 5997   1.261   5.255   1.092  0.1019 -0.0068 -0.7012
  786MOL0     C 5998   1.124   5.310   1.120  0.1528 -0.0141 -0.3416
  786MOL0     O 5999   1.025   5.254   1.022 -1.0542 -0.1026 -0.2461
  786MOL0     C 6000   0.891   5.268   1.060 -0.4429  0.2660 -0.7084
  786MOL0     C 6001   0.794   5.271   0.960  0.2116  0.1809  0.4177
  786MOL0     C 6002   0.654   5.282   0.982 -0.8818 -0.5178 -0.7302
  786MOL0     C 6003   0.553   5.292   0.876 -0.0799 -0.0265 -0.1114
  786MOL0     C 6004   0.614   5.282   1.112  0.9092 -0.3176 -1.0727
  786MOL0     C 6005   0.480   5.297   1.151 -0.2919 -0.2542  0.0662
  786MOL0     O 6006   0.419   5.190   1.196  0.1048  0.2455 -0.0186
  786MOL0     C 6007   0.293   5.204   1.237  1.0785 -0.4866 -1.0492
  786MOL0     C 6008   0.182   5.239   1.157 -0.2348 -0.2836 -0.9747
  786MOL0     C 6009   0.051   5.233   1.211 -0.0928 -0.1850 -0.2645
  786MOL0     C 6010   0.031   5.217   1.347  0.6964 -0.8731  0.1696
  786MOL0     O 6011  -0.099   5.223   1.394 -0.1224 -0.0543 -0.5873
  786MOL0     C 6012  -0.126   5.228   1.544  1.1679 -0.9786 -0.0693
  786MOL0     C 6013  -0.270   5.251   1.572  0.0117 -0.1474  0.6934
  786MOL0     C 6014  -0.370   5.143   1.527  0.6741 -0.0592 -0.6084
  786MOL0     C 6015  -0.387   5.115   1.377 -0.4219  0.8909 -0.6365
  786MOL0     C 6016  -0.497   5.022   1.346 -0.0694 -0.5757 -0.2625
  786MOL0     C 6017  -0.506   5.005   1.193 -0.5393  0.1202 -1.1764
  786MOL0     C 6018  -0.594   4.891   1.151  0.1626  0.4042 -0.5803
  786MOL0     C 6019  -0.747   4.906   1.155 -0.3086 -0.3443 -1.0590
  786MOL0    Cl 6020  -0.796   4.879   1.333  0.1522 -0.0304 -0.3894
  786MOL0     C 6021   0.145   5.193   1.428 -0.0812 -0.2939  0.4985
  786MOL0     C 6022   0.273   5.187   1.379 -0.1903  0.1560  0.3640
  786MOL0     O 6023   0.429   5.411   1.129 -0.2924  0.4151 -0.3777
  786MOL0     C 6024   0.702   5.299   1.213  0.1017 -0.0275  0.8687
  786MOL0     C 6025   0.845   5.286   1.192  1.0047  0.5884  0.1818
  786MOL0     N 6026   1.741   5.396   1.054  0.6121 -0.1896 -0.3409
  786MOL0     N 6027   1.811   5.502   1.083 -0.6516  0.5014  0.2341
  786MOL0     C 6028   2.590   5.513   1.649  0.2366  0.8891 -0.5449
  786MOL0     C 6029   2.635   5.380   1.631 -0.4114 -0.6339  0.0750
  786MOL0     C 6030   2.839   5.019   1.483 -0.4303 -0.1791 -0.0941
  786MOL0     C 6031   2.752   4.923   1.544 -0.4753  0.2547  0.6201
  786MOL0     C 6032   2.795   4.792   1.565  0.6935  0.2206  0.0920
  786MOL0     C 6033   2.935   4.761   1.557 -1.4486  0.1895 -0.1944
  786MOL0     O 6034   2.997   4.644   1.600  0.4099  0.5614  0.7244
  786MOL0     C 6035   3.062   4.559   1.502 -0.0667  0.1877  0.7881
  786MOL0     C 6036   3.182   4.496   1.580  0.5787  0.0294  0.3987
  786MOL0     C 6037   3.279   4.621   1.625 -0.2753  0.3325 -0.4310
  786MOL0     C 6038   3.416   4.556   1.671  0.7226  0.3668 -0.8591
  786MOL0     C 6039   3.489   4.523   1.548 -0.4650 -0.2761 -0.4166
  786MOL0     C 6040   3.549   4.469   1.454 -0.4177  0.1314  0.1192
  786MOL0     C 6041   3.029   4.861   1.510 -0.3009  0.4113  0.2011
  786MOL0     C 6042   2.974   4.985   1.479 -0.0777 -0.4019  0.9876
  786MOL0     H 6043   2.539   5.317   1.315  1.0458 -0.9781  0.1093
  786MOL0     H 6044   2.436   5.554   1.359  1.9438 -1.5793 -2.0918
  786MOL0     H 6045   2.420   5.649   1.776  1.6610 -1.1685 -0.0771
  786MOL0     H 6046   2.499   5.806   1.735  0.5532 -1.2740 -1.5734
  786MOL0     H 6047   2.289   5.829   1.853  0.6001 -1.7771  0.3024
  786MOL0     H 6048   2.273   5.900   1.688  3.8780  1.3090  0.5378
  786MOL0     H 6049   2.196   5.611   1.691 -0.9803 -1.5275  2.3925
  786MOL0     H 6050   2.106   5.702   1.815 -2.0584  1.9725  0.0561
  786MOL0     H 6051   2.038   5.877   1.626 -3.1874  0.0458 -0.6790
  786MOL0     H 6052   2.115   5.771   1.515 -1.2448  1.7139 -1.2976
  786MOL0     H 6053   1.955   5.586   1.617  1.0698 -0.4641 -0.9132
  786MOL0     H 6054   1.870   5.718   1.699  4.0002 -1.4663  2.3291
  786MOL0     H 6055   1.753   5.656   1.511  2.1877 -3.3901 -1.8150
  786MOL0     H 6056   1.806   5.829   1.495 -0.5849  1.3708 -0.3001
  786MOL0     H 6057   1.974   5.771   1.335  1.7523 -1.9352 -0.8763
  786MOL0     H 6058   1.960   5.598   1.361 -0.5831  0.3207 -0.1006
  786MOL0     H 6059   1.832   5.757   1.168 -1.6105  1.2399 -0.3322
  786MOL0     H 6060   1.701   5.750   1.278  0.3435  1.1724 -1.5503
  786MOL0     H 6061   1.582   5.502   1.324  0.9567 -1.7996  1.6365
  786MOL0     H 6062   1.522   5.295   1.004  0.4450  1.3880  0.6158
  786MOL0     H 6063   1.550   5.211   1.162 -1.1893 -0.3553  0.4956
  786MOL0     H 6064   1.356   5.447   1.134  0.9165  0.1285  0.0626
  786MOL0     H 6065   1.365   5.317   1.260  0.7871  0.7897  0.4890
  786MOL0     H 6066   1.257   5.158   1.141 -0.6320  0.1690 -0.4063
  786MOL0     H 6067   1.268   5.236   0.984 -1.0210 -0.5997 -0.6782
  786MOL0     H 6068   1.129   5.417   1.097 -1.2176  0.1169 -0.1645
  786MOL0     H 6069   1.103   5.300   1.227  1.0660  2.8856  0.1762
  786MOL0     H 6070   0.830   5.271   0.857  1.4633  3.8632  0.6840
  786MOL0     H 6071   0.499   5.387   0.868  2.6634  1.5696 -0.7478
  786MOL0     H 6072   0.602   5.282   0.779  0.1854  1.0160 -0.0909
  786MOL0     H 6073   0.484   5.207   0.888 -0.7660  0.3964 -0.9311
  786MOL0     H 6074   0.193   5.254   1.050 -2.4970 -0.6443 -1.3045
  786MOL0     H 6075  -0.032   5.278   1.157  1.0277  2.0327 -0.2907
  786MOL0     H 6076  -0.094   5.137   1.596 -1.1017 -2.0543 -0.4348
  786MOL0     H 6077  -0.070   5.312   1.587 -1.0699  1.0952 -0.9415
  786MOL0     H 6078  -0.278   5.267   1.680  2.7325 -1.2201  1.1278
  786MOL0     H 6079  -0.293   5.341   1.514  2.8532 -1.1615 -2.2539
  786MOL0     H 6080  -0.464   5.171   1.575  1.5038 -0.3714  1.3056
  786MOL0     H 6081  -0.338   5.049   1.573  2.2804  0.8563  0.2686
  786MOL0     H 6082  -0.394   5.207   1.317 -1.9099  0.5708 -0.9927
  786MOL0     H 6083  -0.299   5.062   1.341  0.6116  0.9363  1.6327
  786MOL0     H 6084  -0.597   5.058   1.373  0.0904 -0.0118 -0.3958
  786MOL0     H 6085  -0.473   4.926   1.391 -0.0787 -1.3354 -1.8174
  786MOL0     H 6086  -0.543   5.102   1.158 -0.0942  1.2135  1.1843
  786MOL0     H 6087  -0.410   4.993   1.142  0.6126  1.3804  0.5592
  786MOL0     H 6088  -0.566   4.793   1.192 -1.7341  0.5900  1.3927
  786MOL0     H 6089  -0.587   4.885   1.042 -0.3446 -3.2179 -0.5412
  786MOL0     H 6090  -0.792   4.839   1.082  1.1413  1.1775 -3.4842
  786MOL0     H 6091  -0.771   5.002   1.111  0.2463  0.2101 -0.1916
  786MOL0     H 6092   0.144   5.148   1.527 -0.2660 -4.4147 -1.1591
  786MOL0     H 6093   0.354   5.166   1.448 -0.0319  0.2823  0.2156
  786MOL0     H 6094   0.680   5.307   1.319  2.4631  4.1630  1.2655
  786MOL0     H 6095   0.897   5.276   1.287  0.1525 -0.0271  0.5949
  786MOL0     H 6096   2.613   5.559   1.745  3.4132  0.3161 -0.9216
  786MOL0     H 6097   2.697   5.335   1.708 -1.2070 -2.5135 -0.3276
  786MOL0     H 6098   2.648   4.943   1.567 -0.5467  0.3886  0.1962
  786MOL0     H 6099   2.723   4.719   1.601  0.5091 -0.3900 -1.4367
  786MOL0     H 6100   2.983   4.488   1.476 -1.3482 -0.5783  5.7731
  786MOL0     H 6101   3.098   4.614   1.415  0.2632 -1.2302 -0.0025
  786MOL0     H 6102   3.238   4.426   1.518 -0.9952  0.3931 -1.5275
  786MOL0     H 6103   3.147   4.435   1.664 -1.4290 -1.4169 -1.3734
  786MOL0     H 6104   3.246   4.678   1.712 -2.2978  0.9504 -1.5252
  786MOL0     H 6105   3.300   4.694   1.546  0.3958  0.4917 -0.1144
  786MOL0     H 6106   3.387   4.471   1.734 -1.1596  1.1580 -0.5961
  786MOL0     H 6107   3.472   4.624   1.736  0.4626  1.4234 -1.7126
  786MOL0     H 6108   3.600   4.411   1.380 -0.3822 -0.2339  0.4258
  786MOL0     H 6109   3.136   4.849   1.499 -0.6871 -2.3248 -1.2889
  786MOL0     H 6110   3.052   5.053   1.446 -0.0838  1.1377  3.7977
  787MOL0     O 6111  10.967   7.741   9.871  0.3501  0.0961  0.1508
  787MOL0     C 6112  10.955   7.852   9.829 -0.2414 -0.2596 -0.4077
  787MOL0     O 6113  11.032   7.907   9.740 -0.8136  0.8059 -0.4983
  787MOL0     C 6114  11.132   7.819   9.675  0.3882 -0.0664 -0.5619
  787MOL0     C 6115  11.259   7.824   9.727  0.2174 -0.8011 -0.1142
  787MOL0     C 6116  11.358   7.746   9.663 -0.0457 -0.2840  1.4901
  787MOL0     C 6117  11.332   7.654   9.559  0.5779 -1.3810  0.3313
  787MOL0     O 6118  11.424   7.572   9.515  0.0744 -0.0291  0.2090
  787MOL0     C 6119  11.390   7.454   9.434  0.0731 -0.9946  0.3778
  787MOL0     C 6120  11.499   7.351   9.405 -0.0965  0.1064 -0.7686
  787MOL0     C 6121  11.437   7.252   9.296  0.3478 -0.4944  0.2454
  787MOL0     C 6122  11.352   7.141   9.357  0.6361 -0.2078  0.0781
  787MOL0     C 6123  11.272   7.071   9.247  0.0518 -0.4148  0.0538
  787MOL0     C 6124  11.153   6.997   9.314  1.0110 -0.4465  0.2122
  787MOL0     C 6125  11.105   6.888   9.216 -0.2874  0.7387  0.1523
  787MOL0     C 6126  11.191   6.758   9.204 -0.7828  0.3065  0.3505
  787MOL0     N 6127  11.136   6.648   9.122  0.1641 -0.1315  0.3704
  787MOL0     C 6128  11.037   6.562   9.155 -0.7374  0.2040 -0.4725
  787MOL0     C 6129  10.993   6.509   9.037 -0.9011 -0.2464 -0.2612
  787MOL0     C 6130  10.898   6.396   9.014 -0.1776 -0.0125 -0.4326
  787MOL0     C 6131  10.751   6.453   9.005 -0.2475 -0.5243  0.5242
  787MOL0     C 6132  10.683   6.365   8.901  0.0363  0.0608 -0.9695
  787MOL0     C 6133  10.650   6.234   8.968 -0.3141  1.5860  0.0229
  787MOL0     O 6134  10.611   6.134   8.867 -0.7066 -0.3855  0.6396
  787MOL0     C 6135  10.486   6.110   8.828 -0.2004 -0.5190 -0.6426
  787MOL0     C 6136  10.378   6.191   8.845  0.2175 -0.3945  0.1560
  787MOL0     C 6137  10.241   6.150   8.831 -1.0768  0.1129 -0.1476
  787MOL0     C 6138  10.132   6.247   8.861 -0.4304 -0.4756 -0.4821
  787MOL0     C 6139  10.221   6.015   8.792 -0.6241 -0.1673  0.6071
  787MOL0     C 6140  10.089   5.956   8.751  0.0721  0.2734 -0.3738
  787MOL0     O 6141  10.073   5.816   8.762  0.3291  0.5227 -0.3768
  787MOL0     C 6142   9.977   5.743   8.701 -0.0004 -1.4337  0.3427
  787MOL0     C 6143   9.846   5.760   8.741  0.3113  0.3546  0.4792
  787MOL0     C 6144   9.740   5.673   8.698  0.0800 -0.4795 -0.2696
  787MOL0     C 6145   9.782   5.566   8.619 -0.3856 -0.0273  0.1740
  787MOL0     O 6146   9.692   5.473   8.583  0.3236  0.2901 -0.1931
  787MOL0     C 6147   9.581   5.521   8.506 -0.2703  0.1942 -0.2597
  787MOL0     C 6148   9.538   5.414   8.406 -0.5684  0.1880 -0.5137
  787MOL0     C 6149   9.411   5.452   8.330 -0.5857  0.6921  0.0223
  787MOL0     C 6150   9.273   5.479   8.400 -1.1548 -0.1320 -0.4372
  787MOL0     C 6151   9.152   5.500   8.318 -0.1920 -0.1088 -0.5120
  787MOL0     C 6152   9.101   5.409   8.209  0.2657 -0.4997  0.4447
  787MOL0     C 6153   8.948   5.437   8.170  0.0805 -0.7389 -0.3629
  787MOL0     C 6154   8.899   5.327   8.078 -1.0164  0.7624  0.5843
  787MOL0    Cl 6155   8.724   5.318   8.066 -0.1524  0.3890  0.2153
  787MOL0     C 6156   9.918   5.544   8.591 -0.4047  0.3612  0.2700
  787MOL0     C 6157  10.017   5.637   8.631 -0.0516 -0.0420 -0.9933
  787MOL0     O 6158   9.997   6.027   8.705 -0.2416 -0.4757 -0.1636
  787MOL0     C 6159  10.339   5.935   8.782  0.1160  0.0598  0.4359
  787MOL0     C 6160  10.463   5.977   8.799  0.0804  0.2082  0.0806
  787MOL0     N 6161  11.068   6.563   8.933 -1.2513  0.4498  0.2280
  787MOL0     N 6162  11.152   6.639   8.988  0.5875 -0.1981 -0.2822
  787MOL0     C 6163  11.200   7.646   9.515  0.0425  1.0095  0.1572
  787MOL0     C 6164  11.097   7.723   9.574 -1.1054  1.0259 -0.4256
  787MOL0     C 6165  10.863   7.948   9.904 -0.2914  0.6270  0.6232
  787MOL0     C 6166  10.870   8.083   9.882  0.2762  0.5472 -0.0203
  787MOL0     C 6167  10.778   8.173   9.939 -0.7693  0.0334 -0.0665
  787MOL0     C 6168  10.668   8.121  10.013 -0.8136  0.2250 -0.4391
  787MOL0     O 6169  10.592   8.210  10.083  0.0039  0.0848  0.6482
  787MOL0     C 6170  10.462   8.173  10.131 -0.0100  0.4370  0.6525
  787MOL0     C 6171  10.388   8.140  10.004 -0.2300 -0.9664  0.5052
  787MOL0     C 6172  10.242   8.108  10.022  0.0281  0.0065  0.6319
  787MOL0     C 6173  10.163   8.131   9.886  0.2367 -0.6232  0.5501
  787MOL0     C 6174  10.181   8.009   9.807 -0.2293  0.1670 -0.9985
  787MOL0     C 6175  10.203   7.910   9.739  0.4398 -0.4077  0.3830
  787MOL0     C 6176  10.662   7.982  10.034  0.7723 -0.2288  0.0280
  787MOL0     C 6177  10.759   7.897   9.982 -0.2823  0.2404  0.0734
  787MOL0     H 6178  11.283   7.888   9.811  0.1845  1.1942 -1.5494
  787MOL0     H 6179  11.463   7.754   9.689  0.1630  0.5508  0.4658
  787MOL0     H 6180  11.304   7.399   9.475  1.1314 -1.2935  2.3018
  787MOL0     H 6181  11.355   7.500   9.341 -0.1267 -2.3026 -0.2211
  787MOL0     H 6182  11.575   7.414   9.358 -1.9746  3.3461  0.1924
  787MOL0     H 6183  11.550   7.302   9.488 -0.6783  0.2208 -0.3356
  787MOL0     H 6184  11.375   7.315   9.231  0.0983  0.8906  1.7612
  787MOL0     H 6185  11.518   7.202   9.243  0.8755  0.3178  0.2797
  787MOL0     H 6186  11.411   7.072   9.418  1.2331  1.1339  1.0747
  787MOL0     H 6187  11.284   7.180   9.433 -0.6325 -1.1898 -0.5211
  787MOL0     H 6188  11.237   7.147   9.177  0.9604  0.8127  0.9059
  787MOL0     H 6189  11.330   7.006   9.180  1.2910  1.0673 -0.3694
  787MOL0     H 6190  11.181   6.970   9.416 -2.0960  1.2583  1.6350
  787MOL0     H 6191  11.071   7.069   9.321  1.1518 -0.2237 -0.3708
  787MOL0     H 6192  11.003   6.864   9.248 -0.1331 -2.7701 -1.4820
  787MOL0     H 6193  11.098   6.939   9.119 -1.0321 -2.0829 -1.4162
  787MOL0     H 6194  11.209   6.710   9.301  0.9301  0.6917  0.2534
  787MOL0     H 6195  11.289   6.783   9.162 -2.4398  0.8707 -3.6197
  787MOL0     H 6196  11.013   6.527   9.255  2.0421 -1.1401 -0.1696
  787MOL0     H 6197  10.933   6.347   8.923  0.7407  1.7428 -1.0877
  787MOL0     H 6198  10.897   6.323   9.095 -2.8779 -1.6364 -1.8019
  787MOL0     H 6199  10.735   6.555   8.970 -1.9534  0.9769  5.0432
  787MOL0     H 6200  10.715   6.453   9.108 -0.0287 -1.2266  0.6093
  787MOL0     H 6201  10.758   6.357   8.822  2.2198 -0.8242  1.0629
  787MOL0     H 6202  10.598   6.418   8.856  0.8207  1.0296 -1.3412
  787MOL0     H 6203  10.572   6.249   9.043 -1.0242  2.0515 -0.8038
  787MOL0     H 6204  10.734   6.191   9.024  0.3635  1.0109 -1.3779
  787MOL0     H 6205  10.389   6.295   8.873 -3.7327  0.3460 -0.4588
  787MOL0     H 6206  10.169   6.347   8.882  0.1815 -0.7760 -0.0937
  787MOL0     H 6207  10.084   6.264   8.765 -0.2093 -0.5951 -0.6144
  787MOL0     H 6208  10.057   6.213   8.934 -0.3486 -1.0270 -0.6459
  787MOL0     H 6209   9.832   5.849   8.803  0.2245 -0.0879  1.1008
  787MOL0     H 6210   9.634   5.669   8.720  0.2313 -2.2369  0.2520
  787MOL0     H 6211   9.504   5.533   8.583  1.5660  2.8285  1.3374
  787MOL0     H 6212   9.611   5.618   8.466 -0.4747  1.0921  1.6343
  787MOL0     H 6213   9.622   5.384   8.342  0.0014 -2.7833  1.4035
  787MOL0     H 6214   9.519   5.321   8.461 -1.5464 -1.6101 -3.6437
  787MOL0     H 6215   9.386   5.368   8.264  0.5532  0.1745  0.2213
  787MOL0     H 6216   9.424   5.543   8.271  0.6374 -0.0964 -0.9574
  787MOL0     H 6217   9.245   5.391   8.459 -0.1517 -0.1301  0.0460
  787MOL0     H 6218   9.287   5.562   8.470  1.8159 -3.4381  3.3888
  787MOL0     H 6219   9.170   5.600   8.278 -3.1319  1.2824  1.3314
  787MOL0     H 6220   9.075   5.504   8.396 -0.0468 -3.3971 -0.0524
  787MOL0     H 6221   9.177   5.438   8.136  4.7132 -1.4528  4.1818
  787MOL0     H 6222   9.115   5.306   8.242  1.3177  0.0317  1.7239
  787MOL0     H 6223   8.952   5.540   8.133  2.5913 -0.3481  0.8285
  787MOL0     H 6224   8.893   5.429   8.264  0.1674 -1.1267 -0.3439
  787MOL0     H 6225   8.935   5.229   8.109 -0.2694  0.4300 -1.1862
  787MOL0     H 6226   8.953   5.344   7.984  0.2755 -0.2113  1.1143
  787MOL0     H 6227   9.946   5.459   8.530  0.5501  0.9975 -0.2100
  787MOL0     H 6228  10.124   5.619   8.618  0.0295 -0.3710  0.0435
  787MOL0     H 6229  10.333   5.837   8.737  5.0436  0.0647 -0.7394
  787MOL0     H 6230  10.547   5.914   8.772 -0.0332 -0.0755  0.3868
  787MOL0     H 6231  11.186   7.573   9.436 -1.7439  1.1855  0.2704
  787MOL0     H 6232  10.995   7.703   9.542 -0.8396  0.0749 -0.7162
  787MOL0     H 6233  10.947   8.129   9.821  0.8462 -0.3961 -0.0284
  787MOL0     H 6234  10.808   8.277   9.932  2.3318 -0.7823 -0.4254
  787MOL0     H 6235  10.458   8.084  10.195 -0.1211  0.7527  1.0826
  787MOL0     H 6236  10.424   8.253  10.194  0.2133 -0.9081  2.5853
  787MOL0     H 6237  10.432   8.062   9.942  0.2521  1.9628 -3.2252
  787MOL0     H 6238  10.399   8.224   9.935  2.7648 -1.3021  0.4593
  787MOL0     H 6239  10.199   8.165  10.105 -6.7329 -2.5867 -0.4297
  787MOL0     H 6240  10.229   8.004  10.055 -0.0817  0.9289  3.7873
  787MOL0     H 6241  10.185   8.223   9.832 -0.5750  0.3667  1.8510
  787MOL0     H 6242  10.059   8.143   9.916  0.5104  2.5346  0.5402
  787MOL0     H 6243  10.239   7.828   9.680  2.1726 -0.8729  1.9854
  787MOL0     H 6244  10.571   7.946  10.079  0.6726  1.2144  1.0540
  787MOL0     H 6245  10.751   7.789   9.995  0.9769  0.0064 -0.8871
  788MOL0     O 6246   6.253  11.201  10.451 -0.5878 -0.2415  1.1741
  788MOL0     C 6247   6.227  11.319  10.424  0.2077  0.5012 -0.0286
  788MOL0     O 6248   6.268  11.389  10.311 -0.5725  0.4986  0.4406
  788MOL0     C 6249   6.311  11.306  10.207  0.0885 -0.1373  0.4752
  788MOL0     C 6250   6.453  11.296  10.176  0.1531 -0.2044 -0.3468
  788MOL0     C 6251   6.496  11.215  10.071  0.1709  0.1699 -0.4277
  788MOL0     C 6252   6.406  11.138  10.005 -0.4831  0.2391 -0.3221
  788MOL0     O 6253   6.467  11.055   9.912 -0.1422 -0.0510 -0.9090
  788MOL0     C 6254   6.380  10.971   9.831 -0.7793  0.2376 -0.0354
  788MOL0     C 6255   6.463  10.894   9.732  0.3313  0.9142  0.4826
  788MOL0     C 6256   6.591  10.817   9.790 -0.1831  0.0227  0.4166
  788MOL0     C 6257   6.567  10.686   9.874 -0.5813 -0.6025 -0.6098
  788MOL0     C 6258   6.688  10.636   9.943 -0.3108 -0.2585 -0.2890
  788MOL0     C 6259   6.676  10.543  10.069 -0.3168  0.6962 -0.0186
  788MOL0     C 6260   6.810  10.480  10.119 -0.3800 -1.2692 -0.0711
  788MOL0     C 6261   6.782  10.374  10.216  0.3334 -0.3129  0.0261
  788MOL0     N 6262   6.906  10.323  10.274 -0.6818  0.4101  0.0431
  788MOL0     C 6263   7.024  10.288  10.214  0.2296 -0.7289  0.0291
  788MOL0     C 6264   7.107  10.282  10.319  0.0628  0.5672  0.2826
  788MOL0     C 6265   7.254  10.240  10.314 -0.0202  0.1702 -0.0283
  788MOL0     C 6266   7.309  10.232  10.450 -0.1342  0.0721 -0.5241
  788MOL0     C 6267   7.464  10.208  10.458 -0.8220 -0.0543 -0.0802
  788MOL0     C 6268   7.519  10.261  10.591  0.3148  0.5824 -0.1583
  788MOL0     O 6269   7.615  10.170  10.655 -0.0032 -0.6959  0.6277
  788MOL0     C 6270   7.742  10.204  10.638 -0.2901 -0.2905 -0.6462
  788MOL0     C 6271   7.798  10.279  10.738 -0.0674 -0.0356 -0.4112
  788MOL0     C 6272   7.934  10.296  10.734 -0.1301 -1.3608 -0.3908
  788MOL0     C 6273   7.981  10.385  10.849  0.9304 -0.2516 -0.8214
  788MOL0     C 6274   8.014  10.241  10.630 -0.8224  0.5508 -0.3260
  788MOL0     C 6275   8.153  10.271  10.617  0.3059 -0.4602 -0.2146
  788MOL0     O 6276   8.186  10.288  10.488 -0.2424 -0.3135 -0.1358
  788MOL0     C 6277   8.319  10.328  10.471 -0.7165  0.7146  1.0662
  788MOL0     C 6278   8.404  10.228  10.438  0.2000  0.9767 -0.9834
  788MOL0     C 6279   8.543  10.255  10.433 -0.1651 -0.3977  0.2776
  788MOL0     C 6280   8.591  10.387  10.444 -0.1209 -1.4051 -0.1878
  788MOL0     O 6281   8.729  10.398  10.425  0.4702 -1.5206  0.0579
  788MOL0     C 6282   8.782  10.534  10.422 -0.0591  1.4536 -0.0540
  788MOL0     C 6283   8.929  10.520  10.378  0.3590 -0.4290 -0.0146
  788MOL0     C 6284   9.004  10.417  10.459 -0.1883  0.4223 -0.4314
  788MOL0     C 6285   9.140  10.383  10.393  0.3166 -0.3792  0.2959
  788MOL0     C 6286   9.256  10.493  10.404  0.3753 -0.0960  0.1743
  788MOL0     C 6287   9.382  10.412  10.370 -0.1568  0.3307 -0.3775
  788MOL0     C 6288   9.511  10.500  10.359  1.3818  0.4152  0.5542
  788MOL0     C 6289   9.630  10.418  10.331 -0.3697  0.3275 -0.4787
  788MOL0    Cl 6290   9.655  10.267  10.425 -0.2554  0.0211  0.4058
  788MOL0     C 6291   8.496  10.486  10.477  0.4880  0.0080  0.1690
  788MOL0     C 6292   8.360  10.457  10.485  0.2651  1.4705  0.3417
  788MOL0     O 6293   8.226  10.249  10.713 -0.1385 -0.4444 -0.6027
  788MOL0     C 6294   7.952  10.157  10.537 -0.7520  1.0425  0.1852
  788MOL0     C 6295   7.814  10.148  10.535  0.1880  0.0837 -0.0477
  788MOL0     N 6296   7.045  10.310  10.442 -0.1537  0.7815  0.2743
  788MOL0     N 6297   6.923  10.341  10.410 -0.1958  0.6395 -0.4258
  788MOL0     C 6298   6.268  11.141  10.031 -0.3541 -0.5543 -1.1114
  788MOL0     C 6299   6.219  11.222  10.134 -0.7317 -0.0140 -1.2281
  788MOL0     C 6300   6.139  11.398  10.510  1.2568 -0.4021  0.0631
  788MOL0     C 6301   6.108  11.532  10.475 -0.2132  0.0171 -0.0715
  788MOL0     C 6302   6.016  11.608  10.551 -0.3746  0.5927 -0.0937
  788MOL0     C 6303   5.965  11.564  10.671 -0.3212 -0.1701 -0.2384
  788MOL0     O 6304   5.894  11.656  10.743  0.1349 -0.4675  0.6445
  788MOL0     C 6305   5.775  11.619  10.815  1.1768  0.1713  0.9232
  788MOL0     C 6306   5.700  11.742  10.866 -1.1331  0.5654 -0.5897
  788MOL0     C 6307   5.582  11.709  10.961  0.1189 -0.9367  0.7215
  788MOL0     C 6308   5.455  11.650  10.888 -0.4392  0.7742 -0.7186
  788MOL0     C 6309   5.397  11.759  10.805 -0.1786  0.2599  0.0093
  788MOL0     C 6310   5.352  11.833  10.724 -0.0674 -0.3230  0.2289
  788MOL0     C 6311   5.999  11.430  10.708  1.1062  0.0691  0.1182
  788MOL0     C 6312   6.081  11.349  10.632 -0.2928 -0.4896  0.3606
  788MOL0     H 6313   6.529  11.336  10.242  2.2866 -2.5236 -1.2829
  788MOL0     H 6314   6.603  11.217  10.052  0.3743  2.8516  0.5130
  788MOL0     H 6315   6.320  10.902   9.890  1.6668 -1.4556  0.6514
  788MOL0     H 6316   6.314  11.035   9.772 -0.6612  0.5767  0.1996
  788MOL0     H 6317   6.408  10.820   9.674  0.3232 -0.4454  2.1590
  788MOL0     H 6318   6.493  10.959   9.650 -0.8364  1.0491  0.1526
  788MOL0     H 6319   6.655  10.788   9.706 -0.0591  0.2703  0.4238
  788MOL0     H 6320   6.639  10.893   9.851  0.1115  0.1782 -0.0022
  788MOL0     H 6321   6.484  10.696   9.946 -0.3901 -3.2504  0.0792
  788MOL0     H 6322   6.522  10.614   9.806 -1.3962  0.6541 -1.4490
  788MOL0     H 6323   6.740  10.578   9.867 -2.5271 -2.2642 -0.3920
  788MOL0     H 6324   6.747  10.725   9.966  0.1329 -0.6514  0.1010
  788MOL0     H 6325   6.637  10.606  10.149 -3.1680 -1.7873  0.7272
  788MOL0     H 6326   6.605  10.462  10.047  1.8675 -1.5920  0.8850
  788MOL0     H 6327   6.873  10.442  10.037 -1.1772 -0.9646 -0.8440
  788MOL0     H 6328   6.864  10.559  10.172 -3.8095 -0.1272  1.9852
  788MOL0     H 6329   6.729  10.287  10.176  2.9491 -0.9700 -2.3116
  788MOL0     H 6330   6.711  10.428  10.279 -0.0358 -1.3744  0.5577
  788MOL0     H 6331   7.038  10.277  10.107 -0.2730 -0.5751 -0.0553
  788MOL0     H 6332   7.257  10.138  10.275  0.6871  0.4479 -0.7274
  788MOL0     H 6333   7.313  10.306  10.250  1.8405 -1.6811 -0.3044
  788MOL0     H 6334   7.255  10.155  10.507  2.5507 -1.2215  0.4410
  788MOL0     H 6335   7.287  10.327  10.499 -0.2459 -0.1605 -0.1129
  788MOL0     H 6336   7.522  10.249  10.375 -1.0169 -1.7935 -1.1266
  788MOL0     H 6337   7.479  10.102  10.435 -1.7658 -0.0697 -0.6949
  788MOL0     H 6338   7.441  10.266  10.668  2.4919  1.8764  2.1112
  788MOL0     H 6339   7.556  10.363  10.582 -1.2892  1.0777 -1.5466
  788MOL0     H 6340   7.727  10.315  10.812 -1.4983 -1.4910 -1.0266
  788MOL0     H 6341   7.904  10.451  10.889  2.7875  1.2989  0.4265
  788MOL0     H 6342   8.013  10.318  10.930 -1.8147  1.2144  1.6647
  788MOL0     H 6343   8.061  10.453  10.818 -1.8733  2.5281 -2.4085
  788MOL0     H 6344   8.378  10.124  10.423 -0.0559  0.7165  1.0115
  788MOL0     H 6345   8.612  10.176  10.406  0.7400  0.6660 -0.5938
  788MOL0     H 6346   8.720  10.586  10.349  1.8992 -0.2183 -3.0985
  788MOL0     H 6347   8.774  10.590  10.516  0.1267 -0.0237  0.8797
  788MOL0     H 6348   8.920  10.486  10.275 -1.5884 -1.1687  0.3394
  788MOL0     H 6349   8.977  10.617  10.386 -0.6481  0.0975 -0.1790
  788MOL0     H 6350   8.954  10.320  10.463  1.0623 -0.2112  1.5365
  788MOL0     H 6351   9.025  10.462  10.557 -0.5105  1.0564 -0.6425
  788MOL0     H 6352   9.173  10.292  10.444 -0.7035  0.2039  2.0723
  788MOL0     H 6353   9.121  10.362  10.287 -2.3528  0.7274  0.4723
  788MOL0     H 6354   9.249  10.539  10.502 -1.1538 -0.4661  0.2630
  788MOL0     H 6355   9.229  10.582  10.346 -0.4233  0.0617  0.7728
  788MOL0     H 6356   9.404  10.336  10.446  1.8637  0.3541 -0.8877
  788MOL0     H 6357   9.365  10.359  10.275  1.4427  1.3161 -1.2519
  788MOL0     H 6358   9.527  10.546  10.457  2.5351 -1.5347  1.3453
  788MOL0     H 6359   9.493  10.570  10.277 -0.7631 -0.1702  0.4529
  788MOL0     H 6360   9.715  10.488  10.338 -1.9059  2.3061 -0.6953
  788MOL0     H 6361   9.625  10.388  10.226  1.6276 -0.1375 -0.4893
  788MOL0     H 6362   8.526  10.589  10.494  1.1224 -0.4860  2.3790
  788MOL0     H 6363   8.285  10.532  10.508 -1.1488  0.2179 -0.0144
  788MOL0     H 6364   8.021  10.104  10.471  0.9686  4.2363 -0.8051
  788MOL0     H 6365   7.754  10.093  10.463 -1.4726  0.8807  0.6846
  788MOL0     H 6366   6.200  11.084   9.969  0.3939 -1.5473 -1.0450
  788MOL0     H 6367   6.113  11.217  10.159  0.0599 -2.0443  2.6261
  788MOL0     H 6368   6.140  11.582  10.384 -3.5740  1.3115 -0.6678
  788MOL0     H 6369   6.010  11.713  10.524  0.2762  1.4506  2.7493
  788MOL0     H 6370   5.707  11.567  10.747 -0.4905  1.9345  1.1561
  788MOL0     H 6371   5.791  11.547  10.896  1.4987 -0.4092  0.3557
  788MOL0     H 6372   5.663  11.786  10.773 -0.6149  2.3771  0.0212
  788MOL0     H 6373   5.760  11.812  10.924 -0.3316 -0.4689 -0.1545
  788MOL0     H 6374   5.569  11.806  11.010  0.4480 -0.1741 -0.6613
  788MOL0     H 6375   5.607  11.636  11.038  1.3782 -2.9164 -1.4397
  788MOL0     H 6376   5.378  11.609  10.954 -0.2950  0.1625 -0.9229
  788MOL0     H 6377   5.480  11.564  10.826 -4.7449 -2.1435  1.1055
  788MOL0     H 6378   5.312  11.891  10.643 -1.9565  0.7590  1.8480
  788MOL0     H 6379   5.956  11.404  10.804 -0.5793 -0.1427 -0.6596
  788MOL0     H 6380   6.110  11.250  10.667 -0.9807 -0.3982  1.2134
  789MOL0     O 6381   5.147   3.919   7.491 -0.7810  0.2341 -0.4464
  789MOL0     C 6382   5.082   3.853   7.577  0.5790  0.5520  0.2899
  789MOL0     O 6383   4.944   3.856   7.599 -0.2298 -0.1612 -0.1626
  789MOL0     C 6384   4.868   3.930   7.511  0.0657  0.1685  0.2286
  789MOL0     C 6385   4.888   4.045   7.423 -0.6784  0.7100 -0.7960
  789MOL0     C 6386   4.789   4.090   7.334  0.2783 -0.4072  0.3280
  789MOL0     C 6387   4.660   4.030   7.331 -0.9437  0.3748  0.3280
  789MOL0     O 6388   4.567   4.078   7.232  0.2189  0.0109 -0.0651
  789MOL0     C 6389   4.433   4.029   7.252  0.2794 -0.5142 -0.5752
  789MOL0     C 6390   4.340   4.106   7.159  0.2395  0.2861 -0.0977
  789MOL0     C 6391   4.208   4.028   7.138 -0.2591  0.2022  0.2793
  789MOL0     C 6392   4.126   4.004   7.265 -0.0448  0.2949  0.8559
  789MOL0     C 6393   3.999   3.934   7.223 -0.0598 -0.0661 -0.7582
  789MOL0     C 6394   3.922   3.884   7.336  0.4037 -0.0880 -0.1924
  789MOL0     C 6395   3.788   3.837   7.300 -0.5235 -0.4556 -0.4219
  789MOL0     C 6396   3.748   3.752   7.416 -0.0720 -0.1483 -0.3108
  789MOL0     N 6397   3.609   3.717   7.405 -0.0380  0.5463  0.0459
  789MOL0     C 6398   3.535   3.651   7.307  0.5964  0.4674 -0.3875
  789MOL0     C 6399   3.403   3.669   7.339  0.4212  0.7990 -0.8485
  789MOL0     C 6400   3.275   3.608   7.287 -0.9562  0.3082  0.3486
  789MOL0     C 6401   3.232   3.490   7.374  0.5392  1.1729  0.1042
  789MOL0     C 6402   3.106   3.428   7.310  0.0699  0.6275  1.1362
  789MOL0     C 6403   3.042   3.345   7.419 -0.6996 -0.1879  0.3624
  789MOL0     O 6404   2.923   3.268   7.382 -0.1292  0.9818  0.3416
  789MOL0     C 6405   2.925   3.177   7.280  1.2494 -0.2400 -0.1069
  789MOL0     C 6406   3.033   3.124   7.208 -1.1734 -0.0345  0.7730
  789MOL0     C 6407   3.014   3.029   7.098 -0.5033 -0.8624 -0.2581
  789MOL0     C 6408   3.132   2.965   7.030 -0.1013 -0.0766 -0.5621
  789MOL0     C 6409   2.884   2.997   7.056 -0.2695  0.9282  0.3831
  789MOL0     C 6410   2.846   2.898   6.954 -0.0199 -0.3465 -0.2294
  789MOL0     O 6411   2.727   2.897   6.906  0.1099  0.2957 -0.7422
  789MOL0     C 6412   2.702   2.810   6.799 -0.3389 -0.4587 -0.3796
  789MOL0     C 6413   2.626   2.698   6.830 -0.0994  0.5945 -0.6889
  789MOL0     C 6414   2.582   2.620   6.725 -0.3809  0.7636 -0.1130
  789MOL0     C 6415   2.599   2.652   6.591 -0.4039  0.1935  1.4741
  789MOL0     O 6416   2.543   2.593   6.482 -0.0707 -0.1374 -0.2892
  789MOL0     C 6417   2.413   2.543   6.497 -0.3533  0.4546  0.1285
  789MOL0     C 6418   2.299   2.647   6.494 -0.4175 -0.5051  0.1480
  789MOL0     C 6419   2.295   2.736   6.377 -1.0184 -1.2206  0.2847
  789MOL0     C 6420   2.352   2.876   6.401  0.7261  0.0580  0.4401
  789MOL0     C 6421   2.266   2.978   6.323 -0.4792 -0.9621  0.6555
  789MOL0     C 6422   2.298   2.991   6.180  0.6922  0.1180  0.3463
  789MOL0     C 6423   2.192   3.089   6.117 -0.3202  0.9152  0.2911
  789MOL0     C 6424   2.218   3.241   6.149  0.4426  0.3432 -0.3129
  789MOL0    Cl 6425   2.112   3.326   6.021 -0.3271 -0.2170 -0.5200
  789MOL0     C 6426   2.677   2.760   6.570 -0.2320 -0.1294 -0.2474
  789MOL0     C 6427   2.735   2.843   6.665  0.3154 -0.1513 -0.3673
  789MOL0     O 6428   2.923   2.806   6.928 -0.8515  0.1006 -0.6351
  789MOL0     C 6429   2.778   3.051   7.129 -0.4292  0.6474 -0.3009
  789MOL0     C 6430   2.793   3.134   7.239  0.6952 -0.0898  0.6892
  789MOL0     N 6431   3.399   3.745   7.461 -0.0247  0.3034 -0.3283
  789MOL0     N 6432   3.522   3.780   7.489  0.1595  0.2095  0.2949
  789MOL0     C 6433   4.645   3.912   7.409  0.8767 -0.0843 -1.0722
  789MOL0     C 6434   4.746   3.870   7.490  0.2335  0.4977 -0.1537
  789MOL0     C 6435   5.163   3.765   7.663  0.0690  0.8179  0.3172
  789MOL0     C 6436   5.109   3.707   7.773 -0.1384  0.9430  0.2370
  789MOL0     C 6437   5.190   3.625   7.855  0.6816  0.7407  0.5753
  789MOL0     C 6438   5.319   3.595   7.820 -0.1525 -0.6623 -0.3309
  789MOL0     O 6439   5.401   3.519   7.905  0.2500 -0.5291  0.7772
  789MOL0     C 6440   5.430   3.612   8.018  0.4269 -0.3649 -0.4395
  789MOL0     C 6441   5.535   3.546   8.112  0.2779 -0.5170 -0.1088
  789MOL0     C 6442   5.495   3.402   8.158  0.2269  0.2708  0.3747
  789MOL0     C 6443   5.553   3.294   8.062 -0.3471 -0.1572  0.6668
  789MOL0     C 6444   5.693   3.256   8.103  0.0399 -0.0837  0.2048
  789MOL0     C 6445   5.806   3.229   8.133 -0.1743 -0.0307  0.5799
  789MOL0     C 6446   5.385   3.661   7.715  0.7070 -0.9847  0.1526
  789MOL0     C 6447   5.307   3.744   7.634 -0.1823  0.4293 -0.0077
  789MOL0     H 6448   4.987   4.090   7.423  0.1190 -0.9042 -2.9021
  789MOL0     H 6449   4.797   4.164   7.255  0.2786 -2.3719 -1.6185
  789MOL0     H 6450   4.432   3.925   7.218  0.1323 -1.1068  1.1785
  789MOL0     H 6451   4.397   4.036   7.355  2.5991 -1.0044  0.3102
  789MOL0     H 6452   4.312   4.202   7.202 -0.5718 -0.0359  0.1042
  789MOL0     H 6453   4.384   4.124   7.060 -0.5560 -0.8160 -0.6767
  789MOL0     H 6454   4.156   4.096   7.071  0.5270  0.8079  0.2613
  789MOL0     H 6455   4.230   3.932   7.091 -0.7700  1.1152 -1.9237
  789MOL0     H 6456   4.182   3.943   7.336 -0.8161 -0.9735  0.4054
  789MOL0     H 6457   4.108   4.101   7.312 -0.1031  0.6188  0.1826
  789MOL0     H 6458   3.937   3.992   7.154 -1.2220  0.7751  0.9091
  789MOL0     H 6459   4.025   3.841   7.174  0.9464 -1.2611  1.8544
  789MOL0     H 6460   3.983   3.801   7.374  0.4886  0.0305 -0.0693
  789MOL0     H 6461   3.914   3.955   7.418  0.0288  0.3150 -0.5772
  789MOL0     H 6462   3.716   3.918   7.288  0.5745  0.5472 -0.3982
  789MOL0     H 6463   3.796   3.768   7.215  3.1939  1.4236 -1.8250
  789MOL0     H 6464   3.764   3.813   7.506  0.3188 -0.7027 -0.0029
  789MOL0     H 6465   3.820   3.670   7.414 -0.6833 -0.6763 -0.9258
  789MOL0     H 6466   3.582   3.602   7.222  0.0535  1.2383 -1.1355
  789MOL0     H 6467   3.188   3.674   7.293 -1.4331 -0.1670 -1.0397
  789MOL0     H 6468   3.292   3.570   7.186 -1.8845 -1.3124  0.7674
  789MOL0     H 6469   3.200   3.524   7.473 -2.1540 -0.1109 -0.2227
  789MOL0     H 6470   3.310   3.415   7.390 -0.1251  0.3380 -0.4482
  789MOL0     H 6471   3.123   3.367   7.221  0.0781 -1.8406  2.7154
  789MOL0     H 6472   3.039   3.510   7.281 -0.2423 -0.2676 -0.8749
  789MOL0     H 6473   3.015   3.409   7.504  2.1606 -0.2747  1.4366
  789MOL0     H 6474   3.122   3.290   7.468  0.0271  0.9146  0.4565
  789MOL0     H 6475   3.136   3.156   7.226 -0.1822  0.4185 -4.2348
  789MOL0     H 6476   3.221   3.012   7.075 -0.1808 -0.5446  0.0887
  789MOL0     H 6477   3.129   2.858   7.049 -1.6713  0.0202 -0.1077
  789MOL0     H 6478   3.133   2.985   6.923  1.8976 -0.2457 -0.6222
  789MOL0     H 6479   2.588   2.682   6.931 -0.2150  2.3676 -0.4222
  789MOL0     H 6480   2.533   2.529   6.759 -0.9491  1.4543  0.9658
  789MOL0     H 6481   2.383   2.482   6.411 -1.2899  1.3471 -0.1938
  789MOL0     H 6482   2.402   2.479   6.585 -0.6376 -0.9107 -0.8622
  789MOL0     H 6483   2.205   2.590   6.501 -1.2437  0.6715 -0.8300
  789MOL0     H 6484   2.309   2.709   6.584  0.3944 -3.1951  2.0252
  789MOL0     H 6485   2.194   2.742   6.337 -0.4549 -0.8765 -1.1789
  789MOL0     H 6486   2.346   2.693   6.291 -1.9760  1.8222 -1.9846
  789MOL0     H 6487   2.353   2.908   6.505  0.9835 -3.4044  1.6255
  789MOL0     H 6488   2.455   2.872   6.364  0.0838 -1.6606 -1.4015
  789MOL0     H 6489   2.281   3.076   6.371  0.5763  0.9865 -3.2845
  789MOL0     H 6490   2.159   2.957   6.320 -0.7368  0.3364 -2.5148
  789MOL0     H 6491   2.396   3.036   6.169  1.5111 -1.9651 -1.8812
  789MOL0     H 6492   2.306   2.893   6.131  1.0209  0.2660  0.1004
  789MOL0     H 6493   2.094   3.056   6.153  1.6442 -1.3885  4.2255
  789MOL0     H 6494   2.190   3.075   6.009  0.8193  0.8691  0.2597
  789MOL0     H 6495   2.324   3.264   6.140  0.8019 -1.4236 -0.9516
  789MOL0     H 6496   2.190   3.273   6.250 -0.8283  1.1934 -0.8955
  789MOL0     H 6497   2.701   2.790   6.468  3.1051 -0.1419  0.3951
  789MOL0     H 6498   2.788   2.934   6.639  2.2887 -2.0343 -3.5356
  789MOL0     H 6499   2.673   3.027   7.109  0.2100 -2.7896 -0.1232
  789MOL0     H 6500   2.702   3.155   7.294  1.2315 -3.0658  2.9083
  789MOL0     H 6501   4.564   3.841   7.396  1.9501 -1.2555 -1.6490
  789MOL0     H 6502   4.731   3.771   7.532  0.0056  0.5461 -0.1188
  789MOL0     H 6503   5.003   3.725   7.790 -0.4646  0.5445 -1.2206
  789MOL0     H 6504   5.156   3.561   7.936 -1.6927  0.6060 -0.4451
  789MOL0     H 6505   5.472   3.707   7.982 -0.7223  0.3661  0.0662
  789MOL0     H 6506   5.339   3.630   8.075 -0.0274 -0.5245 -1.0988
  789MOL0     H 6507   5.555   3.616   8.193  1.4961  2.3038 -2.6603
  789MOL0     H 6508   5.630   3.543   8.058  0.2280  0.0010 -0.2282
  789MOL0     H 6509   5.385   3.396   8.152  0.3794 -0.8970 -3.0052
  789MOL0     H 6510   5.532   3.366   8.255  0.1297 -2.6341 -0.5650
  789MOL0     H 6511   5.550   3.322   7.956 -3.9145 -0.8554  0.4377
  789MOL0     H 6512   5.487   3.207   8.066 -1.9412  1.0173  1.0998
  789MOL0     H 6513   5.911   3.209   8.145 -0.1642  0.4098  1.3027
  789MOL0     H 6514   5.493   3.655   7.702  1.1613  3.6387  0.0150
  789MOL0     H 6515   5.364   3.796   7.558  2.1394 -1.1410  0.5640
  790MOL0     O 6516   8.388   3.975   5.618  1.1099 -0.6525 -0.6055
  790MOL0     C 6517   8.364   3.868   5.677 -0.4151 -0.3358  0.9261
  790MOL0     O 6518   8.249   3.793   5.669 -0.6271  0.1696 -0.4698
  790MOL0     C 6519   8.129   3.833   5.623 -0.1767  0.1927 -0.2226
  790MOL0     C 6520   8.083   3.963   5.614 -0.1845 -0.5272  0.0277
  790MOL0     C 6521   7.948   3.993   5.578  1.1278  0.1536  0.6984
  790MOL0     C 6522   7.855   3.889   5.563 -0.3273  0.0655  0.2956
  790MOL0     O 6523   7.723   3.931   5.550 -0.3973  0.1331 -0.1632
  790MOL0     C 6524   7.620   3.830   5.568  0.6343  0.2583 -0.7444
  790MOL0     C 6525   7.480   3.900   5.543  0.6972  0.7759 -0.7676
  790MOL0     C 6526   7.382   3.787   5.512 -0.8341 -0.0139 -0.6039
  790MOL0     C 6527   7.242   3.824   5.558 -0.0737  0.5775  1.0263
  790MOL0     C 6528   7.140   3.720   5.509 -0.1293 -0.0994 -0.7007
  790MOL0     C 6529   7.000   3.772   5.485 -1.1420 -1.0497 -0.0380
  790MOL0     C 6530   6.901   3.658   5.482 -0.3308  0.9838 -0.7748
  790MOL0     C 6531   6.951   3.515   5.442 -0.5488 -0.3255  0.8682
  790MOL0     N 6532   6.848   3.416   5.402 -0.7119  0.0204 -0.6023
  790MOL0     C 6533   6.729   3.392   5.461 -0.1977 -0.6478 -0.5961
  790MOL0     C 6534   6.673   3.294   5.390  0.3483 -0.1477  0.4759
  790MOL0     C 6535   6.554   3.209   5.422  0.8895 -0.1284  0.3038
  790MOL0     C 6536   6.423   3.275   5.454 -0.3257  0.6297  0.2792
  790MOL0     C 6537   6.346   3.320   5.331  0.0361  0.1497  0.5893
  790MOL0     C 6538   6.201   3.312   5.357  0.3185  0.0078  0.5410
  790MOL0     O 6539   6.161   3.173   5.357  1.0444  0.0458 -0.4902
  790MOL0     C 6540   6.020   3.162   5.353 -0.7724  0.3464  0.2267
  790MOL0     C 6541   5.973   3.048   5.294 -0.0133  0.1518 -1.1590
  790MOL0     C 6542   5.840   3.013   5.279  0.3991  0.2612 -0.5624
  790MOL0     C 6543   5.811   2.883   5.216 -0.2018 -0.0236 -0.1484
  790MOL0     C 6544   5.745   3.109   5.322  0.7269  0.8715 -1.1686
  790MOL0     C 6545   5.598   3.092   5.306 -0.0089 -0.5702 -0.1580
  790MOL0     O 6546   5.519   3.196   5.343  0.0594 -0.1713 -0.4098
  790MOL0     C 6547   5.381   3.196   5.337 -0.0639  1.3120 -0.5137
  790MOL0     C 6548   5.308   3.311   5.312 -0.0108  0.9634 -0.2601
  790MOL0     C 6549   5.167   3.325   5.297 -0.6097 -0.3469 -0.5369
  790MOL0     C 6550   5.089   3.206   5.303 -0.7123 -0.9706  0.4565
  790MOL0     O 6551   4.954   3.194   5.290 -0.1146  0.8711  0.5986
  790MOL0     C 6552   4.872   3.310   5.290  0.3598 -0.9310 -0.2725
  790MOL0     C 6553   4.879   3.386   5.157  0.2177 -0.2194 -0.4805
  790MOL0     C 6554   4.786   3.317   5.059  1.0148 -0.3785 -0.7978
  790MOL0     C 6555   4.641   3.333   5.092  0.0883  0.2826 -0.5655
  790MOL0     C 6556   4.581   3.266   4.970 -0.2350  0.8677 -0.6698
  790MOL0     C 6557   4.428   3.268   5.000 -0.2663  0.7754  0.0339
  790MOL0     C 6558   4.352   3.204   4.886  0.1727  0.7633 -0.5861
  790MOL0     C 6559   4.270   3.305   4.816 -0.5344  0.3245 -0.4232
  790MOL0    Cl 6560   4.175   3.222   4.686 -0.2355  0.1740 -0.1336
  790MOL0     C 6561   5.161   3.088   5.333 -0.2727 -0.2798  0.2015
  790MOL0     C 6562   5.302   3.083   5.345 -0.2460 -0.3295 -0.7838
  790MOL0     O 6563   5.558   2.993   5.249  0.9820  0.1865  0.2944
  790MOL0     C 6564   5.790   3.235   5.378 -0.0696  0.3180  0.0447
  790MOL0     C 6565   5.930   3.258   5.394  0.3713 -0.0799 -0.4981
  790MOL0     N 6566   6.757   3.255   5.296 -0.2796 -0.1918  0.3246
  790MOL0     N 6567   6.852   3.340   5.297  0.3205  0.1347  0.5188
  790MOL0     C 6568   7.908   3.760   5.571 -0.0497  0.2034 -0.2200
  790MOL0     C 6569   8.039   3.727   5.598  0.9267  0.3873 -0.2761
  790MOL0     C 6570   8.482   3.799   5.733  0.1039  0.3414  0.0631
  790MOL0     C 6571   8.469   3.737   5.860  0.0407 -1.1231  0.1906
  790MOL0     C 6572   8.571   3.670   5.927 -0.0637 -0.4226  0.0054
  790MOL0     C 6573   8.696   3.679   5.868 -0.9784 -0.0523  0.4229
  790MOL0     O 6574   8.802   3.616   5.926 -0.0228  0.7695 -0.1079
  790MOL0     C 6575   8.897   3.713   5.979  0.7674 -0.0605 -0.3488
  790MOL0     C 6576   9.036   3.672   5.932  0.0502  0.7018 -0.9799
  790MOL0     C 6577   9.076   3.536   5.999 -0.4053  0.0205  0.3375
  790MOL0     C 6578   9.225   3.530   6.007 -0.1470  0.6452  0.0634
  790MOL0     C 6579   9.275   3.615   6.118 -0.5064 -0.2220 -0.3358
  790MOL0     C 6580   9.318   3.695   6.202  0.3908 -0.1815 -0.5676
  790MOL0     C 6581   8.717   3.739   5.742  0.6935 -0.3614 -0.2452
  790MOL0     C 6582   8.610   3.803   5.678  1.1278  0.3388  0.0317
  790MOL0     H 6583   8.145   4.049   5.637  0.7084 -1.4213  1.0648
  790MOL0     H 6584   7.916   4.096   5.576 -1.9336 -0.5635  3.3731
  790MOL0     H 6585   7.630   3.745   5.501 -0.7047  0.3382 -1.0787
  790MOL0     H 6586   7.630   3.797   5.672  1.9591  2.2370 -0.1884
  790MOL0     H 6587   7.468   3.955   5.636  2.2699  0.5641 -0.4029
  790MOL0     H 6588   7.474   3.977   5.466 -5.0380  0.1962 -1.3474
  790MOL0     H 6589   7.390   3.783   5.403 -1.2397  2.1956 -0.7518
  790MOL0     H 6590   7.410   3.686   5.544  0.5746 -0.0424 -1.7891
  790MOL0     H 6591   7.231   3.844   5.665 -1.3525 -0.9837  1.2319
  790MOL0     H 6592   7.209   3.909   5.497 -0.5888 -1.9942 -2.6439
  790MOL0     H 6593   7.177   3.678   5.415  0.4914 -2.5181  0.5417
  790MOL0     H 6594   7.139   3.638   5.581  2.5375  0.3961 -0.0086
  790MOL0     H 6595   6.971   3.842   5.563  0.0138  0.1832 -0.6616
  790MOL0     H 6596   6.985   3.832   5.395 -0.2189  1.4751  1.3941
  790MOL0     H 6597   6.884   3.651   5.590  1.4317  0.8179 -0.4733
  790MOL0     H 6598   6.814   3.692   5.427  0.8418  2.7916 -1.5929
  790MOL0     H 6599   6.995   3.468   5.530 -0.8637 -3.8961 -0.7222
  790MOL0     H 6600   7.029   3.537   5.368 -0.4946 -1.5296  0.5577
  790MOL0     H 6601   6.689   3.420   5.558  1.8471  0.0493  0.0882
  790MOL0     H 6602   6.533   3.140   5.340  4.7707  0.1422 -1.1077
  790MOL0     H 6603   6.583   3.150   5.509  0.8243 -0.8723 -0.1664
  790MOL0     H 6604   6.446   3.353   5.527  2.3747 -0.8809  1.1991
  790MOL0     H 6605   6.366   3.196   5.504  1.6029  0.3503  2.1721
  790MOL0     H 6606   6.385   3.266   5.245  4.9655  3.7580  0.0935
  790MOL0     H 6607   6.366   3.426   5.314  0.0207 -0.1991 -1.9650
  790MOL0     H 6608   6.135   3.373   5.295 -0.2703  0.3128  1.4469
  790MOL0     H 6609   6.183   3.361   5.454 -2.1299  0.6911 -0.1868
  790MOL0     H 6610   6.045   2.978   5.253 -2.2921 -0.5565 -4.3407
  790MOL0     H 6611   5.754   2.817   5.282 -3.2380 -0.2234 -2.7066
  790MOL0     H 6612   5.755   2.908   5.125  2.7642  3.3575 -1.2705
  790MOL0     H 6613   5.901   2.826   5.190  0.7574  0.5367  1.7212
  790MOL0     H 6614   5.368   3.401   5.317 -2.3561  2.5977 -0.0656
  790MOL0     H 6615   5.124   3.424   5.285 -0.8595 -0.3452  0.2950
  790MOL0     H 6616   4.769   3.279   5.312  0.9877 -3.1522 -0.2717
  790MOL0     H 6617   4.919   3.380   5.360  3.0261 -0.9503 -1.9190
  790MOL0     H 6618   4.853   3.492   5.168 -0.7113 -0.6295  2.1683
  790MOL0     H 6619   4.980   3.393   5.115  0.5781 -0.9778  0.2298
  790MOL0     H 6620   4.819   3.214   5.049  0.6533 -0.8136  1.8106
  790MOL0     H 6621   4.799   3.367   4.962 -1.9096 -2.0957 -2.2182
  790MOL0     H 6622   4.611   3.287   5.186  0.5792  1.6581  0.3006
  790MOL0     H 6623   4.614   3.439   5.101 -1.6011  0.1415 -2.8646
  790MOL0     H 6624   4.621   3.165   4.968  0.5890  1.1275  0.8659
  790MOL0     H 6625   4.608   3.319   4.878  1.8912  0.7274 -0.1820
  790MOL0     H 6626   4.415   3.213   5.094  0.2923  4.0948  2.2367
  790MOL0     H 6627   4.396   3.372   5.016  1.6363  1.5610 -0.8932
  790MOL0     H 6628   4.288   3.127   4.929 -2.2102  2.5628 -0.6766
  790MOL0     H 6629   4.420   3.157   4.814  0.0111  1.3282 -1.1181
  790MOL0     H 6630   4.331   3.374   4.757 -0.4838 -0.7767 -1.6991
  790MOL0     H 6631   4.203   3.348   4.891  1.6386 -1.6203  2.8920
  790MOL0     H 6632   5.114   2.990   5.332 -1.2432  0.1549 -1.8669
  790MOL0     H 6633   5.355   2.990   5.358  1.8638  1.0207  1.0387
  790MOL0     H 6634   5.714   3.297   5.425 -1.1552 -2.4444  2.2438
  790MOL0     H 6635   5.965   3.343   5.452 -0.9065  0.1157  0.0311
  790MOL0     H 6636   7.842   3.674   5.569 -0.9516  0.8991 -0.6692
  790MOL0     H 6637   8.076   3.626   5.584 -2.3905 -0.7778 -1.4946
  790MOL0     H 6638   8.372   3.757   5.905  0.1254  2.2626 -0.8156
  790MOL0     H 6639   8.567   3.628   6.027 -0.1384  2.1892  1.1686
  790MOL0     H 6640   8.870   3.818   5.971 -4.5305 -1.1792 -0.8134
  790MOL0     H 6641   8.914   3.698   6.086  3.0258  1.7533 -0.3931
  790MOL0     H 6642   9.103   3.753   5.961  1.6756 -1.1549  0.6823
  790MOL0     H 6643   9.031   3.662   5.823  0.2231 -0.0218 -0.9310
  790MOL0     H 6644   9.060   3.453   5.930  1.7021  0.9790 -1.4044
  790MOL0     H 6645   9.024   3.520   6.094 -2.8331  0.4517 -0.8630
  790MOL0     H 6646   9.257   3.581   5.916 -2.2796  1.1366 -0.4682
  790MOL0     H 6647   9.253   3.424   6.008  0.9063  0.8833 -1.3721
  790MOL0     H 6648   9.366   3.774   6.256  2.5494 -0.7719 -1.5292
  790MOL0     H 6649   8.814   3.733   5.695 -0.0116 -0.2191 -1.7543
  790MOL0     H 6650   8.624   3.848   5.580  0.0823  0.7305  0.0559
  791MOL0     O 6651   9.125   3.783  10.584  0.3964  0.5272 -0.1399
  791MOL0     C 6652   9.160   3.756  10.701 -0.6273 -0.0192 -0.3323
  791MOL0     O 6653   9.069   3.715  10.801 -0.1951  0.2512 -0.0248
  791MOL0     C 6654   8.931   3.702  10.778 -0.5091  0.2455 -0.2531
  791MOL0     C 6655   8.858   3.771  10.677 -0.2509 -0.3645 -0.3727
  791MOL0     C 6656   8.726   3.733  10.664  0.7094  0.7128  0.1891
  791MOL0     C 6657   8.655   3.649  10.748  0.4879  0.5809  0.0170
  791MOL0     O 6658   8.520   3.629  10.716  0.6484  0.2806 -0.0322
  791MOL0     C 6659   8.444   3.543  10.795 -0.0438  0.2873 -0.1392
  791MOL0     C 6660   8.298   3.531  10.749  0.0375  0.2038 -0.0422
  791MOL0     C 6661   8.214   3.664  10.783 -0.7448 -0.1988  0.8104
  791MOL0     C 6662   8.078   3.671  10.707 -0.5981 -0.1688  0.3215
  791MOL0     C 6663   7.963   3.618  10.790 -0.9632  1.2649 -0.3932
  791MOL0     C 6664   7.852   3.578  10.696 -0.6155  0.1167  0.3844
  791MOL0     C 6665   7.724   3.578  10.769  0.0299  0.8734 -0.1057
  791MOL0     C 6666   7.600   3.520  10.687 -0.3854  0.3440  1.0750
  791MOL0     N 6667   7.468   3.536  10.755  0.0581 -0.1348 -0.8137
  791MOL0     C 6668   7.416   3.657  10.803  0.1363  0.8982  0.1469
  791MOL0     C 6669   7.300   3.628  10.869 -0.8907 -0.6212 -0.1132
  791MOL0     C 6670   7.210   3.735  10.925  0.2511  0.7178 -0.4612
  791MOL0     C 6671   7.107   3.661  10.996  0.7225  0.2147  0.5662
  791MOL0     C 6672   7.004   3.761  11.046  0.3612 -0.0780 -1.0228
  791MOL0     C 6673   6.913   3.713  11.153  0.4875 -0.2646 -0.1231
  791MOL0     O 6674   6.814   3.817  11.188 -0.1813 -0.2553 -0.8962
  791MOL0     C 6675   6.681   3.789  11.172 -0.7595 -0.5241  0.0015
  791MOL0     C 6676   6.588   3.822  11.274 -0.5897  0.4548  0.3792
  791MOL0     C 6677   6.456   3.797  11.256  0.8440  0.9556 -0.4553
  791MOL0     C 6678   6.361   3.838  11.375 -0.0163 -0.3346  0.4404
  791MOL0     C 6679   6.408   3.726  11.142  0.6613 -0.3036  0.6763
  791MOL0     C 6680   6.273   3.671  11.119  0.1820 -0.0447  0.5195
  791MOL0     O 6681   6.233   3.615  11.002 -0.4029 -0.6349  0.0649
  791MOL0     C 6682   6.110   3.579  10.959 -0.0894 -1.0012 -0.5915
  791MOL0     C 6683   6.098   3.536  10.830  0.5201  1.5123  0.4274
  791MOL0     C 6684   5.968   3.523  10.768  0.1211 -0.4156 -0.2686
  791MOL0     C 6685   5.859   3.561  10.838  0.5661  0.4390 -0.1451
  791MOL0     O 6686   5.743   3.547  10.762 -0.0110 -0.0623  0.3090
  791MOL0     C 6687   5.666   3.449  10.824  0.0081  0.9011  0.4576
  791MOL0     C 6688   5.532   3.434  10.748 -0.3783  0.8650  0.2293
  791MOL0     C 6689   5.451   3.570  10.759  0.0778 -0.1726  0.2710
  791MOL0     C 6690   5.302   3.545  10.717  0.1109  0.7774 -0.5433
  791MOL0     C 6691   5.218   3.436  10.777  0.3695 -0.2978 -0.3003
  791MOL0     C 6692   5.186   3.473  10.925 -0.4458  0.2011 -0.1480
  791MOL0     C 6693   5.081   3.394  10.992 -0.0108 -0.9449 -0.2737
  791MOL0     C 6694   5.020   3.475  11.106 -0.8050  0.2471  0.1077
  791MOL0    Cl 6695   4.915   3.611  11.053 -0.3983  0.0359 -0.8145
  791MOL0     C 6696   5.862   3.603  10.970 -1.4346 -0.7459 -1.4353
  791MOL0     C 6697   5.993   3.609  11.029 -0.5754  0.2310 -1.1528
  791MOL0     O 6698   6.215   3.652  11.226  0.6834 -0.5446  0.3016
  791MOL0     C 6699   6.501   3.702  11.042 -0.4554 -0.0545 -0.1329
  791MOL0     C 6700   6.630   3.734  11.050 -1.2986 -0.3259 -0.1945
  791MOL0     N 6701   7.298   3.491  10.869  1.1727 -0.4685 -0.2709
  791MOL0     N 6702   7.390   3.436  10.809 -0.1285  0.0547 -0.1033
  791MOL0     C 6703   8.728   3.576  10.847  0.6293  0.6111 -0.1617
  791MOL0     C 6704   8.864   3.609  10.861  0.1060  1.4334  1.3117
  791MOL0     C 6705   9.306   3.756  10.732 -1.0392 -0.1351 -0.1781
  791MOL0     C 6706   9.361   3.695  10.848  0.0096 -0.0131  0.4448
  791MOL0     C 6707   9.496   3.693  10.878  0.1586  0.3202  0.1522
  791MOL0     C 6708   9.586   3.739  10.780 -0.3718 -0.7765 -0.2314
  791MOL0     O 6709   9.723   3.719  10.792  0.6627  0.1164 -0.3684
  791MOL0     C 6710   9.775   3.633  10.891 -0.1636  0.1286  1.0057
  791MOL0     C 6711   9.930   3.625  10.886  0.1520 -0.0400  0.5771
  791MOL0     C 6712   9.988   3.569  11.020 -0.2308 -0.3430  1.0348
  791MOL0     C 6713  10.136   3.511  11.003 -0.4476  0.0918 -0.2288
  791MOL0     C 6714  10.230   3.616  10.958 -0.0230  0.5395  0.4605
  791MOL0     C 6715  10.301   3.714  10.947  0.4271 -0.6636  0.2728
  791MOL0     C 6716   9.539   3.812  10.666  0.2450 -0.1353  0.6159
  791MOL0     C 6717   9.399   3.826  10.648 -0.3809 -0.1367 -0.4795
  791MOL0     H 6718   8.906   3.854  10.626  2.2894 -0.5812  1.4761
  791MOL0     H 6719   8.660   3.785  10.595  2.3847  2.4582 -0.1594
  791MOL0     H 6720   8.480   3.441  10.809  1.0563  0.4624 -1.5798
  791MOL0     H 6721   8.434   3.582  10.897 -2.5176 -0.6674  0.0599
  791MOL0     H 6722   8.295   3.501  10.643  1.5334  0.2679 -0.1306
  791MOL0     H 6723   8.243   3.449  10.796 -3.0224  1.3093 -1.4505
  791MOL0     H 6724   8.190   3.669  10.890  0.1240  0.6397  0.9826
  791MOL0     H 6725   8.265   3.753  10.747 -1.6825 -0.3946 -1.1268
  791MOL0     H 6726   8.070   3.780  10.696  1.6491  0.0237  0.0719
  791MOL0     H 6727   8.099   3.629  10.608  0.8551  3.2902 -0.9983
  791MOL0     H 6728   7.994   3.527  10.842 -1.6271  1.9856  1.3328
  791MOL0     H 6729   7.931   3.698  10.856  0.7339  2.8056 -1.3569
  791MOL0     H 6730   7.841   3.647  10.612 -0.6509  0.4033  0.6287
  791MOL0     H 6731   7.874   3.474  10.666 -0.2992  0.5201 -0.8441
  791MOL0     H 6732   7.730   3.513  10.858 -0.0290  1.1441  0.0955
  791MOL0     H 6733   7.708   3.678  10.810  1.1869  0.0910  2.5329
  791MOL0     H 6734   7.620   3.416  10.661  0.6452  0.7455  0.1322
  791MOL0     H 6735   7.603   3.578  10.594  2.4347 -0.8919  0.2837
  791MOL0     H 6736   7.457   3.751  10.767 -0.4370  0.5930 -1.3455
  791MOL0     H 6737   7.269   3.808  10.981  0.1963 -1.3857  2.5978
  791MOL0     H 6738   7.172   3.790  10.839  2.3031 -2.6860 -3.8453
  791MOL0     H 6739   7.156   3.606  11.076  2.0306  2.8215  1.6686
  791MOL0     H 6740   7.061   3.599  10.918  0.1141  1.9356 -0.5014
  791MOL0     H 6741   6.942   3.798  10.964  0.1619  1.3309 -0.2670
  791MOL0     H 6742   7.044   3.859  11.075 -0.5489 -0.2814  1.0952
  791MOL0     H 6743   6.972   3.685  11.240  2.5918 -1.4241 -1.8173
  791MOL0     H 6744   6.862   3.624  11.112 -1.7933  2.5274 -4.0797
  791MOL0     H 6745   6.623   3.851  11.373 -1.5077 -2.7563  1.7665
  791MOL0     H 6746   6.339   3.761  11.449  0.5495 -2.8579 -1.8373
  791MOL0     H 6747   6.398   3.930  11.422 -2.8911  2.1181 -1.6669
  791MOL0     H 6748   6.267   3.874  11.332  0.9372  2.9212  0.7867
  791MOL0     H 6749   6.190   3.501  10.784 -0.0816 -1.7542  1.4174
  791MOL0     H 6750   5.952   3.474  10.673  0.2532  0.9153 -0.9913
  791MOL0     H 6751   5.709   3.349  10.814 -0.5365  0.7534 -0.5798
  791MOL0     H 6752   5.652   3.466  10.931 -1.9777  4.7317 -0.2571
  791MOL0     H 6753   5.554   3.403  10.646 -2.0327 -2.9361  0.8539
  791MOL0     H 6754   5.471   3.355  10.792  1.3821  0.1080  1.4181
  791MOL0     H 6755   5.490   3.643  10.688  0.1584  0.7790  1.2566
  791MOL0     H 6756   5.464   3.610  10.860 -0.7501 -1.5198  0.9431
  791MOL0     H 6757   5.246   3.637  10.738 -3.2243 -1.3169  0.4589
  791MOL0     H 6758   5.308   3.535  10.608 -1.4390  1.2875 -0.7040
  791MOL0     H 6759   5.267   3.339  10.768 -0.8821 -1.1018  0.9157
  791MOL0     H 6760   5.115   3.438  10.739  0.4439  2.9203 -0.5787
  791MOL0     H 6761   5.274   3.471  10.991 -0.2677 -0.8608 -0.3910
  791MOL0     H 6762   5.167   3.581  10.925  0.8054  0.4456 -0.4233
  791MOL0     H 6763   5.140   3.307  11.020  1.0510 -0.2518 -0.3053
  791MOL0     H 6764   5.007   3.359  10.919 -0.4641 -2.3748  0.8151
  791MOL0     H 6765   5.094   3.529  11.166  0.5644 -1.4923  0.0799
  791MOL0     H 6766   4.983   3.396  11.172  2.3333 -2.2592 -0.8429
  791MOL0     H 6767   5.782   3.634  11.036  1.2106  0.1063  1.6520
  791MOL0     H 6768   5.996   3.642  11.132  1.1227 -0.4361 -0.9600
  791MOL0     H 6769   6.476   3.650  10.950  0.0425 -0.1080 -0.2362
  791MOL0     H 6770   6.703   3.709  10.975  1.8118  2.3241  1.7121
  791MOL0     H 6771   8.679   3.505  10.913 -1.0019  2.0935  0.3032
  791MOL0     H 6772   8.913   3.557  10.943 -2.2305  0.3513  2.1060
  791MOL0     H 6773   9.296   3.647  10.920 -0.5701 -0.9201 -0.6483
  791MOL0     H 6774   9.533   3.638  10.964  1.3508 -0.0193 -0.5416
  791MOL0     H 6775   9.754   3.678  10.989  1.0396  1.2460  0.7675
  791MOL0     H 6776   9.734   3.531  10.889  1.4237 -0.5092 -0.3266
  791MOL0     H 6777   9.959   3.730  10.876  1.1109 -0.1985  1.5403
  791MOL0     H 6778   9.964   3.557  10.807 -2.2969 -2.4184  1.4343
  791MOL0     H 6779   9.911   3.495  11.045  0.8126 -1.7507  0.2054
  791MOL0     H 6780   9.992   3.655  11.088 -1.0656  2.7889 -2.5165
  791MOL0     H 6781  10.155   3.437  10.925  1.8484 -1.0551  1.3055
  791MOL0     H 6782  10.178   3.468  11.095 -0.1878  0.7547 -0.0251
  791MOL0     H 6783  10.389   3.774  10.934  0.4481 -0.8331 -0.4028
  791MOL0     H 6784   9.612   3.843  10.592  1.3244 -1.6820  0.9701
  791MOL0     H 6785   9.371   3.880  10.558  3.7904  3.7454  0.2050
  792MOL0     O 6786   9.367  10.614   5.922  0.0405  0.0967  0.8881
  792MOL0     C 6787   9.453  10.532   5.954 -1.1598 -0.8558 -0.8421
  792MOL0     O 6788   9.479  10.481   6.079 -0.2798 -0.1322 -0.5193
  792MOL0     C 6789   9.398  10.523   6.184 -0.1113 -0.7307  0.0498
  792MOL0     C 6790   9.396  10.658   6.211  0.9431  0.6068 -0.3236
  792MOL0     C 6791   9.314  10.713   6.313 -1.2612  0.1330  0.3518
  792MOL0     C 6792   9.233  10.629   6.395  0.7586 -0.7549 -0.1091
  792MOL0     O 6793   9.138  10.680   6.475 -0.5773  0.3154  0.0223
  792MOL0     C 6794   9.043  10.587   6.524  0.3314 -1.0765 -0.8131
  792MOL0     C 6795   8.938  10.658   6.606  0.2327  0.1188 -0.4093
  792MOL0     C 6796   8.989  10.709   6.735  0.5559  0.0706  0.0094
  792MOL0     C 6797   9.022  10.853   6.748  0.1022 -0.0334 -0.2383
  792MOL0     C 6798   9.014  10.917   6.891  0.7367  0.8587 -0.1361
  792MOL0     C 6799   9.090  10.828   6.991  0.5836 -0.3041 -0.6483
  792MOL0     C 6800   9.099  10.884   7.136  0.8655  0.4531 -0.4624
  792MOL0     C 6801   9.162  10.774   7.226  0.6809 -0.1920 -0.0800
  792MOL0     N 6802   9.157  10.824   7.363 -0.4884  0.1381 -0.2237
  792MOL0     C 6803   9.207  10.940   7.403 -0.7351  0.6562  0.5361
  792MOL0     C 6804   9.191  10.946   7.538 -0.6158 -0.1511  0.2547
  792MOL0     C 6805   9.220  11.054   7.638 -0.0485  1.2699 -0.6735
  792MOL0     C 6806   9.097  11.083   7.728  0.4748  0.3959 -0.1481
  792MOL0     C 6807   9.116  11.225   7.793  0.2636  0.5295  0.1752
  792MOL0     C 6808   9.018  11.247   7.902 -0.4249 -0.0606 -0.2839
  792MOL0     O 6809   9.044  11.362   7.979  0.2991 -0.3822  0.5309
  792MOL0     C 6810   8.944  11.420   8.052 -0.1613 -0.1077  0.5464
  792MOL0     C 6811   8.951  11.557   8.090  0.3537 -0.0107  0.4720
  792MOL0     C 6812   8.845  11.613   8.156 -0.1020 -0.1813  1.0923
  792MOL0     C 6813   8.851  11.764   8.177  0.5485  0.5681  0.3790
  792MOL0     C 6814   8.728  11.544   8.197  0.1555  0.8000  0.1511
  792MOL0     C 6815   8.615  11.605   8.264  0.0927 -0.3601  0.6575
  792MOL0     O 6816   8.541  11.698   8.192  0.6951 -0.2506  0.9191
  792MOL0     C 6817   8.452  11.785   8.247 -0.2732  0.2216 -0.6372
  792MOL0     C 6818   8.312  11.783   8.223  0.0424 -0.0364 -0.3229
  792MOL0     C 6819   8.223  11.871   8.308 -1.0598  0.5149  0.2299
  792MOL0     C 6820   8.271  11.956   8.415 -0.0042  0.3785  0.1054
  792MOL0     O 6821   8.186  12.011   8.503 -0.1995 -0.1508 -0.2207
  792MOL0     C 6822   8.147  12.139   8.459 -0.0794  0.8713 -0.1247
  792MOL0     C 6823   8.022  12.188   8.533  0.8254 -0.2955  0.4909
  792MOL0     C 6824   7.891  12.112   8.509 -0.3701 -0.8578  0.2002
  792MOL0     C 6825   7.776  12.156   8.600  1.1604 -0.8585 -0.5938
  792MOL0     C 6826   7.641  12.082   8.561 -0.9990 -0.6079  0.3012
  792MOL0     C 6827   7.524  12.150   8.636 -0.7468 -0.2569  0.5706
  792MOL0     C 6828   7.411  12.054   8.635 -0.0392 -0.2362  0.5828
  792MOL0     C 6829   7.282  12.093   8.703  0.3536  0.4200  0.1959
  792MOL0    Cl 6830   7.316  12.062   8.883 -0.1608  0.1308 -0.2832
  792MOL0     C 6831   8.406  11.954   8.425 -0.1460 -0.4078  0.9680
  792MOL0     C 6832   8.494  11.883   8.347 -0.2329  0.3608 -0.3135
  792MOL0     O 6833   8.587  11.553   8.371  0.0107  0.1798  0.0855
  792MOL0     C 6834   8.723  11.402   8.161  0.4844 -0.3678  0.3240
  792MOL0     C 6835   8.827  11.345   8.087  0.7244 -0.7677 -0.8814
  792MOL0     N 6836   9.130  10.831   7.570  0.0513  0.7294  0.5719
  792MOL0     N 6837   9.109  10.750   7.472  1.0227 -0.3297 -0.0653
  792MOL0     C 6838   9.252  10.489   6.378 -0.6561  0.3487  0.2091
  792MOL0     C 6839   9.329  10.433   6.273  0.0700 -0.4759  0.0170
  792MOL0     C 6840   9.542  10.476   5.846 -1.3579 -0.1384 -0.2290
  792MOL0     C 6841   9.562  10.545   5.725 -0.1149 -0.0408 -1.1556
  792MOL0     C 6842   9.645  10.493   5.625 -0.2761 -0.1485 -0.4031
  792MOL0     C 6843   9.721  10.385   5.643 -0.0210 -0.8447 -0.6521
  792MOL0     O 6844   9.797  10.343   5.536 -0.3747  0.2414  0.3595
  792MOL0     C 6845   9.877  10.222   5.538  0.0714 -0.3404 -0.1853
  792MOL0     C 6846   9.967  10.227   5.413 -0.1824 -0.7701  0.2671
  792MOL0     C 6847  10.056  10.354   5.425 -0.0237 -0.8216  0.5509
  792MOL0     C 6848  10.130  10.387   5.287 -0.1836  0.4207 -1.0879
  792MOL0     C 6849  10.263  10.327   5.283 -0.5215  0.9432  0.2125
  792MOL0     C 6850  10.371  10.274   5.285 -0.0777 -0.7350 -0.5512
  792MOL0     C 6851   9.700  10.314   5.757  0.4129  1.3582  1.0459
  792MOL0     C 6852   9.619  10.357   5.861  0.7127  0.8367  0.7145
  792MOL0     H 6853   9.447  10.727   6.145 -0.7070  1.1222 -1.1244
  792MOL0     H 6854   9.310  10.817   6.345  1.9374  1.1905 -2.1097
  792MOL0     H 6855   8.994  10.526   6.446 -0.9436 -2.7156  1.1630
  792MOL0     H 6856   9.097  10.524   6.595 -0.1459 -1.5868 -0.8929
  792MOL0     H 6857   8.875  10.721   6.543 -0.2951  0.0182  0.0146
  792MOL0     H 6858   8.878  10.571   6.633 -0.1069  0.4473 -0.0991
  792MOL0     H 6859   8.918  10.690   6.816  1.6418  0.4908  1.0894
  792MOL0     H 6860   9.076  10.653   6.771 -0.8538 -0.5837  2.6575
  792MOL0     H 6861   9.126  10.861   6.715  0.6630 -0.1341  1.3892
  792MOL0     H 6862   8.950  10.907   6.687 -1.5786 -0.4462  1.2986
  792MOL0     H 6863   9.059  11.015   6.871 -0.5457  1.1215 -2.1147
  792MOL0     H 6864   8.906  10.921   6.910  0.5723 -0.8224 -0.6233
  792MOL0     H 6865   9.055  10.724   6.992  1.1699 -0.5943  2.7414
  792MOL0     H 6866   9.193  10.819   6.955  0.5403  2.7464 -1.7990
  792MOL0     H 6867   9.156  10.977   7.129  5.2609 -1.5144  3.6774
  792MOL0     H 6868   8.993  10.893   7.162 -0.2265 -2.5264 -3.2502
  792MOL0     H 6869   9.267  10.762   7.199  0.4523  0.0455 -1.1069
  792MOL0     H 6870   9.111  10.678   7.217 -2.1798  1.0507  1.4838
  792MOL0     H 6871   9.248  11.017   7.338 -0.5095 -1.0854 -1.4467
  792MOL0     H 6872   9.306  11.043   7.705 -0.8188 -1.8030 -0.0519
  792MOL0     H 6873   9.246  11.148   7.589  0.6421  0.7978 -1.2331
  792MOL0     H 6874   9.102  11.005   7.804 -2.3247  0.6110  0.3622
  792MOL0     H 6875   9.006  11.083   7.668  0.8014 -0.0262 -0.6613
  792MOL0     H 6876   9.096  11.298   7.714  2.1708  0.7179 -0.1771
  792MOL0     H 6877   9.218  11.238   7.828 -0.2572  0.0629  1.9746
  792MOL0     H 6878   9.014  11.160   7.968 -1.6771  1.3613  1.6317
  792MOL0     H 6879   8.923  11.257   7.849  0.1092  0.6921 -1.1157
  792MOL0     H 6880   9.042  11.616   8.076  0.2165  0.1005  0.0319
  792MOL0     H 6881   8.768  11.807   8.119 -1.1813 -0.6523  1.8192
  792MOL0     H 6882   8.851  11.803   8.279 -1.7188  1.7357  0.0188
  792MOL0     H 6883   8.949  11.791   8.137  1.1000  0.8337  1.8654
  792MOL0     H 6884   8.277  11.708   8.153  2.1382 -2.1959  0.7770
  792MOL0     H 6885   8.117  11.867   8.283 -0.5407 -0.4100 -2.0494
  792MOL0     H 6886   8.224  12.211   8.486  0.8749 -0.1906  0.0832
  792MOL0     H 6887   8.131  12.133   8.351  1.4732  2.6627 -0.4974
  792MOL0     H 6888   8.054  12.196   8.638  0.7115 -0.5857  0.5482
  792MOL0     H 6889   8.006  12.287   8.490  2.4243 -1.1780 -2.3859
  792MOL0     H 6890   7.917  12.008   8.530  0.3205 -0.3792  1.9119
  792MOL0     H 6891   7.871  12.126   8.403 -2.0598 -1.9413  0.3517
  792MOL0     H 6892   7.804  12.137   8.704 -0.0565  1.4403  0.2442
  792MOL0     H 6893   7.757  12.264   8.597  1.7454 -0.6412  1.7568
  792MOL0     H 6894   7.642  11.974   8.580  0.3027 -0.7984 -0.7365
  792MOL0     H 6895   7.613  12.089   8.456 -1.6967 -1.0965  0.4435
  792MOL0     H 6896   7.551  12.175   8.739  1.7579 -1.4173  0.2496
  792MOL0     H 6897   7.499  12.232   8.569 -1.1898  0.0523  1.1075
  792MOL0     H 6898   7.433  11.954   8.674 -2.4967 -0.5611  1.2797
  792MOL0     H 6899   7.387  12.038   8.530  0.8187  0.5226  0.2570
  792MOL0     H 6900   7.191  12.034   8.689  1.5600 -1.6031  0.5985
  792MOL0     H 6901   7.263  12.200   8.688  1.5914  0.5052 -0.8667
  792MOL0     H 6902   8.462  12.013   8.496 -1.2980  2.0088 -0.0276
  792MOL0     H 6903   8.597  11.914   8.363  0.4337 -2.9773  3.1044
  792MOL0     H 6904   8.640  11.334   8.178 -1.4255  1.4595 -1.2438
  792MOL0     H 6905   8.807  11.242   8.061 -0.6328 -0.5830 -0.6401
  792MOL0     H 6906   9.205  10.412   6.438 -4.1536  2.6122  0.6697
  792MOL0     H 6907   9.336  10.328   6.246  1.0335  0.1912 -2.5760
  792MOL0     H 6908   9.515  10.641   5.704 -0.9488 -0.0776  0.4097
  792MOL0     H 6909   9.639  10.555   5.536 -0.0594  2.3501  1.2524
  792MOL0     H 6910   9.943  10.228   5.625  0.6167  0.5659 -0.6372
  792MOL0     H 6911   9.811  10.135   5.531 -0.0412 -0.1741 -1.5145
  792MOL0     H 6912   9.895  10.244   5.333 -0.9036 -0.8064  0.8920
  792MOL0     H 6913  10.024  10.135   5.422  0.0386 -0.7718 -1.0013
  792MOL0     H 6914  10.129  10.337   5.504  0.0797  0.3398  0.7173
  792MOL0     H 6915  10.001  10.443   5.457  1.5038  0.4385 -0.2299
  792MOL0     H 6916  10.142  10.492   5.258 -0.3991  0.9831  0.7665
  792MOL0     H 6917  10.080  10.334   5.205 -1.6562 -1.1294  0.7270
  792MOL0     H 6918  10.465  10.224   5.297  0.2279  0.3190  2.0596
  792MOL0     H 6919   9.751  10.219   5.770 -0.7639  0.4436 -0.5747
  792MOL0     H 6920   9.603  10.292   5.947  0.0125 -0.4259 -0.3403
  793MOL0     O 6921   7.450   5.654   4.377  0.8302  0.0291 -0.0413
  793MOL0     C 6922   7.464   5.545   4.431 -0.3529  0.6624  0.7443
  793MOL0     O 6923   7.414   5.512   4.555 -0.4775 -0.8293  0.2509
  793MOL0     C 6924   7.338   5.603   4.617  0.2162 -0.3330 -0.4687
  793MOL0     C 6925   7.219   5.563   4.662  0.8540 -0.3923 -0.1269
  793MOL0     C 6926   7.138   5.648   4.731 -0.7769  0.2202  0.1110
  793MOL0     C 6927   7.184   5.776   4.760 -1.1010 -0.5741 -0.3839
  793MOL0     O 6928   7.097   5.861   4.831 -0.4196  0.6057  1.0199
  793MOL0     C 6929   7.074   5.992   4.768  0.0908 -0.7550  1.3881
  793MOL0     C 6930   6.955   5.987   4.672  0.1787 -0.0153  0.5125
  793MOL0     C 6931   6.820   5.954   4.729  0.5238 -0.7597 -0.0821
  793MOL0     C 6932   6.729   6.074   4.764 -0.7662 -0.0956  0.4861
  793MOL0     C 6933   6.581   6.027   4.778 -1.2896 -0.3667 -0.1063
  793MOL0     C 6934   6.530   5.981   4.640 -0.4087 -0.4222  0.5713
  793MOL0     C 6935   6.376   5.984   4.611 -0.1715  0.0841 -0.0677
  793MOL0     C 6936   6.345   5.942   4.467 -0.5103  0.5429 -0.2960
  793MOL0     N 6937   6.203   5.904   4.453  0.3368 -0.1073  0.0990
  793MOL0     C 6938   6.090   5.958   4.502  0.0248 -1.5665 -0.3726
  793MOL0     C 6939   5.978   5.892   4.468 -1.1811  0.1678 -0.0506
  793MOL0     C 6940   5.835   5.917   4.502  0.1130 -0.0650  0.1861
  793MOL0     C 6941   5.772   6.015   4.396  0.5731  0.3034  0.3507
  793MOL0     C 6942   5.811   6.154   4.412 -1.0151 -0.5560 -0.3332
  793MOL0     C 6943   5.758   6.249   4.302  0.8302  0.2011 -0.6947
  793MOL0     O 6944   5.778   6.383   4.335  0.0985 -0.5791  0.3718
  793MOL0     C 6945   5.900   6.438   4.281  0.3981 -0.4492 -0.1591
  793MOL0     C 6946   5.920   6.442   4.143 -0.2050  0.2143  0.1231
  793MOL0     C 6947   6.049   6.462   4.088  0.1950 -0.3389 -0.2121
  793MOL0     C 6948   6.049   6.467   3.935 -0.4135  0.5687  0.3056
  793MOL0     C 6949   6.162   6.485   4.168  0.4275  0.2258 -0.5613
  793MOL0     C 6950   6.301   6.520   4.134 -0.7850  0.4112  0.0367
  793MOL0     O 6951   6.391   6.529   4.229  0.0084 -0.0960 -0.0234
  793MOL0     C 6952   6.520   6.572   4.195  0.7966 -0.3291  0.5471
  793MOL0     C 6953   6.588   6.529   4.083  0.4409  1.6043  0.0004
  793MOL0     C 6954   6.715   6.576   4.057 -0.4129 -0.3728 -0.4017
  793MOL0     C 6955   6.781   6.663   4.145 -0.6626 -0.2932 -0.4157
  793MOL0     O 6956   6.906   6.722   4.121  0.8856  0.5381  0.3733
  793MOL0     C 6957   6.985   6.693   4.005  0.2003 -0.4817  0.0157
  793MOL0     C 6958   7.082   6.807   4.004 -0.5064  0.3435 -0.2475
  793MOL0     C 6959   7.202   6.779   4.106  0.0792  0.4653 -0.9314
  793MOL0     C 6960   7.307   6.893   4.110 -0.2073  0.5376  1.1574
  793MOL0     C 6961   7.437   6.842   4.059  0.2160 -0.3596  0.3403
  793MOL0     C 6962   7.531   6.956   4.037 -0.1545  0.4595  1.8712
  793MOL0     C 6963   7.670   6.892   4.009 -1.5610  0.5309  0.6487
  793MOL0     C 6964   7.735   6.959   3.886 -0.0983  0.3928  0.8049
  793MOL0    Cl 6965   7.679   6.881   3.737 -0.3517  0.2126 -0.1347
  793MOL0     C 6966   6.707   6.706   4.258 -0.4757  0.0068  0.6202
  793MOL0     C 6967   6.579   6.658   4.284  0.0316  0.4551  0.6343
  793MOL0     O 6968   6.322   6.535   4.010  0.2661  0.0331  0.2788
  793MOL0     C 6969   6.138   6.490   4.311  0.3778  0.5259 -0.1337
  793MOL0     C 6970   6.010   6.465   4.359 -0.2284  0.4755 -0.5280
  793MOL0     N 6971   6.031   5.790   4.378  0.6429 -1.4105  0.0324
  793MOL0     N 6972   6.161   5.801   4.375 -0.8221 -0.3031  0.6463
  793MOL0     C 6973   7.311   5.817   4.716 -0.1793 -0.3671 -0.5724
  793MOL0     C 6974   7.379   5.735   4.636  0.0114  0.4659  0.6217
  793MOL0     C 6975   7.552   5.442   4.368  0.3175 -0.5759 -0.0984
  793MOL0     C 6976   7.596   5.448   4.235 -0.4284 -0.6737 -0.2955
  793MOL0     C 6977   7.654   5.333   4.172  0.2375  0.1574 -0.0550
  793MOL0     C 6978   7.679   5.220   4.244  0.2451  0.6823  1.1699
  793MOL0     O 6979   7.738   5.128   4.168 -0.9882  0.2466 -0.4308
  793MOL0     C 6980   7.751   4.993   4.223 -0.9307 -0.1340  0.5795
  793MOL0     C 6981   7.834   4.897   4.126 -0.6264  0.4853 -0.4586
  793MOL0     C 6982   7.910   4.798   4.207  0.1766 -0.2524 -1.1764
  793MOL0     C 6983   8.007   4.712   4.111  0.1572  0.4744 -0.0805
  793MOL0     C 6984   8.107   4.780   4.035  0.0794  0.0488 -0.1170
  793MOL0     C 6985   8.176   4.850   3.968  0.3549 -0.2320  0.7019
  793MOL0     C 6986   7.624   5.206   4.370  0.3207 -0.5281 -0.2753
  793MOL0     C 6987   7.555   5.314   4.436  0.5111 -0.2673  0.1383
  793MOL0     H 6988   7.183   5.464   4.640  0.3387  0.6426 -5.2643
  793MOL0     H 6989   7.048   5.607   4.776 -1.2924  2.2567  1.0506
  793MOL0     H 6990   7.048   6.066   4.844 -0.0930  1.4480 -0.7113
  793MOL0     H 6991   7.167   6.022   4.718  0.6269 -2.2785  1.4082
  793MOL0     H 6992   6.952   6.083   4.619  1.9565  0.8884  1.9054
  793MOL0     H 6993   6.969   5.901   4.606  0.1952 -0.2991  0.8804
  793MOL0     H 6994   6.766   5.896   4.654 -1.2494 -0.2429  0.7553
  793MOL0     H 6995   6.826   5.887   4.816 -1.5008  1.1174  1.6156
  793MOL0     H 6996   6.774   6.123   4.851 -0.8868 -1.5549  1.4060
  793MOL0     H 6997   6.751   6.151   4.690 -2.4314 -0.5677 -0.5392
  793MOL0     H 6998   6.571   5.947   4.852  3.2808 -1.9955 -0.8568
  793MOL0     H 6999   6.526   6.117   4.805  1.2148  2.1372 -2.5391
  793MOL0     H 7000   6.576   6.054   4.572 -2.9873  2.2165  1.4303
  793MOL0     H 7001   6.564   5.879   4.620 -0.3285 -0.6087  1.6097
  793MOL0     H 7002   6.325   5.924   4.687 -0.0042 -1.1073 -0.8694
  793MOL0     H 7003   6.350   6.090   4.618 -2.4373 -0.3351 -1.2330
  793MOL0     H 7004   6.417   5.868   4.433  3.0349  2.2668  2.7460
  793MOL0     H 7005   6.341   6.026   4.397  0.8486  1.0933  0.2633
  793MOL0     H 7006   6.093   6.043   4.570 -0.8741 -0.9709 -1.0458
  793MOL0     H 7007   5.777   5.824   4.506 -2.6565  1.5775  2.3516
  793MOL0     H 7008   5.828   5.963   4.601 -1.2341 -0.7589  0.4325
  793MOL0     H 7009   5.663   6.004   4.391  0.6580 -0.2518 -0.3159
  793MOL0     H 7010   5.794   5.977   4.296 -1.8792 -0.7398  0.1440
  793MOL0     H 7011   5.920   6.147   4.411 -0.9743 -0.2750  0.9564
  793MOL0     H 7012   5.773   6.201   4.502  0.1536  1.5661 -0.8780
  793MOL0     H 7013   5.650   6.234   4.292  0.2294  1.2092  2.7575
  793MOL0     H 7014   5.805   6.234   4.205 -0.0812  1.8897 -1.4402
  793MOL0     H 7015   5.835   6.415   4.080  1.3633 -2.2199 -1.0923
  793MOL0     H 7016   6.059   6.568   3.894  1.8032  0.8690  1.4563
  793MOL0     H 7017   6.140   6.419   3.900 -0.3987 -1.2107  2.5612
  793MOL0     H 7018   5.962   6.422   3.887  1.1996 -1.3387 -1.0066
  793MOL0     H 7019   6.548   6.458   4.011  1.8708 -0.5743  1.2520
  793MOL0     H 7020   6.759   6.544   3.964 -0.5489 -1.2449 -0.1802
  793MOL0     H 7021   7.047   6.603   4.012  2.7185  1.1290  0.1013
  793MOL0     H 7022   6.928   6.699   3.912  0.6202 -0.9853 -0.2807
  793MOL0     H 7023   7.132   6.808   3.906  0.7441 -1.8817  0.2953
  793MOL0     H 7024   7.041   6.907   4.024  1.4334  1.3864 -1.1413
  793MOL0     H 7025   7.242   6.683   4.076  2.8921  1.7951 -1.7233
  793MOL0     H 7026   7.152   6.771   4.203 -2.2990  1.3949 -1.9959
  793MOL0     H 7027   7.262   6.980   4.062 -0.4677  0.1114  0.6253
  793MOL0     H 7028   7.319   6.922   4.215  2.2987  0.0926  1.0663
  793MOL0     H 7029   7.427   6.795   3.961  1.2206  0.8318 -0.3672
  793MOL0     H 7030   7.469   6.777   4.141  0.7087  2.5630  2.6725
  793MOL0     H 7031   7.495   7.009   3.948  3.8121 -0.3313 -0.4424
  793MOL0     H 7032   7.535   7.027   4.121 -1.9372 -0.8304  3.1127
  793MOL0     H 7033   7.673   6.786   3.985 -2.9820  0.9900 -1.9712
  793MOL0     H 7034   7.732   6.905   4.098  0.5162 -1.4013 -0.4221
  793MOL0     H 7035   7.844   6.958   3.895  0.0536  2.3420 -0.1763
  793MOL0     H 7036   7.698   7.062   3.880 -1.9027 -0.1683  1.5688
  793MOL0     H 7037   6.749   6.783   4.321 -2.6636 -0.3928  2.6976
  793MOL0     H 7038   6.534   6.687   4.378  0.6170 -2.4849  1.9285
  793MOL0     H 7039   6.222   6.508   4.378 -0.9016  0.3690  1.5925
  793MOL0     H 7040   6.021   6.468   4.467  2.9807  1.0086 -0.7671
  793MOL0     H 7041   7.336   5.918   4.747 -3.7526 -0.2187  2.5731
  793MOL0     H 7042   7.472   5.763   4.589 -0.6702 -0.5499 -1.4565
  793MOL0     H 7043   7.588   5.535   4.171  2.2681  0.1941  0.4259
  793MOL0     H 7044   7.685   5.345   4.069 -0.8270  2.1247 -0.2112
  793MOL0     H 7045   7.799   4.995   4.321 -1.6474 -0.0793  0.9388
  793MOL0     H 7046   7.652   4.950   4.242 -0.9813 -1.0433 -1.4935
  793MOL0     H 7047   7.904   4.963   4.075 -0.9680  1.5700  0.4210
  793MOL0     H 7048   7.772   4.839   4.057  1.8392 -0.6777 -1.8064
  793MOL0     H 7049   7.842   4.729   4.259 -0.6716  0.7265 -0.9575
  793MOL0     H 7050   7.977   4.842   4.282  0.8875 -4.9344  1.3373
  793MOL0     H 7051   7.947   4.661   4.035 -0.6304  0.5888  0.4554
  793MOL0     H 7052   8.063   4.642   4.173 -0.9894  0.1828  0.6564
  793MOL0     H 7053   8.237   4.913   3.906 -0.2269 -0.0933  0.2559
  793MOL0     H 7054   7.612   5.110   4.420 -2.5138 -0.0500  0.1456
  793MOL0     H 7055   7.507   5.296   4.532 -2.3417 -0.5089 -1.2151
  794MOL0     O 7056   6.847   7.239   5.388 -0.2614  0.1523  0.3647
  794MOL0     C 7057   6.776   7.149   5.415  0.3017 -0.0085  0.7056
  794MOL0     O 7058   6.810   7.041   5.492  0.6631  0.4584 -0.1867
  794MOL0     C 7059   6.936   7.034   5.547  0.0340 -0.2381  0.0285
  794MOL0     C 7060   6.981   7.129   5.641  0.4784 -0.0908  0.2905
  794MOL0     C 7061   7.102   7.118   5.701  0.1578 -1.3139 -0.0674
  794MOL0     C 7062   7.168   7.002   5.704 -0.0234  0.8009  0.0542
  794MOL0     O 7063   7.287   6.992   5.785  0.6239  0.6725 -0.0563
  794MOL0     C 7064   7.353   6.866   5.815 -0.3977  0.4449 -0.0681
  794MOL0     C 7065   7.432   6.861   5.955 -0.1039  0.3283 -0.1212
  794MOL0     C 7066   7.541   6.964   5.969  0.0398 -0.7706 -0.5851
  794MOL0     C 7067   7.642   6.958   5.861 -0.3061 -0.2950 -1.0518
  794MOL0     C 7068   7.780   7.030   5.899  0.6484  0.6890 -0.1037
  794MOL0     C 7069   7.750   7.186   5.921 -0.1157 -0.4233  0.9189
  794MOL0     C 7070   7.857   7.243   6.016  0.8481  0.0909 -0.8287
  794MOL0     C 7071   7.867   7.395   6.030  0.4717  0.4177  0.3556
  794MOL0     N 7072   7.974   7.453   6.115 -0.6900  0.6775  0.2120
  794MOL0     C 7073   8.114   7.454   6.089 -0.5424 -0.1017 -1.0694
  794MOL0     C 7074   8.163   7.495   6.209  0.3212  0.2754  0.2155
  794MOL0     C 7075   8.307   7.514   6.236  0.1999 -0.0371  0.2215
  794MOL0     C 7076   8.389   7.567   6.116 -0.1525 -0.2724 -0.1693
  794MOL0     C 7077   8.539   7.552   6.113  0.0229  1.2018  0.1968
  794MOL0     C 7078   8.597   7.597   5.976  0.0997 -0.1197  0.4300
  794MOL0     O 7079   8.737   7.560   5.984  0.4666 -0.2048 -0.5438
  794MOL0     C 7080   8.812   7.544   5.872  0.3885  0.0159  0.4596
  794MOL0     C 7081   8.774   7.545   5.740 -0.9815 -1.1419  0.1117
  794MOL0     C 7082   8.859   7.534   5.622 -0.4610 -0.4314 -0.2607
  794MOL0     C 7083   8.798   7.547   5.479  0.2839  0.0001 -0.8062
  794MOL0     C 7084   8.994   7.528   5.654 -0.1332 -1.0973 -0.0401
  794MOL0     C 7085   9.096   7.548   5.552  0.4413  0.0350  0.2425
  794MOL0     O 7086   9.217   7.490   5.576  0.3955  0.0002 -0.4407
  794MOL0     C 7087   9.330   7.523   5.505 -0.3994  0.5286  0.8155
  794MOL0     C 7088   9.350   7.643   5.431  0.4076  0.1408 -0.5756
  794MOL0     C 7089   9.470   7.676   5.381  0.5379 -0.4615  0.4082
  794MOL0     C 7090   9.587   7.602   5.394  0.3001 -0.4590  0.4232
  794MOL0     O 7091   9.713   7.638   5.351 -0.3632 -0.3941  0.1973
  794MOL0     C 7092   9.710   7.662   5.215 -0.6104 -0.3583  0.6724
  794MOL0     C 7093   9.838   7.730   5.185 -0.5879  1.2263  0.0661
  794MOL0     C 7094   9.964   7.650   5.205  0.1671 -0.5559  0.0912
  794MOL0     C 7095  10.089   7.739   5.202  0.6989  0.0993  0.6644
  794MOL0     C 7096  10.219   7.660   5.236 -0.6948  0.0514  0.3343
  794MOL0     C 7097  10.335   7.753   5.268 -0.2228 -0.1189 -0.0264
  794MOL0     C 7098  10.461   7.664   5.304  0.3727 -1.0461 -0.3137
  794MOL0     C 7099  10.572   7.754   5.337 -0.0345 -0.3246 -0.1261
  794MOL0    Cl 7100  10.729   7.671   5.333  0.9250  0.1973  0.4812
  794MOL0     C 7101   9.572   7.482   5.460  0.2958 -0.0849  0.3266
  794MOL0     C 7102   9.448   7.441   5.512 -0.1009  0.4615 -0.1745
  794MOL0     O 7103   9.074   7.629   5.462  0.1036  0.0054 -0.5722
  794MOL0     C 7104   9.034   7.526   5.788 -0.6850 -0.3737  0.3707
  794MOL0     C 7105   8.945   7.536   5.897 -0.3535  0.4274 -0.4428
  794MOL0     N 7106   8.060   7.503   6.303  0.9743  0.1464 -0.2537
  794MOL0     N 7107   7.951   7.480   6.246 -0.0404 -0.2511 -0.3724
  794MOL0     C 7108   7.133   6.908   5.611  0.8664 -0.2510 -0.2419
  794MOL0     C 7109   7.015   6.918   5.534  0.2579 -0.4989  0.9497
  794MOL0     C 7110   6.634   7.149   5.363  0.0876 -0.3282  0.1720
  794MOL0     C 7111   6.551   7.040   5.381  0.3400 -0.1137  0.1462
  794MOL0     C 7112   6.432   7.024   5.325  0.1883  0.4931  0.5040
  794MOL0     C 7113   6.383   7.124   5.238  0.1300  0.4068 -0.1524
  794MOL0     O 7114   6.267   7.108   5.170 -0.2889  0.6329  0.6783
  794MOL0     C 7115   6.173   7.002   5.215  0.4248  0.0902 -0.1052
  794MOL0     C 7116   6.051   6.997   5.138 -0.2204 -1.2200  0.1949
  794MOL0     C 7117   5.971   7.122   5.106  0.0337  0.8811 -0.0398
  794MOL0     C 7118   5.831   7.099   5.044  0.2703 -0.4750 -0.2902
  794MOL0     C 7119   5.748   7.012   5.123 -0.1863 -0.2973 -0.8923
  794MOL0     C 7120   5.683   6.946   5.198  0.2555  0.5187 -1.2228
  794MOL0     C 7121   6.472   7.232   5.209  0.2292  0.5272  0.2587
  794MOL0     C 7122   6.592   7.250   5.276  0.0550  0.2229  0.4106
  794MOL0     H 7123   6.925   7.220   5.660  2.5149  0.8548  2.1800
  794MOL0     H 7124   7.133   7.203   5.760  1.0979  0.7126 -3.2173
  794MOL0     H 7125   7.276   6.789   5.824 -0.7452  0.5812 -1.6937
  794MOL0     H 7126   7.420   6.838   5.734 -1.1047 -0.7748 -0.2648
  794MOL0     H 7127   7.376   6.874   6.048 -1.4352  1.0128 -0.9883
  794MOL0     H 7128   7.479   6.763   5.940 -1.7937 -0.4957 -0.1990
  794MOL0     H 7129   7.494   7.062   5.980  2.7306  0.6355 -0.8948
  794MOL0     H 7130   7.595   6.948   6.063  2.6197  1.7623 -1.5114
  794MOL0     H 7131   7.667   6.856   5.830  0.2280 -1.4594  2.7340
  794MOL0     H 7132   7.589   7.010   5.780 -1.1683 -0.8844 -0.8779
  794MOL0     H 7133   7.822   6.980   5.987  5.0770  1.0854 -1.7685
  794MOL0     H 7134   7.855   7.008   5.823 -0.3674 -0.2565 -0.8776
  794MOL0     H 7135   7.757   7.239   5.826  0.0885 -0.3815  0.9576
  794MOL0     H 7136   7.654   7.201   5.971 -0.0294 -0.6023  1.1392
  794MOL0     H 7137   7.828   7.196   6.111 -3.3147  1.0630 -1.4110
  794MOL0     H 7138   7.955   7.213   5.977  0.4611 -0.5251 -1.3466
  794MOL0     H 7139   7.777   7.457   6.041  1.1904  2.6070 -3.7490
  794MOL0     H 7140   7.888   7.432   5.929  2.2084 -0.0422  0.5316
  794MOL0     H 7141   8.182   7.424   6.009  2.4262 -1.5436  1.7688
  794MOL0     H 7142   8.318   7.587   6.317  3.4802  1.0573 -1.0275
  794MOL0     H 7143   8.347   7.419   6.273  0.0091 -1.0498 -1.9902
  794MOL0     H 7144   8.363   7.672   6.101 -0.6685 -0.6376 -2.2027
  794MOL0     H 7145   8.369   7.511   6.024  1.2532 -2.1909  0.6156
  794MOL0     H 7146   8.547   7.443   6.118  2.2836  1.3500  0.8894
  794MOL0     H 7147   8.596   7.591   6.198  1.5852  0.3167 -0.4160
  794MOL0     H 7148   8.587   7.706   5.964  3.5751  0.4046  1.1653
  794MOL0     H 7149   8.548   7.532   5.903  0.7185 -0.7870  0.6004
  794MOL0     H 7150   8.666   7.542   5.736 -1.0762 -1.8654  2.0118
  794MOL0     H 7151   8.867   7.575   5.399 -1.7052  2.4447 -1.7986
  794MOL0     H 7152   8.743   7.462   5.438  2.4251  0.1801 -4.4797
  794MOL0     H 7153   8.722   7.625   5.489  0.9373  0.5624 -0.0536
  794MOL0     H 7154   9.283   7.728   5.441  2.0470  1.3022  1.2563
  794MOL0     H 7155   9.475   7.778   5.345 -2.6534 -0.3140  0.1425
  794MOL0     H 7156   9.694   7.570   5.159  0.4075 -0.0509 -0.1604
  794MOL0     H 7157   9.627   7.730   5.192 -0.7370 -0.4783  0.7761
  794MOL0     H 7158   9.837   7.752   5.078 -0.1228  1.6442  0.1467
  794MOL0     H 7159   9.838   7.826   5.237 -0.5715  1.5052 -0.4393
  794MOL0     H 7160   9.977   7.575   5.127 -0.8060  1.8423 -2.5679
  794MOL0     H 7161   9.962   7.601   5.303  0.1983  1.3748  1.0972
  794MOL0     H 7162  10.095   7.776   5.100 -2.1984  1.6183  0.9457
  794MOL0     H 7163  10.075   7.817   5.277 -3.2470 -1.7291  2.1175
  794MOL0     H 7164  10.251   7.611   5.143  2.4214  1.2500  0.6716
  794MOL0     H 7165  10.193   7.589   5.315 -1.7982  0.5401  0.4366
  794MOL0     H 7166  10.359   7.791   5.168 -0.6234 -0.9934 -0.4653
  794MOL0     H 7167  10.305   7.825   5.345 -0.7927 -2.8787  2.4796
  794MOL0     H 7168  10.475   7.591   5.224 -0.2100  0.8415 -2.2276
  794MOL0     H 7169  10.442   7.597   5.389 -0.8318  1.6474  1.6987
  794MOL0     H 7170  10.559   7.802   5.434 -0.0551 -1.0487  0.2383
  794MOL0     H 7171  10.582   7.832   5.261  2.2710 -2.0849 -1.7586
  794MOL0     H 7172   9.664   7.427   5.478  0.7226  0.4271 -0.2378
  794MOL0     H 7173   9.452   7.346   5.564  0.2422 -0.2922 -1.5385
  794MOL0     H 7174   9.141   7.527   5.806  0.2541 -1.2104 -3.9090
  794MOL0     H 7175   8.983   7.537   5.999  2.6713  1.2628 -1.4604
  794MOL0     H 7176   7.176   6.809   5.601 -0.8457 -1.0606  0.0859
  794MOL0     H 7177   7.003   6.847   5.452  2.0645  2.2375 -1.9459
  794MOL0     H 7178   6.583   6.953   5.437  0.3644 -0.7624 -0.8482
  794MOL0     H 7179   6.369   6.940   5.352 -1.9375  1.9086  0.1690
  794MOL0     H 7180   6.218   6.902   5.208 -2.0935 -0.9846 -3.4036
  794MOL0     H 7181   6.147   7.042   5.313  0.0970  3.2670 -1.3890
  794MOL0     H 7182   5.985   6.927   5.189 -0.3707 -1.6495 -0.5770
  794MOL0     H 7183   6.077   6.953   5.042 -0.9634 -0.3128 -0.4411
  794MOL0     H 7184   6.026   7.175   5.027 -1.7718  2.0356 -0.5592
  794MOL0     H 7185   5.964   7.189   5.192  2.1183  2.0407 -0.6927
  794MOL0     H 7186   5.845   7.051   4.947 -0.6811 -1.9208  0.2597
  794MOL0     H 7187   5.782   7.195   5.029 -1.6863 -1.2837  0.5971
  794MOL0     H 7188   5.635   6.869   5.255 -1.2901 -0.0164 -3.1242
  794MOL0     H 7189   6.430   7.302   5.138 -0.2919 -2.5453 -2.7000
  794MOL0     H 7190   6.646   7.340   5.252 -3.1843  1.5847 -2.7614
  795MOL0     O 7191   8.620   2.425   6.523  0.6992  0.3672 -0.2672
  795MOL0     C 7192   8.555   2.364   6.608 -0.9557 -0.6785  0.1758
  795MOL0     O 7193   8.595   2.245   6.656 -0.0489  0.7207  0.4121
  795MOL0     C 7194   8.726   2.209   6.635  0.0140  0.2774  0.4167
  795MOL0     C 7195   8.771   2.128   6.531  0.5148  0.5873 -0.1995
  795MOL0     C 7196   8.905   2.086   6.521  0.1851  0.2388 -0.2330
  795MOL0     C 7197   9.001   2.137   6.613 -0.3225 -0.5624 -0.5448
  795MOL0     O 7198   9.127   2.100   6.584  0.2482  1.1850  0.3550
  795MOL0     C 7199   9.213   2.205   6.550 -0.3381  0.2251 -0.2928
  795MOL0     C 7200   9.187   2.263   6.412  0.0498  0.7637 -0.2132
  795MOL0     C 7201   9.300   2.360   6.363  0.2759 -0.0963 -0.9184
  795MOL0     C 7202   9.362   2.447   6.466  0.3603 -1.0807  0.0237
  795MOL0     C 7203   9.470   2.537   6.399  0.0065  0.9372  0.4821
  795MOL0     C 7204   9.524   2.644   6.503  0.6532 -0.1201  0.5850
  795MOL0     C 7205   9.671   2.676   6.503  0.2800  0.6041  1.1730
  795MOL0     C 7206   9.726   2.709   6.353  1.0288  0.4029 -1.3439
  795MOL0     N 7207   9.859   2.766   6.359 -0.2334 -0.3867  0.2019
  795MOL0     C 7208   9.887   2.897   6.363 -1.1919  0.1163 -0.4423
  795MOL0     C 7209  10.015   2.908   6.331 -0.5538  0.7832  0.4090
  795MOL0     C 7210  10.087   3.044   6.297 -0.0553  0.1057  0.6347
  795MOL0     C 7211  10.061   3.090   6.147  0.1036  0.4017  0.7866
  795MOL0     C 7212   9.917   3.122   6.108 -0.4435 -0.4440 -0.2114
  795MOL0     C 7213   9.872   3.120   5.967  0.6901 -0.2043 -0.2362
  795MOL0     O 7214   9.748   3.200   5.946 -0.4397  0.4629  0.7213
  795MOL0     C 7215   9.758   3.344   5.954 -0.5785  0.7481  0.6459
  795MOL0     C 7216   9.891   3.411   5.941 -0.7523  0.2294 -0.0811
  795MOL0     C 7217   9.903   3.543   5.984  0.7113  0.1601  0.2106
  795MOL0     C 7218  10.031   3.616   5.951  0.2985 -0.0607  0.3371
  795MOL0     C 7219   9.795   3.616   6.040 -0.2284 -0.3165 -0.2552
  795MOL0     C 7220   9.788   3.762   6.056  0.1201 -0.1634  0.8141
  795MOL0     O 7221   9.851   3.845   5.972 -0.3259 -0.1236  0.1961
  795MOL0     C 7222   9.825   3.983   5.957  0.1039  0.0697 -0.5670
  795MOL0     C 7223   9.923   4.073   5.919  0.7620 -0.0840  0.7317
  795MOL0     C 7224   9.880   4.207   5.910  0.2017 -0.8715  0.3586
  795MOL0     C 7225   9.744   4.248   5.912  0.1632  0.2864  0.9406
  795MOL0     O 7226   9.702   4.375   5.892  0.2637  0.1013 -0.2361
  795MOL0     C 7227   9.748   4.470   5.985 -0.4705  0.2555  0.4804
  795MOL0     C 7228   9.618   4.554   6.016 -1.2518  0.1230 -0.3222
  795MOL0     C 7229   9.553   4.617   5.893  0.6922 -0.8825  0.4400
  795MOL0     C 7230   9.424   4.674   5.931 -0.0280  0.2755  0.7468
  795MOL0     C 7231   9.357   4.745   5.804 -0.0851  0.4032  1.1374
  795MOL0     C 7232   9.244   4.847   5.848 -0.3386 -0.4121 -0.3031
  795MOL0     C 7233   9.160   4.897   5.730  0.9039 -0.5989  0.0909
  795MOL0     C 7234   9.243   4.943   5.617  0.8667  0.5194  0.4835
  795MOL0    Cl 7235   9.364   5.062   5.666  0.6492  0.1822  0.1892
  795MOL0     C 7236   9.650   4.151   5.946 -0.1501  0.8918  0.4674
  795MOL0     C 7237   9.685   4.018   5.966 -0.8115 -0.3810  0.5091
  795MOL0     O 7238   9.708   3.793   6.142  0.1883  0.2878 -0.1218
  795MOL0     C 7239   9.667   3.547   6.037  0.5383 -0.5482 -0.1733
  795MOL0     C 7240   9.642   3.418   5.991 -1.2447  0.1222 -0.6815
  795MOL0     N 7241  10.068   2.784   6.307  0.3545 -0.4593 -0.1450
  795MOL0     N 7242   9.978   2.695   6.324  0.2695 -0.1355 -0.2055
  795MOL0     C 7243   8.958   2.233   6.705 -0.3447  0.0476  0.0514
  795MOL0     C 7244   8.820   2.259   6.726  0.2967  0.5030 -0.0524
  795MOL0     C 7245   8.423   2.408   6.661 -0.6221 -0.2794 -0.0586
  795MOL0     C 7246   8.372   2.526   6.617  0.6668  0.6135 -0.3517
  795MOL0     C 7247   8.241   2.570   6.651  0.0338  1.3896  0.6648
  795MOL0     C 7248   8.175   2.503   6.756 -0.2908 -0.3431  0.4652
  795MOL0     O 7249   8.060   2.559   6.797  0.6857  0.2142 -0.3460
  795MOL0     C 7250   7.969   2.495   6.887  0.2302  0.3530 -0.3510
  795MOL0     C 7251   7.827   2.538   6.877  0.1570  0.5565  0.0904
  795MOL0     C 7252   7.788   2.558   6.729  0.7774 -1.6957  0.6566
  795MOL0     C 7253   7.658   2.639   6.722  0.8875 -0.1355 -0.2767
  795MOL0     C 7254   7.551   2.556   6.788  0.0396 -0.2054 -0.1355
  795MOL0     C 7255   7.464   2.487   6.843  0.0045 -0.2119 -0.3701
  795MOL0     C 7256   8.233   2.382   6.807 -0.3388  0.2155 -0.1699
  795MOL0     C 7257   8.355   2.340   6.765 -0.6640 -0.3767  0.7952
  795MOL0     H 7258   8.698   2.109   6.452 -0.2439 -0.1948  0.6717
  795MOL0     H 7259   8.940   2.023   6.440 -0.1543  0.5803 -0.6475
  795MOL0     H 7260   9.209   2.279   6.629 -0.0924 -2.1826  2.1111
  795MOL0     H 7261   9.314   2.162   6.554 -0.0322  0.8356 -1.0669
  795MOL0     H 7262   9.169   2.187   6.336  2.1138  0.6817 -0.6733
  795MOL0     H 7263   9.087   2.307   6.418 -1.0347 -1.5725 -0.0735
  795MOL0     H 7264   9.378   2.291   6.331 -0.7182 -0.4399 -2.7854
  795MOL0     H 7265   9.261   2.406   6.271 -0.1351  1.9302  0.2016
  795MOL0     H 7266   9.291   2.520   6.506 -0.3313 -1.2637 -0.8322
  795MOL0     H 7267   9.413   2.390   6.544 -0.0719  0.8353  1.8158
  795MOL0     H 7268   9.556   2.473   6.378 -1.1934 -1.3889  2.2899
  795MOL0     H 7269   9.429   2.589   6.311  0.2151 -0.7261 -0.6401
  795MOL0     H 7270   9.454   2.728   6.493 -0.2202 -0.9339 -0.4059
  795MOL0     H 7271   9.500   2.609   6.603 -1.0964  2.4394  1.1858
  795MOL0     H 7272   9.695   2.761   6.567 -3.2972  1.7316  1.2774
  795MOL0     H 7273   9.727   2.587   6.534  1.3048  0.3348 -1.2299
  795MOL0     H 7274   9.653   2.773   6.303  0.8281 -0.3337 -2.0157
  795MOL0     H 7275   9.724   2.613   6.300  0.8634 -0.7165  0.6037
  795MOL0     H 7276   9.812   2.974   6.382 -1.7023 -0.8720  1.9964
  795MOL0     H 7277  10.034   3.115   6.362 -0.0326 -0.8944  1.7715
  795MOL0     H 7278  10.193   3.050   6.324 -0.6109  0.7949  2.8583
  795MOL0     H 7279  10.090   3.006   6.083  0.1501  0.6226  0.5183
  795MOL0     H 7280  10.119   3.177   6.118 -2.7567  2.1190 -0.1467
  795MOL0     H 7281   9.898   3.225   6.139 -1.6266 -0.6309 -0.2403
  795MOL0     H 7282   9.848   3.059   6.166  0.8104  0.0328  1.8782
  795MOL0     H 7283   9.868   3.015   5.935  0.8141 -0.1775 -0.3423
  795MOL0     H 7284   9.958   3.155   5.909  1.6783 -0.2569  1.1448
  795MOL0     H 7285   9.980   3.360   5.907 -0.3483 -0.3544  1.7380
  795MOL0     H 7286  10.004   3.680   5.866 -2.6990 -1.1904  0.3215
  795MOL0     H 7287  10.077   3.665   6.038  1.6690  0.8461 -0.8590
  795MOL0     H 7288  10.114   3.551   5.921 -0.2098 -1.3538  1.5960
  795MOL0     H 7289  10.020   4.024   5.911  0.0191 -1.5670  0.4800
  795MOL0     H 7290   9.949   4.287   5.885 -1.1079  0.6944  1.4879
  795MOL0     H 7291   9.791   4.424   6.074  0.6220  1.1807  0.4613
  795MOL0     H 7292   9.815   4.520   5.914 -2.5198 -0.4460 -2.1208
  795MOL0     H 7293   9.548   4.480   6.057 -0.4938 -0.2959  0.2509
  795MOL0     H 7294   9.634   4.627   6.095  0.0021  1.2635 -1.5695
  795MOL0     H 7295   9.536   4.541   5.816 -0.4777 -0.6268  0.4264
  795MOL0     H 7296   9.619   4.685   5.838  0.8147 -0.8801  0.5914
  795MOL0     H 7297   9.357   4.593   5.962  0.2571 -0.1927  0.1704
  795MOL0     H 7298   9.441   4.741   6.016  0.5138  1.3007 -0.1508
  795MOL0     H 7299   9.318   4.670   5.735  0.4156  0.5913  0.6440
  795MOL0     H 7300   9.435   4.808   5.760  1.2814 -2.0240 -0.1129
  795MOL0     H 7301   9.169   4.811   5.918 -0.1182 -1.8221 -0.7529
  795MOL0     H 7302   9.298   4.920   5.909  0.0287 -1.9342  1.2810
  795MOL0     H 7303   9.103   4.985   5.763 -2.3067 -2.3019 -0.4725
  795MOL0     H 7304   9.083   4.832   5.687  0.5393 -0.0561 -0.0948
  795MOL0     H 7305   9.177   4.991   5.544 -1.3044 -1.6514  0.9127
  795MOL0     H 7306   9.287   4.853   5.574  0.6191  0.4353  0.4052
  795MOL0     H 7307   9.545   4.179   5.943 -0.4572 -0.2780 -0.1927
  795MOL0     H 7308   9.610   3.941   5.979 -1.1469 -0.1224  0.1486
  795MOL0     H 7309   9.574   3.595   6.067  0.4038 -2.4614  2.9256
  795MOL0     H 7310   9.546   3.377   6.018  0.1005 -2.2639  0.8405
  795MOL0     H 7311   9.045   2.272   6.756  2.5097 -4.6717 -0.5857
  795MOL0     H 7312   8.789   2.298   6.823  0.7269  1.7814 -0.4198
  795MOL0     H 7313   8.425   2.583   6.541  2.2976  1.3156  1.2265
  795MOL0     H 7314   8.201   2.662   6.610  1.0769  1.0739 -1.1318
  795MOL0     H 7315   7.959   2.387   6.872 -1.5049 -0.2890  3.9656
  795MOL0     H 7316   8.000   2.507   6.991  0.1063 -3.1947  0.2252
  795MOL0     H 7317   7.815   2.627   6.940 -0.6482 -0.9748  2.2156
  795MOL0     H 7318   7.767   2.457   6.919  1.6155 -0.2250  0.7482
  795MOL0     H 7319   7.775   2.465   6.674 -1.2773 -0.2856 -1.4716
  795MOL0     H 7320   7.854   2.619   6.666 -2.0431  0.0651 -0.7960
  795MOL0     H 7321   7.628   2.654   6.618 -4.2785 -1.4381  0.7203
  795MOL0     H 7322   7.654   2.737   6.770 -3.9590 -0.6416  0.8482
  795MOL0     H 7323   7.414   2.412   6.901  1.6718 -2.6504 -1.8948
  795MOL0     H 7324   8.192   2.330   6.893 -0.9492  0.6107 -0.2140
  795MOL0     H 7325   8.395   2.245   6.799 -3.9674 -2.6487 -1.0894
  796MOL0     O 7326   5.114   2.626   6.636  0.0766 -0.1957 -0.3160
  796MOL0     C 7327   5.154   2.521   6.593  0.7950  0.3405 -0.7974
  796MOL0     O 7328   5.076   2.402   6.590 -1.6195  0.3314 -0.3386
  796MOL0     C 7329   4.954   2.376   6.648  0.5582 -0.1780 -1.0367
  796MOL0     C 7330   4.869   2.468   6.715  0.1000 -0.6734 -0.1404
  796MOL0     C 7331   4.757   2.423   6.781 -0.0350 -0.6442 -0.0788
  796MOL0     C 7332   4.727   2.285   6.773  0.2449 -0.3111 -0.2373
  796MOL0     O 7333   4.630   2.235   6.852  0.2470 -0.0921 -0.1254
  796MOL0     C 7334   4.496   2.303   6.850 -0.8538 -0.3829 -1.0056
  796MOL0     C 7335   4.399   2.184   6.815  0.0981  0.1796  0.1890
  796MOL0     C 7336   4.261   2.193   6.882  0.1067  0.0560  0.6263
  796MOL0     C 7337   4.204   2.333   6.889 -0.7061  0.4868 -0.2268
  796MOL0     C 7338   4.049   2.345   6.904  0.7081 -0.3512  0.3222
  796MOL0     C 7339   4.005   2.297   7.043 -0.6398  0.1480  0.2794
  796MOL0     C 7340   3.860   2.312   7.051 -0.5008  0.1363 -0.4725
  796MOL0     C 7341   3.817   2.305   7.204 -0.2426  0.9123  0.2594
  796MOL0     N 7342   3.865   2.194   7.278  0.3581  0.1126  0.2000
  796MOL0     C 7343   3.838   2.062   7.255 -0.1134 -0.6418  0.2284
  796MOL0     C 7344   3.919   2.000   7.344 -0.2013 -1.0905 -0.4275
  796MOL0     C 7345   3.933   1.852   7.349 -0.6782 -0.6210 -0.4639
  796MOL0     C 7346   4.067   1.815   7.287 -0.2396  0.0786 -0.9985
  796MOL0     C 7347   4.080   1.824   7.135  0.4218 -0.8537 -0.7646
  796MOL0     C 7348   4.212   1.771   7.091 -0.4188 -0.2646 -0.3825
  796MOL0     O 7349   4.324   1.854   7.153  0.2713 -0.0900 -0.3407
  796MOL0     C 7350   4.452   1.832   7.115  0.0328  0.1599 -0.1464
  796MOL0     C 7351   4.503   1.708   7.128 -0.4377  1.1423  0.7565
  796MOL0     C 7352   4.635   1.676   7.082 -0.2481 -0.0272  0.5909
  796MOL0     C 7353   4.678   1.536   7.084 -0.9830 -0.0900 -0.5542
  796MOL0     C 7354   4.721   1.780   7.050  0.1477 -0.8375 -0.2708
  796MOL0     C 7355   4.866   1.770   6.998  0.4393  0.6037 -0.5978
  796MOL0     O 7356   4.911   1.881   6.951  1.2186  0.6244 -0.2326
  796MOL0     C 7357   5.018   1.898   6.871  0.3777 -0.0136  0.4070
  796MOL0     C 7358   5.037   1.813   6.760  0.3971  0.9360  0.9797
  796MOL0     C 7359   5.136   1.833   6.670  0.2673  0.2524 -0.3160
  796MOL0     C 7360   5.216   1.950   6.690 -0.0371 -0.1883 -0.7387
  796MOL0     O 7361   5.317   1.985   6.600  0.4008  0.3374 -1.0616
  796MOL0     C 7362   5.307   1.938   6.469  0.2833  0.0662 -0.6114
  796MOL0     C 7363   5.414   2.004   6.381  0.5220 -0.2276  0.3039
  796MOL0     C 7364   5.450   1.918   6.259 -0.0475  0.7663 -0.6834
  796MOL0     C 7365   5.330   1.901   6.172 -0.2254 -0.8892 -0.1929
  796MOL0     C 7366   5.383   1.852   6.043  0.6045  1.2820  0.1178
  796MOL0     C 7367   5.437   1.949   5.936  0.4604  0.2673 -0.3727
  796MOL0     C 7368   5.490   1.866   5.820 -0.5920 -0.5430  0.3134
  796MOL0     C 7369   5.628   1.794   5.839 -0.2456  0.1537  0.0504
  796MOL0    Cl 7370   5.766   1.914   5.816  0.2980 -0.2951 -0.1604
  796MOL0     C 7371   5.192   2.036   6.802 -0.8394 -0.7812 -0.5452
  796MOL0     C 7372   5.085   2.013   6.882 -0.0258  0.2922 -0.3017
  796MOL0     O 7373   4.925   1.662   6.998 -0.1657 -0.4004  0.5363
  796MOL0     C 7374   4.663   1.908   7.043 -0.7148 -0.2656 -0.5538
  796MOL0     C 7375   4.530   1.931   7.076 -0.0256  0.5227  0.7298
  796MOL0     N 7376   3.971   2.093   7.428 -0.0118 -1.5896 -0.4544
  796MOL0     N 7377   3.938   2.211   7.390 -0.5042  0.3205  0.3016
  796MOL0     C 7378   4.804   2.192   6.709 -0.0576 -0.0354 -0.5365
  796MOL0     C 7379   4.921   2.239   6.650  0.8251  0.4610 -0.1360
  796MOL0     C 7380   5.296   2.524   6.545 -0.3138  0.2972 -0.3426
  796MOL0     C 7381   5.382   2.637   6.563  0.2735 -0.5003 -0.7996
  796MOL0     C 7382   5.523   2.631   6.531 -0.1867  0.9088  0.3700
  796MOL0     C 7383   5.578   2.512   6.470 -0.4151 -0.1580 -0.6661
  796MOL0     O 7384   5.714   2.497   6.434  0.4884 -0.4129 -0.0629
  796MOL0     C 7385   5.797   2.614   6.430 -0.5409  0.0293  0.3549
  796MOL0     C 7386   5.930   2.600   6.348 -0.8855 -0.1260  0.4021
  796MOL0     C 7387   6.031   2.717   6.379  0.1302  0.6351  0.1865
  796MOL0     C 7388   6.161   2.707   6.311 -0.2099 -0.1777  0.3586
  796MOL0     C 7389   6.261   2.789   6.375  0.3154 -1.1975  0.3719
  796MOL0     C 7390   6.340   2.873   6.414  0.1648 -0.4619  0.5459
  796MOL0     C 7391   5.495   2.402   6.436 -0.6501 -0.3419 -0.1352
  796MOL0     C 7392   5.356   2.412   6.473  0.2242  0.1583 -0.4355
  796MOL0     H 7393   4.899   2.572   6.720  0.0917 -0.5732 -1.8537
  796MOL0     H 7394   4.699   2.499   6.833 -0.5776 -0.2878 -1.1771
  796MOL0     H 7395   4.480   2.340   6.952  2.7313  1.2778 -0.8919
  796MOL0     H 7396   4.497   2.387   6.781  3.1260  1.5408  1.0572
  796MOL0     H 7397   4.401   2.166   6.707  0.6332 -0.5785  0.3150
  796MOL0     H 7398   4.450   2.098   6.859  1.2350  2.3214  3.4541
  796MOL0     H 7399   4.186   2.129   6.834 -1.1470  2.5494 -0.9491
  796MOL0     H 7400   4.262   2.161   6.986 -0.9833  0.3585  0.7410
  796MOL0     H 7401   4.253   2.389   6.969  2.5853 -3.6131  0.9929
  796MOL0     H 7402   4.234   2.385   6.798 -0.4873  0.0083 -0.4310
  796MOL0     H 7403   4.018   2.448   6.883  0.6196 -0.6086 -0.8659
  796MOL0     H 7404   4.008   2.287   6.820  2.7351  3.4603 -3.7250
  796MOL0     H 7405   4.041   2.195   7.052  0.5973  0.7586  3.4661
  796MOL0     H 7406   4.047   2.353   7.127 -2.2418  0.0681  1.1852
  796MOL0     H 7407   3.819   2.403   7.006  2.3313  1.0317 -1.4893
  796MOL0     H 7408   3.817   2.231   6.991  0.1874 -0.0099 -0.7799
  796MOL0     H 7409   3.712   2.323   7.231 -0.3038  2.6512 -0.9685
  796MOL0     H 7410   3.877   2.382   7.253  1.4907 -0.4790  0.3740
  796MOL0     H 7411   3.776   2.025   7.174 -2.6850  1.7174  0.9560
  796MOL0     H 7412   3.934   1.829   7.456 -3.6761  0.3903 -0.1341
  796MOL0     H 7413   3.848   1.802   7.301 -0.6864 -0.5469 -0.5259
  796MOL0     H 7414   4.080   1.706   7.297 -0.0286  0.0871 -1.1783
  796MOL0     H 7415   4.139   1.872   7.346 -2.3785  0.3303  1.5549
  796MOL0     H 7416   4.073   1.929   7.108  0.6839  0.0427  2.3206
  796MOL0     H 7417   3.990   1.776   7.094 -1.4851  2.5711 -0.9366
  796MOL0     H 7418   4.215   1.780   6.982 -3.4768  4.5940 -0.3911
  796MOL0     H 7419   4.223   1.666   7.120 -0.7213 -0.0250  0.6354
  796MOL0     H 7420   4.455   1.613   7.148 -0.5951  1.7406  3.5578
  796MOL0     H 7421   4.691   1.488   6.986 -0.5786 -1.5706  0.1916
  796MOL0     H 7422   4.772   1.532   7.140 -2.2699  0.1979  1.7270
  796MOL0     H 7423   4.615   1.469   7.143 -0.6403  1.2073  1.3882
  796MOL0     H 7424   4.966   1.737   6.730  1.8689 -0.1675  0.1268
  796MOL0     H 7425   5.158   1.761   6.592  1.4026 -1.0212  1.1000
  796MOL0     H 7426   5.328   1.830   6.470  1.5510  0.2988 -0.8610
  796MOL0     H 7427   5.204   1.951   6.435  0.0451  0.1309  0.1048
  796MOL0     H 7428   5.371   2.094   6.335  2.4138  0.1344 -0.8915
  796MOL0     H 7429   5.501   2.028   6.442  1.3277 -2.0931 -0.0507
  796MOL0     H 7430   5.486   1.817   6.282 -3.1246 -0.6614 -1.5846
  796MOL0     H 7431   5.533   1.974   6.215 -0.8971  2.8916  0.3102
  796MOL0     H 7432   5.257   1.829   6.209 -2.3034 -0.2638 -2.7473
  796MOL0     H 7433   5.263   1.983   6.146 -4.1253 -4.4741 -2.6541
  796MOL0     H 7434   5.295   1.797   6.009 -0.2725  2.2334  0.7676
  796MOL0     H 7435   5.462   1.778   6.062  1.0376  1.5387 -0.6560
  796MOL0     H 7436   5.348   2.006   5.905  1.1542  3.4758  2.8567
  796MOL0     H 7437   5.504   2.020   5.985 -1.0855  0.8406  1.0323
  796MOL0     H 7438   5.495   1.938   5.738 -1.9541 -0.3742  0.3587
  796MOL0     H 7439   5.424   1.785   5.789 -2.4112  0.7816  0.6040
  796MOL0     H 7440   5.630   1.709   5.770 -1.8703 -1.6138  2.0229
  796MOL0     H 7441   5.645   1.753   5.939 -2.7382 -0.3578  0.3158
  796MOL0     H 7442   5.242   2.129   6.826  0.5559 -1.0396 -2.2312
  796MOL0     H 7443   5.059   2.078   6.965  2.4686  0.4954  0.4008
  796MOL0     H 7444   4.733   1.986   7.016 -2.5296  2.1954  1.3877
  796MOL0     H 7445   4.495   2.033   7.093 -2.7650 -0.2898  0.4165
  796MOL0     H 7446   4.782   2.086   6.719  1.4412 -0.4141 -1.0481
  796MOL0     H 7447   5.001   2.170   6.626 -2.0838 -2.4069 -2.6284
  796MOL0     H 7448   5.353   2.723   6.623 -0.4851 -1.5882  0.4492
  796MOL0     H 7449   5.593   2.706   6.565  0.3742  1.4272 -1.7936
  796MOL0     H 7450   5.741   2.700   6.391 -0.9631 -0.0786  0.7051
  796MOL0     H 7451   5.828   2.638   6.533  0.6272  1.9906 -0.3964
  796MOL0     H 7452   5.917   2.600   6.240 -2.8889 -1.1053  0.5907
  796MOL0     H 7453   5.977   2.510   6.387 -1.8158  0.0234  1.9727
  796MOL0     H 7454   6.047   2.710   6.487 -0.8653  1.6903  0.4220
  796MOL0     H 7455   5.976   2.810   6.366 -0.0228  0.7399  1.4065
  796MOL0     H 7456   6.150   2.728   6.204 -2.4728 -0.2134  0.5319
  796MOL0     H 7457   6.195   2.603   6.311  0.6513  0.0788  1.2165
  796MOL0     H 7458   6.414   2.944   6.443  2.2746 -2.1783 -0.3461
  796MOL0     H 7459   5.540   2.314   6.390 -0.7846  0.3683 -1.6752
  796MOL0     H 7460   5.294   2.326   6.452  0.6280  0.4081 -2.9144
  797MOL0     O 7461   8.432   8.810   6.135  0.2695 -0.2058  0.1786
  797MOL0     C 7462   8.456   8.912   6.065 -1.5692  0.6783  1.0269
  797MOL0     O 7463   8.464   9.040   6.112 -0.3717  0.0546 -0.3342
  797MOL0     C 7464   8.409   9.064   6.233 -0.7530  0.4787  0.3741
  797MOL0     C 7465   8.278   9.096   6.249 -0.3288 -0.3403  0.4505
  797MOL0     C 7466   8.232   9.110   6.382  0.3436 -0.2719  0.1642
  797MOL0     C 7467   8.314   9.094   6.496  0.3791  0.8448 -0.2479
  797MOL0     O 7468   8.279   9.104   6.624  0.3105  0.1206 -0.3371
  797MOL0     C 7469   8.149   9.157   6.649 -0.2420  0.5049  1.1353
  797MOL0     C 7470   8.153   9.311   6.629  0.0575  0.0420 -0.0626
  797MOL0     C 7471   8.016   9.374   6.663  0.1768  0.9676 -0.2670
  797MOL0     C 7472   8.017   9.524   6.631  1.3081  0.5372 -0.0009
  797MOL0     C 7473   7.885   9.592   6.675 -0.8292 -0.0403 -0.2857
  797MOL0     C 7474   7.887   9.728   6.615  0.6298 -0.3454  0.3942
  797MOL0     C 7475   7.744   9.790   6.619 -0.2701 -0.1001  0.4451
  797MOL0     C 7476   7.676   9.780   6.761 -0.0871  0.8352 -1.0944
  797MOL0     N 7477   7.699   9.884   6.851 -0.2888 -0.2199 -0.3416
  797MOL0     C 7478   7.815   9.914   6.904  0.0957  0.0801  0.0477
  797MOL0     C 7479   7.799  10.003   6.995  0.1372 -0.1461  0.5938
  797MOL0     C 7480   7.900  10.060   7.087 -0.0681  0.4113 -0.1228
  797MOL0     C 7481   7.986   9.956   7.161 -0.3294  0.0283 -0.8420
  797MOL0     C 7482   7.912   9.840   7.243 -0.4886 -0.4531 -0.4966
  797MOL0     C 7483   7.846   9.892   7.374  0.4459  0.0828  0.2851
  797MOL0     O 7484   7.727   9.967   7.330 -0.2795  0.2363 -0.1743
  797MOL0     C 7485   7.672  10.025   7.439  0.2043  0.4965  0.9990
  797MOL0     C 7486   7.603  10.137   7.411 -0.1843 -0.2769  0.6289
  797MOL0     C 7487   7.539  10.222   7.508  0.5151  0.0805  0.0771
  797MOL0     C 7488   7.482  10.352   7.456  0.3754  0.5349 -0.0339
  797MOL0     C 7489   7.559  10.195   7.648  0.5342  0.2984  0.6374
  797MOL0     C 7490   7.513  10.281   7.756  0.4175  0.7714  0.0055
  797MOL0     O 7491   7.570  10.260   7.880  0.0018  0.1793 -0.4973
  797MOL0     C 7492   7.517  10.321   7.990  0.5000  1.0784 -0.3930
  797MOL0     C 7493   7.456  10.246   8.091 -0.5678 -0.6136  0.5668
  797MOL0     C 7494   7.409  10.307   8.215  0.2593 -0.2886  0.7310
  797MOL0     C 7495   7.410  10.447   8.221 -0.3217 -0.0498 -0.4886
  797MOL0     O 7496   7.379  10.529   8.330  0.1821 -0.3877  0.1408
  797MOL0     C 7497   7.325  10.463   8.445  0.3873 -0.1905  0.2499
  797MOL0     C 7498   7.425  10.398   8.536  0.1763 -0.0339 -0.2192
  797MOL0     C 7499   7.359  10.301   8.633  0.2341 -0.3178 -0.0565
  797MOL0     C 7500   7.240  10.359   8.706  1.1741 -0.5076 -0.5511
  797MOL0     C 7501   7.209  10.281   8.833 -0.5314 -0.0508  0.5459
  797MOL0     C 7502   7.074  10.317   8.885  0.8254 -0.7153 -0.1210
  797MOL0     C 7503   6.957  10.254   8.803  0.4629  0.7966  0.1251
  797MOL0     C 7504   6.830  10.321   8.838 -0.0258  0.0336 -0.1109
  797MOL0    Cl 7505   6.702  10.244   8.740 -0.0053  0.4002 -0.0705
  797MOL0     C 7506   7.481  10.515   8.126  0.1583 -0.2311  1.0278
  797MOL0     C 7507   7.530  10.455   8.013  0.4557 -0.1697  0.0779
  797MOL0     O 7508   7.413  10.350   7.729  0.6419  0.0553 -0.4916
  797MOL0     C 7509   7.632  10.080   7.675 -0.5499  0.5670 -0.9728
  797MOL0     C 7510   7.691   9.999   7.579 -0.0479 -0.1571  1.0855
  797MOL0     N 7511   7.665  10.034   7.001 -0.6419 -0.3652  0.5297
  797MOL0     N 7512   7.601   9.960   6.911 -0.8155 -0.3596 -0.2008
  797MOL0     C 7513   8.438   9.048   6.468 -0.2720 -0.6205  0.4098
  797MOL0     C 7514   8.494   9.040   6.342  0.5414  0.0304  0.6588
  797MOL0     C 7515   8.491   8.889   5.921 -0.4211 -0.1024  0.0544
  797MOL0     C 7516   8.538   8.997   5.830 -0.8583 -0.1855 -0.7321
  797MOL0     C 7517   8.574   8.962   5.703 -0.2394 -0.5531 -1.0519
  797MOL0     C 7518   8.576   8.833   5.658 -0.1820  0.2610 -0.4314
  797MOL0     O 7519   8.609   8.803   5.531 -0.1809 -1.9510 -0.1501
  797MOL0     C 7520   8.714   8.872   5.455 -0.2794  0.5079 -0.0266
  797MOL0     C 7521   8.854   8.873   5.512 -0.2199 -0.5907  0.3975
  797MOL0     C 7522   8.961   8.886   5.401 -0.4452  0.1828 -0.8073
  797MOL0     C 7523   9.096   8.879   5.464 -0.6036  0.4225  1.3724
  797MOL0     C 7524   9.193   8.908   5.369 -0.3982 -0.3172  0.1983
  797MOL0     C 7525   9.284   8.948   5.300 -0.0521  0.7762  0.2445
  797MOL0     C 7526   8.525   8.736   5.744  0.5860  0.7034 -0.4468
  797MOL0     C 7527   8.485   8.760   5.874  0.5030  0.3180  0.2838
  797MOL0     H 7528   8.211   9.129   6.171  2.3750  0.2565 -1.7730
  797MOL0     H 7529   8.127   9.140   6.389  0.2807 -0.7112  1.3066
  797MOL0     H 7530   8.067   9.110   6.595 -1.5234  0.8545  2.6918
  797MOL0     H 7531   8.127   9.141   6.755  0.1629 -2.2450  0.8881
  797MOL0     H 7532   8.226   9.341   6.705  0.6418 -1.8203  0.1491
  797MOL0     H 7533   8.178   9.332   6.525  0.0012 -1.8647 -0.4937
  797MOL0     H 7534   7.938   9.332   6.599  0.8698  0.4077 -0.7740
  797MOL0     H 7535   8.002   9.351   6.769  2.5520  2.1026  0.3644
  797MOL0     H 7536   8.101   9.580   6.672  0.7184  1.6838 -0.3163
  797MOL0     H 7537   8.018   9.527   6.522  1.4300  1.3178  0.0200
  797MOL0     H 7538   7.797   9.540   6.636 -2.9740  2.2805  1.1048
  797MOL0     H 7539   7.882   9.600   6.785 -2.0151  0.6175 -0.3430
  797MOL0     H 7540   7.959   9.792   6.669  0.2478  0.7755 -0.3886
  797MOL0     H 7541   7.910   9.712   6.509  1.8152  0.7939  0.4449
  797MOL0     H 7542   7.743   9.891   6.577  1.9427 -1.7369 -4.2309
  797MOL0     H 7543   7.684   9.727   6.553  0.0452 -0.1435  0.2021
  797MOL0     H 7544   7.687   9.686   6.816 -1.1535  1.8642  0.9918
  797MOL0     H 7545   7.569   9.768   6.740 -0.4301  1.1905  0.3640
  797MOL0     H 7546   7.913   9.874   6.879 -1.0831 -1.8948 -1.7276
  797MOL0     H 7547   7.972  10.126   7.037  1.2061 -0.8919 -0.0731
  797MOL0     H 7548   7.844  10.122   7.158 -0.9416  1.1934 -1.4399
  797MOL0     H 7549   8.047  10.008   7.235 -1.7764  2.0742 -1.0001
  797MOL0     H 7550   8.055   9.897   7.100  0.1953 -0.2586  0.0141
  797MOL0     H 7551   7.995   9.775   7.274 -0.6195  1.9283  6.5895
  797MOL0     H 7552   7.846   9.790   7.172  1.3315 -1.5475 -1.4950
  797MOL0     H 7553   7.918   9.956   7.427  0.7379 -0.2533  0.2970
  797MOL0     H 7554   7.822   9.804   7.434  4.2402  0.6072  2.9341
  797MOL0     H 7555   7.594  10.159   7.305  0.9135 -0.4107  0.4946
  797MOL0     H 7556   7.482  10.352   7.346  0.4683 -0.6370 -0.0484
  797MOL0     H 7557   7.378  10.361   7.490 -0.2398 -1.5333 -1.2080
  797MOL0     H 7558   7.537  10.440   7.492 -0.9024  1.5514 -0.4709
  797MOL0     H 7559   7.452  10.138   8.076 -1.4825 -0.2625 -2.3224
  797MOL0     H 7560   7.373  10.236   8.289  3.2378 -2.9301 -0.1212
  797MOL0     H 7561   7.278  10.545   8.500  2.8683  1.0710  0.6463
  797MOL0     H 7562   7.244  10.392   8.427  1.0024 -0.6287 -0.9470
  797MOL0     H 7563   7.506  10.337   8.495 -0.1845 -2.4142  2.3184
  797MOL0     H 7564   7.474  10.478   8.592 -0.6727 -1.2767  2.4919
  797MOL0     H 7565   7.439  10.282   8.705  0.2527  2.0252  0.6398
  797MOL0     H 7566   7.320  10.217   8.575 -4.2577  1.3027  0.1881
  797MOL0     H 7567   7.269  10.462   8.726  1.3085 -0.8404  1.1786
  797MOL0     H 7568   7.156  10.355   8.637  0.4463 -0.7840  0.3224
  797MOL0     H 7569   7.280  10.310   8.911 -1.2681  0.2082  1.1357
  797MOL0     H 7570   7.217  10.174   8.814  2.0653  0.1803 -0.0457
  797MOL0     H 7571   7.067  10.289   8.991  0.3140 -0.9445 -0.2106
  797MOL0     H 7572   7.073  10.426   8.875 -1.2465 -0.7326 -0.7646
  797MOL0     H 7573   6.947  10.146   8.812 -0.6353  0.9159  0.5092
  797MOL0     H 7574   6.968  10.281   8.697 -2.9076  4.2843  0.4149
  797MOL0     H 7575   6.829  10.428   8.814 -1.6916  0.2896  0.9288
  797MOL0     H 7576   6.808  10.307   8.944 -1.2128  0.6780 -0.2518
  797MOL0     H 7577   7.509  10.619   8.141  2.5264 -0.8223  1.0848
  797MOL0     H 7578   7.584  10.520   7.945 -0.6400 -0.1385 -0.7819
  797MOL0     H 7579   7.658  10.044   7.774 -2.0661 -1.8538 -1.3658
  797MOL0     H 7580   7.749   9.913   7.611  1.1127  0.8552  1.7524
  797MOL0     H 7581   8.511   9.041   6.547 -0.5580  0.8957  0.8497
  797MOL0     H 7582   8.599   9.017   6.324  0.0457 -2.5104  0.6657
  797MOL0     H 7583   8.538   9.105   5.843 -2.5728  0.7123 -5.7840
  797MOL0     H 7584   8.598   9.042   5.633  0.0392 -1.1077 -1.5997
  797MOL0     H 7585   8.723   8.813   5.364 -1.6660 -2.3570  1.5317
  797MOL0     H 7586   8.688   8.974   5.425  1.3087  0.1180 -3.0999
  797MOL0     H 7587   8.863   8.778   5.566 -1.3967  0.3043  2.2430
  797MOL0     H 7588   8.852   8.956   5.583  2.4018  0.2163 -0.3739
  797MOL0     H 7589   8.959   8.986   5.358  3.8288  0.8230 -0.0009
  797MOL0     H 7590   8.967   8.806   5.328  0.9815 -1.6792  1.2107
  797MOL0     H 7591   9.117   8.781   5.509  1.5793  0.0067 -0.4069
  797MOL0     H 7592   9.103   8.959   5.538  1.0982 -0.8767  2.7089
  797MOL0     H 7593   9.375   8.974   5.249 -0.8126  2.0562 -0.5171
  797MOL0     H 7594   8.524   8.634   5.709  1.5272  0.5220  0.0235
  797MOL0     H 7595   8.444   8.673   5.923  2.4870 -0.7719  0.0779
  798MOL0     O 7596  10.206  10.861   1.050 -0.8999 -0.7476  0.8566
  798MOL0     C 7597  10.321  10.878   1.099  0.5739  0.3142 -0.2706
  798MOL0     O 7598  10.381  10.788   1.188 -0.4358 -0.9045 -0.4652
  798MOL0     C 7599  10.329  10.665   1.200 -0.8341 -0.2876  0.0790
  798MOL0     C 7600  10.346  10.579   1.088 -0.4803 -0.5194 -0.3591
  798MOL0     C 7601  10.308  10.448   1.100  0.7540  0.0892  0.2535
  798MOL0     C 7602  10.231  10.405   1.218 -0.2842 -0.2064 -0.2845
  798MOL0     O 7603  10.187  10.275   1.228  0.2899  0.5443 -0.2466
  798MOL0     C 7604  10.063  10.255   1.300  0.3812  0.3390 -0.0842
  798MOL0     C 7605  10.006  10.113   1.271  0.8863 -0.1141  0.1946
  798MOL0     C 7606   9.860  10.096   1.318 -0.3106 -0.8245  0.1389
  798MOL0     C 7607   9.794   9.984   1.235 -0.4396 -0.3784 -0.4815
  798MOL0     C 7608   9.657   9.947   1.287  0.7710  0.3566 -0.0599
  798MOL0     C 7609   9.550  10.046   1.244 -0.0270  0.0447 -0.1364
  798MOL0     C 7610   9.407   9.999   1.289 -0.2139  0.0781  0.4797
  798MOL0     C 7611   9.309  10.114   1.254  0.3413  0.3325  0.5279
  798MOL0     N 7612   9.178  10.108   1.323  0.3248  0.5430 -0.2673
  798MOL0     C 7613   9.077  10.020   1.295  0.1470 -0.4940  0.6648
  798MOL0     C 7614   8.979  10.052   1.377  1.3554  0.4931 -0.9747
  798MOL0     C 7615   8.846   9.976   1.379  0.2322  0.8403  0.3574
  798MOL0     C 7616   8.725  10.059   1.343 -0.2072  0.3197  0.1984
  798MOL0     C 7617   8.696  10.169   1.448 -1.1206 -0.2214 -0.1057
  798MOL0     C 7618   8.567  10.240   1.435 -0.4385 -1.0045  0.1136
  798MOL0     O 7619   8.460  10.149   1.437  0.1565 -0.4848 -0.1624
  798MOL0     C 7620   8.335  10.198   1.437 -0.0901  0.9134 -0.8025
  798MOL0     C 7621   8.308  10.337   1.440 -0.1652  0.5699  0.5384
  798MOL0     C 7622   8.175  10.374   1.470  0.4069  0.1316  0.2971
  798MOL0     C 7623   8.159  10.527   1.496 -0.3847  0.6892 -0.1668
  798MOL0     C 7624   8.069  10.283   1.459 -0.0358  0.6894 -0.4855
  798MOL0     C 7625   7.935  10.327   1.466  0.3000 -1.2757  0.0938
  798MOL0     O 7626   7.861  10.313   1.352  0.3681  0.4209  0.3210
  798MOL0     C 7627   7.726  10.348   1.343  0.2753  0.3261 -0.5629
  798MOL0     C 7628   7.667  10.455   1.411 -0.4599 -1.2598  0.3263
  798MOL0     C 7629   7.525  10.470   1.417 -0.0941  0.2585  0.6428
  798MOL0     C 7630   7.453  10.389   1.330  0.2072 -0.1807  0.7239
  798MOL0     O 7631   7.321  10.413   1.315 -0.3428  0.1162  0.2301
  798MOL0     C 7632   7.269  10.392   1.182 -0.9306  0.5256 -0.5341
  798MOL0     C 7633   7.139  10.474   1.200  0.0103 -0.0758 -0.7561
  798MOL0     C 7634   7.046  10.461   1.074 -0.4172 -0.7466  0.5234
  798MOL0     C 7635   6.901  10.512   1.111 -0.0732 -0.2221 -0.4091
  798MOL0     C 7636   6.896  10.624   1.212 -0.0446  0.8244 -0.0842
  798MOL0     C 7637   6.755  10.675   1.214  0.3786 -0.0416  0.5322
  798MOL0     C 7638   6.728  10.777   1.320  0.4818  0.4020  0.5584
  798MOL0     C 7639   6.831  10.893   1.322 -0.0411  0.1044 -0.2264
  798MOL0    Cl 7640   6.760  11.034   1.409  0.1664 -0.3714 -0.3780
  798MOL0     C 7641   7.514  10.288   1.255  0.7170  0.2268  0.0149
  798MOL0     C 7642   7.644  10.268   1.274 -1.2773  0.7735  0.6665
  798MOL0     O 7643   7.887  10.360   1.578 -0.1991 -0.4301  0.1717
  798MOL0     C 7644   8.099  10.142   1.446 -0.5238 -0.2888 -1.2763
  798MOL0     C 7645   8.240  10.104   1.445 -0.1683  0.1127  0.0330
  798MOL0     N 7646   9.023  10.159   1.460 -0.0404 -0.1765 -0.2320
  798MOL0     N 7647   9.141  10.190   1.420  1.0566 -0.5862 -0.6745
  798MOL0     C 7648  10.205  10.499   1.312 -0.0791 -0.9607  0.7734
  798MOL0     C 7649  10.253  10.631   1.309 -0.6405  0.3189  0.0258
  798MOL0     C 7650  10.382  11.015   1.091 -0.5808  0.3676 -0.1261
  798MOL0     C 7651  10.516  11.043   1.133 -0.6450  0.1851  0.6208
  798MOL0     C 7652  10.579  11.168   1.120  0.7327  0.1419  0.0336
  798MOL0     C 7653  10.508  11.272   1.058 -0.3891 -0.2671  0.6271
  798MOL0     O 7654  10.562  11.398   1.034 -0.1329 -0.9004  0.2757
  798MOL0     C 7655  10.684  11.443   1.085 -0.1379  0.2040 -0.6170
  798MOL0     C 7656  10.741  11.562   1.010 -0.0681 -0.1581 -0.1517
  798MOL0     C 7657  10.638  11.674   1.013  0.9295  0.3103  0.1773
  798MOL0     C 7658  10.592  11.722   1.158  0.5490  0.0516  0.1015
  798MOL0     C 7659  10.455  11.687   1.201 -0.4019 -1.3534 -0.9696
  798MOL0     C 7660  10.342  11.670   1.236 -0.4095 -0.5381 -0.3357
  798MOL0     C 7661  10.370  11.256   1.025 -0.2316 -0.0788 -0.0132
  798MOL0     C 7662  10.314  11.125   1.032  0.6524 -0.2282 -0.3407
  798MOL0     H 7663  10.402  10.606   0.999 -1.4227  1.6479 -0.3629
  798MOL0     H 7664  10.324  10.378   1.019 -0.3329 -0.7460  0.7337
  798MOL0     H 7665  10.072  10.272   1.407  0.7360  1.4922 -0.2890
  798MOL0     H 7666   9.987  10.327   1.268  2.1248  2.8217  1.0857
  798MOL0     H 7667  10.006  10.114   1.162  1.7967  4.4279  0.0231
  798MOL0     H 7668  10.063  10.030   1.313 -0.4025 -0.2863  1.6966
  798MOL0     H 7669   9.849  10.082   1.426 -3.1018  0.3426  0.0907
  798MOL0     H 7670   9.803  10.187   1.300  1.8256  0.8642  1.5587
  798MOL0     H 7671   9.791  10.009   1.129 -0.7058 -1.9888 -0.8740
  798MOL0     H 7672   9.865   9.900   1.235  1.0841  0.8219 -2.1954
  798MOL0     H 7673   9.637   9.843   1.260  1.7815 -0.7726  3.0380
  798MOL0     H 7674   9.656   9.942   1.396  4.5809 -2.0195  0.0669
  798MOL0     H 7675   9.562  10.145   1.288 -0.2607  0.2581 -0.5582
  798MOL0     H 7676   9.553  10.056   1.135  2.1695 -2.4654 -0.4153
  798MOL0     H 7677   9.384   9.904   1.241 -1.5657  1.8756 -2.7014
  798MOL0     H 7678   9.392   9.979   1.395 -0.7652 -0.0007  0.3873
  798MOL0     H 7679   9.294  10.118   1.146 -0.1814 -0.0685  0.5810
  798MOL0     H 7680   9.366  10.204   1.280 -0.0699  1.1905 -1.3976
  798MOL0     H 7681   9.073   9.951   1.212  2.7411 -0.4251  0.4164
  798MOL0     H 7682   8.848   9.916   1.288 -3.1123  3.7849 -1.8966
  798MOL0     H 7683   8.838   9.912   1.467  0.9159 -1.0196 -0.8715
  798MOL0     H 7684   8.639   9.991   1.339 -1.3834  1.7923 -2.0743
  798MOL0     H 7685   8.737  10.100   1.242  0.4520 -4.1912 -1.8151
  798MOL0     H 7686   8.778  10.242   1.444 -0.4303 -0.9997 -0.4762
  798MOL0     H 7687   8.696  10.125   1.548 -0.4577 -2.0271 -0.8424
  798MOL0     H 7688   8.557  10.298   1.342 -1.4144 -1.3557 -0.0128
  798MOL0     H 7689   8.563  10.313   1.517 -0.9272  0.2842 -1.0013
  798MOL0     H 7690   8.383  10.415   1.442 -1.8158  2.2534 -0.2839
  798MOL0     H 7691   8.068  10.562   1.446 -0.0355 -2.0616 -3.0989
  798MOL0     H 7692   8.157  10.535   1.605  1.3996  1.1894 -0.1544
  798MOL0     H 7693   8.248  10.587   1.479  1.4766 -0.7835  3.4222
  798MOL0     H 7694   7.722  10.506   1.489  1.0751 -0.6871 -1.0685
  798MOL0     H 7695   7.467  10.529   1.487 -1.4719 -2.4946  1.9504
  798MOL0     H 7696   7.323  10.434   1.097  0.1792 -1.3358 -0.8069
  798MOL0     H 7697   7.245  10.285   1.178  1.9138 -0.1633 -0.9377
  798MOL0     H 7698   7.081  10.440   1.286  0.6704  2.6540  0.8789
  798MOL0     H 7699   7.173  10.576   1.220  0.5642 -0.6223  1.3756
  798MOL0     H 7700   7.036  10.355   1.052 -0.2179 -0.9559  1.3980
  798MOL0     H 7701   7.090  10.521   0.994 -2.2409 -1.7700 -1.3440
  798MOL0     H 7702   6.853  10.550   1.020 -0.4091 -0.7409 -0.4514
  798MOL0     H 7703   6.846  10.426   1.150 -0.5385  0.8182  1.3131
  798MOL0     H 7704   6.965  10.708   1.199  1.0937  0.8941  4.5969
  798MOL0     H 7705   6.913  10.587   1.314 -1.4801  1.4569  0.4122
  798MOL0     H 7706   6.727  10.729   1.123 -2.6130 -0.5216  1.0781
  798MOL0     H 7707   6.682  10.594   1.223 -0.2543 -0.7782 -6.1220
  798MOL0     H 7708   6.736  10.735   1.421 -1.6820 -0.4331  0.4403
  798MOL0     H 7709   6.626  10.811   1.299  0.2064 -0.1482  0.9579
  798MOL0     H 7710   6.864  10.917   1.220  0.2732 -1.9609 -0.6655
  798MOL0     H 7711   6.914  10.859   1.383 -0.4552  0.0403  0.3041
  798MOL0     H 7712   7.465  10.233   1.175 -1.2389  2.4169 -0.3973
  798MOL0     H 7713   7.703  10.202   1.212 -0.7495  3.3772 -1.8034
  798MOL0     H 7714   8.024  10.064   1.438  0.3845 -1.4995  1.0807
  798MOL0     H 7715   8.262   9.997   1.444 -1.4854 -0.1900  0.6343
  798MOL0     H 7716  10.136  10.487   1.395 -0.8793  1.7565  0.6080
  798MOL0     H 7717  10.230  10.698   1.392  0.3527  0.0042  0.5686
  798MOL0     H 7718  10.576  10.960   1.170 -1.1545 -1.5878 -2.1778
  798MOL0     H 7719  10.683  11.191   1.142  0.6387  1.4893 -0.7478
  798MOL0     H 7720  10.679  11.459   1.193 -1.0831 -0.2660 -0.5882
  798MOL0     H 7721  10.760  11.365   1.077 -0.4846 -0.5249  2.0234
  798MOL0     H 7722  10.769  11.532   0.909 -0.8353 -0.0073 -0.4172
  798MOL0     H 7723  10.834  11.598   1.056  0.5268 -1.9250  0.1083
  798MOL0     H 7724  10.557  11.650   0.944  0.8127  2.4603 -0.5154
  798MOL0     H 7725  10.689  11.761   0.970  0.8283  0.3263  0.0917
  798MOL0     H 7726  10.609  11.828   1.177  2.1533 -0.3741  1.2850
  798MOL0     H 7727  10.655  11.660   1.222  2.7741  0.8144 -1.2530
  798MOL0     H 7728  10.237  11.667   1.259 -1.3194  1.1764 -3.6440
  798MOL0     H 7729  10.317  11.334   0.973 -2.5971 -0.2749  1.9544
  798MOL0     H 7730  10.214  11.112   0.992  0.3530  1.1241 -0.0847
  799MOL0     O 7731   1.434   3.849   3.789 -0.2441 -0.5680  0.1061
  799MOL0     C 7732   1.461   3.966   3.773  0.3362 -0.0565  0.9152
  799MOL0     O 7733   1.391   4.053   3.691  0.3905  0.3855  0.8416
  799MOL0     C 7734   1.256   4.044   3.658  0.4963 -0.8176 -0.2024
  799MOL0     C 7735   1.211   4.132   3.563 -0.3188  0.2566  0.4997
  799MOL0     C 7736   1.074   4.146   3.549  0.1617  0.7043  0.4645
  799MOL0     C 7737   0.979   4.052   3.613  0.6343  0.2237 -0.6237
  799MOL0     O 7738   0.847   4.056   3.591  0.4720  0.6885 -0.2081
  799MOL0     C 7739   0.784   4.118   3.703  0.2411 -0.8057 -0.1667
  799MOL0     C 7740   0.859   4.246   3.755  0.4649 -0.8225 -0.0325
  799MOL0     C 7741   0.796   4.296   3.884 -0.8438 -0.4280 -0.2949
  799MOL0     C 7742   0.819   4.435   3.942  0.2626  0.1972  0.2165
  799MOL0     C 7743   0.956   4.456   4.002 -0.1411 -0.0756 -0.0531
  799MOL0     C 7744   0.955   4.576   4.099  0.4256  0.4248  0.4092
  799MOL0     C 7745   0.897   4.509   4.225  0.9144  1.2701 -0.2328
  799MOL0     C 7746   0.791   4.603   4.279  0.8511 -0.1970 -0.8561
  799MOL0     N 7747   0.660   4.594   4.206  0.0544  0.3822 -0.1129
  799MOL0     C 7748   0.553   4.511   4.238 -0.3468 -0.8477  0.2868
  799MOL0     C 7749   0.454   4.547   4.149  0.6254  0.1768  0.0189
  799MOL0     C 7750   0.315   4.489   4.143  0.0145 -0.0000 -0.1722
  799MOL0     C 7751   0.212   4.582   4.196  0.5137  0.1004 -0.5120
  799MOL0     C 7752   0.072   4.517   4.212 -0.3691 -0.8381  0.0033
  799MOL0     C 7753   0.059   4.417   4.326  0.1086  0.0346 -0.1711
  799MOL0     O 7754  -0.056   4.319   4.316  0.4112 -0.2300 -0.3349
  799MOL0     C 7755  -0.171   4.388   4.325 -0.5070  0.8723 -1.1498
  799MOL0     C 7756  -0.252   4.418   4.210  0.7087 -0.5930 -0.8367
  799MOL0     C 7757  -0.353   4.517   4.221  0.7522  0.9361  0.0037
  799MOL0     C 7758  -0.411   4.559   4.087  0.1858  0.0278  0.0153
  799MOL0     C 7759  -0.390   4.568   4.354 -1.0178  0.5393  0.5194
  799MOL0     C 7760  -0.501   4.658   4.381  1.9944 -0.1331  0.7476
  799MOL0     O 7761  -0.513   4.708   4.507 -0.4115 -0.0960  0.2448
  799MOL0     C 7762  -0.622   4.787   4.539  0.8793  0.9826 -0.3897
  799MOL0     C 7763  -0.730   4.753   4.615  0.1611  0.1183  0.1199
  799MOL0     C 7764  -0.828   4.850   4.644 -0.7374 -0.2928 -0.1924
  799MOL0     C 7765  -0.836   4.977   4.586  0.5575 -0.6656 -0.1873
  799MOL0     O 7766  -0.933   5.072   4.626 -0.1665 -0.3020 -0.0731
  799MOL0     C 7767  -1.028   5.104   4.527 -0.1548 -0.4445  0.5372
  799MOL0     C 7768  -1.164   5.066   4.582 -0.2150 -0.1706  1.0620
  799MOL0     C 7769  -1.257   5.101   4.466  1.1443 -0.2649  0.1268
  799MOL0     C 7770  -1.400   5.059   4.500  0.4084 -0.5036  0.0786
  799MOL0     C 7771  -1.499   5.094   4.393  0.2419 -0.5440  0.4208
  799MOL0     C 7772  -1.641   5.085   4.451 -0.5842 -0.3782  0.2254
  799MOL0     C 7773  -1.745   5.114   4.349 -0.1024  0.5000 -0.0760
  799MOL0     C 7774  -1.880   5.047   4.382 -0.2954  0.5075 -0.0949
  799MOL0    Cl 7775  -1.935   5.075   4.539  0.2430 -0.3451  0.0009
  799MOL0     C 7776  -0.725   5.013   4.510 -0.9949  0.5102 -1.3139
  799MOL0     C 7777  -0.622   4.920   4.492 -0.7869  0.3627  0.5416
  799MOL0     O 7778  -0.581   4.683   4.292  0.0672 -0.5910  0.5335
  799MOL0     C 7779  -0.313   4.521   4.467 -0.4384  0.0551 -0.7545
  799MOL0     C 7780  -0.209   4.428   4.455  0.2440 -0.1942  0.4252
  799MOL0     N 7781   0.496   4.647   4.066 -0.8637  0.3983  0.1943
  799MOL0     N 7782   0.616   4.674   4.106 -0.1020 -0.3176  0.0984
  799MOL0     C 7783   1.036   3.954   3.692  0.8257  0.1495 -0.7862
  799MOL0     C 7784   1.171   3.954   3.727  0.0923 -0.0966 -0.3245
  799MOL0     C 7785   1.579   4.022   3.844  0.0553  0.1766 -0.3064
  799MOL0     C 7786   1.669   3.953   3.931  0.3152  0.0894  0.0730
  799MOL0     C 7787   1.774   4.018   3.989 -0.9422  1.0493 -0.3360
  799MOL0     C 7788   1.804   4.152   3.961 -1.2523  0.5154  0.9752
  799MOL0     O 7789   1.913   4.223   4.018  0.3186 -0.0404 -1.2002
  799MOL0     C 7790   2.020   4.158   4.099 -0.3546  0.0316 -0.0357
  799MOL0     C 7791   1.963   4.160   4.238 -1.0077 -0.0204 -0.0978
  799MOL0     C 7792   2.036   4.064   4.328 -0.9278 -1.1307 -0.3123
  799MOL0     C 7793   1.958   4.019   4.452  0.3307 -0.7656  0.2585
  799MOL0     C 7794   2.047   3.952   4.545  0.2049 -0.3356 -0.1391
  799MOL0     C 7795   2.120   3.893   4.626 -0.5278 -0.2058 -0.0704
  799MOL0     C 7796   1.715   4.227   3.884  0.4178 -0.3608  0.0921
  799MOL0     C 7797   1.595   4.158   3.834 -0.6902  0.5052 -0.5043
  799MOL0     H 7798   1.285   4.193   3.512  0.6762  1.2917  3.0241
  799MOL0     H 7799   1.022   4.218   3.488 -1.5723 -0.6713  0.2586
  799MOL0     H 7800   0.678   4.140   3.684  0.0089 -0.7824  1.0812
  799MOL0     H 7801   0.779   4.048   3.787 -2.9481  1.0655  1.4123
  799MOL0     H 7802   0.961   4.224   3.788  1.0744  0.8960 -0.6365
  799MOL0     H 7803   0.848   4.328   3.683  0.9873  0.9618  1.8117
  799MOL0     H 7804   0.689   4.299   3.861 -1.0622  3.0735  0.4805
  799MOL0     H 7805   0.819   4.221   3.960 -1.3259  0.4987  0.7900
  799MOL0     H 7806   0.801   4.516   3.870 -1.9942  1.1521  1.7380
  799MOL0     H 7807   0.741   4.440   4.018 -0.4697  0.2959 -0.5165
  799MOL0     H 7808   1.007   4.372   4.050 -2.7457 -2.3398 -0.9543
  799MOL0     H 7809   1.030   4.483   3.926 -0.8831 -1.4828 -1.3299
  799MOL0     H 7810   1.057   4.614   4.114  0.4251  0.8722 -0.6166
  799MOL0     H 7811   0.895   4.660   4.064  2.2960  2.6114  2.1447
  799MOL0     H 7812   0.863   4.410   4.193  1.0598  0.0706  2.9952
  799MOL0     H 7813   0.976   4.481   4.295 -1.2799 -2.3603  1.0756
  799MOL0     H 7814   0.833   4.704   4.272 -1.6324  0.8682 -1.6753
  799MOL0     H 7815   0.779   4.595   4.388  1.9455  1.4446 -0.5672
  799MOL0     H 7816   0.562   4.432   4.311  0.2593 -0.5816  0.5047
  799MOL0     H 7817   0.295   4.483   4.036 -1.3848 -1.6014  0.1316
  799MOL0     H 7818   0.309   4.387   4.182  0.1511 -1.1607 -2.9686
  799MOL0     H 7819   0.204   4.662   4.122 -3.2754  0.8798  0.5174
  799MOL0     H 7820   0.246   4.626   4.289  0.5911 -0.6680 -0.1687
  799MOL0     H 7821   0.043   4.459   4.123 -0.2400  1.9994 -2.0225
  799MOL0     H 7822  -0.005   4.594   4.217 -1.3471 -1.3028 -4.0689
  799MOL0     H 7823   0.050   4.472   4.420  1.3729  2.2765 -1.2796
  799MOL0     H 7824   0.151   4.359   4.326  0.4129  0.2901 -3.5946
  799MOL0     H 7825  -0.216   4.378   4.116  4.6527  2.3726 -0.8632
  799MOL0     H 7826  -0.355   4.522   4.001  0.4794 -0.0795  0.2524
  799MOL0     H 7827  -0.515   4.524   4.084  0.4358 -0.9023  1.4381
  799MOL0     H 7828  -0.423   4.668   4.077  1.3587  0.0559 -1.3410
  799MOL0     H 7829  -0.758   4.655   4.652  0.0603 -0.7212 -1.9964
  799MOL0     H 7830  -0.896   4.837   4.728 -0.6425 -1.3393 -0.2725
  799MOL0     H 7831  -1.026   5.211   4.506 -1.7385 -0.8023 -1.9737
  799MOL0     H 7832  -1.005   5.067   4.426  1.2459 -3.0924  1.7264
  799MOL0     H 7833  -1.156   4.957   4.590  1.0749 -0.3257 -1.3278
  799MOL0     H 7834  -1.192   5.123   4.671  0.4876  1.1244  0.4835
  799MOL0     H 7835  -1.226   5.050   4.374  2.8823  0.5291  0.2168
  799MOL0     H 7836  -1.257   5.207   4.441 -2.0343  1.1286  4.6538
  799MOL0     H 7837  -1.415   4.951   4.510 -5.2108 -0.0079 -0.0340
  799MOL0     H 7838  -1.432   5.111   4.591  1.0930  4.1043 -2.0420
  799MOL0     H 7839  -1.483   5.031   4.304  0.5481  1.0395 -0.6882
  799MOL0     H 7840  -1.484   5.199   4.365 -1.8480 -0.2298  0.3239
  799MOL0     H 7841  -1.664   4.995   4.508  0.7781 -1.9488 -1.5832
  799MOL0     H 7842  -1.656   5.166   4.523 -4.2665  0.0673 -0.8289
  799MOL0     H 7843  -1.716   5.084   4.248 -1.8329  2.0600 -1.1058
  799MOL0     H 7844  -1.752   5.223   4.353  4.5907  0.9948  3.7953
  799MOL0     H 7845  -1.858   4.941   4.365  2.0771  0.4454  2.6552
  799MOL0     H 7846  -1.949   5.072   4.300  2.5771  3.5799 -1.8622
  799MOL0     H 7847  -0.706   5.110   4.466  0.5324  1.1241  0.5400
  799MOL0     H 7848  -0.534   4.943   4.433  0.0041 -2.7338  0.3390
  799MOL0     H 7849  -0.342   4.538   4.570 -2.3530  0.2910 -1.2995
  799MOL0     H 7850  -0.169   4.394   4.549  2.2742 -1.6017 -0.8637
  799MOL0     H 7851   0.976   3.882   3.746 -2.5751  3.6982  0.7017
  799MOL0     H 7852   1.213   3.889   3.803  0.4467  0.5264  0.0263
  799MOL0     H 7853   1.639   3.853   3.962 -3.0783  1.0401  0.1850
  799MOL0     H 7854   1.825   3.970   4.072  1.0023  0.8031 -1.5881
  799MOL0     H 7855   2.030   4.056   4.059 -2.5026 -0.3093  0.1991
  799MOL0     H 7856   2.116   4.211   4.087 -1.1286  1.5403  0.2363
  799MOL0     H 7857   1.858   4.134   4.257 -1.6737  3.4912  1.9539
  799MOL0     H 7858   1.959   4.264   4.271 -4.0805  0.6844 -2.2453
  799MOL0     H 7859   2.120   4.100   4.388 -2.3111 -0.6939  1.4467
  799MOL0     H 7860   2.077   3.977   4.276  0.0724 -1.5597  1.1304
  799MOL0     H 7861   1.891   3.940   4.418  0.2190  0.1123 -1.6861
  799MOL0     H 7862   1.899   4.102   4.493  0.5475 -0.3978 -0.1591
  799MOL0     H 7863   2.174   3.829   4.693  0.4343 -0.9983 -1.5521
  799MOL0     H 7864   1.727   4.333   3.864  0.1561 -0.2343  0.5997
  799MOL0     H 7865   1.526   4.228   3.790 -2.4024 -0.4397  0.5425
  800MOL0     O 7866   8.799   3.841   8.056  0.0717  0.0732 -0.0705
  800MOL0     C 7867   8.906   3.818   8.114  0.3232  1.1985  0.3719
  800MOL0     O 7868   8.927   3.720   8.208 -0.0415  0.5329  0.6564
  800MOL0     C 7869   8.827   3.647   8.246  1.0579  0.5277 -0.2531
  800MOL0     C 7870   8.705   3.706   8.300 -0.0880  0.5464 -0.3855
  800MOL0     C 7871   8.605   3.630   8.357 -0.7272 -0.9509 -0.4813
  800MOL0     C 7872   8.608   3.493   8.359  0.0554  0.5868 -0.6367
  800MOL0     O 7873   8.505   3.425   8.419 -0.0616 -0.4574  0.1255
  800MOL0     C 7874   8.376   3.429   8.353 -0.4813 -0.1170 -0.2450
  800MOL0     C 7875   8.389   3.323   8.249 -0.9500  0.3013  0.8390
  800MOL0     C 7876   8.271   3.304   8.155 -0.1503 -0.3268 -0.5088
  800MOL0     C 7877   8.152   3.224   8.214  0.2225  0.0069  0.2292
  800MOL0     C 7878   8.068   3.161   8.102 -0.5704  0.1875 -0.0610
  800MOL0     C 7879   8.039   3.234   7.977 -0.1959  0.1705  0.3795
  800MOL0     C 7880   7.935   3.344   8.001 -0.6368  0.2763  0.8135
  800MOL0     C 7881   7.873   3.383   7.867  0.8022 -0.1957 -1.0242
  800MOL0     N 7882   7.773   3.290   7.813  0.3025 -0.3896  0.2011
  800MOL0     C 7883   7.641   3.277   7.842 -0.2070  0.3284  0.6916
  800MOL0     C 7884   7.596   3.190   7.755  0.6290  0.1906  0.8881
  800MOL0     C 7885   7.453   3.151   7.723 -1.0492  0.2177 -0.4463
  800MOL0     C 7886   7.336   3.215   7.802  0.6222  0.4555  0.2334
  800MOL0     C 7887   7.224   3.122   7.852 -0.9071  1.1318 -0.2940
  800MOL0     C 7888   7.128   3.195   7.947  0.3489 -0.3481  0.4568
  800MOL0     O 7889   7.090   3.333   7.910  0.3434 -0.1324  0.8490
  800MOL0     C 7890   6.969   3.359   7.836 -0.9687  0.5130  0.9389
  800MOL0     C 7891   6.899   3.259   7.758 -0.6246  0.7717  0.1424
  800MOL0     C 7892   6.786   3.305   7.681  0.6909  0.7122 -0.9180
  800MOL0     C 7893   6.741   3.210   7.582 -0.7138  0.3911  0.1028
  800MOL0     C 7894   6.736   3.435   7.689 -0.2407 -1.3718 -0.1808
  800MOL0     C 7895   6.612   3.489   7.622  0.3060 -0.7760  0.3599
  800MOL0     O 7896   6.602   3.630   7.630  0.1306 -0.0493  0.7407
  800MOL0     C 7897   6.490   3.698   7.583  0.0697 -0.0368 -0.9607
  800MOL0     C 7898   6.351   3.655   7.598 -0.5008 -0.5801 -0.4264
  800MOL0     C 7899   6.253   3.745   7.549 -0.0609 -0.5715 -0.0032
  800MOL0     C 7900   6.277   3.866   7.485  0.5602 -0.2241 -0.7674
  800MOL0     O 7901   6.184   3.945   7.425 -0.2300 -0.3861 -0.3357
  800MOL0     C 7902   6.074   3.876   7.366 -0.1585  0.7118  0.1716
  800MOL0     C 7903   6.118   3.759   7.272  0.7560  0.9496  0.4417
  800MOL0     C 7904   6.038   3.762   7.141 -0.5777  0.0860 -0.1603
  800MOL0     C 7905   5.888   3.757   7.149 -0.0361 -0.5050  0.9692
  800MOL0     C 7906   5.818   3.705   7.024 -0.2321 -0.4503 -0.8659
  800MOL0     C 7907   5.661   3.716   7.029 -0.0206  0.2183  0.1614
  800MOL0     C 7908   5.590   3.687   6.897 -0.0603  0.5000 -0.4016
  800MOL0     C 7909   5.519   3.547   6.882  0.2918  0.1765 -0.0645
  800MOL0    Cl 7910   5.427   3.493   7.027 -0.2079 -0.1865  0.5287
  800MOL0     C 7911   6.412   3.907   7.474  0.1239  0.7568 -0.8305
  800MOL0     C 7912   6.515   3.826   7.522  0.0978  0.3330  0.9459
  800MOL0     O 7913   6.525   3.414   7.578  0.0051 -0.2892  0.3923
  800MOL0     C 7914   6.812   3.523   7.764 -0.3824 -0.7746  0.4721
  800MOL0     C 7915   6.934   3.488   7.831  0.1401  0.7028  0.3608
  800MOL0     N 7916   7.699   3.149   7.680 -0.7189  0.6000  0.4618
  800MOL0     N 7917   7.812   3.204   7.712 -0.3740  0.0489 -0.0629
  800MOL0     C 7918   8.719   3.432   8.297  0.2178  0.0901 -0.5781
  800MOL0     C 7919   8.835   3.514   8.251  0.1746  0.1306  0.1821
  800MOL0     C 7920   9.016   3.895   8.051 -0.2670  0.9954  0.0664
  800MOL0     C 7921   9.141   3.886   8.107 -0.4676 -0.2833  0.7962
  800MOL0     C 7922   9.251   3.945   8.044 -0.4534 -0.0375 -0.3332
  800MOL0     C 7923   9.239   4.026   7.933  0.2688 -0.4948  0.5521
  800MOL0     O 7924   9.353   4.093   7.886 -0.0045 -0.1248  0.0870
  800MOL0     C 7925   9.350   4.202   7.797  0.1321  0.0838  0.3314
  800MOL0     C 7926   9.311   4.327   7.876 -0.1810 -0.7894  0.1348
  800MOL0     C 7927   9.422   4.379   7.968 -0.0970 -0.2477 -0.6619
  800MOL0     C 7928   9.423   4.323   8.106 -0.7546  0.8362 -0.1533
  800MOL0     C 7929   9.498   4.400   8.204 -0.2991 -0.6494 -0.1015
  800MOL0     C 7930   9.550   4.470   8.283  0.1785 -0.6492  0.1198
  800MOL0     C 7931   9.116   4.037   7.870  0.4204 -1.2391 -0.3490
  800MOL0     C 7932   9.002   3.969   7.926  0.0435 -0.5938 -0.6199
  800MOL0     H 7933   8.702   3.814   8.309  3.3697  0.6881  0.4193
  800MOL0     H 7934   8.514   3.665   8.405 -1.2776 -5.8283  2.7617
  800MOL0     H 7935   8.304   3.408   8.431  2.1367 -1.4390  1.9973
  800MOL0     H 7936   8.361   3.525   8.302 -1.0076  0.9351  1.7940
  800MOL0     H 7937   8.476   3.340   8.186 -2.4578  0.8545 -1.1903
  800MOL0     H 7938   8.409   3.234   8.310  1.7588  1.0517  1.1424
  800MOL0     H 7939   8.235   3.403   8.126  1.7518  0.6557  0.3623
  800MOL0     H 7940   8.311   3.259   8.063  0.1590  0.4478 -0.7547
  800MOL0     H 7941   8.179   3.152   8.293  0.3667 -2.2326 -1.7401
  800MOL0     H 7942   8.081   3.296   8.256 -1.6428 -0.0664 -2.5110
  800MOL0     H 7943   8.129   3.077   8.068 -0.1583 -0.3498  1.8798
  800MOL0     H 7944   7.975   3.120   8.144  0.0046  0.5664  1.6562
  800MOL0     H 7945   8.128   3.279   7.933  0.4593 -1.4961 -0.0462
  800MOL0     H 7946   8.002   3.158   7.908 -0.8908 -0.6406  1.5954
  800MOL0     H 7947   7.869   3.329   8.086 -0.2622 -0.0133  1.0581
  800MOL0     H 7948   7.988   3.433   8.036  2.4933 -1.4398  0.7943
  800MOL0     H 7949   7.948   3.406   7.790 -1.6610  1.8783 -2.9798
  800MOL0     H 7950   7.820   3.477   7.886 -1.7417 -1.8860  0.8342
  800MOL0     H 7951   7.586   3.320   7.925 -1.0145 -0.9643  0.8427
  800MOL0     H 7952   7.422   3.180   7.622  0.2806  1.0610 -0.6421
  800MOL0     H 7953   7.450   3.042   7.732 -0.4773  0.2653  0.4199
  800MOL0     H 7954   7.286   3.295   7.747 -3.0638 -2.8721 -1.7714
  800MOL0     H 7955   7.368   3.266   7.893  0.8683 -1.8247  1.4958
  800MOL0     H 7956   7.266   3.033   7.898 -1.1480  2.0827  1.8946
  800MOL0     H 7957   7.167   3.094   7.762 -2.4276  0.9626  0.6834
  800MOL0     H 7958   7.172   3.185   8.046  3.2935  0.3296 -0.6675
  800MOL0     H 7959   7.031   3.145   7.956  0.1143  0.1769  0.8375
  800MOL0     H 7960   6.929   3.155   7.758  1.2467  1.2644  1.6175
  800MOL0     H 7961   6.811   3.129   7.557 -0.4755  1.5252 -3.5199
  800MOL0     H 7962   6.638   3.175   7.594 -1.3419  0.2200 -4.1979
  800MOL0     H 7963   6.736   3.260   7.484  0.2868 -1.8872 -1.1973
  800MOL0     H 7964   6.324   3.561   7.646 -0.2596  0.9098  2.9332
  800MOL0     H 7965   6.150   3.711   7.557  1.1120 -4.6828 -0.4727
  800MOL0     H 7966   6.011   3.829   7.441  1.4150  1.1343  1.8221
  800MOL0     H 7967   6.015   3.947   7.308  0.9331  3.3608  2.0923
  800MOL0     H 7968   6.223   3.771   7.241  0.8513 -1.1442 -0.2327
  800MOL0     H 7969   6.114   3.668   7.332 -1.4491  1.5228  1.2239
  800MOL0     H 7970   6.080   3.674   7.092  2.3993  1.3104 -0.0294
  800MOL0     H 7971   6.058   3.850   7.077  0.1391  2.3799  2.9687
  800MOL0     H 7972   5.872   3.687   7.232  0.3342 -0.4240  1.1111
  800MOL0     H 7973   5.844   3.854   7.173 -1.7972 -1.0300  0.0198
  800MOL0     H 7974   5.846   3.600   7.013 -3.1367 -1.5046  0.7217
  800MOL0     H 7975   5.855   3.752   6.932 -0.1471  0.0012 -0.6061
  800MOL0     H 7976   5.632   3.655   7.114  3.4059  0.2473  1.5160
  800MOL0     H 7977   5.648   3.823   7.048  1.9553  0.7829 -1.2927
  800MOL0     H 7978   5.638   3.721   6.805 -2.2068 -0.0781 -1.8376
  800MOL0     H 7979   5.502   3.752   6.897  0.0527  0.6857 -1.5241
  800MOL0     H 7980   5.586   3.467   6.851  1.1624  0.8813 -0.0465
  800MOL0     H 7981   5.446   3.552   6.800  2.2161 -0.8123 -1.9142
  800MOL0     H 7982   6.446   3.988   7.411  2.0408  0.5324 -0.1507
  800MOL0     H 7983   6.619   3.852   7.502  0.0996 -0.8312 -0.8197
  800MOL0     H 7984   6.789   3.630   7.763  2.5372 -0.0539 -0.3685
  800MOL0     H 7985   7.008   3.544   7.887  1.8701 -1.7199  0.6824
  800MOL0     H 7986   8.718   3.323   8.291  0.6419 -0.1677  2.5430
  800MOL0     H 7987   8.917   3.466   8.197  0.7229  0.1154  1.0119
  800MOL0     H 7988   9.168   3.830   8.197 -0.6137  0.5540  1.3749
  800MOL0     H 7989   9.351   3.925   8.083 -1.6201 -1.3428  2.2733
  800MOL0     H 7990   9.451   4.210   7.756 -0.4590 -0.3496 -1.3014
  800MOL0     H 7991   9.290   4.194   7.705 -3.7336 -1.6961  2.7387
  800MOL0     H 7992   9.217   4.298   7.924 -2.5610  0.4305 -3.4083
  800MOL0     H 7993   9.276   4.409   7.813 -0.0154 -0.1064  0.9044
  800MOL0     H 7994   9.395   4.485   7.969 -2.9264 -0.8592  1.3131
  800MOL0     H 7995   9.516   4.356   7.917 -0.0880 -0.8577 -0.3819
  800MOL0     H 7996   9.464   4.222   8.100 -0.8950  0.6979  1.0213
  800MOL0     H 7997   9.318   4.332   8.136  0.0927 -0.2359  3.5375
  800MOL0     H 7998   9.606   4.529   8.354 -2.3466  2.2987 -0.1365
  800MOL0     H 7999   9.107   4.092   7.778  1.5335 -2.7141 -1.4000
  800MOL0     H 8000   8.908   3.989   7.876  0.6717  0.1051 -1.5443
  801MOL0     O 8001   6.832   6.348   3.843 -0.2832 -0.5104 -0.4516
  801MOL0     C 8002   6.841   6.234   3.803 -0.7016 -0.5450 -0.8734
  801MOL0     O 8003   6.955   6.153   3.812 -0.0004 -0.1252  0.0363
  801MOL0     C 8004   7.071   6.200   3.878  0.6436 -0.5832  0.3446
  801MOL0     C 8005   7.112   6.336   3.888 -0.7212  0.3009 -0.2910
  801MOL0     C 8006   7.236   6.362   3.957  0.0125 -0.3275 -0.3530
  801MOL0     C 8007   7.325   6.258   3.989 -0.5396  0.7587 -1.4872
  801MOL0     O 8008   7.451   6.293   4.028 -0.2698  0.0820  0.0200
  801MOL0     C 8009   7.558   6.188   4.052  0.3923 -0.0422  0.5211
  801MOL0     C 8010   7.661   6.248   4.155 -1.1485  0.4745  0.6185
  801MOL0     C 8011   7.762   6.131   4.175 -0.7582 -0.9477  1.2384
  801MOL0     C 8012   7.898   6.165   4.097  0.2696 -0.1494  0.2524
  801MOL0     C 8013   8.011   6.070   4.141  0.2881  0.0568 -0.1622
  801MOL0     C 8014   8.153   6.109   4.102 -0.0813  0.3238  0.4168
  801MOL0     C 8015   8.251   5.997   4.148 -0.3561 -0.4912 -0.0891
  801MOL0     C 8016   8.307   6.031   4.288 -0.4251  0.3581  0.1025
  801MOL0     N 8017   8.422   5.940   4.316 -0.9410 -0.2478 -0.5355
  801MOL0     C 8018   8.398   5.805   4.340 -0.1689 -0.3713 -0.2458
  801MOL0     C 8019   8.520   5.755   4.348  0.1082 -0.3191 -0.6590
  801MOL0     C 8020   8.557   5.614   4.365  0.4581  0.5525  0.6609
  801MOL0     C 8021   8.489   5.520   4.271  0.1240 -0.3932 -0.4812
  801MOL0     C 8022   8.591   5.479   4.165  0.0278  0.5373  0.7295
  801MOL0     C 8023   8.624   5.596   4.075 -0.3903 -0.3111 -0.1767
  801MOL0     O 8024   8.705   5.568   3.959  0.4544  0.9521  0.6373
  801MOL0     C 8025   8.842   5.528   3.974 -0.4873 -0.0971 -0.4807
  801MOL0     C 8026   8.902   5.491   3.862 -0.3787  0.1931  0.4535
  801MOL0     C 8027   9.035   5.453   3.859 -0.1585 -0.1114  0.6414
  801MOL0     C 8028   9.102   5.423   3.729  0.5704  0.0830 -1.1169
  801MOL0     C 8029   9.120   5.451   3.972 -0.1466 -0.2597 -0.3648
  801MOL0     C 8030   9.268   5.411   3.974 -0.3434  0.0952 -0.3155
  801MOL0     O 8031   9.359   5.505   4.023 -0.5770 -1.0266 -0.0897
  801MOL0     C 8032   9.489   5.483   4.063  0.3040  0.8742 -0.2222
  801MOL0     C 8033   9.565   5.585   4.120 -0.4909 -0.5135 -0.4212
  801MOL0     C 8034   9.695   5.564   4.162  0.5075 -0.8624  0.1677
  801MOL0     C 8035   9.757   5.440   4.152  0.8833 -0.0516  0.6470
  801MOL0     O 8036   9.868   5.415   4.222 -0.2865 -0.0697  0.1821
  801MOL0     C 8037   9.989   5.447   4.144  0.3664  0.3092 -0.4836
  801MOL0     C 8038  10.112   5.397   4.213 -0.4543 -0.2325  0.1148
  801MOL0     C 8039  10.236   5.437   4.133 -0.3201  0.3031 -0.5396
  801MOL0     C 8040  10.367   5.404   4.213 -0.1776 -0.8157  0.0557
  801MOL0     C 8041  10.427   5.271   4.161  0.5014  0.1886 -0.7267
  801MOL0     C 8042  10.570   5.255   4.194  0.4125  0.4287  0.3585
  801MOL0     C 8043  10.629   5.126   4.152  0.2052 -0.2479  0.1189
  801MOL0     C 8044  10.785   5.136   4.153 -0.6127 -0.6036  0.1573
  801MOL0    Cl 8045  10.855   5.149   3.987 -0.4006 -0.4525 -0.0175
  801MOL0     C 8046   9.688   5.339   4.099  0.3437 -0.2951  0.7440
  801MOL0     C 8047   9.556   5.363   4.041  1.1381 -0.3488  0.0805
  801MOL0     O 8048   9.297   5.296   3.941 -0.4425 -0.0139 -0.4467
  801MOL0     C 8049   9.057   5.511   4.083 -0.4698  0.2026 -0.2455
  801MOL0     C 8050   8.926   5.552   4.084 -0.5271 -0.2901  0.9480
  801MOL0     N 8051   8.609   5.860   4.329 -0.0548  0.0818 -0.3797
  801MOL0     N 8052   8.551   5.971   4.310 -0.2896 -0.6702  0.2402
  801MOL0     C 8053   7.282   6.132   3.959  0.6782  0.0006  0.7007
  801MOL0     C 8054   7.151   6.100   3.924 -0.1275 -0.0861  0.2294
  801MOL0     C 8055   6.710   6.173   3.770  0.4506  0.5677 -0.2637
  801MOL0     C 8056   6.590   6.248   3.782 -0.7820 -0.1062 -0.1437
  801MOL0     C 8057   6.467   6.195   3.748 -0.4808  0.5353  0.4744
  801MOL0     C 8058   6.452   6.055   3.721  1.0142  0.7302 -0.1275
  801MOL0     O 8059   6.333   5.986   3.704 -0.0175  0.9223 -0.3536
  801MOL0     C 8060   6.218   6.059   3.662  0.2112 -0.2978  0.1722
  801MOL0     C 8061   6.108   6.100   3.770 -0.1403 -0.1266 -0.6384
  801MOL0     C 8062   6.057   5.971   3.826  0.3093  0.3889 -1.1231
  801MOL0     C 8063   5.942   5.985   3.931 -0.0781  0.4534 -0.9901
  801MOL0     C 8064   6.004   6.029   4.057  0.1679  0.3190  0.0858
  801MOL0     C 8065   6.041   6.068   4.168  0.0539 -0.2729 -0.0192
  801MOL0     C 8066   6.569   5.982   3.713  0.1011  0.0977 -0.8010
  801MOL0     C 8067   6.692   6.039   3.735 -0.3749  0.8637  0.8714
  801MOL0     H 8068   7.055   6.423   3.856 -3.1643 -0.5613  1.4200
  801MOL0     H 8069   7.278   6.461   3.967 -0.3869 -0.3845  2.5057
  801MOL0     H 8070   7.518   6.091   4.081  1.4646 -0.4950  0.5233
  801MOL0     H 8071   7.606   6.158   3.958 -1.5634 -2.7455  0.2489
  801MOL0     H 8072   7.701   6.344   4.120 -1.9369  1.3403  2.0263
  801MOL0     H 8073   7.608   6.262   4.249 -0.7089 -1.4118  1.1903
  801MOL0     H 8074   7.803   6.131   4.276  1.9854  1.6326  0.2738
  801MOL0     H 8075   7.724   6.034   4.142  0.1268 -0.4873 -1.3861
  801MOL0     H 8076   7.882   6.155   3.989  3.0111 -0.9135 -0.1629
  801MOL0     H 8077   7.919   6.271   4.118  0.7694  0.0331 -1.0780
  801MOL0     H 8078   8.007   6.039   4.246  0.9975 -1.1437 -0.4663
  801MOL0     H 8079   7.989   5.973   4.095  2.4438  0.2926 -1.8221
  801MOL0     H 8080   8.173   6.132   3.997 -2.8971 -0.3243 -0.3460
  801MOL0     H 8081   8.172   6.199   4.162 -0.4454  0.0850  0.9006
  801MOL0     H 8082   8.201   5.900   4.156  0.1871 -0.8052 -0.3948
  801MOL0     H 8083   8.328   5.997   4.070 -0.1847 -0.9110  0.0761
  801MOL0     H 8084   8.227   6.009   4.359 -1.6325  0.1027 -1.2940
  801MOL0     H 8085   8.332   6.137   4.302  0.8636  0.3021 -1.5072
  801MOL0     H 8086   8.305   5.750   4.346 -0.1679 -0.7497 -2.7310
  801MOL0     H 8087   8.664   5.594   4.354  0.0340 -1.4798 -0.4162
  801MOL0     H 8088   8.540   5.594   4.471 -2.1394  0.1277  0.2381
  801MOL0     H 8089   8.413   5.579   4.220 -1.1290 -1.2245  0.3623
  801MOL0     H 8090   8.442   5.449   4.340 -3.5092  4.0802  2.2537
  801MOL0     H 8091   8.540   5.404   4.104  2.7921 -0.7348 -0.1791
  801MOL0     H 8092   8.680   5.429   4.204 -0.8487 -0.2702  1.7357
  801MOL0     H 8093   8.676   5.671   4.136 -1.2109 -0.7148  1.0569
  801MOL0     H 8094   8.533   5.642   4.034 -2.8098 -3.9315  0.6607
  801MOL0     H 8095   8.843   5.492   3.771  1.1281  0.8022 -0.5608
  801MOL0     H 8096   9.138   5.320   3.724  1.7359  0.5087 -1.9016
  801MOL0     H 8097   9.043   5.451   3.642 -1.4024  1.0434  0.4413
  801MOL0     H 8098   9.188   5.489   3.717  1.2039  1.1544  5.4018
  801MOL0     H 8099   9.518   5.682   4.131 -0.7953 -0.3024 -2.9952
  801MOL0     H 8100   9.749   5.647   4.205  0.5188  0.0169 -1.4598
  801MOL0     H 8101   9.980   5.417   4.040  1.6747  2.3783 -1.2543
  801MOL0     H 8102   9.999   5.556   4.139  0.0051  0.2858 -3.0291
  801MOL0     H 8103  10.117   5.428   4.318  0.1082 -0.8962  0.2923
  801MOL0     H 8104  10.102   5.288   4.221 -0.4286 -0.2326  0.1456
  801MOL0     H 8105  10.242   5.543   4.109 -0.2598  1.0575  2.4912
  801MOL0     H 8106  10.247   5.383   4.038  3.2348  0.7651 -0.5286
  801MOL0     H 8107  10.445   5.475   4.181 -0.5728  0.7200  2.2925
  801MOL0     H 8108  10.336   5.407   4.318 -0.8948 -1.6055 -0.1204
  801MOL0     H 8109  10.414   5.262   4.053  1.9354  2.6441 -1.1729
  801MOL0     H 8110  10.372   5.199   4.223 -0.4698  2.3187  1.0319
  801MOL0     H 8111  10.628   5.331   4.141  2.4527 -0.4781  1.2020
  801MOL0     H 8112  10.579   5.269   4.302  0.1633 -1.2289  0.6159
  801MOL0     H 8113  10.591   5.097   4.054 -1.4010 -1.3283  1.0117
  801MOL0     H 8114  10.598   5.050   4.225  0.1205 -0.3351 -0.0079
  801MOL0     H 8115  10.807   5.037   4.195  0.1128 -1.5165 -2.1953
  801MOL0     H 8116  10.819   5.218   4.216  1.6493 -1.4041  0.0641
  801MOL0     H 8117   9.742   5.246   4.083  1.2728 -0.2167  3.0439
  801MOL0     H 8118   9.514   5.285   3.979 -2.2927  1.8124 -0.5857
  801MOL0     H 8119   9.110   5.539   4.174 -1.9869 -0.5243  0.9094
  801MOL0     H 8120   8.891   5.593   4.179  2.2006  0.7586  1.5883
  801MOL0     H 8121   7.346   6.045   3.971  2.4563  1.1852  0.1104
  801MOL0     H 8122   7.115   5.999   3.906 -4.6068  1.2926  0.1217
  801MOL0     H 8123   6.588   6.352   3.810  0.1629  0.3923 -1.7389
  801MOL0     H 8124   6.386   6.267   3.739 -1.6912 -0.4813  2.5655
  801MOL0     H 8125   6.254   6.153   3.618  0.4869 -1.4555 -2.2849
  801MOL0     H 8126   6.161   6.015   3.579  1.5606 -2.1080  0.1318
  801MOL0     H 8127   6.025   6.156   3.726 -0.7754  1.7556  2.6406
  801MOL0     H 8128   6.152   6.166   3.846 -3.9715  3.1899 -0.9523
  801MOL0     H 8129   6.146   5.924   3.870 -0.2814 -0.7040 -1.0709
  801MOL0     H 8130   6.018   5.907   3.747 -1.1546 -0.9787  0.6072
  801MOL0     H 8131   5.890   5.889   3.945 -0.6357  0.7601 -0.9519
  801MOL0     H 8132   5.870   6.048   3.879  0.5246  3.9523  2.0327
  801MOL0     H 8133   6.084   6.103   4.260  1.4633  0.1001 -0.7873
  801MOL0     H 8134   6.565   5.874   3.703  0.7975  0.0857 -0.9891
  801MOL0     H 8135   6.779   5.975   3.723 -0.6428  0.5111  0.7755
  802MOL0     O 8136   1.936   7.848  10.351 -0.1888 -0.0964 -0.3608
  802MOL0     C 8137   1.832   7.861  10.292  0.0286  0.0528 -0.5005
  802MOL0     O 8138   1.705   7.891  10.351  0.1073 -0.7693 -0.4948
  802MOL0     C 8139   1.683   7.921  10.477  0.2244  0.4698 -0.2850
  802MOL0     C 8140   1.553   7.892  10.524  0.0768  0.5102 -0.2661
  802MOL0     C 8141   1.511   7.909  10.657  0.1935  0.0685  0.1134
  802MOL0     C 8142   1.610   7.954  10.750 -0.0815  0.6886  0.3720
  802MOL0     O 8143   1.558   7.978  10.876 -0.1950  0.3025  0.6155
  802MOL0     C 8144   1.647   8.064  10.947 -0.4136  0.4887  0.2795
  802MOL0     C 8145   1.568   8.095  11.073 -0.5240 -0.2443 -0.6738
  802MOL0     C 8146   1.566   7.975  11.172 -0.0919  0.0202  0.2359
  802MOL0     C 8147   1.675   7.970  11.271 -0.6890  0.4381  0.5546
  802MOL0     C 8148   1.630   7.878  11.385 -0.7515  1.1657  0.0491
  802MOL0     C 8149   1.528   7.763  11.351  0.2203 -0.3986  0.7514
  802MOL0     C 8150   1.506   7.682  11.480 -0.1817 -0.4697 -0.1801
  802MOL0     C 8151   1.388   7.730  11.560  0.5712  0.8669  0.1871
  802MOL0     N 8152   1.331   7.618  11.640  0.6396  0.3914  0.2658
  802MOL0     C 8153   1.300   7.489  11.593 -0.4156  0.1650  0.1013
  802MOL0     C 8154   1.241   7.430  11.697 -0.4108  0.6058 -0.1954
  802MOL0     C 8155   1.192   7.287  11.700  0.3056 -0.6082  0.3944
  802MOL0     C 8156   1.057   7.286  11.627  0.0850  0.9989  0.8645
  802MOL0     C 8157   0.966   7.163  11.653  1.0204 -1.2466  0.0572
  802MOL0     C 8158   0.813   7.174  11.614 -0.5021 -0.7146  0.6606
  802MOL0     O 8159   0.777   7.034  11.622  0.0412  0.1629  0.2040
  802MOL0     C 8160   0.641   6.995  11.616 -0.6284 -0.1498  0.3022
  802MOL0     C 8161   0.531   7.079  11.596  0.3340 -0.0530 -0.5075
  802MOL0     C 8162   0.402   7.023  11.570 -0.2190 -0.0818  0.2278
  802MOL0     C 8163   0.282   7.125  11.556 -0.4108 -0.7071 -0.5821
  802MOL0     C 8164   0.389   6.879  11.555  0.0681  0.2607  0.4002
  802MOL0     C 8165   0.267   6.806  11.516  0.2962  0.0200 -1.1307
  802MOL0     O 8166   0.261   6.689  11.443 -0.2044  0.4326 -0.0686
  802MOL0     C 8167   0.135   6.654  11.405  0.4561 -0.4352 -0.4718
  802MOL0     C 8168   0.048   6.580  11.492 -0.5939  0.6432  0.8284
  802MOL0     C 8169  -0.080   6.557  11.445  1.0925  0.3209  0.6488
  802MOL0     C 8170  -0.125   6.600  11.318 -0.0113 -0.5181  0.4492
  802MOL0     O 8171  -0.251   6.582  11.258 -0.5091  0.2807 -0.9605
  802MOL0     C 8172  -0.347   6.686  11.228 -0.3617  0.3550  1.0602
  802MOL0     C 8173  -0.473   6.690  11.314  0.6196 -0.3498 -0.3846
  802MOL0     C 8174  -0.464   6.787  11.428  0.7080 -0.5701 -0.6051
  802MOL0     C 8175  -0.495   6.719  11.563  0.7191  0.3121 -1.2948
  802MOL0     C 8176  -0.636   6.665  11.570 -0.4253  0.1496 -0.1087
  802MOL0     C 8177  -0.676   6.594  11.703 -0.3889  0.0382 -0.1033
  802MOL0     C 8178  -0.830   6.553  11.703 -0.4008  0.5809 -0.4588
  802MOL0     C 8179  -0.860   6.460  11.817 -0.2537  0.7997 -0.0311
  802MOL0    Cl 8180  -0.763   6.309  11.818 -0.1807  0.0879 -0.1600
  802MOL0     C 8181  -0.036   6.675  11.234  0.1898  0.1279  0.0697
  802MOL0     C 8182   0.093   6.707  11.281 -0.8307 -0.1499 -0.1169
  802MOL0     O 8183   0.173   6.864  11.579 -0.2954 -0.1905 -0.2201
  802MOL0     C 8184   0.497   6.801  11.584 -0.2237 -0.6489 -0.8494
  802MOL0     C 8185   0.625   6.856  11.618 -0.8209 -0.5227 -0.7002
  802MOL0     N 8186   1.236   7.507  11.808 -0.1201 -0.3281  0.4786
  802MOL0     N 8187   1.297   7.624  11.775 -0.5060 -0.1070 -0.3025
  802MOL0     C 8188   1.749   7.975  10.712  0.1481  0.5194  0.5335
  802MOL0     C 8189   1.773   7.955  10.576 -0.1734  0.0735  0.3702
  802MOL0     C 8190   1.831   7.865  10.147  0.5957  0.1556 -0.7585
  802MOL0     C 8191   1.957   7.855  10.082  0.7725 -0.2089 -0.4041
  802MOL0     C 8192   1.956   7.858   9.944 -0.0933 -0.0753  0.4989
  802MOL0     C 8193   1.837   7.879   9.878  0.2024  0.5411  0.8727
  802MOL0     O 8194   1.820   7.929   9.747  1.3817  0.6057  0.1391
  802MOL0     C 8195   1.918   7.921   9.647  0.1508  0.5959  0.2942
  802MOL0     C 8196   1.957   7.785   9.606  0.1052  0.9303 -0.2415
  802MOL0     C 8197   2.053   7.782   9.485  0.2070  0.1492 -0.0524
  802MOL0     C 8198   2.185   7.854   9.486  0.8929  0.7769  0.2946
  802MOL0     C 8199   2.249   7.807   9.597 -1.7214  0.2255  0.1243
  802MOL0     C 8200   2.313   7.778   9.702 -0.5584 -0.2247  0.6706
  802MOL0     C 8201   1.711   7.865   9.941 -0.7329 -0.3642  0.1432
  802MOL0     C 8202   1.709   7.862  10.074  0.7600 -0.8651 -0.6607
  802MOL0     H 8203   1.481   7.867  10.448  1.0282 -0.3920 -0.8997
  802MOL0     H 8204   1.408   7.892  10.688 -0.1787  0.2532 -0.9775
  802MOL0     H 8205   1.744   8.030  10.983 -0.7531  0.7707  1.4804
  802MOL0     H 8206   1.664   8.160  10.898 -0.7833  2.7673  4.2344
  802MOL0     H 8207   1.622   8.178  11.119  1.7754 -0.3797 -2.9024
  802MOL0     H 8208   1.468   8.118  11.037 -1.6056 -2.5679  0.6036
  802MOL0     H 8209   1.479   8.005  11.231  1.8208  2.1185  2.1638
  802MOL0     H 8210   1.542   7.885  11.114 -1.1338  0.8118 -0.5988
  802MOL0     H 8211   1.765   7.931  11.222 -0.3846  4.1127 -2.2224
  802MOL0     H 8212   1.689   8.074  11.301 -0.6017  1.6303 -3.1456
  802MOL0     H 8213   1.718   7.843  11.438  0.4199  3.9107  0.1259
  802MOL0     H 8214   1.583   7.941  11.461  0.3343  1.0813  0.8065
  802MOL0     H 8215   1.432   7.803  11.318  0.7017 -0.0430 -0.2905
  802MOL0     H 8216   1.566   7.703  11.267  1.6906 -0.0913  1.1659
  802MOL0     H 8217   1.493   7.575  11.462 -2.1412 -0.8743  2.9242
  802MOL0     H 8218   1.592   7.694  11.546 -0.9355 -2.1112  1.1697
  802MOL0     H 8219   1.318   7.765  11.483  1.2311  1.9174  0.0346
  802MOL0     H 8220   1.414   7.812  11.628  2.3809  0.7963 -0.3690
  802MOL0     H 8221   1.325   7.440  11.499 -0.0246  1.5734 -0.5505
  802MOL0     H 8222   1.254   7.216  11.643 -0.8688 -2.7020  1.6369
  802MOL0     H 8223   1.201   7.255  11.804 -0.5742  0.1909  0.7288
  802MOL0     H 8224   1.059   7.287  11.517  0.3178 -0.9059  0.8122
  802MOL0     H 8225   0.998   7.366  11.672  0.7052  1.7468  0.3753
  802MOL0     H 8226   0.971   7.145  11.761  1.5654 -0.6925  0.1285
  802MOL0     H 8227   1.009   7.075  11.606  0.4137 -0.4977 -1.9963
  802MOL0     H 8228   0.802   7.207  11.510  2.9827 -0.1150  0.3696
  802MOL0     H 8229   0.764   7.241  11.685  0.5159  0.4342  0.3059
  802MOL0     H 8230   0.545   7.186  11.611  3.6253 -0.6072  1.5160
  802MOL0     H 8231   0.257   7.163  11.656  3.5742  0.9937 -0.0238
  802MOL0     H 8232   0.319   7.207  11.494  0.2207 -0.2080  0.4110
  802MOL0     H 8233   0.200   7.081  11.499 -1.3146 -2.3246  1.7827
  802MOL0     H 8234   0.075   6.564  11.596 -4.2906  1.2924  2.0398
  802MOL0     H 8235  -0.157   6.510  11.505  1.1129 -1.5942 -0.7176
  802MOL0     H 8236  -0.304   6.787  11.228 -0.2199  0.3037  1.8468
  802MOL0     H 8237  -0.383   6.660  11.128  0.2222 -2.0635  1.4236
  802MOL0     H 8238  -0.555   6.717  11.246  0.4289 -1.1541 -0.4882
  802MOL0     H 8239  -0.490   6.586  11.343 -0.2209  0.2594  1.4764
  802MOL0     H 8240  -0.542   6.863  11.415  0.0992 -1.2196 -0.8284
  802MOL0     H 8241  -0.370   6.842  11.428  0.8403 -0.7814  0.3828
  802MOL0     H 8242  -0.428   6.632  11.563 -1.9484 -1.9002 -0.6523
  802MOL0     H 8243  -0.482   6.781  11.652  1.2227 -1.9023  0.2800
  802MOL0     H 8244  -0.643   6.591  11.489 -2.0845 -2.0432  1.9181
  802MOL0     H 8245  -0.704   6.747  11.546  1.3987  1.9985  0.7171
  802MOL0     H 8246  -0.609   6.509  11.710  1.8267  1.7570  0.9342
  802MOL0     H 8247  -0.657   6.665  11.784 -0.6341 -0.6469  0.5564
  802MOL0     H 8248  -0.848   6.489  11.616 -0.1027 -2.0318  1.3040
  802MOL0     H 8249  -0.892   6.643  11.707 -0.5724  0.4121  1.4019
  802MOL0     H 8250  -0.966   6.433  11.815  0.5327 -2.8561 -2.2171
  802MOL0     H 8251  -0.838   6.515  11.908  1.1147  2.2324 -1.1745
  802MOL0     H 8252  -0.069   6.694  11.132  1.9198 -1.9137 -0.9540
  802MOL0     H 8253   0.161   6.758  11.213  0.5370  0.0197  1.3315
  802MOL0     H 8254   0.501   6.693  11.579 -2.0211 -0.7076 -3.7271
  802MOL0     H 8255   0.714   6.798  11.643 -0.4545  0.8421  1.3794
  802MOL0     H 8256   1.836   7.998  10.773 -0.1712  0.2309  1.1096
  802MOL0     H 8257   1.877   7.963  10.547 -0.0239  0.4593  0.9893
  802MOL0     H 8258   2.046   7.839  10.142  0.0610 -2.7644  0.0664
  802MOL0     H 8259   2.051   7.870   9.893  1.8056  1.6043  4.0471
  802MOL0     H 8260   1.877   7.973   9.560  1.4526  2.4457  0.7102
  802MOL0     H 8261   2.008   7.972   9.682 -1.0282  1.5673  2.1428
  802MOL0     H 8262   1.869   7.722   9.588 -1.0778  1.4642  2.9993
  802MOL0     H 8263   2.006   7.743   9.694  1.0893 -2.6317 -2.2819
  802MOL0     H 8264   1.992   7.810   9.399 -1.1499 -0.0322  0.8216
  802MOL0     H 8265   2.086   7.679   9.468  2.5281  0.2938  2.7924
  802MOL0     H 8266   2.178   7.962   9.494  0.6528  0.7794  0.0426
  802MOL0     H 8267   2.238   7.822   9.396  0.1868  2.3391 -0.7040
  802MOL0     H 8268   2.353   7.750   9.797 -0.3585 -0.2266  0.5844
  802MOL0     H 8269   1.622   7.854   9.880  0.1449 -0.9474 -1.0947
  802MOL0     H 8270   1.612   7.840  10.117  0.1920 -2.0694 -2.4346
  803MOL0     O 8271   8.746  10.053   1.004 -0.0174  0.2535 -0.0824
  803MOL0     C 8272   8.702   9.956   0.941  0.9671 -0.5512  0.4137
  803MOL0     O 8273   8.769   9.895   0.840 -0.4702 -0.5452  0.2198
  803MOL0     C 8274   8.904   9.931   0.828  0.3779 -0.3653 -0.6373
  803MOL0     C 8275   8.989   9.877   0.927  0.1299 -0.5901 -0.1431
  803MOL0     C 8276   9.126   9.901   0.912  0.0883 -0.7243 -0.0496
  803MOL0     C 8277   9.179   9.978   0.814 -0.5663 -0.7031  0.1973
  803MOL0     O 8278   9.317   9.996   0.827 -0.2000 -0.2726  0.7125
  803MOL0     C 8279   9.377  10.088   0.736 -0.6818  1.3617  0.2966
  803MOL0     C 8280   9.521  10.058   0.723  0.3456  0.0777  0.0214
  803MOL0     C 8281   9.584  10.043   0.855  0.1497  0.0198  0.0244
  803MOL0     C 8282   9.729  10.010   0.840  0.7159  0.0627  0.4212
  803MOL0     C 8283   9.820  10.134   0.803  0.6877  0.2171  0.3802
  803MOL0     C 8284   9.965  10.098   0.839 -0.4464  0.5388  0.2339
  803MOL0     C 8285  10.061  10.220   0.838  0.1341  0.5373 -0.5564
  803MOL0     C 8286  10.072  10.299   0.704  0.1267  0.0059  0.7450
  803MOL0     N 8287  10.207  10.365   0.695  0.1570  0.3372  0.1780
  803MOL0     C 8288  10.315  10.297   0.656 -0.3239  1.1829  0.3159
  803MOL0     C 8289  10.419  10.375   0.676 -0.1408 -0.3559  0.0509
  803MOL0     C 8290  10.571  10.346   0.671  0.5681  0.3327 -0.6265
  803MOL0     C 8291  10.618  10.324   0.533  0.0764 -0.4383  0.5697
  803MOL0     C 8292  10.759  10.278   0.547  0.2259 -0.3152  0.4538
  803MOL0     C 8293  10.843  10.346   0.436  0.2124  0.1536 -0.1270
  803MOL0     O 8294  10.896  10.455   0.500  0.5695  0.5599  0.5248
  803MOL0     C 8295  10.977  10.538   0.429  1.0199 -0.0979  0.1308
  803MOL0     C 8296  11.010  10.653   0.497 -0.6303 -0.4539 -0.3964
  803MOL0     C 8297  11.100  10.746   0.449 -0.2315  0.5575 -0.8484
  803MOL0     C 8298  11.124  10.876   0.521 -0.1444 -0.7966 -0.5493
  803MOL0     C 8299  11.151  10.728   0.322 -1.5477  0.3627  0.2164
  803MOL0     C 8300  11.240  10.839   0.263  0.2082 -0.3100 -0.5302
  803MOL0     O 8301  11.361  10.855   0.323 -0.4304  0.5687 -0.3358
  803MOL0     C 8302  11.436  10.967   0.289  0.2085 -0.4158 -0.0584
  803MOL0     C 8303  11.536  10.968   0.188  0.3665 -0.1862  0.1682
  803MOL0     C 8304  11.617  11.084   0.170  0.1996  0.4392  0.2320
  803MOL0     C 8305  11.612  11.193   0.250  0.3280  0.3685 -0.2723
  803MOL0     O 8306  11.706  11.295   0.255 -0.2713 -0.3623 -0.3938
  803MOL0     C 8307  11.794  11.298   0.145 -0.3527 -0.3939  0.1121
  803MOL0     C 8308  11.902  11.398   0.176  0.8149 -0.9475  0.5953
  803MOL0     C 8309  12.007  11.387   0.060  0.4402  0.3456  0.2147
  803MOL0     C 8310  12.147  11.450   0.098 -0.1208  0.5653  0.4570
  803MOL0     C 8311  12.245  11.434  -0.019  0.1832  0.1532 -1.3672
  803MOL0     C 8312  12.363  11.537  -0.003  0.0607 -0.1291  0.4505
  803MOL0     C 8313  12.424  11.564  -0.146  0.0868  0.0959  0.6509
  803MOL0     C 8314  12.528  11.666  -0.168  0.3481 -0.4457  0.2247
  803MOL0    Cl 8315  12.665  11.654  -0.041  0.2106  0.6463 -0.2421
  803MOL0     C 8316  11.512  11.201   0.338  0.7925  0.5541  0.1316
  803MOL0     C 8317  11.421  11.090   0.355 -0.2472  0.0449  1.2047
  803MOL0     O 8318  11.201  10.899   0.163  0.1219  0.4927 -0.3753
  803MOL0     C 8319  11.119  10.612   0.248  1.0953 -0.2243  0.9224
  803MOL0     C 8320  11.031  10.513   0.305  0.7456 -1.1510 -1.2490
  803MOL0     N 8321  10.371  10.498   0.721  0.3031  0.0914 -0.5206
  803MOL0     N 8322  10.241  10.489   0.731  0.2607  0.8904 -0.3598
  803MOL0     C 8323   9.089  10.046   0.725  0.4261  0.0519 -0.1681
  803MOL0     C 8324   8.953  10.023   0.737  0.3704  0.5064  0.2004
  803MOL0     C 8325   8.552   9.930   0.945 -0.3196  0.3320 -0.6158
  803MOL0     C 8326   8.483   9.849   0.846  0.8153 -0.1710 -0.1220
  803MOL0     C 8327   8.346   9.830   0.856 -0.7163  0.0757 -0.0273
  803MOL0     C 8328   8.270   9.900   0.952 -0.1566  0.3662 -0.5855
  803MOL0     O 8329   8.129   9.890   0.962 -0.5928  1.0616  0.1473
  803MOL0     C 8330   8.051   9.879   0.850  0.3750  0.2210  0.1314
  803MOL0     C 8331   7.958   9.991   0.862  0.0783 -0.4280  0.0135
  803MOL0     C 8332   8.016  10.132   0.868  0.9029  0.3214 -0.1398
  803MOL0     C 8333   8.099  10.178   0.752  0.9252 -0.2702 -0.0974
  803MOL0     C 8334   8.133  10.318   0.766 -1.0525  0.4361  0.3027
  803MOL0     C 8335   8.164  10.436   0.767 -0.0220 -0.0005  0.2003
  803MOL0     C 8336   8.331   9.977   1.045  0.2455 -0.0892  0.3351
  803MOL0     C 8337   8.474   9.999   1.038 -0.7289  0.6776  0.3402
  803MOL0     H 8338   8.949   9.804   0.996 -1.3094  3.3989  3.7293
  803MOL0     H 8339   9.197   9.853   0.978  0.0446 -0.7353 -0.0110
  803MOL0     H 8340   9.343  10.082   0.632  5.3707  0.9559 -2.0590
  803MOL0     H 8341   9.357  10.192   0.764  1.2661  2.2214 -1.2042
  803MOL0     H 8342   9.529   9.971   0.657  2.9271  0.0482  0.2791
  803MOL0     H 8343   9.566  10.136   0.661 -2.0110 -1.1389 -3.5274
  803MOL0     H 8344   9.571  10.135   0.913  1.6076  0.4191 -0.2341
  803MOL0     H 8345   9.541   9.961   0.912 -1.6113  0.5678 -0.4562
  803MOL0     H 8346   9.751   9.962   0.936 -1.7855 -1.7420  0.1799
  803MOL0     H 8347   9.747   9.935   0.764  5.1472  0.8688  0.4148
  803MOL0     H 8348   9.813  10.153   0.696 -5.0393  0.1202  0.4501
  803MOL0     H 8349   9.788  10.225   0.854 -0.6908  0.2936 -0.5796
  803MOL0     H 8350   9.965  10.065   0.944  2.8331  0.3832  0.2715
  803MOL0     H 8351   9.989  10.017   0.771  1.0444  1.1059  0.0569
  803MOL0     H 8352  10.033  10.293   0.915 -1.5298 -1.2209  0.5683
  803MOL0     H 8353  10.158  10.181   0.870 -0.9606 -2.2043 -0.2984
  803MOL0     H 8354   9.985  10.365   0.694 -0.9318 -1.4597 -0.3090
  803MOL0     H 8355  10.064  10.228   0.620  1.2911 -1.2767  1.6730
  803MOL0     H 8356  10.321  10.189   0.646  2.7020  0.8191  3.8259
  803MOL0     H 8357  10.628  10.423   0.723 -0.8617 -0.7372  2.7587
  803MOL0     H 8358  10.603  10.259   0.728  5.0213  1.9648 -0.2941
  803MOL0     H 8359  10.622  10.418   0.478  1.2005 -1.0474 -0.4741
  803MOL0     H 8360  10.551  10.262   0.472 -0.7880  2.6281 -1.8465
  803MOL0     H 8361  10.767  10.169   0.540 -0.0975 -0.3733  0.9387
  803MOL0     H 8362  10.794  10.309   0.646 -3.6362 -2.5551  2.8217
  803MOL0     H 8363  10.795  10.367   0.340  0.9661 -0.1652 -0.5829
  803MOL0     H 8364  10.927  10.282   0.407 -0.3695 -1.1654  0.9705
  803MOL0     H 8365  10.975  10.672   0.598  0.9467  1.7227 -0.1853
  803MOL0     H 8366  11.105  10.963   0.458 -3.8151 -1.0971 -0.0990
  803MOL0     H 8367  11.069  10.890   0.615 -0.3718 -1.1934 -0.6221
  803MOL0     H 8368  11.230  10.880   0.545  0.3909 -1.4443 -2.6079
  803MOL0     H 8369  11.562  10.873   0.142 -1.2410 -0.7582  0.3676
  803MOL0     H 8370  11.700  11.073   0.101  0.2511  3.1565 -0.2629
  803MOL0     H 8371  11.842  11.201   0.129 -0.5774 -0.8306  1.8369
  803MOL0     H 8372  11.743  11.327   0.053  1.0948  0.1223 -0.5566
  803MOL0     H 8373  11.876  11.504   0.170  0.6740 -1.0569 -1.3176
  803MOL0     H 8374  11.939  11.377   0.277  0.2825  0.2902  1.0645
  803MOL0     H 8375  11.965  11.439  -0.027  2.4705 -0.3041 -1.2408
  803MOL0     H 8376  12.016  11.280   0.037  1.7291  0.3138  0.7935
  803MOL0     H 8377  12.130  11.557   0.115 -1.2596  0.7306 -1.3264
  803MOL0     H 8378  12.181  11.397   0.187 -2.1322 -3.9530 -1.1742
  803MOL0     H 8379  12.190  11.450  -0.111 -3.4523  2.6269  1.0057
  803MOL0     H 8380  12.288  11.333  -0.011  0.1504  0.2828  2.4710
  803MOL0     H 8381  12.322  11.632   0.033  0.9957  0.4070  0.1358
  803MOL0     H 8382  12.445  11.496   0.056  2.8920  1.4227 -2.1409
  803MOL0     H 8383  12.338  11.572  -0.214  2.6220  1.6279 -2.6936
  803MOL0     H 8384  12.475  11.475  -0.183 -2.0721 -0.8947 -0.1191
  803MOL0     H 8385  12.488  11.767  -0.158  2.7028  0.7388 -1.3145
  803MOL0     H 8386  12.570  11.670  -0.269  2.1368 -1.1040  0.9003
  803MOL0     H 8387  11.492  11.289   0.397 -2.4165  0.4791 -0.6965
  803MOL0     H 8388  11.343  11.090   0.431 -1.1045  1.1244  0.3601
  803MOL0     H 8389  11.164  10.579   0.154  1.5525 -1.0465  1.4218
  803MOL0     H 8390  11.030  10.421   0.248  1.7096 -1.1861 -1.2195
  803MOL0     H 8391   9.120  10.119   0.651 -1.8569  0.9935 -0.2878
  803MOL0     H 8392   8.886  10.074   0.668 -0.4633 -1.8557 -0.8358
  803MOL0     H 8393   8.525   9.783   0.771 -2.2831 -1.2947 -1.0325
  803MOL0     H 8394   8.297   9.760   0.789 -0.0508  0.9450 -1.4913
  803MOL0     H 8395   8.107   9.892   0.757  0.8651 -2.7435 -0.1156
  803MOL0     H 8396   7.997   9.784   0.839 -1.2468  1.2711 -1.4210
  803MOL0     H 8397   7.888   9.969   0.942  0.8995  0.6755  1.0696
  803MOL0     H 8398   7.895   9.999   0.773 -1.8594 -2.1878  1.1347
  803MOL0     H 8399   8.089  10.126   0.949  1.2017 -0.2890 -0.4392
  803MOL0     H 8400   7.931  10.198   0.883  0.4217 -0.1827 -0.5804
  803MOL0     H 8401   8.040  10.161   0.661 -1.6677  0.7437  1.2777
  803MOL0     H 8402   8.188  10.115   0.753  2.1918  1.4344 -0.6260
  803MOL0     H 8403   8.193  10.539   0.764 -1.7198  0.5682  1.6611
  803MOL0     H 8404   8.266  10.020   1.120  1.5063  1.1793  0.7402
  803MOL0     H 8405   8.508  10.073   1.110 -1.2576  1.5497 -0.2746
  804MOL0     O 8406   8.531   1.454   3.873 -0.7872 -0.1192  0.3142
  804MOL0     C 8407   8.546   1.570   3.839 -0.0539  0.1720  0.5920
  804MOL0     O 8408   8.441   1.660   3.816  0.9329  0.2715 -0.3803
  804MOL0     C 8409   8.304   1.634   3.838 -0.0619 -0.1154 -0.9839
  804MOL0     C 8410   8.252   1.542   3.940 -0.7065  0.0920  0.4136
  804MOL0     C 8411   8.118   1.548   3.965  0.0584  0.3345 -0.2774
  804MOL0     C 8412   8.023   1.627   3.894  0.3752 -0.0278 -0.8307
  804MOL0     O 8413   7.892   1.640   3.918  0.2585 -0.4927 -0.1024
  804MOL0     C 8414   7.820   1.593   4.031 -0.3247  0.0978  0.0504
  804MOL0     C 8415   7.675   1.620   4.008  0.0136 -0.6683  0.3418
  804MOL0     C 8416   7.608   1.524   3.904  1.1873  0.2379  0.5799
  804MOL0     C 8417   7.464   1.489   3.925  0.9376  0.2619 -0.3335
  804MOL0     C 8418   7.374   1.611   3.899 -0.3818  0.4053  0.1295
  804MOL0     C 8419   7.223   1.573   3.890  0.5615  0.6458 -0.4922
  804MOL0     C 8420   7.151   1.544   4.031  0.8401  1.1196 -0.2325
  804MOL0     C 8421   7.012   1.477   4.002  0.9750  0.7516 -0.4895
  804MOL0     N 8422   6.907   1.534   4.089 -0.0468 -0.3386  0.3960
  804MOL0     C 8423   6.767   1.551   4.051  0.2696 -0.2939  0.1439
  804MOL0     C 8424   6.711   1.594   4.163 -0.7867 -0.1986 -0.6858
  804MOL0     C 8425   6.564   1.624   4.171  0.1554  0.7471 -0.4254
  804MOL0     C 8426   6.531   1.768   4.147  0.1505 -0.6406  0.2136
  804MOL0     C 8427   6.385   1.794   4.161  0.7416  0.5041 -1.0534
  804MOL0     C 8428   6.295   1.703   4.062  0.0940 -1.2758  0.4898
  804MOL0     O 8429   6.261   1.582   4.135  0.4770  0.1049 -0.0410
  804MOL0     C 8430   6.156   1.497   4.096  0.0320 -0.1863  0.3559
  804MOL0     C 8431   6.141   1.372   4.150  0.7440  0.6979 -0.8208
  804MOL0     C 8432   6.028   1.289   4.120 -0.2488  0.6792 -0.1921
  804MOL0     C 8433   6.022   1.166   4.200  0.4269  0.1725 -0.2987
  804MOL0     C 8434   5.925   1.326   4.028 -0.6677 -0.8569  0.8788
  804MOL0     C 8435   5.793   1.258   3.998 -0.2970  0.8210  0.0231
  804MOL0     O 8436   5.750   1.171   4.098  0.2998  0.4536  0.7231
  804MOL0     C 8437   5.626   1.111   4.102 -0.0075  0.4446  0.3048
  804MOL0     C 8438   5.571   1.072   4.218  0.2001  0.6118 -0.4486
  804MOL0     C 8439   5.448   0.997   4.224 -0.2329  0.2977  0.6500
  804MOL0     C 8440   5.379   0.966   4.103  0.2651  0.3782  0.5263
  804MOL0     O 8441   5.281   0.873   4.104  0.0782 -0.0441 -0.0340
  804MOL0     C 8442   5.155   0.893   4.170  0.1368 -0.3511  0.2216
  804MOL0     C 8443   5.048   0.785   4.126 -0.1332 -0.4461 -0.2793
  804MOL0     C 8444   5.064   0.636   4.181 -0.5972 -0.1998  0.7177
  804MOL0     C 8445   5.090   0.621   4.335  0.1302 -0.0657 -0.1078
  804MOL0     C 8446   5.063   0.480   4.382 -0.3711  0.0641  0.3472
  804MOL0     C 8447   5.088   0.460   4.536 -0.2966 -0.1503 -0.0483
  804MOL0     C 8448   5.008   0.353   4.613  0.0873 -0.2535 -0.3397
  804MOL0     C 8449   5.044   0.355   4.765  0.3676 -0.2947  0.5126
  804MOL0    Cl 8450   5.037   0.514   4.844 -0.2070  0.1634 -0.0292
  804MOL0     C 8451   5.440   1.002   3.979 -0.1151  0.4369  0.5375
  804MOL0     C 8452   5.555   1.075   3.981  0.2199  0.5798 -0.4704
  804MOL0     O 8453   5.738   1.280   3.895 -0.4890 -0.1251 -0.3071
  804MOL0     C 8454   5.957   1.446   3.957  0.5408  0.2267  0.5659
  804MOL0     C 8455   6.071   1.529   3.990 -0.2427  0.0429  0.9386
  804MOL0     N 8456   6.801   1.588   4.273  0.8736 -0.2431  0.1261
  804MOL0     N 8457   6.924   1.544   4.229 -0.0071  0.1082  0.3851
  804MOL0     C 8458   8.069   1.710   3.802 -0.4448 -0.1670  0.8218
  804MOL0     C 8459   8.208   1.720   3.773 -0.0411  0.6192  0.4480
  804MOL0     C 8460   8.676   1.622   3.848 -0.7322  0.2841 -0.1454
  804MOL0     C 8461   8.781   1.533   3.822 -0.1875 -0.0157  0.3955
  804MOL0     C 8462   8.912   1.586   3.823 -0.0190 -0.1643  1.4602
  804MOL0     C 8463   8.927   1.717   3.861 -0.0632  0.6056 -0.3717
  804MOL0     O 8464   9.051   1.769   3.859  0.8899 -0.5970 -0.3265
  804MOL0     C 8465   9.136   1.724   3.968  0.0268  0.0249  0.5933
  804MOL0     C 8466   9.116   1.816   4.083  0.4363 -0.3914 -0.5588
  804MOL0     C 8467   9.180   1.773   4.218  0.3821  0.2743 -0.0413
  804MOL0     C 8468   9.179   1.888   4.325 -0.6614  0.0101 -0.1679
  804MOL0     C 8469   9.092   1.862   4.439  0.5164  0.6537 -0.4718
  804MOL0     C 8470   9.026   1.847   4.540 -0.2473  1.3716 -0.0929
  804MOL0     C 8471   8.824   1.798   3.899 -0.3343 -0.0391  0.9347
  804MOL0     C 8472   8.697   1.753   3.891 -0.1167  0.6443  0.6758
  804MOL0     H 8473   8.322   1.492   4.006 -1.1760 -1.3948 -0.1872
  804MOL0     H 8474   8.076   1.488   4.045 -1.6912  2.3431  0.3887
  804MOL0     H 8475   7.836   1.485   4.043  2.9912  0.5014  0.1054
  804MOL0     H 8476   7.853   1.637   4.126  0.9568 -0.2441 -0.2216
  804MOL0     H 8477   7.620   1.612   4.103  1.0306  0.3614  1.0420
  804MOL0     H 8478   7.660   1.717   3.960  2.4971 -0.0935  0.6014
  804MOL0     H 8479   7.613   1.555   3.799 -1.5192 -1.2032 -0.0511
  804MOL0     H 8480   7.672   1.435   3.907  0.9684  0.0408 -0.4170
  804MOL0     H 8481   7.437   1.404   3.862 -2.4512  1.2709 -0.4152
  804MOL0     H 8482   7.458   1.464   4.032  0.3402 -0.3435 -0.5019
  804MOL0     H 8483   7.386   1.690   3.973 -1.3120 -1.9942  3.0233
  804MOL0     H 8484   7.389   1.648   3.797 -0.3345 -0.3385 -0.1441
  804MOL0     H 8485   7.175   1.658   3.840  4.0656  3.2281  0.1430
  804MOL0     H 8486   7.215   1.482   3.830  2.3941  0.2925 -0.2601
  804MOL0     H 8487   7.217   1.480   4.090 -0.0945  0.6741  0.3520
  804MOL0     H 8488   7.133   1.630   4.096 -1.2177  0.4446  0.1504
  804MOL0     H 8489   7.008   1.368   4.015 -0.8212  1.0567  2.1486
  804MOL0     H 8490   6.973   1.493   3.901 -0.9183 -1.7894 -0.2739
  804MOL0     H 8491   6.718   1.551   3.954 -0.6653  1.8695  0.5402
  804MOL0     H 8492   6.508   1.566   4.097 -2.4371 -2.2149  3.4817
  804MOL0     H 8493   6.524   1.589   4.266  1.6681  0.9734  0.3176
  804MOL0     H 8494   6.570   1.802   4.051 -1.0360  0.4211  0.0792
  804MOL0     H 8495   6.589   1.824   4.221 -0.2714 -1.0379  0.8658
  804MOL0     H 8496   6.363   1.892   4.118 -0.2189  0.0549 -1.6246
  804MOL0     H 8497   6.345   1.811   4.262 -2.4171  0.2657 -2.1531
  804MOL0     H 8498   6.345   1.683   3.967 -2.8338  3.2973 -2.4009
  804MOL0     H 8499   6.201   1.754   4.040  1.0438  0.7427  0.8660
  804MOL0     H 8500   6.214   1.347   4.226  1.6406  2.5568 -0.9948
  804MOL0     H 8501   5.928   1.177   4.254  0.3838 -0.8002 -0.1474
  804MOL0     H 8502   6.007   1.074   4.142 -0.0781  1.2874 -2.0032
  804MOL0     H 8503   6.104   1.147   4.270  0.3549  0.7795 -0.0443
  804MOL0     H 8504   5.612   1.095   4.316  0.7759 -2.5327  0.1724
  804MOL0     H 8505   5.415   0.979   4.325  3.0159  1.8758  2.1268
  804MOL0     H 8506   5.170   0.904   4.278  2.7495  0.9531 -0.1924
  804MOL0     H 8507   5.113   0.991   4.145  0.4258 -0.6094 -1.3600
  804MOL0     H 8508   4.947   0.818   4.152 -0.2417 -0.2236 -0.9711
  804MOL0     H 8509   5.054   0.793   4.017 -0.5252 -0.7354 -0.3245
  804MOL0     H 8510   5.147   0.574   4.147 -2.5777 -2.1945 -0.7535
  804MOL0     H 8511   4.971   0.583   4.158 -0.6205  0.6175 -1.2787
  804MOL0     H 8512   5.193   0.650   4.355  0.4064 -1.9384  1.4882
  804MOL0     H 8513   5.025   0.696   4.381 -0.6912 -0.2439 -0.9316
  804MOL0     H 8514   5.124   0.412   4.322  0.0447 -0.4822  1.3753
  804MOL0     H 8515   4.956   0.471   4.358  0.1669 -2.2355 -1.5642
  804MOL0     H 8516   5.196   0.441   4.544  0.2351  2.6265  0.4913
  804MOL0     H 8517   5.075   0.554   4.589 -0.2957 -0.5894  0.7567
  804MOL0     H 8518   5.021   0.255   4.568  2.1713  0.0709 -0.5401
  804MOL0     H 8519   4.901   0.368   4.597  0.2405 -0.7723 -2.0173
  804MOL0     H 8520   5.150   0.328   4.771  0.7010  1.2445  2.4418
  804MOL0     H 8521   4.982   0.281   4.818  0.9135 -0.9012  0.3158
  804MOL0     H 8522   5.398   0.969   3.885  2.5254 -1.0923 -0.2099
  804MOL0     H 8523   5.603   1.096   3.886 -0.5159 -0.6647 -1.1448
  804MOL0     H 8524   5.907   1.482   3.868  0.4350 -1.0215  0.1029
  804MOL0     H 8525   6.082   1.620   3.932  0.2218 -0.3532  0.3960
  804MOL0     H 8526   7.998   1.761   3.737  1.1932  1.6362  0.3675
  804MOL0     H 8527   8.249   1.793   3.704  2.0866 -1.8989 -1.1378
  804MOL0     H 8528   8.757   1.429   3.800 -1.3378  0.1968  0.6140
  804MOL0     H 8529   8.995   1.531   3.781  1.4984  3.0803 -0.1949
  804MOL0     H 8530   9.105   1.623   3.997  2.1393 -0.2108  2.2968
  804MOL0     H 8531   9.240   1.727   3.936 -0.5165 -0.0865 -1.3103
  804MOL0     H 8532   9.008   1.827   4.099  0.0770 -1.0310 -2.3745
  804MOL0     H 8533   9.164   1.909   4.050  1.7596 -1.3695 -1.4724
  804MOL0     H 8534   9.286   1.766   4.195 -0.0972  3.4614 -4.5978
  804MOL0     H 8535   9.131   1.681   4.252  1.3812 -0.6262 -0.9492
  804MOL0     H 8536   9.147   1.979   4.274 -0.5681  1.0506  1.5923
  804MOL0     H 8537   9.284   1.904   4.348 -0.3421 -1.7066 -0.2949
  804MOL0     H 8538   8.991   1.821   4.638  0.7258  0.2230 -0.0255
  804MOL0     H 8539   8.845   1.899   3.931 -0.4948  0.5998 -0.9061
  804MOL0     H 8540   8.611   1.813   3.917  1.7912  2.5388  2.9937
  805MOL0     O 8541   3.462  10.634   2.730  0.8666 -0.3242  0.2797
  805MOL0     C 8542   3.400  10.586   2.825  0.1679 -0.1403  0.2278
  805MOL0     O 8543   3.453  10.556   2.942 -0.1779 -0.2017 -0.4841
  805MOL0     C 8544   3.592  10.570   2.963  0.1735  0.0336 -1.2186
  805MOL0     C 8545   3.630  10.618   3.088 -0.5249  0.2340 -0.4702
  805MOL0     C 8546   3.762  10.630   3.120  0.2165 -0.6112 -0.0655
  805MOL0     C 8547   3.864  10.590   3.032  0.2445  0.2171 -0.0576
  805MOL0     O 8548   3.995  10.601   3.081 -0.4185  0.0330  0.0082
  805MOL0     C 8549   4.113  10.565   3.002  1.0746  0.3693  0.0881
  805MOL0     C 8550   4.234  10.601   3.072  0.4406 -0.0292 -0.4456
  805MOL0     C 8551   4.367  10.593   2.997 -0.1051  0.1904  0.3235
  805MOL0     C 8552   4.417  10.448   2.959 -0.6233 -0.3429  0.5575
  805MOL0     C 8553   4.548  10.464   2.886 -0.0315  0.8920  0.0965
  805MOL0     C 8554   4.615  10.332   2.853 -0.6634 -0.1790 -0.5104
  805MOL0     C 8555   4.734  10.344   2.760  0.7071  0.2587  0.8881
  805MOL0     C 8556   4.765  10.213   2.684 -0.0092  0.5353 -0.3602
  805MOL0     N 8557   4.799  10.103   2.771 -0.3306  0.3604 -0.2541
  805MOL0     C 8558   4.717  10.001   2.812 -0.4893  0.3683  1.1658
  805MOL0     C 8559   4.788   9.903   2.874  0.2406 -0.6597 -0.5144
  805MOL0     C 8560   4.748   9.768   2.934  0.1506  0.6896  0.2957
  805MOL0     C 8561   4.623   9.713   2.859 -0.1432 -0.0631  0.4150
  805MOL0     C 8562   4.663   9.692   2.710 -0.4407 -0.6377 -0.2219
  805MOL0     C 8563   4.737   9.560   2.693  0.0414 -1.2206  0.7070
  805MOL0     O 8564   4.711   9.528   2.557 -0.3908 -0.4516 -0.8675
  805MOL0     C 8565   4.825   9.485   2.493 -0.4340  0.0906  0.1847
  805MOL0     C 8566   4.918   9.401   2.550 -0.5038  0.2107 -0.0569
  805MOL0     C 8567   5.034   9.366   2.487 -0.2026 -0.5174 -0.4667
  805MOL0     C 8568   5.130   9.263   2.540 -0.7756  0.2849  0.2785
  805MOL0     C 8569   5.061   9.411   2.355  0.4933 -0.3822  0.2038
  805MOL0     C 8570   5.196   9.398   2.285 -0.3042  0.3144 -0.9621
  805MOL0     O 8571   5.302   9.460   2.345  0.2768  0.2313  0.5797
  805MOL0     C 8572   5.434   9.438   2.308  0.2193 -0.1757  0.7785
  805MOL0     C 8573   5.473   9.303   2.283  0.5572 -0.8368 -0.3304
  805MOL0     C 8574   5.605   9.274   2.254  0.5559 -0.3903  0.4724
  805MOL0     C 8575   5.707   9.366   2.260  0.1421 -1.0261  0.7019
  805MOL0     O 8576   5.838   9.339   2.233  0.1822  0.0156 -0.3709
  805MOL0     C 8577   5.903   9.257   2.338 -0.7020  0.2715  0.0935
  805MOL0     C 8578   6.022   9.187   2.280 -0.3422  0.9775  0.4600
  805MOL0     C 8579   6.123   9.289   2.207  0.6172  0.3672 -0.6100
  805MOL0     C 8580   6.264   9.240   2.194  0.4637  0.0722 -0.3271
  805MOL0     C 8581   6.282   9.111   2.110  0.0529  0.9033  0.0406
  805MOL0     C 8582   6.186   9.079   1.996 -0.7820 -0.4806 -0.2620
  805MOL0     C 8583   6.223   9.169   1.880  0.0682  0.1094  0.0786
  805MOL0     C 8584   6.124   9.167   1.764  0.3211 -0.1152  0.7526
  805MOL0    Cl 8585   5.966   9.238   1.818 -0.0310  0.0913  0.1048
  805MOL0     C 8586   5.668   9.496   2.302  0.4183  0.4383 -1.0131
  805MOL0     C 8587   5.530   9.536   2.313 -0.6338 -0.6234 -0.3884
  805MOL0     O 8588   5.200   9.322   2.191  0.0298  0.6812  0.0539
  805MOL0     C 8589   4.958   9.481   2.292  1.2390 -0.0336  0.8496
  805MOL0     C 8590   4.848   9.522   2.361  1.1591 -0.8633  0.0904
  805MOL0     N 8591   4.920   9.952   2.863  0.7597 -0.5831 -0.3672
  805MOL0     N 8592   4.924  10.068   2.797 -0.7118  0.5479 -0.3338
  805MOL0     C 8593   3.824  10.543   2.914  0.8318  0.7095  0.3847
  805MOL0     C 8594   3.689  10.534   2.865  0.9226  0.0415 -1.0277
  805MOL0     C 8595   3.252  10.579   2.828 -0.5852  0.4327  0.3574
  805MOL0     C 8596   3.182  10.521   2.933 -0.8613 -0.0538  0.3265
  805MOL0     C 8597   3.049  10.488   2.914  0.0188  0.2911 -0.2057
  805MOL0     C 8598   2.970  10.551   2.804 -0.6891  0.2236 -1.0133
  805MOL0     O 8599   2.832  10.552   2.811 -0.8123 -0.6547  1.2651
  805MOL0     C 8600   2.743  10.623   2.717 -0.7351 -0.8105 -0.1383
  805MOL0     C 8601   2.616  10.653   2.787  0.6137  0.2508  0.0799
  805MOL0     C 8602   2.535  10.763   2.712  0.4685  0.1983 -0.4993
  805MOL0     C 8603   2.471  10.713   2.586  1.0313  0.0191 -0.0311
  805MOL0     C 8604   2.388  10.821   2.530  0.3748  0.7358 -0.0445
  805MOL0     C 8605   2.318  10.912   2.476 -0.4190 -0.5638  0.8606
  805MOL0     C 8606   3.048  10.628   2.717  0.4461  0.0953  0.5747
  805MOL0     C 8607   3.185  10.624   2.717  0.1152 -0.2766  0.1808
  805MOL0     H 8608   3.543  10.646   3.147 -1.4772 -2.1728 -0.6217
  805MOL0     H 8609   3.784  10.670   3.219 -0.6856 -0.2911  0.0115
  805MOL0     H 8610   4.111  10.457   2.979  2.1015  0.4849 -0.6233
  805MOL0     H 8611   4.105  10.617   2.906  2.3142  0.9411  0.2855
  805MOL0     H 8612   4.213  10.702   3.109  1.4351  0.0593 -0.0931
  805MOL0     H 8613   4.240  10.546   3.167  2.6113  3.8063  1.8605
  805MOL0     H 8614   4.372  10.666   2.916  3.3103  1.3739  1.4389
  805MOL0     H 8615   4.446  10.620   3.068 -0.7126  1.8871  0.4086
  805MOL0     H 8616   4.430  10.392   3.052  0.7442 -3.2649 -1.2679
  805MOL0     H 8617   4.350  10.389   2.896  2.1110 -0.4366 -2.4622
  805MOL0     H 8618   4.522  10.503   2.787  2.2563 -2.7182 -2.1694
  805MOL0     H 8619   4.620  10.526   2.940  1.1238 -2.4977  2.8677
  805MOL0     H 8620   4.652  10.278   2.941  1.0824 -1.0792 -1.7273
  805MOL0     H 8621   4.541  10.266   2.807 -1.8036  1.4082 -1.0412
  805MOL0     H 8622   4.710  10.419   2.684 -0.8215 -0.5821  0.4940
  805MOL0     H 8623   4.825  10.393   2.794  1.2114  1.1792 -1.5743
  805MOL0     H 8624   4.847  10.231   2.615 -0.3056  1.2555 -0.5369
  805MOL0     H 8625   4.680  10.199   2.616  0.0891  1.7496 -0.7539
  805MOL0     H 8626   4.610   9.992   2.798 -0.2867 -1.3083  0.3644
  805MOL0     H 8627   4.834   9.700   2.930 -0.0463  0.4810 -2.5645
  805MOL0     H 8628   4.729   9.779   3.041 -1.2746  0.5185  0.0757
  805MOL0     H 8629   4.536   9.779   2.872 -0.4509  0.3800 -3.0353
  805MOL0     H 8630   4.599   9.613   2.898 -1.8176  0.0369 -0.2757
  805MOL0     H 8631   4.730   9.771   2.675  0.7894 -1.1078  0.9682
  805MOL0     H 8632   4.579   9.700   2.640  0.1138 -2.6990 -1.1967
  805MOL0     H 8633   4.690   9.480   2.750 -0.2285 -3.6888 -2.6301
  805MOL0     H 8634   4.841   9.581   2.718 -0.6156  1.7254  1.3447
  805MOL0     H 8635   4.889   9.352   2.643 -1.9118 -1.2500 -1.2195
  805MOL0     H 8636   5.234   9.298   2.545 -1.1821  1.7281 -0.5691
  805MOL0     H 8637   5.103   9.236   2.642 -2.9996  2.4376  0.3483
  805MOL0     H 8638   5.140   9.172   2.480 -0.8311 -0.1104  0.8605
  805MOL0     H 8639   5.401   9.222   2.273 -2.9582  2.0908 -0.8064
  805MOL0     H 8640   5.629   9.171   2.229 -0.3759 -1.0887  2.2974
  805MOL0     H 8641   5.933   9.325   2.418  0.5128  1.0962 -1.0230
  805MOL0     H 8642   5.844   9.179   2.386 -2.5177  1.6570  0.2053
  805MOL0     H 8643   6.079   9.117   2.343  2.1855 -0.6307 -3.2604
  805MOL0     H 8644   5.989   9.115   2.205  1.8618  0.0742  0.2706
  805MOL0     H 8645   6.120   9.385   2.258  0.1438  0.8053 -1.4488
  805MOL0     H 8646   6.083   9.313   2.108 -2.7433 -1.3094  0.1643
  805MOL0     H 8647   6.312   9.329   2.152  1.2879 -0.6608 -0.9719
  805MOL0     H 8648   6.315   9.220   2.289  1.3686 -3.0849 -1.3602
  805MOL0     H 8649   6.269   9.034   2.186 -2.0681  0.2047 -0.9414
  805MOL0     H 8650   6.382   9.104   2.066 -0.3861 -1.1356 -0.7166
  805MOL0     H 8651   6.209   8.978   1.961  0.3282 -0.0292 -0.8928
  805MOL0     H 8652   6.082   9.103   2.019 -0.2231  2.0895 -0.1144
  805MOL0     H 8653   6.327   9.150   1.851  0.5226  0.3632  1.4918
  805MOL0     H 8654   6.224   9.272   1.917  0.5516  0.0844  0.1450
  805MOL0     H 8655   6.106   9.065   1.730 -2.7971 -0.4491  2.9840
  805MOL0     H 8656   6.168   9.231   1.688 -2.8712 -2.8923 -3.9083
  805MOL0     H 8657   5.742   9.572   2.325 -0.0324  0.7755 -0.6413
  805MOL0     H 8658   5.493   9.633   2.344 -0.7615 -0.7576 -0.1215
  805MOL0     H 8659   4.966   9.529   2.195  1.3355  4.0125  2.6523
  805MOL0     H 8660   4.771   9.586   2.317  0.0870 -1.1031  1.5037
  805MOL0     H 8661   3.903  10.510   2.848 -0.9974 -2.6986 -0.3231
  805MOL0     H 8662   3.670  10.490   2.768 -0.7092 -2.2538  0.2423
  805MOL0     H 8663   3.243  10.475   3.010 -0.7969 -0.0656  0.2682
  805MOL0     H 8664   2.982  10.436   2.983  0.0160 -0.2844 -0.6374
  805MOL0     H 8665   2.792  10.718   2.693  1.0097 -1.4418  0.7544
  805MOL0     H 8666   2.752  10.558   2.629  4.1313 -2.8327  1.4489
  805MOL0     H 8667   2.633  10.693   2.887  0.7724 -0.9441  0.5431
  805MOL0     H 8668   2.558  10.561   2.801 -0.4476  0.7202 -0.9680
  805MOL0     H 8669   2.592  10.855   2.695 -0.7340  0.6382 -2.4493
  805MOL0     H 8670   2.453  10.782   2.782  2.9890 -2.3110  3.5267
  805MOL0     H 8671   2.404  10.629   2.605 -1.3175  1.8145  0.1665
  805MOL0     H 8672   2.547  10.685   2.512 -0.2499 -2.7658 -0.4261
  805MOL0     H 8673   2.259  10.983   2.423  2.5055 -0.2380 -2.3505
  805MOL0     H 8674   3.004  10.691   2.640 -1.1328  0.6910  1.8966
  805MOL0     H 8675   3.238  10.677   2.638 -2.0730 -0.8592 -1.8158
  806MOL0     O 8676   0.170   3.554   4.660 -0.0820 -0.3971  1.0433
  806MOL0     C 8677   0.079   3.636   4.700  0.8121 -0.0721 -0.5958
  806MOL0     O 8678  -0.040   3.661   4.633  0.1763  0.2147  0.1345
  806MOL0     C 8679  -0.094   3.595   4.529 -0.3914  0.1569  0.2723
  806MOL0     C 8680  -0.023   3.532   4.431 -0.8206  0.0967 -1.1729
  806MOL0     C 8681  -0.084   3.481   4.317  0.0070 -0.3497  0.5002
  806MOL0     C 8682  -0.222   3.475   4.306 -1.4490 -0.4642  0.2128
  806MOL0     O 8683  -0.281   3.416   4.203  0.4691 -0.1920 -0.2715
  806MOL0     C 8684  -0.299   3.507   4.101 -0.1251  0.2345  0.9777
  806MOL0     C 8685  -0.346   3.433   3.971  0.8688 -0.2662  0.0477
  806MOL0     C 8686  -0.352   3.517   3.850  0.4369 -1.4278  0.5566
  806MOL0     C 8687  -0.443   3.639   3.881 -0.1390  0.0646 -0.2953
  806MOL0     C 8688  -0.460   3.720   3.755  0.4658  0.2180  0.2745
  806MOL0     C 8689  -0.492   3.659   3.616  0.4300  1.0049  0.4767
  806MOL0     C 8690  -0.628   3.587   3.605  0.8273 -0.6606 -0.4609
  806MOL0     C 8691  -0.713   3.600   3.479 -0.2209 -0.5477 -0.4226
  806MOL0     N 8692  -0.826   3.502   3.480 -0.5447  0.6173 -0.3009
  806MOL0     C 8693  -0.953   3.547   3.476  0.0975  0.5759 -0.2356
  806MOL0     C 8694  -1.018   3.431   3.484 -0.0877 -0.0982  0.2847
  806MOL0     C 8695  -1.158   3.413   3.519  0.1741  0.0953 -0.5656
  806MOL0     C 8696  -1.247   3.391   3.404  1.0058  0.5484  0.8508
  806MOL0     C 8697  -1.397   3.361   3.455 -0.2120 -0.2289 -0.1369
  806MOL0     C 8698  -1.476   3.475   3.525 -0.3161  0.0030  0.5879
  806MOL0     O 8699  -1.541   3.552   3.426 -0.1506 -0.2483 -0.0538
  806MOL0     C 8700  -1.644   3.621   3.475 -0.1188  1.0998  0.9557
  806MOL0     C 8701  -1.693   3.717   3.387  0.1242  0.6161  0.4534
  806MOL0     C 8702  -1.801   3.802   3.416  0.3439  0.3622 -0.1184
  806MOL0     C 8703  -1.817   3.915   3.323  0.0897 -0.4403  0.6755
  806MOL0     C 8704  -1.875   3.772   3.530 -0.2851 -0.0779 -0.0424
  806MOL0     C 8705  -2.001   3.839   3.566  0.8018  0.1598 -0.0285
  806MOL0     O 8706  -2.089   3.756   3.628  0.3941  0.2236  0.1379
  806MOL0     C 8707  -2.207   3.808   3.675  0.2946 -0.3405  0.0997
  806MOL0     C 8708  -2.201   3.914   3.760 -0.1697 -0.7522  0.5021
  806MOL0     C 8709  -2.308   3.976   3.818  0.0799 -0.1523 -1.0472
  806MOL0     C 8710  -2.437   3.912   3.799 -0.0190 -0.9396  0.5935
  806MOL0     O 8711  -2.550   3.924   3.874  0.2804 -0.7366 -0.6721
  806MOL0     C 8712  -2.556   4.041   3.954 -0.5875 -0.8000  0.2158
  806MOL0     C 8713  -2.523   4.010   4.100 -0.1544 -0.1857 -0.1268
  806MOL0     C 8714  -2.629   3.928   4.184 -0.0261  0.1992 -0.1451
  806MOL0     C 8715  -2.765   3.997   4.185 -0.7234 -0.0647 -1.0931
  806MOL0     C 8716  -2.873   3.922   4.268  0.0834  0.1045  0.1335
  806MOL0     C 8717  -2.901   3.781   4.216  1.3080 -0.5905 -0.1386
  806MOL0     C 8718  -3.031   3.767   4.136 -0.6350 -0.0611 -0.5407
  806MOL0     C 8719  -3.154   3.760   4.235  0.0537  0.5192  0.1150
  806MOL0    Cl 8720  -3.288   3.687   4.145 -0.3845  0.2549 -0.3106
  806MOL0     C 8721  -2.450   3.807   3.708 -0.7216 -0.5143  0.4474
  806MOL0     C 8722  -2.338   3.753   3.647 -0.1965  0.9473  0.5710
  806MOL0     O 8723  -2.024   3.954   3.529  0.5059 -0.6492  0.1234
  806MOL0     C 8724  -1.817   3.684   3.626  0.7917 -0.7928 -0.4590
  806MOL0     C 8725  -1.704   3.615   3.606  0.3018  0.5015  0.5806
  806MOL0     N 8726  -0.933   3.326   3.478  0.1292 -0.3927  0.2052
  806MOL0     N 8727  -0.807   3.366   3.491 -0.1193 -0.9583  0.0048
  806MOL0     C 8728  -0.301   3.523   4.415 -0.0596 -0.2053 -0.0643
  806MOL0     C 8729  -0.241   3.597   4.516  0.2984  0.9325 -0.1636
  806MOL0     C 8730   0.112   3.705   4.828 -0.7608  0.2313 -0.2406
  806MOL0     C 8731   0.053   3.827   4.852 -0.8256 -0.0089  0.9065
  806MOL0     C 8732   0.092   3.899   4.967 -0.0048  0.0372 -0.5841
  806MOL0     C 8733   0.164   3.840   5.071 -0.3035  0.9759 -1.0540
  806MOL0     O 8734   0.188   3.900   5.191  0.1233  0.2613  0.4146
  806MOL0     C 8735   0.126   4.026   5.221 -0.9913  0.6206 -0.0349
  806MOL0     C 8736   0.160   4.034   5.377  0.7473 -0.4243  0.2249
  806MOL0     C 8737   0.137   4.173   5.433 -0.0891 -0.3877  0.6226
  806MOL0     C 8738   0.170   4.181   5.576 -0.0886  0.0536 -1.0393
  806MOL0     C 8739   0.308   4.129   5.600  1.3759 -0.1451 -0.8339
  806MOL0     C 8740   0.412   4.081   5.620  0.3498  0.4010 -0.7105
  806MOL0     C 8741   0.226   3.719   5.052  0.5728  0.7150  0.0936
  806MOL0     C 8742   0.201   3.653   4.926 -0.0326 -0.2810  0.4458
  806MOL0     H 8743   0.085   3.528   4.435 -0.8583  0.2675  0.6690
  806MOL0     H 8744  -0.028   3.427   4.242  2.3190  2.1398  0.2971
  806MOL0     H 8745  -0.374   3.581   4.130 -0.3048  0.3018  0.3602
  806MOL0     H 8746  -0.209   3.564   4.077  0.6431 -1.2278  0.2326
  806MOL0     H 8747  -0.289   3.345   3.942 -1.5500 -2.9969  2.7697
  806MOL0     H 8748  -0.445   3.389   3.992  0.7217 -0.1034 -0.2916
  806MOL0     H 8749  -0.254   3.553   3.818 -0.3233  4.9877  3.7599
  806MOL0     H 8750  -0.401   3.458   3.772 -0.8611  2.0957 -1.5132
  806MOL0     H 8751  -0.541   3.604   3.915 -0.2302  0.1885 -0.4255
  806MOL0     H 8752  -0.389   3.702   3.953  0.2699 -1.0492  0.4026
  806MOL0     H 8753  -0.528   3.802   3.781 -0.5734 -1.2484  2.4351
  806MOL0     H 8754  -0.365   3.773   3.742 -0.5807  2.1364  0.0339
  806MOL0     H 8755  -0.481   3.736   3.539 -2.7139  1.4490  0.3279
  806MOL0     H 8756  -0.425   3.577   3.591  1.8900  1.3634  2.8004
  806MOL0     H 8757  -0.619   3.480   3.626 -1.5774 -1.2435 -2.0090
  806MOL0     H 8758  -0.693   3.629   3.681  1.5195  0.7055 -0.5993
  806MOL0     H 8759  -0.657   3.590   3.386  1.8248 -0.0390  0.6980
  806MOL0     H 8760  -0.756   3.701   3.484  2.1949  0.4894  2.5180
  806MOL0     H 8761  -0.989   3.649   3.483 -2.1554 -0.0711 -1.5342
  806MOL0     H 8762  -1.175   3.324   3.579 -1.3646 -3.1016 -5.1622
  806MOL0     H 8763  -1.190   3.502   3.574  0.8868  0.5385 -0.8478
  806MOL0     H 8764  -1.214   3.301   3.351  0.7544 -0.8414  2.9581
  806MOL0     H 8765  -1.258   3.479   3.340 -3.2082  0.1772  0.7732
  806MOL0     H 8766  -1.391   3.274   3.521 -0.7371 -1.4529 -1.6452
  806MOL0     H 8767  -1.464   3.330   3.374  1.3676 -2.1501 -0.7994
  806MOL0     H 8768  -1.412   3.551   3.570 -1.1872  1.3977 -0.4423
  806MOL0     H 8769  -1.551   3.432   3.592 -2.3278  0.1852 -1.4276
  806MOL0     H 8770  -1.647   3.722   3.289  3.3782 -2.9157  1.5158
  806MOL0     H 8771  -1.771   4.009   3.352  0.5173 -0.3060 -0.3799
  806MOL0     H 8772  -1.772   3.871   3.233 -0.3542  0.5916 -0.0801
  806MOL0     H 8773  -1.923   3.940   3.309  0.5563  0.6931 -1.2945
  806MOL0     H 8774  -2.100   3.947   3.782  0.2575  0.0907 -2.3543
  806MOL0     H 8775  -2.287   4.067   3.874  0.9862  0.3622 -2.1941
  806MOL0     H 8776  -2.480   4.116   3.928 -0.8034  0.3959  2.6872
  806MOL0     H 8777  -2.653   4.089   3.944 -0.4650 -0.8854 -1.7788
  806MOL0     H 8778  -2.429   3.955   4.107  0.0464  0.0795 -0.6487
  806MOL0     H 8779  -2.513   4.110   4.144  0.1700  0.9522 -2.6109
  806MOL0     H 8780  -2.595   3.919   4.288 -0.6699  1.5539  0.2096
  806MOL0     H 8781  -2.628   3.825   4.148 -0.3399 -0.2718  1.1308
  806MOL0     H 8782  -2.753   4.099   4.222  1.0894  0.0769 -1.9893
  806MOL0     H 8783  -2.800   4.001   4.081 -2.1735 -0.2474 -0.6380
  806MOL0     H 8784  -2.969   3.973   4.265 -1.2984 -2.3942 -1.5531
  806MOL0     H 8785  -2.839   3.909   4.371 -0.1426 -3.7809 -0.1404
  806MOL0     H 8786  -2.817   3.742   4.159  0.1759 -0.6463 -1.8281
  806MOL0     H 8787  -2.901   3.727   4.312  1.9269  1.8008  1.3006
  806MOL0     H 8788  -3.032   3.686   4.063 -1.9022  0.5224 -1.2012
  806MOL0     H 8789  -3.038   3.863   4.085  1.2003  1.4319  1.7838
  806MOL0     H 8790  -3.189   3.861   4.260  1.9437  2.3264 -3.6278
  806MOL0     H 8791  -3.133   3.703   4.326  3.6220  2.6155  0.7963
  806MOL0     H 8792  -2.554   3.781   3.688 -1.6135 -0.6367  4.5031
  806MOL0     H 8793  -2.334   3.674   3.573 -1.2072  3.3897 -2.3103
  806MOL0     H 8794  -1.866   3.693   3.723  1.3921  1.9919 -0.3426
  806MOL0     H 8795  -1.673   3.553   3.689 -0.7412  1.0616  1.4065
  806MOL0     H 8796  -0.409   3.528   4.409 -0.3719 -2.9793  1.7442
  806MOL0     H 8797  -0.292   3.654   4.593  1.6190 -1.0853  2.3352
  806MOL0     H 8798  -0.017   3.871   4.782 -0.7615 -2.9330 -1.1681
  806MOL0     H 8799   0.048   3.998   4.982  0.5768  0.3893 -1.1583
  806MOL0     H 8800   0.184   4.108   5.178  0.7346  0.1038  1.2054
  806MOL0     H 8801   0.021   4.031   5.192 -1.0867 -4.2508 -1.3054
  806MOL0     H 8802   0.255   3.989   5.406  1.2469  0.5800  0.1851
  806MOL0     H 8803   0.085   3.965   5.417 -1.0029  0.6411 -1.0385
  806MOL0     H 8804   0.034   4.207   5.423  0.1452  0.3107  0.4477
  806MOL0     H 8805   0.196   4.243   5.372  1.7102 -1.4192  1.1131
  806MOL0     H 8806   0.112   4.108   5.633  1.1364 -1.6307 -1.8901
  806MOL0     H 8807   0.162   4.285   5.611 -0.1564  0.4238 -2.1148
  806MOL0     H 8808   0.506   4.042   5.653 -0.3184 -0.3433  0.3831
  806MOL0     H 8809   0.300   3.680   5.122 -0.2465  0.3057  0.7474
  806MOL0     H 8810   0.255   3.563   4.899  1.1157  1.0160 -1.9252
  807MOL0     O 8811   6.444   8.224   7.991 -0.2403 -0.0393  0.9304
  807MOL0     C 8812   6.435   8.285   7.885 -0.8853  0.2005  0.0044
  807MOL0     O 8813   6.388   8.228   7.765 -0.0743 -0.4424 -0.8902
  807MOL0     C 8814   6.359   8.095   7.749 -0.5381  0.3092 -0.7335
  807MOL0     C 8815   6.239   8.064   7.683  0.0370 -0.3986 -0.8983
  807MOL0     C 8816   6.211   7.928   7.649  0.2431  0.9775  0.3810
  807MOL0     C 8817   6.307   7.827   7.681  0.3667 -0.3160 -0.2338
  807MOL0     O 8818   6.278   7.699   7.632  0.3360 -0.2643 -0.0671
  807MOL0     C 8819   6.382   7.625   7.574  0.2480 -1.1732  0.7600
  807MOL0     C 8820   6.340   7.479   7.562 -0.1395 -1.2303 -1.1754
  807MOL0     C 8821   6.264   7.453   7.432 -0.2464  0.6182 -0.1172
  807MOL0     C 8822   6.122   7.498   7.434 -0.0581 -0.7814 -0.0003
  807MOL0     C 8823   6.041   7.443   7.314  0.4661 -0.4643 -0.3528
  807MOL0     C 8824   5.898   7.474   7.356 -0.5207 -0.3586 -1.0473
  807MOL0     C 8825   5.786   7.465   7.249 -0.1727  0.0445 -0.3378
  807MOL0     C 8826   5.747   7.316   7.205 -0.6900 -0.1464 -0.4901
  807MOL0     N 8827   5.645   7.274   7.304  0.4244 -0.4960  0.1390
  807MOL0     C 8828   5.653   7.203   7.428 -0.6657  0.0852  0.5409
  807MOL0     C 8829   5.532   7.192   7.477  0.4023 -0.7583  0.6412
  807MOL0     C 8830   5.465   7.127   7.595 -0.6048 -1.1065 -0.0601
  807MOL0     C 8831   5.357   7.030   7.542 -0.3715  0.2873  0.4758
  807MOL0     C 8832   5.325   6.925   7.644  0.4605  0.3738  0.4142
  807MOL0     C 8833   5.243   6.817   7.585  0.0430 -0.9270  1.0083
  807MOL0     O 8834   5.105   6.832   7.620 -0.0296  0.5852  0.1223
  807MOL0     C 8835   5.018   6.872   7.522 -0.8730  0.5297  0.0333
  807MOL0     C 8836   4.880   6.881   7.556  0.1225 -0.1382 -0.5252
  807MOL0     C 8837   4.779   6.905   7.466 -0.0242  0.0682  0.7884
  807MOL0     C 8838   4.635   6.897   7.523 -0.9196 -0.3033  0.0683
  807MOL0     C 8839   4.820   6.941   7.334  0.5935 -0.4805  0.8525
  807MOL0     C 8840   4.720   6.961   7.225 -0.2767 -0.3457 -0.0963
  807MOL0     O 8841   4.595   7.002   7.250 -0.3930 -0.4565  0.1946
  807MOL0     C 8842   4.507   7.025   7.148  0.6836 -0.3969  0.4644
  807MOL0     C 8843   4.444   7.151   7.134 -0.4611 -0.3843  0.7819
  807MOL0     C 8844   4.348   7.180   7.031 -0.5779  0.0277 -0.1235
  807MOL0     C 8845   4.312   7.076   6.947  0.0717  0.1050  0.6458
  807MOL0     O 8846   4.222   7.088   6.847  0.6415  0.4025  0.2544
  807MOL0     C 8847   4.133   7.204   6.837  0.1646 -0.6419 -0.4120
  807MOL0     C 8848   4.002   7.149   6.778 -0.1391 -0.1555  0.9543
  807MOL0     C 8849   3.902   7.099   6.881 -0.0572  0.4853  0.0366
  807MOL0     C 8850   3.969   7.009   6.988 -0.8360 -0.3350  0.6042
  807MOL0     C 8851   3.861   6.949   7.073  0.4287 -0.0760 -0.0632
  807MOL0     C 8852   3.903   6.837   7.153  0.2038  1.1082  0.1859
  807MOL0     C 8853   3.795   6.792   7.255 -1.2036  0.7827  0.0658
  807MOL0     C 8854   3.763   6.881   7.381  0.1301 -0.5622 -0.0940
  807MOL0    Cl 8855   3.912   6.926   7.465  0.1957 -0.2626  0.1109
  807MOL0     C 8856   4.376   6.954   6.960  0.8598  0.3051  0.0232
  807MOL0     C 8857   4.478   6.921   7.051  0.1347 -0.9530  0.7879
  807MOL0     O 8858   4.771   6.951   7.106  0.0004 -0.4122 -0.6102
  807MOL0     C 8859   4.954   6.963   7.304  0.4189  0.0835 -0.2845
  807MOL0     C 8860   5.050   6.920   7.389 -0.6941 -0.0255 -0.6821
  807MOL0     N 8861   5.458   7.275   7.401  0.8205  0.3869  0.0485
  807MOL0     N 8862   5.519   7.329   7.307 -0.2458 -0.4767 -0.0843
  807MOL0     C 8863   6.426   7.862   7.762  0.7409  0.7236  0.3107
  807MOL0     C 8864   6.451   7.996   7.792  0.5627  0.2434  0.1539
  807MOL0     C 8865   6.492   8.421   7.885 -0.6183 -0.0157 -0.0904
  807MOL0     C 8866   6.560   8.473   7.994 -0.4328 -0.7901  0.2320
  807MOL0     C 8867   6.608   8.604   7.995 -0.2515 -0.2379  0.4429
  807MOL0     C 8868   6.597   8.679   7.869 -0.0827  0.6531  0.0130
  807MOL0     O 8869   6.668   8.793   7.853  0.0439  0.7358 -0.6149
  807MOL0     C 8870   6.804   8.756   7.813 -0.2534  0.8398  0.0788
  807MOL0     C 8871   6.898   8.760   7.926 -0.0524 -0.1579 -0.3299
  807MOL0     C 8872   6.888   8.905   7.988 -1.0876  0.3586 -0.2137
  807MOL0     C 8873   6.789   8.939   8.089 -0.1819  0.6868 -0.1770
  807MOL0     C 8874   6.767   8.842   8.198 -0.2768 -0.3505 -1.0931
  807MOL0     C 8875   6.771   8.761   8.294  0.0947 -0.5938  0.7193
  807MOL0     C 8876   6.525   8.630   7.760 -0.0078 -0.6213 -0.0812
  807MOL0     C 8877   6.475   8.500   7.767 -0.5798 -0.1544  0.3854
  807MOL0     H 8878   6.171   8.145   7.658  0.4875 -0.4955 -2.6237
  807MOL0     H 8879   6.117   7.897   7.605  1.1065  1.9575 -2.3755
  807MOL0     H 8880   6.409   7.674   7.480 -1.8482  1.0692  1.2447
  807MOL0     H 8881   6.467   7.635   7.643  0.4537  1.6064  0.2308
  807MOL0     H 8882   6.435   7.426   7.574  0.5696  0.3830  0.8663
  807MOL0     H 8883   6.287   7.445   7.651  0.5318 -1.0939 -0.7211
  807MOL0     H 8884   6.310   7.492   7.340 -2.3923 -0.8507 -1.9223
  807MOL0     H 8885   6.268   7.345   7.414  0.3130  0.9301 -2.1573
  807MOL0     H 8886   6.094   7.463   7.534 -1.9619 -1.1528 -0.6212
  807MOL0     H 8887   6.126   7.607   7.436  0.3603 -0.7340  4.1213
  807MOL0     H 8888   6.070   7.497   7.224  1.1935  0.2208  0.2692
  807MOL0     H 8889   6.058   7.335   7.318  3.7832 -0.0724 -0.7895
  807MOL0     H 8890   5.863   7.411   7.437 -0.1261  3.0062  2.0078
  807MOL0     H 8891   5.900   7.573   7.402  0.7457  0.1566 -2.1330
  807MOL0     H 8892   5.692   7.513   7.275  0.0459  0.3183 -0.0381
  807MOL0     H 8893   5.830   7.521   7.165  3.0842 -1.3203  0.2836
  807MOL0     H 8894   5.841   7.260   7.205 -0.0837  0.7751 -3.0158
  807MOL0     H 8895   5.714   7.315   7.101 -0.2590  0.5175 -0.6419
  807MOL0     H 8896   5.743   7.164   7.475 -0.1565 -1.5909 -1.6205
  807MOL0     H 8897   5.549   7.080   7.647 -1.0519  0.1745  1.9061
  807MOL0     H 8898   5.430   7.204   7.665 -1.1626 -0.3961 -1.0874
  807MOL0     H 8899   5.391   6.990   7.446 -0.4481 -1.0183  0.9721
  807MOL0     H 8900   5.270   7.090   7.511 -0.0429 -0.2753 -1.7014
  807MOL0     H 8901   5.259   6.984   7.708 -0.9872  1.4381 -1.9309
  807MOL0     H 8902   5.414   6.890   7.696 -2.0455 -1.5374  3.8498
  807MOL0     H 8903   5.269   6.722   7.633  0.0421 -0.4303  1.9962
  807MOL0     H 8904   5.271   6.813   7.479 -0.6995  2.2940  0.5881
  807MOL0     H 8905   4.864   6.861   7.661  0.5437  4.6702  0.6930
  807MOL0     H 8906   4.648   6.829   7.609 -0.8089 -1.8222 -1.1039
  807MOL0     H 8907   4.594   6.995   7.548 -1.6149 -0.2503 -1.2001
  807MOL0     H 8908   4.565   6.856   7.449  0.3771 -1.2043 -0.7089
  807MOL0     H 8909   4.468   7.231   7.205 -3.2066 -1.2502  2.8697
  807MOL0     H 8910   4.293   7.274   7.020  1.3395  1.3524  0.9236
  807MOL0     H 8911   4.109   7.240   6.938 -0.9331  0.2017 -0.9609
  807MOL0     H 8912   4.171   7.281   6.770 -1.6500 -2.2011 -3.4217
  807MOL0     H 8913   3.950   7.224   6.718  1.2234  0.0895  0.0227
  807MOL0     H 8914   4.023   7.076   6.699 -0.5861  0.5487  0.1600
  807MOL0     H 8915   3.835   7.041   6.816 -0.3133  2.9556 -2.0687
  807MOL0     H 8916   3.849   7.186   6.921 -0.4349 -0.7757  2.4600
  807MOL0     H 8917   4.029   6.937   6.932  2.2959  3.4230 -1.3370
  807MOL0     H 8918   4.042   7.067   7.045  0.1010  3.4238 -3.8280
  807MOL0     H 8919   3.777   6.915   7.011  1.4232 -1.2530 -0.8170
  807MOL0     H 8920   3.824   7.030   7.136 -3.2656 -0.3654 -1.6173
  807MOL0     H 8921   3.917   6.749   7.090  2.6863  0.1175  1.9432
  807MOL0     H 8922   3.994   6.844   7.214  0.3395  0.4440  0.0743
  807MOL0     H 8923   3.833   6.699   7.297 -0.5499  0.3404 -1.4390
  807MOL0     H 8924   3.701   6.772   7.204 -0.6416  0.1104 -0.7358
  807MOL0     H 8925   3.696   6.825   7.447 -0.4364 -0.0349 -0.2158
  807MOL0     H 8926   3.708   6.968   7.345 -0.6194 -0.5427  1.0550
  807MOL0     H 8927   4.341   6.873   6.897 -0.5580  0.3750  0.6848
  807MOL0     H 8928   4.518   6.823   7.074 -0.3167 -1.2271  0.4150
  807MOL0     H 8929   4.991   6.999   7.209  0.0526  0.3340 -0.3367
  807MOL0     H 8930   5.148   6.919   7.344 -0.0393 -0.4517  0.7102
  807MOL0     H 8931   6.491   7.781   7.793 -3.6346 -3.3283 -0.0492
  807MOL0     H 8932   6.530   8.015   7.863  0.3843  0.3818  0.3165
  807MOL0     H 8933   6.575   8.407   8.079  1.2714 -0.3144  0.3219
  807MOL0     H 8934   6.659   8.648   8.080 -0.0255  3.0028 -1.2068
  807MOL0     H 8935   6.809   8.654   7.776  0.2626  0.6062  0.7756
  807MOL0     H 8936   6.836   8.821   7.731 -2.5733  2.7135  0.5252
  807MOL0     H 8937   6.997   8.751   7.880  0.5359  0.6622  0.7306
  807MOL0     H 8938   6.893   8.684   8.004 -3.3790 -1.5268 -1.6658
  807MOL0     H 8939   6.895   8.986   7.915  0.5018 -1.3365 -2.0628
  807MOL0     H 8940   6.984   8.905   8.042 -1.0932 -0.5534 -0.1915
  807MOL0     H 8941   6.688   8.963   8.054  0.1056  1.7053 -0.3556
  807MOL0     H 8942   6.822   9.033   8.135  1.2090  0.0967  0.0775
  807MOL0     H 8943   6.768   8.695   8.378  0.6617 -0.6646  0.6874
  807MOL0     H 8944   6.531   8.675   7.661  0.0025 -2.1299 -0.7817
  807MOL0     H 8945   6.425   8.450   7.685 -0.3209  1.1138 -0.5791
  808MOL0     O 8946   4.782  10.324   1.868  0.2416  0.2390  0.0782
  808MOL0     C 8947   4.826  10.214   1.897  0.4469 -0.0034 -0.2179
  808MOL0     O 8948   4.799  10.141   2.013  0.1502 -0.3960  0.2067
  808MOL0     C 8949   4.733  10.200   2.115 -1.6339 -0.0686 -0.6960
  808MOL0     C 8950   4.807  10.236   2.233  0.7508 -0.3552  0.4034
  808MOL0     C 8951   4.740  10.304   2.339  0.8441  0.3962  0.0428
  808MOL0     C 8952   4.596  10.321   2.341  0.5042 -0.1896  0.2206
  808MOL0     O 8953   4.530  10.373   2.447  0.7112 -0.0257 -0.0462
  808MOL0     C 8954   4.389  10.415   2.434 -0.2755 -0.7605 -0.5290
  808MOL0     C 8955   4.330  10.471   2.566 -0.1812 -0.6897 -0.1682
  808MOL0     C 8956   4.211  10.563   2.522  0.3176 -0.3603 -0.7311
  808MOL0     C 8957   4.079  10.489   2.528 -0.3303  0.0388  0.5456
  808MOL0     C 8958   3.965  10.572   2.512  0.1483 -0.3791  0.6577
  808MOL0     C 8959   3.832  10.484   2.498 -1.5127 -0.7421  0.1622
  808MOL0     C 8960   3.720  10.579   2.457 -0.4127 -0.4604 -0.0830
  808MOL0     C 8961   3.592  10.499   2.433  0.4768  1.0993  0.3463
  808MOL0     N 8962   3.490  10.576   2.354  0.3539  0.2867 -0.5497
  808MOL0     C 8963   3.470  10.554   2.227  0.8692  0.2656 -0.2007
  808MOL0     C 8964   3.371  10.639   2.202 -1.1152 -0.7316  0.0218
  808MOL0     C 8965   3.295  10.658   2.073 -0.0627  0.4969  0.0933
  808MOL0     C 8966   3.141  10.624   2.087  0.1106 -0.3792 -0.2568
  808MOL0     C 8967   3.081  10.627   1.950 -0.1473 -1.0039  0.7279
  808MOL0     C 8968   2.933  10.603   1.943 -0.1426 -0.4181  0.1904
  808MOL0     O 8969   2.855  10.722   1.935  0.3828  0.2933 -0.1350
  808MOL0     C 8970   2.746  10.722   1.857 -0.0130  0.9208 -0.0090
  808MOL0     C 8971   2.721  10.833   1.778 -0.0428 -0.5578 -0.2157
  808MOL0     C 8972   2.595  10.847   1.726 -0.0422  0.1006  0.0682
  808MOL0     C 8973   2.576  10.987   1.677  0.0925 -0.4020  0.1356
  808MOL0     C 8974   2.497  10.745   1.726  0.2160  1.1229 -0.1496
  808MOL0     C 8975   2.364  10.744   1.666 -0.5542 -1.3504 -0.0324
  808MOL0     O 8976   2.318  10.852   1.593 -0.3065  0.3242 -0.4461
  808MOL0     C 8977   2.203  10.845   1.517  0.1734  1.5570  0.5799
  808MOL0     C 8978   2.118  10.736   1.485 -0.3002  0.5052  0.7836
  808MOL0     C 8979   2.012  10.758   1.400  0.0442  0.3533  0.1568
  808MOL0     C 8980   1.993  10.879   1.337  0.1113 -0.9167  0.0971
  808MOL0     O 8981   1.893  10.895   1.245  0.7278  0.2388  0.7154
  808MOL0     C 8982   1.768  10.906   1.307 -0.4841  0.4708 -0.1802
  808MOL0     C 8983   1.668  10.912   1.186 -0.0700 -0.2726  0.0909
  808MOL0     C 8984   1.634  10.769   1.138  0.9408 -0.2320  0.8724
  808MOL0     C 8985   1.546  10.686   1.234 -0.2827 -0.0259 -0.3615
  808MOL0     C 8986   1.564  10.535   1.210 -0.0321 -0.1090  0.0438
  808MOL0     C 8987   1.484  10.484   1.079 -1.2883 -1.0338  1.4043
  808MOL0     C 8988   1.330  10.469   1.084 -0.6202  0.2424  0.0503
  808MOL0     C 8989   1.287  10.408   0.947 -0.5318 -1.4516 -0.4265
  808MOL0    Cl 8990   1.123  10.380   0.942  0.0506  0.1880  0.0796
  808MOL0     C 8991   2.083  10.982   1.359  0.3250  0.2654  0.7920
  808MOL0     C 8992   2.189  10.964   1.447  0.6817  0.3840 -0.4833
  808MOL0     O 8993   2.294  10.648   1.690  0.5712 -0.6611 -0.3481
  808MOL0     C 8994   2.531  10.629   1.810  0.3296  0.5413 -1.1130
  808MOL0     C 8995   2.658  10.622   1.871  0.9525  0.1893 -0.3802
  808MOL0     N 8996   3.342  10.721   2.310 -0.4050  0.5038 -0.8223
  808MOL0     N 8997   3.408  10.673   2.406  0.1461  0.6848  1.2891
  808MOL0     C 8998   4.530  10.274   2.227 -0.0086 -0.6577 -0.0448
  808MOL0     C 8999   4.597  10.216   2.121 -0.2341  0.4741  0.3131
  808MOL0     C 9000   4.921  10.150   1.792 -0.5256  0.1663  0.0291
  808MOL0     C 9001   4.962  10.018   1.809  0.0075 -0.3828  0.4705
  808MOL0     C 9002   5.056   9.956   1.728  0.4293 -0.2538  1.1228
  808MOL0     C 9003   5.106  10.037   1.611  0.2748 -0.5483 -0.4573
  808MOL0     O 9004   5.190   9.971   1.525 -0.0616  0.3445 -0.3307
  808MOL0     C 9005   5.331   9.974   1.556  1.0161 -0.1378  0.1383
  808MOL0     C 9006   5.404   9.951   1.423  0.9741  0.0009 -0.3836
  808MOL0     C 9007   5.530   9.871   1.436 -0.0380 -0.5554 -0.0206
  808MOL0     C 9008   5.624   9.888   1.312 -0.5362  0.0264  0.3886
  808MOL0     C 9009   5.736   9.795   1.322  1.2508  0.4050  0.1462
  808MOL0     C 9010   5.828   9.725   1.355  0.4275 -0.2006 -0.7441
  808MOL0     C 9011   5.045  10.154   1.572  0.3455 -0.0367 -0.5771
  808MOL0     C 9012   4.958  10.208   1.662  0.3166 -1.9019 -0.3435
  808MOL0     H 9013   4.913  10.220   2.252  0.6803  1.8368  3.2457
  808MOL0     H 9014   4.800  10.359   2.411  0.4366  0.2403  0.5119
  808MOL0     H 9015   4.390  10.489   2.353 -0.6963 -1.1490 -0.8877
  808MOL0     H 9016   4.329  10.330   2.402  1.5898 -2.4108  0.1655
  808MOL0     H 9017   4.299  10.390   2.633 -0.2566 -0.2668  0.3130
  808MOL0     H 9018   4.398  10.544   2.610  0.1651 -0.6451 -0.7678
  808MOL0     H 9019   4.209  10.646   2.594 -1.6401 -0.0495 -1.0701
  808MOL0     H 9020   4.241  10.612   2.428  0.9019 -1.1980 -0.9851
  808MOL0     H 9021   4.085  10.413   2.449 -0.7596 -1.3460  1.7878
  808MOL0     H 9022   4.055  10.438   2.622 -1.4371  0.4944  0.5181
  808MOL0     H 9023   3.953  10.632   2.603 -1.0062  1.0988 -0.4294
  808MOL0     H 9024   3.984  10.636   2.426 -1.1502  0.0707  0.6907
  808MOL0     H 9025   3.852  10.404   2.426  0.0350 -2.1204  2.0358
  808MOL0     H 9026   3.810  10.444   2.597  1.8839  0.5242  1.5873
  808MOL0     H 9027   3.708  10.663   2.525 -0.3649 -0.1511 -0.4508
  808MOL0     H 9028   3.738  10.626   2.360  0.0172  2.8101  1.4479
  808MOL0     H 9029   3.548  10.482   2.532  1.4379  0.2109  0.6382
  808MOL0     H 9030   3.609  10.401   2.388 -0.3623  1.0424  0.1352
  808MOL0     H 9031   3.506  10.464   2.178  1.0424 -0.6138  1.4756
  808MOL0     H 9032   3.313  10.761   2.043  1.9054 -0.1455 -1.1389
  808MOL0     H 9033   3.336  10.593   1.995 -0.5097 -1.3584  1.3262
  808MOL0     H 9034   3.100  10.688   2.166 -1.7536 -0.1449 -1.3453
  808MOL0     H 9035   3.129  10.522   2.123 -0.3755  0.4045  1.9388
  808MOL0     H 9036   3.135  10.555   1.887  0.5677  0.5066 -0.4424
  808MOL0     H 9037   3.101  10.725   1.906 -2.3349 -1.3609 -1.2661
  808MOL0     H 9038   2.899  10.547   2.031  2.2934 -2.8848 -0.2976
  808MOL0     H 9039   2.919  10.544   1.851  2.3491  0.7045 -1.0025
  808MOL0     H 9040   2.789  10.917   1.789  1.9875 -2.1707  0.3225
  808MOL0     H 9041   2.637  11.065   1.723 -3.0005  2.1353  0.1918
  808MOL0     H 9042   2.605  10.984   1.571  0.4325 -0.3472  0.2245
  808MOL0     H 9043   2.471  11.013   1.688  0.2806  0.8331 -0.8193
  808MOL0     H 9044   2.142  10.633   1.508 -3.0549  0.0214  1.9834
  808MOL0     H 9045   1.949  10.672   1.377 -0.4728  0.9363 -0.6224
  808MOL0     H 9046   1.751  10.822   1.375 -0.0270  0.8646  0.4286
  808MOL0     H 9047   1.761  10.997   1.368 -3.1061 -0.2175  0.6444
  808MOL0     H 9048   1.579  10.965   1.221  0.3665  1.3413 -1.1630
  808MOL0     H 9049   1.711  10.979   1.111 -0.0898  0.1998  0.4944
  808MOL0     H 9050   1.728  10.719   1.116  0.9896 -0.2704  1.1704
  808MOL0     H 9051   1.582  10.778   1.042 -0.4131 -1.5579  1.4412
  808MOL0     H 9052   1.576  10.705   1.338 -3.1563 -1.1857  0.7961
  808MOL0     H 9053   1.439  10.710   1.235  0.1249  1.8962 -0.2812
  808MOL0     H 9054   1.518  10.485   1.295 -1.8304 -0.9162 -1.3307
  808MOL0     H 9055   1.670  10.510   1.202  0.0467  0.3865 -0.5823
  808MOL0     H 9056   1.494  10.558   1.000 -1.3970 -1.0134  1.4097
  808MOL0     H 9057   1.526  10.389   1.044  6.0939  1.9305  0.5520
  808MOL0     H 9058   1.286  10.569   1.086 -1.0128  0.2732 -3.4329
  808MOL0     H 9059   1.305  10.416   1.177  0.3431  0.0978  0.2337
  808MOL0     H 9060   1.329  10.308   0.931  2.8833  0.2410 -3.4446
  808MOL0     H 9061   1.320  10.467   0.862 -0.5077 -0.4736  0.2409
  808MOL0     H 9062   2.064  11.073   1.301 -0.2080 -1.0565 -1.2041
  808MOL0     H 9063   2.254  11.050   1.460  0.1147  1.4210 -3.7355
  808MOL0     H 9064   2.468  10.540   1.820  0.7421  0.3041 -0.5556
  808MOL0     H 9065   2.664  10.548   1.951 -0.7630  0.1170 -0.2703
  808MOL0     H 9066   4.423  10.293   2.216  0.5358  3.4836  0.0330
  808MOL0     H 9067   4.536  10.179   2.039 -0.6095 -0.9395  1.1798
  808MOL0     H 9068   4.904   9.962   1.881 -1.3158  0.8610  0.4144
  808MOL0     H 9069   5.069   9.849   1.734  0.2956 -0.3185  0.3952
  808MOL0     H 9070   5.359  10.069   1.602  0.5533 -0.2322  0.6358
  808MOL0     H 9071   5.358   9.894   1.627  1.8806 -1.3219 -1.4535
  808MOL0     H 9072   5.434  10.048   1.384  0.8186  0.7580  1.3146
  808MOL0     H 9073   5.347   9.895   1.348  0.6829  2.8813 -2.4737
  808MOL0     H 9074   5.501   9.767   1.454 -0.3237 -0.3723  0.5775
  808MOL0     H 9075   5.593   9.908   1.517 -0.7206  3.9914 -1.2507
  808MOL0     H 9076   5.667   9.988   1.311  2.4669 -1.0787  2.7608
  808MOL0     H 9077   5.570   9.864   1.220  0.3111  0.6978 -0.3013
  808MOL0     H 9078   5.902   9.662   1.399 -1.0144 -1.0707  0.5422
  808MOL0     H 9079   5.064  10.214   1.484 -1.7591  3.0670  0.9256
  808MOL0     H 9080   4.926  10.308   1.633  1.6336 -2.0086 -2.3343
  809MOL0     O 9081   1.112   0.421   8.006 -0.3680  0.0024 -0.3978
  809MOL0     C 9082   1.052   0.484   7.915  0.3749 -0.9366 -0.7604
  809MOL0     O 9083   1.111   0.532   7.803  0.5054 -0.1988 -0.2091
  809MOL0     C 9084   1.197   0.448   7.736 -0.0747  0.6908 -0.2196
  809MOL0     C 9085   1.225   0.314   7.758 -0.6170 -0.1224  0.2069
  809MOL0     C 9086   1.332   0.246   7.684 -0.5764 -0.1231 -0.4510
  809MOL0     C 9087   1.391   0.317   7.568 -0.5788  0.0376 -0.2134
  809MOL0     O 9088   1.481   0.240   7.503 -0.4632 -0.4782  0.2199
  809MOL0     C 9089   1.460   0.232   7.364  0.1688  0.4478  0.6989
  809MOL0     C 9090   1.512   0.090   7.326 -0.1703  0.4624  0.0886
  809MOL0     C 9091   1.417  -0.023   7.377  0.4430  0.5732 -0.7651
  809MOL0     C 9092   1.445  -0.165   7.314  0.7688 -0.2284  0.1872
  809MOL0     C 9093   1.336  -0.273   7.349  0.1680  0.5747  0.0286
  809MOL0     C 9094   1.370  -0.415   7.324 -0.0092 -0.1803 -0.6475
  809MOL0     C 9095   1.448  -0.449   7.186  0.7392  0.1055 -0.2953
  809MOL0     C 9096   1.355  -0.437   7.062 -0.5610  0.4075 -0.0030
  809MOL0     N 9097   1.421  -0.498   6.946  0.6343 -0.7268 -0.0385
  809MOL0     C 9098   1.496  -0.604   6.926  0.3230 -0.6534 -0.2730
  809MOL0     C 9099   1.521  -0.622   6.791  0.2867 -0.1495 -0.4531
  809MOL0     C 9100   1.598  -0.751   6.731  0.0371  0.2811 -0.3856
  809MOL0     C 9101   1.748  -0.711   6.697 -0.3915  0.1295 -0.4504
  809MOL0     C 9102   1.827  -0.710   6.825 -0.0515  0.1064 -0.0248
  809MOL0     C 9103   1.969  -0.667   6.802 -0.5150  0.5270 -0.0248
  809MOL0     O 9104   2.042  -0.712   6.915 -0.2208 -0.0021 -0.3081
  809MOL0     C 9105   2.167  -0.667   6.929 -0.9608 -1.2118  0.3689
  809MOL0     C 9106   2.240  -0.720   7.033 -0.4726  0.7463  0.2167
  809MOL0     C 9107   2.380  -0.712   7.047  0.0881  0.6397  0.7800
  809MOL0     C 9108   2.453  -0.773   7.169 -0.1328  0.3519  0.1794
  809MOL0     C 9109   2.443  -0.625   6.951 -0.0451 -0.2091  0.4595
  809MOL0     C 9110   2.585  -0.582   6.950  0.0360 -0.2277 -0.0371
  809MOL0     O 9111   2.620  -0.464   6.889  0.6522 -0.0679 -0.8366
  809MOL0     C 9112   2.750  -0.422   6.893 -0.3422  0.6275 -0.2475
  809MOL0     C 9113   2.791  -0.336   6.997  0.4448  0.5935  0.0320
  809MOL0     C 9114   2.920  -0.305   7.002  0.0944 -0.3864 -1.1327
  809MOL0     C 9115   3.014  -0.338   6.907  0.5946 -0.0520  1.1070
  809MOL0     O 9116   3.127  -0.275   6.933 -0.2994 -0.0494 -0.8772
  809MOL0     C 9117   3.247  -0.315   6.871 -0.0590  0.7964  0.5553
  809MOL0     C 9118   3.356  -0.280   6.965  0.7476 -1.0678  0.7454
  809MOL0     C 9119   3.497  -0.300   6.896  0.0512 -0.4406  0.2218
  809MOL0     C 9120   3.605  -0.233   6.981 -0.1319  0.3016 -0.5327
  809MOL0     C 9121   3.737  -0.234   6.908  0.8826 -0.5677  0.2875
  809MOL0     C 9122   3.794  -0.377   6.908  0.5461  0.4782  0.5516
  809MOL0     C 9123   3.924  -0.385   6.833 -0.1402 -0.0634  0.1356
  809MOL0     C 9124   3.961  -0.524   6.798 -0.3567 -0.0166 -0.1096
  809MOL0    Cl 9125   3.994  -0.632   6.941  0.4372 -0.2427  0.1256
  809MOL0     C 9126   2.980  -0.421   6.801  0.9479  0.7236  0.4225
  809MOL0     C 9127   2.849  -0.465   6.802  0.1671 -1.0786  0.6233
  809MOL0     O 9128   2.672  -0.665   6.989 -0.5989  0.3715  0.4184
  809MOL0     C 9129   2.368  -0.563   6.848  0.0954  0.6139 -0.4912
  809MOL0     C 9130   2.232  -0.581   6.843 -0.1577 -0.8043  0.4105
  809MOL0     N 9131   1.460  -0.515   6.728 -1.1507  0.0874 -0.2855
  809MOL0     N 9132   1.401  -0.450   6.821 -0.5842  0.5629  0.8035
  809MOL0     C 9133   1.366   0.448   7.554  0.8155  0.4942  0.2068
  809MOL0     C 9134   1.275   0.519   7.639 -0.7573  0.2017 -0.9119
  809MOL0     C 9135   0.908   0.527   7.943 -0.2101 -0.0807  0.1361
  809MOL0     C 9136   0.828   0.580   7.840 -0.3589 -0.1471  0.7589
  809MOL0     C 9137   0.695   0.617   7.868  0.4480 -0.2153 -0.3762
  809MOL0     C 9138   0.635   0.608   7.998  0.3848 -0.5646 -0.0451
  809MOL0     O 9139   0.514   0.665   8.029  0.3220 -0.1041 -0.5266
  809MOL0     C 9140   0.449   0.754   7.937  0.2445 -0.2044 -1.1768
  809MOL0     C 9141   0.322   0.818   8.000  0.7685 -0.7611 -0.0935
  809MOL0     C 9142   0.343   0.922   8.113  0.3548 -0.4409  1.0003
  809MOL0     C 9143   0.388   0.861   8.244 -0.3384 -0.1467 -0.6136
  809MOL0     C 9144   0.412   0.971   8.342  0.4128  0.1154 -0.8674
  809MOL0     C 9145   0.427   1.049   8.429 -0.7550  0.6041  0.0779
  809MOL0     C 9146   0.715   0.555   8.097 -0.6314 -0.0907  0.3412
  809MOL0     C 9147   0.850   0.520   8.074  1.3039  0.2315 -0.3568
  809MOL0     H 9148   1.175   0.267   7.842  0.4027 -0.5376  0.5969
  809MOL0     H 9149   1.363   0.144   7.699 -0.5773 -0.9163 -4.5898
  809MOL0     H 9150   1.355   0.250   7.339  0.3004  4.1540  2.2164
  809MOL0     H 9151   1.505   0.315   7.310 -1.1521  1.2565  0.8159
  809MOL0     H 9152   1.521   0.081   7.217 -0.1933  0.5785  0.0772
  809MOL0     H 9153   1.612   0.082   7.370  1.1276  1.8114 -2.3694
  809MOL0     H 9154   1.410  -0.024   7.486 -2.4062  1.7382 -0.8450
  809MOL0     H 9155   1.317   0.003   7.341  0.3413  0.6444 -0.4289
  809MOL0     H 9156   1.444  -0.144   7.207  0.7586  2.1812  0.6034
  809MOL0     H 9157   1.547  -0.197   7.338  0.9589 -0.0689 -0.3714
  809MOL0     H 9158   1.302  -0.269   7.452 -0.7486  0.0359 -0.2420
  809MOL0     H 9159   1.251  -0.264   7.280  1.0992  1.4881 -1.0480
  809MOL0     H 9160   1.427  -0.450   7.410  1.3158 -2.4340 -2.3144
  809MOL0     H 9161   1.278  -0.474   7.328 -1.0799  1.3098 -2.1436
  809MOL0     H 9162   1.540  -0.394   7.166  0.1045  1.5200  0.4632
  809MOL0     H 9163   1.477  -0.553   7.204 -1.9001 -0.1166  4.3466
  809MOL0     H 9164   1.327  -0.334   7.036 -2.2366 -0.2912 -1.0469
  809MOL0     H 9165   1.263  -0.492   7.078 -1.3311  1.5992 -0.2084
  809MOL0     H 9166   1.528  -0.672   7.005  0.2787  0.6402  0.9021
  809MOL0     H 9167   1.596  -0.835   6.802 -0.4207  1.0972  0.5881
  809MOL0     H 9168   1.550  -0.774   6.636 -2.9964  2.4813  0.4694
  809MOL0     H 9169   1.733  -0.617   6.643 -0.0900  0.3626 -0.1299
  809MOL0     H 9170   1.793  -0.783   6.628  2.2295  1.6771 -0.5385
  809MOL0     H 9171   1.811  -0.805   6.876 -0.7055  0.7460  1.0022
  809MOL0     H 9172   1.784  -0.634   6.891  3.2715  2.1527 -0.0113
  809MOL0     H 9173   1.979  -0.558   6.793 -0.3153  0.5341  0.2644
  809MOL0     H 9174   2.006  -0.722   6.715 -0.2561 -1.9678  1.5470
  809MOL0     H 9175   2.188  -0.783   7.105  1.4758  0.3616  1.3767
  809MOL0     H 9176   2.385  -0.819   7.241  0.2158  2.7973  2.2401
  809MOL0     H 9177   2.519  -0.853   7.133  0.8609  1.9031 -1.6139
  809MOL0     H 9178   2.498  -0.691   7.225 -1.3997  0.4627  1.0816
  809MOL0     H 9179   2.717  -0.284   7.058 -1.2326 -1.9915  0.3493
  809MOL0     H 9180   2.952  -0.248   7.089 -1.1990  0.5887 -1.2815
  809MOL0     H 9181   3.250  -0.420   6.841 -0.5453  0.5320  1.4002
  809MOL0     H 9182   3.263  -0.258   6.779  0.2497 -0.8921 -0.4866
  809MOL0     H 9183   3.349  -0.174   6.992 -0.2229 -0.1470 -2.6117
  809MOL0     H 9184   3.349  -0.342   7.055 -1.8968  0.8662  1.9844
  809MOL0     H 9185   3.494  -0.259   6.795  0.1877  0.4493  0.5700
  809MOL0     H 9186   3.508  -0.409   6.893  1.0837 -0.4943  2.7749
  809MOL0     H 9187   3.563  -0.132   6.986 -1.5829 -0.3190  0.2413
  809MOL0     H 9188   3.607  -0.271   7.084 -0.8842 -0.8056 -0.9137
  809MOL0     H 9189   3.813  -0.170   6.952  1.7123 -2.2670  1.4413
  809MOL0     H 9190   3.719  -0.204   6.804  3.7669  1.6527  0.2956
  809MOL0     H 9191   3.810  -0.400   7.014  0.4259  0.6325  0.6040
  809MOL0     H 9192   3.721  -0.444   6.862  2.2662 -0.1323 -1.4417
  809MOL0     H 9193   3.999  -0.344   6.901 -1.5022  0.6435  1.2839
  809MOL0     H 9194   3.914  -0.324   6.743 -0.6911  0.0958  0.3008
  809MOL0     H 9195   4.056  -0.524   6.744 -1.3974 -0.7019 -2.0012
  809MOL0     H 9196   3.884  -0.574   6.739  1.6747 -2.0801 -1.1828
  809MOL0     H 9197   3.055  -0.457   6.731 -1.3487  0.0639 -1.8669
  809MOL0     H 9198   2.816  -0.527   6.719 -0.4616  0.8520 -0.6269
  809MOL0     H 9199   2.414  -0.497   6.775  2.5164  0.4843  0.8102
  809MOL0     H 9200   2.187  -0.529   6.759  0.1206 -3.6992 -1.6535
  809MOL0     H 9201   1.418   0.508   7.481 -2.6173  0.6233 -2.4003
  809MOL0     H 9202   1.255   0.625   7.645 -1.0222  0.1378 -0.6198
  809MOL0     H 9203   0.858   0.584   7.736 -0.4976 -0.8527  0.6906
  809MOL0     H 9204   0.640   0.651   7.781 -1.6101 -4.7181 -1.1166
  809MOL0     H 9205   0.511   0.840   7.911  0.9699 -0.0105  0.9516
  809MOL0     H 9206   0.419   0.699   7.848 -0.3570 -1.4136 -0.2575
  809MOL0     H 9207   0.255   0.741   8.040 -1.0517  0.4287 -0.6949
  809MOL0     H 9208   0.256   0.863   7.924 -0.6308 -1.9151  0.3919
  809MOL0     H 9209   0.243   0.963   8.129  0.3360  0.9081 -1.8800
  809MOL0     H 9210   0.412   1.006   8.096 -0.8073  0.7363  1.8640
  809MOL0     H 9211   0.480   0.802   8.248  0.0641  0.5346  1.7774
  809MOL0     H 9212   0.314   0.795   8.290  0.3279  0.8241  2.0587
  809MOL0     H 9213   0.430   1.129   8.500 -0.7006 -1.4828  2.5438
  809MOL0     H 9214   0.693   0.561   8.203  3.0053  1.5943  1.1588
  809MOL0     H 9215   0.895   0.481   8.165  0.3861 -5.2150 -1.8959
  810MOL0     O 9216  10.099   4.675  10.321  0.2410 -0.1046 -0.5495
  810MOL0     C 9217  10.048   4.586  10.387 -1.0173 -0.0038  0.1784
  810MOL0     O 9218  10.110   4.464  10.412  0.3043 -0.3817  0.5166
  810MOL0     C 9219  10.228   4.414  10.355 -0.3933 -0.5820  0.7831
  810MOL0     C 9220  10.263   4.429  10.217  0.0558  1.0536  0.6361
  810MOL0     C 9221  10.383   4.379  10.175 -0.1224  0.2316  0.1667
  810MOL0     C 9222  10.473   4.310  10.268 -0.1002  0.0176 -0.2405
  810MOL0     O 9223  10.598   4.276  10.225  0.6745  0.1942 -0.7946
  810MOL0     C 9224  10.677   4.162  10.282 -0.3756 -0.2207 -0.1456
  810MOL0     C 9225  10.787   4.219  10.378  0.1768  0.2485  0.3004
  810MOL0     C 9226  10.886   4.318  10.324 -0.3205 -0.5630 -0.6309
  810MOL0     C 9227  10.975   4.369  10.442  0.5665 -0.2030  0.9183
  810MOL0     C 9228  11.112   4.424  10.408 -0.1732 -0.1868 -0.7075
  810MOL0     C 9229  11.115   4.537  10.309  0.0491  0.4384  1.1374
  810MOL0     C 9230  11.252   4.590  10.256 -0.1366  0.0901 -0.5209
  810MOL0     C 9231  11.339   4.671  10.365  0.2803 -0.0694  0.1289
  810MOL0     N 9232  11.391   4.584  10.473 -0.6890 -0.0551  0.5427
  810MOL0     C 9233  11.464   4.464  10.456 -0.2607 -0.0199 -0.2416
  810MOL0     C 9234  11.479   4.421  10.583  0.0521  0.0071  0.2419
  810MOL0     C 9235  11.553   4.302  10.625  0.8327 -0.0691 -0.1878
  810MOL0     C 9236  11.457   4.190  10.640 -0.2743  0.2867 -0.0580
  810MOL0     C 9237  11.531   4.065  10.697 -0.1243 -0.3323  0.5659
  810MOL0     C 9238  11.621   3.994  10.586 -0.4465 -0.1085  0.1866
  810MOL0     O 9239  11.684   3.877  10.647 -0.4510  0.0877  0.0013
  810MOL0     C 9240  11.771   3.903  10.752 -0.1480  0.0463 -0.0625
  810MOL0     C 9241  11.829   4.025  10.790 -0.0449 -0.6336 -0.0784
  810MOL0     C 9242  11.914   4.035  10.900 -0.8484  0.2707  0.9306
  810MOL0     C 9243  11.951   4.177  10.943 -0.2343  0.3510  0.2897
  810MOL0     C 9244  11.944   3.915  10.972 -0.0759 -0.2538  0.3696
  810MOL0     C 9245  12.024   3.913  11.100  0.4336  0.5928 -0.1311
  810MOL0     O 9246  12.001   3.816  11.188  0.3003  0.0919  0.2574
  810MOL0     C 9247  12.078   3.798  11.296  0.2327  0.7214 -0.7432
  810MOL0     C 9248  12.045   3.830  11.427  0.8173 -0.3229  0.6925
  810MOL0     C 9249  12.121   3.796  11.540 -0.0475 -0.8202  0.7528
  810MOL0     C 9250  12.237   3.719  11.520 -0.8921  0.0362  0.5146
  810MOL0     O 9251  12.316   3.680  11.626  0.1222  1.0437  0.0819
  810MOL0     C 9252  12.310   3.753  11.747  0.3323  0.6311  0.6098
  810MOL0     C 9253  12.447   3.758  11.825 -0.0848 -0.6614  0.3260
  810MOL0     C 9254  12.480   3.618  11.872  0.6646  0.5420  0.1415
  810MOL0     C 9255  12.601   3.623  11.972 -0.3759  0.4659 -0.4431
  810MOL0     C 9256  12.710   3.520  11.938 -0.2031  0.0680  0.3744
  810MOL0     C 9257  12.824   3.500  12.044  1.5909  0.5536 -0.1783
  810MOL0     C 9258  12.946   3.420  11.991  0.5074 -1.1058 -0.1872
  810MOL0     C 9259  13.073   3.439  12.080 -0.4963  0.0469 -0.2116
  810MOL0    Cl 9260  13.115   3.613  12.075  0.0035  0.4259  0.1649
  810MOL0     C 9261  12.270   3.661  11.398  0.6251 -0.7387 -0.1715
  810MOL0     C 9262  12.195   3.710  11.283 -0.6616 -0.0168 -0.0932
  810MOL0     O 9263  12.102   4.002  11.124  0.6119  0.0586  0.3444
  810MOL0     C 9264  11.883   3.794  10.936 -1.4598  0.5971  0.5461
  810MOL0     C 9265  11.806   3.788  10.820 -0.6264  0.2221 -0.9375
  810MOL0     N 9266  11.422   4.508  10.672 -0.7200  0.3080  0.3147
  810MOL0     N 9267  11.359   4.601  10.604  0.4068  0.7336  0.2358
  810MOL0     C 9268  10.440   4.299  10.404 -0.1078  0.4576  1.0215
  810MOL0     C 9269  10.318   4.352  10.442  0.4195  0.3191 -0.3378
  810MOL0     C 9270   9.909   4.596  10.420  0.0486  0.2961 -0.0995
  810MOL0     C 9271   9.838   4.716  10.384  0.0758  0.3889 -0.5166
  810MOL0     C 9272   9.703   4.742  10.420 -0.2378  0.1671  0.2657
  810MOL0     C 9273   9.630   4.641  10.480  0.4815  0.6465 -0.0502
  810MOL0     O 9274   9.493   4.651  10.503 -0.1696  0.3397  0.4644
  810MOL0     C 9275   9.428   4.779  10.491 -0.3091 -0.6273  0.4017
  810MOL0     C 9276   9.273   4.764  10.514  0.1653 -0.3479 -0.5990
  810MOL0     C 9277   9.200   4.664  10.419  0.2830 -0.1527  0.2100
  810MOL0     C 9278   9.228   4.713  10.278 -0.4581  0.8046  0.4391
  810MOL0     C 9279   9.154   4.640  10.178 -0.0416 -0.1543  0.8299
  810MOL0     C 9280   9.092   4.589  10.086  0.7244 -0.0792  0.1803
  810MOL0     C 9281   9.692   4.516  10.501 -1.1428 -0.3889 -0.2307
  810MOL0     C 9282   9.830   4.490  10.475  0.1400  0.0956  0.4144
  810MOL0     H 9283  10.189   4.465  10.146 -0.5215 -4.3182 -2.0066
  810MOL0     H 9284  10.417   4.383  10.072 -1.5513 -0.2163 -0.3487
  810MOL0     H 9285  10.607   4.094  10.333 -1.4246  0.2390 -0.9403
  810MOL0     H 9286  10.728   4.100  10.207 -0.5636 -1.2464  0.5521
  810MOL0     H 9287  10.739   4.253  10.470  0.3504 -1.6841  1.1495
  810MOL0     H 9288  10.849   4.141  10.422 -0.2214 -0.6707 -0.7309
  810MOL0     H 9289  10.955   4.270  10.254 -0.4759  0.5030 -1.5534
  810MOL0     H 9290  10.832   4.402  10.279 -1.7953 -0.0167  1.9392
  810MOL0     H 9291  10.925   4.455  10.487 -1.8515 -0.7170 -0.5792
  810MOL0     H 9292  10.989   4.291  10.517  0.3338  0.5715  1.7778
  810MOL0     H 9293  11.155   4.448  10.506 -1.2792 -0.2693 -0.1823
  810MOL0     H 9294  11.180   4.347  10.370  1.6598  1.1141 -0.1953
  810MOL0     H 9295  11.068   4.499  10.218 -1.1967 -1.4776  2.4828
  810MOL0     H 9296  11.052   4.625  10.325  1.9787  2.4550 -1.4888
  810MOL0     H 9297  11.310   4.504  10.222  0.6832  2.1610 -5.1846
  810MOL0     H 9298  11.231   4.653  10.170 -0.2965  1.9081  0.7846
  810MOL0     H 9299  11.294   4.759  10.410  3.1026  1.6364 -0.1470
  810MOL0     H 9300  11.422   4.720  10.313  1.5898  1.9439  3.7747
  810MOL0     H 9301  11.505   4.422  10.365  0.0674 -1.7761  0.6850
  810MOL0     H 9302  11.626   4.261  10.555  0.1094 -0.2394 -0.8573
  810MOL0     H 9303  11.599   4.319  10.723  0.0871  0.7573  0.0273
  810MOL0     H 9304  11.404   4.161  10.549  3.1103 -1.5210 -1.6291
  810MOL0     H 9305  11.387   4.219  10.719  1.2496  0.4777  1.2528
  810MOL0     H 9306  11.455   3.990  10.721  0.9553 -0.9896  2.0828
  810MOL0     H 9307  11.582   4.090  10.790  0.6263 -0.6961  0.2692
  810MOL0     H 9308  11.696   4.061  10.542 -1.6884  4.1125  3.7557
  810MOL0     H 9309  11.561   3.950  10.506  0.9490 -3.9210  0.9888
  810MOL0     H 9310  11.807   4.114  10.731  1.0858  0.5516  1.2102
  810MOL0     H 9311  11.897   4.255  10.888 -1.4926  1.6075  3.1115
  810MOL0     H 9312  11.916   4.190  11.046 -1.7253  0.3614 -0.1882
  810MOL0     H 9313  12.060   4.186  10.937 -0.1803 -1.1430 -2.9366
  810MOL0     H 9314  11.947   3.874  11.439  0.6567 -0.3434 -0.4736
  810MOL0     H 9315  12.083   3.822  11.638 -0.7494  2.2800 -0.2443
  810MOL0     H 9316  12.277   3.857  11.749  1.9823  1.1644  1.4022
  810MOL0     H 9317  12.237   3.703  11.812 -0.3576 -0.9826 -1.2638
  810MOL0     H 9318  12.534   3.799  11.774 -0.5009 -0.4412 -0.2162
  810MOL0     H 9319  12.437   3.826  11.910  2.9010  0.8273 -0.3777
  810MOL0     H 9320  12.510   3.560  11.785  1.7239 -0.3123  1.0335
  810MOL0     H 9321  12.402   3.563  11.926  1.0757 -2.0246 -1.6828
  810MOL0     H 9322  12.646   3.721  11.991  2.6361 -1.0606  1.2286
  810MOL0     H 9323  12.563   3.600  12.072  1.0193 -0.3437 -0.0688
  810MOL0     H 9324  12.766   3.566  11.855  1.6798  0.7521  1.9346
  810MOL0     H 9325  12.659   3.427  11.911 -0.3611  0.3163 -0.2121
  810MOL0     H 9326  12.859   3.602  12.061 -0.7145  1.0955  2.0395
  810MOL0     H 9327  12.783   3.452  12.134 -2.2708  0.8795 -1.5656
  810MOL0     H 9328  12.974   3.462  11.894  2.1549 -0.0787  0.6863
  810MOL0     H 9329  12.920   3.314  11.987 -0.4715 -0.9468  1.1829
  810MOL0     H 9330  13.159   3.378  12.054 -0.1259  1.0330 -1.3809
  810MOL0     H 9331  13.045   3.420  12.184 -2.2342 -0.2048 -0.6940
  810MOL0     H 9332  12.352   3.590  11.396  0.2973 -1.1538  0.5170
  810MOL0     H 9333  12.234   3.667  11.191  2.4529 -0.0377  1.0982
  810MOL0     H 9334  11.919   3.702  10.981  0.5201 -1.2604 -4.1044
  810MOL0     H 9335  11.757   3.697  10.786  1.6462 -1.2106 -0.5437
  810MOL0     H 9336  10.499   4.239  10.473  2.0137 -4.9279 -4.5536
  810MOL0     H 9337  10.290   4.329  10.544 -1.2371 -1.3653 -1.0982
  810MOL0     H 9338   9.897   4.798  10.344  2.3573 -1.0476 -0.3172
  810MOL0     H 9339   9.670   4.844  10.399 -0.4173  0.0519 -0.0138
  810MOL0     H 9340   9.465   4.853  10.562 -1.2071 -1.3926  1.7161
  810MOL0     H 9341   9.445   4.818  10.390  0.1799 -0.5846  0.4999
  810MOL0     H 9342   9.226   4.863  10.522  1.2557  0.0534  1.4314
  810MOL0     H 9343   9.268   4.729  10.617  0.6072  1.8727  0.2334
  810MOL0     H 9344   9.093   4.671  10.440  0.4298  2.3733  0.4598
  810MOL0     H 9345   9.241   4.565  10.440  3.4966  0.6719 -1.5539
  810MOL0     H 9346   9.336   4.712  10.261 -0.2085  0.4095  1.9079
  810MOL0     H 9347   9.206   4.819  10.265  0.7049  0.8877 -1.2181
  810MOL0     H 9348   9.026   4.541  10.016  2.1737 -1.5186 -0.2516
  810MOL0     H 9349   9.638   4.442  10.559 -1.5849  1.9517  2.5579
  810MOL0     H 9350   9.870   4.394  10.505 -1.0552 -1.1488 -1.7540
  811MOL0     O 9351   0.313   5.455  11.063  0.9598  0.5772  0.3257
  811MOL0     C 9352   0.307   5.346  11.008  0.0388  0.3245  0.1737
  811MOL0     O 9353   0.192   5.278  10.995  0.0208 -0.1257  0.3377
  811MOL0     C 9354   0.085   5.291  11.077 -0.4442 -1.1609  0.5349
  811MOL0     C 9355   0.082   5.358  11.208 -0.4446  0.0660 -0.2030
  811MOL0     C 9356  -0.037   5.365  11.278  0.0905  0.6141 -0.3049
  811MOL0     C 9357  -0.155   5.295  11.234  0.0795 -0.3809 -0.1993
  811MOL0     O 9358  -0.271   5.324  11.316 -0.2134  0.5776  0.5965
  811MOL0     C 9359  -0.396   5.268  11.273 -0.5637  0.2398  0.5804
  811MOL0     C 9360  -0.506   5.342  11.351 -0.0935 -0.1781 -0.4257
  811MOL0     C 9361  -0.630   5.248  11.356  0.8286  0.2431  0.1732
  811MOL0     C 9362  -0.767   5.312  11.402  0.3837 -0.6049  1.0531
  811MOL0     C 9363  -0.869   5.206  11.438  0.0096 -0.2887 -0.1710
  811MOL0     C 9364  -1.013   5.269  11.464  0.0502  0.1078 -0.2094
  811MOL0     C 9365  -1.106   5.149  11.497  0.1427  0.4438 -0.0165
  811MOL0     C 9366  -1.228   5.190  11.577  0.5493 -0.7426 -0.5232
  811MOL0     N 9367  -1.349   5.100  11.581 -0.0314 -0.3668 -0.3839
  811MOL0     C 9368  -1.475   5.141  11.618 -0.8448  0.8692 -0.4107
  811MOL0     C 9369  -1.547   5.024  11.607  0.0942 -0.5988  0.9153
  811MOL0     C 9370  -1.695   5.017  11.636  0.7599 -0.4094  0.4442
  811MOL0     C 9371  -1.792   5.105  11.554 -0.0298 -1.0152  0.6098
  811MOL0     C 9372  -1.931   5.079  11.612 -0.3303 -0.7877  0.0282
  811MOL0     C 9373  -2.035   5.144  11.518 -0.1158 -0.0274  0.2991
  811MOL0     O 9374  -2.018   5.288  11.495 -0.4686 -0.1663 -0.6248
  811MOL0     C 9375  -2.101   5.345  11.399 -0.6366 -0.1007 -0.6644
  811MOL0     C 9376  -2.079   5.479  11.365 -0.7314  0.3156  0.1462
  811MOL0     C 9377  -2.173   5.557  11.291 -0.6710  0.5065 -0.0685
  811MOL0     C 9378  -2.127   5.701  11.257  0.2003  0.3457 -0.3703
  811MOL0     C 9379  -2.293   5.504  11.239 -0.8962  0.2028  1.2861
  811MOL0     C 9380  -2.393   5.570  11.152  0.0577  0.0886  0.4549
  811MOL0     O 9381  -2.520   5.525  11.169 -0.4818 -0.5609  0.8295
  811MOL0     C 9382  -2.613   5.546  11.076  0.5626 -0.5382 -0.0779
  811MOL0     C 9383  -2.744   5.567  11.126 -0.5653 -0.2511 -0.3733
  811MOL0     C 9384  -2.848   5.582  11.039  0.3991  0.5435 -0.1798
  811MOL0     C 9385  -2.832   5.575  10.900  0.3027  0.1557  0.0506
  811MOL0     O 9386  -2.929   5.603  10.814 -0.1224 -0.1748  0.0824
  811MOL0     C 9387  -3.049   5.524  10.807 -0.7059  0.2591 -0.1534
  811MOL0     C 9388  -3.045   5.433  10.684  1.2065  0.1399 -0.5402
  811MOL0     C 9389  -2.982   5.499  10.560 -0.6063  0.0775 -0.5901
  811MOL0     C 9390  -3.057   5.448  10.428 -0.2994  0.5174 -0.2021
  811MOL0     C 9391  -2.988   5.459  10.290 -0.3155 -1.1660 -0.3329
  811MOL0     C 9392  -2.967   5.610  10.250  0.4340  0.2378  0.1498
  811MOL0     C 9393  -2.927   5.629  10.102  0.4218  0.3022  0.2713
  811MOL0     C 9394  -3.003   5.565   9.989  1.3266  0.3157 -0.2100
  811MOL0    Cl 9395  -2.932   5.627   9.830  0.3171  0.4462  0.2439
  811MOL0     C 9396  -2.703   5.543  10.853  0.2049  0.3130  0.1535
  811MOL0     C 9397  -2.593   5.530  10.936 -0.1604  0.6851 -1.3058
  811MOL0     O 9398  -2.350   5.636  11.058  0.0296  0.0307 -0.0329
  811MOL0     C 9399  -2.306   5.365  11.262 -0.8827  0.8525  1.2082
  811MOL0     C 9400  -2.215   5.287  11.333 -0.9234  0.1953 -0.6971
  811MOL0     N 9401  -1.455   4.924  11.588 -0.5216 -0.2530 -0.3980
  811MOL0     N 9402  -1.341   4.973  11.559  0.6843 -0.3991  0.1078
  811MOL0     C 9403  -0.152   5.233  11.112 -0.7556  0.6362 -0.4542
  811MOL0     C 9404  -0.026   5.222  11.039  0.5199 -0.1336 -0.5599
  811MOL0     C 9405   0.430   5.300  10.942  0.4150  0.3404 -0.4390
  811MOL0     C 9406   0.415   5.185  10.859  0.0859  0.8296  0.8013
  811MOL0     C 9407   0.533   5.138  10.799 -0.8054  0.0100 -0.1657
  811MOL0     C 9408   0.655   5.205  10.815  0.0833  0.3849 -1.0650
  811MOL0     O 9409   0.777   5.180  10.762 -0.3403 -0.1765  0.0024
  811MOL0     C 9410   0.821   5.267  10.660 -0.3234 -0.3182  0.2575
  811MOL0     C 9411   0.886   5.202  10.532 -0.6364  0.0545 -0.6700
  811MOL0     C 9412   0.817   5.069  10.489 -0.5249  0.3129  0.0122
  811MOL0     C 9413   0.906   5.012  10.380 -1.0036  0.1755 -0.4658
  811MOL0     C 9414   0.860   4.873  10.348 -0.3795  0.1605 -0.4912
  811MOL0     C 9415   0.812   4.760  10.332  0.8424  0.1075  0.1203
  811MOL0     C 9416   0.666   5.313  10.900  0.1980 -1.1295 -0.6480
  811MOL0     C 9417   0.548   5.360  10.965 -0.4604 -0.3696 -0.4236
  811MOL0     H 9418   0.170   5.408  11.248 -1.9061  1.3448  1.6330
  811MOL0     H 9419  -0.035   5.410  11.376 -2.0714 -2.3393  1.2662
  811MOL0     H 9420  -0.419   5.293  11.169  0.6403  2.9163  0.8712
  811MOL0     H 9421  -0.399   5.162  11.298 -0.9226  0.7728  3.0975
  811MOL0     H 9422  -0.469   5.356  11.453  1.0235  1.3555 -1.0012
  811MOL0     H 9423  -0.527   5.438  11.304 -0.5247 -0.2560 -0.3918
  811MOL0     H 9424  -0.661   5.222  11.254 -0.8399 -2.5937  1.2701
  811MOL0     H 9425  -0.602   5.153  11.403 -1.4938 -0.1239  0.9433
  811MOL0     H 9426  -0.741   5.371  11.491 -1.3373  0.2380  1.0398
  811MOL0     H 9427  -0.806   5.367  11.317  1.5344 -4.3215 -2.1731
  811MOL0     H 9428  -0.879   5.130  11.359 -1.4304 -3.5945  2.9228
  811MOL0     H 9429  -0.845   5.144  11.524  1.1837  0.8622  0.3534
  811MOL0     H 9430  -1.007   5.338  11.549  0.0372  2.3864 -1.9429
  811MOL0     H 9431  -1.040   5.330  11.377  0.3187  0.4772 -0.0394
  811MOL0     H 9432  -1.136   5.079  11.418 -4.9071  0.2875  1.6262
  811MOL0     H 9433  -1.052   5.093  11.573  1.0737  1.6285  0.2174
  811MOL0     H 9434  -1.265   5.280  11.525  1.0344 -0.4134 -0.3067
  811MOL0     H 9435  -1.203   5.221  11.679  0.1854  0.5393 -0.8023
  811MOL0     H 9436  -1.511   5.243  11.629 -1.8276  0.8682 -2.9236
  811MOL0     H 9437  -1.714   4.911  11.616 -2.6574 -0.0690  1.1533
  811MOL0     H 9438  -1.709   5.024  11.744 -1.2961 -0.8752  0.2516
  811MOL0     H 9439  -1.796   5.063  11.453 -0.7700 -0.7077  0.5030
  811MOL0     H 9440  -1.762   5.210  11.555 -1.7903 -0.3915 -1.7048
  811MOL0     H 9441  -1.938   5.120  11.713 -1.9038 -0.2589 -0.2662
  811MOL0     H 9442  -1.964   4.975  11.602  0.9714 -1.0687 -1.8274
  811MOL0     H 9443  -2.133   5.129  11.565 -0.0245  3.2400  1.8174
  811MOL0     H 9444  -2.016   5.093  11.423  3.4527 -0.6310  1.1840
  811MOL0     H 9445  -1.986   5.527  11.391 -1.4261  1.4915  0.5254
  811MOL0     H 9446  -2.213   5.767  11.241  0.4838  0.6134 -0.8225
  811MOL0     H 9447  -2.084   5.754  11.342  0.9267  0.7995 -1.0139
  811MOL0     H 9448  -2.060   5.712  11.171  3.4086  2.1447  2.1504
  811MOL0     H 9449  -2.772   5.578  11.230  0.4456  0.4371 -0.1559
  811MOL0     H 9450  -2.944   5.594  11.089 -0.3572 -0.9121 -1.2132
  811MOL0     H 9451  -3.075   5.476  10.901  1.3194  0.9886  0.8421
  811MOL0     H 9452  -3.131   5.592  10.784 -0.0088  0.7666 -1.2278
  811MOL0     H 9453  -2.993   5.339  10.706  2.6128  0.9481 -0.2839
  811MOL0     H 9454  -3.149   5.409  10.659  1.2379 -3.0441  1.7282
  811MOL0     H 9455  -2.875   5.480  10.561 -1.0243 -2.5718  0.3643
  811MOL0     H 9456  -3.000   5.607  10.558  0.2970  0.2383 -0.2435
  811MOL0     H 9457  -3.091   5.345  10.442  1.1237  0.1707  0.9938
  811MOL0     H 9458  -3.154   5.498  10.429 -0.5465  0.0459  0.1405
  811MOL0     H 9459  -3.056   5.412  10.219  1.3834  0.5162 -3.2528
  811MOL0     H 9460  -2.891   5.409  10.286  0.6449  0.6797 -1.4456
  811MOL0     H 9461  -3.062   5.659  10.273 -1.4627 -2.4756 -1.2401
  811MOL0     H 9462  -2.886   5.649  10.312 -1.1812 -1.0449  3.2815
  811MOL0     H 9463  -2.828   5.583  10.096 -0.3309 -1.6061  1.3473
  811MOL0     H 9464  -2.919   5.736  10.087 -0.8389  0.1209 -2.1125
  811MOL0     H 9465  -3.110   5.588   9.990  1.4469  0.9957 -1.2749
  811MOL0     H 9466  -2.982   5.458   9.991  2.4354  0.5129 -0.5583
  811MOL0     H 9467  -2.691   5.530  10.746  2.8456 -3.4917  0.6872
  811MOL0     H 9468  -2.494   5.513  10.893 -0.4837 -1.0816 -1.4219
  811MOL0     H 9469  -2.384   5.308  11.213  2.1065 -1.9642 -0.6741
  811MOL0     H 9470  -2.239   5.183  11.355 -0.1749  0.1936  0.1915
  811MOL0     H 9471  -0.237   5.179  11.073 -0.6499 -1.1975  1.6532
  811MOL0     H 9472  -0.036   5.164  10.947 -2.3586  0.4012 -0.6742
  811MOL0     H 9473   0.319   5.141  10.834  0.8619  0.5167 -2.0069
  811MOL0     H 9474   0.533   5.055  10.729 -1.7015  2.3232 -3.1219
  811MOL0     H 9475   0.753   5.345  10.624  0.7937 -0.9085 -3.5927
  811MOL0     H 9476   0.907   5.323  10.696 -1.4182  1.4005  0.3092
  811MOL0     H 9477   0.991   5.185  10.559 -1.8420 -2.4857  3.1379
  811MOL0     H 9478   0.885   5.272  10.447  1.1012 -0.8279 -1.4691
  811MOL0     H 9479   0.716   5.089  10.452 -0.9831  0.5701  1.3477
  811MOL0     H 9480   0.798   4.995  10.568 -1.6043  0.7562  0.1755
  811MOL0     H 9481   1.008   5.002  10.417 -2.3101 -0.3730  3.5238
  811MOL0     H 9482   0.918   5.077  10.292  2.4026  2.3633  1.3788
  811MOL0     H 9483   0.771   4.662  10.334  4.0472 -1.4454  4.2295
  811MOL0     H 9484   0.760   5.360  10.927 -1.2134  1.5542 -0.0411
  811MOL0     H 9485   0.551   5.444  11.034  0.3322  0.3602 -1.3179
  812MOL0     O 9486   1.316  10.876   3.023  0.0639  0.2730 -0.0731
  812MOL0     C 9487   1.326  10.997   3.005 -0.0391  0.2971  0.0341
  812MOL0     O 9488   1.235  11.084   2.948  1.1429  0.1392 -0.5922
  812MOL0     C 9489   1.120  11.027   2.904  0.0535 -0.6733  0.3476
  812MOL0     C 9490   0.986  11.059   2.949 -0.4890 -0.5374 -0.2032
  812MOL0     C 9491   0.877  11.003   2.884  0.0803 -0.3233 -0.1299
  812MOL0     C 9492   0.891  10.913   2.778  1.2467  0.1179  0.0475
  812MOL0     O 9493   0.781  10.856   2.717 -0.6053  1.0394  0.1510
  812MOL0     C 9494   0.657  10.859   2.787  0.0902  0.2698  0.9744
  812MOL0     C 9495   0.567  10.967   2.729  0.0859  0.0277  0.3269
  812MOL0     C 9496   0.424  10.936   2.765  0.8835  0.2094  0.1266
  812MOL0     C 9497   0.320  11.030   2.696  0.2836  0.2660  0.2929
  812MOL0     C 9498   0.169  11.020   2.736  0.4221  0.1626  0.5557
  812MOL0     C 9499   0.089  11.127   2.653 -0.0133 -0.3073 -0.5256
  812MOL0     C 9500  -0.059  11.136   2.702  0.4270  1.6563 -0.8034
  812MOL0     C 9501  -0.122  11.003   2.666  0.0991  0.1461 -0.1766
  812MOL0     N 9502  -0.266  10.995   2.709 -0.1227 -0.7072 -0.1295
  812MOL0     C 9503  -0.307  10.969   2.838  0.5256 -0.3800  0.1976
  812MOL0     C 9504  -0.439  10.995   2.823  0.1547 -1.2672  0.1887
  812MOL0     C 9505  -0.550  10.954   2.919 -0.5478  0.2501 -0.4891
  812MOL0     C 9506  -0.598  10.819   2.868  0.6513 -0.7632  0.1991
  812MOL0     C 9507  -0.711  10.762   2.955 -0.1560  0.1472  0.7190
  812MOL0     C 9508  -0.838  10.854   2.973  0.4635  0.4386 -0.2788
  812MOL0     O 9509  -0.915  10.895   2.855  0.8968 -0.9147  0.0315
  812MOL0     C 9510  -1.053  10.905   2.875  0.3540  0.8514  0.0782
  812MOL0     C 9511  -1.129  10.864   2.984  0.0436  0.0297 -0.2288
  812MOL0     C 9512  -1.266  10.876   2.993 -0.1995 -0.5402  0.5495
  812MOL0     C 9513  -1.318  10.824   3.132  0.3041  0.4799 -0.9589
  812MOL0     C 9514  -1.342  10.934   2.887 -0.7281 -0.0430  0.6388
  812MOL0     C 9515  -1.485  10.943   2.882  0.2175  0.9820  0.0715
  812MOL0     O 9516  -1.546  10.999   2.781  0.1348 -0.2072  0.4789
  812MOL0     C 9517  -1.675  10.997   2.759  1.0601 -0.0207  0.5560
  812MOL0     C 9518  -1.768  10.904   2.815  0.5898 -0.7614  0.5716
  812MOL0     C 9519  -1.897  10.895   2.773 -0.3445  0.6738 -1.0005
  812MOL0     C 9520  -1.946  10.982   2.674 -0.7758  0.3997 -0.1461
  812MOL0     O 9521  -2.070  10.978   2.612 -0.3679  0.1197  0.3859
  812MOL0     C 9522  -2.172  10.884   2.668  0.0870  0.7188  0.5594
  812MOL0     C 9523  -2.300  10.936   2.611 -0.2454  0.2817  0.3208
  812MOL0     C 9524  -2.332  11.075   2.670 -0.2503  0.1662 -0.5438
  812MOL0     C 9525  -2.408  11.051   2.802 -0.6849 -0.2397  0.5816
  812MOL0     C 9526  -2.481  11.180   2.849 -0.6167 -0.4511 -0.0786
  812MOL0     C 9527  -2.373  11.279   2.913 -0.6592 -0.5460  0.7919
  812MOL0     C 9528  -2.446  11.411   2.949  0.3790 -0.3519 -0.3539
  812MOL0     C 9529  -2.355  11.490   3.044 -1.0127 -0.4182  0.1607
  812MOL0    Cl 9530  -2.413  11.659   3.060  0.6499 -0.1265 -0.3459
  812MOL0     C 9531  -1.849  11.080   2.632  0.1628  0.5698  1.2202
  812MOL0     C 9532  -1.724  11.095   2.675 -0.5173  0.4205 -0.6479
  812MOL0     O 9533  -1.542  10.909   2.984  0.6204 -0.0262  0.0508
  812MOL0     C 9534  -1.263  11.000   2.788 -0.7119  0.9193 -0.1538
  812MOL0     C 9535  -1.122  10.971   2.765  1.5808  0.6481 -0.6439
  812MOL0     N 9536  -0.476  11.042   2.697 -0.3775 -0.2173 -0.5550
  812MOL0     N 9537  -0.371  11.040   2.624  0.4381 -0.5698  0.7861
  812MOL0     C 9538   1.024  10.870   2.747 -0.3055  0.9520  0.4968
  812MOL0     C 9539   1.137  10.928   2.799  0.4645 -0.6441 -0.0205
  812MOL0     C 9540   1.453  11.056   3.034 -0.1117  0.4379 -0.4661
  812MOL0     C 9541   1.465  11.195   3.019 -0.5591  0.4022  0.4367
  812MOL0     C 9542   1.589  11.257   3.037  0.1800  0.4102 -0.2856
  812MOL0     C 9543   1.701  11.171   3.068 -0.1275  0.0924 -0.2392
  812MOL0     O 9544   1.820  11.238   3.096  1.0621 -0.6466  0.1153
  812MOL0     C 9545   1.906  11.174   3.192  0.1822  0.6217  1.1315
  812MOL0     C 9546   2.027  11.259   3.244  0.1654 -0.0228 -0.0601
  812MOL0     C 9547   2.101  11.201   3.358  0.7036 -0.2690 -0.7130
  812MOL0     C 9548   2.210  11.295   3.412 -0.0983  1.2150  0.1593
  812MOL0     C 9549   2.275  11.236   3.528 -0.3065  0.2147 -0.2891
  812MOL0     C 9550   2.359  11.193   3.604  0.6252 -0.0560  0.2001
  812MOL0     C 9551   1.679  11.032   3.092 -0.2834  0.3349  0.2182
  812MOL0     C 9552   1.558  10.975   3.073 -0.2059  0.5812  0.7985
  812MOL0     H 9553   0.974  11.137   3.024  0.7203 -0.2788 -0.2665
  812MOL0     H 9554   0.782  11.039   2.924  0.9366 -0.5923  2.3227
  812MOL0     H 9555   0.614  10.760   2.773  0.0684  0.6062 -1.8022
  812MOL0     H 9556   0.670  10.862   2.896  0.3122 -3.1030  1.1299
  812MOL0     H 9557   0.586  11.065   2.774 -1.2189 -1.3975  4.4111
  812MOL0     H 9558   0.569  10.966   2.620  1.1302 -6.2716  0.0449
  812MOL0     H 9559   0.399  10.830   2.753  1.9634 -0.0073 -0.3460
  812MOL0     H 9560   0.417  10.949   2.874  0.5870 -0.7070  0.2239
  812MOL0     H 9561   0.355  11.133   2.705  1.4407  0.0822 -1.4499
  812MOL0     H 9562   0.328  11.002   2.590  2.6884 -0.2285  0.5399
  812MOL0     H 9563   0.134  10.919   2.719  1.7629 -0.5173  1.6081
  812MOL0     H 9564   0.163  11.041   2.843  0.0287  0.8971  0.3940
  812MOL0     H 9565   0.140  11.221   2.674  0.5589 -1.2125  2.6617
  812MOL0     H 9566   0.087  11.109   2.545  0.0285 -1.0698 -0.4049
  812MOL0     H 9567  -0.071  11.142   2.810 -1.3470  0.2661 -0.8790
  812MOL0     H 9568  -0.112  11.218   2.652 -2.0196  1.1529  0.7728
  812MOL0     H 9569  -0.067  10.917   2.706  0.3508  0.7807  0.9102
  812MOL0     H 9570  -0.131  11.005   2.557  0.7066  0.6194 -0.2233
  812MOL0     H 9571  -0.250  10.914   2.912 -0.6504 -3.3781 -0.9584
  812MOL0     H 9572  -0.510  10.944   3.021 -3.7055  4.6538  1.5045
  812MOL0     H 9573  -0.631  11.026   2.929 -1.6984 -0.9883 -0.7233
  812MOL0     H 9574  -0.508  10.758   2.857 -0.7041 -2.4934 -2.3016
  812MOL0     H 9575  -0.648  10.829   2.771 -4.8607  1.4061  2.8453
  812MOL0     H 9576  -0.653  10.740   3.045  2.5643 -3.2865 -1.5644
  812MOL0     H 9577  -0.747  10.665   2.920  1.5153  0.1903 -1.3250
  812MOL0     H 9578  -0.827  10.941   3.038  2.3541 -0.9231  1.3295
  812MOL0     H 9579  -0.897  10.777   3.024  0.5798  2.0056  2.3984
  812MOL0     H 9580  -1.087  10.819   3.073 -2.0993 -1.0308  0.2867
  812MOL0     H 9581  -1.373  10.730   3.126 -2.5642  1.8765  1.1594
  812MOL0     H 9582  -1.237  10.814   3.206 -2.4362  2.9363  2.7576
  812MOL0     H 9583  -1.376  10.909   3.169  1.6582  2.7104 -3.5873
  812MOL0     H 9584  -1.724  10.816   2.860  2.1176 -1.6495 -2.3432
  812MOL0     H 9585  -1.974  10.832   2.817 -1.2569  3.7878  2.3380
  812MOL0     H 9586  -2.155  10.781   2.635 -0.0111  0.3960  1.4905
  812MOL0     H 9587  -2.183  10.892   2.777 -0.4672  1.6989  0.4474
  812MOL0     H 9588  -2.284  10.955   2.505  0.0779  0.7803  0.4586
  812MOL0     H 9589  -2.379  10.860   2.616 -0.0916  0.1776  2.2666
  812MOL0     H 9590  -2.387  11.136   2.598 -1.5406 -0.6055 -0.2498
  812MOL0     H 9591  -2.238  11.130   2.686  0.3421 -0.7302 -0.8963
  812MOL0     H 9592  -2.494  10.985   2.790  0.8887 -2.6821  1.9184
  812MOL0     H 9593  -2.349  11.008   2.883 -2.4885  0.8972  2.6219
  812MOL0     H 9594  -2.551  11.163   2.932  1.1090 -0.1529  1.5018
  812MOL0     H 9595  -2.531  11.226   2.763  0.3075 -1.9380 -1.4548
  812MOL0     H 9596  -2.322  11.238   3.001 -1.2735  0.5226  1.6777
  812MOL0     H 9597  -2.298  11.311   2.840  0.0649 -3.1688  0.2797
  812MOL0     H 9598  -2.546  11.400   2.993  0.9828  2.1081  1.8687
  812MOL0     H 9599  -2.468  11.465   2.857 -2.7587  0.4652  0.7469
  812MOL0     H 9600  -2.250  11.495   3.013 -1.0192 -0.5732  0.1120
  812MOL0     H 9601  -2.352  11.454   3.148  2.8681 -0.8566  0.0354
  812MOL0     H 9602  -1.884  11.141   2.550 -0.6072  0.9763  1.8417
  812MOL0     H 9603  -1.660  11.175   2.640  1.3925 -0.8192 -0.1087
  812MOL0     H 9604  -1.325  11.050   2.714 -0.9349  0.6807 -0.1274
  812MOL0     H 9605  -1.079  11.005   2.672  2.1369  4.3438  0.7892
  812MOL0     H 9606   1.032  10.789   2.676 -0.1152 -0.9330  2.5772
  812MOL0     H 9607   1.238  10.916   2.762 -0.1628  0.5890 -2.3059
  812MOL0     H 9608   1.375  11.255   3.012 -0.6897  0.0692 -1.3362
  812MOL0     H 9609   1.608  11.364   3.027  0.4060  0.4176  0.2317
  812MOL0     H 9610   1.850  11.151   3.283 -2.5007  3.7577  0.4818
  812MOL0     H 9611   1.952  11.091   3.138 -0.6495  0.8959 -0.0382
  812MOL0     H 9612   1.990  11.358   3.270 -2.2477 -1.2342  1.4859
  812MOL0     H 9613   2.107  11.256   3.169  2.6442 -1.8416  2.4162
  812MOL0     H 9614   2.144  11.104   3.330 -0.3749 -1.7104  2.1735
  812MOL0     H 9615   2.036  11.169   3.440  1.8727 -1.6967 -0.2842
  812MOL0     H 9616   2.173  11.393   3.443  0.8145  0.8037  2.8530
  812MOL0     H 9617   2.282  11.299   3.329  2.3224 -0.8331  1.9843
  812MOL0     H 9618   2.431  11.154   3.672 -2.0074 -1.9200  2.0966
  812MOL0     H 9619   1.761  10.975   3.135 -0.0620 -0.5981 -1.3460
  812MOL0     H 9620   1.533  10.869   3.083  0.1874  0.6017  2.1763
  813MOL0     O 9621   6.777   6.450   3.214  0.4509  0.3127 -0.1314
  813MOL0     C 9622   6.850   6.361   3.245  0.0066 -0.5545 -0.1324
  813MOL0     O 9623   6.817   6.233   3.279 -0.3108 -0.3617  0.6756
  813MOL0     C 9624   6.685   6.192   3.255  0.1279 -0.6107 -0.5073
  813MOL0     C 9625   6.622   6.207   3.130 -0.1554 -0.3597  0.5388
  813MOL0     C 9626   6.497   6.151   3.102  0.6865  0.1004 -0.1420
  813MOL0     C 9627   6.431   6.077   3.196 -0.2841 -0.1340 -0.5303
  813MOL0     O 9628   6.298   6.042   3.170  0.3836 -0.5778  0.6021
  813MOL0     C 9629   6.221   5.981   3.272 -0.1753 -0.9813 -0.2357
  813MOL0     C 9630   6.079   6.024   3.250  0.5531  0.2158 -1.0438
  813MOL0     C 9631   6.019   5.963   3.125  0.6917 -0.1089 -0.0944
  813MOL0     C 9632   5.872   6.009   3.110  0.6486  0.9234 -0.0126
  813MOL0     C 9633   5.799   5.920   3.001 -0.1327 -0.4149  0.2452
  813MOL0     C 9634   5.657   5.975   2.988  0.5140  0.2746  0.6947
  813MOL0     C 9635   5.562   5.919   3.098 -0.2452 -0.1215 -0.4697
  813MOL0     C 9636   5.479   6.030   3.168  0.3336 -0.3951 -0.5109
  813MOL0     N 9637   5.386   5.976   3.266 -0.2545 -0.0243  0.5957
  813MOL0     C 9638   5.406   5.885   3.365 -0.0841 -0.1733  0.1464
  813MOL0     C 9639   5.285   5.850   3.398  0.4356 -0.4821 -0.9566
  813MOL0     C 9640   5.234   5.787   3.523 -0.1203  0.2162 -0.8592
  813MOL0     C 9641   5.131   5.684   3.507  0.1012  1.2814 -0.6457
  813MOL0     C 9642   5.109   5.615   3.638 -0.0257  0.6959  0.1110
  813MOL0     C 9643   5.113   5.689   3.775  0.5090  1.1486  0.5631
  813MOL0     O 9644   5.000   5.780   3.779 -0.4767 -0.5653  0.0755
  813MOL0     C 9645   5.022   5.914   3.801  0.7487 -0.3811  0.8657
  813MOL0     C 9646   4.918   5.991   3.737 -0.9890  0.3400  1.0462
  813MOL0     C 9647   4.926   6.131   3.747  0.1281  0.9236 -0.0849
  813MOL0     C 9648   4.807   6.212   3.698  0.3639  0.1184  0.4608
  813MOL0     C 9649   5.028   6.192   3.821  1.3867  0.3376 -1.0918
  813MOL0     C 9650   5.043   6.338   3.843  0.3899  0.1711 -0.7427
  813MOL0     O 9651   4.997   6.414   3.736  0.0213 -0.4392  0.3474
  813MOL0     C 9652   5.031   6.544   3.738  0.0061  0.4829  0.0492
  813MOL0     C 9653   4.930   6.621   3.788  0.5981 -0.0095  0.4684
  813MOL0     C 9654   4.940   6.753   3.780 -0.8060 -0.0920  0.4820
  813MOL0     C 9655   5.059   6.812   3.721 -0.0842  0.3507 -0.7565
  813MOL0     O 9656   5.077   6.947   3.699 -0.0421  0.1643 -1.1722
  813MOL0     C 9657   4.973   7.044   3.720  0.1275 -0.4242  0.2469
  813MOL0     C 9658   4.870   7.036   3.613  0.2027 -0.5340 -0.6570
  813MOL0     C 9659   4.775   7.161   3.619 -0.3749  0.7929 -0.9775
  813MOL0     C 9660   4.707   7.189   3.750  0.2588 -0.2089 -0.0761
  813MOL0     C 9661   4.591   7.292   3.752  0.4170 -0.4411 -0.7144
  813MOL0     C 9662   4.663   7.423   3.757  0.2743  0.4950 -0.1579
  813MOL0     C 9663   4.548   7.529   3.745 -0.5798  0.5615  0.0641
  813MOL0     C 9664   4.618   7.663   3.717  0.1327  0.6380 -1.0519
  813MOL0    Cl 9665   4.696   7.671   3.568  0.4249  0.1359 -0.0466
  813MOL0     C 9666   5.167   6.732   3.687 -0.9651 -0.5589  0.2049
  813MOL0     C 9667   5.153   6.594   3.696 -1.5826 -0.5684 -0.4834
  813MOL0     O 9668   5.107   6.376   3.940  0.5463 -0.3768 -0.9611
  813MOL0     C 9669   5.129   6.105   3.889 -0.2292 -0.8021  0.5033
  813MOL0     C 9670   5.122   5.968   3.875 -0.4927  0.7089  0.3606
  813MOL0     N 9671   5.192   5.907   3.316  0.7255  0.3771  0.5424
  813MOL0     N 9672   5.254   5.995   3.236  0.0223 -0.2192 -0.5444
  813MOL0     C 9673   6.490   6.051   3.325 -0.4781 -0.6004  0.6299
  813MOL0     C 9674   6.619   6.115   3.348 -0.4493  0.2354 -0.0159
  813MOL0     C 9675   6.994   6.390   3.240  0.3574  0.1275  0.4708
  813MOL0     C 9676   7.038   6.507   3.181 -0.2029 -0.2917  0.0778
  813MOL0     C 9677   7.174   6.525   3.170 -0.2541  0.0993 -0.9200
  813MOL0     C 9678   7.263   6.442   3.236  0.2906  1.1373 -0.1541
  813MOL0     O 9679   7.395   6.449   3.210  0.3017 -0.2970  0.6479
  813MOL0     C 9680   7.484   6.442   3.335 -0.0110  0.8904  0.2209
  813MOL0     C 9681   7.592   6.550   3.327 -0.3534  0.0859  0.3908
  813MOL0     C 9682   7.678   6.554   3.448  0.5061 -0.2747  0.1786
  813MOL0     C 9683   7.790   6.661   3.436 -0.4595  0.1461  0.3264
  813MOL0     C 9684   7.906   6.621   3.357  0.4944 -0.0194  0.5870
  813MOL0     C 9685   8.000   6.600   3.294 -0.5159 -0.3067  0.3020
  813MOL0     C 9686   7.215   6.335   3.320 -0.0611  0.3717  0.0820
  813MOL0     C 9687   7.077   6.306   3.323  0.5889 -0.0709 -0.9151
  813MOL0     H 9688   6.669   6.253   3.044 -0.2937 -0.9243  0.1513
  813MOL0     H 9689   6.441   6.174   3.012  2.6510  0.4577 -1.3289
  813MOL0     H 9690   6.219   5.872   3.263  0.1178 -1.1940  1.7645
  813MOL0     H 9691   6.236   6.012   3.376  1.0315  1.8394 -1.1574
  813MOL0     H 9692   6.021   5.988   3.336  0.8238  0.6147 -0.6920
  813MOL0     H 9693   6.066   6.131   3.231 -1.6549  0.1530 -0.1559
  813MOL0     H 9694   6.079   5.991   3.038  2.5463  1.8893  1.7047
  813MOL0     H 9695   6.031   5.855   3.135  0.5128 -0.1341 -0.1504
  813MOL0     H 9696   5.812   6.001   3.201 -0.8095  1.3481 -0.8983
  813MOL0     H 9697   5.880   6.113   3.076  0.0731  0.9731 -0.0048
  813MOL0     H 9698   5.846   5.948   2.906 -1.2248  1.8383  0.2925
  813MOL0     H 9699   5.793   5.812   3.016 -1.8198 -0.1791  1.4530
  813MOL0     H 9700   5.648   6.083   2.974  1.9925  0.3680  0.3575
  813MOL0     H 9701   5.621   5.920   2.900  0.3321  0.0565  0.9032
  813MOL0     H 9702   5.487   5.852   3.055 -0.5811 -0.5082  0.6643
  813MOL0     H 9703   5.619   5.862   3.173 -0.3023 -2.4849 -2.1114
  813MOL0     H 9704   5.430   6.096   3.097 -0.7562  0.2559  0.8049
  813MOL0     H 9705   5.553   6.095   3.216  1.5201 -1.6341 -0.5717
  813MOL0     H 9706   5.504   5.853   3.397  0.7350 -0.8647 -2.7561
  813MOL0     H 9707   5.324   5.737   3.559 -0.1386  2.5910  3.0583
  813MOL0     H 9708   5.213   5.861   3.601  2.2054 -1.4699  1.5403
  813MOL0     H 9709   5.176   5.611   3.440  1.9374  0.6355  1.2060
  813MOL0     H 9710   5.031   5.714   3.474 -0.5592  1.4464  1.3696
  813MOL0     H 9711   5.177   5.530   3.641 -2.8343 -1.7038  0.7918
  813MOL0     H 9712   5.012   5.564   3.637 -0.1092  0.8585 -0.5639
  813MOL0     H 9713   5.208   5.740   3.793  0.6126  0.9133  0.6916
  813MOL0     H 9714   5.106   5.614   3.854  0.3470 -0.3860 -0.8442
  813MOL0     H 9715   4.841   5.948   3.672 -0.4878  1.8990 -0.6783
  813MOL0     H 9716   4.803   6.237   3.591  1.3380 -0.5393  0.2589
  813MOL0     H 9717   4.717   6.161   3.732  0.4266  1.0646  2.1238
  813MOL0     H 9718   4.806   6.307   3.753  0.6336  0.5389 -0.2383
  813MOL0     H 9719   4.832   6.582   3.816 -0.1029  0.9272 -0.6123
  813MOL0     H 9720   4.859   6.822   3.801  0.0429  1.9212 -2.3627
  813MOL0     H 9721   4.928   7.044   3.820  0.0537  4.5599  0.4403
  813MOL0     H 9722   5.020   7.142   3.714  0.2814 -0.5170 -0.0540
  813MOL0     H 9723   4.932   7.037   3.523 -2.1112  2.4618 -2.4186
  813MOL0     H 9724   4.814   6.943   3.625 -1.4574  0.3564 -1.1373
  813MOL0     H 9725   4.703   7.136   3.541  1.5728 -2.7115 -1.8620
  813MOL0     H 9726   4.838   7.247   3.596  0.8410  0.4633  0.8996
  813MOL0     H 9727   4.676   7.091   3.785  4.1315 -1.5886 -0.0966
  813MOL0     H 9728   4.775   7.218   3.830 -0.5486  1.5267  0.0303
  813MOL0     H 9729   4.517   7.282   3.831  2.6060 -0.4623  1.4672
  813MOL0     H 9730   4.553   7.289   3.649  0.6919  0.6137 -0.8586
  813MOL0     H 9731   4.731   7.433   3.843 -0.5908  0.1448  0.5839
  813MOL0     H 9732   4.730   7.427   3.671 -2.0278  0.4054 -2.0580
  813MOL0     H 9733   4.488   7.545   3.835 -1.2187  0.1952 -0.2851
  813MOL0     H 9734   4.485   7.508   3.657  0.8614  0.9794 -1.1120
  813MOL0     H 9735   4.679   7.685   3.806  0.3361 -0.7441 -0.8234
  813MOL0     H 9736   4.548   7.748   3.719  1.5313  1.8318  0.3865
  813MOL0     H 9737   5.259   6.773   3.647 -0.2115 -1.1589  1.2914
  813MOL0     H 9738   5.237   6.536   3.659 -0.4499  1.6395 -1.5747
  813MOL0     H 9739   5.199   6.151   3.957  1.1049 -1.5112 -0.3432
  813MOL0     H 9740   5.193   5.902   3.923 -0.0974 -1.0609 -2.4402
  813MOL0     H 9741   6.454   5.983   3.401 -0.3572 -1.5808 -0.1698
  813MOL0     H 9742   6.664   6.076   3.439 -1.3092 -2.2104 -0.5572
  813MOL0     H 9743   6.961   6.567   3.132 -2.9106 -2.0523  1.9402
  813MOL0     H 9744   7.204   6.609   3.108 -2.0190 -0.2413 -2.3346
  813MOL0     H 9745   7.430   6.455   3.430 -0.8936 -2.7970  0.3764
  813MOL0     H 9746   7.536   6.346   3.335 -1.9782 -0.2313  0.9924
  813MOL0     H 9747   7.549   6.650   3.314  1.3557  0.9088  0.6847
  813MOL0     H 9748   7.651   6.518   3.241 -2.9135 -1.0141 -1.0590
  813MOL0     H 9749   7.718   6.460   3.487  0.7602 -0.4726 -0.5476
  813MOL0     H 9750   7.620   6.586   3.536  0.2841 -0.0117 -0.0602
  813MOL0     H 9751   7.820   6.691   3.537  0.0381  0.7120  0.0128
  813MOL0     H 9752   7.752   6.751   3.388 -0.5797 -0.0145  0.1160
  813MOL0     H 9753   8.076   6.599   3.219 -1.2994  0.6697 -0.5264
  813MOL0     H 9754   7.289   6.265   3.357  0.9027 -1.5195 -4.7062
  813MOL0     H 9755   7.045   6.215   3.373 -1.1504  0.2121 -1.4547
  814MOL0     O 9756   8.563   0.958   1.808 -0.2219 -0.4531  0.5007
  814MOL0     C 9757   8.621   0.869   1.863 -0.1359  0.6465 -0.2957
  814MOL0     O 9758   8.573   0.808   1.974  0.0690  0.0094 -0.1170
  814MOL0     C 9759   8.464   0.855   2.046  0.1219 -0.3280  0.0250
  814MOL0     C 9760   8.437   0.988   2.058 -0.4573 -0.4345 -0.3395
  814MOL0     C 9761   8.320   1.034   2.120  0.9767 -0.0385  0.2933
  814MOL0     C 9762   8.228   0.948   2.166 -0.1207  1.1753 -0.1786
  814MOL0     O 9763   8.107   0.993   2.227 -0.3040  0.1279  0.0537
  814MOL0     C 9764   7.996   0.913   2.252  0.7951  0.0402 -0.1266
  814MOL0     C 9765   7.874   1.012   2.265  0.3310 -0.4483 -0.8472
  814MOL0     C 9766   7.757   0.940   2.321  0.2141 -0.5203  0.1295
  814MOL0     C 9767   7.661   1.060   2.361 -0.2802 -0.7726  0.0444
  814MOL0     C 9768   7.539   0.986   2.437  0.1173 -0.1201 -0.1489
  814MOL0     C 9769   7.437   1.088   2.493  0.5454  0.2630 -0.3939
  814MOL0     C 9770   7.308   1.026   2.553 -1.1369  0.3759  1.1992
  814MOL0     C 9771   7.217   1.137   2.612 -0.7542  0.4198  0.0317
  814MOL0     N 9772   7.102   1.063   2.676  0.0130  0.2133  0.1311
  814MOL0     C 9773   7.016   1.121   2.768  0.9988  0.5942 -0.1581
  814MOL0     C 9774   6.913   1.027   2.789 -0.1559  0.3413  0.2138
  814MOL0     C 9775   6.796   1.052   2.883  0.2184 -0.3683 -0.7336
  814MOL0     C 9776   6.665   1.044   2.805 -0.2829 -0.7223  1.0262
  814MOL0     C 9777   6.551   1.090   2.897  0.3624  0.8417 -0.6389
  814MOL0     C 9778   6.419   1.092   2.826 -0.8585 -0.4900 -0.8688
  814MOL0     O 9779   6.348   1.218   2.867 -0.2478  0.4162 -0.2199
  814MOL0     C 9780   6.220   1.202   2.903 -0.0850  0.8125 -0.0256
  814MOL0     C 9781   6.126   1.126   2.827 -0.0205  0.0623 -0.8327
  814MOL0     C 9782   5.998   1.097   2.863 -0.0326 -0.5593 -0.2607
  814MOL0     C 9783   5.909   1.028   2.759 -0.0355  0.8342 -0.1458
  814MOL0     C 9784   5.955   1.155   2.991  0.0833  0.8169  0.6511
  814MOL0     C 9785   5.816   1.148   3.038  0.1058  0.0575 -0.0356
  814MOL0     O 9786   5.719   1.133   2.946  0.1975  0.2247  0.1795
  814MOL0     C 9787   5.595   1.099   3.001  0.6385  0.9393  0.0714
  814MOL0     C 9788   5.508   1.192   3.057  0.2027  0.0816 -1.1571
  814MOL0     C 9789   5.380   1.146   3.092 -0.0714  0.0559 -0.4411
  814MOL0     C 9790   5.345   1.014   3.072 -0.1716 -0.2021 -0.4002
  814MOL0     O 9791   5.220   0.968   3.129  0.6186 -0.0819  0.4754
  814MOL0     C 9792   5.166   0.836   3.108  0.5174  0.9490  0.4475
  814MOL0     C 9793   5.226   0.725   3.195  0.2732 -0.1586  0.0925
  814MOL0     C 9794   5.239   0.750   3.353 -0.3615  0.1804 -0.2952
  814MOL0     C 9795   5.110   0.809   3.411 -0.7044  0.6862  0.2523
  814MOL0     C 9796   5.130   0.821   3.567  0.4784 -0.9818  0.2094
  814MOL0     C 9797   5.020   0.909   3.634 -0.8331 -0.7601 -0.5544
  814MOL0     C 9798   4.881   0.884   3.568 -0.9635 -0.0794  0.8414
  814MOL0     C 9799   4.819   0.744   3.600  0.3518  0.5739 -0.1721
  814MOL0    Cl 9800   4.649   0.759   3.573 -0.2647  0.1049  0.3028
  814MOL0     C 9801   5.431   0.921   3.013  0.1554 -0.0928 -0.8314
  814MOL0     C 9802   5.557   0.962   2.984 -0.5531  0.1816 -0.1156
  814MOL0     O 9803   5.799   1.153   3.160  0.2155  0.3142 -0.1339
  814MOL0     C 9804   6.045   1.228   3.073 -0.9782  0.0988 -0.1880
  814MOL0     C 9805   6.172   1.250   3.024  0.0188 -0.1468  0.1101
  814MOL0     N 9806   6.937   0.909   2.713 -0.0451  0.5782 -0.4464
  814MOL0     N 9807   7.053   0.933   2.650  0.1080 -0.3610  0.4423
  814MOL0     C 9808   8.252   0.804   2.157 -0.0582 -0.6549 -0.0409
  814MOL0     C 9809   8.374   0.769   2.098  0.2424  0.0973  0.5606
  814MOL0     C 9810   8.751   0.808   1.804  0.0361 -0.1044  0.1179
  814MOL0     C 9811   8.826   0.878   1.703 -0.2172 -0.6302 -1.0317
  814MOL0     C 9812   8.953   0.843   1.663 -0.2755  0.2256 -0.5715
  814MOL0     C 9813   9.011   0.730   1.714  1.0734  0.3397  0.5593
  814MOL0     O 9814   9.133   0.690   1.686 -0.3919 -0.3804  0.8210
  814MOL0     C 9815   9.223   0.767   1.600 -0.4702  0.3896  0.1952
  814MOL0     C 9816   9.363   0.722   1.652 -0.3031 -0.1827 -0.4430
  814MOL0     C 9817   9.463   0.826   1.600  0.4788  0.3269 -0.8849
  814MOL0     C 9818   9.601   0.783   1.625  0.6156 -0.1028 -0.5859
  814MOL0     C 9819   9.691   0.874   1.572 -0.2747  0.4527  0.8424
  814MOL0     C 9820   9.760   0.946   1.505 -0.0987 -0.7868 -0.1023
  814MOL0     C 9821   8.924   0.641   1.790 -0.2334 -0.5180  0.1453
  814MOL0     C 9822   8.805   0.685   1.845 -1.4032  1.0561 -0.0148
  814MOL0     H 9823   8.511   1.055   2.016 -1.8167  1.6340  0.4001
  814MOL0     H 9824   8.306   1.140   2.143 -0.1644 -0.9030  4.4185
  814MOL0     H 9825   7.977   0.835   2.178 -1.7770 -0.1928  0.6825
  814MOL0     H 9826   8.025   0.873   2.349  1.7929  0.5102 -0.2173
  814MOL0     H 9827   7.896   1.099   2.328  2.2294 -0.0783 -1.9419
  814MOL0     H 9828   7.854   1.061   2.169  4.8211  1.4134 -1.1004
  814MOL0     H 9829   7.724   0.875   2.240  3.0454 -0.8808 -0.8333
  814MOL0     H 9830   7.786   0.887   2.412 -0.7730  2.2818  2.2421
  814MOL0     H 9831   7.708   1.137   2.422  0.9314 -1.8557  0.5288
  814MOL0     H 9832   7.614   1.113   2.278  0.9152 -1.6663 -1.2557
  814MOL0     H 9833   7.487   0.921   2.366  0.0716  2.6443 -2.8176
  814MOL0     H 9834   7.587   0.920   2.510 -2.2881 -2.7054 -0.7344
  814MOL0     H 9835   7.488   1.147   2.569  1.8674 -1.6347  0.2677
  814MOL0     H 9836   7.400   1.151   2.411  0.4816 -0.5177 -0.9748
  814MOL0     H 9837   7.264   0.968   2.472  3.0334 -1.5587  0.0473
  814MOL0     H 9838   7.349   0.956   2.627  1.0153 -0.5259 -0.7178
  814MOL0     H 9839   7.192   1.210   2.534  2.8715 -0.3785 -2.0910
  814MOL0     H 9840   7.274   1.198   2.682  0.4385 -0.2957 -0.2888
  814MOL0     H 9841   7.036   1.219   2.811  1.4002  0.8928 -1.0095
  814MOL0     H 9842   6.797   0.983   2.968 -1.0398  1.1211  0.5437
  814MOL0     H 9843   6.815   1.154   2.918 -0.2911 -0.3665 -0.4547
  814MOL0     H 9844   6.643   0.944   2.767  0.0499  0.2837 -2.1646
  814MOL0     H 9845   6.664   1.114   2.720  1.1106 -2.8102 -0.8160
  814MOL0     H 9846   6.579   1.190   2.931  1.8185  0.3115 -0.1990
  814MOL0     H 9847   6.550   1.023   2.984 -1.6143  1.7703  0.0905
  814MOL0     H 9848   6.365   0.997   2.823 -2.1482  0.2326 -2.8431
  814MOL0     H 9849   6.453   1.107   2.723 -0.0778  1.8801 -0.3370
  814MOL0     H 9850   6.157   1.098   2.727 -2.2924 -1.0553 -1.3013
  814MOL0     H 9851   5.869   0.934   2.801  2.3940  0.4980  1.6097
  814MOL0     H 9852   5.835   1.095   2.713  0.9694  1.3990 -0.9754
  814MOL0     H 9853   5.971   0.992   2.677 -1.6864  0.5637 -1.3381
  814MOL0     H 9854   5.526   1.296   3.083 -1.7597 -0.1197  1.3087
  814MOL0     H 9855   5.308   1.201   3.151 -2.1958 -5.3392  2.7354
  814MOL0     H 9856   5.057   0.828   3.120  0.4900 -0.2511 -0.4584
  814MOL0     H 9857   5.173   0.806   3.003  2.3744 -2.5741  1.4451
  814MOL0     H 9858   5.158   0.640   3.185  0.3906 -0.4811  1.7882
  814MOL0     H 9859   5.327   0.701   3.160  0.4838 -0.5269  0.9260
  814MOL0     H 9860   5.318   0.826   3.359 -1.6597  2.1603 -4.5455
  814MOL0     H 9861   5.263   0.662   3.412 -2.5204 -0.7415 -0.7005
  814MOL0     H 9862   5.093   0.910   3.370  0.6899  1.2108  0.9012
  814MOL0     H 9863   5.024   0.747   3.383 -1.3358  2.1798 -1.2959
  814MOL0     H 9864   5.223   0.873   3.592  1.3482 -0.8627 -2.9288
  814MOL0     H 9865   5.134   0.721   3.611  4.0596 -0.4280  1.4397
  814MOL0     H 9866   5.016   0.893   3.743 -0.8611 -0.0961 -0.4521
  814MOL0     H 9867   5.042   1.013   3.611 -0.9421 -1.2241 -2.9796
  814MOL0     H 9868   4.884   0.901   3.460  1.8875  0.6041  0.9620
  814MOL0     H 9869   4.817   0.966   3.602  0.4231  1.2236  0.4185
  814MOL0     H 9870   4.838   0.729   3.707 -2.8291  2.2900  0.7681
  814MOL0     H 9871   4.855   0.660   3.540  1.7173 -0.0032  1.3834
  814MOL0     H 9872   5.405   0.817   2.995  0.1067 -0.1107 -0.6618
  814MOL0     H 9873   5.633   0.893   2.950 -2.0097 -0.8910 -1.2547
  814MOL0     H 9874   6.015   1.282   3.162 -2.4830 -1.1698  0.1207
  814MOL0     H 9875   6.243   1.295   3.093  1.1816 -2.4149  0.4958
  814MOL0     H 9876   8.179   0.734   2.196 -0.7910  0.9950  1.7308
  814MOL0     H 9877   8.398   0.664   2.081  0.7444  0.4743 -1.3797
  814MOL0     H 9878   8.792   0.975   1.669 -1.4251  0.3624  2.6186
  814MOL0     H 9879   9.007   0.923   1.613 -0.0071  2.3444  2.7537
  814MOL0     H 9880   9.211   0.739   1.494 -0.6559  1.4303 -0.0647
  814MOL0     H 9881   9.211   0.875   1.606 -1.3324  0.2747  0.7283
  814MOL0     H 9882   9.385   0.617   1.632 -0.2445 -0.2827  0.1297
  814MOL0     H 9883   9.366   0.722   1.761  2.2619  0.3951 -0.4554
  814MOL0     H 9884   9.443   0.912   1.664 -2.6652 -1.0595  0.1968
  814MOL0     H 9885   9.451   0.849   1.493 -0.1120  2.3508 -0.4239
  814MOL0     H 9886   9.627   0.683   1.588  0.8752 -0.5531  0.7285
  814MOL0     H 9887   9.622   0.785   1.733  0.9361  1.6143 -0.6486
  814MOL0     H 9888   9.822   1.012   1.448 -1.0182 -0.8136 -1.1826
  814MOL0     H 9889   8.965   0.544   1.813 -0.9583 -1.0475 -0.6926
  814MOL0     H 9890   8.751   0.620   1.913 -0.8078  0.9029  0.3177
  815MOL0     O 9891   9.737   2.589   7.765 -0.1618 -0.0895  0.9765
  815MOL0     C 9892   9.797   2.563   7.662  0.3928  0.3465  0.9705
  815MOL0     O 9893   9.738   2.539   7.540 -0.0842  0.7555  0.0812
  815MOL0     C 9894   9.609   2.502   7.534 -0.2444  0.5389 -0.0374
  815MOL0     C 9895   9.545   2.426   7.630  0.3082  0.9190 -0.1463
  815MOL0     C 9896   9.410   2.376   7.592  1.1038 -0.1370 -0.5574
  815MOL0     C 9897   9.352   2.400   7.469 -0.9700 -0.3815  0.2868
  815MOL0     O 9898   9.240   2.335   7.426 -0.3324  0.5314 -0.2475
  815MOL0     C 9899   9.167   2.354   7.311 -0.0923  0.0137  1.2384
  815MOL0     C 9900   9.094   2.487   7.312  0.6548 -0.5866  0.6906
  815MOL0     C 9901   9.002   2.505   7.431 -0.4352  0.7424 -0.0661
  815MOL0     C 9902   8.905   2.390   7.459 -0.6666 -1.1717 -1.3450
  815MOL0     C 9903   8.810   2.344   7.352  0.3153 -0.9688 -0.1511
  815MOL0     C 9904   8.742   2.221   7.391  0.1206  0.2189  0.1068
  815MOL0     C 9905   8.602   2.195   7.311  0.6763 -0.5741  0.1689
  815MOL0     C 9906   8.484   2.256   7.389 -0.4769  0.0090  0.9787
  815MOL0     N 9907   8.360   2.221   7.313  0.1486  0.8589 -0.1240
  815MOL0     C 9908   8.258   2.142   7.359  0.0393 -0.0760 -0.4934
  815MOL0     C 9909   8.153   2.141   7.272  0.2694 -0.3119  0.7527
  815MOL0     C 9910   8.023   2.054   7.277 -0.3697 -0.3345 -0.5538
  815MOL0     C 9911   7.903   2.131   7.210  0.0360 -0.4856  0.6755
  815MOL0     C 9912   7.778   2.049   7.207  0.2613 -0.7497 -0.5845
  815MOL0     C 9913   7.652   2.123   7.163 -0.4477 -0.3912 -0.1736
  815MOL0     O 9914   7.620   2.239   7.249 -0.1400  0.0963  0.0979
  815MOL0     C 9915   7.500   2.302   7.220  0.5029 -0.4441  0.6284
  815MOL0     C 9916   7.471   2.411   7.303 -0.1458  0.5833  0.4848
  815MOL0     C 9917   7.357   2.482   7.295 -0.1307 -0.6381 -0.0172
  815MOL0     C 9918   7.353   2.593   7.396  0.1124 -0.6523  0.2027
  815MOL0     C 9919   7.250   2.439   7.210  0.8302 -0.1399 -0.0734
  815MOL0     C 9920   7.123   2.504   7.211 -0.2219  0.0286  0.1675
  815MOL0     O 9921   7.016   2.424   7.180 -0.2019 -0.2847  0.3490
  815MOL0     C 9922   6.891   2.479   7.169 -1.3316  0.3448 -0.4822
  815MOL0     C 9923   6.819   2.503   7.286 -0.6072 -0.9396 -0.6347
  815MOL0     C 9924   6.696   2.572   7.275  0.3227 -0.1601  0.3092
  815MOL0     C 9925   6.627   2.567   7.157  0.0578  0.2551  0.1710
  815MOL0     O 9926   6.492   2.616   7.153  0.2071  0.4041  0.0979
  815MOL0     C 9927   6.424   2.665   7.031 -0.6750  0.5660 -0.4996
  815MOL0     C 9928   6.502   2.786   6.971  0.4815 -0.9699  0.4193
  815MOL0     C 9929   6.406   2.887   6.892 -0.2542 -0.2340  0.9353
  815MOL0     C 9930   6.493   2.945   6.776  0.6701 -0.6487 -0.1199
  815MOL0     C 9931   6.629   3.009   6.827  0.7189  0.6669  0.5032
  815MOL0     C 9932   6.623   3.110   6.941  0.1871 -1.0568  0.5276
  815MOL0     C 9933   6.764   3.129   7.001  0.1189 -0.4663 -0.6814
  815MOL0     C 9934   6.754   3.214   7.126 -1.1851  0.3034 -0.1958
  815MOL0    Cl 9935   6.895   3.161   7.226 -0.2139  0.0356 -0.3292
  815MOL0     C 9936   6.696   2.515   7.045  0.0713  0.4196 -0.1469
  815MOL0     C 9937   6.834   2.484   7.047  0.1728  0.5551  1.1704
  815MOL0     O 9938   7.120   2.623   7.237  0.0354 -0.1825  0.2987
  815MOL0     C 9939   7.281   2.329   7.124 -0.4758  0.3180 -0.1922
  815MOL0     C 9940   7.394   2.260   7.136 -0.7668  0.0448 -0.6403
  815MOL0     N 9941   8.199   2.225   7.166 -0.0457  0.9499 -0.1165
  815MOL0     N 9942   8.309   2.273   7.190 -0.3335 -0.2963  0.5101
  815MOL0     C 9943   9.427   2.480   7.380  0.2961 -0.3336  0.7795
  815MOL0     C 9944   9.549   2.540   7.416 -0.2423  0.8623  0.3420
  815MOL0     C 9945   9.942   2.567   7.662 -0.7686  0.2811 -0.2232
  815MOL0     C 9946  10.008   2.610   7.777 -0.4850  0.1942 -0.2308
  815MOL0     C 9947  10.146   2.606   7.781  0.2490 -0.3217 -0.0012
  815MOL0     C 9948  10.215   2.561   7.672  0.6082  0.4173 -0.3896
  815MOL0     O 9949  10.355   2.579   7.680  0.5012  0.0717 -0.3228
  815MOL0     C 9950  10.440   2.479   7.625  0.6475 -0.2488 -0.5018
  815MOL0     C 9951  10.499   2.538   7.497  0.1630 -0.5951  0.2485
  815MOL0     C 9952  10.583   2.433   7.427 -0.5895  0.6385 -0.0559
  815MOL0     C 9953  10.684   2.510   7.345 -0.0099  0.0392  0.0649
  815MOL0     C 9954  10.779   2.431   7.257  0.5390 -0.2492 -0.3509
  815MOL0     C 9955  10.856   2.368   7.199  0.4178  0.0807  0.2245
  815MOL0     C 9956  10.156   2.522   7.555  0.5845 -0.4930 -0.2190
  815MOL0     C 9957  10.016   2.524   7.549  0.1017 -0.5239  0.2686
  815MOL0     H 9958   9.586   2.407   7.729  0.2742  0.0588 -0.2868
  815MOL0     H 9959   9.358   2.315   7.665 -2.2455  1.3520 -1.5004
  815MOL0     H 9960   9.231   2.356   7.222 -4.0339  3.0813 -1.9265
  815MOL0     H 9961   9.097   2.270   7.304 -0.3379  0.2393  0.9554
  815MOL0     H 9962   9.165   2.570   7.310  1.6927 -1.4719 -0.1760
  815MOL0     H 9963   9.046   2.499   7.214  0.9550  1.7571  0.7746
  815MOL0     H 9964   9.062   2.527   7.520 -0.6820  1.7083 -0.1346
  815MOL0     H 9965   8.942   2.587   7.392  0.4921  0.0316 -3.2945
  815MOL0     H 9966   8.972   2.312   7.494 -0.7152 -1.3325 -1.6035
  815MOL0     H 9967   8.842   2.425   7.541 -1.0637 -3.7178 -0.5040
  815MOL0     H 9968   8.733   2.422   7.342  0.8087 -0.6069 -1.1956
  815MOL0     H 9969   8.866   2.315   7.264  2.1336  1.6806  0.0030
  815MOL0     H 9970   8.809   2.136   7.380 -0.6620 -0.1832 -1.9637
  815MOL0     H 9971   8.726   2.225   7.500  0.9964  2.2608  0.2157
  815MOL0     H 9972   8.600   2.257   7.221  1.0631  0.4131  0.8264
  815MOL0     H 9973   8.596   2.088   7.292  0.1341 -0.5553  0.2294
  815MOL0     H 9974   8.492   2.364   7.383 -1.6775  0.0922  0.5622
  815MOL0     H 9975   8.468   2.226   7.494 -1.5351  0.0108  0.8287
  815MOL0     H 9976   8.244   2.084   7.449 -0.9967 -1.9559 -1.8180
  815MOL0     H 9977   8.054   1.966   7.220 -0.1534 -0.7789  0.2480
  815MOL0     H 9978   7.997   2.039   7.382  1.7604  1.9827  0.4259
  815MOL0     H 9979   7.939   2.160   7.111  3.0958 -2.9578  0.9048
  815MOL0     H 9980   7.878   2.221   7.266  3.1786  0.5521  0.5742
  815MOL0     H 9981   7.768   2.014   7.310  0.7648 -1.5344 -0.7925
  815MOL0     H 9982   7.797   1.964   7.140 -0.9009 -0.8974 -0.7464
  815MOL0     H 9983   7.571   2.051   7.181  0.0351 -0.4812  1.8167
  815MOL0     H 9984   7.660   2.160   7.060 -0.3797 -6.1545 -2.6007
  815MOL0     H 9985   7.546   2.442   7.376 -0.7338 -1.5021  2.0751
  815MOL0     H 9986   7.299   2.682   7.363  0.4504 -0.7325 -0.5860
  815MOL0     H 9987   7.308   2.558   7.489  0.4612  1.3880  1.2016
  815MOL0     H 9988   7.453   2.623   7.430  0.4924 -0.9520 -0.6159
  815MOL0     H 9989   6.869   2.502   7.382  3.1329  0.9804 -2.3362
  815MOL0     H 9990   6.649   2.617   7.362  4.1798  0.7912  2.1397
  815MOL0     H 9991   6.402   2.578   6.970  0.7347 -0.1557 -0.0230
  815MOL0     H 9992   6.327   2.706   7.060 -0.1426  2.0423 -0.6877
  815MOL0     H 9993   6.570   2.833   7.043  1.2560 -2.3287  0.6190
  815MOL0     H 9994   6.569   2.736   6.900 -0.6802 -2.2250  0.1727
  815MOL0     H 9995   6.372   2.964   6.962  3.8078  1.7878  0.9795
  815MOL0     H 9996   6.314   2.841   6.854  0.1398  1.0108 -1.7300
  815MOL0     H 9997   6.508   2.864   6.704 -2.8426 -2.5736  1.0154
  815MOL0     H 9998   6.430   3.018   6.725 -0.3026 -0.4864  1.2593
  815MOL0     H 9999   6.682   3.051   6.741 -2.4059  2.7990 -0.5713
  815MOL0     H10000   6.695   2.927   6.857 -0.0425 -1.0740 -2.1727
  815MOL0     H10001   6.588   3.208   6.909 -1.9100 -1.9895 -0.2879
  815MOL0     H10002   6.560   3.072   7.023 -0.2914 -3.4488 -0.8357
  815MOL0     H10003   6.821   3.185   6.926  0.9242 -1.2292 -0.6643
  815MOL0     H10004   6.816   3.036   7.028 -1.1181 -0.0005  4.4437
  815MOL0     H10005   6.660   3.198   7.179 -0.7510 -0.3796  0.3743
  815MOL0     H10006   6.767   3.320   7.099  2.6314  0.4975  1.6773
  815MOL0     H10007   6.640   2.499   6.953  1.4447  1.4003 -1.1914
  815MOL0     H10008   6.891   2.462   6.958  0.2015 -0.2826  1.3837
  815MOL0     H10009   7.205   2.305   7.051  0.1282  0.1617 -0.7823
  815MOL0     H10010   7.412   2.172   7.075 -0.2763 -0.7901  0.6688
  815MOL0     H10011   9.395   2.505   7.280  1.1673 -5.2259 -1.0201
  815MOL0     H10012   9.605   2.607   7.351 -1.0865  0.3177 -0.9723
  815MOL0     H10013   9.953   2.657   7.858  0.6313  0.3131  0.4748
  815MOL0     H10014  10.205   2.652   7.859  0.5045 -2.7974  1.3611
  815MOL0     H10015  10.525   2.456   7.689 -1.5884  0.5499  3.0549
  815MOL0     H10016  10.385   2.392   7.588 -0.2744  0.7890 -1.6338
  815MOL0     H10017  10.570   2.617   7.523 -0.7616  0.3014  0.1039
  815MOL0     H10018  10.427   2.586   7.430 -1.9660 -4.1480 -0.2557
  815MOL0     H10019  10.522   2.381   7.354  1.4513 -1.3649 -0.4626
  815MOL0     H10020  10.636   2.368   7.498 -1.2724 -0.6853 -0.7342
  815MOL0     H10021  10.749   2.568   7.411  0.6966  1.4769 -1.7875
  815MOL0     H10022  10.635   2.584   7.281 -0.2236 -0.3694 -0.2495
  815MOL0     H10023  10.918   2.298   7.147 -0.3782  0.2635 -1.0008
  815MOL0     H10024  10.219   2.491   7.472  0.6572  2.0654 -1.2300
  815MOL0     H10025   9.968   2.487   7.459 -1.5450  0.1697  0.8387
  816MOL0     O10026   9.836   6.550   3.625  0.2317  0.4294 -0.3202
  816MOL0     C10027   9.807   6.532   3.509  0.3335  0.4474 -0.1455
  816MOL0     O10028   9.897   6.540   3.409  0.4905  0.4265 -0.1627
  816MOL0     C10029  10.028   6.508   3.431  0.3197 -0.4518 -0.5306
  816MOL0     C10030  10.078   6.386   3.479  0.3045 -0.1117 -0.6185
  816MOL0     C10031  10.217   6.373   3.504  0.4909  0.3375 -0.3954
  816MOL0     C10032  10.306   6.482   3.480  1.1972  0.2011  0.5596
  816MOL0     O10033  10.439   6.485   3.507  0.2386 -0.1715 -0.4206
  816MOL0     C10034  10.507   6.437   3.388  0.3514 -0.5456 -0.5746
  816MOL0     C10035  10.650   6.437   3.408 -0.4347  1.0666 -0.6229
  816MOL0     C10036  10.719   6.385   3.291 -0.1770  0.3584 -0.0809
  816MOL0     C10037  10.851   6.458   3.263 -0.1393 -0.7354  0.7409
  816MOL0     C10038  10.932   6.397   3.147 -0.5281 -0.4096  0.1139
  816MOL0     C10039  10.879   6.419   3.006 -0.0076  0.4778  0.3050
  816MOL0     C10040  10.994   6.393   2.903  0.2549 -0.4122  0.6821
  816MOL0     C10041  11.026   6.249   2.908  0.5496  0.0603  0.2508
  816MOL0     N10042  11.159   6.219   2.857  1.0265 -0.8729  0.6074
  816MOL0     C10043  11.184   6.193   2.727 -0.3698 -0.9244  0.0337
  816MOL0     C10044  11.320   6.167   2.729  1.0704  1.2198  0.1052
  816MOL0     C10045  11.397   6.126   2.601 -0.8671  0.0111 -0.0769
  816MOL0     C10046  11.327   6.037   2.496 -0.3259 -0.4433 -0.4336
  816MOL0     C10047  11.331   5.886   2.527  0.2032 -0.3034 -0.3908
  816MOL0     C10048  11.250   5.851   2.654  0.3631  0.1480 -0.4319
  816MOL0     O10049  11.108   5.863   2.638  0.1026 -0.2795  0.3629
  816MOL0     C10050  11.013   5.883   2.734  0.7638 -0.2875 -0.2300
  816MOL0     C10051  11.038   5.894   2.878  0.0027  0.1614  0.9595
  816MOL0     C10052  10.940   5.933   2.966 -0.0266 -0.0764  0.4377
  816MOL0     C10053  10.988   5.940   3.104 -0.5853 -0.2665 -0.5087
  816MOL0     C10054  10.803   5.959   2.920  0.4046  0.2740 -0.5035
  816MOL0     C10055  10.694   5.994   3.012 -0.9681  0.1096  0.1997
  816MOL0     O10056  10.569   5.996   2.958  0.1710 -0.2444  0.4635
  816MOL0     C10057  10.464   6.046   3.029  0.0624  0.2121 -0.0628
  816MOL0     C10058  10.465   6.184   3.063 -0.2653 -0.3607 -0.8278
  816MOL0     C10059  10.350   6.240   3.122  0.0134 -0.1041 -0.0930
  816MOL0     C10060  10.235   6.162   3.142  0.7589 -0.1904  0.5758
  816MOL0     O10061  10.121   6.211   3.206  0.1465  0.5927  0.3299
  816MOL0     C10062   9.997   6.189   3.125  0.2248  0.1010  0.7364
  816MOL0     C10063   9.883   6.273   3.179  0.8726 -0.5802 -0.3979
  816MOL0     C10064   9.752   6.245   3.120 -0.5769  0.6745  0.5816
  816MOL0     C10065   9.697   6.348   3.028 -0.6282  0.1511  1.0067
  816MOL0     C10066   9.600   6.293   2.925 -0.4765 -1.2501 -0.3419
  816MOL0     C10067   9.478   6.231   2.999 -0.2821  0.5596  0.6709
  816MOL0     C10068   9.418   6.117   2.910  0.0969 -0.9297  0.3673
  816MOL0     C10069   9.303   6.049   2.976  0.2498 -0.5036 -0.4034
  816MOL0    Cl10070   9.170   6.167   3.006  0.0700  0.1271 -0.2358
  816MOL0     C10071  10.234   6.032   3.093  0.2973 -0.7804 -0.6402
  816MOL0     C10072  10.341   5.975   3.041 -0.0970  0.6391 -0.2536
  816MOL0     O10073  10.730   6.021   3.128 -0.2503  0.2306  0.7765
  816MOL0     C10074  10.770   5.939   2.783 -0.0615  0.9169  0.5692
  816MOL0     C10075  10.873   5.888   2.696  0.2145 -0.1987 -0.3088
  816MOL0     N10076  11.369   6.179   2.854 -0.2877  0.0042  0.0569
  816MOL0     N10077  11.274   6.219   2.927  0.2998  0.5200 -0.1786
  816MOL0     C10078  10.254   6.600   3.434  0.5889 -0.2745 -0.0701
  816MOL0     C10079  10.116   6.611   3.412 -0.4574 -1.1747  0.2735
  816MOL0     C10080   9.661   6.518   3.478 -0.0015 -0.3610 -2.1301
  816MOL0     C10081   9.566   6.500   3.579  0.6665  1.3281  0.0952
  816MOL0     C10082   9.429   6.483   3.551  0.1906  0.0395  0.2436
  816MOL0     C10083   9.383   6.499   3.418 -0.2312 -0.1967 -0.3434
  816MOL0     O10084   9.246   6.485   3.397 -0.0262  0.1475 -0.1327
  816MOL0     C10085   9.209   6.527   3.263 -0.4884 -0.2808 -0.0268
  816MOL0     C10086   9.054   6.534   3.254  1.4258 -0.8621 -0.0770
  816MOL0     C10087   8.986   6.399   3.287 -0.7403  0.5840  0.4969
  816MOL0     C10088   8.835   6.390   3.261 -0.1775  0.0292  0.2392
  816MOL0     C10089   8.805   6.397   3.118 -0.4778  0.7971 -0.5831
  816MOL0     C10090   8.784   6.368   2.997 -0.0534  0.5363 -0.5460
  816MOL0     C10091   9.478   6.532   3.322 -0.2082 -0.3339 -0.4685
  816MOL0     C10092   9.616   6.531   3.354 -0.6325 -0.3717 -0.2965
  816MOL0     H10093  10.004   6.310   3.502  0.6840 -0.1834  0.4004
  816MOL0     H10094  10.255   6.278   3.541 -2.4173  0.1309  2.6246
  816MOL0     H10095  10.471   6.336   3.365 -1.6777 -1.3316  4.8034
  816MOL0     H10096  10.492   6.495   3.296 -0.6466 -0.4598 -0.3724
  816MOL0     H10097  10.696   6.529   3.446  0.3823 -0.1453  1.4975
  816MOL0     H10098  10.662   6.372   3.495  1.1495 -1.4998 -2.5987
  816MOL0     H10099  10.729   6.277   3.302 -1.4153  0.2629  0.2957
  816MOL0     H10100  10.659   6.397   3.200  1.3871  3.8576 -0.8304
  816MOL0     H10101  10.835   6.565   3.247  1.4400 -0.7962 -1.8847
  816MOL0     H10102  10.913   6.457   3.353  0.2471  0.6223  0.5095
  816MOL0     H10103  11.031   6.444   3.154 -0.2122 -1.1388  0.7067
  816MOL0     H10104  10.955   6.293   3.172 -0.3305 -1.0104 -2.3414
  816MOL0     H10105  10.784   6.368   2.990 -0.6116  1.4476  0.6912
  816MOL0     H10106  10.846   6.523   2.996  0.1170  0.4799 -0.0954
  816MOL0     H10107  10.974   6.428   2.802  2.3673  1.0108  0.7016
  816MOL0     H10108  11.084   6.448   2.931  2.6439 -3.8838  0.4799
  816MOL0     H10109  10.946   6.189   2.863 -1.3607  3.7084 -1.5946
  816MOL0     H10110  11.038   6.206   3.009  0.1714 -1.5446 -0.3579
  816MOL0     H10111  11.112   6.187   2.647 -0.9315 -2.1635  0.6120
  816MOL0     H10112  11.411   6.226   2.558 -1.5364  0.3696  0.5219
  816MOL0     H10113  11.499   6.091   2.623 -0.0814  2.0319 -0.3201
  816MOL0     H10114  11.368   6.049   2.395  1.1211 -1.3698  0.0078
  816MOL0     H10115  11.224   6.073   2.498 -0.1247  0.1779  2.5706
  816MOL0     H10116  11.436   5.858   2.523  1.0933  2.7775 -0.9155
  816MOL0     H10117  11.284   5.834   2.443 -2.4578 -1.6463  1.7318
  816MOL0     H10118  11.296   5.913   2.731  1.6260  0.3976 -1.3490
  816MOL0     H10119  11.272   5.746   2.676 -2.3996 -0.7967 -1.8011
  816MOL0     H10120  11.127   5.844   2.916 -0.5875 -1.9330 -0.2067
  816MOL0     H10121  11.095   5.921   3.122 -0.3201 -3.5020 -4.2127
  816MOL0     H10122  10.977   6.045   3.134  1.8161  0.0796 -0.5827
  816MOL0     H10123  10.937   5.869   3.169  1.4745 -0.2504  1.2349
  816MOL0     H10124  10.547   6.255   3.052 -0.6395  0.4828  1.4668
  816MOL0     H10125  10.348   6.344   3.152  0.9415  1.2106 -3.9613
  816MOL0     H10126  10.012   6.233   3.026  0.1256  1.4048  1.2853
  816MOL0     H10127   9.968   6.083   3.127 -1.9640  0.6853  2.1609
  816MOL0     H10128   9.876   6.282   3.288 -1.2756 -0.0609 -0.5291
  816MOL0     H10129   9.918   6.368   3.136 -1.2889  0.7876  0.6819
  816MOL0     H10130   9.681   6.233   3.202 -1.9692  0.5399 -0.5976
  816MOL0     H10131   9.770   6.153   3.063  1.0357  1.8226 -0.8617
  816MOL0     H10132   9.656   6.424   3.095 -1.9681  0.3695 -0.0239
  816MOL0     H10133   9.776   6.393   2.966 -1.8786 -0.9922 -1.5445
  816MOL0     H10134   9.648   6.230   2.850  1.1700  0.4090 -0.7547
  816MOL0     H10135   9.563   6.380   2.871  2.4630  1.4010  1.5179
  816MOL0     H10136   9.504   6.186   3.096  0.6210  0.1381  0.2434
  816MOL0     H10137   9.413   6.316   3.024  1.1616  2.0276 -0.3626
  816MOL0     H10138   9.502   6.052   2.882 -0.2646 -0.6234 -1.4939
  816MOL0     H10139   9.379   6.157   2.816  1.8800  1.1681  0.4464
  816MOL0     H10140   9.341   6.012   3.071  1.3000 -1.4494 -1.1548
  816MOL0     H10141   9.262   5.975   2.906 -1.3221  0.2402 -0.3184
  816MOL0     H10142  10.141   5.976   3.095  0.2483 -0.6946 -0.5171
  816MOL0     H10143  10.330   5.875   3.000 -1.8251  0.9923 -0.7300
  816MOL0     H10144  10.676   5.958   2.734  1.0828  0.1684 -2.0570
  816MOL0     H10145  10.849   5.882   2.590 -0.0733  0.4424 -0.2873
  816MOL0     H10146  10.312   6.690   3.414 -2.2145  2.1599  1.9021
  816MOL0     H10147  10.093   6.708   3.370  1.8750  0.4199  2.4001
  816MOL0     H10148   9.606   6.488   3.679 -0.7441 -0.6983  0.4838
  816MOL0     H10149   9.360   6.470   3.634  1.3514  1.3420  1.4687
  816MOL0     H10150   9.246   6.626   3.237 -2.7734  0.7532  0.4696
  816MOL0     H10151   9.261   6.466   3.188  0.7309  1.0694 -0.3261
  816MOL0     H10152   9.034   6.555   3.149  1.9900 -1.3637 -0.2847
  816MOL0     H10153   8.998   6.617   3.301 -2.2560 -2.7872 -0.6888
  816MOL0     H10154   9.002   6.388   3.394 -2.0849  3.3222  1.0830
  816MOL0     H10155   9.043   6.322   3.234  2.2335  1.6299  1.9211
  816MOL0     H10156   8.781   6.472   3.310  0.6734  0.7854 -0.0537
  816MOL0     H10157   8.789   6.297   3.295  3.0296 -2.3633 -1.4531
  816MOL0     H10158   8.786   6.331   2.897 -0.4418 -1.0658  0.0040
  816MOL0     H10159   9.461   6.551   3.216  0.2980 -0.3610 -0.5546
  816MOL0     H10160   9.695   6.556   3.283 -0.2361  0.9096  0.5573
  817MOL0     O10161   3.598   6.149   9.543  0.0852 -0.0240 -0.5612
  817MOL0     C10162   3.694   6.209   9.500  0.3623 -0.0500 -0.2177
  817MOL0     O10163   3.709   6.347   9.504  0.1295 -0.2902  0.2559
  817MOL0     C10164   3.595   6.424   9.509 -0.9004  0.2209  0.2933
  817MOL0     C10165   3.618   6.559   9.543 -0.0680  0.8628  0.2736
  817MOL0     C10166   3.523   6.652   9.557  0.4927  0.1581 -0.8942
  817MOL0     C10167   3.390   6.623   9.519  0.2547  0.6360 -0.3638
  817MOL0     O10168   3.282   6.710   9.518  0.3906  0.5251 -0.7325
  817MOL0     C10169   3.289   6.809   9.628 -0.2888 -0.4908  0.0040
  817MOL0     C10170   3.171   6.904   9.627  0.1228 -0.2309 -0.1295
  817MOL0     C10171   3.127   6.953   9.760 -0.4645  0.2520 -0.4543
  817MOL0     C10172   2.999   7.025   9.749  0.0845  1.0839 -0.4750
  817MOL0     C10173   2.953   7.068   9.894 -0.1140 -0.1730  0.8892
  817MOL0     C10174   2.826   7.154   9.885 -0.5827  0.1644  0.1435
  817MOL0     C10175   2.737   7.172  10.009 -0.2042 -0.1858  0.0179
  817MOL0     C10176   2.617   7.259   9.974 -0.2430 -0.2203  0.6727
  817MOL0     N10177   2.540   7.258  10.098 -0.2133  0.2851 -0.5088
  817MOL0     C10178   2.434   7.178  10.123  0.0712 -0.1963  1.3535
  817MOL0     C10179   2.356   7.244  10.218  0.6474 -0.3393  0.1208
  817MOL0     C10180   2.230   7.194  10.284 -0.7330 -0.4366 -0.1652
  817MOL0     C10181   2.113   7.294  10.297  1.6722 -0.2237 -0.3988
  817MOL0     C10182   2.134   7.389  10.414  0.8056  0.9113 -1.1381
  817MOL0     C10183   2.028   7.503  10.426 -0.4519  0.2303 -0.3433
  817MOL0     O10184   1.901   7.447  10.434 -0.0672  0.1104  0.8651
  817MOL0     C10185   1.802   7.474  10.523  0.5762 -0.3925 -0.1443
  817MOL0     C10186   1.686   7.408  10.505  0.1821 -0.1019  0.1376
  817MOL0     C10187   1.573   7.433  10.580  0.5966  0.8030  1.8444
  817MOL0     C10188   1.454   7.348  10.544  0.3784 -0.0477 -0.6247
  817MOL0     C10189   1.574   7.525  10.685 -0.6245 -0.1222  0.0779
  817MOL0     C10190   1.463   7.557  10.774  0.2171 -0.5399 -0.1784
  817MOL0     O10191   1.497   7.601  10.903 -0.2401  0.1295  0.0556
  817MOL0     C10192   1.404   7.605  10.999  1.0791  0.6253 -0.0789
  817MOL0     C10193   1.302   7.695  10.993  0.0806  0.3504  0.1904
  817MOL0     C10194   1.215   7.701  11.105 -0.7829  0.1167 -0.0175
  817MOL0     C10195   1.222   7.603  11.211  0.6983 -0.5651  0.4449
  817MOL0     O10196   1.134   7.585  11.316  0.1460  0.4027  0.3431
  817MOL0     C10197   1.029   7.683  11.336 -0.2021  0.5769  0.7796
  817MOL0     C10198   0.975   7.660  11.471 -0.1888  0.6435  0.4124
  817MOL0     C10199   0.829   7.702  11.491 -0.6873 -1.5358  0.4505
  817MOL0     C10200   0.728   7.587  11.499  0.4222 -0.3670 -0.4464
  817MOL0     C10201   0.728   7.512  11.370 -0.7792  0.6441  0.3264
  817MOL0     C10202   0.681   7.587  11.241  0.0623  0.1711 -0.5224
  817MOL0     C10203   0.552   7.670  11.275  0.4098 -0.0223 -0.8216
  817MOL0     C10204   0.512   7.751  11.145 -0.8417 -0.3946 -0.4378
  817MOL0    Cl10205   0.376   7.867  11.153 -0.0253 -0.1851 -0.0681
  817MOL0     C10206   1.322   7.513  11.206  0.3720 -0.3054 -0.1386
  817MOL0     C10207   1.414   7.513  11.101  0.1480 -0.6248  0.5524
  817MOL0     O10208   1.348   7.545  10.734 -0.3919  0.9593 -0.1326
  817MOL0     C10209   1.703   7.592  10.715 -0.1616 -0.2703  0.6658
  817MOL0     C10210   1.814   7.557  10.629  0.7989  0.0524  0.0517
  817MOL0     N10211   2.429   7.361  10.243  0.5618 -0.3657  0.7119
  817MOL0     N10212   2.542   7.368  10.176  0.1531  0.3506 -0.1560
  817MOL0     C10213   3.354   6.494   9.475 -0.4318 -0.3270 -0.1333
  817MOL0     C10214   3.457   6.397   9.477 -0.1165  0.3280 -0.3083
  817MOL0     C10215   3.809   6.126   9.463  0.0520  0.0169  0.4100
  817MOL0     C10216   3.933   6.189   9.435  0.8325 -0.4730  0.9817
  817MOL0     C10217   4.048   6.115   9.397  0.8271 -0.3276  0.2702
  817MOL0     C10218   4.033   5.978   9.376 -0.0238  0.4154 -0.1841
  817MOL0     O10219   4.138   5.902   9.347  0.4503 -0.6928 -0.2915
  817MOL0     C10220   4.236   5.956   9.253 -0.2012  0.7863  0.9577
  817MOL0     C10221   4.246   5.869   9.132 -0.4582  1.4107 -0.4308
  817MOL0     C10222   4.312   5.729   9.174 -0.3189 -0.3143  0.0886
  817MOL0     C10223   4.453   5.729   9.222 -0.1542  0.3919 -0.3384
  817MOL0     C10224   4.552   5.823   9.154 -1.1857 -0.0224 -0.4127
  817MOL0     C10225   4.635   5.893   9.100  0.0173  0.2362 -0.5157
  817MOL0     C10226   3.918   5.914   9.424  0.0852  0.0249  0.1608
  817MOL0     C10227   3.802   5.991   9.460  0.1242  0.4631 -0.2184
  817MOL0     H10228   3.723   6.579   9.562  0.8177 -1.9714 -1.0830
  817MOL0     H10229   3.553   6.751   9.593  2.1528 -0.1464 -1.3248
  817MOL0     H10230   3.291   6.756   9.723  1.9139 -0.1731  0.2015
  817MOL0     H10231   3.379   6.870   9.616  1.7305 -3.5705 -2.3032
  817MOL0     H10232   3.184   6.988   9.557 -1.1823  0.8753  0.8988
  817MOL0     H10233   3.089   6.842   9.591  0.0409 -0.6634  0.7785
  817MOL0     H10234   3.114   6.860   9.815  1.0862  0.3684  0.1429
  817MOL0     H10235   3.206   7.004   9.815  2.0042 -0.9255 -2.6375
  817MOL0     H10236   3.013   7.115   9.689 -0.4539  1.7599  0.3879
  817MOL0     H10237   2.920   6.959   9.712  0.5969  0.9349 -1.3070
  817MOL0     H10238   2.932   6.981   9.956  0.6732  0.9042  2.7657
  817MOL0     H10239   3.031   7.123   9.948  1.3869 -0.5938 -0.7794
  817MOL0     H10240   2.855   7.257   9.863 -2.4368  0.5981 -0.4603
  817MOL0     H10241   2.758   7.106   9.813  0.6892  2.2385 -2.6123
  817MOL0     H10242   2.699   7.080  10.053  0.9035  0.6161  2.9426
  817MOL0     H10243   2.796   7.223  10.087  1.0825 -2.6553  0.7494
  817MOL0     H10244   2.556   7.221   9.891 -2.8455 -0.3591  2.5281
  817MOL0     H10245   2.644   7.363   9.953  0.6432 -0.7350 -0.8822
  817MOL0     H10246   2.407   7.087  10.071  2.0498  0.3550 -0.8576
  817MOL0     H10247   2.185   7.106  10.236  1.3088 -0.2912 -2.5517
  817MOL0     H10248   2.262   7.168  10.385 -1.6949 -0.6195  0.1087
  817MOL0     H10249   2.018   7.240  10.301 -0.3616  3.0313  3.8224
  817MOL0     H10250   2.136   7.352  10.208  0.5505 -0.6491 -0.9824
  817MOL0     H10251   2.234   7.431  10.400  0.4060  3.1596  1.6928
  817MOL0     H10252   2.131   7.333  10.507 -1.8297  1.7990 -0.5970
  817MOL0     H10253   2.046   7.565  10.337 -1.4729 -1.4439 -1.7927
  817MOL0     H10254   2.053   7.569  10.509 -2.2046  1.0838 -0.4504
  817MOL0     H10255   1.668   7.351  10.414  0.3356 -0.0375  0.0649
  817MOL0     H10256   1.394   7.418  10.484  3.0101  1.3704 -1.7330
  817MOL0     H10257   1.467   7.268  10.471 -1.3727  0.0682 -1.1170
  817MOL0     H10258   1.399   7.308  10.630  3.3726 -0.9477  0.9888
  817MOL0     H10259   1.312   7.773  10.919  0.2557  1.1955  1.0907
  817MOL0     H10260   1.155   7.789  11.124  0.5919  0.7151  1.8703
  817MOL0     H10261   1.069   7.785  11.330  1.3629 -0.0964 -1.6690
  817MOL0     H10262   0.949   7.669  11.264  0.7529  0.4559 -0.2871
  817MOL0     H10263   0.993   7.559  11.508  1.2875  1.3666  1.7494
  817MOL0     H10264   1.034   7.717  11.543 -0.0173 -1.9289  2.4650
  817MOL0     H10265   0.795   7.774  11.416  1.9151 -1.2012 -0.5055
  817MOL0     H10266   0.833   7.764  11.581  1.5853  3.8835 -2.9019
  817MOL0     H10267   0.763   7.515  11.573 -2.6483 -1.5967 -0.0254
  817MOL0     H10268   0.624   7.614  11.519 -0.0968 -1.1331 -1.9424
  817MOL0     H10269   0.671   7.419  11.377  0.6718 -0.6100 -2.4125
  817MOL0     H10270   0.826   7.471  11.343  0.8445  3.4595  1.5693
  817MOL0     H10271   0.752   7.655  11.195 -0.7289 -0.0579 -2.1574
  817MOL0     H10272   0.656   7.508  11.170 -0.2640 -1.1925  1.0312
  817MOL0     H10273   0.578   7.751  11.344 -0.7818  2.3794 -3.0127
  817MOL0     H10274   0.472   7.610  11.319  1.4575  0.2810  1.6759
  817MOL0     H10275   0.499   7.683  11.061  0.7710 -1.8162  0.4063
  817MOL0     H10276   0.601   7.811  11.126  1.9598 -3.5474  1.6447
  817MOL0     H10277   1.328   7.440  11.286 -0.9256  0.5972  0.8341
  817MOL0     H10278   1.502   7.449  11.099  0.6761  0.0932 -0.0231
  817MOL0     H10279   1.726   7.664  10.793  0.6043  1.7443 -1.2728
  817MOL0     H10280   1.912   7.603  10.640  1.2664 -0.9654  0.3305
  817MOL0     H10281   3.247   6.476   9.477 -0.6521  0.8721 -0.7018
  817MOL0     H10282   3.437   6.301   9.431  0.7002  0.5542 -1.1627
  817MOL0     H10283   3.939   6.297   9.430 -1.3113 -0.2647  1.6775
  817MOL0     H10284   4.145   6.159   9.380  0.6589 -0.7110 -2.1350
  817MOL0     H10285   4.223   6.058   9.214 -2.6743  0.7943  1.6229
  817MOL0     H10286   4.332   5.966   9.304  0.8678 -1.0084 -0.6038
  817MOL0     H10287   4.318   5.913   9.062  0.0344 -1.4323 -1.8544
  817MOL0     H10288   4.146   5.860   9.089 -0.0442 -0.6981 -1.0712
  817MOL0     H10289   4.311   5.664   9.086 -1.3729 -2.2260  1.4400
  817MOL0     H10290   4.256   5.668   9.246  0.7972  0.4259  1.6471
  817MOL0     H10291   4.484   5.626   9.242  0.7751  1.0017  1.6267
  817MOL0     H10292   4.453   5.767   9.324 -0.9655 -3.2520  1.1663
  817MOL0     H10293   4.700   5.961   9.048 -1.5710  2.2240 -0.0477
  817MOL0     H10294   3.901   5.808   9.409 -2.3257  0.1956  1.2426
  817MOL0     H10295   3.719   5.936   9.503  1.4493 -0.3206  1.4705
  818MOL0     O10296   0.704  11.020   3.662 -1.0386  0.3242 -0.2327
  818MOL0     C10297   0.742  10.907   3.666 -0.1435  0.0738 -0.1899
  818MOL0     O10298   0.669  10.792   3.670 -0.4558  0.0970  0.1493
  818MOL0     C10299   0.533  10.790   3.681  1.6396 -0.5108 -0.6610
  818MOL0     C10300   0.473  10.726   3.784 -0.7381  0.3592  0.0178
  818MOL0     C10301   0.338  10.688   3.780 -0.1780 -0.1739  0.1070
  818MOL0     C10302   0.255  10.750   3.686  0.1485 -0.3528 -0.1781
  818MOL0     O10303   0.112  10.744   3.705  0.0257  0.2763  0.3493
  818MOL0     C10304   0.035  10.847   3.633  0.5271  0.2884 -0.3677
  818MOL0     C10305  -0.110  10.847   3.680 -0.2229  1.3125 -0.0035
  818MOL0     C10306  -0.179  10.988   3.675 -0.4310 -0.9749 -0.8365
  818MOL0     C10307  -0.230  11.005   3.531  0.0420  0.5592 -0.3208
  818MOL0     C10308  -0.377  10.953   3.522 -0.1057 -0.0349 -0.4645
  818MOL0     C10309  -0.443  11.004   3.386 -0.5041 -1.0846  0.4371
  818MOL0     C10310  -0.541  10.911   3.319  0.6994 -0.1778 -0.4774
  818MOL0     C10311  -0.645  10.879   3.435  0.1974  0.1361 -0.2450
  818MOL0     N10312  -0.758  10.804   3.386  0.2910  0.2895  0.0625
  818MOL0     C10313  -0.796  10.675   3.410 -0.8321  0.2114  1.0966
  818MOL0     C10314  -0.905  10.659   3.328 -0.8659 -0.1752  0.7968
  818MOL0     C10315  -0.966  10.529   3.301  0.5395 -1.0262  0.6773
  818MOL0     C10316  -0.940  10.476   3.168  0.0406 -0.7155 -0.0755
  818MOL0     C10317  -1.038  10.374   3.142  0.4314 -0.2875 -0.3973
  818MOL0     C10318  -1.072  10.329   2.999 -0.5540 -0.0403 -0.0741
  818MOL0     O10319  -1.111  10.432   2.899  0.5294 -0.0932 -0.1109
  818MOL0     C10320  -1.243  10.485   2.898 -0.1653  0.3227  0.2620
  818MOL0     C10321  -1.277  10.557   2.791  0.6606 -0.3918  0.1479
  818MOL0     C10322  -1.410  10.582   2.759 -0.4652 -0.6290  0.0490
  818MOL0     C10323  -1.441  10.685   2.648 -0.3362 -0.4146  0.5652
  818MOL0     C10324  -1.514  10.538   2.841  0.3547  0.1492  0.2236
  818MOL0     C10325  -1.650  10.528   2.801 -0.3419  0.4732  0.5506
  818MOL0     O10326  -1.670  10.524   2.669  0.5695  0.2122 -0.0660
  818MOL0     C10327  -1.802  10.492   2.609  0.0212  0.7116 -1.0994
  818MOL0     C10328  -1.826  10.534   2.475  0.3168  0.4353  0.9811
  818MOL0     C10329  -1.945  10.500   2.410  0.0159 -0.0937  0.4608
  818MOL0     C10330  -2.032  10.416   2.480  0.1989  0.1102 -0.9166
  818MOL0     O10331  -2.151  10.375   2.425 -1.1226 -0.1478 -0.1453
  818MOL0     C10332  -2.129  10.301   2.303 -0.4244  0.2400 -0.2456
  818MOL0     C10333  -2.269  10.278   2.239 -0.8459 -0.5669 -1.4176
  818MOL0     C10334  -2.364  10.182   2.331  0.1482 -0.1720  0.1796
  818MOL0     C10335  -2.491  10.149   2.257  0.0124 -0.2106 -0.5873
  818MOL0     C10336  -2.545  10.017   2.312 -0.0100  0.3288 -0.4430
  818MOL0     C10337  -2.580  10.011   2.465  0.2664  0.1503  0.4208
  818MOL0     C10338  -2.632   9.870   2.499 -0.1343  1.2617 -0.2253
  818MOL0     C10339  -2.647   9.824   2.644 -0.8252  0.3602  0.5741
  818MOL0    Cl10340  -2.753   9.931   2.732  0.0511  0.3424 -0.2253
  818MOL0     C10341  -2.018  10.379   2.612 -0.7662  0.0125  0.0763
  818MOL0     C10342  -1.894  10.411   2.672  0.3590  0.4970 -0.5254
  818MOL0     O10343  -1.743  10.537   2.887  0.1044 -0.6703 -0.0953
  818MOL0     C10344  -1.486  10.487   2.969 -0.6994 -0.0552 -0.6697
  818MOL0     C10345  -1.343  10.446   2.991 -0.4807 -0.4846  0.2632
  818MOL0     N10346  -0.934  10.771   3.257 -0.2390 -0.2766 -0.5177
  818MOL0     N10347  -0.848  10.859   3.295  0.0078  0.7563 -1.2204
  818MOL0     C10348   0.313  10.837   3.584  0.0940 -0.1945  0.2886
  818MOL0     C10349   0.450  10.846   3.582 -0.1862 -0.5509 -0.8781
  818MOL0     C10350   0.885  10.889   3.658 -0.2103  0.0022  0.5365
  818MOL0     C10351   0.972  11.005   3.668  0.0563 -0.0382  0.2426
  818MOL0     C10352   1.109  10.995   3.642 -0.1373  0.3168  0.0841
  818MOL0     C10353   1.162  10.879   3.595  0.2411 -0.0506  0.1729
  818MOL0     O10354   1.298  10.869   3.594 -0.1977 -0.5539  0.4393
  818MOL0     C10355   1.356  10.788   3.497 -0.6199  0.3248  0.3077
  818MOL0     C10356   1.447  10.877   3.410  0.1662 -0.0782 -0.8434
  818MOL0     C10357   1.569  10.903   3.503  0.5078 -0.3520 -1.0941
  818MOL0     C10358   1.689  10.957   3.435 -0.5595 -0.2816 -0.4223
  818MOL0     C10359   1.794  10.967   3.536 -0.5476  1.0629 -0.3884
  818MOL0     C10360   1.886  10.972   3.615  0.5587 -0.3226  0.5709
  818MOL0     C10361   1.082  10.761   3.592  0.5923 -0.4465  0.0082
  818MOL0     C10362   0.944  10.768   3.618 -0.2733  0.8122 -0.6096
  818MOL0     H10363   0.545  10.685   3.855  0.8180 -0.6796 -2.0429
  818MOL0     H10364   0.298  10.613   3.848  0.1437 -0.3980  0.0482
  818MOL0     H10365   0.077  10.941   3.672  1.7543 -0.6263  0.6073
  818MOL0     H10366   0.040  10.849   3.524  3.5585 -0.0996 -0.3414
  818MOL0     H10367  -0.171  10.769   3.632 -1.2568  1.2215  1.3989
  818MOL0     H10368  -0.112  10.826   3.787 -1.1412  0.2203 -0.2128
  818MOL0     H10369  -0.266  10.999   3.741  0.9636  1.4761  0.7596
  818MOL0     H10370  -0.110  11.070   3.698 -0.1005 -0.9135 -2.0091
  818MOL0     H10371  -0.234  11.113   3.512 -0.0894  1.2147  2.8632
  818MOL0     H10372  -0.166  10.955   3.458  0.0169  0.6026 -0.3729
  818MOL0     H10373  -0.367  10.844   3.529  1.1917  0.1738  2.1986
  818MOL0     H10374  -0.425  10.998   3.609 -1.2856  3.1554 -2.6118
  818MOL0     H10375  -0.492  11.099   3.408 -0.5403  0.2332 -4.1797
  818MOL0     H10376  -0.354  11.019   3.324  0.3224  0.0513  1.8411
  818MOL0     H10377  -0.572  10.970   3.232 -1.6393 -3.0932 -1.8012
  818MOL0     H10378  -0.492  10.822   3.282  0.9110  0.2705 -1.2932
  818MOL0     H10379  -0.668  10.979   3.473 -0.2228 -0.0670  0.0538
  818MOL0     H10380  -0.607  10.820   3.519 -3.7526  1.0715  2.5005
  818MOL0     H10381  -0.749  10.602   3.475  0.7918  2.1078  2.1892
  818MOL0     H10382  -0.930  10.457   3.375  2.6772  0.9129  1.6268
  818MOL0     H10383  -1.072  10.531   3.327  0.6546  1.6846  1.2437
  818MOL0     H10384  -0.840  10.431   3.156  0.7495  0.7801  0.0568
  818MOL0     H10385  -0.953  10.550   3.089  2.3203  0.2290  0.3385
  818MOL0     H10386  -1.136  10.398   3.184  0.3047  0.9890 -1.3731
  818MOL0     H10387  -1.008  10.285   3.198 -1.1502 -1.3795 -1.2066
  818MOL0     H10388  -1.150  10.253   2.998  2.0137 -2.9174  0.7880
  818MOL0     H10389  -0.981  10.281   2.961 -2.4860 -2.8776 -1.4772
  818MOL0     H10390  -1.205  10.610   2.730 -0.6708  3.6138  1.7505
  818MOL0     H10391  -1.462  10.626   2.558  3.3428 -1.4419  0.1998
  818MOL0     H10392  -1.523  10.751   2.675 -1.0202 -2.0459  2.7464
  818MOL0     H10393  -1.358  10.753   2.624 -1.0836  0.0557 -0.7851
  818MOL0     H10394  -1.754  10.600   2.428  1.3250 -0.7881  0.7228
  818MOL0     H10395  -1.972  10.524   2.307  2.5584 -1.2959 -0.5555
  818MOL0     H10396  -2.059  10.342   2.229 -0.2772 -2.0944 -1.5038
  818MOL0     H10397  -2.094  10.197   2.315  1.3167  0.3790 -3.1207
  818MOL0     H10398  -2.320  10.374   2.229  1.5250  0.8924 -0.4245
  818MOL0     H10399  -2.262  10.236   2.138 -2.7527  1.2117 -2.3481
  818MOL0     H10400  -2.386  10.229   2.428 -2.6773 -0.6712 -0.1378
  818MOL0     H10401  -2.312  10.088   2.351  1.2924  0.8302  2.2832
  818MOL0     H10402  -2.563  10.228   2.279 -0.5719  0.1277 -3.2956
  818MOL0     H10403  -2.482  10.152   2.148 -1.4502 -0.1383 -0.7180
  818MOL0     H10404  -2.476   9.935   2.288 -1.7337 -1.1488 -0.5837
  818MOL0     H10405  -2.634   9.989   2.254  0.4955  2.3452 -2.3304
  818MOL0     H10406  -2.486  10.019   2.522  0.2836 -0.4527  0.4892
  818MOL0     H10407  -2.647  10.090   2.499  1.9242  2.0150 -0.4257
  818MOL0     H10408  -2.584   9.785   2.449 -1.0050 -0.1520  1.2287
  818MOL0     H10409  -2.736   9.866   2.464 -0.0376  2.6256 -0.7082
  818MOL0     H10410  -2.547   9.827   2.688 -1.1475  1.5714  1.2716
  818MOL0     H10411  -2.684   9.722   2.634 -3.0246  1.1364  0.3106
  818MOL0     H10412  -2.092  10.321   2.666  0.0057 -0.0874  1.0497
  818MOL0     H10413  -1.869  10.356   2.762 -1.2301 -0.5839 -0.7071
  818MOL0     H10414  -1.560  10.457   3.042 -1.5079  2.1393 -0.5147
  818MOL0     H10415  -1.302  10.389   3.074 -0.1350 -2.7735 -1.3957
  818MOL0     H10416   0.254  10.887   3.508  1.0780  1.5328  0.6096
  818MOL0     H10417   0.501  10.904   3.505 -1.7170  0.8699 -0.8773
  818MOL0     H10418   0.937  11.103   3.699 -1.0377 -0.3209 -0.0522
  818MOL0     H10419   1.171  11.082   3.662 -1.5194  1.3596 -0.0296
  818MOL0     H10420   1.415  10.709   3.545  0.1182  0.3614 -0.5124
  818MOL0     H10421   1.294  10.729   3.429  0.2524  0.3562 -0.5452
  818MOL0     H10422   1.399  10.974   3.393  1.7524  0.7194 -1.0163
  818MOL0     H10423   1.466  10.820   3.319  1.2777 -1.8086  0.4157
  818MOL0     H10424   1.602  10.822   3.569  1.9530  2.6812  2.2991
  818MOL0     H10425   1.542  10.973   3.583  4.1920 -0.5720  0.5673
  818MOL0     H10426   1.670  11.060   3.403 -1.2438  0.2200  1.4076
  818MOL0     H10427   1.706  10.890   3.351 -0.1649  0.7748 -1.2027
  818MOL0     H10428   1.962  10.982   3.690 -0.5873  1.1791  1.6195
  818MOL0     H10429   1.124  10.667   3.559 -3.0544 -2.8079  1.5232
  818MOL0     H10430   0.885  10.678   3.606 -1.4750  0.9449  3.0212
  819MOL0     O10431   9.413   5.210   9.634 -0.5731 -0.1903 -0.1146
  819MOL0     C10432   9.341   5.280   9.710  0.2536 -0.3586  0.1744
  819MOL0     O10433   9.379   5.390   9.780 -0.4936  0.1384 -0.2497
  819MOL0     C10434   9.505   5.444   9.781  0.2457  0.5590  0.3771
  819MOL0     C10435   9.545   5.500   9.904  0.5386  0.1989  0.4414
  819MOL0     C10436   9.667   5.564   9.918  0.8578  0.2059  0.1869
  819MOL0     C10437   9.757   5.567   9.815 -0.6466 -0.1290  0.6086
  819MOL0     O10438   9.881   5.619   9.835  0.3609 -0.0091  0.3229
  819MOL0     C10439   9.888   5.762   9.848 -0.4301 -0.3335  0.0539
  819MOL0     C10440  10.018   5.812   9.918  0.6985 -0.0458  0.4089
  819MOL0     C10441  10.029   5.789  10.071 -0.1441  0.0222  0.5836
  819MOL0     C10442  10.164   5.861  10.125 -0.3568 -0.0261  0.2153
  819MOL0     C10443  10.223   5.832  10.262  0.4925  0.2530 -0.0814
  819MOL0     C10444  10.130   5.884  10.375  0.5261  0.4073 -1.1952
  819MOL0     C10445  10.196   5.860  10.518  0.8851 -0.8760  0.5713
  819MOL0     C10446  10.091   5.894  10.622  0.5291  0.2608  0.0931
  819MOL0     N10447  10.035   5.769  10.685 -0.1417 -0.4657  0.3934
  819MOL0     C10448  10.113   5.662  10.719 -0.4500 -0.3576  0.8311
  819MOL0     C10449  10.021   5.567  10.736 -0.3930  1.0143 -1.1226
  819MOL0     C10450  10.039   5.433  10.813  0.7044 -0.1287 -0.3527
  819MOL0     C10451  10.187   5.382  10.797 -0.6895 -0.4633  0.2482
  819MOL0     C10452  10.294   5.458  10.881  0.2814  0.4335  0.2079
  819MOL0     C10453  10.432   5.465  10.816  0.4803  0.1890 -0.8748
  819MOL0     O10454  10.445   5.547  10.698 -0.7140 -0.1105  0.1240
  819MOL0     C10455  10.574   5.560  10.655 -0.3666  0.4508  0.6581
  819MOL0     C10456  10.663   5.452  10.652  0.5331 -0.0507  0.3736
  819MOL0     C10457  10.796   5.465  10.608 -1.2625  0.4930  0.0557
  819MOL0     C10458  10.885   5.342  10.613  0.0133 -0.0298 -1.2785
  819MOL0     C10459  10.833   5.586  10.555 -0.1536 -0.5297  0.1079
  819MOL0     C10460  10.972   5.610  10.496 -0.3299 -0.5153 -0.4529
  819MOL0     O10461  11.075   5.513  10.505 -0.0974  0.2995 -0.0249
  819MOL0     C10462  11.204   5.545  10.461  0.5786  0.4488  0.7720
  819MOL0     C10463  11.235   5.591  10.328  0.3365 -0.2014 -0.4781
  819MOL0     C10464  11.361   5.637  10.289 -0.9362  0.1655  0.4560
  819MOL0     C10465  11.467   5.627  10.385  0.8433  0.6268  0.4078
  819MOL0     O10466  11.590   5.664  10.341  1.0923 -0.2649 -0.3028
  819MOL0     C10467  11.711   5.643  10.424  0.4293 -0.0260 -0.0903
  819MOL0     C10468  11.831   5.715  10.350  0.1818  0.7528  0.2030
  819MOL0     C10469  11.965   5.663  10.401 -0.2976  0.5704  0.3336
  819MOL0     C10470  11.989   5.679  10.549 -0.1275 -1.2593  0.4885
  819MOL0     C10471  12.127   5.630  10.595 -0.4715  0.2881  0.2909
  819MOL0     C10472  12.239   5.725  10.566  0.0261 -0.4696 -0.1948
  819MOL0     C10473  12.380   5.666  10.601 -0.7443  0.2088  0.3229
  819MOL0     C10474  12.394   5.627  10.753  0.9044  0.2150  0.5959
  819MOL0    Cl10475  12.552   5.565  10.780  0.6206 -0.2627 -0.0168
  819MOL0     C10476  11.440   5.566  10.511  0.1917 -0.6064 -0.4055
  819MOL0     C10477  11.311   5.530  10.543  1.1121  0.6060 -0.2181
  819MOL0     O10478  10.987   5.720  10.444 -0.9427  0.1557 -0.2189
  819MOL0     C10479  10.737   5.691  10.547 -0.2244 -0.5419 -0.1915
  819MOL0     C10480  10.618   5.680  10.601  0.3547  0.6898  0.2576
  819MOL0     N10481   9.896   5.615  10.702 -0.3503  0.5200  0.0631
  819MOL0     N10482   9.905   5.739  10.673 -0.3077 -0.7967 -1.0071
  819MOL0     C10483   9.720   5.513   9.694  0.5539  0.0393  0.6505
  819MOL0     C10484   9.593   5.452   9.672 -0.5111 -0.4929  0.4727
  819MOL0     C10485   9.197   5.258   9.716  1.1011  1.1940 -0.7267
  819MOL0     C10486   9.144   5.186   9.616  0.2165  0.1438  0.1059
  819MOL0     C10487   9.009   5.190   9.592 -0.2345 -0.1041 -0.6748
  819MOL0     C10488   8.922   5.243   9.690 -0.1818 -0.5479 -0.2041
  819MOL0     O10489   8.784   5.224   9.677 -0.9088  0.8188  0.4999
  819MOL0     C10490   8.695   5.313   9.741 -0.0825  0.2813 -0.3593
  819MOL0     C10491   8.550   5.299   9.682 -0.8464 -1.8964  1.2676
  819MOL0     C10492   8.479   5.186   9.742  0.5871 -0.6100 -0.9049
  819MOL0     C10493   8.341   5.189   9.679  0.0464  0.2425 -1.1724
  819MOL0     C10494   8.265   5.072   9.722  0.0557 -0.9206 -0.3909
  819MOL0     C10495   8.197   4.978   9.741 -0.6459  0.0505  0.6929
  819MOL0     C10496   8.978   5.302   9.808  0.0472  0.1873  0.9484
  819MOL0     C10497   9.116   5.317   9.812 -0.6727 -0.0746 -0.3318
  819MOL0     H10498   9.475   5.478   9.983 -2.1402  1.0205 -1.5334
  819MOL0     H10499   9.692   5.614  10.011  0.5710 -0.4231  0.6096
  819MOL0     H10500   9.867   5.804   9.749  2.4696  1.5037  0.1087
  819MOL0     H10501   9.801   5.794   9.907 -0.6146 -0.6549 -0.0404
  819MOL0     H10502  10.103   5.758   9.874 -0.8200 -0.3266 -2.3903
  819MOL0     H10503  10.016   5.917   9.888  0.5226 -0.4998 -1.2489
  819MOL0     H10504   9.937   5.813  10.125  0.3601  0.9459  1.0572
  819MOL0     H10505  10.039   5.682  10.093 -0.6950 -0.2710 -0.4875
  819MOL0     H10506  10.243   5.839  10.052  0.0834  0.8432  0.4012
  819MOL0     H10507  10.139   5.966  10.108 -0.0074 -0.1176 -0.9386
  819MOL0     H10508  10.226   5.727  10.292 -2.5255 -0.1945 -0.9614
  819MOL0     H10509  10.325   5.869  10.274  1.9231 -3.6617  1.5312
  819MOL0     H10510  10.137   5.992  10.359  3.4790  1.0129  2.7712
  819MOL0     H10511  10.023   5.860  10.369 -1.2043  6.0836  0.5575
  819MOL0     H10512  10.241   5.761  10.529  0.3789 -0.9544  2.1574
  819MOL0     H10513  10.281   5.928  10.522  0.0254  0.2539  0.2471
  819MOL0     H10514  10.008   5.954  10.583 -0.2293 -2.2538 -2.4183
  819MOL0     H10515  10.144   5.952  10.699  2.3321 -1.0505 -0.0951
  819MOL0     H10516  10.221   5.669  10.715 -0.4030  4.4948  3.7087
  819MOL0     H10517  10.015   5.446  10.919 -0.3761 -2.5477 -0.2487
  819MOL0     H10518   9.970   5.363  10.765  0.7604 -0.3145 -0.1620
  819MOL0     H10519  10.222   5.392  10.694  0.2170  2.3840  0.7469
  819MOL0     H10520  10.187   5.275  10.820 -2.2088 -0.7056 -0.7459
  819MOL0     H10521  10.319   5.401  10.970 -0.3069 -0.1370  0.0156
  819MOL0     H10522  10.257   5.554  10.918 -1.3341 -1.5253  4.3067
  819MOL0     H10523  10.450   5.360  10.794  1.2528  0.4288 -1.4181
  819MOL0     H10524  10.495   5.503  10.897  1.7886 -1.0804 -1.2645
  819MOL0     H10525  10.629   5.358  10.694 -0.3061  0.7719  1.6165
  819MOL0     H10526  10.987   5.357  10.648 -0.9837  0.2105  1.8910
  819MOL0     H10527  10.852   5.279  10.697  1.0916  3.0651  1.6976
  819MOL0     H10528  10.893   5.292  10.516  0.2591  0.8994 -1.7479
  819MOL0     H10529  11.140   5.596  10.276 -0.9756 -2.2057  1.5635
  819MOL0     H10530  11.375   5.677  10.188 -1.1016 -0.4332  0.1931
  819MOL0     H10531  11.701   5.686  10.524  1.7135 -3.1749  1.5482
  819MOL0     H10532  11.724   5.536  10.446 -1.5601 -0.4920 -0.9194
  819MOL0     H10533  11.825   5.690  10.244  1.8892 -2.0353  0.6555
  819MOL0     H10534  11.824   5.823  10.367  0.3679  0.5333  1.8485
  819MOL0     H10535  12.048   5.716  10.352 -0.0710 -0.8351 -0.8956
  819MOL0     H10536  11.973   5.556  10.378  1.1872  0.8094 -0.4519
  819MOL0     H10537  11.961   5.781  10.579 -1.9994 -1.6640  0.2219
  819MOL0     H10538  11.914   5.620  10.603 -3.5601  2.1375 -0.0780
  819MOL0     H10539  12.144   5.536  10.541 -3.3583 -0.4268  0.5031
  819MOL0     H10540  12.123   5.624  10.704 -0.6853  1.9944  0.4023
  819MOL0     H10541  12.228   5.742  10.458 -2.2312  0.3482  0.1085
  819MOL0     H10542  12.220   5.823  10.610 -3.5051 -1.7024  1.4314
  819MOL0     H10543  12.457   5.742  10.586 -1.3815  1.0800  1.3529
  819MOL0     H10544  12.412   5.584  10.535  1.7584  0.3616  1.2174
  819MOL0     H10545  12.320   5.548  10.767 -0.0241  1.1652  1.1830
  819MOL0     H10546  12.370   5.707  10.824  1.5853  0.6584  0.3463
  819MOL0     H10547  11.512   5.569  10.592 -2.7025  2.0665  2.3391
  819MOL0     H10548  11.278   5.492  10.639  2.1149  1.6710  0.5757
  819MOL0     H10549  10.762   5.784  10.497 -2.2785 -0.6892 -1.5800
  819MOL0     H10550  10.545   5.760  10.594 -1.1859 -0.3323  3.0320
  819MOL0     H10551   9.784   5.508   9.606 -0.2387 -1.1898  0.1174
  819MOL0     H10552   9.566   5.434   9.569 -2.4699 -2.3626  1.2532
  819MOL0     H10553   9.208   5.126   9.552  0.5486  0.3359  0.2540
  819MOL0     H10554   8.989   5.138   9.499  3.7752 -1.5782 -0.9365
  819MOL0     H10555   8.683   5.297   9.848 -1.3103 -0.4002 -0.5761
  819MOL0     H10556   8.724   5.418   9.729 -0.4202  0.3202 -0.9081
  819MOL0     H10557   8.559   5.291   9.573  2.2988  2.7208  0.9082
  819MOL0     H10558   8.491   5.390   9.692  0.7356 -0.6148 -0.3776
  819MOL0     H10559   8.474   5.204   9.850  1.2480 -0.0034 -0.9703
  819MOL0     H10560   8.534   5.095   9.715  2.6266  0.3918 -0.3064
  819MOL0     H10561   8.352   5.197   9.570 -1.2922 -0.0999 -1.3527
  819MOL0     H10562   8.289   5.275   9.723  0.6988 -0.9768  2.3104
  819MOL0     H10563   8.143   4.888   9.765  1.7473 -1.1951  1.7762
  819MOL0     H10564   8.917   5.350   9.885  0.5243  2.6313 -0.1014
  819MOL0     H10565   9.172   5.373   9.886  2.1350 -0.8793 -1.7048
  820MOL0     O10566   7.190   9.634   7.990  0.5739  0.6160  0.4565
  820MOL0     C10567   7.199   9.758   7.982  0.8007  0.4872 -1.3498
  820MOL0     O10568   7.289   9.824   7.914  0.1934 -0.6872 -0.6316
  820MOL0     C10569   7.404   9.770   7.868  0.3391 -0.3080  0.4532
  820MOL0     C10570   7.399   9.689   7.749  0.1916 -0.0128 -0.7116
  820MOL0     C10571   7.526   9.655   7.689  0.8750  0.3530  0.6300
  820MOL0     C10572   7.642   9.692   7.745  0.0047  0.3091  0.0289
  820MOL0     O10573   7.754   9.674   7.679 -0.8485 -0.2582  0.4144
  820MOL0     C10574   7.830   9.566   7.737  0.1023  0.1742 -0.3994
  820MOL0     C10575   7.941   9.551   7.642 -0.6820  0.8103  0.4472
  820MOL0     C10576   7.879   9.516   7.500  0.3606 -0.5689  0.4706
  820MOL0     C10577   7.990   9.477   7.400  0.4457  0.1862  0.7178
  820MOL0     C10578   7.930   9.430   7.257  0.3075 -0.3099 -0.7838
  820MOL0     C10579   7.865   9.290   7.270 -0.7308 -0.2135 -0.2781
  820MOL0     C10580   7.807   9.239   7.143 -0.2477 -0.3159  0.4454
  820MOL0     C10581   7.753   9.098   7.157 -0.1205  0.1821  0.0290
  820MOL0     N10582   7.706   9.044   7.033  0.8711  0.2096 -0.9210
  820MOL0     C10583   7.790   8.986   6.938 -0.2714 -0.1835 -0.1299
  820MOL0     C10584   7.714   8.965   6.834  0.7295 -0.3102  0.6668
  820MOL0     C10585   7.741   8.891   6.712  0.3429 -0.1978  0.2006
  820MOL0     C10586   7.763   8.979   6.584  0.1597  0.1602  0.2299
  820MOL0     C10587   7.703   8.912   6.454 -0.0996 -0.3931  0.7837
  820MOL0     C10588   7.551   8.874   6.458 -0.2601 -0.2485  0.7427
  820MOL0     O10589   7.479   8.982   6.524  0.1732 -0.7911  0.0918
  820MOL0     C10590   7.341   9.002   6.514 -0.1526 -0.8920  0.4138
  820MOL0     C10591   7.278   9.103   6.592  0.1136  0.2537 -0.2617
  820MOL0     C10592   7.139   9.124   6.583 -0.0190 -0.1764  0.2296
  820MOL0     C10593   7.071   9.220   6.677  0.0642  0.4902  0.4184
  820MOL0     C10594   7.059   9.040   6.491  0.5381  0.0235  0.3287
  820MOL0     C10595   6.913   9.059   6.459 -0.6028  0.3438  0.2469
  820MOL0     O10596   6.831   9.103   6.552 -0.4829  0.0239 -0.2647
  820MOL0     C10597   6.700   9.136   6.534 -0.0867 -1.8666  1.0517
  820MOL0     C10598   6.627   9.142   6.415 -0.1741  0.1424 -0.5215
  820MOL0     C10599   6.489   9.172   6.417  0.1223 -0.3988  0.4352
  820MOL0     C10600   6.420   9.203   6.534  0.9621 -0.3373 -0.5163
  820MOL0     O10601   6.283   9.250   6.521 -0.1337  0.0974  0.4493
  820MOL0     C10602   6.251   9.386   6.553 -0.4770  0.6105 -0.3999
  820MOL0     C10603   6.099   9.402   6.576 -0.3687 -0.4551  0.4818
  820MOL0     C10604   6.009   9.370   6.459  0.9119  0.1230  0.1236
  820MOL0     C10605   5.868   9.347   6.518 -0.6832 -0.6243 -0.6116
  820MOL0     C10606   5.764   9.339   6.405 -0.3160 -1.2178 -0.4355
  820MOL0     C10607   5.619   9.346   6.454 -0.6827 -0.1747  0.1774
  820MOL0     C10608   5.584   9.214   6.518 -0.2970  0.6292  0.1002
  820MOL0     C10609   5.433   9.215   6.555 -0.4664 -0.7987 -0.7522
  820MOL0    Cl10610   5.406   9.324   6.697  0.2015  0.9572  0.0200
  820MOL0     C10611   6.489   9.206   6.658 -0.5202  0.0189  0.0827
  820MOL0     C10612   6.631   9.172   6.652 -1.0107  0.0934 -0.1432
  820MOL0     O10613   6.883   9.035   6.345  0.5166  0.2249 -0.2627
  820MOL0     C10614   7.128   8.946   6.412 -0.2024 -0.2647 -0.1598
  820MOL0     C10615   7.268   8.922   6.426  0.0044  0.3194  0.0918
  820MOL0     N10616   7.583   9.012   6.868 -0.2422  0.0769  0.5102
  820MOL0     N10617   7.579   9.060   6.989  0.2825  0.5628 -0.4388
  820MOL0     C10618   7.645   9.761   7.871  0.1425 -0.1142  0.4357
  820MOL0     C10619   7.524   9.800   7.928 -0.6086 -0.1612  0.7766
  820MOL0     C10620   7.106   9.852   8.070 -0.8543 -0.2613  0.3982
  820MOL0     C10621   7.028   9.802   8.174  0.0003  0.7542 -0.4160
  820MOL0     C10622   6.963   9.888   8.258  0.1510 -0.1069  0.4905
  820MOL0     C10623   6.979  10.018   8.242 -0.1032  0.3176  0.2413
  820MOL0     O10624   6.920  10.102   8.325  0.1849 -0.3910  0.4816
  820MOL0     C10625   7.004  10.185   8.409 -0.0950  0.2701 -0.8666
  820MOL0     C10626   6.973  10.339   8.371  0.3458 -0.5046  0.5266
  820MOL0     C10627   6.824  10.364   8.383 -0.0919 -0.0865  0.0961
  820MOL0     C10628   6.806  10.518   8.362 -0.7158  0.3017  0.1288
  820MOL0     C10629   6.841  10.602   8.482  0.2422  0.9613  0.6746
  820MOL0     C10630   6.873  10.659   8.585 -0.4872  0.3478  0.0492
  820MOL0     C10631   7.055  10.075   8.140 -0.7343  0.3198 -0.0090
  820MOL0     C10632   7.119   9.994   8.052  0.3717 -0.2364 -0.7881
  820MOL0     H10633   7.313   9.659   7.691 -0.9130  2.1196 -0.2774
  820MOL0     H10634   7.543   9.612   7.591 -0.5211 -0.6524  0.8003
  820MOL0     H10635   7.873   9.589   7.835 -1.4061 -0.7032  0.4926
  820MOL0     H10636   7.784   9.468   7.744  2.4640 -1.1067 -1.3915
  820MOL0     H10637   8.000   9.643   7.642 -1.5296  1.3748 -0.8385
  820MOL0     H10638   7.998   9.462   7.671  0.0191  1.0353 -0.2120
  820MOL0     H10639   7.802   9.439   7.511  0.8782 -1.2571 -0.5887
  820MOL0     H10640   7.839   9.609   7.458 -1.6874 -0.4484  2.5187
  820MOL0     H10641   8.054   9.560   7.370  0.6026 -0.6679 -1.4953
  820MOL0     H10642   8.057   9.395   7.429  0.1994 -0.5192 -0.6100
  820MOL0     H10643   7.861   9.500   7.209 -1.9321 -1.7879  0.1008
  820MOL0     H10644   8.021   9.412   7.199  2.4067 -2.2632  2.7171
  820MOL0     H10645   7.940   9.214   7.294  0.4551  0.4726 -1.7074
  820MOL0     H10646   7.796   9.289   7.355 -1.6030 -2.5276 -0.9549
  820MOL0     H10647   7.730   9.309   7.111 -1.3874 -1.1062  1.3478
  820MOL0     H10648   7.880   9.238   7.062 -0.0451  0.8972  0.6022
  820MOL0     H10649   7.680   9.091   7.238  0.1590  0.2730  0.2920
  820MOL0     H10650   7.837   9.039   7.194 -0.7219 -0.3776  0.5272
  820MOL0     H10651   7.893   8.960   6.956 -0.4057  0.5204  1.9305
  820MOL0     H10652   7.830   8.830   6.731  0.2173 -0.5549 -0.3466
  820MOL0     H10653   7.667   8.818   6.678 -1.1495  1.8061 -1.0803
  820MOL0     H10654   7.870   8.989   6.565 -0.0201 -1.7000 -2.1846
  820MOL0     H10655   7.714   9.075   6.601  1.1754  0.5739  0.9026
  820MOL0     H10656   7.757   8.818   6.435  0.0274 -0.0836 -0.4425
  820MOL0     H10657   7.724   8.986   6.376  2.7570 -0.1763  1.6258
  820MOL0     H10658   7.541   8.771   6.493  1.0118 -1.0150 -1.0067
  820MOL0     H10659   7.520   8.880   6.354 -1.5100 -1.6691  0.9879
  820MOL0     H10660   7.338   9.150   6.669  1.9544 -2.2422 -0.0853
  820MOL0     H10661   6.975   9.198   6.724 -0.7583 -0.5474 -1.6019
  820MOL0     H10662   7.145   9.243   6.754 -0.6109 -0.3214  1.3375
  820MOL0     H10663   7.059   9.315   6.624  0.3869  0.3506  0.0890
  820MOL0     H10664   6.663   9.114   6.316 -0.4910 -0.9956 -0.3216
  820MOL0     H10665   6.439   9.192   6.323  1.2937 -1.1258 -0.3756
  820MOL0     H10666   6.305   9.407   6.645 -0.8074 -2.2246  0.5439
  820MOL0     H10667   6.279   9.453   6.471 -0.9449  1.5245  0.1716
  820MOL0     H10668   6.069   9.342   6.662  2.7840 -0.8631  1.4218
  820MOL0     H10669   6.080   9.505   6.608 -4.4439 -0.9411  0.1558
  820MOL0     H10670   6.041   9.277   6.413  1.8981  0.0747  0.8875
  820MOL0     H10671   6.009   9.455   6.389  4.1090  0.9274  0.9618
  820MOL0     H10672   5.859   9.257   6.580 -0.1735  0.8135  1.6930
  820MOL0     H10673   5.851   9.441   6.572  0.4254  0.2933 -1.7925
  820MOL0     H10674   5.790   9.252   6.344  2.8892  0.4597 -1.7021
  820MOL0     H10675   5.776   9.433   6.351  0.4769 -1.3836 -0.5609
  820MOL0     H10676   5.630   9.420   6.534  1.8366 -1.1656  0.8066
  820MOL0     H10677   5.554   9.375   6.370 -1.4607 -1.1150  0.4394
  820MOL0     H10678   5.647   9.199   6.606 -1.1869  2.6126  1.1237
  820MOL0     H10679   5.598   9.139   6.439  2.0464  0.0506  0.9750
  820MOL0     H10680   5.387   9.116   6.569 -3.5187  0.5732 -0.1737
  820MOL0     H10681   5.373   9.267   6.480 -0.6731  1.2145  0.7161
  820MOL0     H10682   6.433   9.231   6.747 -0.5980  0.2479 -0.0318
  820MOL0     H10683   6.694   9.172   6.740  0.5357  0.7804 -1.2055
  820MOL0     H10684   7.083   8.885   6.334  3.1351 -2.6098 -0.4669
  820MOL0     H10685   7.318   8.849   6.363  0.9642  1.4892 -0.5359
  820MOL0     H10686   7.739   9.804   7.906 -0.6498  2.6552 -0.5851
  820MOL0     H10687   7.525   9.863   8.017 -0.5896 -0.7690  1.2134
  820MOL0     H10688   7.017   9.698   8.202 -0.5930  1.5338  2.6423
  820MOL0     H10689   6.897   9.838   8.328  0.0982 -1.8604 -0.7524
  820MOL0     H10690   6.972  10.160   8.511  0.2631 -2.6139 -1.3950
  820MOL0     H10691   7.110  10.161   8.400  0.2731  0.8895  1.3088
  820MOL0     H10692   7.009  10.363   8.271 -0.6063 -1.8065 -0.1608
  820MOL0     H10693   7.028  10.404   8.440 -0.9272  1.8136 -0.5073
  820MOL0     H10694   6.785  10.332   8.480 -2.1564 -1.4349 -1.0904
  820MOL0     H10695   6.757  10.306   8.318 -0.4449 -1.9332  2.0090
  820MOL0     H10696   6.700  10.531   8.337 -0.8778 -2.6566 -1.1571
  820MOL0     H10697   6.867  10.550   8.277 -0.1674 -0.1968  0.3269
  820MOL0     H10698   6.889  10.704   8.680 -2.1987 -0.8576  0.9737
  820MOL0     H10699   7.083  10.179   8.138  2.2240 -0.2303  3.4208
  820MOL0     H10700   7.172  10.033   7.965 -0.6545  0.0844 -1.2852
  821MOL0     O10701   5.981  10.044   9.989  0.3981  0.3478  1.0373
  821MOL0     C10702   6.019  10.165   9.994 -0.0677  0.5237 -0.0473
  821MOL0     O10703   5.956  10.267   9.929 -0.6375 -0.0580  0.2672
  821MOL0     C10704   5.841  10.243   9.872  0.8375 -0.1288 -0.1361
  821MOL0     C10705   5.828  10.297   9.748 -0.3647  0.0572  0.1640
  821MOL0     C10706   5.706  10.321   9.692 -0.0724 -0.0632  0.0109
  821MOL0     C10707   5.584  10.270   9.742  0.2346  0.2154  0.0665
  821MOL0     O10708   5.457  10.279   9.684 -0.1512  0.2619  0.3538
  821MOL0     C10709   5.451  10.319   9.547 -0.3502 -0.7304  1.5398
  821MOL0     C10710   5.318  10.296   9.465  0.4606  0.1537  0.0035
  821MOL0     C10711   5.340  10.309   9.311  0.1189 -0.2644  0.1840
  821MOL0     C10712   5.212  10.365   9.243 -1.2236  0.3868 -0.6910
  821MOL0     C10713   5.247  10.467   9.126 -0.3747  0.7374  0.2218
  821MOL0     C10714   5.317  10.412   9.009  0.4510 -0.4893  0.3274
  821MOL0     C10715   5.342  10.524   8.908  0.2219 -0.2095 -0.0953
  821MOL0     C10716   5.431  10.491   8.784 -1.2607  0.9581 -0.0247
  821MOL0     N10717   5.361  10.414   8.683  0.4155 -0.3823 -0.8539
  821MOL0     C10718   5.259  10.469   8.605  0.1350  0.5697  1.4840
  821MOL0     C10719   5.221  10.370   8.512 -0.1738 -0.3114  0.1867
  821MOL0     C10720   5.119  10.397   8.397  0.0130 -0.1859  0.3268
  821MOL0     C10721   4.989  10.327   8.426  0.3914  0.9753 -0.0010
  821MOL0     C10722   5.002  10.177   8.380  0.1321  0.0919  0.4060
  821MOL0     C10723   4.858  10.111   8.385 -0.8952  0.4806  0.4413
  821MOL0     O10724   4.847   9.970   8.402  0.5269 -1.6816 -0.1853
  821MOL0     C10725   4.930   9.901   8.318  0.4606  0.3572 -0.1894
  821MOL0     C10726   4.902   9.917   8.179 -0.2587  0.3694  0.1472
  821MOL0     C10727   4.991   9.866   8.080  0.1844  0.1472 -0.6040
  821MOL0     C10728   4.952   9.901   7.940  0.1924 -0.3729  0.5078
  821MOL0     C10729   5.101   9.786   8.117 -0.4052  0.3615 -0.2091
  821MOL0     C10730   5.206   9.733   8.021 -0.9292 -0.1017  0.0690
  821MOL0     O10731   5.186   9.732   7.886 -0.6404 -0.2206 -0.3731
  821MOL0     C10732   5.279   9.680   7.798  0.5286  0.2924 -0.3147
  821MOL0     C10733   5.373   9.745   7.720 -0.7248 -1.0024 -0.3575
  821MOL0     C10734   5.446   9.684   7.625 -0.4687  0.1525 -0.3720
  821MOL0     C10735   5.463   9.552   7.621 -0.3510  0.3199  0.4638
  821MOL0     O10736   5.546   9.489   7.528 -0.5342  0.3819 -0.4624
  821MOL0     C10737   5.515   9.513   7.391 -0.4354  0.1433  0.0659
  821MOL0     C10738   5.384   9.454   7.343  0.1425  0.6757 -1.1046
  821MOL0     C10739   5.368   9.494   7.199  0.1697  0.7321  0.8308
  821MOL0     C10740   5.228   9.432   7.148 -0.5187  0.4189  0.8540
  821MOL0     C10741   5.265   9.293   7.069  0.4013  0.4148 -0.8405
  821MOL0     C10742   5.135   9.223   7.021 -0.4321 -0.0822 -1.0473
  821MOL0     C10743   5.152   9.101   6.929 -0.0475  0.2850  0.6392
  821MOL0     C10744   5.231   8.979   6.995  0.1020 -0.0531  0.2258
  821MOL0    Cl10745   5.408   9.006   6.989  0.1943  0.4298 -0.1825
  821MOL0     C10746   5.391   9.480   7.718  0.2260  0.1405 -0.3076
  821MOL0     C10747   5.293   9.543   7.793 -0.0077  0.9202 -0.7929
  821MOL0     O10748   5.312   9.698   8.073 -0.4703 -0.5531 -0.6234
  821MOL0     C10749   5.123   9.762   8.260  0.0262 -0.3347  1.3926
  821MOL0     C10750   5.043   9.830   8.357  0.0866  0.4641  0.1716
  821MOL0     N10751   5.297  10.255   8.547  0.1721 -0.1656 -0.1337
  821MOL0     N10752   5.384  10.288   8.639  0.8606 -0.5020  0.4820
  821MOL0     C10753   5.594  10.199   9.863 -0.7437 -0.6048  0.1629
  821MOL0     C10754   5.727  10.192   9.934  0.1654 -0.9933  0.0549
  821MOL0     C10755   6.125  10.208  10.098  0.2567 -0.1228 -0.2925
  821MOL0     C10756   6.207  10.124  10.165 -0.6137  0.3375  0.0145
  821MOL0     C10757   6.316  10.159  10.252  0.5987 -0.2584  0.0329
  821MOL0     C10758   6.321  10.295  10.286  0.4212  0.2634 -0.5363
  821MOL0     O10759   6.404  10.350  10.376  0.1228 -0.5698  0.0283
  821MOL0     C10760   6.506  10.270  10.441  0.3553 -0.2177  0.3809
  821MOL0     C10761   6.459  10.194  10.565  0.2106 -0.2257  0.2313
  821MOL0     C10762   6.560  10.098  10.626 -0.1018  0.5795  0.5449
  821MOL0     C10763   6.695  10.163  10.662 -0.3368  0.9544  0.2447
  821MOL0     C10764   6.760  10.071  10.752  0.1210  0.2895  0.0268
  821MOL0     C10765   6.822   9.997  10.827  0.5344  0.7126 -0.5190
  821MOL0     C10766   6.236  10.384  10.225  0.3610  0.3101  0.5020
  821MOL0     C10767   6.134  10.344  10.134  0.1948  0.1030 -0.2356
  821MOL0     H10768   5.916  10.342   9.704 -1.3895  0.6545 -1.3683
  821MOL0     H10769   5.704  10.379   9.601  1.2400  1.5796  0.9727
  821MOL0     H10770   5.476  10.423   9.523  2.8687 -1.9445 -1.1666
  821MOL0     H10771   5.530  10.255   9.505  1.4687  1.2902  1.7319
  821MOL0     H10772   5.286  10.194   9.487 -0.1037 -0.1499 -2.0542
  821MOL0     H10773   5.246  10.371   9.501 -1.1201 -1.9935  1.6560
  821MOL0     H10774   5.420  10.384   9.314  2.0461 -2.1694 -0.4622
  821MOL0     H10775   5.373  10.217   9.262 -0.7876 -1.0966  1.0972
  821MOL0     H10776   5.155  10.278   9.209 -1.9293  0.0394  1.2661
  821MOL0     H10777   5.159  10.429   9.314  0.3378  1.3055 -0.3001
  821MOL0     H10778   5.155  10.517   9.095 -0.0700  1.0521 -0.1820
  821MOL0     H10779   5.307  10.549   9.165 -0.7418  0.5239  1.2585
  821MOL0     H10780   5.415  10.378   9.043  0.8804  2.7741  2.7595
  821MOL0     H10781   5.260  10.332   8.960 -0.7907  0.5031  0.0868
  821MOL0     H10782   5.254  10.565   8.859  0.0154 -0.7144 -0.1527
  821MOL0     H10783   5.390  10.601   8.969  2.1775 -1.4450  0.0426
  821MOL0     H10784   5.528  10.443   8.803 -0.2189  2.8784 -0.2597
  821MOL0     H10785   5.469  10.580   8.733  1.7890 -1.5872 -2.7118
  821MOL0     H10786   5.214  10.567   8.618  0.5924  0.6758  2.3316
  821MOL0     H10787   5.099  10.504   8.387  1.4572  0.0907  0.1684
  821MOL0     H10788   5.167  10.355   8.309 -0.2805 -1.2867  0.6755
  821MOL0     H10789   4.900  10.381   8.394 -0.5689  0.5234  1.7442
  821MOL0     H10790   4.970  10.327   8.534 -3.1248 -3.9771 -0.2857
  821MOL0     H10791   5.073  10.118   8.438 -2.0566 -1.0813  2.0801
  821MOL0     H10792   5.016  10.185   8.272 -2.2626 -1.4788 -0.1085
  821MOL0     H10793   4.813  10.149   8.292 -2.1632  1.8423  1.5566
  821MOL0     H10794   4.799  10.153   8.466 -3.9120 -1.0416 -0.8188
  821MOL0     H10795   4.815   9.969   8.140 -0.3735 -1.8174 -2.8784
  821MOL0     H10796   5.025   9.974   7.904 -0.5393  0.1052 -0.0445
  821MOL0     H10797   4.965   9.809   7.881  1.8185  1.0878 -1.5843
  821MOL0     H10798   4.848   9.932   7.927  0.7121  0.4070 -3.1473
  821MOL0     H10799   5.371   9.852   7.737  1.7219 -0.9014 -0.3288
  821MOL0     H10800   5.516   9.744   7.567 -0.7892  0.2898 -0.6166
  821MOL0     H10801   5.503   9.619   7.370 -2.1019  0.0528  0.4326
  821MOL0     H10802   5.596   9.474   7.328 -0.6729 -2.2193  1.1266
  821MOL0     H10803   5.384   9.347   7.363  2.3600  1.1156  2.1520
  821MOL0     H10804   5.309   9.502   7.406  2.0753  0.6501  1.3913
  821MOL0     H10805   5.449   9.462   7.132 -0.5472 -0.9409  0.7207
  821MOL0     H10806   5.377   9.603   7.190 -0.3221  0.6456 -1.2863
  821MOL0     H10807   5.157   9.415   7.229 -0.8048 -0.3015  0.4626
  821MOL0     H10808   5.179   9.486   7.067 -2.5132 -4.2599 -1.4791
  821MOL0     H10809   5.318   9.220   7.132  1.8567  0.5680 -1.8359
  821MOL0     H10810   5.314   9.320   6.975  1.2197 -2.0043 -1.1796
  821MOL0     H10811   5.067   9.193   7.101  0.2561  1.0914 -0.0042
  821MOL0     H10812   5.071   9.295   6.969 -1.9185 -1.8857 -1.8626
  821MOL0     H10813   5.200   9.137   6.837 -1.5326 -0.2611 -0.3877
  821MOL0     H10814   5.056   9.066   6.890  0.5443  2.3788 -3.1663
  821MOL0     H10815   5.197   8.895   6.934 -1.9598  0.4629  0.6027
  821MOL0     H10816   5.200   8.952   7.096  2.2372 -3.7813  0.0710
  821MOL0     H10817   5.392   9.372   7.729 -4.3985  0.0997  2.2495
  821MOL0     H10818   5.221   9.491   7.856 -1.8655  3.4638 -0.6338
  821MOL0     H10819   5.199   9.690   8.291  1.8598  1.4992  1.3316
  821MOL0     H10820   5.056   9.814   8.464 -1.5790 -2.1026  0.0907
  821MOL0     H10821   5.500  10.169   9.909 -0.9851 -0.1497 -0.0312
  821MOL0     H10822   5.735  10.159  10.037  1.7826 -0.1743  0.2365
  821MOL0     H10823   6.207  10.022  10.128 -0.1928 -0.5738  2.3333
  821MOL0     H10824   6.385  10.082  10.285  1.7993  1.1344  0.9002
  821MOL0     H10825   6.553  10.202  10.370 -2.9642 -1.1596 -1.1092
  821MOL0     H10826   6.585  10.340  10.472 -0.7799  2.0756 -1.5717
  821MOL0     H10827   6.365  10.140  10.555  0.4879 -0.9807  1.4667
  821MOL0     H10828   6.434  10.274  10.636  0.1590 -1.0559  1.1694
  821MOL0     H10829   6.576  10.001  10.578 -2.6647 -0.4934  1.6598
  821MOL0     H10830   6.513  10.078  10.723 -2.4941 -1.4401 -0.9302
  821MOL0     H10831   6.670  10.257  10.711 -1.2994  0.2862  1.0713
  821MOL0     H10832   6.754  10.185  10.573 -0.4439  1.1039  0.2124
  821MOL0     H10833   6.889   9.934  10.883  0.3714  0.3244 -0.7595
  821MOL0     H10834   6.241  10.489  10.254  2.2910  0.5045 -0.3590
  821MOL0     H10835   6.056  10.414  10.106 -1.5541 -1.8700 -0.5239
  822MOL0     O10836   8.806   5.983   8.394  0.5014  0.6735 -0.1587
  822MOL0     C10837   8.811   5.872   8.349  0.3178 -0.3861  0.4117
  822MOL0     O10838   8.925   5.788   8.346  0.9358 -0.0778  0.1410
  822MOL0     C10839   9.037   5.820   8.415  0.6489 -0.1673  0.1383
  822MOL0     C10840   9.143   5.890   8.363  0.6658  0.3455  0.7313
  822MOL0     C10841   9.258   5.901   8.450 -0.0088  0.5204  0.1126
  822MOL0     C10842   9.260   5.850   8.578  0.0679 -0.2527 -0.1311
  822MOL0     O10843   9.368   5.874   8.667  0.2226 -0.8390 -0.5343
  822MOL0     C10844   9.393   6.007   8.700 -0.3107 -0.4799  1.1473
  822MOL0     C10845   9.471   6.015   8.826  0.0275 -0.0559  0.1392
  822MOL0     C10846   9.405   5.961   8.951  0.3788 -0.4316 -0.9364
  822MOL0     C10847   9.335   6.075   9.033  0.4457  0.1189  0.3671
  822MOL0     C10848   9.252   6.013   9.152 -0.7264 -1.0510 -0.4195
  822MOL0     C10849   9.139   5.919   9.107  0.2995 -0.0018 -0.5411
  822MOL0     C10850   9.051   5.851   9.219  0.1497 -0.2059  1.2358
  822MOL0     C10851   8.972   5.958   9.289 -0.1204  1.5442  0.6680
  822MOL0     N10852   8.843   5.902   9.352 -0.1283 -0.1889  0.1591
  822MOL0     C10853   8.745   5.844   9.281 -0.6145  0.9251 -0.5099
  822MOL0     C10854   8.644   5.805   9.371 -0.1458 -0.2163 -0.3097
  822MOL0     C10855   8.526   5.719   9.345  0.9182 -0.0271 -0.8240
  822MOL0     C10856   8.443   5.707   9.473 -0.2292  0.6259  0.0156
  822MOL0     C10857   8.375   5.569   9.475 -0.4846  0.3026  0.2291
  822MOL0     C10858   8.223   5.553   9.505  0.0269 -0.6648 -0.1229
  822MOL0     O10859   8.148   5.644   9.433  0.1895  0.2357  0.1443
  822MOL0     C10860   8.010   5.615   9.428  0.3173  0.3387 -0.7980
  822MOL0     C10861   7.930   5.686   9.516 -0.4664 -0.5597  0.0327
  822MOL0     C10862   7.784   5.691   9.500 -0.1360  0.4406  0.3421
  822MOL0     C10863   7.716   5.786   9.594  0.2265  0.9584 -0.2306
  822MOL0     C10864   7.723   5.603   9.412  0.2526 -0.1015 -0.4406
  822MOL0     C10865   7.571   5.598   9.398  0.7260 -0.0216 -0.7220
  822MOL0     O10866   7.485   5.649   9.491 -0.0706  0.2385 -0.0707
  822MOL0     C10867   7.356   5.604   9.491  0.1829  0.1686 -0.2745
  822MOL0     C10868   7.259   5.702   9.512  0.5123 -0.6283 -0.5920
  822MOL0     C10869   7.118   5.671   9.504 -0.3775 -0.4566  0.6180
  822MOL0     C10870   7.078   5.536   9.501  0.2573 -0.0228  0.2430
  822MOL0     O10871   6.941   5.511   9.517  0.4451  0.9411  0.3680
  822MOL0     C10872   6.908   5.409   9.613  0.7141 -0.4887  0.7064
  822MOL0     C10873   6.749   5.414   9.619 -0.7723 -0.3951 -0.5558
  822MOL0     C10874   6.685   5.295   9.547 -0.2303  0.1106  0.4185
  822MOL0     C10875   6.568   5.222   9.614 -0.3906 -0.3909  0.6442
  822MOL0     C10876   6.510   5.119   9.508  0.9955  0.0435 -0.1193
  822MOL0     C10877   6.402   5.189   9.423  0.1471  0.6750  0.4958
  822MOL0     C10878   6.390   5.120   9.283  0.6991 -0.3801 -0.5930
  822MOL0     C10879   6.277   5.178   9.189  0.1924 -0.4280 -0.6816
  822MOL0    Cl10880   6.118   5.176   9.277  0.0176  0.2216 -0.4386
  822MOL0     C10881   7.176   5.435   9.500 -0.1037  0.7761 -0.4216
  822MOL0     C10882   7.308   5.466   9.489 -0.2436 -0.1039  0.2462
  822MOL0     O10883   7.536   5.537   9.293  0.3209 -0.5781  0.3430
  822MOL0     C10884   7.801   5.524   9.339  0.0642  0.4467  0.4072
  822MOL0     C10885   7.944   5.537   9.335  1.5140  0.3747  0.3253
  822MOL0     N10886   8.696   5.848   9.495 -0.2687  0.5641 -0.0628
  822MOL0     N10887   8.817   5.888   9.488  0.1170 -0.0142  1.7132
  822MOL0     C10888   9.144   5.782   8.632  0.1590 -0.4869  0.7381
  822MOL0     C10889   9.026   5.779   8.553 -0.5456 -0.0300  0.6841
  822MOL0     C10890   8.685   5.816   8.302 -0.0104  0.7353  0.2953
  822MOL0     C10891   8.578   5.892   8.263 -0.3762  0.0989  0.6134
  822MOL0     C10892   8.461   5.831   8.213  0.1417  0.0372 -0.3653
  822MOL0     C10893   8.450   5.697   8.198  0.1370  0.3076  0.0807
  822MOL0     O10894   8.334   5.642   8.139 -0.6238 -0.6222 -0.5990
  822MOL0     C10895   8.309   5.500   8.138  0.3141  0.0493 -0.1725
  822MOL0     C10896   8.257   5.453   8.002  0.0790  0.2426 -0.0137
  822MOL0     C10897   8.134   5.528   7.959  0.2272 -0.1973  0.5523
  822MOL0     C10898   8.009   5.447   8.000 -1.0932  1.1217 -0.0169
  822MOL0     C10899   7.898   5.493   7.913 -0.0394  0.2166 -0.3289
  822MOL0     C10900   7.798   5.545   7.854 -0.2481  1.0807 -0.2275
  822MOL0     C10901   8.559   5.613   8.235  0.1122 -0.3534  0.1671
  822MOL0     C10902   8.672   5.676   8.287  0.4273  0.1397  0.1391
  822MOL0     H10903   9.133   5.930   8.263  0.1197 -1.9856 -0.2008
  822MOL0     H10904   9.333   5.962   8.401 -0.9517  0.2441 -1.7775
  822MOL0     H10905   9.454   6.048   8.619 -0.0434 -0.7344  1.2157
  822MOL0     H10906   9.303   6.069   8.708 -1.1746 -1.6585  0.8735
  822MOL0     H10907   9.564   5.958   8.815  0.3300 -0.5645  3.8857
  822MOL0     H10908   9.483   6.123   8.839 -3.6367  0.3811  0.9857
  822MOL0     H10909   9.329   5.890   8.917 -1.4917  0.4284  1.2176
  822MOL0     H10910   9.475   5.900   9.007  1.3407  0.3786 -1.2156
  822MOL0     H10911   9.410   6.150   9.062 -0.1241  0.3366  1.2956
  822MOL0     H10912   9.264   6.121   8.964  0.9386  0.1985 -0.0888
  822MOL0     H10913   9.328   5.967   9.216  0.1502 -0.2691 -0.8634
  822MOL0     H10914   9.206   6.089   9.216 -0.4590 -1.2256 -0.0146
  822MOL0     H10915   9.069   5.980   9.049 -1.6136 -1.1902  0.4369
  822MOL0     H10916   9.178   5.835   9.050  1.7316 -0.1115  0.5325
  822MOL0     H10917   8.983   5.788   9.161 -2.9636  3.7819  0.1476
  822MOL0     H10918   9.115   5.798   9.290 -1.3449  0.1770  2.9296
  822MOL0     H10919   8.938   6.034   9.218 -1.1846  0.6463  0.1928
  822MOL0     H10920   9.034   6.004   9.367  2.3717  1.0385 -0.9476
  822MOL0     H10921   8.762   5.818   9.177  0.6724 -2.8069  0.5109
  822MOL0     H10922   8.453   5.757   9.273 -2.1936 -1.8996  1.0934
  822MOL0     H10923   8.555   5.621   9.306 -3.1255 -1.9382  0.3746
  822MOL0     H10924   8.366   5.786   9.469 -2.3462 -1.3160  0.1553
  822MOL0     H10925   8.501   5.713   9.566 -0.5485  2.4959  0.1467
  822MOL0     H10926   8.430   5.499   9.537 -0.7928  1.4227  1.8386
  822MOL0     H10927   8.374   5.517   9.379  0.1488 -0.8745  0.8522
  822MOL0     H10928   8.222   5.580   9.611  3.2142  1.8642 -0.6033
  822MOL0     H10929   8.193   5.449   9.486  2.4351 -1.3854 -0.3260
  822MOL0     H10930   7.978   5.753   9.587  2.8052 -1.9896 -0.6295
  822MOL0     H10931   7.787   5.826   9.667  0.2150 -0.8898  0.8610
  822MOL0     H10932   7.677   5.872   9.538 -0.1958  1.4953  0.8528
  822MOL0     H10933   7.637   5.742   9.655  0.2715 -0.1542 -0.9528
  822MOL0     H10934   7.298   5.803   9.524  2.2119 -0.9793 -2.5418
  822MOL0     H10935   7.039   5.745   9.504  0.3445  0.3791 -1.1037
  822MOL0     H10936   6.959   5.315   9.586  2.0623  0.9444 -2.2533
  822MOL0     H10937   6.948   5.431   9.712 -0.1109  0.7832  0.7733
  822MOL0     H10938   6.720   5.423   9.724  3.9565 -0.6960  1.0237
  822MOL0     H10939   6.705   5.502   9.573 -3.6704 -1.6658 -0.4211
  822MOL0     H10940   6.762   5.218   9.535  1.6687  1.3968  3.2274
  822MOL0     H10941   6.655   5.330   9.448 -0.6263 -1.0210  0.1320
  822MOL0     H10942   6.619   5.173   9.698  2.3145 -0.5594 -0.9853
  822MOL0     H10943   6.488   5.283   9.656 -0.0612  0.8214 -0.4167
  822MOL0     H10944   6.464   5.030   9.552 -1.7654  1.7516  0.7538
  822MOL0     H10945   6.590   5.082   9.444  0.3797  0.9530 -1.4853
  822MOL0     H10946   6.305   5.190   9.474 -0.5403 -0.6282 -0.7123
  822MOL0     H10947   6.428   5.294   9.409  1.5012  0.0243 -2.7368
  822MOL0     H10948   6.358   5.017   9.296  1.9974 -0.7225  0.0606
  822MOL0     H10949   6.477   5.126   9.217 -0.2543  1.9858 -1.7764
  822MOL0     H10950   6.255   5.110   9.105  0.6723  0.0852 -1.2295
  822MOL0     H10951   6.303   5.276   9.150 -3.2592  1.2215  0.7160
  822MOL0     H10952   7.154   5.328   9.497  2.5185  0.1366  0.3086
  822MOL0     H10953   7.378   5.385   9.472 -1.2726 -0.8392 -0.5825
  822MOL0     H10954   7.761   5.449   9.271  1.0868 -0.7477  1.0793
  822MOL0     H10955   7.991   5.471   9.263  1.6320 -0.0923  0.8161
  822MOL0     H10956   9.150   5.738   8.731  2.7539  1.4951  1.5494
  822MOL0     H10957   8.935   5.727   8.582 -0.6296 -1.4473 -1.8515
  822MOL0     H10958   8.592   5.999   8.275  2.4355  0.1163 -1.6600
  822MOL0     H10959   8.372   5.888   8.188 -0.7265 -1.2339 -0.2643
  822MOL0     H10960   8.392   5.435   8.169  2.5036  2.1994 -1.1266
  822MOL0     H10961   8.225   5.480   8.205  1.9520  1.3277  2.4073
  822MOL0     H10962   8.237   5.346   8.012 -2.7828  0.5553 -1.4622
  822MOL0     H10963   8.332   5.463   7.923 -0.2129 -0.3025 -0.3615
  822MOL0     H10964   8.142   5.534   7.850  1.8344 -2.4320  0.4926
  822MOL0     H10965   8.119   5.634   7.984 -2.0069  0.2599 -2.1842
  822MOL0     H10966   8.000   5.464   8.108  3.5543 -0.4046  0.8798
  822MOL0     H10967   8.020   5.339   7.984  0.7174  1.1260  0.8474
  822MOL0     H10968   7.714   5.596   7.811  2.0482  4.7946 -0.7164
  822MOL0     H10969   8.564   5.504   8.233  0.4177 -0.3364 -0.0918
  822MOL0     H10970   8.758   5.623   8.325  1.8434  1.3713 -1.2243
  823MOL0     O10971  11.116   9.263   6.971  0.6108 -0.3211  0.1281
  823MOL0     C10972  11.120   9.136   6.986 -0.8336 -0.6736 -0.3002
  823MOL0     O10973  11.016   9.052   6.989 -0.3170 -0.1175 -0.3128
  823MOL0     C10974  10.899   9.114   6.969  0.1049 -0.9020 -0.2748
  823MOL0     C10975  10.815   9.137   7.075  0.1516  0.0102  0.0043
  823MOL0     C10976  10.699   9.206   7.070  0.6364 -0.5540  0.1368
  823MOL0     C10977  10.656   9.256   6.948 -0.4484 -0.1253  0.3627
  823MOL0     O10978  10.551   9.342   6.917  0.2022 -0.1543 -0.0275
  823MOL0     C10979  10.449   9.383   7.016 -0.6614  0.5725  0.0707
  823MOL0     C10980  10.323   9.316   6.961  0.5062  1.0429 -0.0329
  823MOL0     C10981  10.261   9.370   6.833 -1.0589  0.9332 -0.1369
  823MOL0     C10982  10.140   9.277   6.794  0.5196 -0.6426  0.1436
  823MOL0     C10983  10.054   9.335   6.674  0.1553 -0.5951 -0.8392
  823MOL0     C10984   9.928   9.246   6.643 -0.6295 -0.1805 -0.6146
  823MOL0     C10985   9.968   9.116   6.579 -0.5081 -0.3261 -0.3407
  823MOL0     C10986  10.011   9.122   6.422  1.1806 -0.7997 -0.4285
  823MOL0     N10987  10.146   9.160   6.402 -0.6377 -0.1100 -0.2296
  823MOL0     C10988  10.254   9.135   6.488  0.6307  0.4553  0.4556
  823MOL0     C10989  10.340   9.226   6.438 -0.0307 -0.2472 -0.3164
  823MOL0     C10990  10.473   9.258   6.505 -0.6114  0.8555  0.0749
  823MOL0     C10991  10.583   9.147   6.474  0.6275 -0.5131 -1.4273
  823MOL0     C10992  10.611   9.145   6.319  0.9391 -0.0403  0.7341
  823MOL0     C10993  10.729   9.056   6.276  0.5475  0.8830  1.1932
  823MOL0     O10994  10.732   9.024   6.136 -0.0106  0.2144  0.2245
  823MOL0     C10995  10.846   8.977   6.085 -0.2816  0.4156 -1.1300
  823MOL0     C10996  10.842   8.936   5.956  0.6289 -0.4411  0.0487
  823MOL0     C10997  10.954   8.887   5.885  0.0558  0.1538  0.0711
  823MOL0     C10998  10.932   8.863   5.737 -0.3524 -0.3669 -0.3767
  823MOL0     C10999  11.074   8.864   5.953  0.3091  0.2075 -0.0006
  823MOL0     C11000  11.196   8.797   5.900 -0.8795 -0.8729 -0.0393
  823MOL0     O11001  11.295   8.762   5.994  0.1959 -0.3873 -0.0140
  823MOL0     C11002  11.414   8.722   5.936 -0.1054  0.6248  0.1736
  823MOL0     C11003  11.423   8.601   5.872  0.2050  0.7923 -0.6708
  823MOL0     C11004  11.540   8.569   5.796  0.4312 -0.3772 -0.3763
  823MOL0     C11005  11.653   8.649   5.812  0.6816  0.2742  0.1185
  823MOL0     O11006  11.768   8.597   5.766  0.9227  0.6763  0.4242
  823MOL0     C11007  11.853   8.547   5.872  0.1135 -1.2101 -0.7144
  823MOL0     C11008  11.988   8.491   5.815  0.9038 -0.5261  0.9341
  823MOL0     C11009  12.100   8.493   5.909 -0.0999 -0.3920  0.5122
  823MOL0     C11010  12.225   8.463   5.829  0.0981  0.6526  0.1247
  823MOL0     C11011  12.344   8.442   5.915  0.1037  1.0679 -0.0677
  823MOL0     C11012  12.468   8.406   5.835  0.3604 -0.7897 -0.1737
  823MOL0     C11013  12.586   8.413   5.928 -0.3555 -0.7462  0.0194
  823MOL0     C11014  12.715   8.378   5.849  0.2791  0.7844  0.2418
  823MOL0    Cl11015  12.861   8.371   5.966  0.0426  0.1498 -0.1040
  823MOL0     C11016  11.646   8.769   5.888 -0.5863 -0.2741  0.4383
  823MOL0     C11017  11.519   8.811   5.933 -0.8727  0.0862  1.0353
  823MOL0     O11018  11.202   8.779   5.782  0.5273 -0.0206  0.2199
  823MOL0     C11019  11.082   8.904   6.088  0.7432  0.8798 -1.1186
  823MOL0     C11020  10.966   8.958   6.157 -0.2480 -0.1460  0.2349
  823MOL0     N11021  10.294   9.308   6.327  0.1189  0.4004  0.4753
  823MOL0     N11022  10.170   9.264   6.312 -0.7073  0.8976  0.1619
  823MOL0     C11023  10.738   9.236   6.838 -0.0326 -0.0366  0.5044
  823MOL0     C11024  10.862   9.170   6.849 -0.1238  0.2062  0.9083
  823MOL0     C11025  11.253   9.074   6.981 -0.1469 -1.0531  0.3979
  823MOL0     C11026  11.267   8.937   6.999 -0.6309  0.5505  0.2003
  823MOL0     C11027  11.394   8.877   7.019 -0.8327 -0.1029  1.2105
  823MOL0     C11028  11.509   8.943   7.000  0.4854 -1.3308 -0.8715
  823MOL0     O11029  11.627   8.888   7.027 -0.1780  0.5638 -0.6204
  823MOL0     C11030  11.747   8.962   7.032  0.2829 -0.1633 -0.1751
  823MOL0     C11031  11.848   8.876   7.091 -0.3831  0.4296 -0.1055
  823MOL0     C11032  11.991   8.923   7.065 -0.1575  0.2499  0.3665
  823MOL0     C11033  12.040   9.028   7.172  0.3824  0.1414  0.6835
  823MOL0     C11034  12.180   9.026   7.164 -0.7523  0.4853 -0.1042
  823MOL0     C11035  12.301   9.020   7.148  0.1095 -0.0891  0.0944
  823MOL0     C11036  11.498   9.084   6.965 -0.1625 -0.2156 -0.3036
  823MOL0     C11037  11.374   9.152   6.961  0.5419  0.3450  0.6925
  823MOL0     H11038  10.852   9.095   7.168  1.7240  1.5945  0.1360
  823MOL0     H11039  10.640   9.223   7.160  1.8938 -0.5518  0.9985
  823MOL0     H11040  10.470   9.346   7.117 -2.8744  2.0326  1.1436
  823MOL0     H11041  10.437   9.491   7.019  2.7322  1.0402  1.2579
  823MOL0     H11042  10.342   9.212   6.935  0.2616  1.2034 -0.8809
  823MOL0     H11043  10.247   9.326   7.039  0.2481  0.0601 -0.1509
  823MOL0     H11044  10.230   9.473   6.852  1.4004  1.9890 -1.3545
  823MOL0     H11045  10.338   9.371   6.755  1.0693 -1.3680  1.7565
  823MOL0     H11046  10.177   9.177   6.769  1.0090 -0.0461 -1.6398
  823MOL0     H11047  10.082   9.270   6.887  3.0680 -0.5520  1.8323
  823MOL0     H11048  10.019   9.438   6.684 -2.8167 -1.3546 -2.1948
  823MOL0     H11049  10.125   9.348   6.592  0.3976  3.1308 -0.2148
  823MOL0     H11050   9.868   9.220   6.732 -2.4107  1.8840 -1.1229
  823MOL0     H11051   9.852   9.310   6.598 -0.4779 -0.6003 -1.4783
  823MOL0     H11052  10.041   9.061   6.640 -2.1367  0.6243  2.6528
  823MOL0     H11053   9.872   9.068   6.561 -0.8548  0.2431 -0.0608
  823MOL0     H11054   9.932   9.188   6.385  1.4498 -1.7091 -2.7463
  823MOL0     H11055   9.990   9.032   6.363 -1.3378  1.8283 -3.9584
  823MOL0     H11056  10.264   9.056   6.562  1.4061  1.1308  1.0992
  823MOL0     H11057  10.519   9.352   6.475  1.1134  0.7662  2.2508
  823MOL0     H11058  10.450   9.255   6.612  1.1780 -0.0597  0.4809
  823MOL0     H11059  10.545   9.052   6.512 -1.8092  1.1339  0.5615
  823MOL0     H11060  10.677   9.170   6.524  0.9612 -0.1652 -2.1881
  823MOL0     H11061  10.623   9.246   6.280 -0.4445  0.4713  1.5395
  823MOL0     H11062  10.519   9.116   6.266  0.8120  2.5437 -0.6207
  823MOL0     H11063  10.724   8.962   6.333  0.7623  2.4185  3.9289
  823MOL0     H11064  10.814   9.116   6.310  1.6165 -0.5604  1.1756
  823MOL0     H11065  10.745   8.953   5.910  0.8409  1.3980  0.1911
  823MOL0     H11066  10.824   8.866   5.719 -1.1281 -0.9910  3.3204
  823MOL0     H11067  10.991   8.930   5.673 -0.4463 -1.3357 -1.5198
  823MOL0     H11068  10.972   8.763   5.718  0.7793 -0.3940  1.8617
  823MOL0     H11069  11.348   8.523   5.871 -0.1400  1.1221 -0.5703
  823MOL0     H11070  11.547   8.472   5.748  0.6586 -1.8636  2.4557
  823MOL0     H11071  11.894   8.621   5.942  2.9140 -0.8117 -2.6171
  823MOL0     H11072  11.803   8.477   5.939  0.7353 -0.4890  0.5504
  823MOL0     H11073  11.956   8.393   5.779 -0.9154  0.1745  0.5400
  823MOL0     H11074  12.024   8.550   5.731  0.1426 -0.3864  0.6943
  823MOL0     H11075  12.087   8.411   5.980  3.2496 -1.6719 -0.1298
  823MOL0     H11076  12.121   8.588   5.959  2.0409 -0.7902  0.4951
  823MOL0     H11077  12.195   8.377   5.768 -6.2414  0.5943  2.5750
  823MOL0     H11078  12.248   8.550   5.766  1.5398 -0.3979 -0.8722
  823MOL0     H11079  12.327   8.357   5.982 -1.2409 -0.7896 -2.5953
  823MOL0     H11080  12.353   8.537   5.969 -3.0044  2.2000 -1.2968
  823MOL0     H11081  12.451   8.305   5.796  1.0455  0.5387 -4.3597
  823MOL0     H11082  12.483   8.477   5.753  0.9805 -1.0054 -0.2507
  823MOL0     H11083  12.573   8.345   6.012 -1.3285 -2.9354 -1.7970
  823MOL0     H11084  12.601   8.516   5.964 -0.4532 -0.9767  0.7371
  823MOL0     H11085  12.737   8.454   5.774 -1.2344  1.1433  0.1276
  823MOL0     H11086  12.711   8.275   5.811 -1.0151  1.0105 -0.2767
  823MOL0     H11087  11.736   8.829   5.892  0.1676 -1.2945 -0.4498
  823MOL0     H11088  11.518   8.905   5.987  1.9253  1.8793 -1.7368
  823MOL0     H11089  11.176   8.906   6.143 -0.0098 -0.7001  0.3236
  823MOL0     H11090  10.981   8.978   6.262 -2.5962 -4.9490  1.7825
  823MOL0     H11091  10.706   9.281   6.744 -1.9865  2.2544  2.1522
  823MOL0     H11092  10.915   9.162   6.755 -0.1359 -0.8200  0.9802
  823MOL0     H11093  11.194   8.857   7.005  0.7228 -0.7255  0.5036
  823MOL0     H11094  11.416   8.771   7.019 -0.5770 -0.1148 -1.5117
  823MOL0     H11095  11.773   8.996   6.931 -0.1483 -0.3133 -0.3400
  823MOL0     H11096  11.738   9.047   7.101 -3.2403 -0.6620  0.1844
  823MOL0     H11097  11.847   8.782   7.036  1.6287  1.4173 -1.9643
  823MOL0     H11098  11.824   8.859   7.197 -4.7519  0.7147 -0.8548
  823MOL0     H11099  12.000   8.966   6.965 -0.3489 -0.7206 -0.0782
  823MOL0     H11100  12.060   8.838   7.072  0.8349  0.8844 -1.0953
  823MOL0     H11101  11.991   9.002   7.266 -2.8701 -1.7933 -1.3377
  823MOL0     H11102  12.010   9.130   7.145 -1.5160 -0.3674  0.7142
  823MOL0     H11103  12.407   9.029   7.135  0.2756  0.2226  1.4474
  823MOL0     H11104  11.582   9.152   6.957 -0.8515  0.6324 -0.4141
  823MOL0     H11105  11.371   9.260   6.969 -4.3923  0.4209  0.7947
  824MOL0     O11106   2.951   2.656   5.698 -0.6096  0.0966  0.7970
  824MOL0     C11107   3.050   2.602   5.639 -0.4277  1.1317  0.3389
  824MOL0     O11108   3.039   2.528   5.516 -0.3064  0.1013  0.1330
  824MOL0     C11109   2.924   2.541   5.450 -0.4650 -0.0563  0.3925
  824MOL0     C11110   2.904   2.676   5.393  0.2814  0.1793 -0.8471
  824MOL0     C11111   2.793   2.700   5.311  0.1218  0.0523  0.6441
  824MOL0     C11112   2.697   2.599   5.291  1.1355 -0.5625  0.5149
  824MOL0     O11113   2.601   2.621   5.194 -0.3881  0.3769 -0.0891
  824MOL0     C11114   2.473   2.607   5.242  0.0007  0.2964 -0.5984
  824MOL0     C11115   2.374   2.606   5.124  0.3398  0.2018  0.4800
  824MOL0     C11116   2.233   2.586   5.173 -0.2883 -0.4870  0.3466
  824MOL0     C11117   2.135   2.584   5.052  0.5531  0.7238 -0.5898
  824MOL0     C11118   1.990   2.569   5.110 -0.7052 -0.0485  0.1114
  824MOL0     C11119   1.930   2.422   5.121 -0.4556 -1.1273  0.0968
  824MOL0     C11120   1.780   2.439   5.152 -0.4422  0.3880  0.8307
  824MOL0     C11121   1.697   2.315   5.135  0.6505  0.8780 -0.0331
  824MOL0     N11122   1.564   2.346   5.187  0.9520  0.0892  0.6856
  824MOL0     C11123   1.464   2.387   5.105 -0.0271  0.1742  0.7753
  824MOL0     C11124   1.347   2.360   5.172  0.1151 -0.5156  0.7947
  824MOL0     C11125   1.208   2.385   5.130  1.0180  1.3775  0.1174
  824MOL0     C11126   1.174   2.494   5.030 -1.2696 -0.6581 -0.5392
  824MOL0     C11127   1.225   2.623   5.086  0.5791 -0.3632  0.2945
  824MOL0     C11128   1.148   2.732   5.027 -0.4715  0.4713  0.3224
  824MOL0     O11129   1.232   2.847   5.041  0.6072 -0.0654 -0.8474
  824MOL0     C11130   1.175   2.969   5.006 -0.1524 -0.7849  0.0034
  824MOL0     C11131   1.229   3.084   5.054 -0.2900  0.0126 -0.3497
  824MOL0     C11132   1.183   3.212   5.014 -0.3123 -0.0643 -0.0735
  824MOL0     C11133   1.238   3.337   5.086 -0.0818 -0.2185  0.0234
  824MOL0     C11134   1.096   3.229   4.901  0.5726  0.4179 -0.1273
  824MOL0     C11135   1.050   3.351   4.821 -0.1846 -0.5482 -0.3320
  824MOL0     O11136   1.083   3.473   4.873 -0.1799  0.4411  0.0505
  824MOL0     C11137   1.085   3.574   4.782 -1.0294  0.9152  0.4025
  824MOL0     C11138   0.969   3.629   4.718 -0.7264  0.0298 -0.3340
  824MOL0     C11139   0.977   3.737   4.635  0.2660  0.5870 -0.0568
  824MOL0     C11140   1.098   3.795   4.596 -0.2344 -0.4122 -0.8237
  824MOL0     O11141   1.088   3.901   4.514  0.6433  0.9060  0.0710
  824MOL0     C11142   1.214   3.964   4.466  0.4652 -0.3334  0.5398
  824MOL0     C11143   1.179   4.050   4.351  0.2006  0.0805 -0.8048
  824MOL0     C11144   1.302   4.131   4.304  0.1672 -0.5368 -0.1890
  824MOL0     C11145   1.278   4.195   4.170 -0.4646  0.5970  0.4252
  824MOL0     C11146   1.411   4.248   4.119 -0.5965  0.3026 -0.9515
  824MOL0     C11147   1.479   4.364   4.187  0.4179  0.9659  0.4262
  824MOL0     C11148   1.380   4.483   4.185 -0.9690  0.0266 -0.3762
  824MOL0     C11149   1.437   4.609   4.246  0.9052 -0.9025 -0.0292
  824MOL0    Cl11150   1.324   4.747   4.223 -0.0444  0.3373  0.0960
  824MOL0     C11151   1.214   3.740   4.657 -0.2440 -0.7602  0.3331
  824MOL0     C11152   1.209   3.629   4.750  0.5974 -0.0751 -0.0450
  824MOL0     O11153   0.993   3.332   4.713 -0.8271  0.5317  0.5518
  824MOL0     C11154   1.034   3.102   4.856 -0.6358  0.1244  0.1772
  824MOL0     C11155   1.072   2.977   4.904 -0.2209  0.2249 -0.5474
  824MOL0     N11156   1.386   2.314   5.302  0.3660  0.0330  0.0654
  824MOL0     N11157   1.512   2.300   5.300  0.5160 -0.1496  0.0900
  824MOL0     C11158   2.720   2.467   5.342  0.4746  0.2578 -0.0100
  824MOL0     C11159   2.833   2.443   5.421  0.6323  0.5708  0.5838
  824MOL0     C11160   3.184   2.601   5.700 -0.2173 -1.7076  1.0157
  824MOL0     C11161   3.205   2.685   5.807 -0.5648 -0.7205  0.1550
  824MOL0     C11162   3.332   2.680   5.882  0.1527  0.5440 -0.3532
  824MOL0     C11163   3.443   2.624   5.827 -0.0353 -0.1873  0.1387
  824MOL0     O11164   3.562   2.640   5.892 -0.2468  0.6055 -0.3062
  824MOL0     C11165   3.672   2.554   5.864  0.6087  0.2616  0.8857
  824MOL0     C11166   3.664   2.417   5.931  0.6553  0.0858 -0.2654
  824MOL0     C11167   3.801   2.354   5.935 -0.3615 -0.3255 -0.2226
  824MOL0     C11168   3.806   2.222   6.009 -0.1779 -0.3074  0.1843
  824MOL0     C11169   3.783   2.228   6.151  0.1053 -0.1312  0.2653
  824MOL0     C11170   3.783   2.265   6.264  0.2482  0.7140  0.1797
  824MOL0     C11171   3.427   2.543   5.711  0.5894 -0.0825  0.4656
  824MOL0     C11172   3.300   2.533   5.642  0.3052  1.0834 -0.7868
  824MOL0     H11173   2.976   2.754   5.414  2.1249 -2.0682  2.1583
  824MOL0     H11174   2.768   2.794   5.263 -0.8408 -1.2258 -1.5237
  824MOL0     H11175   2.452   2.513   5.293 -0.5718 -1.9695 -4.6231
  824MOL0     H11176   2.450   2.692   5.308  0.7651 -0.3392  0.5147
  824MOL0     H11177   2.390   2.705   5.079  1.3939 -0.6736 -1.1431
  824MOL0     H11178   2.393   2.535   5.044 -1.9850 -0.0608  0.0711
  824MOL0     H11179   2.226   2.489   5.223  1.3802  0.6048  2.8792
  824MOL0     H11180   2.214   2.669   5.241  0.1661 -1.0280  1.1422
  824MOL0     H11181   2.145   2.677   4.996  1.3201  1.3869  0.6120
  824MOL0     H11182   2.165   2.500   4.989  1.6480 -1.0068  2.0607
  824MOL0     H11183   1.983   2.627   5.203 -0.8860  0.8341 -0.4450
  824MOL0     H11184   1.930   2.615   5.031 -0.1732 -0.7344 -0.7152
  824MOL0     H11185   1.938   2.370   5.026  1.3669 -2.7597  1.0705
  824MOL0     H11186   1.990   2.358   5.188  0.8126 -1.7555 -1.5690
  824MOL0     H11187   1.768   2.484   5.250 -2.3142  0.2761  0.6825
  824MOL0     H11188   1.734   2.513   5.085 -0.2731 -1.2296 -1.1675
  824MOL0     H11189   1.744   2.242   5.201 -1.1492  1.5256  2.0551
  824MOL0     H11190   1.698   2.280   5.031  0.9558 -1.6631  0.7544
  824MOL0     H11191   1.476   2.418   5.002 -1.5515 -1.7750 -0.0423
  824MOL0     H11192   1.184   2.286   5.090  1.1626  1.7719 -0.9640
  824MOL0     H11193   1.150   2.396   5.222  3.1331 -0.0677  1.7383
  824MOL0     H11194   1.065   2.491   5.017 -1.3616 -4.2082  0.1746
  824MOL0     H11195   1.222   2.481   4.932  0.9963  1.5407  0.1541
  824MOL0     H11196   1.327   2.640   5.053  0.1891 -0.7496 -1.1672
  824MOL0     H11197   1.229   2.620   5.196  0.4018 -2.7659  0.2769
  824MOL0     H11198   1.046   2.733   5.068 -2.2639 -5.3443 -2.7233
  824MOL0     H11199   1.133   2.731   4.918 -3.9366  0.2602  0.6927
  824MOL0     H11200   1.310   3.077   5.125  2.6356  1.1301 -3.3015
  824MOL0     H11201   1.277   3.403   5.009  1.1269 -3.2711 -2.2099
  824MOL0     H11202   1.158   3.387   5.141 -1.2937  1.4549 -3.0197
  824MOL0     H11203   1.321   3.317   5.155  0.9157  0.7113 -0.8783
  824MOL0     H11204   0.873   3.585   4.743  0.4475 -1.6629  1.3810
  824MOL0     H11205   0.881   3.772   4.599 -1.8045 -3.0987  1.2836
  824MOL0     H11206   1.252   4.031   4.544  1.4162  0.5148 -0.6082
  824MOL0     H11207   1.294   3.898   4.431 -0.1184 -1.0339  0.5101
  824MOL0     H11208   1.147   3.988   4.267  3.4282 -2.9664 -0.0518
  824MOL0     H11209   1.106   4.121   4.393 -0.4659 -1.7603  1.3866
  824MOL0     H11210   1.387   4.064   4.289 -0.0939 -0.7069 -0.9807
  824MOL0     H11211   1.327   4.201   4.385 -1.2762 -2.1725  1.7879
  824MOL0     H11212   1.254   4.116   4.097 -1.3603  0.2868  1.0347
  824MOL0     H11213   1.201   4.272   4.181 -0.8627 -0.0143  2.2524
  824MOL0     H11214   1.401   4.276   4.014  0.4896 -0.6263 -1.3374
  824MOL0     H11215   1.485   4.167   4.117 -1.6737 -0.6998 -3.3422
  824MOL0     H11216   1.509   4.339   4.289 -1.4283  1.7164  1.1965
  824MOL0     H11217   1.573   4.398   4.143  0.4685 -1.0494 -1.1911
  824MOL0     H11218   1.301   4.463   4.258 -1.7563 -0.4580 -1.3321
  824MOL0     H11219   1.353   4.496   4.080  0.5605 -2.1273 -1.1162
  824MOL0     H11220   1.536   4.626   4.201  1.3336 -0.6271  0.9816
  824MOL0     H11221   1.436   4.598   4.355  2.7766  2.7957  0.5204
  824MOL0     H11222   1.307   3.784   4.624 -0.2030  0.3663  1.8597
  824MOL0     H11223   1.292   3.591   4.808 -0.1649 -4.8788 -1.6739
  824MOL0     H11224   0.961   3.094   4.776  3.2075 -0.7499 -3.6371
  824MOL0     H11225   1.029   2.885   4.866  4.9559 -2.1017 -1.7581
  824MOL0     H11226   2.653   2.382   5.330 -0.6988  1.1350  0.1402
  824MOL0     H11227   2.853   2.346   5.466  1.6333  0.3135 -0.3789
  824MOL0     H11228   3.137   2.763   5.839 -1.1802 -2.0106  2.1891
  824MOL0     H11229   3.353   2.732   5.975  1.4492 -0.1749 -0.2230
  824MOL0     H11230   3.688   2.544   5.756 -1.0015  1.6299  0.4838
  824MOL0     H11231   3.759   2.613   5.895  0.5176  0.7050  0.3056
  824MOL0     H11232   3.591   2.355   5.878 -0.7078 -0.1845  1.8205
  824MOL0     H11233   3.626   2.428   6.033  0.4607  0.7422 -0.4027
  824MOL0     H11234   3.869   2.421   5.988 -3.0874 -0.0051  3.2489
  824MOL0     H11235   3.832   2.334   5.832  4.0949 -1.5267  1.1455
  824MOL0     H11236   3.904   2.183   5.978  0.9573  1.6570  1.0720
  824MOL0     H11237   3.726   2.157   5.973 -1.2028 -0.1456  2.0552
  824MOL0     H11238   3.789   2.304   6.364 -1.3149 -0.8163  0.9213
  824MOL0     H11239   3.500   2.470   5.679  1.0676  0.9474 -0.8643
  824MOL0     H11240   3.293   2.477   5.549  2.8802 -0.5925 -0.0667
  825MOL0     O11241  11.153  11.083   6.149 -0.4027  0.6110 -0.2609
  825MOL0     C11242  11.160  11.121   6.035  0.5591 -0.1358  0.4886
  825MOL0     O11243  11.042  11.168   5.964  0.3659  0.2074  0.1993
  825MOL0     C11244  10.926  11.211   6.016 -0.5985 -0.3691  0.0031
  825MOL0     C11245  10.919  11.263   6.142  0.4133 -0.2755  0.9259
  825MOL0     C11246  10.791  11.286   6.194 -0.3060 -0.8715 -0.0635
  825MOL0     C11247  10.669  11.270   6.123  0.0080 -0.0641  0.6165
  825MOL0     O11248  10.539  11.289   6.167 -0.1295 -0.3771 -0.1708
  825MOL0     C11249  10.519  11.385   6.273 -0.1737  0.0715 -0.3477
  825MOL0     C11250  10.373  11.427   6.273 -0.0913 -0.1030 -1.1410
  825MOL0     C11251  10.342  11.538   6.374  0.2791 -0.3038 -0.3189
  825MOL0     C11252  10.213  11.616   6.350  0.0628 -0.1855 -0.2596
  825MOL0     C11253  10.133  11.651   6.483 -1.0750 -0.4517  0.6720
  825MOL0     C11254  10.010  11.734   6.442 -0.8020 -0.7894 -0.8648
  825MOL0     C11255   9.959  11.807   6.570 -0.2588  0.0909  0.1781
  825MOL0     C11256   9.830  11.870   6.535  0.7503 -0.2391  0.7655
  825MOL0     N11257   9.780  11.957   6.645 -0.2087 -0.1901  0.7934
  825MOL0     C11258   9.750  11.917   6.775 -0.7462 -0.1290  0.3752
  825MOL0     C11259   9.704  12.023   6.833  0.4625 -0.2087  0.4554
  825MOL0     C11260   9.669  12.033   6.971  0.2734 -0.5027  0.4712
  825MOL0     C11261   9.534  11.980   7.013  0.1288 -0.3684 -0.2239
  825MOL0     C11262   9.417  12.036   6.925 -0.3130 -0.2721 -0.3492
  825MOL0     C11263   9.398  12.195   6.926 -0.7154  0.0727  0.2378
  825MOL0     O11264   9.325  12.244   6.815 -0.5831  0.4299  1.3692
  825MOL0     C11265   9.185  12.239   6.811 -1.0242  0.1571 -0.4763
  825MOL0     C11266   9.118  12.240   6.691 -0.8140  0.5363  0.3901
  825MOL0     C11267   8.975  12.235   6.670 -0.9317 -0.3792  0.5160
  825MOL0     C11268   8.918  12.245   6.530 -1.2424 -0.5334  0.2328
  825MOL0     C11269   8.900  12.201   6.784  0.0552  0.0354  0.1858
  825MOL0     C11270   8.753  12.176   6.788 -0.1512  0.1500  1.2037
  825MOL0     O11271   8.700  12.100   6.892  1.3321  0.1521 -0.1311
  825MOL0     C11272   8.563  12.088   6.915  0.1954 -0.1454  0.3391
  825MOL0     C11273   8.467  12.190   6.885 -0.0162  1.4905 -0.0911
  825MOL0     C11274   8.330  12.174   6.907  0.4034 -0.1292 -0.3871
  825MOL0     C11275   8.281  12.077   6.990  0.2002  0.6779 -0.5576
  825MOL0     O11276   8.150  12.092   7.037  0.3432  0.0239  0.4270
  825MOL0     C11277   8.103  11.986   7.113 -0.3289  0.5813 -0.4075
  825MOL0     C11278   7.951  12.005   7.122 -0.3834  0.2999 -0.2485
  825MOL0     C11279   7.876  11.993   6.984 -0.6017  0.3358 -0.2843
  825MOL0     C11280   7.729  11.936   7.007  0.1416  0.0511  1.1262
  825MOL0     C11281   7.650  11.910   6.875 -0.4388 -0.6624 -0.4487
  825MOL0     C11282   7.625  12.038   6.796 -0.3804 -0.7686  0.3650
  825MOL0     C11283   7.549  12.001   6.662  0.3781 -1.2893 -0.0488
  825MOL0     C11284   7.401  12.030   6.667  0.5661  0.6976 -0.2642
  825MOL0    Cl11285   7.317  11.958   6.525 -0.1445 -0.1301 -0.0488
  825MOL0     C11286   8.376  11.975   7.023  0.6195  0.4291 -0.1410
  825MOL0     C11287   8.507  11.973   6.981  0.7273  0.0452 -0.7122
  825MOL0     O11288   8.689  12.238   6.703  0.1562  0.2637 -0.4819
  825MOL0     C11289   8.963  12.193   6.909  0.3840  0.1570  0.2784
  825MOL0     C11290   9.104  12.200   6.919  0.0114  0.0888  0.7098
  825MOL0     N11291   9.700  12.133   6.742 -0.1206 -0.0686  0.5140
  825MOL0     N11292   9.742  12.090   6.625  0.3076  0.7607 -0.9238
  825MOL0     C11293  10.684  11.216   5.999 -0.8571  0.2987  0.5491
  825MOL0     C11294  10.811  11.205   5.934 -0.3786  1.1784  0.1437
  825MOL0     C11295  11.280  11.095   5.956  0.6986 -0.0175 -0.2963
  825MOL0     C11296  11.391  11.030   6.002 -0.7680  0.5379  0.1255
  825MOL0     C11297  11.495  10.999   5.918  0.0104  0.6434  0.5522
  825MOL0     C11298  11.492  11.018   5.783 -0.2118 -0.5019  0.3926
  825MOL0     O11299  11.592  10.994   5.698 -0.3572 -0.1662  0.2148
  825MOL0     C11300  11.715  11.039   5.743 -0.7337 -0.4726  0.1146
  825MOL0     C11301  11.808  11.068   5.617 -0.7024  0.7417  0.1400
  825MOL0     C11302  11.954  11.095   5.656 -0.2315  0.2495  0.5582
  825MOL0     C11303  11.973  11.219   5.748 -0.0819  0.6452 -0.5516
  825MOL0     C11304  11.956  11.177   5.887 -0.4761 -0.9257  0.5816
  825MOL0     C11305  11.930  11.138   6.002 -0.6226  0.3027 -0.6307
  825MOL0     C11306  11.372  11.070   5.729  0.1418 -0.1851  0.2228
  825MOL0     C11307  11.267  11.118   5.813  0.3767  0.6054  0.3096
  825MOL0     H11308  11.009  11.271   6.202  1.1231  0.1644 -0.1711
  825MOL0     H11309  10.797  11.317   6.298 -1.1833  3.9455 -1.2094
  825MOL0     H11310  10.540  11.353   6.376 -0.5798  2.4560  0.5379
  825MOL0     H11311  10.586  11.469   6.252 -0.8444  0.3308 -1.5499
  825MOL0     H11312  10.347  11.466   6.174 -0.5443 -1.1450 -1.4492
  825MOL0     H11313  10.311  11.339   6.294 -0.2999  0.8255  2.9143
  825MOL0     H11314  10.330  11.487   6.469 -0.3182 -0.1969 -0.3343
  825MOL0     H11315  10.433  11.596   6.392  1.5221 -3.2550  4.6113
  825MOL0     H11316  10.230  11.708   6.293  1.9821 -0.8718 -0.8627
  825MOL0     H11317  10.146  11.548   6.297  2.2515 -3.0671  0.3868
  825MOL0     H11318  10.119  11.557   6.537  0.0852 -1.3676 -0.5258
  825MOL0     H11319  10.204  11.703   6.549  0.8662  0.1479 -1.7313
  825MOL0     H11320  10.041  11.815   6.375  1.0981  2.6001  3.5847
  825MOL0     H11321   9.927  11.685   6.392 -1.1449  0.7980 -1.9239
  825MOL0     H11322   9.943  11.732   6.648 -0.5702 -1.1261 -1.0117
  825MOL0     H11323  10.027  11.892   6.584 -1.6950  1.8525 -2.6358
  825MOL0     H11324   9.761  11.788   6.515  1.5718 -0.4306 -1.4608
  825MOL0     H11325   9.848  11.930   6.445 -0.4937  0.3758  0.9015
  825MOL0     H11326   9.753  11.821   6.825 -0.9736 -0.4085 -0.1312
  825MOL0     H11327   9.748  11.977   7.022  1.5566 -0.1495 -1.0374
  825MOL0     H11328   9.676  12.139   6.998  0.8071 -0.1353 -1.0091
  825MOL0     H11329   9.526  12.011   7.118 -2.3093 -0.0280 -0.4447
  825MOL0     H11330   9.535  11.871   7.012  0.2698 -0.3703  0.0005
  825MOL0     H11331   9.320  11.996   6.956 -0.9861  0.7887 -1.0456
  825MOL0     H11332   9.441  12.002   6.824  2.1297  0.9173 -0.2379
  825MOL0     H11333   9.497  12.242   6.925 -1.5984  2.0581  0.9663
  825MOL0     H11334   9.347  12.224   7.018 -1.3930 -1.0449  0.2294
  825MOL0     H11335   9.178  12.264   6.604 -3.5328  2.6933 -1.0617
  825MOL0     H11336   8.849  12.162   6.512 -1.2923 -0.8557  1.7503
  825MOL0     H11337   8.875  12.343   6.509 -0.3864 -0.5525 -1.8813
  825MOL0     H11338   9.001  12.242   6.459 -0.6406  0.7134  0.8490
  825MOL0     H11339   8.509  12.279   6.840  0.5272  1.0663 -0.4372
  825MOL0     H11340   8.272  12.260   6.876  3.5836  3.0632  1.7952
  825MOL0     H11341   8.133  11.888   7.074 -0.2080  1.3934 -2.4919
  825MOL0     H11342   8.138  11.994   7.216 -1.6844 -0.4655  0.1595
  825MOL0     H11343   7.916  11.927   7.190  2.2603 -1.4658 -0.7782
  825MOL0     H11344   7.928  12.097   7.176  1.3134  2.3771 -2.7814
  825MOL0     H11345   7.929  11.926   6.915 -0.3922  1.9050 -1.7144
  825MOL0     H11346   7.871  12.096   6.946  1.2636  1.8824  3.2014
  825MOL0     H11347   7.738  11.838   7.055 -0.3068 -1.2422 -1.2708
  825MOL0     H11348   7.665  12.002   7.067  0.8114  1.7382  0.0205
  825MOL0     H11349   7.563  11.853   6.909 -0.9785  0.6672  0.4574
  825MOL0     H11350   7.713  11.855   6.804  1.4335 -0.6338  1.1199
  825MOL0     H11351   7.550  12.101   6.845 -1.1216 -0.8082 -0.6755
  825MOL0     H11352   7.717  12.097   6.793  0.9060 -2.7256  0.1540
  825MOL0     H11353   7.546  11.892   6.655  0.5403 -1.6803  3.7205
  825MOL0     H11354   7.586  12.038   6.566  0.2222  0.1284  0.4178
  825MOL0     H11355   7.383  12.138   6.662  2.7604  1.0833 -1.3892
  825MOL0     H11356   7.364  11.993   6.763  1.9361  1.9695  0.8041
  825MOL0     H11357   8.341  11.892   7.084 -0.0687  0.4120 -0.5535
  825MOL0     H11358   8.588  11.905   7.004  1.6526  0.2870 -2.9875
  825MOL0     H11359   8.905  12.162   6.996 -1.9398 -1.5521 -1.7351
  825MOL0     H11360   9.135  12.176   7.020 -2.5432 -4.4487  0.6595
  825MOL0     H11361  10.598  11.193   5.937  0.3107 -3.4029  0.0461
  825MOL0     H11362  10.814  11.174   5.830  1.1255 -0.4563  0.6345
  825MOL0     H11363  11.396  11.001   6.107  0.5762 -0.4868 -0.1973
  825MOL0     H11364  11.591  10.959   5.950  0.6979  1.2038 -0.7158
  825MOL0     H11365  11.706  11.133   5.799  1.3989  0.7309 -1.4327
  825MOL0     H11366  11.754  10.958   5.806 -2.4579 -1.9324 -0.6109
  825MOL0     H11367  11.768  11.154   5.561 -2.0256 -0.1400 -0.3172
  825MOL0     H11368  11.801  10.981   5.552 -1.3884  0.3772  0.6870
  825MOL0     H11369  12.013  11.119   5.567  1.5993  0.7803  1.8517
  825MOL0     H11370  11.996  11.007   5.706 -0.1241  0.9475  1.7364
  825MOL0     H11371  11.907  11.300   5.717  0.8701  0.7188 -2.5469
  825MOL0     H11372  12.076  11.250   5.730 -1.2304  4.8649 -0.8609
  825MOL0     H11373  11.928  11.107   6.104  0.5288 -2.5051 -1.3578
  825MOL0     H11374  11.366  11.096   5.623  0.1994  3.7809  1.0394
  825MOL0     H11375  11.180  11.177   5.785 -0.4751 -1.7821 -2.5865
  826MOL0     O11376   4.464   1.974   8.796  0.2652 -0.3056  0.1649
  826MOL0     C11377   4.534   1.887   8.751 -1.0154 -0.2142  0.1003
  826MOL0     O11378   4.529   1.755   8.782 -0.0587  0.3435  0.7292
  826MOL0     C11379   4.445   1.694   8.868  0.0021  0.0831  0.5218
  826MOL0     C11380   4.309   1.735   8.881  0.3886 -0.0082 -0.2493
  826MOL0     C11381   4.236   1.693   8.988 -0.0306  0.8627  0.1412
  826MOL0     C11382   4.281   1.592   9.072 -0.7430 -1.4979  0.0624
  826MOL0     O11383   4.209   1.539   9.176  1.1458 -0.6487 -0.6868
  826MOL0     C11384   4.066   1.540   9.171  0.1319  0.4023  0.1962
  826MOL0     C11385   4.013   1.429   9.247  0.3360  0.3601 -0.0847
  826MOL0     C11386   3.857   1.411   9.242  0.4311  0.2677 -0.1203
  826MOL0     C11387   3.819   1.282   9.323 -0.2102  0.2473  1.2152
  826MOL0     C11388   3.670   1.243   9.301 -0.6892  0.3248 -1.2539
  826MOL0     C11389   3.648   1.089   9.294  0.1762  0.2261 -0.2652
  826MOL0     C11390   3.497   1.064   9.306 -0.8900  0.0256  0.3122
  826MOL0     C11391   3.466   0.935   9.235  0.1656  0.2478 -0.2761
  826MOL0     N11392   3.327   0.899   9.279 -0.2038  0.7187  0.4879
  826MOL0     C11393   3.223   0.992   9.275 -1.0465 -0.1771 -0.6112
  826MOL0     C11394   3.123   0.938   9.348 -0.1972  0.1846  0.0798
  826MOL0     C11395   3.000   1.011   9.380  0.7839 -0.4906 -0.3164
  826MOL0     C11396   2.953   0.991   9.531 -0.1802  0.0816 -0.1558
  826MOL0     C11397   3.058   1.058   9.625  0.8833 -0.9958  0.5193
  826MOL0     C11398   3.029   1.205   9.648  0.7745  0.5451 -0.5832
  826MOL0     O11399   3.111   1.261   9.756 -0.1511  0.1934  0.0690
  826MOL0     C11400   3.220   1.332   9.721  1.3090  0.9502 -0.2342
  826MOL0     C11401   3.218   1.471   9.716 -0.2784  0.1203 -0.0845
  826MOL0     C11402   3.322   1.543   9.658 -0.6778 -0.2563  0.0975
  826MOL0     C11403   3.303   1.693   9.655  0.5067 -0.4421  0.0480
  826MOL0     C11404   3.429   1.466   9.603  0.1231  0.4950  0.2688
  826MOL0     C11405   3.529   1.533   9.535 -0.8821 -0.5810  0.3759
  826MOL0     O11406   3.500   1.624   9.441  0.9228 -0.1106 -0.6613
  826MOL0     C11407   3.601   1.707   9.394  0.7161 -0.4150  0.5519
  826MOL0     C11408   3.642   1.697   9.260  0.1291  0.3243 -0.4478
  826MOL0     C11409   3.744   1.771   9.204 -0.4514 -0.6478  0.5848
  826MOL0     C11410   3.819   1.858   9.285  0.2330 -0.4761 -0.1877
  826MOL0     O11411   3.920   1.928   9.231 -0.1871 -0.1201 -0.8032
  826MOL0     C11412   4.038   1.940   9.315 -0.4269  0.3300  0.4303
  826MOL0     C11413   4.170   1.931   9.220  0.7227 -0.2924  0.2383
  826MOL0     C11414   4.293   1.982   9.282 -0.7496  0.6378 -0.2774
  826MOL0     C11415   4.402   1.992   9.163 -0.2547  0.5791  0.3092
  826MOL0     C11416   4.535   2.063   9.198 -0.5948 -0.1453 -0.5604
  826MOL0     C11417   4.619   2.104   9.076  0.1417  0.1311  0.6726
  826MOL0     C11418   4.728   2.204   9.114  0.0360 -0.3664  0.2482
  826MOL0     C11419   4.824   2.157   9.226  1.0996  0.5927  0.0243
  826MOL0    Cl11420   4.905   2.008   9.166 -0.3284 -0.1693  0.1844
  826MOL0     C11421   3.778   1.883   9.413  0.3110  0.3953  0.4920
  826MOL0     C11422   3.674   1.801   9.471  0.7469  0.0702  0.1579
  826MOL0     O11423   3.647   1.518   9.566  0.0820  0.4671  0.1038
  826MOL0     C11424   3.431   1.333   9.623  0.2509  0.3368  0.2703
  826MOL0     C11425   3.328   1.265   9.679 -0.2951  0.0347 -0.4475
  826MOL0     N11426   3.167   0.814   9.387  0.0678  0.2517  0.3970
  826MOL0     N11427   3.289   0.787   9.342  0.5009  0.8112 -0.5061
  826MOL0     C11428   4.410   1.539   9.047  0.0242  0.4831  0.2667
  826MOL0     C11429   4.497   1.588   8.944  0.1753 -0.0883  0.8528
  826MOL0     C11430   4.644   1.932   8.664  0.2518 -0.2576  0.5961
  826MOL0     C11431   4.663   2.069   8.637 -0.5336  0.4380  0.8930
  826MOL0     C11432   4.772   2.110   8.558 -0.1219 -0.2755  0.0765
  826MOL0     C11433   4.867   2.021   8.496 -0.2565  0.1766 -1.1295
  826MOL0     O11434   4.973   2.076   8.437  0.5046  0.1466 -0.5777
  826MOL0     C11435   5.042   1.999   8.335 -0.4776  0.6342  0.4329
  826MOL0     C11436   5.129   2.085   8.241  0.7861  0.0439 -0.9446
  826MOL0     C11437   5.253   2.008   8.201 -0.3519  1.1114  0.3642
  826MOL0     C11438   5.325   2.065   8.084 -0.1587 -0.2065  0.0003
  826MOL0     C11439   5.446   1.992   8.044 -1.3967 -0.7622  0.0132
  826MOL0     C11440   5.555   1.938   8.005  0.2595  0.2575  0.2822
  826MOL0     C11441   4.841   1.886   8.513 -0.2266  0.1926  0.2107
  826MOL0     C11442   4.732   1.838   8.598 -0.5991 -0.1460 -0.0448
  826MOL0     H11443   4.274   1.820   8.823  2.0137 -1.4921 -3.6711
  826MOL0     H11444   4.136   1.732   9.006 -0.4206 -0.3341  0.6463
  826MOL0     H11445   4.031   1.632   9.219 -0.6891  0.1278  0.1228
  826MOL0     H11446   4.027   1.532   9.069  0.7025 -0.3368  0.0226
  826MOL0     H11447   4.067   1.337   9.224  0.9378  0.2129  1.7675
  826MOL0     H11448   4.032   1.452   9.352  0.3936 -1.1549  0.2670
  826MOL0     H11449   3.805   1.494   9.291  1.6330 -0.0449  1.8083
  826MOL0     H11450   3.836   1.394   9.136 -0.2154 -4.1165  0.5188
  826MOL0     H11451   3.891   1.206   9.291  0.7206  1.1623  1.0815
  826MOL0     H11452   3.849   1.302   9.426  0.0255 -1.1304  1.4308
  826MOL0     H11453   3.622   1.286   9.390 -2.8230 -0.9095 -1.7477
  826MOL0     H11454   3.622   1.289   9.214 -2.4238 -1.3707 -1.2534
  826MOL0     H11455   3.679   1.050   9.197 -1.2945  2.6563 -1.7945
  826MOL0     H11456   3.685   1.037   9.384 -3.9727  0.5332  1.8715
  826MOL0     H11457   3.465   1.060   9.411 -0.2212  0.7393  0.5541
  826MOL0     H11458   3.436   1.145   9.264 -2.3861 -1.0483  0.3491
  826MOL0     H11459   3.514   0.840   9.257 -2.6403 -0.6526  2.8347
  826MOL0     H11460   3.459   0.960   9.129  1.6324  0.9156 -0.2400
  826MOL0     H11461   3.247   1.083   9.221  0.7946  0.1453  0.6480
  826MOL0     H11462   3.025   1.117   9.369 -0.0861  0.1037  2.5942
  826MOL0     H11463   2.916   0.985   9.315 -1.2011  0.6718  1.6679
  826MOL0     H11464   2.933   0.887   9.559 -0.0904  0.5192  1.6569
  826MOL0     H11465   2.858   1.046   9.533 -1.2603 -1.6116 -1.4250
  826MOL0     H11466   3.164   1.048   9.602  1.0263 -1.4408  1.3455
  826MOL0     H11467   3.049   1.008   9.722  0.8301  0.2600  1.1819
  826MOL0     H11468   2.924   1.215   9.677  0.3219  1.0704 -2.2495
  826MOL0     H11469   3.052   1.266   9.560  3.2790  0.1677 -0.2729
  826MOL0     H11470   3.126   1.515   9.752  0.9433  1.4951  1.4922
  826MOL0     H11471   3.239   1.723   9.571 -1.4695 -2.6571  0.6575
  826MOL0     H11472   3.260   1.737   9.745  1.0335  4.3473 -1.7176
  826MOL0     H11473   3.404   1.734   9.640  1.9493 -3.9877 -0.9371
  826MOL0     H11474   3.593   1.614   9.210  0.2930 -0.5699  0.8240
  826MOL0     H11475   3.762   1.756   9.098 -3.4232  0.6924 -0.2388
  826MOL0     H11476   4.037   2.042   9.354 -1.8226  0.8694 -0.9613
  826MOL0     H11477   4.048   1.862   9.391  0.9175  0.3263  0.2654
  826MOL0     H11478   4.188   1.824   9.219 -2.0361 -0.8491 -0.0610
  826MOL0     H11479   4.152   1.989   9.129 -0.6593 -2.1946 -0.7741
  826MOL0     H11480   4.317   1.913   9.364  1.2389  2.4168  0.7376
  826MOL0     H11481   4.281   2.083   9.320  2.3744  0.1577  2.5244
  826MOL0     H11482   4.427   1.895   9.120  1.2101  1.0962 -0.0533
  826MOL0     H11483   4.358   2.060   9.090 -0.7127  2.4053  2.1749
  826MOL0     H11484   4.599   2.015   9.272 -0.8068 -1.2557 -1.0756
  826MOL0     H11485   4.513   2.161   9.242  0.3422  0.3654 -1.1829
  826MOL0     H11486   4.668   2.020   9.026  1.7693 -0.1079  2.5462
  826MOL0     H11487   4.551   2.140   8.999  0.6509  1.9062  1.0171
  826MOL0     H11488   4.681   2.297   9.146 -2.6572 -1.6409  0.2665
  826MOL0     H11489   4.794   2.234   9.032 -0.3060 -0.2401  0.0174
  826MOL0     H11490   4.778   2.142   9.325  2.8100  0.1570  0.7935
  826MOL0     H11491   4.891   2.242   9.241 -1.2705  2.5456  0.2778
  826MOL0     H11492   3.832   1.959   9.467  2.7549 -1.0814  0.2635
  826MOL0     H11493   3.652   1.816   9.576  0.3725 -1.9328  0.3933
  826MOL0     H11494   3.509   1.268   9.584  0.2531 -0.2308  1.1973
  826MOL0     H11495   3.332   1.157   9.688 -0.3875  0.1165  0.7362
  826MOL0     H11496   4.439   1.460   9.116  1.1609 -0.2841 -1.0511
  826MOL0     H11497   4.601   1.569   8.923 -0.2168 -2.6306  0.9412
  826MOL0     H11498   4.589   2.140   8.672 -0.3976  0.2073  1.6882
  826MOL0     H11499   4.790   2.217   8.549 -1.2776 -0.0109  0.7350
  826MOL0     H11500   5.103   1.923   8.385  0.0539  1.3104  0.8365
  826MOL0     H11501   4.969   1.942   8.277  0.3152  1.3572 -1.3414
  826MOL0     H11502   5.158   2.171   8.302 -0.4874 -1.6137  2.2787
  826MOL0     H11503   5.065   2.121   8.160 -2.5544 -1.2496  0.8764
  826MOL0     H11504   5.224   1.906   8.173 -1.5486  2.0085 -1.9822
  826MOL0     H11505   5.317   2.015   8.289  0.1664  1.2322 -0.0188
  826MOL0     H11506   5.363   2.163   8.113 -1.5500  0.3693 -0.0923
  826MOL0     H11507   5.265   2.062   7.993 -2.1918  1.4058  1.2287
  826MOL0     H11508   5.643   1.880   7.985  1.2672  1.8423 -0.0794
  826MOL0     H11509   4.897   1.807   8.465 -0.4734 -0.3584  0.8127
  826MOL0     H11510   4.721   1.730   8.612  0.3214 -0.1241  1.0482
  827MOL0     O11511  10.986   1.399   0.408 -0.3387  0.6783 -0.0124
  827MOL0     C11512  11.012   1.496   0.480 -0.5438  0.4193 -0.1800
  827MOL0     O11513  10.936   1.600   0.492  0.2680  0.3669 -1.1977
  827MOL0     C11514  10.832   1.625   0.407 -0.1078  0.1085 -0.5326
  827MOL0     C11515  10.807   1.575   0.275  1.2491  0.3878 -0.3109
  827MOL0     C11516  10.699   1.603   0.191 -0.6508 -0.3306  0.6189
  827MOL0     C11517  10.598   1.688   0.241 -1.0152  0.8023 -0.3560
  827MOL0     O11518  10.487   1.702   0.165 -0.1736 -0.6981 -0.1582
  827MOL0     C11519  10.364   1.680   0.235  0.0935  0.0437  0.2310
  827MOL0     C11520  10.281   1.667   0.109 -0.4911  0.2212 -0.0158
  827MOL0     C11521  10.261   1.805   0.043  0.1642 -0.2471 -0.2427
  827MOL0     C11522  10.117   1.829   0.043 -0.3347  0.0458 -0.1610
  827MOL0     C11523  10.095   1.986   0.027 -0.0517  0.7117  0.2404
  827MOL0     C11524   9.945   2.011   0.035  0.7924  0.7311 -0.8910
  827MOL0     C11525   9.913   2.158  -0.005  0.0982  1.2120 -0.4364
  827MOL0     C11526   9.757   2.171  -0.020  0.0736  1.0367 -0.6548
  827MOL0     N11527   9.701   2.137  -0.152 -1.0298 -0.1734  0.7428
  827MOL0     C11528   9.733   2.210  -0.262  0.3395  0.1792  0.5150
  827MOL0     C11529   9.653   2.161  -0.360 -0.2466  0.1067 -0.2845
  827MOL0     C11530   9.652   2.224  -0.493 -0.3236  0.3734 -0.5143
  827MOL0     C11531   9.524   2.306  -0.531 -0.3330  0.1179  0.3132
  827MOL0     C11532   9.491   2.306  -0.678  0.5863  0.2893  0.1404
  827MOL0     C11533   9.570   2.403  -0.766 -0.3896 -0.2382 -0.3955
  827MOL0     O11534   9.554   2.353  -0.900 -0.4303  0.7369 -0.0937
  827MOL0     C11535   9.637   2.247  -0.943 -0.7295  0.7167  0.2423
  827MOL0     C11536   9.757   2.189  -0.878  0.5921  0.3027  0.1201
  827MOL0     C11537   9.844   2.095  -0.937  0.5921  0.6582 -0.5691
  827MOL0     C11538   9.946   2.030  -0.853 -0.3983  0.0554 -0.8627
  827MOL0     C11539   9.818   2.056  -1.066 -0.0563  0.3818 -0.2126
  827MOL0     C11540   9.877   1.931  -1.112 -0.3620  0.2283 -0.7873
  827MOL0     O11541   9.841   1.814  -1.048 -0.1011  0.3165  0.1278
  827MOL0     C11542   9.903   1.698  -1.081  0.2945  0.4129  0.3890
  827MOL0     C11543   9.826   1.581  -1.120 -0.3063 -0.2878  0.1114
  827MOL0     C11544   9.888   1.461  -1.164 -0.3047  0.2998 -0.8078
  827MOL0     C11545  10.031   1.448  -1.170  0.6933  0.6177 -0.1022
  827MOL0     O11546  10.090   1.336  -1.229  0.0113 -0.1538 -0.1641
  827MOL0     C11547  10.239   1.330  -1.220 -0.5304 -0.5946  0.1157
  827MOL0     C11548  10.293   1.185  -1.256  0.4923 -0.3658  0.4125
  827MOL0     C11549  10.434   1.174  -1.191 -0.2199  0.4764  0.4506
  827MOL0     C11550  10.507   1.045  -1.214  0.3478  0.4846 -0.1202
  827MOL0     C11551  10.565   1.041  -1.362  0.9274  0.1632  0.1550
  827MOL0     C11552  10.653   0.915  -1.370 -0.9149  0.3383 -0.2409
  827MOL0     C11553  10.705   0.870  -1.505  0.6079 -0.3952  0.3356
  827MOL0     C11554  10.794   0.752  -1.503  0.1658  1.2069  0.8605
  827MOL0    Cl11555  10.876   0.729  -1.669  0.1567 -0.0372  0.4106
  827MOL0     C11556  10.101   1.562  -1.125 -0.0470 -0.5000  0.0680
  827MOL0     C11557  10.043   1.681  -1.071  0.2738 -0.0125 -0.0334
  827MOL0     O11558   9.933   1.934  -1.224  0.2499 -0.5718 -0.2896
  827MOL0     C11559   9.709   2.111  -1.133 -0.3425 -0.0869  0.6464
  827MOL0     C11560   9.628   2.210  -1.081 -0.2454  0.1544 -0.1985
  827MOL0     N11561   9.578   2.050  -0.305 -0.2693  0.8930 -0.7520
  827MOL0     N11562   9.612   2.042  -0.181  0.1805 -0.0488 -0.1848
  827MOL0     C11563  10.619   1.740   0.377 -0.0856 -0.6001 -0.1462
  827MOL0     C11564  10.733   1.711   0.455  0.8170 -0.9084  0.0132
  827MOL0     C11565  11.136   1.506   0.546 -0.4284  0.1570 -0.2228
  827MOL0     C11566  11.208   1.389   0.584 -0.2744  0.0829  0.5955
  827MOL0     C11567  11.329   1.395   0.652  0.3968 -0.7763  0.3053
  827MOL0     C11568  11.394   1.511   0.680 -0.6502  1.0520  0.6270
  827MOL0     O11569  11.520   1.509   0.733 -0.8349  0.0138  0.4637
  827MOL0     C11570  11.621   1.557   0.644  0.9897 -0.8260 -0.0616
  827MOL0     C11571  11.762   1.494   0.665  0.1075  1.4025  0.4302
  827MOL0     C11572  11.811   1.518   0.815 -1.0401 -0.0039  0.1871
  827MOL0     C11573  11.867   1.658   0.846 -0.2506 -0.3816  0.3691
  827MOL0     C11574  12.003   1.674   0.793  0.2906 -0.0942 -1.0460
  827MOL0     C11575  12.112   1.700   0.755 -0.9486 -0.1463 -0.2706
  827MOL0     C11576  11.321   1.632   0.663  0.1465  0.3127  0.1161
  827MOL0     C11577  11.191   1.628   0.599 -0.2644  0.3529 -0.3417
  827MOL0     H11578  10.873   1.500   0.231  2.0480 -0.3293  1.9826
  827MOL0     H11579  10.697   1.554   0.094  1.0230  2.6482 -1.0787
  827MOL0     H11580  10.357   1.589   0.295 -0.2320 -1.7059 -2.2901
  827MOL0     H11581  10.330   1.760   0.301 -2.2718 -2.3699  2.1449
  827MOL0     H11582  10.335   1.598   0.044 -2.2848 -2.0030  0.7243
  827MOL0     H11583  10.187   1.618   0.137 -3.0742  3.8463 -1.5531
  827MOL0     H11584  10.328   1.882   0.084  1.4166  0.5081 -3.3996
  827MOL0     H11585  10.297   1.799  -0.060 -2.0904  1.3173 -1.1932
  827MOL0     H11586  10.073   1.775  -0.040  1.6146 -1.6616 -0.1565
  827MOL0     H11587  10.059   1.791   0.128  0.1310  0.1764  0.2263
  827MOL0     H11588  10.147   2.054   0.096  2.7764  1.4789 -2.4311
  827MOL0     H11589  10.132   2.014  -0.072 -0.2155  1.0568  0.2748
  827MOL0     H11590   9.888   1.940  -0.027 -1.0419  2.3443 -1.1586
  827MOL0     H11591   9.900   1.991   0.132 -1.1173 -1.3365 -2.1024
  827MOL0     H11592   9.946   2.224   0.076 -2.4187 -0.5569  2.2359
  827MOL0     H11593   9.962   2.182  -0.100  0.4759 -1.4754 -1.0013
  827MOL0     H11594   9.717   2.271  -0.001 -1.4236  1.2227 -3.9919
  827MOL0     H11595   9.710   2.104   0.052  1.5937 -0.4600 -0.9918
  827MOL0     H11596   9.794   2.300  -0.265  0.6568 -0.0537 -1.2352
  827MOL0     H11597   9.738   2.292  -0.498  0.2687 -0.4440 -3.4690
  827MOL0     H11598   9.658   2.148  -0.571 -2.2164 -0.1374 -0.2063
  827MOL0     H11599   9.517   2.407  -0.489  2.0877  0.5336 -0.1305
  827MOL0     H11600   9.441   2.251  -0.486 -1.3524 -0.5900 -2.2304
  827MOL0     H11601   9.388   2.341  -0.690  0.7335  1.6235  2.2796
  827MOL0     H11602   9.499   2.203  -0.714 -3.1209  0.1896 -0.7829
  827MOL0     H11603   9.679   2.405  -0.755 -0.2470 -0.6822 -1.5387
  827MOL0     H11604   9.553   2.510  -0.750  1.5801  0.0305  0.1930
  827MOL0     H11605   9.771   2.209  -0.772 -0.0232  2.7676 -0.1986
  827MOL0     H11606   9.975   2.102  -0.777 -0.1240  0.5084 -1.3843
  827MOL0     H11607   9.912   1.947  -0.790  0.4337  0.9539  0.8234
  827MOL0     H11608  10.035   1.994  -0.906  1.7946  1.6225  1.5228
  827MOL0     H11609   9.719   1.575  -1.109 -0.4711  0.0869 -1.1024
  827MOL0     H11610   9.825   1.377  -1.192 -2.2693 -0.2969  4.3401
  827MOL0     H11611  10.292   1.407  -1.277  1.0253 -0.4368  1.6601
  827MOL0     H11612  10.266   1.358  -1.117 -0.3426 -3.7593  1.0349
  827MOL0     H11613  10.235   1.111  -1.201 -0.6477  0.6829  0.6636
  827MOL0     H11614  10.297   1.159  -1.362  0.7968  0.7954  0.1169
  827MOL0     H11615  10.423   1.188  -1.083 -2.0020  1.2654  0.1935
  827MOL0     H11616  10.492   1.251  -1.242  1.1898 -2.6755 -3.2210
  827MOL0     H11617  10.587   1.027  -1.142 -0.2658 -0.0710  0.4312
  827MOL0     H11618  10.437   0.962  -1.216 -1.2735  1.4230 -6.6493
  827MOL0     H11619  10.634   1.125  -1.377  1.3047  0.3188  2.4059
  827MOL0     H11620  10.484   1.039  -1.435  0.3608  0.6113  0.7625
  827MOL0     H11621  10.744   0.932  -1.312  0.8355 -0.5024 -2.5947
  827MOL0     H11622  10.595   0.829  -1.336 -0.1640  0.2793  0.9526
  827MOL0     H11623  10.762   0.959  -1.534  1.6203 -0.8286  0.9433
  827MOL0     H11624  10.634   0.844  -1.584  3.3944 -0.2663 -2.4319
  827MOL0     H11625  10.740   0.660  -1.479  1.7843 -0.4646 -1.4063
  827MOL0     H11626  10.881   0.774  -1.440 -1.4527  0.5526  3.4480
  827MOL0     H11627  10.209   1.563  -1.120  0.0090 -0.7121 -1.0258
  827MOL0     H11628  10.101   1.770  -1.049 -0.7249  1.8025 -3.8483
  827MOL0     H11629   9.687   2.054  -1.223  1.8066 -0.5408  0.3431
  827MOL0     H11630   9.561   2.274  -1.138  0.2075  0.9142  0.0994
  827MOL0     H11631  10.534   1.798   0.411 -0.7330 -0.4321 -1.9555
  827MOL0     H11632  10.737   1.751   0.556  0.7477 -0.8825  0.0053
  827MOL0     H11633  11.158   1.296   0.562 -0.7751  0.9058 -2.0533
  827MOL0     H11634  11.385   1.305   0.675  3.1327  0.9664  0.8895
  827MOL0     H11635  11.576   1.547   0.545 -0.9121 -0.5393  0.7417
  827MOL0     H11636  11.632   1.665   0.658 -0.3271 -0.8093  0.9791
  827MOL0     H11637  11.831   1.544   0.596 -2.0274  1.7373 -1.5733
  827MOL0     H11638  11.754   1.389   0.635  2.7450  1.0917  0.5353
  827MOL0     H11639  11.883   1.441   0.844  2.9680  2.6362 -1.8084
  827MOL0     H11640  11.728   1.499   0.884  0.5926  0.0961  2.2888
  827MOL0     H11641  11.865   1.687   0.952 -0.1855  2.3456 -0.3003
  827MOL0     H11642  11.820   1.735   0.785 -0.4681  0.6150  1.7387
  827MOL0     H11643  12.212   1.726   0.725  0.2889  0.9216  3.9768
  827MOL0     H11644  11.374   1.719   0.699  0.3065  0.2904 -0.0656
  827MOL0     H11645  11.136   1.717   0.572 -2.1426 -0.4053  0.7516
  828MOL0     O11646   4.831   4.392   9.473 -0.2801 -0.1002 -0.0921
  828MOL0     C11647   4.918   4.319   9.428 -0.9515 -0.4675 -0.7912
  828MOL0     O11648   4.893   4.211   9.341  0.4613 -0.8217  0.1055
  828MOL0     C11649   4.762   4.183   9.330  0.4447 -0.3955  0.5542
  828MOL0     C11650   4.705   4.071   9.393 -0.3075  0.2065 -0.5523
  828MOL0     C11651   4.574   4.039   9.370 -0.2071 -0.3069 -0.1737
  828MOL0     C11652   4.491   4.121   9.297  0.7166 -0.4022 -0.3800
  828MOL0     O11653   4.364   4.075   9.262  0.2263  0.2809 -0.1126
  828MOL0     C11654   4.322   4.100   9.127  0.3622  0.1054  0.3042
  828MOL0     C11655   4.389   4.001   9.028  0.4857  0.0907 -0.1167
  828MOL0     C11656   4.325   3.868   9.041 -0.1294  0.8729 -0.4290
  828MOL0     C11657   4.384   3.769   8.939  0.2126 -0.1180  0.8206
  828MOL0     C11658   4.275   3.664   8.936  0.2867  1.2704  0.3056
  828MOL0     C11659   4.150   3.678   8.842 -0.0874 -0.2942 -0.5417
  828MOL0     C11660   4.171   3.737   8.700 -0.4078 -0.5853  0.0097
  828MOL0     C11661   4.278   3.677   8.618 -0.3876  0.5698  0.0883
  828MOL0     N11662   4.288   3.734   8.482 -0.3063  0.0834 -0.3835
  828MOL0     C11663   4.214   3.692   8.375  0.0796  0.1419  0.1269
  828MOL0     C11664   4.258   3.764   8.263 -0.1710 -0.1284 -1.0965
  828MOL0     C11665   4.192   3.758   8.128  0.5319  0.0633 -0.0817
  828MOL0     C11666   4.089   3.863   8.103 -0.1612 -0.5242  0.1531
  828MOL0     C11667   4.021   3.841   7.964 -0.8571 -0.5544  0.4339
  828MOL0     C11668   3.925   3.955   7.934 -0.3696 -0.4410 -0.2975
  828MOL0     O11669   3.817   3.938   8.031  0.0300 -0.1615  0.2832
  828MOL0     C11670   3.704   4.013   7.993 -0.2072  0.1229 -0.5340
  828MOL0     C11671   3.620   3.978   7.882 -0.6191  0.9022  1.0293
  828MOL0     C11672   3.498   4.042   7.857 -0.6573  0.0085  0.5473
  828MOL0     C11673   3.401   3.999   7.740 -0.0085 -0.2138 -0.8991
  828MOL0     C11674   3.450   4.137   7.954 -0.1743 -0.0522 -0.5821
  828MOL0     C11675   3.318   4.213   7.940 -0.1594  0.3545  1.1084
  828MOL0     O11676   3.236   4.224   8.048  0.3880 -0.3035 -0.1518
  828MOL0     C11677   3.109   4.271   8.014  0.3486 -0.6007  0.1380
  828MOL0     C11678   3.006   4.188   8.014 -1.2546  0.2406  0.2302
  828MOL0     C11679   2.875   4.236   7.996  0.1668 -0.0420 -0.7090
  828MOL0     C11680   2.848   4.364   7.959  1.0754  0.0764  0.3871
  828MOL0     O11681   2.725   4.399   7.956  0.4782 -0.0160 -0.4204
  828MOL0     C11682   2.684   4.523   8.011  0.0395 -0.7213  0.6243
  828MOL0     C11683   2.534   4.551   8.008  0.5749  0.4067  0.5030
  828MOL0     C11684   2.465   4.419   8.058  0.1733 -0.3322  0.4164
  828MOL0     C11685   2.311   4.446   8.073 -0.1719  1.0790  0.9017
  828MOL0     C11686   2.240   4.331   8.152  0.4826  0.8129 -0.1527
  828MOL0     C11687   2.275   4.187   8.112  0.4136 -0.6980  0.5597
  828MOL0     C11688   2.242   4.170   7.961  0.0094 -0.2149  0.5005
  828MOL0     C11689   2.106   4.216   7.910 -0.1818  0.4872 -0.1320
  828MOL0    Cl11690   2.084   4.168   7.734  0.3311 -0.0494  0.0504
  828MOL0     C11691   2.957   4.449   7.947 -0.9664 -0.2532  0.2324
  828MOL0     C11692   3.083   4.402   7.981  0.0325 -0.5923  0.2689
  828MOL0     O11693   3.291   4.257   7.827 -0.2086 -0.0224  0.4862
  828MOL0     C11694   3.535   4.172   8.058 -0.6732 -0.1512  0.1029
  828MOL0     C11695   3.663   4.113   8.076  0.3574  0.7105 -0.1974
  828MOL0     N11696   4.362   3.841   8.310 -0.6015 -0.2419  0.2902
  828MOL0     N11697   4.386   3.823   8.436 -0.0230  0.2723 -1.2378
  828MOL0     C11698   4.543   4.232   9.237 -0.1963 -0.3091 -0.1137
  828MOL0     C11699   4.677   4.264   9.241  0.3039  0.0125  0.4538
  828MOL0     C11700   5.058   4.358   9.433 -0.4388  0.9188 -0.1257
  828MOL0     C11701   5.110   4.449   9.529 -0.2080  0.3430 -0.7675
  828MOL0     C11702   5.244   4.490   9.530  0.5937 -0.2725  0.7324
  828MOL0     C11703   5.334   4.419   9.445 -0.6305 -0.7013 -0.6708
  828MOL0     O11704   5.469   4.438   9.436  0.0726 -0.2309  0.3873
  828MOL0     C11705   5.539   4.538   9.520  0.0803  0.3818 -0.5958
  828MOL0     C11706   5.532   4.678   9.467 -0.7738  0.0341 -0.2543
  828MOL0     C11707   5.654   4.768   9.511  0.6570 -0.0157  1.0217
  828MOL0     C11708   5.645   4.910   9.452  0.2314  0.2250  0.7474
  828MOL0     C11709   5.759   5.004   9.478 -0.3082  0.4768  0.5896
  828MOL0     C11710   5.853   5.079   9.492 -0.3872 -0.1149 -1.2409
  828MOL0     C11711   5.287   4.321   9.354  0.5676  0.5195  1.0749
  828MOL0     C11712   5.145   4.294   9.351  0.2743 -0.7087 -0.1290
  828MOL0     H11713   4.761   4.001   9.454 -0.1885  1.0474  0.3190
  828MOL0     H11714   4.523   3.952   9.411  2.4846 -2.4815 -1.1211
  828MOL0     H11715   4.214   4.084   9.128  0.4299 -0.3726  1.2198
  828MOL0     H11716   4.338   4.205   9.101  2.8087 -0.3996 -0.5354
  828MOL0     H11717   4.374   4.043   8.929 -1.9188  1.0010  0.5560
  828MOL0     H11718   4.496   3.989   9.049  0.2991  0.6481  1.2473
  828MOL0     H11719   4.344   3.835   9.144 -0.1735 -0.3009 -0.7786
  828MOL0     H11720   4.218   3.872   9.020 -0.1147 -0.8202 -1.0349
  828MOL0     H11721   4.385   3.818   8.841  2.6177 -0.3593  0.6764
  828MOL0     H11722   4.478   3.726   8.973  0.5306  0.3806  0.5759
  828MOL0     H11723   4.317   3.570   8.900  1.3920  1.4088  1.1652
  828MOL0     H11724   4.234   3.634   9.033  0.7729 -3.1310 -0.6190
  828MOL0     H11725   4.098   3.584   8.819  0.6452 -1.4451  2.0922
  828MOL0     H11726   4.069   3.737   8.886 -0.3497 -1.9260  1.2840
  828MOL0     H11727   4.067   3.741   8.667 -1.8825  3.3966  4.0376
  828MOL0     H11728   4.197   3.843   8.709  0.6947 -0.8580  0.2895
  828MOL0     H11729   4.262   3.569   8.616  0.9908  0.3354  0.5960
  828MOL0     H11730   4.371   3.691   8.674 -1.6615  1.5473  2.0639
  828MOL0     H11731   4.132   3.621   8.377 -1.2516  1.6102 -0.4138
  828MOL0     H11732   4.263   3.762   8.044 -2.4431  1.2681 -2.7281
  828MOL0     H11733   4.135   3.665   8.114  2.8132 -1.6063  1.0290
  828MOL0     H11734   4.125   3.966   8.108 -1.0445 -0.1664 -0.6422
  828MOL0     H11735   4.018   3.844   8.184 -0.5622 -0.6862 -0.2318
  828MOL0     H11736   3.963   3.749   7.963  0.3880 -1.3750  1.2444
  828MOL0     H11737   4.093   3.836   7.882 -0.9121  1.5751  0.1852
  828MOL0     H11738   3.883   3.945   7.834  0.2559  0.2578 -0.6399
  828MOL0     H11739   3.980   4.049   7.937  1.1684 -1.3316  1.6701
  828MOL0     H11740   3.652   3.894   7.821 -2.0378  0.2791  1.1193
  828MOL0     H11741   3.413   4.059   7.649  2.2055 -1.3411 -1.4399
  828MOL0     H11742   3.422   3.896   7.709 -1.7154 -0.9334  0.2342
  828MOL0     H11743   3.300   4.007   7.781  1.2730  1.7952  2.2486
  828MOL0     H11744   3.031   4.088   8.049  2.9731 -0.9355 -4.7715
  828MOL0     H11745   2.805   4.156   8.021  3.2865 -3.1961 -1.2573
  828MOL0     H11746   2.730   4.536   8.110  1.2796  1.5543 -0.1808
  828MOL0     H11747   2.725   4.605   7.952 -3.0680  2.3378  2.3474
  828MOL0     H11748   2.505   4.640   8.064 -1.2436  2.0243 -2.7687
  828MOL0     H11749   2.507   4.581   7.906 -0.5873 -2.1069 -0.0010
  828MOL0     H11750   2.493   4.407   8.163 -0.1072  2.4493  0.8941
  828MOL0     H11751   2.482   4.334   7.991  3.1104  0.1460  0.4388
  828MOL0     H11752   2.303   4.535   8.136  2.2900 -0.2508  3.2973
  828MOL0     H11753   2.265   4.469   7.977 -0.9649 -0.7968  0.7936
  828MOL0     H11754   2.132   4.347   8.158  0.1138 -1.5236  0.5173
  828MOL0     H11755   2.282   4.343   8.252  0.8697 -1.7377  0.0561
  828MOL0     H11756   2.378   4.154   8.128  0.0497 -1.9080  0.5285
  828MOL0     H11757   2.214   4.112   8.163  1.0665 -1.6743 -0.0486
  828MOL0     H11758   2.257   4.065   7.933 -0.9159  0.2285 -1.8786
  828MOL0     H11759   2.319   4.223   7.905  0.9553 -0.6644  1.3267
  828MOL0     H11760   2.103   4.325   7.921  1.9823  0.6544 -0.7093
  828MOL0     H11761   2.026   4.180   7.976 -0.5566  0.3666 -0.6465
  828MOL0     H11762   2.943   4.556   7.935  1.4311  0.0980  0.1934
  828MOL0     H11763   3.168   4.469   7.972 -2.1298  2.2183 -0.8417
  828MOL0     H11764   3.503   4.248   8.129 -0.1321 -0.1880  0.3873
  828MOL0     H11765   3.731   4.139   8.156 -2.0603 -0.2562  2.3239
  828MOL0     H11766   4.477   4.305   9.189 -2.0461  0.2366  2.9895
  828MOL0     H11767   4.720   4.351   9.193  1.8893  0.7755  3.0618
  828MOL0     H11768   5.047   4.493   9.605  1.2089 -0.3638  0.8874
  828MOL0     H11769   5.265   4.562   9.609 -1.0079 -0.9860  1.8726
  828MOL0     H11770   5.506   4.538   9.624  0.7678  0.9854 -0.3675
  828MOL0     H11771   5.645   4.511   9.516 -0.3718 -1.3821 -2.7934
  828MOL0     H11772   5.434   4.722   9.481 -0.3061  0.4106  2.2690
  828MOL0     H11773   5.538   4.670   9.358  0.3729  1.4220 -0.3273
  828MOL0     H11774   5.744   4.723   9.468  0.8485  0.4739  0.9009
  828MOL0     H11775   5.678   4.767   9.617  1.9645 -2.1043  0.7666
  828MOL0     H11776   5.558   4.962   9.493  0.2867  1.0389 -0.1153
  828MOL0     H11777   5.637   4.889   9.345  0.3119 -2.8616  1.2536
  828MOL0     H11778   5.928   5.145   9.531 -2.1790  1.3985 -0.2540
  828MOL0     H11779   5.345   4.270   9.278 -0.9242 -0.7743  0.7385
  828MOL0     H11780   5.112   4.233   9.268 -1.4372 -0.7012  0.5105
  829MOL0     O11781  10.667   0.950  10.559 -0.8248  0.0043  0.2061
  829MOL0     C11782  10.762   0.911  10.501 -0.0418  0.1871  0.3367
  829MOL0     O11783  10.871   0.981  10.476  0.4157  0.2146 -0.3320
  829MOL0     C11784  10.863   1.120  10.499  0.5168  0.9507  0.2799
  829MOL0     C11785  10.751   1.201  10.466 -0.2285  0.0043  0.1840
  829MOL0     C11786  10.757   1.341  10.470  0.1883 -0.8509  0.9455
  829MOL0     C11787  10.866   1.410  10.527  0.7058  0.0853 -0.2735
  829MOL0     O11788  10.854   1.545  10.528  0.0419 -0.5335  0.2348
  829MOL0     C11789  10.967   1.618  10.559 -0.2565 -0.3609 -0.4693
  829MOL0     C11790  11.042   1.651  10.436 -0.2482 -0.0955 -0.2476
  829MOL0     C11791  11.116   1.530  10.371 -0.0033 -0.4772 -0.0461
  829MOL0     C11792  11.198   1.589  10.257  0.9575  1.0802  0.0210
  829MOL0     C11793  11.268   1.473  10.191 -0.3783  0.0800  1.3988
  829MOL0     C11794  11.353   1.517  10.070  0.8521 -0.0736 -0.4665
  829MOL0     C11795  11.462   1.415  10.036  0.2232 -0.4617 -0.0192
  829MOL0     C11796  11.576   1.393  10.135  0.7603 -0.3827  0.6896
  829MOL0     N11797  11.681   1.491  10.117 -0.6424 -0.3282 -0.3580
  829MOL0     C11798  11.672   1.618  10.168 -0.7717  0.0122  0.0767
  829MOL0     C11799  11.787   1.682  10.127  0.2935 -0.6055 -0.2105
  829MOL0     C11800  11.837   1.824  10.164  0.3098  0.0711 -0.2126
  829MOL0     C11801  11.893   1.892  10.037 -0.4428  0.0300  0.1721
  829MOL0     C11802  11.801   1.897   9.913  0.9939 -0.0529  0.6962
  829MOL0     C11803  11.669   1.960   9.944  0.3420  0.3376 -0.0752
  829MOL0     O11804  11.572   1.853   9.960 -0.2279  0.1544 -0.1643
  829MOL0     C11805  11.445   1.892   9.971  0.1811  0.2798 -0.5216
  829MOL0     C11806  11.409   1.962  10.088 -0.4774  0.0811  0.5373
  829MOL0     C11807  11.286   2.012  10.109  0.4893 -0.1127  0.0006
  829MOL0     C11808  11.274   2.093  10.228 -0.6359 -0.5601  0.1335
  829MOL0     C11809  11.187   1.991  10.004 -1.0137 -0.3339 -0.7992
  829MOL0     C11810  11.054   2.036  10.023  0.0443  0.7814  0.2023
  829MOL0     O11811  10.980   2.054   9.906 -0.6918 -0.1392  0.1114
  829MOL0     C11812  10.847   2.087   9.924  0.0717 -0.0762  0.0513
  829MOL0     C11813  10.801   2.214   9.964  0.1491 -0.3637 -0.5261
  829MOL0     C11814  10.666   2.237  10.008 -0.3411 -0.0491  0.0368
  829MOL0     C11815  10.569   2.143   9.982  0.5145  0.6644 -0.0833
  829MOL0     O11816  10.436   2.183   9.997 -0.2095  0.4450  0.3909
  829MOL0     C11817  10.329   2.091   9.993  0.1585 -0.8504 -0.5881
  829MOL0     C11818  10.287   2.051  10.140 -0.2260  0.7198  0.7282
  829MOL0     C11819  10.286   2.177  10.230  0.5315 -0.1251 -0.6412
  829MOL0     C11820  10.192   2.151  10.349 -0.3281 -0.3260 -0.2939
  829MOL0     C11821  10.159   2.275  10.431  0.4718 -0.9912 -0.0572
  829MOL0     C11822  10.071   2.383  10.353 -0.3762  0.6833 -0.8491
  829MOL0     C11823  10.032   2.504  10.438  1.0784  0.0369  0.1944
  829MOL0     C11824   9.954   2.612  10.367  0.6769  0.0434 -0.0429
  829MOL0    Cl11825   9.776   2.559  10.367  0.7487 -0.4613 -0.0648
  829MOL0     C11826  10.608   2.008   9.941 -0.6233 -0.0660 -0.2977
  829MOL0     C11827  10.747   1.984   9.912  0.1647  0.2149  0.2871
  829MOL0     O11828  11.005   2.056  10.135 -0.6184  0.2958 -0.1745
  829MOL0     C11829  11.219   1.910   9.889  0.1994 -0.0261 -0.5516
  829MOL0     C11830  11.351   1.861   9.873 -0.1966 -0.2771 -0.4748
  829MOL0     N11831  11.858   1.592  10.054  0.0428 -0.2643  0.4124
  829MOL0     N11832  11.805   1.474  10.063  0.1756  0.0735 -0.0753
  829MOL0     C11833  10.975   1.328  10.555 -0.3020 -0.5376 -0.5429
  829MOL0     C11834  10.979   1.192  10.531 -0.1816  0.5585 -0.6598
  829MOL0     C11835  10.743   0.770  10.443 -0.4805 -1.0533 -0.2075
  829MOL0     C11836  10.829   0.735  10.335  0.3293 -0.2820 -0.0182
  829MOL0     C11837  10.834   0.602  10.290 -0.3336  0.1389  0.2090
  829MOL0     C11838  10.729   0.513  10.328  0.7671  0.5913  0.6356
  829MOL0     O11839  10.720   0.390  10.258  0.2349  0.0727 -0.6116
  829MOL0     C11840  10.621   0.297  10.311  0.0164  0.1769 -0.0266
  829MOL0     C11841  10.632   0.153  10.258  0.6065 -0.4155 -0.4859
  829MOL0     C11842  10.586   0.143  10.107 -0.4130  0.4227 -0.6889
  829MOL0     C11843  10.613   0.001  10.068 -0.2223 -0.6396  0.1329
  829MOL0     C11844  10.542  -0.094  10.153  0.2450  1.1843  0.8860
  829MOL0     C11845  10.470  -0.168  10.223 -0.0198 -0.3514 -0.1034
  829MOL0     C11846  10.629   0.561  10.423 -0.4658 -0.0544 -0.1033
  829MOL0     C11847  10.636   0.688  10.475 -0.3590  0.0808 -0.5653
  829MOL0     H11848  10.651   1.166  10.441  0.4650 -2.3288  0.4015
  829MOL0     H11849  10.676   1.397  10.425 -1.0087 -0.9866  2.8062
  829MOL0     H11850  10.926   1.710  10.601  0.1810 -0.3643 -0.0146
  829MOL0     H11851  11.030   1.570  10.635  3.1517  1.3384 -2.0019
  829MOL0     H11852  10.977   1.698  10.362 -0.4637 -1.0758 -0.7122
  829MOL0     H11853  11.118   1.727  10.455  0.7979 -1.0417 -0.5249
  829MOL0     H11854  11.168   1.478  10.452 -2.2161 -1.1712  0.9867
  829MOL0     H11855  11.044   1.463  10.324  1.1978 -0.9412 -1.3096
  829MOL0     H11856  11.134   1.646  10.189  0.1560  1.5751  1.1512
  829MOL0     H11857  11.273   1.656  10.300  1.7999 -1.8124  3.5610
  829MOL0     H11858  11.332   1.420  10.261 -0.5754 -0.7669  0.9625
  829MOL0     H11859  11.188   1.403  10.164  0.0687  0.4353 -1.0961
  829MOL0     H11860  11.290   1.535   9.982  0.0472  0.9977  0.3088
  829MOL0     H11861  11.393   1.615  10.096 -2.0536  1.0517  0.1728
  829MOL0     H11862  11.420   1.316  10.017  0.9110 -1.2581  2.3580
  829MOL0     H11863  11.507   1.448   9.942 -0.6537 -1.0414 -0.6613
  829MOL0     H11864  11.614   1.291  10.124 -2.0029 -1.5992  1.6715
  829MOL0     H11865  11.540   1.394  10.238 -0.7576  0.5459  0.1752
  829MOL0     H11866  11.591   1.660  10.227  0.2484  0.4801  1.1988
  829MOL0     H11867  11.770   1.895  10.214 -0.6521  0.0352 -1.4004
  829MOL0     H11868  11.919   1.809  10.235  0.9534 -0.2958 -1.0190
  829MOL0     H11869  11.988   1.844  10.013  0.2536 -0.2730  3.0499
  829MOL0     H11870  11.928   1.994  10.058  2.5280 -0.0620 -3.4047
  829MOL0     H11871  11.788   1.799   9.867 -0.5372  1.3545 -2.1372
  829MOL0     H11872  11.848   1.967   9.843 -1.1052  0.3597 -0.3736
  829MOL0     H11873  11.639   2.018   9.856  1.4199  2.6466  0.9765
  829MOL0     H11874  11.678   2.027  10.031  1.1883 -1.4930  1.3294
  829MOL0     H11875  11.483   1.995  10.160 -0.3155  2.7076 -0.7153
  829MOL0     H11876  11.207   2.174  10.197  0.9624  0.5719 -0.5058
  829MOL0     H11877  11.219   2.035  10.303 -2.8392 -1.5750 -2.1212
  829MOL0     H11878  11.361   2.140  10.276 -1.5115 -0.5320  1.7742
  829MOL0     H11879  10.874   2.294   9.974 -1.6435  1.0429  4.4410
  829MOL0     H11880  10.634   2.332  10.049  3.3156  0.1371  2.9217
  829MOL0     H11881  10.235   2.134   9.959  0.8704  2.6290  1.3901
  829MOL0     H11882  10.362   2.011   9.926  0.7728  0.4866 -1.9193
  829MOL0     H11883  10.189   2.003  10.131  0.7000 -1.1819  0.4103
  829MOL0     H11884  10.360   1.979  10.177  1.2858  0.7028 -2.0485
  829MOL0     H11885  10.241   2.254  10.166  0.9177  0.7254  0.0958
  829MOL0     H11886  10.390   2.199  10.256  1.5237 -5.5347  1.1275
  829MOL0     H11887  10.102   2.107  10.306 -1.9065  2.9836 -0.6824
  829MOL0     H11888  10.252   2.079  10.405  0.4334  0.2917 -0.2967
  829MOL0     H11889  10.245   2.319  10.483 -1.1310  1.5354  0.6481
  829MOL0     H11890  10.108   2.233  10.518  1.6065 -0.5886  0.8265
  829MOL0     H11891  10.127   2.423  10.268  4.3453  0.5893  1.9002
  829MOL0     H11892   9.982   2.322  10.330 -0.2127  0.9711 -2.3642
  829MOL0     H11893  10.127   2.549  10.468  2.0038 -0.0496 -2.3567
  829MOL0     H11894   9.980   2.468  10.527  1.1308 -3.4796 -1.0354
  829MOL0     H11895   9.983   2.636  10.264  1.3674 -1.2024 -0.1614
  829MOL0     H11896   9.951   2.704  10.427 -0.8981 -0.6764  1.0361
  829MOL0     H11897  10.535   1.928   9.936 -1.0718  0.2335  1.0950
  829MOL0     H11898  10.779   1.885   9.883 -1.2020 -0.0711 -0.3040
  829MOL0     H11899  11.148   1.890   9.810  2.5586 -2.7164 -2.1531
  829MOL0     H11900  11.381   1.807   9.784  1.8763 -0.1393  0.0717
  829MOL0     H11901  11.065   1.364  10.604  0.4088 -2.1911 -0.5511
  829MOL0     H11902  11.065   1.130  10.554 -2.9190 -3.5734 -0.4617
  829MOL0     H11903  10.897   0.804  10.286 -0.8984  0.1286 -1.2202
  829MOL0     H11904  10.900   0.575  10.209 -0.1526  1.9107 -0.2827
  829MOL0     H11905  10.634   0.293  10.419  1.2713 -0.5165 -0.1751
  829MOL0     H11906  10.526   0.337  10.275 -0.0989  0.0601  0.1480
  829MOL0     H11907  10.565   0.093  10.320  1.4898 -0.0157  0.9099
  829MOL0     H11908  10.737   0.121  10.253  0.4755 -0.7549 -4.4800
  829MOL0     H11909  10.649   0.218  10.059  3.4602 -2.6868 -0.9735
  829MOL0     H11910  10.481   0.172  10.093 -0.5421  0.0110 -0.6032
  829MOL0     H11911  10.718  -0.028  10.083  0.0685 -0.3176 -1.2010
  829MOL0     H11912  10.604   0.004   9.959  0.0412  0.7292  0.1232
  829MOL0     H11913  10.393  -0.221  10.276 -0.8742  0.6470 -0.3014
  829MOL0     H11914  10.548   0.494  10.446 -1.0370  0.1224 -1.5414
  829MOL0     H11915  10.564   0.716  10.550  0.2600  2.3938 -0.7555
  830MOL0     O11916  10.948   3.655   6.329 -0.4683 -0.0012  0.6723
  830MOL0     C11917  10.903   3.575   6.244  0.1757  0.5081 -0.1744
  830MOL0     O11918  10.782   3.504   6.256  0.1152  0.4549 -0.0758
  830MOL0     C11919  10.691   3.546   6.351 -0.5572 -0.5340  0.1421
  830MOL0     C11920  10.558   3.541   6.313 -0.4810 -0.6711  0.3608
  830MOL0     C11921  10.455   3.568   6.397 -0.6367 -0.2461  0.2012
  830MOL0     C11922  10.484   3.613   6.529  0.2522 -0.3525 -0.1645
  830MOL0     O11923  10.369   3.631   6.608  0.1127 -0.1160 -0.2723
  830MOL0     C11924  10.389   3.630   6.749  0.4200  0.1357 -0.1925
  830MOL0     C11925  10.244   3.631   6.809 -0.1588  0.0545 -0.2262
  830MOL0     C11926  10.241   3.633   6.964  0.4407  0.3244 -0.1850
  830MOL0     C11927  10.308   3.505   7.025  0.5258  1.0259  1.3060
  830MOL0     C11928  10.282   3.510   7.174  0.1420 -0.1819  0.3043
  830MOL0     C11929  10.354   3.395   7.243  0.2467 -0.8417  0.8304
  830MOL0     C11930  10.355   3.401   7.399 -0.0365 -0.7917 -0.1109
  830MOL0     C11931  10.230   3.337   7.473 -0.2006 -0.7245 -0.0111
  830MOL0     N11932  10.105   3.411   7.452 -0.3675  0.5438 -0.5240
  830MOL0     C11933  10.086   3.541   7.474  0.0950  0.3731  0.1639
  830MOL0     C11934   9.953   3.555   7.480 -0.4793  0.7643  0.5514
  830MOL0     C11935   9.866   3.666   7.517  0.4686 -0.2020 -0.1255
  830MOL0     C11936   9.843   3.768   7.406  0.1002  0.1499  0.2109
  830MOL0     C11937   9.775   3.707   7.288  1.0513  0.7263  0.0958
  830MOL0     C11938   9.751   3.812   7.177  0.1643  0.0335  0.1007
  830MOL0     O11939   9.720   3.739   7.058  0.7639 -0.2967  0.3987
  830MOL0     C11940   9.589   3.692   7.021 -0.5042 -0.1780  0.2856
  830MOL0     C11941   9.483   3.714   7.106 -0.2610  0.2133  0.7481
  830MOL0     C11942   9.352   3.666   7.072  0.5667 -0.0673 -0.3615
  830MOL0     C11943   9.240   3.698   7.169 -0.4459  0.5035 -0.9010
  830MOL0     C11944   9.331   3.595   6.953  0.7948 -0.1267 -1.4270
  830MOL0     C11945   9.194   3.554   6.906 -0.9597  1.0522 -0.5365
  830MOL0     O11946   9.083   3.621   6.950  0.1510  0.5576 -0.7079
  830MOL0     C11947   8.960   3.590   6.914  0.3408 -0.5750  0.0418
  830MOL0     C11948   8.865   3.701   6.902 -0.4331  0.2699  0.9113
  830MOL0     C11949   8.732   3.666   6.880 -0.6334 -0.6484 -0.0054
  830MOL0     C11950   8.688   3.532   6.844 -0.9516 -0.2096 -0.5143
  830MOL0     O11951   8.556   3.501   6.838  0.2838  0.5497  0.6352
  830MOL0     C11952   8.492   3.552   6.722 -0.3621  0.9414  0.7322
  830MOL0     C11953   8.349   3.488   6.745  0.0881  0.8317 -0.5094
  830MOL0     C11954   8.247   3.535   6.645 -0.3020 -0.2644  0.2408
  830MOL0     C11955   8.098   3.498   6.660 -0.4314 -0.0033  0.7428
  830MOL0     C11956   8.070   3.355   6.688  0.2079  0.0611  0.1717
  830MOL0     C11957   8.095   3.277   6.564  0.7271 -0.5243  1.0361
  830MOL0     C11958   8.058   3.129   6.580  0.6718 -0.5683  1.1964
  830MOL0     C11959   8.109   3.045   6.457  0.6436  0.0852  0.0644
  830MOL0    Cl11960   8.019   2.882   6.443  0.1970  0.0399  0.0483
  830MOL0     C11961   8.783   3.431   6.846 -0.2510  0.3189 -0.1974
  830MOL0     C11962   8.916   3.458   6.893  0.3535  1.1198 -0.1545
  830MOL0     O11963   9.200   3.448   6.840 -0.2016  0.2011  0.4779
  830MOL0     C11964   9.446   3.570   6.875  0.1717  0.6492  0.6094
  830MOL0     C11965   9.573   3.618   6.902  0.3502  0.3324  0.4866
  830MOL0     N11966   9.890   3.429   7.460 -0.2113 -0.5361  0.8053
  830MOL0     N11967   9.989   3.345   7.431 -0.1450 -0.1451  0.3432
  830MOL0     C11968  10.622   3.616   6.573 -0.7617 -0.1399 -0.1559
  830MOL0     C11969  10.726   3.588   6.482 -0.3042  0.9847 -0.2532
  830MOL0     C11970  10.987   3.533   6.136 -0.5190  0.5809  0.0882
  830MOL0     C11971  10.940   3.452   6.028 -0.1275  0.3374 -0.3643
  830MOL0     C11972  11.030   3.396   5.932 -0.3283 -0.4358 -0.4466
  830MOL0     C11973  11.164   3.437   5.938  0.1666  0.0907 -0.1933
  830MOL0     O11974  11.261   3.391   5.852 -0.4476  0.3822  0.3816
  830MOL0     C11975  11.235   3.296   5.744 -0.7754  0.7577 -1.1227
  830MOL0     C11976  11.367   3.288   5.675 -0.2374 -0.1194  0.5972
  830MOL0     C11977  11.365   3.177   5.562  1.1736  0.3073 -0.5214
  830MOL0     C11978  11.385   3.049   5.629  0.5625  0.4521 -0.7086
  830MOL0     C11979  11.509   3.032   5.702 -0.9778 -1.2468 -0.5015
  830MOL0     C11980  11.605   3.019   5.782 -0.0629 -0.3447  0.9568
  830MOL0     C11981  11.210   3.511   6.046 -0.5566 -0.8178  0.1289
  830MOL0     C11982  11.126   3.557   6.148  0.4541  0.2395  0.7340
  830MOL0     H11983  10.529   3.517   6.212  0.7621 -4.5689  0.7728
  830MOL0     H11984  10.355   3.564   6.353 -0.1146  1.2300 -1.2426
  830MOL0     H11985  10.432   3.537   6.786 -1.9198 -1.3605 -0.9928
  830MOL0     H11986  10.441   3.721   6.780 -0.8838  1.5275 -1.8342
  830MOL0     H11987  10.201   3.721   6.764  2.7940 -0.0106 -3.6702
  830MOL0     H11988  10.183   3.546   6.779  0.8741 -0.8977  0.3042
  830MOL0     H11989  10.296   3.723   6.995  0.5649  1.3230 -3.0357
  830MOL0     H11990  10.138   3.639   7.000  1.4759  0.5021  3.0759
  830MOL0     H11991  10.252   3.424   6.976 -0.4532  2.8486 -0.7523
  830MOL0     H11992  10.412   3.490   6.993 -0.6362 -2.4490 -1.5620
  830MOL0     H11993  10.322   3.605   7.209  1.8213  0.1148 -2.1464
  830MOL0     H11994  10.176   3.514   7.197 -0.2128  1.2464 -1.3943
  830MOL0     H11995  10.311   3.299   7.213 -4.7431  2.0942 -2.9838
  830MOL0     H11996  10.459   3.399   7.213 -0.1424 -1.5806 -0.7523
  830MOL0     H11997  10.445   3.349   7.432  1.7291  1.4638 -1.0872
  830MOL0     H11998  10.364   3.505   7.431  1.0773  0.2992 -3.4732
  830MOL0     H11999  10.251   3.340   7.581 -2.3133  0.8802  0.4259
  830MOL0     H12000  10.216   3.234   7.439 -0.6499 -0.4856 -0.5689
  830MOL0     H12001  10.170   3.608   7.492  1.6735 -1.7526  1.1557
  830MOL0     H12002   9.771   3.620   7.547  0.8271  1.3055  3.9123
  830MOL0     H12003   9.900   3.726   7.601 -1.5870  1.7657 -0.6042
  830MOL0     H12004   9.940   3.809   7.376  1.6584 -3.1621  0.2310
  830MOL0     H12005   9.782   3.844   7.455 -0.0501 -0.8266  1.5767
  830MOL0     H12006   9.683   3.670   7.333  0.3466  2.0596 -0.2162
  830MOL0     H12007   9.831   3.619   7.253  0.1239  0.4809 -0.8207
  830MOL0     H12008   9.842   3.870   7.161 -0.2300  0.6436  0.0425
  830MOL0     H12009   9.673   3.886   7.199 -0.2356 -0.5944  0.8944
  830MOL0     H12010   9.505   3.762   7.201  1.5285  0.0495  0.4505
  830MOL0     H12011   9.184   3.782   7.127 -0.2924  0.2622 -1.5910
  830MOL0     H12012   9.174   3.615   7.196  2.0402 -0.9931  1.0412
  830MOL0     H12013   9.276   3.748   7.260 -0.8285  2.2903 -1.6767
  830MOL0     H12014   8.897   3.802   6.925 -3.0451  1.1417  1.0170
  830MOL0     H12015   8.663   3.749   6.891 -0.9469 -1.1007  1.6543
  830MOL0     H12016   8.483   3.661   6.722 -1.3973  0.8993 -1.3518
  830MOL0     H12017   8.517   3.511   6.624 -3.5725 -1.0092  0.5804
  830MOL0     H12018   8.360   3.380   6.735  1.4370  0.7442  1.5529
  830MOL0     H12019   8.321   3.511   6.848  2.0962  1.1030  0.0025
  830MOL0     H12020   8.274   3.502   6.544 -1.7461 -1.1108  0.1061
  830MOL0     H12021   8.248   3.644   6.645  0.4893 -0.0952  4.8378
  830MOL0     H12022   8.056   3.555   6.743 -1.0450  0.3901  0.1680
  830MOL0     H12023   8.041   3.534   6.575 -0.3404 -1.8590 -0.1520
  830MOL0     H12024   7.965   3.337   6.714 -0.1562  1.6824 -0.0731
  830MOL0     H12025   8.138   3.315   6.764  1.7771 -0.8907 -1.6418
  830MOL0     H12026   8.033   3.321   6.487 -1.2020 -1.0634  2.2063
  830MOL0     H12027   8.202   3.279   6.542  0.1390 -1.9026 -2.6236
  830MOL0     H12028   7.951   3.106   6.573  0.5482  0.4673 -1.7104
  830MOL0     H12029   8.094   3.091   6.676 -2.4689 -3.2889  1.5117
  830MOL0     H12030   8.217   3.027   6.459  1.0218  2.1992  0.5502
  830MOL0     H12031   8.081   3.101   6.367 -1.5552 -0.7332  0.1757
  830MOL0     H12032   8.755   3.329   6.825  1.2761 -0.4724  1.3908
  830MOL0     H12033   8.982   3.372   6.903 -2.0129 -0.6900  0.8802
  830MOL0     H12034   9.434   3.513   6.784 -1.0182 -0.6678  1.5374
  830MOL0     H12035   9.662   3.587   6.848 -0.7033 -0.2005 -1.0160
  830MOL0     H12036  10.644   3.622   6.679 -2.0479  3.6168  0.0738
  830MOL0     H12037  10.825   3.596   6.526 -0.5311  0.4607  0.3698
  830MOL0     H12038  10.837   3.424   6.008  0.3617 -1.7804 -0.1742
  830MOL0     H12039  10.991   3.325   5.861 -2.1598 -1.8725  1.8472
  830MOL0     H12040  11.194   3.203   5.783  0.3570  0.5787 -0.3198
  830MOL0     H12041  11.163   3.314   5.664 -2.4319 -3.4419 -0.8463
  830MOL0     H12042  11.443   3.262   5.750  1.4639  0.3551 -0.8817
  830MOL0     H12043  11.391   3.386   5.632 -0.5799 -0.0604  0.5400
  830MOL0     H12044  11.446   3.192   5.490  3.4378 -0.3972  1.7456
  830MOL0     H12045  11.268   3.171   5.512  0.6237 -0.1018  0.5923
  830MOL0     H12046  11.388   2.965   5.559  0.5983  0.4770 -0.7367
  830MOL0     H12047  11.304   3.033   5.700  0.7839 -1.6949 -0.8680
  830MOL0     H12048  11.690   3.003   5.846 -0.8196  0.9057  2.3227
  830MOL0     H12049  11.314   3.539   6.047 -0.0963 -2.3379 -1.0325
  830MOL0     H12050  11.173   3.605   6.234  2.6393  2.0080 -1.3114
  831MOL0     O12051   9.641   8.004   0.391 -0.6272  0.2566  0.4219
  831MOL0     C12052   9.716   8.076   0.456 -0.1747 -0.6831  0.7165
  831MOL0     O12053   9.678   8.192   0.516 -0.1641 -0.1516  0.0362
  831MOL0     C12054   9.548   8.240   0.515 -0.3797  0.5369  0.6746
  831MOL0     C12055   9.486   8.264   0.640 -0.3829 -0.6804 -0.5653
  831MOL0     C12056   9.357   8.305   0.657  0.4357 -0.0647 -0.1679
  831MOL0     C12057   9.280   8.339   0.540 -0.0595  0.0558  0.0582
  831MOL0     O12058   9.154   8.380   0.540 -0.1102 -0.8564 -0.1544
  831MOL0     C12059   9.067   8.366   0.659  0.2537 -0.4128  0.8581
  831MOL0     C12060   8.947   8.453   0.648  0.3092 -0.2315  1.3661
  831MOL0     C12061   8.823   8.369   0.610  0.7076  0.6172 -0.5412
  831MOL0     C12062   8.835   8.296   0.475 -0.5198  1.2142 -0.3161
  831MOL0     C12063   8.701   8.224   0.446 -0.3099  0.6418  0.4396
  831MOL0     C12064   8.683   8.167   0.309 -0.6043 -0.2095 -0.2652
  831MOL0     C12065   8.539   8.120   0.293 -0.2169  0.0391 -0.4114
  831MOL0     C12066   8.510   7.980   0.363  0.2945 -0.3091 -0.3363
  831MOL0     N12067   8.375   7.941   0.317 -0.2923  0.1245  0.1349
  831MOL0     C12068   8.301   8.011   0.224  0.0073  0.0529  0.0753
  831MOL0     C12069   8.184   7.935   0.212 -0.5092 -0.2405  0.1439
  831MOL0     C12070   8.052   7.987   0.153  0.3241 -0.1572  0.3754
  831MOL0     C12071   8.000   7.894   0.044  0.0050  0.3043 -0.2008
  831MOL0     C12072   7.931   7.977  -0.066 -0.5288  0.3128  0.1890
  831MOL0     C12073   7.867   7.877  -0.160  0.0418  0.2482 -1.4182
  831MOL0     O12074   7.753   7.826  -0.095 -0.3176 -0.4933  0.4190
  831MOL0     C12075   7.674   7.733  -0.151  0.4425  0.4756 -1.1003
  831MOL0     C12076   7.697   7.656  -0.262  0.3182 -0.8384 -0.5864
  831MOL0     C12077   7.607   7.575  -0.322  0.7967 -0.0402  0.9211
  831MOL0     C12078   7.659   7.531  -0.459  0.2581 -1.2433 -0.2452
  831MOL0     C12079   7.473   7.569  -0.273 -0.7431  0.2809  0.4427
  831MOL0     C12080   7.373   7.480  -0.342 -0.3381 -0.3920 -0.1435
  831MOL0     O12081   7.286   7.427  -0.254  0.2312  0.3007  1.0553
  831MOL0     C12082   7.200   7.335  -0.316  0.1893  0.1866 -0.0543
  831MOL0     C12083   7.237   7.204  -0.336  0.3125  0.3129 -0.0074
  831MOL0     C12084   7.146   7.108  -0.392  0.1709 -0.6573  0.1103
  831MOL0     C12085   7.018   7.146  -0.447  0.1413 -0.4253 -0.1485
  831MOL0     O12086   6.938   7.039  -0.484 -0.4061  0.3379  0.7557
  831MOL0     C12087   6.802   7.065  -0.525  0.4488  0.4954  0.3630
  831MOL0     C12088   6.696   7.012  -0.423 -0.0380 -0.4356 -0.6180
  831MOL0     C12089   6.556   7.059  -0.466 -0.0990  0.2033  0.3434
  831MOL0     C12090   6.449   7.005  -0.369 -1.0147  0.5171  0.3333
  831MOL0     C12091   6.321   7.088  -0.389 -1.2040 -1.0076 -0.0358
  831MOL0     C12092   6.214   7.036  -0.298 -0.2555 -0.6677  0.7936
  831MOL0     C12093   6.073   7.075  -0.344  0.4989  0.3890  0.4439
  831MOL0     C12094   6.060   7.228  -0.349 -0.6228  0.1972 -0.4254
  831MOL0    Cl12095   5.892   7.263  -0.399 -0.0610  0.2334  0.2607
  831MOL0     C12096   6.989   7.286  -0.440 -0.9385 -0.7007  0.7157
  831MOL0     C12097   7.081   7.378  -0.379  0.1955 -0.0700 -0.4942
  831MOL0     O12098   7.369   7.470  -0.460 -0.5031 -0.5905  0.0715
  831MOL0     C12099   7.445   7.638  -0.157  0.1055  0.4485  0.2957
  831MOL0     C12100   7.545   7.715  -0.093 -0.1553  0.2125 -0.2884
  831MOL0     N12101   8.200   7.820   0.286  0.2222  0.4010  0.1706
  831MOL0     N12102   8.309   7.822   0.355  0.5590 -0.5647 -0.2840
  831MOL0     C12103   9.346   8.330   0.420  0.3039  0.5098  0.1539
  831MOL0     C12104   9.484   8.286   0.403  0.1212  0.4195  0.3052
  831MOL0     C12105   9.859   8.041   0.466  0.5508  0.7597  0.0670
  831MOL0     C12106   9.908   7.932   0.389 -1.0419 -0.3740  0.5655
  831MOL0     C12107  10.039   7.889   0.400 -0.0480 -0.3473 -0.6779
  831MOL0     C12108  10.130   7.959   0.481 -0.4595  0.3778 -0.6267
  831MOL0     O12109  10.266   7.923   0.475 -0.1908 -0.0275  0.6691
  831MOL0     C12110  10.362   7.969   0.573  0.0458  0.8089 -0.6699
  831MOL0     C12111  10.507   7.914   0.551  0.5041  0.4743  0.1778
  831MOL0     C12112  10.598   7.968   0.661 -0.3019 -0.1154  0.3081
  831MOL0     C12113  10.749   7.933   0.626 -0.6905  0.2733 -0.3141
  831MOL0     C12114  10.779   7.786   0.609 -0.3309  0.3846  0.5054
  831MOL0     C12115  10.804   7.676   0.579 -0.3044 -0.3701 -0.5376
  831MOL0     C12116  10.082   8.070   0.562  0.8714  0.2375 -0.1653
  831MOL0     C12117   9.947   8.108   0.554  0.3273 -0.9491  0.1454
  831MOL0     H12118   9.538   8.232   0.730  0.0855 -2.0413 -1.2976
  831MOL0     H12119   9.313   8.325   0.754 -0.9790 -1.4703 -0.4781
  831MOL0     H12120   9.037   8.262   0.678 -1.4872 -0.8340 -3.1336
  831MOL0     H12121   9.124   8.405   0.743  0.6926  0.3389  0.2196
  831MOL0     H12122   8.927   8.509   0.740  0.0702  1.0438  0.5577
  831MOL0     H12123   8.962   8.519   0.563  1.3828  0.0503  1.7575
  831MOL0     H12124   8.801   8.299   0.691  0.0651  1.1939 -0.2044
  831MOL0     H12125   8.739   8.439   0.614  0.1593  0.0184 -1.3347
  831MOL0     H12126   8.856   8.368   0.396  3.5181  0.2213 -0.3397
  831MOL0     H12127   8.917   8.226   0.456 -2.3937 -0.5664 -2.4769
  831MOL0     H12128   8.673   8.141   0.512 -1.5246  0.4264 -0.3052
  831MOL0     H12129   8.616   8.292   0.461 -2.7828 -2.0671 -0.4245
  831MOL0     H12130   8.699   8.250   0.239 -4.5661 -2.5973 -4.5761
  831MOL0     H12131   8.753   8.086   0.287  1.5598  1.1723  1.1350
  831MOL0     H12132   8.471   8.194   0.335  0.3227 -0.0350  0.6262
  831MOL0     H12133   8.523   8.107   0.185 -0.3377 -0.3448 -0.3494
  831MOL0     H12134   8.510   7.991   0.472 -1.2745  0.5615 -0.3943
  831MOL0     H12135   8.579   7.898   0.339 -1.4200 -1.3927 -1.8700
  831MOL0     H12136   8.316   8.101   0.165 -1.8233  0.5830  0.3401
  831MOL0     H12137   7.987   8.009   0.238  0.7290  0.8633  0.4354
  831MOL0     H12138   8.072   8.083   0.105 -1.9521  0.1924 -0.0145
  831MOL0     H12139   7.923   7.829   0.089 -0.4186  0.5078 -0.6216
  831MOL0     H12140   8.080   7.831   0.004 -0.2180 -1.8554  2.3905
  831MOL0     H12141   8.007   8.040  -0.114 -2.3586  1.7159 -1.0050
  831MOL0     H12142   7.851   8.047  -0.040  0.4829  2.0942 -1.2401
  831MOL0     H12143   7.935   7.792  -0.171 -0.3923 -0.5680  1.5029
  831MOL0     H12144   7.859   7.923  -0.259  2.0655  2.2323 -0.7323
  831MOL0     H12145   7.789   7.690  -0.309  0.8091  0.8444  1.4635
  831MOL0     H12146   7.752   7.575  -0.496 -0.3082 -1.3639 -1.8838
  831MOL0     H12147   7.689   7.426  -0.450  2.0347 -0.6495  1.4794
  831MOL0     H12148   7.587   7.553  -0.539  0.0193  1.8804  0.6956
  831MOL0     H12149   7.329   7.168  -0.291  1.0024 -0.0280 -1.6180
  831MOL0     H12150   7.171   7.003  -0.379  0.0836 -0.8481 -1.1760
  831MOL0     H12151   6.783   7.173  -0.523 -1.0002  0.3045 -0.7646
  831MOL0     H12152   6.769   7.027  -0.623 -1.4076  4.1672 -0.6539
  831MOL0     H12153   6.691   6.903  -0.427  3.1513 -0.7226  0.3714
  831MOL0     H12154   6.731   7.041  -0.323 -0.2437  2.7294 -1.3673
  831MOL0     H12155   6.532   7.038  -0.571 -1.2873 -1.5013  0.9054
  831MOL0     H12156   6.564   7.167  -0.453  3.1627 -0.0844  1.6764
  831MOL0     H12157   6.437   6.899  -0.391  3.8288 -0.1970  0.2343
  831MOL0     H12158   6.486   7.015  -0.267 -0.5782 -1.1884  0.3697
  831MOL0     H12159   6.293   7.085  -0.494 -2.4934 -0.8857  0.2766
  831MOL0     H12160   6.350   7.190  -0.360 -0.9411 -1.5891  1.8994
  831MOL0     H12161   6.224   6.928  -0.315 -0.4979 -0.7021  0.8710
  831MOL0     H12162   6.249   7.057  -0.196  0.6484  1.4953  0.0794
  831MOL0     H12163   5.990   7.024  -0.295 -0.3435 -0.0899 -1.3702
  831MOL0     H12164   6.064   7.029  -0.443  0.6302  0.3256  0.4610
  831MOL0     H12165   6.146   7.264  -0.407  1.0223  1.4080  2.5550
  831MOL0     H12166   6.079   7.264  -0.247 -2.0044  0.2688 -0.1821
  831MOL0     H12167   6.901   7.337  -0.476 -1.1622 -1.9802 -0.6720
  831MOL0     H12168   7.056   7.483  -0.384  1.1126  0.2043  0.3834
  831MOL0     H12169   7.349   7.635  -0.105 -0.1236  1.7656 -0.0232
  831MOL0     H12170   7.527   7.759   0.005  1.3651  0.0627  0.0889
  831MOL0     H12171   9.290   8.354   0.330  0.0711 -3.0624 -0.8156
  831MOL0     H12172   9.520   8.267   0.303 -0.8197 -1.3245  0.2576
  831MOL0     H12173   9.836   7.892   0.318 -1.7207  0.8769  0.5155
  831MOL0     H12174  10.071   7.798   0.351 -1.6813 -2.9622  2.6539
  831MOL0     H12175  10.368   8.078   0.563  0.3863  0.7605 -1.0468
  831MOL0     H12176  10.318   7.936   0.667 -1.9355 -2.5784 -2.5997
  831MOL0     H12177  10.531   7.940   0.448 -0.5702 -2.8594 -1.0499
  831MOL0     H12178  10.501   7.807   0.574 -0.6086  0.7884  1.5020
  831MOL0     H12179  10.570   7.944   0.765 -2.8441 -0.4937 -0.3932
  831MOL0     H12180  10.587   8.076   0.653  1.5635 -0.0075 -1.4005
  831MOL0     H12181  10.807   7.989   0.700 -4.1278  1.6457  1.5558
  831MOL0     H12182  10.777   7.977   0.529  0.9966  2.9377  1.2463
  831MOL0     H12183  10.831   7.577   0.549  1.1195  0.7724 -3.3206
  831MOL0     H12184  10.150   8.129   0.622 -1.2743  3.4550 -0.6857
  831MOL0     H12185   9.910   8.184   0.622  0.1097 -0.9175 -0.0080
  832MOL0     O12186   0.629   4.828   4.669 -0.0437  0.7725 -0.3191
  832MOL0     C12187   0.691   4.791   4.768  0.2404 -0.0840  0.0317
  832MOL0     O12188   0.634   4.758   4.888  0.8208 -0.2476 -0.5062
  832MOL0     C12189   0.538   4.846   4.923  0.0974 -0.3173  0.1887
  832MOL0     C12190   0.561   4.971   4.967  0.2415 -0.1229 -0.0878
  832MOL0     C12191   0.469   5.067   4.997 -0.4842  0.7057 -1.3454
  832MOL0     C12192   0.334   5.034   4.990  0.1691 -0.6229  0.1801
  832MOL0     O12193   0.246   5.141   5.000  0.4000  0.0337 -0.0933
  832MOL0     C12194   0.145   5.156   4.904 -0.5328 -0.7865  0.0578
  832MOL0     C12195   0.196   5.194   4.757  0.0696  0.2244 -0.7158
  832MOL0     C12196   0.091   5.218   4.646 -0.0291 -0.2420  1.3397
  832MOL0     C12197   0.163   5.243   4.503  0.1223 -0.1982  0.0146
  832MOL0     C12198   0.163   5.395   4.488  0.5573 -0.5768 -0.1099
  832MOL0     C12199   0.227   5.454   4.358 -0.1180  0.3008  0.0503
  832MOL0     C12200   0.370   5.417   4.332 -0.6450 -0.3116 -0.2489
  832MOL0     C12201   0.406   5.449   4.191 -0.2273  0.2863 -0.2594
  832MOL0     N12202   0.550   5.446   4.164 -0.0046  0.1139  0.0056
  832MOL0     C12203   0.632   5.545   4.207 -0.1610 -0.5247  0.8723
  832MOL0     C12204   0.753   5.514   4.161 -0.7711 -0.7298  0.9595
  832MOL0     C12205   0.865   5.620   4.163 -0.0281  1.1878 -1.0090
  832MOL0     C12206   0.998   5.543   4.127  0.1654  0.4263 -1.2288
  832MOL0     C12207   1.056   5.468   4.246  0.6239  0.8386  0.4335
  832MOL0     C12208   1.200   5.434   4.213  0.2283 -0.7560 -0.4223
  832MOL0     O12209   1.276   5.556   4.247  0.0306  1.6584 -0.7964
  832MOL0     C12210   1.406   5.537   4.281 -0.0134 -0.3933 -0.1385
  832MOL0     C12211   1.478   5.417   4.262 -0.1808  0.2819  0.6705
  832MOL0     C12212   1.617   5.419   4.283  0.0570  0.8042  0.0664
  832MOL0     C12213   1.685   5.283   4.275  1.0438  0.5063 -1.0064
  832MOL0     C12214   1.686   5.535   4.320  0.6101  0.2325 -0.6055
  832MOL0     C12215   1.831   5.547   4.329  0.2089  0.3036 -0.3262
  832MOL0     O12216   1.879   5.662   4.394 -1.4277 -0.2467 -0.7430
  832MOL0     C12217   2.014   5.700   4.382 -0.0744 -0.5792 -0.4180
  832MOL0     C12218   2.099   5.683   4.269  0.8535  0.5891  0.2217
  832MOL0     C12219   2.228   5.734   4.267 -0.3653  0.0534  0.0985
  832MOL0     C12220   2.290   5.774   4.380 -0.2329 -0.2811 -1.2368
  832MOL0     O12221   2.422   5.820   4.380  0.5276  0.5598 -0.5268
  832MOL0     C12222   2.486   5.835   4.252  0.2391 -0.7944 -0.1598
  832MOL0     C12223   2.631   5.871   4.299 -0.6155  0.6087  0.2272
  832MOL0     C12224   2.704   5.932   4.174  0.5249  0.2875  0.2096
  832MOL0     C12225   2.858   5.953   4.196 -0.0710 -0.2465 -1.1817
  832MOL0     C12226   2.932   5.813   4.222 -0.1707 -0.3217  0.1662
  832MOL0     C12227   3.084   5.810   4.209  0.6301  0.9980 -0.6551
  832MOL0     C12228   3.141   5.681   4.273 -0.4835  0.5055  0.9230
  832MOL0     C12229   3.291   5.703   4.298  0.8868  0.4399 -0.1230
  832MOL0    Cl12230   3.371   5.542   4.312  0.4669  0.2171 -0.2309
  832MOL0     C12231   2.210   5.779   4.499 -0.5547  0.8135 -0.1005
  832MOL0     C12232   2.072   5.748   4.494  1.2437 -0.0781 -0.1306
  832MOL0     O12233   1.900   5.469   4.268  0.1642  0.5668 -0.2878
  832MOL0     C12234   1.611   5.648   4.357 -0.7659 -0.0513 -0.7016
  832MOL0     C12235   1.478   5.646   4.333 -0.1013 -0.2505 -0.1630
  832MOL0     N12236   0.747   5.396   4.093 -0.5540  0.6639 -0.0273
  832MOL0     N12237   0.626   5.346   4.110  0.0130 -0.3265  0.2979
  832MOL0     C12238   0.297   4.903   4.956 -0.6286  0.0497 -0.8194
  832MOL0     C12239   0.399   4.815   4.929 -0.3355 -0.6486 -0.0571
  832MOL0     C12240   0.839   4.777   4.758 -0.0215 -0.1892  0.4624
  832MOL0     C12241   0.910   4.696   4.851 -0.7814 -0.1091 -0.0167
  832MOL0     C12242   1.048   4.676   4.847 -0.0872  0.1476  0.4757
  832MOL0     C12243   1.123   4.724   4.737 -0.2332 -0.0639 -0.3067
  832MOL0     O12244   1.253   4.697   4.749 -0.1102  0.2787  0.4815
  832MOL0     C12245   1.339   4.694   4.635 -0.4163 -0.4517  0.2626
  832MOL0     C12246   1.425   4.826   4.634  0.7318 -0.6825  0.6372
  832MOL0     C12247   1.362   4.938   4.558  0.3272  0.3806  0.9229
  832MOL0     C12248   1.423   5.077   4.598  0.7364  0.0329 -0.5365
  832MOL0     C12249   1.568   5.078   4.578  0.0031  0.4175 -0.5539
  832MOL0     C12250   1.684   5.095   4.593 -0.5674  0.2338 -0.4246
  832MOL0     C12251   1.059   4.785   4.635  0.3687  0.7760 -0.0967
  832MOL0     C12252   0.916   4.812   4.647 -0.8089  0.5403  0.2190
  832MOL0     H12253   0.664   5.000   4.980  0.3213  0.3940 -1.7156
  832MOL0     H12254   0.497   5.162   5.039  0.0506  0.3236 -0.8254
  832MOL0     H12255   0.093   5.060   4.903 -1.1673 -0.4721  1.4887
  832MOL0     H12256   0.074   5.231   4.938 -3.0022 -2.5965 -0.7729
  832MOL0     H12257   0.249   5.287   4.780 -0.4571 -0.1362  2.3863
  832MOL0     H12258   0.271   5.119   4.731 -3.4692 -4.6452  1.4673
  832MOL0     H12259   0.036   5.124   4.634  0.4818 -0.3352 -0.5873
  832MOL0     H12260   0.009   5.289   4.659  1.1410  1.6178 -0.6615
  832MOL0     H12261   0.262   5.197   4.503 -0.1430 -1.0248  3.3673
  832MOL0     H12262   0.102   5.208   4.419  0.2479 -1.9602  0.6158
  832MOL0     H12263   0.059   5.425   4.503  0.2315 -2.1997  1.1708
  832MOL0     H12264   0.206   5.449   4.573 -1.5051  0.1394  0.5419
  832MOL0     H12265   0.170   5.408   4.276  0.8145 -0.1965 -0.3373
  832MOL0     H12266   0.217   5.563   4.354 -1.4332  0.1911  0.0110
  832MOL0     H12267   0.432   5.477   4.399 -1.7545 -0.0092  0.5290
  832MOL0     H12268   0.396   5.314   4.356  4.1419  0.2184 -2.0161
  832MOL0     H12269   0.359   5.544   4.164  2.2846  1.3551 -1.1104
  832MOL0     H12270   0.369   5.365   4.130  3.1944 -1.4949 -0.1069
  832MOL0     H12271   0.605   5.646   4.239  1.6175  2.0403 -4.4881
  832MOL0     H12272   0.840   5.688   4.081 -2.6106 -1.4863 -2.6540
  832MOL0     H12273   0.876   5.668   4.260  1.1897 -1.3161  0.1780
  832MOL0     H12274   1.066   5.622   4.095 -3.0329  4.7574  1.5743
  832MOL0     H12275   0.973   5.470   4.049  0.4717 -1.9173  0.7319
  832MOL0     H12276   0.983   5.386   4.252 -1.7187  2.5777 -1.6607
  832MOL0     H12277   1.040   5.522   4.340 -1.3217  0.1511  0.5557
  832MOL0     H12278   1.211   5.395   4.111  0.4189 -1.2168 -0.2292
  832MOL0     H12279   1.225   5.348   4.276  3.0420  1.2194  1.4230
  832MOL0     H12280   1.436   5.328   4.216 -0.2493  1.2319 -1.1719
  832MOL0     H12281   1.759   5.280   4.355 -1.9987 -3.3829  2.0654
  832MOL0     H12282   1.620   5.196   4.291  0.6714  1.0021  0.2298
  832MOL0     H12283   1.734   5.271   4.178  1.9806  3.4081 -0.9736
  832MOL0     H12284   2.058   5.651   4.174  0.5710 -1.3163  0.9538
  832MOL0     H12285   2.283   5.722   4.174 -1.5863  4.4829 -1.4728
  832MOL0     H12286   2.487   5.749   4.185  1.0379  0.4763 -1.8594
  832MOL0     H12287   2.437   5.918   4.199  0.4493 -0.9113 -0.5396
  832MOL0     H12288   2.632   5.950   4.374 -0.3196  2.0463 -1.2431
  832MOL0     H12289   2.682   5.779   4.329 -0.5089 -0.2854 -2.4285
  832MOL0     H12290   2.657   6.023   4.137 -2.0764  0.8524  4.3131
  832MOL0     H12291   2.695   5.858   4.093 -0.6076 -0.0706  0.6537
  832MOL0     H12292   2.908   6.002   4.111 -0.1511  1.6771 -0.1786
  832MOL0     H12293   2.868   6.020   4.282 -0.8292  0.7608 -1.8527
  832MOL0     H12294   2.900   5.738   4.148  2.7474 -1.6089  0.0890
  832MOL0     H12295   2.906   5.777   4.322 -2.6494  1.4331  0.2675
  832MOL0     H12296   3.118   5.800   4.106 -1.8151  1.7866 -1.6193
  832MOL0     H12297   3.135   5.891   4.262  2.8084 -0.1184 -0.9203
  832MOL0     H12298   3.148   5.598   4.203  4.1426  0.0654  1.5618
  832MOL0     H12299   3.091   5.657   4.367 -2.2763  2.0276  0.4098
  832MOL0     H12300   3.310   5.759   4.391  0.7088  0.0208  0.1672
  832MOL0     H12301   3.330   5.765   4.217  0.6769 -0.8350 -1.2260
  832MOL0     H12302   2.255   5.798   4.596 -0.8610 -0.9986  0.4378
  832MOL0     H12303   2.011   5.755   4.584  0.1501  2.2980 -0.9694
  832MOL0     H12304   1.647   5.739   4.404  2.3923 -2.9333  3.1726
  832MOL0     H12305   1.405   5.724   4.354 -1.4947 -1.7665  0.9206
  832MOL0     H12306   0.191   4.881   4.956 -0.9365  1.4519  0.0024
  832MOL0     H12307   0.367   4.713   4.909 -1.8494 -0.3966  0.8707
  832MOL0     H12308   0.848   4.649   4.926  0.6656 -1.1366  0.5781
  832MOL0     H12309   1.100   4.606   4.912  2.2257 -1.3544 -2.7357
  832MOL0     H12310   1.406   4.608   4.646  1.5292  0.8498 -0.8804
  832MOL0     H12311   1.279   4.688   4.544 -2.9009  0.9734  1.6678
  832MOL0     H12312   1.507   4.799   4.566 -0.5345 -2.7117 -0.1752
  832MOL0     H12313   1.456   4.864   4.732  0.1624  1.7043 -0.0520
  832MOL0     H12314   1.254   4.944   4.573  0.1790 -0.4032  0.2722
  832MOL0     H12315   1.370   4.925   4.449  0.1137  2.1400  0.6525
  832MOL0     H12316   1.397   5.104   4.701  0.1273  1.6929 -1.0853
  832MOL0     H12317   1.389   5.148   4.522  3.0472  0.6208 -1.0972
  832MOL0     H12318   1.784   5.103   4.632  0.4350 -0.9961 -2.5611
  832MOL0     H12319   1.099   4.816   4.538  2.4564 -0.4666  0.2993
  832MOL0     H12320   0.870   4.869   4.567 -2.2963  1.0695  1.4064
  833MOL0     O12321   5.968   6.068  11.370 -0.8296  0.1099  0.7476
  833MOL0     C12322   5.989   6.024  11.257  0.5773 -0.0248  0.1283
  833MOL0     O12323   6.034   5.906  11.231 -0.4998 -0.0194  0.0856
  833MOL0     C12324   6.050   5.819  11.343  0.3378 -0.2348  0.8416
  833MOL0     C12325   6.176   5.776  11.378 -0.6020 -0.1484 -0.3978
  833MOL0     C12326   6.192   5.666  11.464 -0.1731  0.5836  0.0691
  833MOL0     C12327   6.081   5.596  11.514  0.4859  0.9056 -0.4765
  833MOL0     O12328   6.110   5.497  11.603 -0.3304 -0.0212  0.2801
  833MOL0     C12329   6.022   5.386  11.632  0.3115  0.2153  0.0161
  833MOL0     C12330   6.095   5.288  11.728  0.3350 -0.4095 -0.5793
  833MOL0     C12331   5.998   5.211  11.819 -0.4908  0.0206 -0.8462
  833MOL0     C12332   6.083   5.107  11.895 -0.6094  0.8218 -0.8288
  833MOL0     C12333   6.010   5.001  11.976 -0.6195 -0.4794 -0.3899
  833MOL0     C12334   6.094   4.921  12.084  0.9272 -0.7692  0.3922
  833MOL0     C12335   6.150   4.790  12.026 -0.1294 -0.2559 -0.0615
  833MOL0     C12336   6.220   4.716  12.139  0.0220  0.4828 -0.8358
  833MOL0     N12337   6.340   4.787  12.189  0.0872 -0.5524  0.4228
  833MOL0     C12338   6.450   4.801  12.113  0.0156  0.5758 -0.5030
  833MOL0     C12339   6.550   4.828  12.206  0.1334 -1.0256  0.8118
  833MOL0     C12340   6.694   4.870  12.193 -0.3471 -0.1769 -0.1444
  833MOL0     C12341   6.803   4.781  12.254 -0.0029 -0.6356  0.4898
  833MOL0     C12342   6.941   4.829  12.227 -0.0985  0.4919 -0.0842
  833MOL0     C12343   7.038   4.775  12.328  0.0521 -0.6818  0.1313
  833MOL0     O12344   7.171   4.794  12.283 -0.2645 -0.2415 -0.5072
  833MOL0     C12345   7.257   4.694  12.311 -0.1158  0.3134 -0.7376
  833MOL0     C12346   7.271   4.585  12.223  0.3787  0.6379 -0.6235
  833MOL0     C12347   7.344   4.471  12.257 -0.1541  0.1066 -0.1326
  833MOL0     C12348   7.349   4.368  12.148  0.8542  0.1889 -0.1061
  833MOL0     C12349   7.415   4.467  12.380  0.3022  0.8261  0.6208
  833MOL0     C12350   7.493   4.353  12.425 -0.5403  0.1718 -0.0572
  833MOL0     O12351   7.547   4.357  12.548 -0.7701 -0.2200 -0.7028
  833MOL0     C12352   7.600   4.247  12.596 -0.5044 -0.1131 -0.5091
  833MOL0     C12353   7.526   4.155  12.670 -1.3705 -0.8353 -0.4418
  833MOL0     C12354   7.575   4.047  12.734 -1.0907 -0.1950 -0.0517
  833MOL0     C12355   7.711   4.013  12.728 -1.0050  0.2916 -0.8255
  833MOL0     O12356   7.759   3.893  12.775 -0.3806 -0.2059 -0.3273
  833MOL0     C12357   7.902   3.881  12.793  0.3437  0.1873 -0.0883
  833MOL0     C12358   7.922   3.773  12.910  0.4301  0.0296  0.1997
  833MOL0     C12359   8.078   3.773  12.953  0.8567  0.1787  1.0921
  833MOL0     C12360   8.112   3.716  13.085 -0.5548  0.2135  0.8465
  833MOL0     C12361   8.259   3.741  13.119 -0.4385  1.1161  0.4674
  833MOL0     C12362   8.277   3.689  13.265  1.2235  1.0291 -0.9662
  833MOL0     C12363   8.424   3.664  13.308 -0.9203  1.0124 -0.7988
  833MOL0     C12364   8.449   3.617  13.452 -0.3523 -0.4021  0.3102
  833MOL0    Cl12365   8.374   3.750  13.555  0.2199  0.3886  0.4351
  833MOL0     C12366   7.785   4.103  12.638  0.3984  0.3523 -0.0021
  833MOL0     C12367   7.734   4.225  12.590  1.0249 -0.5019 -0.3220
  833MOL0     O12368   7.495   4.256  12.353 -0.1717  0.3546 -0.0927
  833MOL0     C12369   7.405   4.577  12.470  0.0223  0.2288 -1.0996
  833MOL0     C12370   7.321   4.679  12.440  0.8314  0.3241 -0.4896
  833MOL0     N12371   6.488   4.837  12.325  0.3561 -0.2582  0.2228
  833MOL0     N12372   6.360   4.820  12.316  0.2432 -1.4223  0.7319
  833MOL0     C12373   5.949   5.630  11.472  0.2131  0.7726 -0.9728
  833MOL0     C12374   5.942   5.743  11.385  1.1262 -0.9174 -0.6906
  833MOL0     C12375   5.959   6.117  11.139  0.0330  0.4960 -0.0344
  833MOL0     C12376   5.946   6.077  11.005  0.3833 -0.6081  0.4198
  833MOL0     C12377   5.924   6.161  10.897  1.0544  0.4336 -0.0595
  833MOL0     C12378   5.908   6.294  10.928  0.4947 -0.1094  0.5577
  833MOL0     O12379   5.863   6.373  10.820 -0.3485  0.3064 -0.3081
  833MOL0     C12380   5.763   6.477  10.846  1.3323 -0.3464  0.4135
  833MOL0     C12381   5.628   6.425  10.903 -0.3514  1.4856  0.2959
  833MOL0     C12382   5.526   6.534  10.954 -0.3332 -0.1148 -0.0246
  833MOL0     C12383   5.592   6.625  11.066 -0.5311 -0.7407  0.5512
  833MOL0     C12384   5.646   6.552  11.182  0.3122  0.8399  0.4712
  833MOL0     C12385   5.683   6.508  11.287 -0.2812 -0.3641 -0.5618
  833MOL0     C12386   5.915   6.336  11.060  0.1246  0.2850  0.6214
  833MOL0     C12387   5.952   6.255  11.160  0.8355  0.4408  0.1169
  833MOL0     H12388   6.263   5.826  11.337 -0.6296 -0.3343 -0.6826
  833MOL0     H12389   6.292   5.654  11.504  0.7530  2.3102 -1.5685
  833MOL0     H12390   5.934   5.429  11.680  2.1530  1.0670  2.9175
  833MOL0     H12391   6.003   5.328  11.542 -0.3743  0.1093  0.2272
  833MOL0     H12392   6.146   5.218  11.662 -0.0799 -3.1725  1.8065
  833MOL0     H12393   6.169   5.344  11.786 -0.5758  2.3577 -1.9203
  833MOL0     H12394   5.972   5.284  11.896 -0.5616 -0.4803 -0.3914
  833MOL0     H12395   5.911   5.171  11.767 -2.0005  0.1165  1.4812
  833MOL0     H12396   6.146   5.048  11.828 -2.1277 -1.4593 -0.3629
  833MOL0     H12397   6.147   5.161  11.964 -2.0180 -1.2364  2.3291
  833MOL0     H12398   5.934   5.052  12.035 -1.3683 -1.6128 -0.3693
  833MOL0     H12399   5.958   4.928  11.914 -2.3660  0.0565  0.3873
  833MOL0     H12400   6.168   4.980  12.138  0.7041  2.3843 -2.3869
  833MOL0     H12401   6.031   4.889  12.167  1.1000  2.3368  1.8382
  833MOL0     H12402   6.065   4.734  11.987 -2.0488  1.4802  1.4590
  833MOL0     H12403   6.231   4.813  11.956  0.7311 -1.0985  0.6344
  833MOL0     H12404   6.225   4.609  12.116 -0.0768  1.0218 -3.6769
  833MOL0     H12405   6.159   4.730  12.228 -0.8410  4.2746 -1.8354
  833MOL0     H12406   6.464   4.803  12.005  0.3730  0.5233 -0.4610
  833MOL0     H12407   6.719   4.895  12.089 -1.8489  3.8622  0.2804
  833MOL0     H12408   6.699   4.950  12.268 -0.3507 -0.9887  0.7393
  833MOL0     H12409   6.803   4.677  12.222  3.1276 -0.5564 -0.0567
  833MOL0     H12410   6.784   4.778  12.362  1.4405 -1.5002  0.7372
  833MOL0     H12411   6.943   4.937  12.208 -0.6666 -0.1452 -5.5484
  833MOL0     H12412   6.961   4.779  12.131 -3.1578 -1.4553  0.1518
  833MOL0     H12413   7.005   4.677  12.364 -1.1461 -0.1946  0.4006
  833MOL0     H12414   7.034   4.837  12.418  0.6069  0.6900 -0.7652
  833MOL0     H12415   7.207   4.588  12.136  0.1108  5.3494 -0.5215
  833MOL0     H12416   7.269   4.382  12.074  2.1584  0.4082 -1.5382
  833MOL0     H12417   7.435   4.376  12.082  0.0805  0.1247 -1.1609
  833MOL0     H12418   7.334   4.265  12.180  1.4819 -0.0924 -0.6917
  833MOL0     H12419   7.422   4.180  12.690 -0.5290  0.5349  2.8047
  833MOL0     H12420   7.504   3.993  12.796  0.2280 -2.1593 -0.1407
  833MOL0     H12421   7.950   3.844  12.702  1.4307  0.3502  0.3939
  833MOL0     H12422   7.946   3.977  12.823 -0.6277  0.9303 -0.9930
  833MOL0     H12423   7.861   3.797  12.997  1.1231 -0.5103  0.8451
  833MOL0     H12424   7.885   3.679  12.868  0.3915 -0.2737  0.9084
  833MOL0     H12425   8.114   3.876  12.945  2.6677 -0.4304  0.9652
  833MOL0     H12426   8.127   3.717  12.873 -0.0946  2.3743 -1.1400
  833MOL0     H12427   8.054   3.772  13.159  1.9651  0.8859  2.4121
  833MOL0     H12428   8.075   3.613  13.081 -1.9166  0.6808  0.7100
  833MOL0     H12429   8.279   3.847  13.104  0.2713  0.7742 -1.1904
  833MOL0     H12430   8.319   3.683  13.049 -0.7930 -0.1147  1.1358
  833MOL0     H12431   8.233   3.755  13.339  1.1903 -0.2692  0.2252
  833MOL0     H12432   8.207   3.607  13.284 -1.5934  3.4451 -0.1558
  833MOL0     H12433   8.476   3.759  13.292  1.9688 -0.2748  0.3285
  833MOL0     H12434   8.467   3.585  13.246 -0.3952  0.4589  0.2415
  833MOL0     H12435   8.553   3.606  13.483 -0.9491 -2.7729  1.7303
  833MOL0     H12436   8.408   3.518  13.476 -1.0240 -0.0489  0.6469
  833MOL0     H12437   7.885   4.083  12.600  2.0476 -1.4324  4.5551
  833MOL0     H12438   7.798   4.293  12.535 -1.1334  4.3381  2.4820
  833MOL0     H12439   7.458   4.577  12.565 -0.9811  2.0227 -0.4882
  833MOL0     H12440   7.310   4.754  12.518 -0.4870  0.2473 -0.5798
  833MOL0     H12441   5.867   5.575  11.518 -0.1268  2.2189  0.2120
  833MOL0     H12442   5.844   5.773  11.348  1.2872  2.9172  1.4482
  833MOL0     H12443   5.951   5.971  10.981 -4.1427 -0.7670 -0.5972
  833MOL0     H12444   5.923   6.117  10.798  0.0906 -1.7872  0.8474
  833MOL0     H12445   5.794   6.562  10.908  0.2594  0.5171 -0.1897
  833MOL0     H12446   5.754   6.519  10.745 -3.3509  0.5740  1.0036
  833MOL0     H12447   5.657   6.355  10.983  0.6632  0.0841 -1.2344
  833MOL0     H12448   5.582   6.370  10.821 -1.6578  1.1208  1.2313
  833MOL0     H12449   5.440   6.498  11.011  0.5639 -1.2661  0.6647
  833MOL0     H12450   5.475   6.594  10.878  0.7780 -0.9033 -1.4559
  833MOL0     H12451   5.511   6.680  11.114 -0.4847  1.1825 -1.4284
  833MOL0     H12452   5.660   6.699  11.022  1.6544 -3.7204 -1.4929
  833MOL0     H12453   5.721   6.474  11.382  4.8917  2.3132 -1.2954
  833MOL0     H12454   5.895   6.439  11.089  1.3141  0.9055 -0.6392
  833MOL0     H12455   5.963   6.283  11.265  0.2752 -1.9242  0.8858
  834MOL0     O12456   4.470   2.597   6.540 -0.1179 -0.4752  1.0662
  834MOL0     C12457   4.463   2.698   6.467  0.2335 -0.0271 -0.8474
  834MOL0     O12458   4.352   2.760   6.439  0.2880 -0.0305  0.6906
  834MOL0     C12459   4.222   2.722   6.474  0.6780 -0.9368 -0.5150
  834MOL0     C12460   4.180   2.603   6.539 -0.6231 -0.6672 -0.1599
  834MOL0     C12461   4.043   2.582   6.556 -0.2596 -0.9605  0.2435
  834MOL0     C12462   3.948   2.681   6.514  0.1394 -0.3027 -0.0974
  834MOL0     O12463   3.816   2.658   6.550  0.4112 -0.5139  0.6323
  834MOL0     C12464   3.723   2.727   6.458  0.2666 -0.2533 -0.5248
  834MOL0     C12465   3.571   2.679   6.477 -1.2219 -0.7805 -0.1061
  834MOL0     C12466   3.548   2.526   6.454 -0.5519 -0.1531  0.1675
  834MOL0     C12467   3.402   2.491   6.418 -0.4137 -0.0001  0.7410
  834MOL0     C12468   3.384   2.338   6.428 -1.0287 -0.4702  0.2822
  834MOL0     C12469   3.234   2.296   6.400 -0.6939 -0.3660  0.0797
  834MOL0     C12470   3.138   2.360   6.498  0.2123  0.9580  0.3090
  834MOL0     C12471   3.179   2.352   6.646  0.5183 -0.4334  0.7188
  834MOL0     N12472   3.210   2.218   6.702  0.0694 -0.8857 -0.0835
  834MOL0     C12473   3.159   2.097   6.655  0.4131  0.0959 -0.8073
  834MOL0     C12474   3.216   2.005   6.741  0.7465 -0.2879 -0.8387
  834MOL0     C12475   3.165   1.864   6.750 -0.2154  0.0984 -0.8601
  834MOL0     C12476   3.011   1.852   6.797 -0.5290  0.2539  0.0191
  834MOL0     C12477   2.976   1.698   6.834 -0.5310  0.4621 -0.0255
  834MOL0     C12478   2.824   1.695   6.887  0.1897  0.5396  0.4133
  834MOL0     O12479   2.752   1.754   6.776 -0.1281 -0.0114 -0.0868
  834MOL0     C12480   2.613   1.763   6.777 -0.5741 -0.9131  0.0537
  834MOL0     C12481   2.538   1.754   6.894  0.2940  0.4515 -1.0023
  834MOL0     C12482   2.400   1.765   6.902 -0.1009  0.6506  0.2415
  834MOL0     C12483   2.335   1.763   7.041 -0.1769  1.0626 -0.0566
  834MOL0     C12484   2.331   1.800   6.782  0.0628 -0.8610 -0.7318
  834MOL0     C12485   2.180   1.803   6.773 -0.3252 -0.3434 -0.3038
  834MOL0     O12486   2.126   1.846   6.653 -0.3396 -0.2302 -0.0815
  834MOL0     C12487   1.995   1.853   6.619 -0.2086  0.5347 -0.1460
  834MOL0     C12488   1.896   1.782   6.682 -0.1668  0.0327  0.9757
  834MOL0     C12489   1.763   1.797   6.639  0.4693 -0.3462  0.3693
  834MOL0     C12490   1.731   1.868   6.529 -0.9223  0.3059 -0.0214
  834MOL0     O12491   1.600   1.847   6.493 -0.0829  0.0000  0.1985
  834MOL0     C12492   1.543   1.943   6.409 -0.3642  0.0424 -0.3696
  834MOL0     C12493   1.417   1.888   6.339 -0.0419 -0.3583 -1.0679
  834MOL0     C12494   1.326   1.995   6.281 -0.1279 -0.2512  0.7306
  834MOL0     C12495   1.209   1.929   6.195  0.5351 -0.4497  0.1917
  834MOL0     C12496   1.143   2.031   6.098 -0.2435  0.0841 -1.0598
  834MOL0     C12497   1.227   2.132   6.017  0.2324  0.2960 -0.1448
  834MOL0     C12498   1.144   2.206   5.916  0.0339 -0.4686 -0.2694
  834MOL0     C12499   1.223   2.297   5.829 -0.5816  0.6148  0.7280
  834MOL0    Cl12500   1.105   2.378   5.725  0.3425 -0.0178 -0.1273
  834MOL0     C12501   1.826   1.951   6.465  0.6741 -0.6153 -0.2698
  834MOL0     C12502   1.961   1.933   6.505 -0.8294 -0.2220  0.3010
  834MOL0     O12503   2.115   1.785   6.878  0.2441  0.4355 -0.1459
  834MOL0     C12504   2.405   1.827   6.669 -0.1950 -0.0191  0.7183
  834MOL0     C12505   2.545   1.795   6.657 -0.3897 -0.2848 -0.3775
  834MOL0     N12506   3.309   2.056   6.820 -0.6504 -1.4974  0.0358
  834MOL0     N12507   3.295   2.182   6.803  0.4425 -0.4242 -0.2381
  834MOL0     C12508   3.997   2.798   6.457 -0.7929 -0.0458 -0.5317
  834MOL0     C12509   4.133   2.811   6.428  0.3387 -0.8620 -0.5370
  834MOL0     C12510   4.595   2.763   6.419 -0.3598  0.4313 -0.4308
  834MOL0     C12511   4.717   2.726   6.477  0.2301  0.0118  0.9097
  834MOL0     C12512   4.841   2.784   6.449 -0.0556  0.1247 -1.0592
  834MOL0     C12513   4.848   2.875   6.341 -0.0228 -0.2226  0.2861
  834MOL0     O12514   4.973   2.924   6.307 -0.5821 -0.6061 -0.4680
  834MOL0     C12515   4.984   3.035   6.217  1.0717 -0.8829 -0.3173
  834MOL0     C12516   4.979   3.005   6.067 -0.1114 -0.3303 -0.0000
  834MOL0     C12517   5.015   3.127   5.984 -0.2553 -0.1165 -0.0133
  834MOL0     C12518   4.912   3.141   5.870  0.6265  0.2403 -0.1709
  834MOL0     C12519   4.966   3.227   5.769 -0.3038 -0.7065  0.8487
  834MOL0     C12520   5.007   3.313   5.687 -0.1269  0.3695  0.5536
  834MOL0     C12521   4.725   2.915   6.279  0.1933 -1.1008  0.2328
  834MOL0     C12522   4.603   2.862   6.327 -0.2389  0.3417 -0.1642
  834MOL0     H12523   4.245   2.530   6.585 -0.2350 -0.9345 -1.1284
  834MOL0     H12524   4.006   2.495   6.610 -3.7140  0.6263  0.7408
  834MOL0     H12525   3.733   2.833   6.481  0.3775 -0.5245  0.7513
  834MOL0     H12526   3.759   2.710   6.356  1.3300 -2.6479  0.1582
  834MOL0     H12527   3.547   2.711   6.579  2.0570  0.2593  0.4544
  834MOL0     H12528   3.516   2.750   6.415 -1.8047  1.0548  2.3363
  834MOL0     H12529   3.611   2.492   6.371 -2.2730  0.3338 -1.4210
  834MOL0     H12530   3.587   2.461   6.533 -2.1072 -1.0136  0.2798
  834MOL0     H12531   3.336   2.543   6.487 -0.5171  1.1454 -0.1777
  834MOL0     H12532   3.386   2.530   6.317 -1.1483 -1.2351  0.3620
  834MOL0     H12533   3.445   2.284   6.355 -2.4374 -0.5046 -0.9069
  834MOL0     H12534   3.401   2.300   6.530  0.2570 -0.2404  0.1626
  834MOL0     H12535   3.209   2.334   6.301 -0.6916 -3.0348 -1.0398
  834MOL0     H12536   3.224   2.187   6.390  1.1833 -0.5663  0.0863
  834MOL0     H12537   3.138   2.469   6.488  1.4665  0.9391 -0.1618
  834MOL0     H12538   3.039   2.317   6.484 -0.1078  2.3253 -2.0446
  834MOL0     H12539   3.093   2.390   6.703  0.0176  0.2067 -0.4120
  834MOL0     H12540   3.259   2.421   6.674  0.2620 -0.6710  2.1398
  834MOL0     H12541   3.088   2.075   6.576 -0.8088 -0.2370  0.3363
  834MOL0     H12542   3.175   1.817   6.651  2.0756 -1.2002 -0.0741
  834MOL0     H12543   3.234   1.807   6.813 -0.8903 -1.1024 -1.1700
  834MOL0     H12544   2.947   1.890   6.716 -3.7124  1.7409  2.9964
  834MOL0     H12545   3.002   1.909   6.890  0.8824  0.2994  0.1455
  834MOL0     H12546   3.040   1.660   6.914  0.3408  1.4894 -0.2215
  834MOL0     H12547   2.996   1.637   6.745 -2.7034 -0.4887  0.0768
  834MOL0     H12548   2.817   1.770   6.967 -3.6800  0.3947  0.4079
  834MOL0     H12549   2.783   1.603   6.928  1.2057 -0.5516 -0.9407
  834MOL0     H12550   2.584   1.728   6.988  1.5143  1.0639 -1.4176
  834MOL0     H12551   2.266   1.678   7.037  0.7667  0.2467  0.5764
  834MOL0     H12552   2.415   1.748   7.114  1.0754  1.8374 -1.2279
  834MOL0     H12553   2.268   1.849   7.049 -3.1637 -0.8873 -2.0630
  834MOL0     H12554   1.906   1.715   6.766 -5.1049 -1.0582  0.9691
  834MOL0     H12555   1.687   1.741   6.694  0.1623 -2.1519 -1.7461
  834MOL0     H12556   1.515   2.023   6.478 -0.4799  0.4580 -0.8905
  834MOL0     H12557   1.610   1.983   6.331 -0.1208  0.7453  0.1813
  834MOL0     H12558   1.450   1.830   6.253  0.2993 -0.8666 -0.5983
  834MOL0     H12559   1.370   1.834   6.421  4.0791  1.0900  2.7093
  834MOL0     H12560   1.388   2.047   6.208 -1.9020  1.1697  0.1872
  834MOL0     H12561   1.298   2.061   6.363 -1.0757  2.2868 -1.4858
  834MOL0     H12562   1.264   1.864   6.126 -0.4287  2.3938 -3.5277
  834MOL0     H12563   1.138   1.867   6.251  1.1685 -0.3479  1.1399
  834MOL0     H12564   1.079   2.092   6.163  0.2431  1.4844 -1.8451
  834MOL0     H12565   1.080   1.974   6.029 -0.2524  0.0214 -1.0005
  834MOL0     H12566   1.273   2.208   6.081  0.1871  1.8704 -1.9001
  834MOL0     H12567   1.292   2.067   5.958 -3.6731 -3.8484 -0.4608
  834MOL0     H12568   1.070   2.272   5.962 -1.5057  0.6697 -3.9731
  834MOL0     H12569   1.086   2.133   5.859  0.7834 -0.6565 -0.8038
  834MOL0     H12570   1.291   2.238   5.766 -1.9807 -2.3155  1.8272
  834MOL0     H12571   1.275   2.370   5.892  0.0344  1.5623 -0.7903
  834MOL0     H12572   1.813   2.021   6.384  0.6108  0.6718  0.8188
  834MOL0     H12573   2.045   1.981   6.456 -0.7645 -0.7773 -0.1403
  834MOL0     H12574   2.355   1.861   6.579  2.4851  2.5240  0.0648
  834MOL0     H12575   2.609   1.806   6.570  1.2503 -2.6390  0.4328
  834MOL0     H12576   3.932   2.877   6.422 -0.6048 -0.0161 -0.8125
  834MOL0     H12577   4.179   2.895   6.377  0.2672  0.5597  1.6025
  834MOL0     H12578   4.720   2.653   6.557  2.2407 -0.0933  0.7910
  834MOL0     H12579   4.933   2.765   6.504  0.6166  0.1035 -2.1554
  834MOL0     H12580   4.903   3.108   6.218  3.5395  2.0242 -0.6389
  834MOL0     H12581   5.076   3.090   6.237  1.4380 -1.1105 -1.3133
  834MOL0     H12582   4.886   2.958   6.033 -0.4801  0.4087 -0.0294
  834MOL0     H12583   5.057   2.933   6.039  0.3348  1.1713 -2.9673
  834MOL0     H12584   5.117   3.109   5.950  0.2397 -0.6580  1.6276
  834MOL0     H12585   5.007   3.214   6.049  1.0792 -0.5577  0.7796
  834MOL0     H12586   4.821   3.192   5.903  0.8881  1.0944 -0.7264
  834MOL0     H12587   4.888   3.044   5.827  0.6036 -0.9541  2.3576
  834MOL0     H12588   5.018   3.390   5.613 -0.4071 -0.1763 -0.0669
  834MOL0     H12589   4.710   2.984   6.197  0.5819 -0.1245  0.9633
  834MOL0     H12590   4.510   2.904   6.289  0.3031  3.2393  1.4147
  835MOL0     O12591   3.957   3.765  10.612 -0.5548  0.2032 -0.1075
  835MOL0     C12592   3.955   3.883  10.587 -1.2298  0.7625 -0.3965
  835MOL0     O12593   3.881   3.944  10.493  0.7189  0.1193  0.3031
  835MOL0     C12594   3.788   3.869  10.424 -0.4648 -0.2574  0.4610
  835MOL0     C12595   3.654   3.878  10.461  0.5316  0.0298 -0.0647
  835MOL0     C12596   3.554   3.817  10.389  0.1972  0.3656 -0.0022
  835MOL0     C12597   3.592   3.738  10.277 -0.4268  0.7460  0.3923
  835MOL0     O12598   3.507   3.687  10.189  0.3039 -0.4909 -0.3538
  835MOL0     C12599   3.387   3.761  10.162  0.4349  0.0946 -0.6552
  835MOL0     C12600   3.361   3.735  10.021 -0.9883  0.5389  0.6504
  835MOL0     C12601   3.210   3.729   9.981  0.6949 -0.4583  0.5787
  835MOL0     C12602   3.185   3.694   9.829 -0.7150  0.4477 -0.4161
  835MOL0     C12603   3.275   3.577   9.781  0.1316 -0.2508 -0.6451
  835MOL0     C12604   3.256   3.535   9.629  0.1858 -0.2788 -0.3110
  835MOL0     C12605   3.107   3.509   9.583 -0.1861 -0.0742  0.3084
  835MOL0     C12606   3.088   3.486   9.430  0.5673  0.0055 -0.2639
  835MOL0     N12607   2.958   3.414   9.411  0.5933  0.4863  0.3640
  835MOL0     C12608   2.940   3.279   9.366 -0.7788 -0.1755  0.2020
  835MOL0     C12609   2.814   3.253   9.393 -0.0148 -0.1127 -0.7806
  835MOL0     C12610   2.741   3.121   9.375 -0.1321 -0.3277  0.2237
  835MOL0     C12611   2.770   3.029   9.490  0.3174  0.2326 -0.6055
  835MOL0     C12612   2.723   3.088   9.621 -0.2503 -0.6682 -0.0180
  835MOL0     C12613   2.574   3.128   9.630 -0.0661 -0.4960  0.4866
  835MOL0     O12614   2.502   3.011   9.617 -0.4950 -0.6402 -0.1848
  835MOL0     C12615   2.379   2.987   9.665  0.1823 -0.8541  0.0592
  835MOL0     C12616   2.327   2.859   9.669  0.5417 -0.8198 -0.3933
  835MOL0     C12617   2.204   2.836   9.729  0.5538  0.5376  0.8081
  835MOL0     C12618   2.181   2.695   9.753  0.6740 -0.2798  0.0115
  835MOL0     C12619   2.122   2.944   9.768  0.5896 -0.0087 -0.3694
  835MOL0     C12620   1.995   2.926   9.838 -0.8731 -0.4487 -0.9323
  835MOL0     O12621   1.927   2.812   9.808 -0.5135 -0.5355 -0.1378
  835MOL0     C12622   1.826   2.777   9.890  0.5884  0.4761 -0.0815
  835MOL0     C12623   1.695   2.819   9.859 -0.0143  0.8050  0.2320
  835MOL0     C12624   1.595   2.797   9.947  0.7823 -0.0914 -0.0635
  835MOL0     C12625   1.611   2.733  10.069 -0.5320 -0.0189 -0.2728
  835MOL0     O12626   1.507   2.699  10.160 -0.5384 -0.2882  0.3542
  835MOL0     C12627   1.379   2.748  10.133  0.1760  0.4682  0.1615
  835MOL0     C12628   1.281   2.687  10.237  0.9560 -0.1522  0.5485
  835MOL0     C12629   1.141   2.754  10.246 -0.5326  0.3772  0.8565
  835MOL0     C12630   1.043   2.680  10.339 -0.4990 -0.5064 -0.0854
  835MOL0     C12631   0.997   2.550  10.308 -0.0069 -0.1791  0.1031
  835MOL0     C12632   0.933   2.533  10.169  0.1268  0.1784  0.2004
  835MOL0     C12633   0.803   2.443  10.185 -0.0758 -0.8166  0.1651
  835MOL0     C12634   0.761   2.426  10.041  0.4227 -0.3124 -0.9792
  835MOL0    Cl12635   0.657   2.291  10.022  0.6212  0.1443 -0.1309
  835MOL0     C12636   1.737   2.666  10.085  0.1740 -0.2053 -0.3719
  835MOL0     C12637   1.849   2.692   9.998  0.1512  0.0593  0.0559
  835MOL0     O12638   1.956   3.019   9.913 -0.0181  0.6001  0.0119
  835MOL0     C12639   2.173   3.080   9.765 -0.7954  1.1452 -0.0974
  835MOL0     C12640   2.301   3.096   9.711  0.5133  0.6855  0.9737
  835MOL0     N12641   2.759   3.365   9.450  0.5837 -0.7348 -0.3643
  835MOL0     N12642   2.841   3.460   9.461 -0.6132 -0.2942  0.1699
  835MOL0     C12643   3.724   3.714  10.251 -0.0423 -0.0737  0.1261
  835MOL0     C12644   3.818   3.778  10.322 -0.1821 -0.4384  0.5245
  835MOL0     C12645   4.047   3.967  10.667 -0.3652 -0.6243  0.4971
  835MOL0     C12646   4.109   3.913  10.778 -0.8427 -0.1822  0.4523
  835MOL0     C12647   4.213   3.983  10.842 -0.7173 -0.5423 -0.7036
  835MOL0     C12648   4.226   4.121  10.825 -0.7444  0.1425 -0.5092
  835MOL0     O12649   4.312   4.212  10.893  1.0607  0.6183  0.6995
  835MOL0     C12650   4.419   4.168  10.975 -0.6065 -0.2149  0.2573
  835MOL0     C12651   4.490   4.296  11.008 -1.0054  0.2452 -0.3122
  835MOL0     C12652   4.627   4.263  11.066  0.6202 -0.4160  0.2459
  835MOL0     C12653   4.718   4.382  11.083 -0.1218 -0.2492  0.3103
  835MOL0     C12654   4.650   4.478  11.175  0.3230  0.4585  0.3334
  835MOL0     C12655   4.596   4.549  11.247  0.1748 -0.6155 -1.2209
  835MOL0     C12656   4.164   4.179  10.714 -0.0441 -0.0460  0.1071
  835MOL0     C12657   4.075   4.101  10.632  0.1637  0.4651 -0.4214
  835MOL0     H12658   3.635   3.935  10.551 -2.0431  1.2694 -1.2783
  835MOL0     H12659   3.450   3.829  10.417  0.5462  2.8211  0.4803
  835MOL0     H12660   3.301   3.728  10.220 -0.8654  0.0106 -2.5460
  835MOL0     H12661   3.393   3.869  10.183 -2.1390 -0.1776  2.2303
  835MOL0     H12662   3.412   3.813   9.964 -2.5183  1.2694  0.2381
  835MOL0     H12663   3.410   3.641   9.995 -0.2041  0.2914  2.7935
  835MOL0     H12664   3.165   3.668  10.060 -0.4026 -1.1716 -0.5566
  835MOL0     H12665   3.169   3.829   9.998  0.1651 -0.3842 -1.0045
  835MOL0     H12666   3.081   3.664   9.810 -0.2669 -0.0339 -2.3073
  835MOL0     H12667   3.206   3.784   9.771  2.4693  0.4701  0.5863
  835MOL0     H12668   3.380   3.604   9.797 -0.0558  0.4557 -0.5818
  835MOL0     H12669   3.242   3.489   9.839 -5.2439  1.3754 -0.7071
  835MOL0     H12670   3.304   3.606   9.560  1.0504 -3.1450 -2.8849
  835MOL0     H12671   3.304   3.437   9.621  1.7132  0.2943  1.0878
  835MOL0     H12672   3.076   3.411   9.620 -0.6387  0.6781  1.9874
  835MOL0     H12673   3.034   3.584   9.617 -0.3959 -1.0211  2.0590
  835MOL0     H12674   3.176   3.436   9.389  1.7252  2.6995 -1.3094
  835MOL0     H12675   3.074   3.587   9.389 -1.9982  0.0226  0.4510
  835MOL0     H12676   3.015   3.210   9.328 -2.8126 -0.8723 -3.0126
  835MOL0     H12677   2.632   3.133   9.372  0.0653  1.6753 -0.1049
  835MOL0     H12678   2.778   3.072   9.284  2.3449 -1.0614  1.5353
  835MOL0     H12679   2.878   3.009   9.492  0.3359  0.3565  0.4949
  835MOL0     H12680   2.715   2.940   9.458  0.4502  1.5175 -5.1211
  835MOL0     H12681   2.790   3.170   9.648 -0.4399 -0.2277 -0.8270
  835MOL0     H12682   2.734   3.006   9.692 -3.8607  0.7159  2.4213
  835MOL0     H12683   2.548   3.193   9.546 -0.4191  0.4304  1.2907
  835MOL0     H12684   2.551   3.183   9.722 -0.6947  0.2285 -0.0959
  835MOL0     H12685   2.393   2.781   9.630  1.8455  0.7698 -1.4822
  835MOL0     H12686   2.264   2.625   9.742  0.8963  0.0959 -0.7735
  835MOL0     H12687   2.135   2.673   9.850  0.6940 -0.6214 -0.0540
  835MOL0     H12688   2.121   2.670   9.666  2.1781  0.9247 -1.4360
  835MOL0     H12689   1.684   2.879   9.769 -2.3885 -2.2023 -1.6752
  835MOL0     H12690   1.502   2.845   9.920 -0.0483 -2.4216 -1.6076
  835MOL0     H12691   1.382   2.857  10.140 -0.0172  1.1137 -5.3715
  835MOL0     H12692   1.354   2.717  10.031  0.2990  1.3928 -0.1612
  835MOL0     H12693   1.267   2.582  10.209 -1.5833 -0.2360  1.8670
  835MOL0     H12694   1.319   2.703  10.338 -0.1067  0.9689  0.7993
  835MOL0     H12695   1.095   2.763  10.148 -0.2687 -0.3662  0.6637
  835MOL0     H12696   1.152   2.858  10.280  0.9076  2.3867 -4.7480
  835MOL0     H12697   1.098   2.673  10.434  0.0083  0.4172 -0.2933
  835MOL0     H12698   0.957   2.742  10.365  0.2636  0.1761  0.9043
  835MOL0     H12699   0.924   2.525  10.385 -0.9038  3.8133  0.7952
  835MOL0     H12700   1.076   2.478  10.329 -0.8970 -0.1317  4.6565
  835MOL0     H12701   0.904   2.627  10.121  2.1015  0.1078 -1.2491
  835MOL0     H12702   1.007   2.482  10.107  2.4344 -0.4952  3.2126
  835MOL0     H12703   0.722   2.489  10.242  1.0940 -0.6352  1.7826
  835MOL0     H12704   0.822   2.346  10.233 -0.6705  0.0417  2.2330
  835MOL0     H12705   0.848   2.403   9.980  2.3989  1.2810  1.0851
  835MOL0     H12706   0.722   2.521  10.002 -0.1217  0.2712  0.8745
  835MOL0     H12707   1.749   2.601  10.171 -1.6539  2.1044  1.7489
  835MOL0     H12708   1.946   2.645  10.012  0.8834  0.3783 -3.1520
  835MOL0     H12709   2.122   3.164   9.811 -1.4253  1.1544 -0.7866
  835MOL0     H12710   2.341   3.195   9.694  1.8817  0.2084  1.2234
  835MOL0     H12711   3.756   3.651  10.169  2.0218  1.2111 -0.1315
  835MOL0     H12712   3.922   3.757  10.301  0.1065 -0.3699  1.7803
  835MOL0     H12713   4.082   3.817  10.819  0.7477 -0.6638  0.4710
  835MOL0     H12714   4.267   3.944  10.928 -2.8250 -1.3791  0.3132
  835MOL0     H12715   4.380   4.132  11.071 -3.3189  1.0344 -0.3056
  835MOL0     H12716   4.476   4.084  10.934  0.5156  1.0025 -0.7265
  835MOL0     H12717   4.441   4.331  11.099 -0.6690 -3.6338  1.5488
  835MOL0     H12718   4.496   4.368  10.925  0.9245 -3.2578 -3.5325
  835MOL0     H12719   4.673   4.189  11.001  0.8462 -0.7191  0.7446
  835MOL0     H12720   4.606   4.228  11.168  0.4822 -2.1413 -0.3506
  835MOL0     H12721   4.738   4.426  10.985  2.7189 -0.8625  0.5468
  835MOL0     H12722   4.819   4.367  11.121 -0.2958  0.9546  1.2963
  835MOL0     H12723   4.543   4.609  11.319  0.6246 -0.3885 -1.0729
  835MOL0     H12724   4.177   4.285  10.694 -1.8560  0.4696  1.4155
  835MOL0     H12725   4.022   4.154  10.554  0.3637  0.6625 -0.4233
  836MOL0     O12726   8.110   9.613   1.172  0.3228  0.5029 -0.3714
  836MOL0     C12727   8.193   9.669   1.252  0.0343 -0.3718 -0.1399
  836MOL0     O12728   8.158   9.736   1.372  0.6737 -0.8994  0.3150
  836MOL0     C12729   8.022   9.754   1.389  0.3996  0.0980 -0.2287
  836MOL0     C12730   7.970   9.716   1.511  0.0315  0.8972 -0.5398
  836MOL0     C12731   7.839   9.760   1.546 -0.2226  0.1296 -0.6696
  836MOL0     C12732   7.756   9.829   1.460 -0.2171 -0.1171  1.2150
  836MOL0     O12733   7.635   9.851   1.513  0.6840  0.0231  0.7796
  836MOL0     C12734   7.558   9.951   1.447 -1.3323 -0.0074  0.2724
  836MOL0     C12735   7.419   9.942   1.502  1.0403 -0.4535  0.1504
  836MOL0     C12736   7.323  10.042   1.440 -1.3573  0.1076 -0.1596
  836MOL0     C12737   7.179  10.035   1.487  0.0340 -0.7928  0.7731
  836MOL0     C12738   7.091  10.123   1.400 -1.0602 -0.0371 -0.1819
  836MOL0     C12739   6.952  10.125   1.459  0.3357  0.2723 -1.3261
  836MOL0     C12740   6.859  10.222   1.381  0.1749 -0.6487  0.3558
  836MOL0     C12741   6.725  10.208   1.447 -0.2983  0.1481 -0.4949
  836MOL0     N12742   6.617  10.245   1.359 -0.6799 -0.5665 -0.4694
  836MOL0     C12743   6.530  10.352   1.391 -0.1848  0.4009  0.0518
  836MOL0     C12744   6.465  10.366   1.273  0.9232 -0.1274  0.3595
  836MOL0     C12745   6.366  10.476   1.235 -0.1896 -0.6854  0.7495
  836MOL0     C12746   6.370  10.526   1.090 -0.1164 -0.5898  0.1916
  836MOL0     C12747   6.282  10.424   1.018  0.3488 -0.2873 -0.4016
  836MOL0     C12748   6.274  10.469   0.874  0.4150  0.1786  0.1419
  836MOL0     O12749   6.175  10.383   0.814  0.6149  0.2485 -0.4366
  836MOL0     C12750   6.097  10.422   0.711 -0.8663 -0.3427  0.2348
  836MOL0     C12751   5.986  10.345   0.700  0.5327  0.3527 -0.2234
  836MOL0     C12752   5.898  10.356   0.591  0.2294  0.5646  0.7296
  836MOL0     C12753   5.776  10.263   0.576 -0.3458 -0.0457  0.2127
  836MOL0     C12754   5.939  10.458   0.490  1.1413 -0.2726 -0.3297
  836MOL0     C12755   5.854  10.483   0.368 -0.0034  0.4356  0.1234
  836MOL0     O12756   5.889  10.587   0.287 -0.3843 -0.4312 -0.1855
  836MOL0     C12757   5.807  10.618   0.182  0.1379 -0.5237  0.5185
  836MOL0     C12758   5.808  10.553   0.057 -0.3072  0.3634  0.2044
  836MOL0     C12759   5.720  10.584  -0.046 -0.2956 -0.2757  0.6215
  836MOL0     C12760   5.623  10.692  -0.032 -0.2268  1.1079  0.1783
  836MOL0     O12761   5.533  10.734  -0.128 -0.3134  1.0238  0.4290
  836MOL0     C12762   5.483  10.624  -0.209 -0.1695 -0.8055  0.3268
  836MOL0     C12763   5.332  10.670  -0.231  0.2751 -0.1036 -0.3314
  836MOL0     C12764   5.256  10.703  -0.101  0.8945 -0.0352 -0.5604
  836MOL0     C12765   5.109  10.742  -0.113 -0.3392  0.1749  1.0040
  836MOL0     C12766   5.035  10.809   0.001  0.0016  0.2558  0.0681
  836MOL0     C12767   5.005  10.712   0.119 -0.5291  0.3452 -0.6181
  836MOL0     C12768   4.939  10.771   0.239  0.0782 -0.3457 -0.4890
  836MOL0     C12769   5.022  10.884   0.311  0.2586 -0.0638  0.1967
  836MOL0    Cl12770   4.898  10.987   0.390  0.2258 -0.0318 -0.0943
  836MOL0     C12771   5.619  10.756   0.094  0.5633  0.6946  0.2020
  836MOL0     C12772   5.705  10.718   0.199  0.1538  0.1456 -0.0633
  836MOL0     O12773   5.773  10.401   0.340  0.3187  0.0882 -0.2933
  836MOL0     C12774   6.049  10.543   0.506  0.1017 -0.3115 -0.4160
  836MOL0     C12775   6.124  10.530   0.622  0.1883  0.0007  0.1566
  836MOL0     N12776   6.516  10.277   1.179 -0.3273  0.2248  0.2571
  836MOL0     N12777   6.603  10.202   1.238 -0.0532 -0.1653 -0.2909
  836MOL0     C12778   7.809   9.867   1.331 -0.5684  0.4372  0.1253
  836MOL0     C12779   7.950   9.837   1.300 -1.8106  0.3983 -0.6971
  836MOL0     C12780   8.334   9.655   1.211  0.4659 -0.8465  0.2252
  836MOL0     C12781   8.428   9.723   1.280 -0.1367 -0.5269  0.2802
  836MOL0     C12782   8.563   9.711   1.245 -0.7930 -0.0282 -0.0158
  836MOL0     C12783   8.608   9.630   1.144  0.3291 -0.7137 -0.1996
  836MOL0     O12784   8.737   9.614   1.111 -0.1947 -0.6205 -0.1426
  836MOL0     C12785   8.795   9.488   1.145 -0.2835  0.1693  0.0713
  836MOL0     C12786   8.932   9.468   1.081  0.1113  0.0620  0.6305
  836MOL0     C12787   9.047   9.535   1.159  0.4833 -0.0196  0.0576
  836MOL0     C12788   9.158   9.546   1.059 -0.8448  0.0003 -0.8184
  836MOL0     C12789   9.286   9.555   1.128  0.0178  0.0815 -0.1067
  836MOL0     C12790   9.375   9.576   1.201  0.1926  0.4904  0.0236
  836MOL0     C12791   8.509   9.573   1.065  0.0384 -0.3944 -0.7422
  836MOL0     C12792   8.375   9.584   1.101  0.2172 -0.5898 -0.2121
  836MOL0     H12793   8.031   9.676   1.591 -1.7121  0.4002  0.5932
  836MOL0     H12794   7.804   9.740   1.647  0.9905  4.6775  0.8953
  836MOL0     H12795   7.595  10.049   1.480 -0.6326  0.2733 -1.2497
  836MOL0     H12796   7.560   9.940   1.338  1.3609 -1.5239  0.3934
  836MOL0     H12797   7.379   9.841   1.486 -3.4634  1.3796 -1.9998
  836MOL0     H12798   7.417   9.943   1.611 -5.1850 -3.0785  0.5202
  836MOL0     H12799   7.368  10.141   1.450  3.1178 -1.8669  2.7258
  836MOL0     H12800   7.322  10.011   1.335  0.0661 -2.4551  0.4795
  836MOL0     H12801   7.132   9.937   1.477 -2.1913  0.3948 -1.5242
  836MOL0     H12802   7.178  10.071   1.590  1.7435 -2.2150  1.3226
  836MOL0     H12803   7.144  10.218   1.392  0.5640 -0.7772  1.2240
  836MOL0     H12804   7.084  10.079   1.300 -0.0128 -1.5704  0.3819
  836MOL0     H12805   6.910  10.024   1.459 -3.2160  1.5765 -0.0581
  836MOL0     H12806   6.963  10.152   1.565  2.1001  0.1738 -1.4607
  836MOL0     H12807   6.889  10.327   1.386  0.9331 -0.7157 -1.6400
  836MOL0     H12808   6.853  10.196   1.275  0.6574  0.1260  0.1277
  836MOL0     H12809   6.725  10.271   1.536 -0.5831 -1.3565  0.6127
  836MOL0     H12810   6.710  10.104   1.479  0.5236 -0.3422 -1.6236
  836MOL0     H12811   6.520  10.414   1.479 -0.6524 -0.6652  0.7780
  836MOL0     H12812   6.261  10.457   1.257 -1.3433  1.8561 -1.9317
  836MOL0     H12813   6.393  10.563   1.296 -3.4526  0.3751  0.8636
  836MOL0     H12814   6.474  10.520   1.057 -0.0887  0.0592  0.1440
  836MOL0     H12815   6.326  10.626   1.083  0.3293 -0.4532 -0.8471
  836MOL0     H12816   6.179  10.421   1.055  0.3838 -1.0585 -0.3652
  836MOL0     H12817   6.325  10.324   1.021  1.8992  0.2870 -1.8394
  836MOL0     H12818   6.373  10.461   0.827  0.8773 -0.8958  1.2330
  836MOL0     H12819   6.236  10.570   0.858 -1.0612 -0.5552 -1.3584
  836MOL0     H12820   5.973  10.274   0.781  0.3458  1.6194  0.8863
  836MOL0     H12821   5.734  10.235   0.673 -3.9394 -0.8168 -1.3778
  836MOL0     H12822   5.693  10.319   0.532  0.3369  1.4675  0.7698
  836MOL0     H12823   5.793  10.168   0.525 -0.5730 -0.2422  0.5012
  836MOL0     H12824   5.879  10.472   0.040 -1.0177  0.0153 -1.3085
  836MOL0     H12825   5.739  10.524  -0.135 -1.2192 -0.0086  0.2315
  836MOL0     H12826   5.543  10.590  -0.294 -1.4885 -1.6373 -0.3085
  836MOL0     H12827   5.472  10.531  -0.151  0.4265  0.3263  2.3393
  836MOL0     H12828   5.338  10.764  -0.287  1.8492  0.5408  0.8393
  836MOL0     H12829   5.283  10.590  -0.287 -1.3583  1.0669 -0.6734
  836MOL0     H12830   5.300  10.784  -0.042 -0.4455 -0.0356  0.4756
  836MOL0     H12831   5.266  10.616  -0.035  1.4423 -0.3961 -1.1009
  836MOL0     H12832   5.112  10.812  -0.196 -1.9961  0.0276  0.7846
  836MOL0     H12833   5.056  10.652  -0.147  2.0124 -0.6474 -0.7550
  836MOL0     H12834   4.941  10.842  -0.042  0.4564 -0.4464 -1.5176
  836MOL0     H12835   5.090  10.891   0.049  0.9183 -2.5951  4.5140
  836MOL0     H12836   4.940  10.634   0.080 -0.2780 -0.9554  1.4287
  836MOL0     H12837   5.094  10.659   0.156  1.0725  4.4247  2.1154
  836MOL0     H12838   4.915  10.700   0.318  2.6367 -0.4898  0.2421
  836MOL0     H12839   4.840  10.811   0.216 -1.7461 -2.0926  3.3652
  836MOL0     H12840   5.065  10.956   0.240 -0.6540 -1.8897 -2.3985
  836MOL0     H12841   5.096  10.837   0.376 -0.2221  0.6435  1.2807
  836MOL0     H12842   5.538  10.827   0.104 -0.3981 -0.2108 -0.7913
  836MOL0     H12843   5.701  10.763   0.298  1.0646  0.4657 -0.1542
  836MOL0     H12844   6.074  10.621   0.436  0.7258 -0.3239 -0.2196
  836MOL0     H12845   6.204  10.602   0.626 -0.7450  0.9965  2.5028
  836MOL0     H12846   7.763   9.931   1.255 -1.6498  2.3110  2.2209
  836MOL0     H12847   7.988   9.867   1.203 -1.3579 -0.3484 -0.7552
  836MOL0     H12848   8.401   9.771   1.373  0.1506  0.6776 -0.2412
  836MOL0     H12849   8.635   9.751   1.316 -1.0292  0.7904 -0.2180
  836MOL0     H12850   8.815   9.475   1.252  1.1605 -1.7474 -0.3684
  836MOL0     H12851   8.723   9.422   1.095  2.4657 -1.4297 -2.0850
  836MOL0     H12852   8.916   9.509   0.980 -3.3480  1.2521  1.4916
  836MOL0     H12853   8.941   9.363   1.054 -5.4107 -0.8441  1.0459
  836MOL0     H12854   9.071   9.479   1.250  0.5631 -0.0728  0.0028
  836MOL0     H12855   9.020   9.640   1.176  0.4195  0.1115 -0.8049
  836MOL0     H12856   9.139   9.637   1.001 -0.0137  0.6165 -0.1518
  836MOL0     H12857   9.164   9.458   0.994  2.3955 -2.2632  2.2030
  836MOL0     H12858   9.457   9.605   1.264  1.4520  0.6827 -1.6574
  836MOL0     H12859   8.539   9.503   0.988  0.1870 -0.8315 -0.2927
  836MOL0     H12860   8.294   9.530   1.052  0.6486 -0.6086 -0.9177
  837MOL0     O12861   5.879   9.106   7.602  1.7150 -0.0440  0.4999
  837MOL0     C12862   5.790   9.136   7.512 -1.1211  0.1490  0.2554
  837MOL0     O12863   5.802   9.248   7.425  0.7251  0.1280 -0.4902
  837MOL0     C12864   5.902   9.338   7.454 -0.7498  0.6783  0.4108
  837MOL0     C12865   5.986   9.377   7.350  0.0051  0.4343  0.2198
  837MOL0     C12866   6.062   9.488   7.371  0.4140 -0.9197 -0.7461
  837MOL0     C12867   6.070   9.556   7.488 -0.6176 -0.0187  0.1639
  837MOL0     O12868   6.145   9.668   7.493  0.2625 -0.6822  0.4361
  837MOL0     C12869   6.161   9.738   7.609  0.2528  0.2332 -0.5358
  837MOL0     C12870   6.285   9.831   7.607  0.1056 -0.2351 -0.6626
  837MOL0     C12871   6.265   9.972   7.537 -0.9887 -0.1682 -0.0909
  837MOL0     C12872   6.282   9.964   7.381  0.5247 -0.3223 -0.2845
  837MOL0     C12873   6.422   9.912   7.323 -0.3597 -0.9245 -0.8468
  837MOL0     C12874   6.544   9.998   7.377  0.3900  0.4231  0.1181
  837MOL0     C12875   6.670   9.922   7.333 -0.2277  0.1240 -0.5510
  837MOL0     C12876   6.798  10.006   7.375  0.0411  0.9181  0.1272
  837MOL0     N12877   6.812  10.014   7.522  0.3239 -0.0821 -0.3268
  837MOL0     C12878   6.854   9.915   7.608  0.2142 -0.0512  1.3063
  837MOL0     C12879   6.819   9.958   7.729 -0.1349 -0.1109  0.6141
  837MOL0     C12880   6.852   9.883   7.849  0.4485  0.0558  0.1895
  837MOL0     C12881   6.743   9.773   7.867  0.5328 -0.3532  0.1848
  837MOL0     C12882   6.598   9.824   7.877 -0.5776 -0.6119  0.4232
  837MOL0     C12883   6.561   9.887   8.006  0.3669  0.1360 -0.0937
  837MOL0     O12884   6.423   9.871   8.046  0.4089  0.6064 -1.0073
  837MOL0     C12885   6.336   9.965   8.004 -0.0998 -0.4160  0.4364
  837MOL0     C12886   6.232   9.964   8.087  0.9432 -0.9227  0.4574
  837MOL0     C12887   6.122  10.046   8.063 -0.1197 -0.2385 -0.4060
  837MOL0     C12888   6.009  10.009   8.149  0.0969 -0.2588  0.3598
  837MOL0     C12889   6.123  10.139   7.955  0.0154 -0.3999 -0.2150
  837MOL0     C12890   6.014  10.217   7.923  0.5009  0.4887 -0.1759
  837MOL0     O12891   5.907  10.229   8.008  0.0332 -0.4884  0.1863
  837MOL0     C12892   5.795  10.305   7.965 -0.4523 -0.0961 -0.1158
  837MOL0     C12893   5.741  10.402   8.056 -0.4601 -0.3283 -0.2223
  837MOL0     C12894   5.630  10.480   8.014 -0.8789 -0.6235 -0.1945
  837MOL0     C12895   5.580  10.483   7.885  0.1195  0.3757  0.7748
  837MOL0     O12896   5.472  10.563   7.851  0.5436 -0.6237  0.1787
  837MOL0     C12897   5.434  10.576   7.708 -0.4018  0.0517 -0.0515
  837MOL0     C12898   5.330  10.693   7.709  0.0950 -0.2295  0.4660
  837MOL0     C12899   5.203  10.669   7.795  0.4574  0.4970 -0.1374
  837MOL0     C12900   5.108  10.567   7.730 -0.7474  0.3041  0.5760
  837MOL0     C12901   4.996  10.526   7.827  0.3452  0.1416  0.6134
  837MOL0     C12902   4.867  10.481   7.740 -0.6362  0.0214  0.5694
  837MOL0     C12903   4.894  10.342   7.669  0.7825 -0.7380  0.2108
  837MOL0     C12904   4.926  10.230   7.771  0.3916 -0.7340  0.2108
  837MOL0    Cl12905   4.814  10.217   7.899  0.2194  0.2831 -0.1541
  837MOL0     C12906   5.627  10.381   7.796 -0.1661 -0.6250 -0.0350
  837MOL0     C12907   5.735  10.303   7.833  0.3792  0.3737  0.4826
  837MOL0     O12908   6.020  10.267   7.815 -0.0798  0.5981  1.0842
  837MOL0     C12909   6.243  10.144   7.869 -0.4109 -0.1242 -0.2050
  837MOL0     C12910   6.352  10.053   7.893  0.4174  0.8378  0.0231
  837MOL0     N12911   6.757  10.075   7.721 -0.3608  0.0689 -0.0087
  837MOL0     N12912   6.743  10.105   7.593  0.1752 -0.0848 -0.0975
  837MOL0     C12913   5.995   9.515   7.595  0.2255 -0.0361 -0.0395
  837MOL0     C12914   5.906   9.413   7.574 -0.5466  0.6408  0.4752
  837MOL0     C12915   5.689   9.037   7.489  0.2622 -0.9726  0.6506
  837MOL0     C12916   5.656   8.939   7.580 -0.3672  0.6183 -0.1947
  837MOL0     C12917   5.547   8.844   7.551  0.3002  0.0011  0.2262
  837MOL0     C12918   5.472   8.853   7.434 -0.1803  0.3188 -0.5058
  837MOL0     O12919   5.369   8.766   7.411  0.5908 -0.4240 -0.0220
  837MOL0     C12920   5.331   8.742   7.275 -0.7887  0.0625 -0.5950
  837MOL0     C12921   5.272   8.610   7.245  0.5936  1.0169 -0.4631
  837MOL0     C12922   5.265   8.593   7.089  0.3892 -0.5751  0.0591
  837MOL0     C12923   5.189   8.471   7.048  0.2548  0.0713  0.9143
  837MOL0     C12924   5.253   8.341   7.049 -0.2858  0.2860  0.0796
  837MOL0     C12925   5.313   8.242   7.019  0.4755 -0.1533 -0.2911
  837MOL0     C12926   5.498   8.961   7.350 -0.0415 -0.7609  0.5215
  837MOL0     C12927   5.608   9.047   7.369  0.5519  0.4889 -0.8449
  837MOL0     H12928   5.991   9.328   7.253 -1.0477 -2.2491  1.4195
  837MOL0     H12929   6.123   9.526   7.290  0.1534 -1.5896 -1.2706
  837MOL0     H12930   6.074   9.798   7.635  1.2019  0.5035  2.3603
  837MOL0     H12931   6.185   9.665   7.687  2.7632  0.1778 -1.2768
  837MOL0     H12932   6.296   9.861   7.712 -0.1608 -1.5468 -0.2474
  837MOL0     H12933   6.375   9.784   7.566  1.1179  0.7095  0.4199
  837MOL0     H12934   6.171  10.016   7.571 -1.4261 -0.4580 -0.9054
  837MOL0     H12935   6.342  10.038   7.579 -1.1827  1.0128 -1.5140
  837MOL0     H12936   6.206   9.902   7.333  0.1835 -0.5584  0.5415
  837MOL0     H12937   6.254  10.061   7.339 -1.9574  0.3517  2.5587
  837MOL0     H12938   6.444   9.808   7.348  1.4722 -0.2041  0.8204
  837MOL0     H12939   6.421   9.925   7.214  0.5614 -1.9008 -0.9928
  837MOL0     H12940   6.546  10.096   7.328  1.3070 -0.0523 -0.8489
  837MOL0     H12941   6.547   9.999   7.486 -1.1878  0.7095  0.1864
  837MOL0     H12942   6.668   9.823   7.379  3.0048 -0.2861 -1.0436
  837MOL0     H12943   6.657   9.924   7.224 -0.7961 -0.8234 -0.5040
  837MOL0     H12944   6.795  10.109   7.339  0.4024  0.8281 -0.1628
  837MOL0     H12945   6.888   9.954   7.339 -1.0859 -1.0467 -0.0099
  837MOL0     H12946   6.892   9.818   7.577  1.3189  0.6952  0.1970
  837MOL0     H12947   6.950   9.839   7.828  0.0298 -0.3269 -1.0851
  837MOL0     H12948   6.850   9.947   7.937  0.2143  2.4548 -1.4712
  837MOL0     H12949   6.777   9.715   7.953  3.0669 -0.9784 -1.1229
  837MOL0     H12950   6.751   9.708   7.779  2.6322  1.5195 -1.1105
  837MOL0     H12951   6.541   9.734   7.854 -2.0938  0.4742 -0.3044
  837MOL0     H12952   6.584   9.892   7.792 -0.3362 -0.3288  0.6062
  837MOL0     H12953   6.581   9.994   8.006  1.7767 -0.1041  0.2994
  837MOL0     H12954   6.626   9.843   8.083  0.9355  0.3672 -0.4330
  837MOL0     H12955   6.231   9.887   8.164 -3.1932 -2.2916 -0.6841
  837MOL0     H12956   5.919   9.978   8.095  0.7043 -1.3606 -0.0445
  837MOL0     H12957   6.017   9.920   8.211  0.6000 -2.3320 -2.4905
  837MOL0     H12958   6.005  10.093   8.220  1.4674  0.1673 -0.0383
  837MOL0     H12959   5.772  10.405   8.160 -2.7132 -2.4138  0.5949
  837MOL0     H12960   5.581  10.551   8.079  1.9813  0.3981  1.0031
  837MOL0     H12961   5.526  10.599   7.654  0.1170  1.5919  1.4113
  837MOL0     H12962   5.374  10.489   7.679 -0.3789 -0.3119  0.9277
  837MOL0     H12963   5.379  10.785   7.742  0.3687 -0.8824  1.9972
  837MOL0     H12964   5.301  10.701   7.604 -0.9159 -1.9792  0.5759
  837MOL0     H12965   5.155  10.764   7.816 -2.1995 -0.9879  0.9698
  837MOL0     H12966   5.233  10.633   7.894 -0.6939  3.7497  1.5285
  837MOL0     H12967   5.070  10.619   7.641  0.3373  3.6098  1.9022
  837MOL0     H12968   5.161  10.475   7.705  0.2619  0.5333  1.7645
  837MOL0     H12969   4.967  10.615   7.883 -0.1038  0.1225  0.4155
  837MOL0     H12970   5.039  10.445   7.888 -0.1390  0.9425  2.0742
  837MOL0     H12971   4.778  10.475   7.804  0.5247 -1.7354  2.1204
  837MOL0     H12972   4.863  10.556   7.660  2.7127  1.2727  1.4126
  837MOL0     H12973   4.961  10.339   7.582 -0.9352 -0.8714 -1.1673
  837MOL0     H12974   4.800  10.306   7.626  1.1112 -1.3189 -0.0416
  837MOL0     H12975   5.028  10.224   7.809  0.1976 -2.3381  0.5325
  837MOL0     H12976   4.916  10.129   7.729 -0.7898 -0.5006 -0.0975
  837MOL0     H12977   5.592  10.369   7.694  1.2994  0.2817 -0.6828
  837MOL0     H12978   5.794  10.239   7.768 -0.5456 -0.0903  0.0798
  837MOL0     H12979   6.240  10.206   7.780  1.6910 -0.6111 -0.6795
  837MOL0     H12980   6.440  10.051   7.829 -0.7008  2.6233 -1.6981
  837MOL0     H12981   5.982   9.574   7.684 -1.1978  0.5452 -0.5985
  837MOL0     H12982   5.838   9.389   7.655  3.7538  0.1336  4.4264
  837MOL0     H12983   5.712   8.926   7.672 -1.3374 -2.5133  0.0635
  837MOL0     H12984   5.526   8.770   7.628  0.1457 -1.2158 -0.9553
  837MOL0     H12985   5.262   8.826   7.256 -0.4833  1.4214  3.3984
  837MOL0     H12986   5.418   8.753   7.209  1.8958 -0.8462  2.5568
  837MOL0     H12987   5.175   8.592   7.294  1.0137 -0.1769 -0.0143
  837MOL0     H12988   5.342   8.539   7.289  2.5166  1.9181 -1.9406
  837MOL0     H12989   5.367   8.601   7.049  0.5666 -0.8202  0.4605
  837MOL0     H12990   5.213   8.679   7.045  1.8101 -0.6051 -1.7844
  837MOL0     H12991   5.149   8.503   6.951 -0.3725  0.1681  1.2005
  837MOL0     H12992   5.110   8.465   7.123 -0.4517  0.9829  0.2636
  837MOL0     H12993   5.364   8.148   7.008  0.8242  0.1150 -0.9920
  837MOL0     H12994   5.439   8.982   7.261  1.9942  1.8109 -0.3561
  837MOL0     H12995   5.619   9.118   7.288 -0.3830 -1.0355 -2.3775
  838MOL0     O12996  10.819   0.074   1.489  0.5809 -0.1730  0.9931
  838MOL0     C12997  10.723   0.153   1.499 -0.3111  0.4485  0.4517
  838MOL0     O12998  10.604   0.117   1.549  0.5469 -0.0044 -0.8232
  838MOL0     C12999  10.577  -0.016   1.565 -0.7509  0.7035  0.2050
  838MOL0     C13000  10.508  -0.046   1.682 -0.2265  0.8198  0.4190
  838MOL0     C13001  10.475  -0.185   1.704  0.5441  0.2865 -0.2088
  838MOL0     C13002  10.500  -0.278   1.605 -0.2252  0.0754 -0.6268
  838MOL0     O13003  10.457  -0.408   1.621 -0.3418  0.5578  0.5833
  838MOL0     C13004  10.559  -0.505   1.599  0.1819 -0.4876  0.9043
  838MOL0     C13005  10.539  -0.613   1.696 -0.0371  0.3916 -0.3619
  838MOL0     C13006  10.403  -0.688   1.672  0.1074  0.0541 -0.7298
  838MOL0     C13007  10.357  -0.804   1.760 -0.5857 -0.0509 -0.4225
  838MOL0     C13008  10.210  -0.825   1.733 -0.0506  0.4547 -0.5519
  838MOL0     C13009  10.154  -0.951   1.795  0.6978  0.5194 -0.0260
  838MOL0     C13010  10.034  -0.997   1.723 -0.8899 -0.3441  0.0553
  838MOL0     C13011   9.917  -0.895   1.729 -0.2840  0.5405 -0.0971
  838MOL0     N13012   9.795  -0.952   1.671 -0.1738  0.7047 -0.1384
  838MOL0     C13013   9.713  -1.038   1.729  0.2055 -0.4530 -0.4428
  838MOL0     C13014   9.633  -1.088   1.628 -1.2881 -0.2263  0.8172
  838MOL0     C13015   9.552  -1.205   1.623  0.7020  0.0904  0.3418
  838MOL0     C13016   9.453  -1.202   1.748  0.3253 -0.3460  0.1316
  838MOL0     C13017   9.323  -1.264   1.705  0.4856  0.0016  0.3800
  838MOL0     C13018   9.269  -1.370   1.798 -0.7200 -0.9259  0.3045
  838MOL0     O13019   9.192  -1.293   1.890 -0.0500 -0.5899 -0.7134
  838MOL0     C13020   9.048  -1.294   1.877  0.1012  0.8470  0.1342
  838MOL0     C13021   8.987  -1.419   1.869  1.2332  0.0254 -0.3717
  838MOL0     C13022   8.844  -1.426   1.854  0.4107  0.2852 -0.6587
  838MOL0     C13023   8.780  -1.561   1.866 -0.6265 -0.2015  0.1354
  838MOL0     C13024   8.770  -1.309   1.842 -0.5797 -0.0637  0.3647
  838MOL0     C13025   8.620  -1.302   1.837  0.0731 -0.0119 -0.0432
  838MOL0     O13026   8.561  -1.187   1.878  0.6898 -0.3706 -0.2384
  838MOL0     C13027   8.419  -1.189   1.903 -0.1822 -1.1146 -0.3871
  838MOL0     C13028   8.357  -1.229   2.022 -0.4020 -1.2643  0.4096
  838MOL0     C13029   8.218  -1.226   2.034  0.3726 -0.1587 -0.3743
  838MOL0     C13030   8.136  -1.209   1.922  0.3485 -0.0288 -0.2095
  838MOL0     O13031   8.004  -1.233   1.923 -0.0498 -0.4969  0.3073
  838MOL0     C13032   7.956  -1.312   1.810 -0.0775  0.0801 -0.1468
  838MOL0     C13033   7.811  -1.330   1.832 -0.1324 -0.6726 -0.2946
  838MOL0     C13034   7.725  -1.196   1.839  0.3606  0.9259  0.9314
  838MOL0     C13035   7.573  -1.230   1.820  0.0575  0.2219  0.3564
  838MOL0     C13036   7.490  -1.102   1.782  0.9622  0.0325  0.2278
  838MOL0     C13037   7.340  -1.136   1.790  0.7275 -0.5276 -0.3452
  838MOL0     C13038   7.252  -1.028   1.736 -0.5491  0.0664  0.6650
  838MOL0     C13039   7.214  -0.913   1.825  0.0210 -0.4344  0.0633
  838MOL0    Cl13040   7.099  -0.964   1.945 -0.2164 -0.1311  0.6973
  838MOL0     C13041   8.197  -1.159   1.805  0.1207  0.1174  0.6428
  838MOL0     C13042   8.340  -1.154   1.797  0.4477  0.2349 -0.3016
  838MOL0     O13043   8.560  -1.412   1.819 -0.5150  0.0625 -0.2232
  838MOL0     C13044   8.836  -1.187   1.843  0.3612 -0.9282 -0.1812
  838MOL0     C13045   8.976  -1.174   1.864  0.6695 -0.7016  0.1901
  838MOL0     N13046   9.675  -1.029   1.511  0.0073 -0.4380  0.4018
  838MOL0     N13047   9.767  -0.945   1.539 -0.4673 -0.7599 -0.7470
  838MOL0     C13048  10.564  -0.247   1.482  0.6546  0.1606  0.8145
  838MOL0     C13049  10.607  -0.117   1.470 -0.3277 -0.0426 -0.4054
  838MOL0     C13050  10.749   0.292   1.466  0.2708 -0.2490  0.3701
  838MOL0     C13051  10.636   0.382   1.462 -0.3130 -0.8454  0.0914
  838MOL0     C13052  10.655   0.517   1.427 -0.0212 -0.1167  0.3289
  838MOL0     C13053  10.777   0.571   1.399  0.0658  0.4010 -0.8865
  838MOL0     O13054  10.802   0.696   1.353  0.1099 -0.1850 -0.3284
  838MOL0     C13055  10.694   0.781   1.337  0.1057 -0.4531  0.2647
  838MOL0     C13056  10.752   0.919   1.313 -0.1475 -0.7396  0.4194
  838MOL0     C13057  10.846   0.921   1.192  0.1512 -0.1027 -0.0808
  838MOL0     C13058  10.886   1.062   1.165 -0.2611 -0.0701 -0.3380
  838MOL0     C13059  11.001   1.105   1.243  0.3228  0.2905  0.7581
  838MOL0     C13060  11.087   1.143   1.316 -0.2062 -0.1705 -0.1728
  838MOL0     C13061  10.885   0.489   1.404  0.1267  0.1689  0.0210
  838MOL0     C13062  10.873   0.349   1.437 -0.1964 -0.1269  0.3609
  838MOL0     H13063  10.489   0.030   1.757 -3.8307 -0.0536  0.5477
  838MOL0     H13064  10.424  -0.224   1.792  1.9102 -0.5232  0.2592
  838MOL0     H13065  10.535  -0.541   1.498  0.6628  0.1154  0.5660
  838MOL0     H13066  10.662  -0.467   1.594  1.0289 -2.7723 -0.7078
  838MOL0     H13067  10.620  -0.685   1.683  1.0403  1.7869 -1.7831
  838MOL0     H13068  10.540  -0.568   1.795  0.0914  0.2946 -0.3199
  838MOL0     H13069  10.322  -0.615   1.678 -0.0895 -0.1348 -1.0780
  838MOL0     H13070  10.411  -0.730   1.572 -2.3287 -1.5884 -0.3381
  838MOL0     H13071  10.414  -0.894   1.738  1.1062  0.8042  0.3137
  838MOL0     H13072  10.384  -0.791   1.865  0.9704 -0.7251 -0.7140
  838MOL0     H13073  10.151  -0.738   1.764  1.7782  3.0635 -3.7615
  838MOL0     H13074  10.192  -0.826   1.625  1.0288  1.3418 -0.7578
  838MOL0     H13075  10.222  -1.037   1.789  0.0057 -0.0337 -0.1041
  838MOL0     H13076  10.134  -0.942   1.902 -2.0121  1.8604 -0.5441
  838MOL0     H13077  10.056  -1.017   1.617 -0.7030 -0.7311  0.1643
  838MOL0     H13078   9.996  -1.091   1.765  0.6619 -0.2196  1.8443
  838MOL0     H13079   9.939  -0.802   1.676 -0.6246 -0.2874 -1.7473
  838MOL0     H13080   9.890  -0.876   1.833 -2.4315 -0.9790 -0.3211
  838MOL0     H13081   9.721  -1.074   1.831  1.4727  1.7763  0.2999
  838MOL0     H13082   9.492  -1.192   1.533  0.2010  1.6688  0.8599
  838MOL0     H13083   9.601  -1.302   1.614  0.5811  0.1084 -0.5562
  838MOL0     H13084   9.436  -1.096   1.768  3.1240 -0.0122  1.2352
  838MOL0     H13085   9.508  -1.251   1.829  1.1494 -1.8020 -1.2576
  838MOL0     H13086   9.344  -1.319   1.613  2.2827 -0.5469  1.0851
  838MOL0     H13087   9.247  -1.188   1.684  0.3013 -0.3740 -0.3504
  838MOL0     H13088   9.351  -1.419   1.851  1.6670  2.7535  0.3412
  838MOL0     H13089   9.214  -1.451   1.750 -1.7750 -0.0930  0.0760
  838MOL0     H13090   9.042  -1.512   1.861  0.8380 -0.0394 -3.0701
  838MOL0     H13091   8.858  -1.634   1.892 -1.2357 -0.4621  1.2644
  838MOL0     H13092   8.717  -1.550   1.954  0.6890  0.6169  1.0222
  838MOL0     H13093   8.730  -1.603   1.779  0.7704 -1.7839  0.0377
  838MOL0     H13094   8.420  -1.268   2.102  0.0976  0.9113  1.1694
  838MOL0     H13095   8.170  -1.266   2.123  2.2021 -0.6807  0.4152
  838MOL0     H13096   7.966  -1.264   1.712  1.1581 -0.2042 -0.1790
  838MOL0     H13097   7.999  -1.413   1.807 -0.8864 -0.3622  1.7296
  838MOL0     H13098   7.768  -1.379   1.744  1.4816  0.0327 -1.5210
  838MOL0     H13099   7.790  -1.379   1.928  0.1719 -1.3783 -0.5819
  838MOL0     H13100   7.767  -1.133   1.760 -2.5365  2.3530  0.3980
  838MOL0     H13101   7.744  -1.137   1.929  4.2269  0.1959  0.7879
  838MOL0     H13102   7.563  -1.317   1.754  0.2332 -0.6397  1.4505
  838MOL0     H13103   7.544  -1.265   1.919  0.1277  3.7069  1.7308
  838MOL0     H13104   7.518  -1.069   1.682 -2.0757  0.9036 -0.4428
  838MOL0     H13105   7.508  -1.017   1.848 -3.0071  0.0970  1.4814
  838MOL0     H13106   7.331  -1.226   1.729 -0.5551  0.3745 -1.5595
  838MOL0     H13107   7.310  -1.151   1.894 -1.2132 -0.6160 -0.8716
  838MOL0     H13108   7.161  -1.084   1.714  1.3974 -3.0098 -0.2237
  838MOL0     H13109   7.294  -0.981   1.646  2.4954  1.2673  2.5341
  838MOL0     H13110   7.163  -0.835   1.767 -0.0735 -0.1375  0.5366
  838MOL0     H13111   7.297  -0.867   1.880  0.2049 -0.2862 -0.3294
  838MOL0     H13112   8.133  -1.126   1.724 -1.7839 -0.3857  1.8760
  838MOL0     H13113   8.381  -1.115   1.704 -2.3276  1.9925 -0.8880
  838MOL0     H13114   8.771  -1.102   1.824  0.3145 -0.6475  1.1006
  838MOL0     H13115   9.030  -1.080   1.857 -1.2297  0.3262 -2.3920
  838MOL0     H13116  10.583  -0.320   1.404 -2.1351  0.5109 -0.3012
  838MOL0     H13117  10.661  -0.086   1.382 -1.0738  0.7575 -0.6028
  838MOL0     H13118  10.532   0.350   1.459 -1.3067  2.0732  0.1477
  838MOL0     H13119  10.560   0.567   1.421 -0.5944 -1.2096 -0.0358
  838MOL0     H13120  10.628   0.749   1.256  1.1311  0.2206 -0.8781
  838MOL0     H13121  10.642   0.781   1.434  1.8645  1.0525  1.2679
  838MOL0     H13122  10.792   0.957   1.407 -0.2340  0.7297 -0.1197
  838MOL0     H13123  10.675   0.996   1.299  1.1967  0.5391 -0.2275
  838MOL0     H13124  10.789   0.887   1.105 -1.9418 -0.8915  1.5354
  838MOL0     H13125  10.933   0.857   1.213 -0.2233 -0.0643  1.7524
  838MOL0     H13126  10.799   1.126   1.180  1.4640  1.6623  4.1308
  838MOL0     H13127  10.914   1.060   1.059 -1.7986  0.7344 -0.7765
  838MOL0     H13128  11.158   1.175   1.390 -1.8917  0.7960  1.0880
  838MOL0     H13129  10.987   0.520   1.384 -0.7106  2.2298 -1.4861
  838MOL0     H13130  10.963   0.290   1.447  0.2520 -0.2350 -3.1045
  839MOL0     O13131   5.185   4.370   9.074  0.2654 -0.0834 -0.0158
  839MOL0     C13132   5.193   4.486   9.040 -1.1875 -0.2086  0.8637
  839MOL0     O13133   5.087   4.561   8.995  0.1496 -0.2386  0.1671
  839MOL0     C13134   4.968   4.505   8.950 -0.1699 -0.2608  0.6539
  839MOL0     C13135   4.864   4.599   8.940 -1.0615  0.2128  0.6131
  839MOL0     C13136   4.730   4.558   8.911 -1.0235  0.5930  1.0102
  839MOL0     C13137   4.706   4.422   8.897 -0.0937 -0.1924  0.6477
  839MOL0     O13138   4.573   4.383   8.885 -0.7168 -0.1898  0.1047
  839MOL0     C13139   4.540   4.275   8.790 -1.2087 -0.1027  0.0753
  839MOL0     C13140   4.385   4.290   8.777 -0.8223 -0.5539  0.0159
  839MOL0     C13141   4.325   4.181   8.696 -0.7352  0.7359 -0.6107
  839MOL0     C13142   4.208   4.234   8.615  0.7747  0.0035  0.8311
  839MOL0     C13143   4.135   4.137   8.525  0.7832  0.8502 -0.4856
  839MOL0     C13144   4.017   4.193   8.449 -1.0972  0.7444  0.2518
  839MOL0     C13145   3.937   4.088   8.371 -0.3755 -0.0842  0.1296
  839MOL0     C13146   3.873   3.968   8.459 -0.4681 -0.3978 -0.8467
  839MOL0     N13147   3.748   4.018   8.515 -0.3027  0.1014  0.0245
  839MOL0     C13148   3.697   3.957   8.629 -0.1066 -0.0966 -0.2203
  839MOL0     C13149   3.563   3.950   8.617 -1.1120 -0.3676  0.1002
  839MOL0     C13150   3.457   3.883   8.695  0.5308 -0.4695 -0.1359
  839MOL0     C13151   3.431   3.733   8.668 -0.3181 -0.2859 -0.5288
  839MOL0     C13152   3.546   3.639   8.725  0.1002 -0.3793  0.6791
  839MOL0     C13153   3.558   3.514   8.645 -0.4240 -0.1425  0.5890
  839MOL0     O13154   3.465   3.403   8.667 -0.5363 -0.7713 -0.0085
  839MOL0     C13155   3.364   3.407   8.583  0.7329 -0.1234 -0.9489
  839MOL0     C13156   3.381   3.391   8.442  0.9804  0.4985 -0.7769
  839MOL0     C13157   3.271   3.374   8.347 -0.7163 -0.1664 -0.0341
  839MOL0     C13158   3.302   3.321   8.209  0.0361  0.4973 -0.6072
  839MOL0     C13159   3.145   3.384   8.407 -0.5078  0.3035  0.5122
  839MOL0     C13160   3.017   3.368   8.327  0.2641  0.2860  0.1169
  839MOL0     O13161   3.022   3.347   8.188 -0.5603 -0.2147 -0.0012
  839MOL0     C13162   2.901   3.351   8.123 -0.1440  0.3427  0.2340
  839MOL0     C13163   2.837   3.472   8.079 -0.7189 -0.5565  0.5778
  839MOL0     C13164   2.703   3.476   8.027  0.3367 -0.8562  0.3108
  839MOL0     C13165   2.633   3.359   8.015 -0.6774  0.8196  0.7248
  839MOL0     O13166   2.510   3.369   7.964  0.8359 -0.5883 -0.5806
  839MOL0     C13167   2.413   3.269   7.985 -1.0921 -0.8728  0.6433
  839MOL0     C13168   2.267   3.302   7.936  0.4878  0.2716  0.2905
  839MOL0     C13169   2.179   3.188   7.955  1.1060 -0.4641 -0.4014
  839MOL0     C13170   2.031   3.235   7.958 -0.1485 -0.1524 -0.6251
  839MOL0     C13171   1.932   3.135   7.990 -1.4552  1.1371 -0.6722
  839MOL0     C13172   1.785   3.190   7.983  0.3590  0.4014 -0.0396
  839MOL0     C13173   1.686   3.069   8.014 -0.2036 -0.8646  1.2060
  839MOL0     C13174   1.539   3.100   7.973 -1.4095  0.7316  0.4034
  839MOL0    Cl13175   1.433   2.981   8.044 -0.2248  0.0179 -0.3469
  839MOL0     C13176   2.700   3.238   8.056  0.0846 -0.6248  0.6714
  839MOL0     C13177   2.832   3.234   8.102  0.1225 -0.0431 -0.3070
  839MOL0     O13178   2.921   3.341   8.397  0.5492 -0.4735 -0.8910
  839MOL0     C13179   3.129   3.402   8.547 -0.1814  0.9991 -0.6504
  839MOL0     C13180   3.235   3.413   8.634  0.6329  0.0634 -0.6690
  839MOL0     N13181   3.537   4.026   8.506 -0.8455  1.1079 -0.2667
  839MOL0     N13182   3.642   4.068   8.443 -0.2053  0.5054 -0.2792
  839MOL0     C13183   4.807   4.331   8.896 -0.0631 -0.1494 -1.1902
  839MOL0     C13184   4.938   4.367   8.924  0.3507  0.2027 -0.9826
  839MOL0     C13185   5.311   4.560   9.055 -0.8813 -0.0263 -0.4937
  839MOL0     C13186   5.325   4.700   9.063  0.2025 -0.7055 -1.4451
  839MOL0     C13187   5.456   4.763   9.078 -0.0231 -0.1722 -0.0398
  839MOL0     C13188   5.571   4.685   9.085 -0.8084 -0.9412 -0.0147
  839MOL0     O13189   5.696   4.738   9.105  0.2669 -0.5116  1.0817
  839MOL0     C13190   5.825   4.667   9.107  0.3395  0.4253 -0.5029
  839MOL0     C13191   5.942   4.743   9.041 -0.1468  1.1387  0.6766
  839MOL0     C13192   5.995   4.872   9.111 -0.4591 -0.1263  0.5504
  839MOL0     C13193   6.109   4.826   9.213  1.1326 -1.0479 -0.2498
  839MOL0     C13194   6.050   4.777   9.339 -0.1730  0.1029 -0.1802
  839MOL0     C13195   6.006   4.739   9.443 -1.0545 -0.7468  0.1102
  839MOL0     C13196   5.558   4.546   9.074  0.8272  0.1827 -0.2459
  839MOL0     C13197   5.432   4.481   9.069  0.7167 -0.4979 -0.4155
  839MOL0     H13198   4.894   4.702   8.950  0.5017  0.0895 -1.9644
  839MOL0     H13199   4.654   4.633   8.888 -0.1938  0.6368 -2.0447
  839MOL0     H13200   4.601   4.299   8.702 -2.6343  0.6968 -0.7416
  839MOL0     H13201   4.570   4.180   8.833  1.4312  0.4358 -0.4290
  839MOL0     H13202   4.349   4.292   8.880  0.7536 -1.3941  0.6240
  839MOL0     H13203   4.378   4.387   8.728 -0.6723 -1.2537 -1.4638
  839MOL0     H13204   4.401   4.134   8.633  1.2674  0.7178  1.6844
  839MOL0     H13205   4.285   4.098   8.755 -0.5087  0.2560 -1.1218
  839MOL0     H13206   4.129   4.285   8.671  0.2429  0.0289  0.0624
  839MOL0     H13207   4.256   4.306   8.548  1.8108 -0.8132  0.6797
  839MOL0     H13208   4.197   4.082   8.454 -0.2837 -1.3954  0.2197
  839MOL0     H13209   4.107   4.058   8.595  0.8725  1.4542  0.2474
  839MOL0     H13210   3.949   4.247   8.516  0.3671  0.7589  1.7795
  839MOL0     H13211   4.056   4.262   8.374 -0.4368  0.0122 -0.0914
  839MOL0     H13212   3.864   4.148   8.317  1.3421  1.0412 -1.0491
  839MOL0     H13213   4.007   4.052   8.295 -2.7301 -2.2569 -1.1544
  839MOL0     H13214   3.943   3.933   8.536  2.4613  2.1064 -2.1686
  839MOL0     H13215   3.858   3.884   8.391  0.3552  1.0798 -2.9742
  839MOL0     H13216   3.750   3.916   8.715 -0.6878  0.3236  0.3422
  839MOL0     H13217   3.467   3.910   8.800 -2.6963 -0.4572  0.2699
  839MOL0     H13218   3.362   3.931   8.670  0.1980 -0.5913  0.8505
  839MOL0     H13219   3.405   3.712   8.563 -1.4979 -4.2022  0.3877
  839MOL0     H13220   3.346   3.700   8.729  0.2055  1.5681  1.3276
  839MOL0     H13221   3.513   3.612   8.826  2.5240 -1.1589  1.3274
  839MOL0     H13222   3.643   3.689   8.714 -1.8793  3.6449 -0.1457
  839MOL0     H13223   3.659   3.473   8.657 -1.4069 -3.1354 -0.3244
  839MOL0     H13224   3.552   3.548   8.541 -3.4038 -1.1518  0.3319
  839MOL0     H13225   3.483   3.381   8.406  1.4006  0.5286  0.3777
  839MOL0     H13226   3.264   3.394   8.137 -1.6166 -1.1638 -1.5050
  839MOL0     H13227   3.410   3.304   8.199  0.4622  0.1741  3.1608
  839MOL0     H13228   3.238   3.233   8.196 -0.0637  0.3359  0.7914
  839MOL0     H13229   2.887   3.568   8.089  0.6827 -0.9969 -1.5724
  839MOL0     H13230   2.648   3.567   8.004  2.1460  0.5699  1.4089
  839MOL0     H13231   2.443   3.171   7.947  3.3112 -0.6878  3.0247
  839MOL0     H13232   2.399   3.258   8.093 -2.0417 -3.5714  0.3199
  839MOL0     H13233   2.234   3.387   7.997  0.4391 -1.2352  2.4699
  839MOL0     H13234   2.251   3.325   7.830 -0.7758 -2.9497 -0.3144
  839MOL0     H13235   2.190   3.139   8.052  1.5626  0.4485  0.0201
  839MOL0     H13236   2.189   3.121   7.869 -3.0809 -0.0901 -1.4386
  839MOL0     H13237   2.014   3.306   8.039 -1.3995 -1.0001 -0.1169
  839MOL0     H13238   2.013   3.279   7.860  1.1956 -0.5302 -1.0643
  839MOL0     H13239   1.957   3.096   8.089  0.7422 -0.2124 -1.6933
  839MOL0     H13240   1.951   3.048   7.926 -0.1750  0.0078  1.1606
  839MOL0     H13241   1.762   3.275   8.048  0.5295  0.7511 -0.4351
  839MOL0     H13242   1.754   3.209   7.880 -0.9337 -2.2494 -0.2276
  839MOL0     H13243   1.692   3.062   8.123  2.7459 -2.1159  1.0722
  839MOL0     H13244   1.724   2.979   7.964  1.8054 -0.1444  1.3199
  839MOL0     H13245   1.531   3.097   7.864 -3.0661  2.0746  0.4555
  839MOL0     H13246   1.514   3.200   8.009  0.4072  1.2042  0.4701
  839MOL0     H13247   2.656   3.140   8.045 -0.2750 -0.6285  2.0123
  839MOL0     H13248   2.879   3.146   8.145 -0.5555 -0.1745  0.1825
  839MOL0     H13249   3.029   3.412   8.588 -0.4144 -0.1721 -0.9008
  839MOL0     H13250   3.209   3.414   8.740 -0.0404 -4.8058 -0.5431
  839MOL0     H13251   4.783   4.227   8.878 -0.2869 -0.3502  0.1500
  839MOL0     H13252   5.011   4.287   8.924  0.9985  0.7751 -1.8881
  839MOL0     H13253   5.238   4.765   9.065  1.2683  0.7508 -0.0786
  839MOL0     H13254   5.469   4.871   9.078 -1.5482  0.0503  0.9928
  839MOL0     H13255   5.836   4.653   9.215 -1.9966  2.1229  0.0378
  839MOL0     H13256   5.832   4.573   9.051  0.8529  0.2013 -0.0726
  839MOL0     H13257   5.912   4.769   8.939 -2.5195  3.2415  1.7941
  839MOL0     H13258   6.029   4.679   9.029  0.1433  1.7323 -0.6203
  839MOL0     H13259   5.924   4.934   9.168  0.0537  3.0848 -2.0336
  839MOL0     H13260   6.042   4.944   9.044 -0.0160  0.3020  1.3149
  839MOL0     H13261   6.175   4.910   9.238  0.7351 -0.2735 -1.6855
  839MOL0     H13262   6.173   4.750   9.168  1.9804  0.1134 -1.0740
  839MOL0     H13263   5.977   4.700   9.539  1.3402  0.0920  1.2528
  839MOL0     H13264   5.647   4.483   9.080  0.2889 -0.5712 -0.0444
  839MOL0     H13265   5.429   4.373   9.064 -0.0189 -0.6772  2.0625
  840MOL0     O13266   4.568   6.150   1.236 -0.1601 -0.4554  0.9082
  840MOL0     C13267   4.576   6.063   1.152 -0.5604  0.3518 -0.1512
  840MOL0     O13268   4.475   5.974   1.115  0.7976  0.0225  0.7326
  840MOL0     C13269   4.346   6.018   1.133 -0.2854 -0.6842 -0.5548
  840MOL0     C13270   4.271   6.002   1.258 -0.8133  0.1403  0.3044
  840MOL0     C13271   4.127   6.023   1.255  0.0688 -0.3846 -0.6409
  840MOL0     C13272   4.056   6.067   1.136  0.6109  0.8381 -0.4430
  840MOL0     O13273   3.919   6.086   1.135  0.7781 -0.0016  0.8985
  840MOL0     C13274   3.836   6.010   1.045  0.1027 -0.0984  0.0340
  840MOL0     C13275   3.696   6.073   1.048  0.7545 -0.5680  0.3256
  840MOL0     C13276   3.602   5.975   0.977  0.0700  0.6762  0.2492
  840MOL0     C13277   3.460   6.031   0.964  0.5900 -0.0017 -0.5555
  840MOL0     C13278   3.377   5.909   0.919  0.2767 -0.0890 -0.2356
  840MOL0     C13279   3.234   5.944   0.878 -0.1955  0.1054  0.4629
  840MOL0     C13280   3.146   5.816   0.864  0.1735  0.1133  0.0131
  840MOL0     C13281   3.007   5.861   0.813  0.4096  0.8024  0.8281
  840MOL0     N13282   2.918   5.743   0.767  0.3400 -0.2823  0.0819
  840MOL0     C13283   2.824   5.772   0.678  0.1015  0.3566  0.1322
  840MOL0     C13284   2.789   5.651   0.615  0.3613  0.0261 -1.0397
  840MOL0     C13285   2.680   5.638   0.513 -0.7163  0.3261  0.1179
  840MOL0     C13286   2.539   5.679   0.550  0.3452 -0.0247 -0.6109
  840MOL0     C13287   2.526   5.833   0.565 -0.0900 -0.3683  0.4947
  840MOL0     C13288   2.380   5.862   0.558 -0.2773 -0.1570 -0.2242
  840MOL0     O13289   2.290   5.814   0.658  0.6340 -0.0925  1.1098
  840MOL0     C13290   2.160   5.862   0.653  0.0917  0.0853  0.3807
  840MOL0     C13291   2.070   5.799   0.735  0.5998 -1.0336 -1.0905
  840MOL0     C13292   1.939   5.840   0.759 -0.2773 -0.8933 -0.2115
  840MOL0     C13293   1.858   5.754   0.847  0.0077  0.2976 -0.1195
  840MOL0     C13294   1.881   5.946   0.676 -0.5654 -0.6481  0.1845
  840MOL0     C13295   1.741   5.986   0.670 -0.1198  0.0212  0.1225
  840MOL0     O13296   1.711   6.085   0.582 -0.8521 -0.8889 -0.0180
  840MOL0     C13297   1.599   6.159   0.600 -0.6006 -0.7549 -0.6005
  840MOL0     C13298   1.573   6.220   0.724 -0.1726  0.0322  0.7310
  840MOL0     C13299   1.461   6.304   0.740 -0.6124 -0.0168  0.0923
  840MOL0     C13300   1.381   6.340   0.635  0.3244  0.3447  0.6779
  840MOL0     O13301   1.272   6.404   0.671 -0.5309 -0.1743 -0.1148
  840MOL0     C13302   1.196   6.465   0.557  0.5931  0.1348  0.0995
  840MOL0     C13303   1.118   6.589   0.598 -0.3303  0.6815  0.9153
  840MOL0     C13304   1.035   6.547   0.720  0.1870  0.4444  0.2459
  840MOL0     C13305   0.947   6.426   0.696 -0.1367 -1.2398 -0.1889
  840MOL0     C13306   0.850   6.436   0.571 -0.1135  1.5087 -0.4770
  840MOL0     C13307   0.746   6.535   0.592 -0.2311  0.0730  0.8432
  840MOL0     C13308   0.629   6.495   0.500  0.3857 -0.0891  0.3510
  840MOL0     C13309   0.518   6.591   0.519 -0.2016  0.6151  0.0486
  840MOL0    Cl13310   0.385   6.576   0.405 -0.2391  0.2193 -0.1136
  840MOL0     C13311   1.416   6.282   0.508  0.3309 -0.5669 -0.6578
  840MOL0     C13312   1.520   6.191   0.495  1.1220 -0.5107 -0.8964
  840MOL0     O13313   1.661   5.916   0.730  0.1894 -0.4681 -0.5894
  840MOL0     C13314   1.974   6.009   0.586  0.0359  0.0625  0.1281
  840MOL0     C13315   2.109   5.968   0.579 -0.5423  0.3520  0.3337
  840MOL0     N13316   2.856   5.553   0.683  0.0611  0.6198 -0.0455
  840MOL0     N13317   2.939   5.609   0.767  0.3229 -0.5438  0.5389
  840MOL0     C13318   4.134   6.098   1.023  0.0323  0.9987 -0.2846
  840MOL0     C13319   4.269   6.063   1.022 -1.1195  0.0984  0.0249
  840MOL0     C13320   4.705   6.048   1.088 -0.3477 -0.3063  0.1545
  840MOL0     C13321   4.824   6.078   1.163  0.0030  0.5519 -0.2568
  840MOL0     C13322   4.949   6.056   1.100  0.1074  0.0181 -0.4106
  840MOL0     C13323   4.957   6.022   0.966  0.0892  0.3732  1.3091
  840MOL0     O13324   5.068   5.996   0.892 -0.7522 -0.2568  0.6571
  840MOL0     C13325   5.143   5.874   0.930  0.9312 -0.0224  0.2007
  840MOL0     C13326   5.232   5.839   0.808  0.2165  0.2831  0.4355
  840MOL0     C13327   5.142   5.820   0.686  0.0302  0.8538  0.3456
  840MOL0     C13328   5.233   5.800   0.561 -0.3714  0.5785  0.7755
  840MOL0     C13329   5.307   5.924   0.526 -0.5782 -0.7836  0.8597
  840MOL0     C13330   5.360   6.033   0.490 -1.1586  0.3118  0.0549
  840MOL0     C13331   4.834   6.000   0.898 -0.1881 -0.1414  0.5051
  840MOL0     C13332   4.715   6.009   0.950  0.6347  0.3648  0.2503
  840MOL0     H13333   4.318   5.974   1.351  1.1894  1.6987 -0.1483
  840MOL0     H13334   4.086   6.016   1.355  1.5456 -0.3360 -0.0202
  840MOL0     H13335   3.883   6.021   0.947  1.1189  2.9117  0.7336
  840MOL0     H13336   3.820   5.906   1.076 -2.9356  0.2135 -0.1728
  840MOL0     H13337   3.667   6.097   1.150  2.7556 -2.8632  1.5382
  840MOL0     H13338   3.691   6.160   0.982  0.0805 -0.6763  0.2241
  840MOL0     H13339   3.633   5.956   0.874  1.8575 -0.9882  1.0083
  840MOL0     H13340   3.600   5.880   1.033  1.9669 -0.0930 -0.8978
  840MOL0     H13341   3.437   6.081   1.058 -1.3566 -1.1562 -0.3711
  840MOL0     H13342   3.453   6.109   0.887 -0.3498 -0.9989 -1.5264
  840MOL0     H13343   3.424   5.866   0.829  0.8298  1.9245 -0.9805
  840MOL0     H13344   3.386   5.829   0.993 -1.0710  0.8499  0.9912
  840MOL0     H13345   3.198   6.011   0.956 -0.9681 -1.5701  1.5926
  840MOL0     H13346   3.238   5.998   0.783 -0.0234 -0.1118  0.3459
  840MOL0     H13347   3.193   5.752   0.789 -2.7454  1.3896 -3.1651
  840MOL0     H13348   3.134   5.764   0.959 -0.1858  2.3476  1.2520
  840MOL0     H13349   3.022   5.932   0.731 -0.0034 -1.5614 -1.4366
  840MOL0     H13350   2.958   5.919   0.892  3.3758  0.7155  2.9045
  840MOL0     H13351   2.789   5.873   0.661  0.1108  0.0717 -1.8518
  840MOL0     H13352   2.716   5.684   0.421 -0.4815  0.5586  0.3238
  840MOL0     H13353   2.673   5.531   0.489  0.2488 -0.3919  2.6887
  840MOL0     H13354   2.506   5.632   0.643 -1.0060 -1.0288 -1.5593
  840MOL0     H13355   2.469   5.652   0.470  0.0952 -1.3089  0.0229
  840MOL0     H13356   2.571   5.891   0.483  3.1702 -0.7804  1.8271
  840MOL0     H13357   2.559   5.867   0.663 -1.5826  0.8788  0.5972
  840MOL0     H13358   2.350   5.836   0.456 -0.9752 -2.8196  0.5973
  840MOL0     H13359   2.377   5.972   0.557  1.1468 -0.0915 -1.7976
  840MOL0     H13360   2.121   5.723   0.792  1.7827  0.6466  0.1930
  840MOL0     H13361   1.773   5.697   0.807 -0.6123 -0.2948  1.9469
  840MOL0     H13362   1.925   5.687   0.901 -1.1142 -0.4055  0.4362
  840MOL0     H13363   1.814   5.815   0.925  1.8905  0.1903  1.0808
  840MOL0     H13364   1.647   6.197   0.800  1.0910 -2.0284 -0.9873
  840MOL0     H13365   1.428   6.350   0.833 -1.1045  0.5119 -0.3330
  840MOL0     H13366   1.251   6.517   0.479 -1.8183 -1.6164 -3.0089
  840MOL0     H13367   1.137   6.382   0.516  1.2368 -1.6507  2.5332
  840MOL0     H13368   1.180   6.675   0.625 -0.1996  1.7398 -2.3684
  840MOL0     H13369   1.056   6.619   0.513  0.8139  3.2323  0.8789
  840MOL0     H13370   0.963   6.625   0.747 -0.3754  0.6651 -1.7289
  840MOL0     H13371   1.095   6.520   0.808  2.3641  0.3992 -1.1881
  840MOL0     H13372   1.013   6.339   0.689  1.7642  0.1146  0.1277
  840MOL0     H13373   0.880   6.425   0.783  0.5491 -0.1300  0.3754
  840MOL0     H13374   0.805   6.336   0.568  2.1476  0.2374  2.5357
  840MOL0     H13375   0.900   6.467   0.479  0.3798  4.4599  0.6761
  840MOL0     H13376   0.713   6.549   0.695  0.3461 -0.1566  1.0639
  840MOL0     H13377   0.782   6.634   0.563 -0.0179 -0.2174  0.0762
  840MOL0     H13378   0.603   6.394   0.533 -0.8000  0.4955  1.3077
  840MOL0     H13379   0.646   6.489   0.393 -0.7140 -0.5013  0.1872
  840MOL0     H13380   0.560   6.692   0.512  2.9319 -0.3338  2.7538
  840MOL0     H13381   0.479   6.572   0.619 -0.9871  5.1382  0.8322
  840MOL0     H13382   1.361   6.297   0.415 -0.5709  0.3800  0.0080
  840MOL0     H13383   1.543   6.163   0.392 -0.3444  1.6520 -1.8996
  840MOL0     H13384   1.948   6.087   0.516 -0.3258 -0.6989 -0.6032
  840MOL0     H13385   2.160   6.029   0.505  0.2287 -0.6524  0.0231
  840MOL0     H13386   4.104   6.143   0.929 -0.6011  1.4205  0.1171
  840MOL0     H13387   4.329   6.085   0.935  1.5753  0.4130  1.8172
  840MOL0     H13388   4.806   6.126   1.258  0.8923 -3.0296  1.9026
  840MOL0     H13389   5.039   6.055   1.161  1.4042 -2.9905 -2.1550
  840MOL0     H13390   5.202   5.899   1.019 -0.0151 -2.6979  1.7049
  840MOL0     H13391   5.078   5.790   0.957 -1.6820  2.3006  1.6740
  840MOL0     H13392   5.299   5.753   0.820 -1.1398 -0.9304 -0.3861
  840MOL0     H13393   5.299   5.924   0.793  0.2128  0.1688 -0.2710
  840MOL0     H13394   5.081   5.911   0.682 -3.1451 -1.1308  0.7436
  840MOL0     H13395   5.079   5.731   0.696  1.3264 -0.2635 -0.9831
  840MOL0     H13396   5.169   5.767   0.479 -0.0481 -0.1915  0.8199
  840MOL0     H13397   5.305   5.721   0.586  0.5466  0.9157 -0.6778
  840MOL0     H13398   5.417   6.117   0.453 -1.0365  0.0673 -0.3246
  840MOL0     H13399   4.856   5.973   0.795  1.4008  2.6742  0.0178
  840MOL0     H13400   4.623   5.999   0.894  0.0212  2.9410  0.6980
  841MOL0     O13401   9.664   9.608   9.534  0.1114  0.5083 -0.3235
  841MOL0     C13402   9.776   9.585   9.578  0.0336  0.7637  0.0450
  841MOL0     O13403   9.822   9.636   9.698 -0.1358  0.6230 -1.0087
  841MOL0     C13404   9.733   9.620   9.807  0.9179  0.6959  0.4803
  841MOL0     C13405   9.630   9.527   9.811  0.0320  0.2516 -0.5148
  841MOL0     C13406   9.543   9.524   9.923  0.0872  0.7990 -1.1620
  841MOL0     C13407   9.554   9.611  10.029 -0.3017  0.3769  0.0908
  841MOL0     O13408   9.468   9.607  10.132  0.3236 -0.7814  0.5089
  841MOL0     C13409   9.365   9.506  10.159  0.4267  1.0852  1.0202
  841MOL0     C13410   9.240   9.581  10.211  0.0092  0.4132 -0.1383
  841MOL0     C13411   9.120   9.480  10.205 -0.5405  0.3183 -0.3300
  841MOL0     C13412   9.013   9.538  10.289 -0.0348  0.7338 -0.2727
  841MOL0     C13413   8.907   9.443  10.346  0.1153 -0.3004 -0.2965
  841MOL0     C13414   8.818   9.380  10.237 -0.5854  0.8620  0.5125
  841MOL0     C13415   8.695   9.314  10.280 -0.1865 -0.4774 -0.2478
  841MOL0     C13416   8.581   9.428  10.315 -0.7415  0.0884 -0.9843
  841MOL0     N13417   8.460   9.386  10.386 -0.1479 -0.0825  0.2005
  841MOL0     C13418   8.331   9.435  10.354  0.2844 -0.3905  0.1798
  841MOL0     C13419   8.240   9.362  10.426 -0.0933 -0.3414  0.2661
  841MOL0     C13420   8.092   9.374  10.442 -0.7213  0.3832 -0.1850
  841MOL0     C13421   8.033   9.400  10.306  0.4160  0.3717 -0.3422
  841MOL0     C13422   7.880   9.420  10.306  0.0863 -0.7386  0.2442
  841MOL0     C13423   7.841   9.497  10.183  0.1333  0.9538 -0.2102
  841MOL0     O13424   7.702   9.534  10.199  0.5278  0.2670  0.6960
  841MOL0     C13425   7.611   9.561  10.096 -0.8468 -0.3687 -0.0739
  841MOL0     C13426   7.653   9.617   9.976  0.1100  0.5801 -0.1419
  841MOL0     C13427   7.557   9.653   9.881  0.0263  0.1414 -0.1685
  841MOL0     C13428   7.607   9.716   9.758 -0.1450  0.5230 -0.4770
  841MOL0     C13429   7.420   9.621   9.907 -0.4823  1.0506  0.7633
  841MOL0     C13430   7.303   9.628   9.816  0.6322 -0.4332  0.7359
  841MOL0     O13431   7.177   9.588   9.858 -0.6857 -0.1417  0.1101
  841MOL0     C13432   7.077   9.597   9.764  0.2901  1.0111 -0.6116
  841MOL0     C13433   6.969   9.682   9.797 -0.0747 -0.6118  0.2647
  841MOL0     C13434   6.859   9.682   9.705  0.4457  0.6183  0.9319
  841MOL0     C13435   6.858   9.585   9.599 -0.5073  0.9338  0.9711
  841MOL0     O13436   6.765   9.573   9.504 -1.0223  0.5202  0.0218
  841MOL0     C13437   6.628   9.598   9.546 -0.7825  0.5817 -0.2184
  841MOL0     C13438   6.540   9.636   9.423 -0.0489  0.1140 -0.5277
  841MOL0     C13439   6.396   9.686   9.467  0.2306 -0.5994 -0.0853
  841MOL0     C13440   6.284   9.685   9.362 -0.2901  0.0994 -0.0709
  841MOL0     C13441   6.144   9.694   9.413 -1.2529  0.4612  0.0266
  841MOL0     C13442   6.026   9.722   9.313 -0.1077  0.1009 -0.1381
  841MOL0     C13443   6.002   9.606   9.208  0.0275  0.5211 -0.4510
  841MOL0     C13444   5.909   9.501   9.265 -0.6389  0.0696  0.7601
  841MOL0    Cl13445   5.834   9.394   9.136 -0.5642  0.0718 -0.1598
  841MOL0     C13446   6.968   9.499   9.586  0.1211 -0.0802  0.5708
  841MOL0     C13447   7.078   9.497   9.668  0.6794 -0.5852 -0.2595
  841MOL0     O13448   7.320   9.670   9.702  0.0671  0.2884  0.5840
  841MOL0     C13449   7.384   9.564  10.026  0.1614  0.6731  0.3928
  841MOL0     C13450   7.479   9.538  10.120  0.4258  0.5487 -0.1366
  841MOL0     N13451   8.314   9.278  10.507 -0.2665  0.6357 -0.7116
  841MOL0     N13452   8.444   9.293  10.485 -0.1898  0.7948 -0.5488
  841MOL0     C13453   9.659   9.694  10.026 -0.6838  0.4855  0.0213
  841MOL0     C13454   9.743   9.705   9.914 -0.3048 -0.1894  0.0374
  841MOL0     C13455   9.869   9.511   9.488 -0.1843  0.4453  0.3228
  841MOL0     C13456  10.001   9.480   9.524 -0.2870 -0.7495 -0.4289
  841MOL0     C13457  10.086   9.406   9.442  0.6540 -1.2590 -0.2819
  841MOL0     C13458  10.057   9.369   9.315  0.1674  0.3774  0.8565
  841MOL0     O13459  10.145   9.300   9.243  0.0611 -0.8173 -0.2756
  841MOL0     C13460  10.124   9.270   9.102 -0.2380 -0.6328 -0.5129
  841MOL0     C13461  10.046   9.146   9.089  0.4157 -0.4797 -0.1115
  841MOL0     C13462  10.132   9.038   9.149 -0.1195  0.3090  0.4094
  841MOL0     C13463  10.072   8.899   9.114 -0.2000 -0.1940  0.2764
  841MOL0     C13464  10.138   8.797   9.196 -0.2305 -0.0134  0.4896
  841MOL0     C13465  10.193   8.726   9.273 -0.5353 -0.0520  0.2073
  841MOL0     C13466   9.922   9.405   9.267 -0.3845 -0.9767  0.0790
  841MOL0     C13467   9.840   9.479   9.358 -0.1195  0.0620  0.0930
  841MOL0     H13468   9.605   9.455   9.734 -0.6206  0.2849 -0.3342
  841MOL0     H13469   9.467   9.447   9.930  1.0208 -0.0969 -0.4604
  841MOL0     H13470   9.329   9.448  10.073 -0.3282 -0.6555  2.4318
  841MOL0     H13471   9.403   9.437  10.236  0.2106 -1.1335 -0.7426
  841MOL0     H13472   9.256   9.613  10.315  1.1741 -1.4096  0.3057
  841MOL0     H13473   9.224   9.674  10.157 -0.1841  0.7047  0.4188
  841MOL0     H13474   9.091   9.468  10.100 -1.4239 -1.2966  0.0616
  841MOL0     H13475   9.150   9.381  10.242 -1.0333 -2.0146 -5.2459
  841MOL0     H13476   9.066   9.576  10.377  1.2369 -0.1440 -0.6240
  841MOL0     H13477   8.964   9.620  10.237 -2.5093 -0.8018 -0.5593
  841MOL0     H13478   8.960   9.359  10.394 -1.0315 -1.1685 -0.4994
  841MOL0     H13479   8.851   9.500  10.420  0.4743 -1.3810  0.8509
  841MOL0     H13480   8.793   9.458  10.164  2.3583 -0.3540 -2.0161
  841MOL0     H13481   8.873   9.305  10.180 -2.5809 -0.6953  0.5346
  841MOL0     H13482   8.664   9.257  10.193  2.5567  0.9552 -2.3429
  841MOL0     H13483   8.716   9.257  10.371  2.1865 -0.1366 -0.4992
  841MOL0     H13484   8.545   9.477  10.224 -3.3882  1.5417  0.7466
  841MOL0     H13485   8.627   9.503  10.380  0.7080 -0.1120 -1.7255
  841MOL0     H13486   8.309   9.515  10.284  2.0088  1.1478  1.2910
  841MOL0     H13487   8.056   9.274  10.468  3.1340 -0.2635  3.9244
  841MOL0     H13488   8.076   9.461  10.507  1.2290  0.9353 -0.3878
  841MOL0     H13489   8.051   9.312  10.243 -4.7577 -1.1670 -0.1433
  841MOL0     H13490   8.082   9.486  10.259 -3.7747  3.7938  0.8960
  841MOL0     H13491   7.845   9.470  10.397 -2.4518  0.3346 -1.1963
  841MOL0     H13492   7.846   9.317  10.298 -0.7882 -0.5351  1.1854
  841MOL0     H13493   7.860   9.429  10.100  1.2609  0.9860  0.0158
  841MOL0     H13494   7.901   9.587  10.167  0.6507  0.4411 -1.2397
  841MOL0     H13495   7.759   9.641   9.969  0.4689 -0.7249  0.3843
  841MOL0     H13496   7.592   9.648   9.673 -1.5736  1.1390 -0.7493
  841MOL0     H13497   7.564   9.812   9.729  2.9790  1.9197 -0.8887
  841MOL0     H13498   7.715   9.732   9.761  0.1536 -0.9164 -1.8008
  841MOL0     H13499   6.973   9.756   9.875  2.6338 -0.1091 -0.2347
  841MOL0     H13500   6.783   9.758   9.719  1.2160  1.1147  2.6088
  841MOL0     H13501   6.597   9.496   9.570 -1.5735  1.1240  1.1703
  841MOL0     H13502   6.616   9.667   9.630  0.6311  1.1679 -0.4787
  841MOL0     H13503   6.583   9.722   9.369  2.3348  1.4036  3.0999
  841MOL0     H13504   6.543   9.552   9.353  1.8870  0.1829 -0.5871
  841MOL0     H13505   6.400   9.778   9.525 -1.9285  0.3546 -1.3307
  841MOL0     H13506   6.369   9.611   9.542  0.0825 -0.3213  0.1392
  841MOL0     H13507   6.307   9.769   9.295 -1.5877  1.4466  1.0887
  841MOL0     H13508   6.296   9.590   9.309  0.7831  0.5196 -0.6222
  841MOL0     H13509   6.136   9.776   9.485 -1.1412  1.0651 -0.6341
  841MOL0     H13510   6.127   9.601   9.466  0.3928 -0.1964 -0.5452
  841MOL0     H13511   5.934   9.744   9.368 -1.0977 -2.1547 -0.7794
  841MOL0     H13512   6.065   9.801   9.249  1.1550  0.2887  0.8191
  841MOL0     H13513   6.092   9.550   9.186 -1.8046 -4.1836  2.4794
  841MOL0     H13514   5.956   9.643   9.116 -0.5197  0.1793 -0.3245
  841MOL0     H13515   5.826   9.548   9.319  1.0187  1.0801  2.5191
  841MOL0     H13516   5.967   9.433   9.328 -0.2548 -2.7468 -2.3199
  841MOL0     H13517   6.983   9.434   9.500 -1.3719  0.0234  0.2025
  841MOL0     H13518   7.170   9.443   9.650  0.1364 -1.5138 -0.3349
  841MOL0     H13519   7.280   9.549  10.053 -0.2517 -0.5477 -1.6459
  841MOL0     H13520   7.449   9.508  10.220  0.6977 -0.5404 -0.3689
  841MOL0     H13521   9.658   9.761  10.112 -0.9854  1.7977 -0.9696
  841MOL0     H13522   9.823   9.778   9.927 -0.7956 -0.0143  2.6016
  841MOL0     H13523  10.026   9.514   9.624  1.5263  0.3454 -1.1924
  841MOL0     H13524  10.186   9.387   9.481  0.8589 -0.0348 -0.1617
  841MOL0     H13525  10.089   9.351   9.038  0.4660  0.6527  0.6504
  841MOL0     H13526  10.231   9.261   9.082 -0.7299  0.9869 -4.7702
  841MOL0     H13527  10.011   9.110   8.991 -2.0619 -0.0949  0.5667
  841MOL0     H13528   9.959   9.158   9.154  0.9219 -0.3665  0.5510
  841MOL0     H13529  10.138   9.052   9.257  0.3695 -0.2537  0.4588
  841MOL0     H13530  10.234   9.038   9.107  0.2174 -2.1767  1.0949
  841MOL0     H13531  10.105   8.879   9.012  1.4166  0.4676  0.6269
  841MOL0     H13532   9.963   8.891   9.114 -0.2038 -0.1850 -0.2911
  841MOL0     H13533  10.235   8.660   9.347 -2.6094  0.7224  2.2100
  841MOL0     H13534   9.881   9.370   9.172 -2.4720 -0.5503  0.7565
  841MOL0     H13535   9.748   9.499   9.305 -0.1771  0.3242  0.2922
  842MOL0     O13536   6.849   9.301   6.010 -0.4208  0.0115  0.7700
  842MOL0     C13537   6.739   9.261   5.975  0.7954  0.0716 -1.0139
  842MOL0     O13538   6.712   9.135   5.919  0.5693  0.3254 -0.0044
  842MOL0     C13539   6.812   9.043   5.889  0.6515 -0.5488  0.2383
  842MOL0     C13540   6.926   9.009   5.972 -0.1930  0.7263 -0.2995
  842MOL0     C13541   7.014   8.906   5.937 -0.3496 -0.4799 -1.4533
  842MOL0     C13542   7.002   8.824   5.822  0.4123  0.0293  0.4509
  842MOL0     O13543   7.105   8.737   5.801  0.6885 -0.7016 -0.3042
  842MOL0     C13544   7.087   8.623   5.712  0.2393  0.8976 -0.1596
  842MOL0     C13545   7.219   8.599   5.646 -0.6190  0.5748  0.2840
  842MOL0     C13546   7.333   8.560   5.745  1.0646  0.0720 -0.1791
  842MOL0     C13547   7.299   8.433   5.832 -0.4927  0.1937 -0.0676
  842MOL0     C13548   7.429   8.390   5.916 -0.6177 -0.0413 -0.5175
  842MOL0     C13549   7.573   8.424   5.862 -0.9449 -0.7894 -0.3653
  842MOL0     C13550   7.683   8.342   5.944 -0.2760 -0.0844  0.4901
  842MOL0     C13551   7.814   8.340   5.882  0.4811 -0.3322 -0.4532
  842MOL0     N13552   7.890   8.462   5.915  0.2175  0.4080 -0.4227
  842MOL0     C13553   7.918   8.510   6.043  0.3366  0.0515  0.0232
  842MOL0     C13554   8.038   8.571   6.028 -0.5000  0.8470 -0.3425
  842MOL0     C13555   8.117   8.621   6.146  0.0898 -0.3155 -0.1642
  842MOL0     C13556   8.076   8.758   6.193 -0.0241 -0.2308 -0.4309
  842MOL0     C13557   8.135   8.802   6.337  1.1717  0.5837  0.3094
  842MOL0     C13558   8.114   8.696   6.440 -0.3521  0.2819  0.5942
  842MOL0     O13559   7.978   8.652   6.441  0.2504  0.1477 -0.0027
  842MOL0     C13560   7.933   8.557   6.529  0.5627  0.3868 -0.2655
  842MOL0     C13561   7.993   8.517   6.649  0.0768  0.0605  0.4969
  842MOL0     C13562   7.935   8.414   6.731 -1.0498 -0.6287  0.1042
  842MOL0     C13563   8.018   8.381   6.853  0.8630 -0.0552  0.0857
  842MOL0     C13564   7.811   8.353   6.695 -0.5115 -0.5448  0.1291
  842MOL0     C13565   7.740   8.243   6.766  0.3377 -0.3954  0.7828
  842MOL0     O13566   7.640   8.185   6.698  0.4943 -0.1588  0.1557
  842MOL0     C13567   7.574   8.078   6.751 -0.8687  0.0234 -0.3615
  842MOL0     C13568   7.439   8.087   6.795 -0.1893  0.2689  0.5890
  842MOL0     C13569   7.374   7.973   6.839  0.7150 -0.2173  0.9455
  842MOL0     C13570   7.448   7.852   6.858 -0.6043  0.6577  0.1843
  842MOL0     O13571   7.390   7.745   6.928 -0.4504  0.2908 -0.6688
  842MOL0     C13572   7.366   7.778   7.067 -0.7354  0.0012 -0.9815
  842MOL0     C13573   7.299   7.647   7.127 -0.8009 -0.6218  0.5879
  842MOL0     C13574   7.150   7.614   7.090 -0.2396  0.0374  0.0638
  842MOL0     C13575   7.057   7.733   7.136  0.0327 -0.4905  0.0549
  842MOL0     C13576   6.928   7.718   7.065  0.9616  0.9349  0.6045
  842MOL0     C13577   6.827   7.610   7.113 -0.2028  0.5405  0.3553
  842MOL0     C13578   6.799   7.618   7.256  0.0639  0.3886 -0.2898
  842MOL0     C13579   6.689   7.520   7.292  0.5614  0.1516 -0.8959
  842MOL0    Cl13580   6.691   7.510   7.469  0.6003  0.2288 -0.0093
  842MOL0     C13581   7.582   7.841   6.815  0.5824  0.2817 -0.8253
  842MOL0     C13582   7.643   7.954   6.761  0.1540  0.3999  0.2740
  842MOL0     O13583   7.769   8.221   6.878  1.3945 -0.1968  0.5698
  842MOL0     C13584   7.749   8.408   6.578 -0.5422  0.0005 -0.2505
  842MOL0     C13585   7.810   8.500   6.494  0.4730 -1.5763  0.5527
  842MOL0     N13586   8.084   8.579   5.901 -0.2147  0.6889 -0.6010
  842MOL0     N13587   7.991   8.514   5.832 -0.4669  0.0746  0.3353
  842MOL0     C13588   6.897   8.861   5.734  0.2440 -0.5820  0.7373
  842MOL0     C13589   6.808   8.967   5.768 -0.4677  0.7490  0.0895
  842MOL0     C13590   6.623   9.343   6.018  0.4805 -0.4320  0.0072
  842MOL0     C13591   6.630   9.461   6.096  0.4240  0.4623  0.1697
  842MOL0     C13592   6.512   9.535   6.113  0.5814 -0.1624 -1.3231
  842MOL0     C13593   6.390   9.503   6.056  0.7251  0.0728 -0.6979
  842MOL0     O13594   6.281   9.584   6.088 -0.1395  0.2510 -0.1152
  842MOL0     C13595   6.149   9.517   6.100 -0.2395 -0.0991 -0.2049
  842MOL0     C13596   6.069   9.549   5.978 -0.4442  0.4558  0.9868
  842MOL0     C13597   5.926   9.489   5.971 -0.2132  0.5279  0.2275
  842MOL0     C13598   5.841   9.519   6.092  0.4386  0.0417  0.0486
  842MOL0     C13599   5.708   9.466   6.072  0.9572  0.0879 -0.1759
  842MOL0     C13600   5.603   9.428   6.039  0.8248 -0.9217  0.0209
  842MOL0     C13601   6.388   9.383   5.987  0.0060 -0.3145 -0.6374
  842MOL0     C13602   6.500   9.303   5.964  0.3340 -0.2116 -1.0469
  842MOL0     H13603   6.951   9.072   6.056  3.1506 -2.5488  1.4330
  842MOL0     H13604   7.103   8.899   5.999 -0.3089  0.2886 -1.4055
  842MOL0     H13605   7.064   8.541   5.781  3.3144  0.8891  1.0242
  842MOL0     H13606   7.008   8.639   5.639  0.9518  0.3203 -1.0875
  842MOL0     H13607   7.215   8.524   5.567  1.3318 -2.0887  2.5322
  842MOL0     H13608   7.254   8.687   5.590  0.9564 -0.7948 -0.9822
  842MOL0     H13609   7.420   8.534   5.685  1.4404 -1.5546  0.9791
  842MOL0     H13610   7.360   8.649   5.802 -2.3055  0.8396  0.4557
  842MOL0     H13611   7.208   8.450   5.889  1.0166 -0.2502  2.6307
  842MOL0     H13612   7.287   8.351   5.760  0.5462  0.3306 -0.4214
  842MOL0     H13613   7.430   8.426   6.019  5.0301  1.5169 -0.7888
  842MOL0     H13614   7.426   8.280   5.921  0.4341 -0.0520  0.3565
  842MOL0     H13615   7.582   8.383   5.760 -0.5037 -1.8292  0.0767
  842MOL0     H13616   7.586   8.532   5.873  0.7024 -1.0569  0.6168
  842MOL0     H13617   7.681   8.387   6.044  0.3848 -2.4121  1.6281
  842MOL0     H13618   7.652   8.239   5.962  0.8594 -0.1587  2.3208
  842MOL0     H13619   7.817   8.295   5.782  2.0296 -2.1404  0.3446
  842MOL0     H13620   7.861   8.264   5.945  1.2671  1.0465  0.6830
  842MOL0     H13621   7.866   8.493   6.136 -1.1175 -2.8702 -1.2203
  842MOL0     H13622   8.106   8.553   6.230  1.6710 -0.1259  0.2223
  842MOL0     H13623   8.222   8.631   6.117  0.2355  0.8621  0.7424
  842MOL0     H13624   7.968   8.768   6.185 -0.0591 -1.9675 -4.5053
  842MOL0     H13625   8.100   8.839   6.125  2.3140 -0.0042  0.5604
  842MOL0     H13626   8.091   8.898   6.365 -0.8347  0.3469 -1.7369
  842MOL0     H13627   8.241   8.822   6.321  0.9763  1.2545 -0.2221
  842MOL0     H13628   8.145   8.732   6.539 -0.2630  0.5381  0.4728
  842MOL0     H13629   8.185   8.616   6.414  0.5216  1.3812 -0.5397
  842MOL0     H13630   8.081   8.570   6.684 -1.4313  3.9004 -0.9639
  842MOL0     H13631   8.052   8.277   6.852 -0.4065 -0.5040 -1.3922
  842MOL0     H13632   8.099   8.455   6.855  1.0258 -0.1970 -0.8785
  842MOL0     H13633   7.955   8.403   6.940 -1.7497 -0.3874 -1.5901
  842MOL0     H13634   7.389   8.183   6.783 -0.3681 -0.0717 -1.7582
  842MOL0     H13635   7.270   7.985   6.867  0.2408  0.6935 -1.0301
  842MOL0     H13636   7.464   7.777   7.116 -1.0525  0.3074 -0.3294
  842MOL0     H13637   7.317   7.874   7.085  1.3383  0.3518  4.6304
  842MOL0     H13638   7.355   7.561   7.089 -2.6593 -1.9192  0.6507
  842MOL0     H13639   7.307   7.656   7.236 -0.7945  1.0977  0.4608
  842MOL0     H13640   7.115   7.524   7.142 -0.6675  0.3711  0.3613
  842MOL0     H13641   7.160   7.596   6.982  2.4285 -0.0995  0.2698
  842MOL0     H13642   7.042   7.738   7.244 -1.8907 -3.2846  0.0218
  842MOL0     H13643   7.097   7.829   7.101 -1.2218 -0.9315 -2.9470
  842MOL0     H13644   6.930   7.718   6.956 -1.7410  1.0293  0.4741
  842MOL0     H13645   6.871   7.812   7.073  2.4729  1.9747 -0.3292
  842MOL0     H13646   6.735   7.614   7.054 -0.0350 -1.2484 -0.0877
  842MOL0     H13647   6.880   7.522   7.075  1.2090  1.4319  0.1928
  842MOL0     H13648   6.757   7.717   7.278 -1.3526 -0.2621  0.1021
  842MOL0     H13649   6.884   7.587   7.316 -0.4218 -1.3566 -0.4468
  842MOL0     H13650   6.715   7.416   7.268 -0.6834 -1.5776  4.0220
  842MOL0     H13651   6.590   7.542   7.251 -0.2356 -1.6946 -0.1253
  842MOL0     H13652   7.643   7.756   6.845 -0.8578 -0.1080  1.1842
  842MOL0     H13653   7.740   7.948   6.713 -0.1211  1.5333 -0.4608
  842MOL0     H13654   7.655   8.365   6.543 -0.0745  1.3034 -3.3869
  842MOL0     H13655   7.764   8.543   6.406 -1.4989 -0.2707  2.1231
  842MOL0     H13656   6.886   8.837   5.629  0.0273  1.3682  0.2838
  842MOL0     H13657   6.727   8.975   5.697  0.8987 -0.5044 -1.7113
  842MOL0     H13658   6.726   9.488   6.137  1.6201  0.8036 -2.6361
  842MOL0     H13659   6.516   9.622   6.176 -1.5381 -1.1705  0.3259
  842MOL0     H13660   6.175   9.412   6.114  3.9203  0.8021  0.2905
  842MOL0     H13661   6.100   9.548   6.193  0.8015  1.4444 -0.1329
  842MOL0     H13662   6.123   9.521   5.887 -1.2530 -0.5381  0.7872
  842MOL0     H13663   6.060   9.657   5.968 -0.6590  0.5130  1.7159
  842MOL0     H13664   5.928   9.380   5.965 -4.4684  0.2540  0.3103
  842MOL0     H13665   5.875   9.524   5.880  2.2416 -1.6542 -2.1962
  842MOL0     H13666   5.844   9.628   6.104  2.5431 -0.0847  0.9435
  842MOL0     H13667   5.879   9.489   6.189 -0.5219  1.3297  0.8588
  842MOL0     H13668   5.510   9.400   5.994  0.0987  0.9222  0.3011
  842MOL0     H13669   6.293   9.350   5.946 -1.4472 -0.4148  2.5287
  842MOL0     H13670   6.491   9.209   5.912 -1.0301 -1.2319  0.9255
  843MOL0     O13671   4.415   8.569   8.218 -0.8959  0.1676  0.0634
  843MOL0     C13672   4.352   8.499   8.133 -0.1436  0.2190  0.4436
  843MOL0     O13673   4.224   8.474   8.118  0.5554 -0.0637  0.2776
  843MOL0     C13674   4.139   8.534   8.215  0.0479  0.1412  0.5966
  843MOL0     C13675   4.045   8.626   8.172  0.4258  0.9804  0.4660
  843MOL0     C13676   3.951   8.682   8.257 -0.0812  0.2468 -0.0775
  843MOL0     C13677   3.956   8.647   8.394 -0.1057  0.0456  0.2981
  843MOL0     O13678   3.854   8.682   8.471  0.0754 -0.7207  0.2081
  843MOL0     C13679   3.888   8.741   8.596  1.1058  0.0199  0.3013
  843MOL0     C13680   3.833   8.886   8.608 -0.0622  0.7366  1.1200
  843MOL0     C13681   3.687   8.872   8.638  0.3254 -0.2859 -0.5285
  843MOL0     C13682   3.613   9.010   8.598 -0.2496 -0.0131  0.2394
  843MOL0     C13683   3.469   9.007   8.613 -0.0762 -0.0157 -1.4111
  843MOL0     C13684   3.409   9.139   8.557  0.0985  0.0017  0.0412
  843MOL0     C13685   3.257   9.136   8.524 -0.1495  0.5473 -0.0389
  843MOL0     C13686   3.213   9.030   8.430  0.4870 -0.0605  0.5074
  843MOL0     N13687   3.072   9.059   8.406  0.0591  0.5673  0.1891
  843MOL0     C13688   3.012   9.083   8.285 -0.3602 -0.9579  0.0879
  843MOL0     C13689   2.881   9.110   8.305 -0.1277 -0.6413  0.4745
  843MOL0     C13690   2.766   9.134   8.201  0.1848 -0.3097 -0.4040
  843MOL0     C13691   2.694   9.269   8.221 -0.9430  0.0531 -0.6664
  843MOL0     C13692   2.580   9.297   8.140  0.6442  0.1468  1.0156
  843MOL0     C13693   2.501   9.420   8.179 -0.1591  0.4100  0.4176
  843MOL0     O13694   2.372   9.419   8.107 -0.9203 -0.3884  0.2157
  843MOL0     C13695   2.290   9.528   8.114  0.4880 -0.1521  1.0534
  843MOL0     C13696   2.179   9.515   8.031 -0.8974  0.1757 -0.2313
  843MOL0     C13697   2.087   9.617   8.019 -0.2372 -0.0308 -1.7168
  843MOL0     C13698   1.987   9.598   7.911  0.1958  0.8952 -0.3042
  843MOL0     C13699   2.104   9.736   8.100 -0.2337  0.6691  0.1238
  843MOL0     C13700   2.000   9.852   8.100  0.0593  0.8419  0.3815
  843MOL0     O13701   1.919   9.860   8.000 -0.0602 -0.5363  0.1402
  843MOL0     C13702   1.807   9.938   7.991  0.0178  0.0049 -0.4776
  843MOL0     C13703   1.757  10.022   8.092 -0.5506 -0.0457 -0.3985
  843MOL0     C13704   1.618  10.070   8.083  0.0298 -0.9685 -0.4109
  843MOL0     C13705   1.543  10.045   7.969 -0.6925  0.4532  0.4416
  843MOL0     O13706   1.416  10.093   7.964  0.2218  0.5703 -0.4214
  843MOL0     C13707   1.369  10.160   7.844  0.2412 -0.5833 -0.8212
  843MOL0     C13708   1.247  10.255   7.882  0.6189  0.9015 -0.2024
  843MOL0     C13709   1.280  10.373   7.974  0.2794  0.0854  0.1664
  843MOL0     C13710   1.163  10.461   8.000 -0.1622 -0.4082 -0.1352
  843MOL0     C13711   1.213  10.595   8.059  0.3386 -0.8015  0.3211
  843MOL0     C13712   1.082  10.690   8.065 -0.5738 -0.3375 -0.2131
  843MOL0     C13713   1.104  10.821   8.138  0.5886 -0.8794 -1.2708
  843MOL0     C13714   1.233  10.890   8.093  0.3852  0.0799  0.5909
  843MOL0    Cl13715   1.232  10.906   7.918 -0.3892 -0.2325 -0.1981
  843MOL0     C13716   1.605   9.967   7.864  0.8380 -0.1658  1.2266
  843MOL0     C13717   1.724   9.901   7.886 -0.2930 -0.8767 -0.3360
  843MOL0     O13718   2.005   9.928   8.194 -0.7006  0.3988 -0.3873
  843MOL0     C13719   2.211   9.742   8.192 -0.3737 -0.2250 -0.2368
  843MOL0     C13720   2.309   9.636   8.197  0.4721  0.1253 -0.1768
  843MOL0     N13721   2.865   9.097   8.444  0.2564  0.2065 -0.0858
  843MOL0     N13722   2.969   9.057   8.491  0.3270 -0.3829  0.0210
  843MOL0     C13723   4.046   8.552   8.444 -0.4855 -1.0074  1.2559
  843MOL0     C13724   4.145   8.502   8.348  1.3108 -0.0738  0.4220
  843MOL0     C13725   4.429   8.443   8.026  0.1270  0.4354  0.5040
  843MOL0     C13726   4.574   8.443   8.026 -0.0769 -0.5109 -0.4248
  843MOL0     C13727   4.654   8.372   7.934  0.6961 -0.7157  0.7872
  843MOL0     C13728   4.591   8.290   7.840  0.1849 -1.0796 -0.3860
  843MOL0     O13729   4.678   8.223   7.753  0.4883 -0.6138 -0.4682
  843MOL0     C13730   4.611   8.105   7.692 -0.2164 -0.6714 -0.3424
  843MOL0     C13731   4.713   7.995   7.666 -0.4353  0.7467 -0.3550
  843MOL0     C13732   4.804   7.959   7.780 -0.1458 -0.3663 -0.7072
  843MOL0     C13733   4.843   7.816   7.760  0.3197 -0.5397  0.3503
  843MOL0     C13734   4.913   7.801   7.630 -0.9342  0.6807  0.0204
  843MOL0     C13735   4.999   7.792   7.546 -0.0393 -1.4776  0.5652
  843MOL0     C13736   4.452   8.295   7.839  0.4459  0.4722 -0.7125
  843MOL0     C13737   4.369   8.365   7.924  0.1790  0.7142  0.4125
  843MOL0     H13738   4.051   8.654   8.067  2.6744  1.2252  0.6151
  843MOL0     H13739   3.867   8.737   8.216 -1.1809 -1.9320 -0.8838
  843MOL0     H13740   3.848   8.675   8.673 -0.4297  0.2164 -0.2948
  843MOL0     H13741   3.997   8.748   8.607  0.8860  3.8898  1.5324
  843MOL0     H13742   3.877   8.948   8.687 -1.1623  2.9525  0.0802
  843MOL0     H13743   3.851   8.932   8.511  0.3624  0.8254  1.2410
  843MOL0     H13744   3.644   8.787   8.585  1.7579 -1.6883  0.4747
  843MOL0     H13745   3.661   8.861   8.744 -1.7469  1.1672 -0.8078
  843MOL0     H13746   3.643   9.102   8.649 -1.2382  1.6143 -1.9599
  843MOL0     H13747   3.638   9.035   8.495 -0.1898 -2.7137 -0.4954
  843MOL0     H13748   3.424   8.923   8.560 -0.1019  0.6486 -2.4583
  843MOL0     H13749   3.447   9.001   8.720  1.7878 -0.4730 -1.0163
  843MOL0     H13750   3.434   9.224   8.620 -1.3814  0.2816  0.2888
  843MOL0     H13751   3.456   9.160   8.460  2.1923 -0.8315  0.8045
  843MOL0     H13752   3.217   9.119   8.625 -1.1588  0.5814 -0.4215
  843MOL0     H13753   3.232   9.233   8.482  1.1741  0.5205 -0.9435
  843MOL0     H13754   3.223   8.933   8.480  4.2756  0.0133  0.1786
  843MOL0     H13755   3.273   9.026   8.339 -1.4592 -1.5030 -0.7825
  843MOL0     H13756   3.060   9.086   8.188 -1.6585 -0.8862 -0.5700
  843MOL0     H13757   2.793   9.128   8.095 -1.0808 -0.2118 -0.7484
  843MOL0     H13758   2.692   9.058   8.226 -1.1632  1.5045  1.4401
  843MOL0     H13759   2.762   9.352   8.202  2.1075 -1.5529  2.1778
  843MOL0     H13760   2.673   9.283   8.327  2.5689 -0.7281  0.2484
  843MOL0     H13761   2.513   9.211   8.155 -1.4573  1.4380 -0.4032
  843MOL0     H13762   2.601   9.293   8.032  2.3878  2.5439  1.2018
  843MOL0     H13763   2.553   9.511   8.149 -1.8692  0.8709 -1.4098
  843MOL0     H13764   2.491   9.426   8.288  0.3278 -1.1400  0.5701
  843MOL0     H13765   2.168   9.428   7.967  0.3169  0.3933 -0.7546
  843MOL0     H13766   1.972   9.685   7.846 -0.8318 -0.2379 -1.6545
  843MOL0     H13767   2.014   9.519   7.841  0.3583 -1.5330  2.3453
  843MOL0     H13768   1.889   9.589   7.957  0.0522  3.4902  0.0742
  843MOL0     H13769   1.811  10.031   8.186 -2.1824  0.0820  0.5621
  843MOL0     H13770   1.588  10.126   8.171  0.5562 -0.5885 -0.4634
  843MOL0     H13771   1.444  10.225   7.800 -1.0824  1.6675  0.0358
  843MOL0     H13772   1.337  10.083   7.774 -1.3747 -0.7933  0.0726
  843MOL0     H13773   1.214  10.295   7.785  0.9441  2.3078  0.2471
  843MOL0     H13774   1.174  10.194   7.936  2.0510 -1.4744 -0.7737
  843MOL0     H13775   1.366  10.430   7.938 -0.0763 -1.2252 -3.0569
  843MOL0     H13776   1.313  10.329   8.069 -2.1977 -3.3106 -0.3634
  843MOL0     H13777   1.127  10.477   7.898  0.4195  0.3260 -0.2400
  843MOL0     H13778   1.090  10.413   8.066 -0.5277  2.3946  1.6998
  843MOL0     H13779   1.273  10.645   7.982 -1.3108 -0.7925 -1.0220
  843MOL0     H13780   1.266  10.580   8.153  0.3934 -0.6259  0.3187
  843MOL0     H13781   1.052  10.721   7.965  2.4546  4.8334  0.1242
  843MOL0     H13782   1.000  10.632   8.108 -1.2467 -0.3800 -1.4916
  843MOL0     H13783   1.106  10.798   8.245 -1.2434  0.7258 -0.8364
  843MOL0     H13784   1.014  10.880   8.118  1.5112  0.6626 -1.0036
  843MOL0     H13785   1.320  10.832   8.127  0.2653  0.5255  1.7045
  843MOL0     H13786   1.250  10.993   8.125 -1.9334  0.1867  1.6463
  843MOL0     H13787   1.553   9.946   7.771  2.1080 -0.0197  0.4637
  843MOL0     H13788   1.767   9.833   7.813  0.9752  0.1539 -0.5794
  843MOL0     H13789   2.225   9.819   8.266  1.5493 -1.0748  0.3479
  843MOL0     H13790   2.385   9.643   8.275  2.3151  3.1538 -2.0304
  843MOL0     H13791   4.049   8.530   8.550 -1.3268 -1.7634  1.1372
  843MOL0     H13792   4.224   8.433   8.376  1.7333  0.3873  0.3961
  843MOL0     H13793   4.623   8.507   8.097 -3.2268  1.4791  0.1713
  843MOL0     H13794   4.762   8.378   7.932  0.6848 -0.5958  0.5639
  843MOL0     H13795   4.528   8.052   7.739  1.3591 -2.7523  0.2961
  843MOL0     H13796   4.570   8.147   7.600 -0.8359  1.9510  1.0541
  843MOL0     H13797   4.776   8.017   7.579  1.6005 -3.0952 -0.1076
  843MOL0     H13798   4.650   7.912   7.632 -1.3612  0.4751  1.8712
  843MOL0     H13799   4.755   7.958   7.878  0.0479  0.1163 -0.6010
  843MOL0     H13800   4.885   8.033   7.775 -0.7863  0.4959  1.0107
  843MOL0     H13801   4.754   7.751   7.758 -0.8315  0.9819 -1.0975
  843MOL0     H13802   4.912   7.776   7.834 -1.8893 -0.3445  2.6632
  843MOL0     H13803   5.065   7.810   7.464 -0.7428  0.4524  0.3644
  843MOL0     H13804   4.397   8.242   7.762 -3.6006  1.3363  1.3097
  843MOL0     H13805   4.262   8.355   7.912  0.4025 -3.8448  0.7017
  844MOL0     O13806  11.239   2.071   8.291 -0.6108 -0.3688 -0.4950
  844MOL0     C13807  11.330   2.008   8.346  0.9140 -0.2625 -0.2406
  844MOL0     O13808  11.330   1.875   8.393 -0.0926 -0.3377 -0.0360
  844MOL0     C13809  11.240   1.783   8.348 -0.1953  0.4241 -0.1023
  844MOL0     C13810  11.299   1.662   8.300 -0.1833  1.1658  0.4898
  844MOL0     C13811  11.224   1.555   8.246 -0.5294 -0.4904 -0.3419
  844MOL0     C13812  11.081   1.568   8.239  0.0737 -0.0010  0.5592
  844MOL0     O13813  11.002   1.458   8.194 -0.3355 -0.0719  0.1704
  844MOL0     C13814  10.916   1.492   8.088 -0.6678  0.4141 -0.3124
  844MOL0     C13815  10.814   1.380   8.063  0.2161 -0.1440 -0.0495
  844MOL0     C13816  10.719   1.371   8.180 -0.2854  0.2693 -0.4436
  844MOL0     C13817  10.627   1.485   8.195 -0.0164  0.5998  0.5849
  844MOL0     C13818  10.521   1.454   8.305 -0.9993 -0.5011  0.3201
  844MOL0     C13819  10.441   1.574   8.365 -0.4500  0.4694 -0.6449
  844MOL0     C13820  10.383   1.547   8.506 -0.5194  0.7314  0.3779
  844MOL0     C13821  10.465   1.611   8.619  0.0555  0.2931  0.6723
  844MOL0     N13822  10.579   1.527   8.678  0.1937  1.1528  0.9791
  844MOL0     C13823  10.692   1.527   8.610  0.4854  0.1182 -0.3387
  844MOL0     C13824  10.764   1.439   8.677  0.0476  1.5126  0.7991
  844MOL0     C13825  10.901   1.413   8.620 -0.1259  0.5791 -0.1291
  844MOL0     C13826  11.000   1.531   8.629  0.0412  0.9410  0.2940
  844MOL0     C13827  11.139   1.486   8.601  0.3950  0.4865 -0.1978
  844MOL0     C13828  11.245   1.584   8.651  0.4821 -1.1345 -0.5253
  844MOL0     O13829  11.375   1.557   8.592 -0.1838 -0.2086 -0.1646
  844MOL0     C13830  11.481   1.635   8.615 -0.0425 -0.5907 -0.5073
  844MOL0     C13831  11.484   1.755   8.687 -0.4826  0.0214  0.2814
  844MOL0     C13832  11.596   1.840   8.699 -0.1354 -0.2232  0.5265
  844MOL0     C13833  11.574   1.987   8.750 -0.1116  0.1974  0.1096
  844MOL0     C13834  11.721   1.786   8.654 -0.7597 -0.2326  0.1850
  844MOL0     C13835  11.853   1.854   8.669  0.0774  0.1193  0.0118
  844MOL0     O13836  11.952   1.806   8.600 -0.3230 -0.6832  1.0112
  844MOL0     C13837  12.078   1.869   8.599 -0.5622 -0.8368 -0.2563
  844MOL0     C13838  12.112   2.002   8.568  0.0959 -0.4892 -0.1672
  844MOL0     C13839  12.244   2.045   8.551  0.3838  0.2932 -0.9603
  844MOL0     C13840  12.346   1.950   8.574 -0.3925  0.2558 -0.3075
  844MOL0     O13841  12.475   1.998   8.577 -0.1651 -0.2844 -0.6852
  844MOL0     C13842  12.578   1.938   8.661 -0.5275  0.9288  0.3923
  844MOL0     C13843  12.688   1.878   8.577 -0.5441  0.4480 -0.7086
  844MOL0     C13844  12.752   1.979   8.482 -0.1210  0.2063  0.4270
  844MOL0     C13845  12.802   1.930   8.346 -0.0243 -0.3588 -0.0330
  844MOL0     C13846  12.893   1.806   8.347 -0.4302 -0.3731  0.0871
  844MOL0     C13847  13.014   1.835   8.435  0.2611  0.5029 -1.0936
  844MOL0     C13848  13.119   1.723   8.404  0.1276  0.5486 -0.3051
  844MOL0     C13849  13.240   1.722   8.512 -0.3199  0.6110 -0.0798
  844MOL0    Cl13850  13.148   1.707   8.668  0.0112 -0.0564  0.0568
  844MOL0     C13851  12.316   1.810   8.580  0.1651 -0.0474  0.5110
  844MOL0     C13852  12.180   1.775   8.587 -0.4544 -0.0737 -0.3436
  844MOL0     O13853  11.857   1.937   8.750 -0.4731 -0.0914 -0.0855
  844MOL0     C13854  11.719   1.664   8.589 -0.2910  1.3710 -0.0378
  844MOL0     C13855  11.602   1.590   8.563 -0.3161 -0.1635  0.5785
  844MOL0     N13856  10.699   1.382   8.784 -0.0353 -0.3924 -1.1813
  844MOL0     N13857  10.576   1.430   8.772  0.1015 -0.0211  0.4261
  844MOL0     C13858  11.021   1.696   8.282 -0.1020  1.2061  0.4601
  844MOL0     C13859  11.102   1.801   8.326  0.0905 -0.4865  1.0568
  844MOL0     C13860  11.448   2.094   8.378  0.4025 -0.9906 -0.3624
  844MOL0     C13861  11.447   2.236   8.365  0.3962  0.5854  0.5814
  844MOL0     C13862  11.564   2.316   8.385 -0.3693 -0.2839 -0.1074
  844MOL0     C13863  11.681   2.258   8.429  0.0001  0.0196 -0.7737
  844MOL0     O13864  11.803   2.326   8.449  0.1526 -0.3588 -0.8866
  844MOL0     C13865  11.808   2.468   8.469  0.7247 -0.0802 -0.5552
  844MOL0     C13866  11.939   2.517   8.498  0.2825 -0.2166  0.5191
  844MOL0     C13867  11.952   2.668   8.522  0.1747 -0.5286 -0.4322
  844MOL0     C13868  11.908   2.707   8.665 -0.5491 -0.8660  0.2368
  844MOL0     C13869  11.935   2.858   8.677 -0.4643  0.1148 -0.0311
  844MOL0     C13870  11.988   2.967   8.701 -0.9666  0.4297  0.8124
  844MOL0     C13871  11.688   2.119   8.424 -0.5670  0.7426  0.2700
  844MOL0     C13872  11.569   2.038   8.405 -0.6803  0.8584 -1.5527
  844MOL0     H13873  11.405   1.648   8.321 -0.3208  0.3842  0.7170
  844MOL0     H13874  11.270   1.467   8.202  0.2915 -0.8940  1.2670
  844MOL0     H13875  10.864   1.584   8.118  1.0226  0.8439  1.5245
  844MOL0     H13876  10.976   1.521   8.002  2.0998 -0.8866  1.0177
  844MOL0     H13877  10.755   1.395   7.973 -0.5196 -2.7485 -0.0874
  844MOL0     H13878  10.876   1.293   8.041  2.0507 -0.1749  4.2007
  844MOL0     H13879  10.654   1.283   8.179  0.1428 -0.1198  1.4588
  844MOL0     H13880  10.779   1.348   8.268 -0.5922 -0.5913 -0.4507
  844MOL0     H13881  10.682   1.577   8.219  3.5384 -1.1672 -0.0750
  844MOL0     H13882  10.570   1.495   8.102  0.4832 -0.7076  0.1125
  844MOL0     H13883  10.449   1.381   8.267 -2.0915  1.7321 -2.2132
  844MOL0     H13884  10.570   1.404   8.389  0.3911  1.0458  0.4790
  844MOL0     H13885  10.500   1.666   8.362  0.0138  0.1476 -2.4609
  844MOL0     H13886  10.357   1.594   8.298 -3.2314 -2.1282  1.7116
  844MOL0     H13887  10.287   1.599   8.502 -0.7234  0.3960  0.7770
  844MOL0     H13888  10.363   1.443   8.533 -2.5758  0.8983 -0.2914
  844MOL0     H13889  10.403   1.641   8.703  0.9134 -2.6096  2.4926
  844MOL0     H13890  10.498   1.704   8.572 -4.2181  1.7522  0.1419
  844MOL0     H13891  10.711   1.592   8.525  0.5708 -0.2066 -0.5718
  844MOL0     H13892  10.942   1.325   8.672 -0.8109 -0.2831 -1.0005
  844MOL0     H13893  10.889   1.384   8.515  2.1114 -0.1428 -0.2363
  844MOL0     H13894  10.991   1.562   8.733  4.1817 -1.0230  1.4739
  844MOL0     H13895  10.982   1.619   8.567  0.3209  1.1778  0.5451
  844MOL0     H13896  11.149   1.474   8.493 -1.1735 -1.7957 -0.1660
  844MOL0     H13897  11.159   1.387   8.642 -0.1349  0.2657 -0.4552
  844MOL0     H13898  11.250   1.581   8.761  1.5821 -2.3080 -0.5830
  844MOL0     H13899  11.210   1.680   8.611  3.4105 -0.3340 -1.3945
  844MOL0     H13900  11.392   1.802   8.721 -0.2459  0.2764  0.5770
  844MOL0     H13901  11.556   1.987   8.858  0.3106  1.6177  0.1963
  844MOL0     H13902  11.650   2.061   8.724  0.7470 -0.4973  0.5457
  844MOL0     H13903  11.480   2.018   8.703 -1.3350  0.3134  2.4957
  844MOL0     H13904  12.038   2.081   8.559  0.9199  0.2079 -1.1997
  844MOL0     H13905  12.269   2.150   8.540  3.1570 -0.3072 -1.2314
  844MOL0     H13906  12.607   2.017   8.731  0.8764 -0.4515  1.4595
  844MOL0     H13907  12.526   1.862   8.719  0.6394  2.1151  3.2178
  844MOL0     H13908  12.764   1.852   8.651 -0.3844  1.2217 -0.5917
  844MOL0     H13909  12.656   1.791   8.519  2.1431 -1.5649  0.6320
  844MOL0     H13910  12.826   2.045   8.529  3.7587 -0.8733 -3.5753
  844MOL0     H13911  12.671   2.044   8.447 -0.4106 -1.3096 -1.8752
  844MOL0     H13912  12.716   1.917   8.280 -1.0565 -4.3138  1.7665
  844MOL0     H13913  12.862   2.008   8.299  1.2234  0.1176  2.1895
  844MOL0     H13914  12.933   1.791   8.246  1.1139  0.7216  0.4933
  844MOL0     H13915  12.823   1.725   8.367 -1.5862  0.7128  0.5779
  844MOL0     H13916  13.039   1.940   8.419 -3.5766  1.4395 -2.0738
  844MOL0     H13917  12.983   1.834   8.540  0.4467  1.0746 -1.0301
  844MOL0     H13918  13.170   1.746   8.310  2.4137  0.7965  0.9166
  844MOL0     H13919  13.071   1.625   8.404  0.4949  0.3084 -2.8107
  844MOL0     H13920  13.305   1.808   8.494  0.6047 -0.3583 -1.6043
  844MOL0     H13921  13.304   1.636   8.492  1.1702  1.4287  0.9862
  844MOL0     H13922  12.393   1.735   8.598 -1.7551 -1.9141  1.3400
  844MOL0     H13923  12.157   1.669   8.588  1.6888 -0.6048 -1.2854
  844MOL0     H13924  11.814   1.621   8.559 -1.1249 -0.2879 -0.4387
  844MOL0     H13925  11.608   1.488   8.525 -0.6464 -0.1003  0.3475
  844MOL0     H13926  10.913   1.705   8.269 -0.4708 -3.3410 -1.6924
  844MOL0     H13927  11.072   1.897   8.367 -0.8816 -0.0827 -0.5023
  844MOL0     H13928  11.352   2.288   8.354  0.7414  1.7921  2.7034
  844MOL0     H13929  11.580   2.422   8.370  1.5386 -0.4404  0.5553
  844MOL0     H13930  11.772   2.518   8.378  1.4883  1.6410  0.0433
  844MOL0     H13931  11.734   2.499   8.544  0.7201 -2.9336  0.7296
  844MOL0     H13932  12.006   2.492   8.415 -2.2902 -2.6109 -1.0046
  844MOL0     H13933  11.974   2.460   8.584  1.8152 -0.2209 -0.0850
  844MOL0     H13934  11.926   2.730   8.436 -0.6566 -0.4567 -0.1439
  844MOL0     H13935  12.057   2.699   8.520 -0.0439  0.4573  1.3827
  844MOL0     H13936  11.965   2.638   8.728 -0.5864 -2.7961 -1.7165
  844MOL0     H13937  11.800   2.696   8.677 -1.0464  2.9550  0.7379
  844MOL0     H13938  12.045   3.056   8.713  1.0077 -0.4582 -1.2794
  844MOL0     H13939  11.780   2.066   8.448 -1.8137 -2.4037 -1.2430
  844MOL0     H13940  11.572   1.930   8.407 -1.3206  0.8261  0.8369
  845MOL0     O13941  10.712   6.573   7.653  0.4079  0.5270 -0.4056
  845MOL0     C13942  10.788   6.612   7.567  0.1723  0.5198  0.7931
  845MOL0     O13943  10.772   6.578   7.431 -0.0896 -0.2082  0.1496
  845MOL0     C13944  10.675   6.495   7.397 -0.8555  0.3017  0.2750
  845MOL0     C13945  10.557   6.539   7.332 -0.1413 -0.6113 -0.0863
  845MOL0     C13946  10.452   6.448   7.302 -0.7011 -0.6120 -0.0283
  845MOL0     C13947  10.470   6.311   7.335  0.6989 -0.5321 -0.0945
  845MOL0     O13948  10.367   6.218   7.328 -1.0129 -0.2778  0.7565
  845MOL0     C13949  10.338   6.197   7.190  0.1005  0.3343 -0.0392
  845MOL0     C13950  10.224   6.106   7.189  0.0885 -0.7745  0.8258
  845MOL0     C13951  10.172   6.073   7.051  0.4873 -0.9124 -0.8683
  845MOL0     C13952  10.038   6.003   7.063 -0.4110 -0.0163 -0.5518
  845MOL0     C13953   9.985   5.955   6.926 -0.0554 -0.4903 -0.2133
  845MOL0     C13954  10.043   5.821   6.878 -0.5636  1.0113  0.2379
  845MOL0     C13955   9.979   5.779   6.742 -0.0579 -0.3335 -0.5379
  845MOL0     C13956   9.828   5.753   6.744 -0.0712 -0.2176  0.0397
  845MOL0     N13957   9.790   5.676   6.627  0.3447  0.3804 -0.2404
  845MOL0     C13958   9.722   5.724   6.515  0.1242 -0.1828  0.0883
  845MOL0     C13959   9.703   5.619   6.434  0.0347  1.2380  0.4309
  845MOL0     C13960   9.667   5.633   6.285  0.2661 -0.3318 -0.2997
  845MOL0     C13961   9.720   5.505   6.209  0.1345  0.6333  0.4498
  845MOL0     C13962   9.620   5.388   6.215 -0.3477  0.0864  0.1003
  845MOL0     C13963   9.655   5.293   6.103  1.0320 -0.0135 -1.3746
  845MOL0     O13964   9.568   5.177   6.096  0.3059 -0.0875 -0.1022
  845MOL0     C13965   9.603   5.067   6.172  0.4176 -0.3108 -0.7208
  845MOL0     C13966   9.712   5.059   6.257 -0.0357  0.7310  0.2470
  845MOL0     C13967   9.750   4.945   6.331 -0.2539  0.5581 -0.4740
  845MOL0     C13968   9.874   4.953   6.424 -0.0644 -0.0838 -1.1566
  845MOL0     C13969   9.669   4.829   6.327 -0.2456  0.5204  0.1027
  845MOL0     C13970   9.701   4.700   6.393  0.5427  0.1312 -0.3898
  845MOL0     O13971   9.743   4.705   6.529 -1.3346 -0.2127 -0.4643
  845MOL0     C13972   9.768   4.581   6.584  0.6661 -0.9587 -0.0723
  845MOL0     C13973   9.890   4.528   6.598  0.7327 -0.0933  0.4491
  845MOL0     C13974   9.902   4.398   6.637 -1.0217 -0.7648  0.6143
  845MOL0     C13975   9.789   4.318   6.675  0.0332 -0.5252  0.5776
  845MOL0     O13976   9.817   4.189   6.714 -0.2300  0.1490  0.1984
  845MOL0     C13977   9.707   4.109   6.760 -0.0417 -0.1365 -0.0207
  845MOL0     C13978   9.770   3.973   6.779 -0.5394  0.4312 -0.0555
  845MOL0     C13979   9.842   3.926   6.652  0.8070 -0.5683  0.3888
  845MOL0     C13980   9.874   3.776   6.662 -0.6698  0.3736 -0.3736
  845MOL0     C13981   9.979   3.738   6.558  0.3313  0.5002  0.2709
  845MOL0     C13982  10.002   3.582   6.547 -0.8034 -1.1957  0.0393
  845MOL0     C13983   9.884   3.519   6.475 -0.1977  0.2397  0.0553
  845MOL0     C13984   9.940   3.376   6.446 -0.7120  0.6358 -0.3491
  845MOL0    Cl13985   9.812   3.256   6.441  0.2022  0.1100 -0.1097
  845MOL0     C13986   9.658   4.377   6.656 -0.2587 -0.2356 -0.9733
  845MOL0     C13987   9.648   4.512   6.617 -0.5691  0.5410 -0.0714
  845MOL0     O13988   9.666   4.598   6.333 -0.3513  0.4028 -0.1549
  845MOL0     C13989   9.555   4.845   6.246 -0.6635  0.1085  0.2603
  845MOL0     C13990   9.526   4.955   6.169  0.3823  0.8820  0.3707
  845MOL0     N13991   9.753   5.511   6.500  0.7084  0.8061 -0.1809
  845MOL0     N13992   9.791   5.537   6.615 -0.8567 -0.5134  0.3660
  845MOL0     C13993  10.595   6.266   7.385  0.3889 -0.6612  0.1793
  845MOL0     C13994  10.698   6.355   7.406 -0.0162 -1.1131 -0.0553
  845MOL0     C13995  10.891   6.709   7.604 -0.5107  1.2049  0.3458
  845MOL0     C13996  10.983   6.733   7.500  0.2839 -0.4998  0.0636
  845MOL0     C13997  11.091   6.814   7.530  0.5017  0.0363 -0.9330
  845MOL0     C13998  11.118   6.865   7.654 -0.1225 -0.8015 -0.3608
  845MOL0     O13999  11.238   6.939   7.669  0.1127 -0.0718 -0.0248
  845MOL0     C14000  11.242   7.019   7.794 -0.7761 -0.8498 -0.6742
  845MOL0     C14001  11.382   7.076   7.818 -0.1932  0.5028 -0.1995
  845MOL0     C14002  11.502   6.986   7.783  0.6263  0.0081 -0.3018
  845MOL0     C14003  11.629   7.073   7.800  0.4085 -0.1575 -0.1555
  845MOL0     C14004  11.659   7.080   7.944  0.3224  0.4600 -0.9018
  845MOL0     C14005  11.661   7.080   8.061  0.3662 -0.9758  0.7352
  845MOL0     C14006  11.020   6.844   7.754 -0.2000 -0.4443  0.2363
  845MOL0     C14007  10.905   6.764   7.725  0.4395  0.1423 -0.3766
  845MOL0     H14008  10.543   6.644   7.307 -0.7023 -0.6204  0.1668
  845MOL0     H14009  10.355   6.478   7.263  0.6138  2.9056 -0.9681
  845MOL0     H14010  10.315   6.290   7.138 -0.6459 -0.7495 -1.7351
  845MOL0     H14011  10.422   6.138   7.152  0.3335 -0.8740  2.1582
  845MOL0     H14012  10.240   6.011   7.241 -1.2721 -1.0037  0.8540
  845MOL0     H14013  10.142   6.157   7.240 -1.4211  0.1223 -2.2801
  845MOL0     H14014  10.153   6.168   6.999 -1.7338 -1.7494 -1.6854
  845MOL0     H14015  10.247   6.016   6.996  2.4590 -1.1120  1.8395
  845MOL0     H14016  10.046   5.918   7.131 -0.5672 -0.7551 -1.4345
  845MOL0     H14017   9.969   6.067   7.118  1.3697 -0.2257  2.0810
  845MOL0     H14018   9.877   5.947   6.942 -0.2882  1.7620 -0.2741
  845MOL0     H14019   9.992   6.040   6.857 -0.9857  1.2132  1.6581
  845MOL0     H14020  10.152   5.834   6.877 -0.2468 -0.6645  3.1661
  845MOL0     H14021  10.027   5.744   6.953 -1.5015 -0.2771 -1.2211
  845MOL0     H14022  10.003   5.860   6.671  1.2926 -0.3108 -0.0896
  845MOL0     H14023  10.032   5.688   6.713 -0.0451 -0.9483  1.3245
  845MOL0     H14024   9.770   5.844   6.759  2.0802  1.2692 -0.0805
  845MOL0     H14025   9.798   5.693   6.830  1.4988 -1.1429 -0.0106
  845MOL0     H14026   9.700   5.827   6.487 -1.7987 -0.2721  1.1337
  845MOL0     H14027   9.560   5.651   6.271  0.6501  1.9117 -0.7783
  845MOL0     H14028   9.711   5.725   6.245 -0.7317 -0.1392 -0.9824
  845MOL0     H14029   9.814   5.471   6.253 -0.6670  1.4005  2.9469
  845MOL0     H14030   9.745   5.535   6.107  1.0553 -1.5150 -0.0180
  845MOL0     H14031   9.519   5.428   6.203  0.0140  1.0307  0.1177
  845MOL0     H14032   9.624   5.339   6.312  1.8287  1.4553  0.7805
  845MOL0     H14033   9.759   5.260   6.112  0.4920 -1.8711 -1.5463
  845MOL0     H14034   9.653   5.351   6.010  1.4343 -0.6825 -1.8107
  845MOL0     H14035   9.786   5.137   6.267 -1.4384  2.1160  0.2155
  845MOL0     H14036   9.950   4.876   6.409 -1.6710 -1.7173 -1.3111
  845MOL0     H14037   9.921   5.051   6.418  0.6561 -0.5095 -2.9727
  845MOL0     H14038   9.846   4.930   6.528  0.3397 -2.0991 -1.4402
  845MOL0     H14039   9.977   4.581   6.560 -0.7656  0.0392 -3.2238
  845MOL0     H14040  10.003   4.359   6.636  0.1104  1.9558  0.9070
  845MOL0     H14041   9.656   4.149   6.848  1.7419  1.3883  0.3753
  845MOL0     H14042   9.630   4.091   6.684 -1.1789  2.2850  0.4683
  845MOL0     H14043   9.828   3.991   6.870 -0.4727  3.3808 -0.5836
  845MOL0     H14044   9.697   3.895   6.803  2.0373 -1.3158  2.8477
  845MOL0     H14045   9.937   3.977   6.631  1.4227 -1.1891  1.5566
  845MOL0     H14046   9.767   3.943   6.574  2.1391 -0.0425 -0.8343
  845MOL0     H14047   9.915   3.766   6.763 -1.9222  1.7635  0.3001
  845MOL0     H14048   9.792   3.704   6.664 -0.6416  0.3566  0.5652
  845MOL0     H14049  10.072   3.791   6.583  0.4804  1.0162 -1.2126
  845MOL0     H14050   9.943   3.772   6.460 -3.0374 -1.2998  0.7580
  845MOL0     H14051  10.097   3.578   6.493 -0.8868 -0.8349 -0.1394
  845MOL0     H14052  10.012   3.531   6.643 -0.4368 -2.3977 -0.6208
  845MOL0     H14053   9.838   3.576   6.393 -0.4678  1.5327  1.0690
  845MOL0     H14054   9.807   3.507   6.552  0.4326 -0.1727  0.6257
  845MOL0     H14055  10.011   3.354   6.526 -0.5057  2.1707 -0.0691
  845MOL0     H14056   9.987   3.372   6.348 -0.5670  1.0498 -0.2973
  845MOL0     H14057   9.566   4.325   6.680 -0.9739  0.6334 -1.7529
  845MOL0     H14058   9.550   4.555   6.596  0.9564  2.7857 -3.2730
  845MOL0     H14059   9.489   4.759   6.238 -0.7638  0.2385 -0.4320
  845MOL0     H14060   9.439   4.946   6.105 -0.9156 -0.7339  2.2589
  845MOL0     H14061  10.614   6.161   7.406  0.9014 -0.8515 -1.1449
  845MOL0     H14062  10.789   6.320   7.453  0.5872  3.5995  3.0594
  845MOL0     H14063  10.978   6.685   7.403  2.3196 -1.3507  0.3260
  845MOL0     H14064  11.166   6.833   7.454  1.1739  1.4879  0.0489
  845MOL0     H14065  11.163   7.094   7.794  2.2083  2.6365  1.9805
  845MOL0     H14066  11.228   6.946   7.875  0.3753 -1.0038 -0.5929
  845MOL0     H14067  11.374   7.102   7.924 -2.3516 -1.2058  0.1379
  845MOL0     H14068  11.382   7.168   7.759  0.2839 -0.0483 -1.0672
  845MOL0     H14069  11.499   6.949   7.680 -0.1408 -1.5465  0.2411
  845MOL0     H14070  11.509   6.903   7.854 -1.2019 -0.3609 -0.5283
  845MOL0     H14071  11.624   7.180   7.776 -1.5777  0.9769  4.2886
  845MOL0     H14072  11.708   7.032   7.735  0.7580 -3.9722  2.3763
  845MOL0     H14073  11.663   7.089   8.168 -0.6032  0.2721  0.6676
  845MOL0     H14074  11.027   6.895   7.850  2.7248  1.7607 -1.0196
  845MOL0     H14075  10.833   6.729   7.798 -3.0089 -0.0904 -3.6172
  846MOL0     O14076   1.354   3.802   1.950  0.9488 -0.0610 -0.0190
  846MOL0     C14077   1.335   3.706   2.024 -0.2963  0.3076 -0.2550
  846MOL0     O14078   1.247   3.697   2.127  0.0003  0.2284 -0.4738
  846MOL0     C14079   1.180   3.811   2.172 -0.4075  0.8007 -0.6553
  846MOL0     C14080   1.045   3.830   2.152 -0.0764 -0.1385  0.1415
  846MOL0     C14081   0.983   3.940   2.207 -0.0407 -0.3734  0.1809
  846MOL0     C14082   1.045   4.011   2.306 -0.8833 -0.6161  0.3260
  846MOL0     O14083   0.974   4.095   2.373  0.5194 -0.4195  0.1530
  846MOL0     C14084   0.830   4.074   2.405 -0.9374 -0.1086  0.4512
  846MOL0     C14085   0.745   4.167   2.320  0.6352  0.8114  1.0133
  846MOL0     C14086   0.611   4.184   2.391  0.5514  0.0273  0.0449
  846MOL0     C14087   0.491   4.161   2.309  0.0522  0.4818 -0.2536
  846MOL0     C14088   0.368   4.213   2.399  0.3776  0.2787  0.0336
  846MOL0     C14089   0.247   4.257   2.315  0.4180  0.8564  0.4391
  846MOL0     C14090   0.154   4.133   2.287 -0.2099 -0.7447 -0.7369
  846MOL0     C14091   0.041   4.173   2.190  0.2887  0.2047  0.7300
  846MOL0     N14092  -0.039   4.055   2.156  0.5093 -0.3723 -0.4527
  846MOL0     C14093  -0.047   3.999   2.028 -0.0249  0.6134 -0.5453
  846MOL0     C14094  -0.147   3.909   2.042  0.0155  1.4773  0.2702
  846MOL0     C14095  -0.219   3.871   1.910 -0.7363 -0.1703 -0.0867
  846MOL0     C14096  -0.227   3.719   1.868 -0.4335 -0.0722 -1.1411
  846MOL0     C14097  -0.095   3.648   1.881  0.5558 -0.6582 -0.2143
  846MOL0     C14098  -0.001   3.683   1.761  0.3966  0.0013 -0.8473
  846MOL0     O14099   0.077   3.800   1.803  0.0068 -0.2926  0.7212
  846MOL0     C14100   0.202   3.787   1.852  0.6376  0.9287 -0.1501
  846MOL0     C14101   0.286   3.896   1.838 -0.1528  0.2184 -0.0503
  846MOL0     C14102   0.409   3.902   1.914 -1.1701  0.0893  1.0418
  846MOL0     C14103   0.490   4.030   1.908 -0.0261 -0.6075 -0.4864
  846MOL0     C14104   0.460   3.789   1.982  0.1850 -0.4252 -0.6939
  846MOL0     C14105   0.585   3.783   2.076 -0.0009  1.0374 -0.6482
  846MOL0     O14106   0.645   3.664   2.097 -0.4583  0.3404 -0.6472
  846MOL0     C14107   0.735   3.654   2.204  1.1178 -0.5256  0.2438
  846MOL0     C14108   0.847   3.574   2.196 -0.2212  0.0416  0.1996
  846MOL0     C14109   0.941   3.565   2.295  0.3521 -0.2716 -1.1647
  846MOL0     C14110   0.921   3.626   2.414 -1.0381 -0.7058  0.0496
  846MOL0     O14111   1.019   3.615   2.508  0.0675  0.0012  0.3556
  846MOL0     C14112   1.063   3.737   2.570 -0.2358 -0.1617  0.7265
  846MOL0     C14113   1.168   3.719   2.693  0.6778  0.0140 -0.4371
  846MOL0     C14114   1.315   3.699   2.635  0.0697 -0.2910 -0.5853
  846MOL0     C14115   1.415   3.678   2.748 -0.3352  0.1680 -0.2371
  846MOL0     C14116   1.534   3.607   2.681 -0.3473 -0.0186 -0.6747
  846MOL0     C14117   1.658   3.599   2.766 -0.8717  0.3479 -0.5847
  846MOL0     C14118   1.646   3.514   2.893 -0.5160 -0.7766 -0.2462
  846MOL0     C14119   1.625   3.596   3.023  0.0969  0.1261  0.1062
  846MOL0    Cl14120   1.600   3.475   3.149  0.0513 -0.0471 -0.1243
  846MOL0     C14121   0.803   3.710   2.424  0.1819  0.2208 -1.1715
  846MOL0     C14122   0.701   3.720   2.327 -0.4183  0.4287  0.6572
  846MOL0     O14123   0.615   3.886   2.139  0.8119  0.2369 -0.4717
  846MOL0     C14124   0.373   3.679   1.988 -0.0793 -1.1931 -0.8269
  846MOL0     C14125   0.246   3.679   1.930 -0.6402  0.6482  0.4837
  846MOL0     N14126  -0.192   3.904   2.172 -0.1956 -0.4864 -0.3427
  846MOL0     N14127  -0.129   3.995   2.236 -0.2229 -0.2789 -0.1155
  846MOL0     C14128   1.177   3.990   2.327 -0.7280  0.0140  0.5042
  846MOL0     C14129   1.250   3.893   2.263  1.3895  0.2563  0.2322
  846MOL0     C14130   1.438   3.604   2.011 -0.1173  0.1161  0.0273
  846MOL0     C14131   1.456   3.503   2.113  0.7283  0.4457 -0.6604
  846MOL0     C14132   1.563   3.420   2.103 -0.5256 -0.3248 -0.7602
  846MOL0     C14133   1.637   3.419   1.979 -0.3200  0.8387 -0.3712
  846MOL0     O14134   1.739   3.326   1.967  0.6776  0.4133  0.2506
  846MOL0     C14135   1.692   3.188   1.986 -0.1602 -0.7226  0.0956
  846MOL0     C14136   1.782   3.087   1.912 -0.1284 -0.6168  0.3905
  846MOL0     C14137   1.942   3.110   1.887 -0.6188  0.2858  0.0128
  846MOL0     C14138   2.016   3.166   2.016 -0.5654  0.2902  0.0314
  846MOL0     C14139   2.021   3.068   2.126  1.2115 -0.1274  0.0323
  846MOL0     C14140   2.026   2.986   2.214 -1.2874  0.7944 -0.2354
  846MOL0     C14141   1.629   3.522   1.885  0.1869  0.3576  0.4432
  846MOL0     C14142   1.522   3.613   1.901  0.6338  0.0504 -0.2713
  846MOL0     H14143   0.985   3.780   2.076  2.2057 -3.1341  0.1263
  846MOL0     H14144   0.880   3.965   2.183 -0.3763 -0.5761  1.3633
  846MOL0     H14145   0.801   3.969   2.395  2.8230 -1.2390 -0.3092
  846MOL0     H14146   0.819   4.113   2.507 -1.0688  3.2842 -0.7293
  846MOL0     H14147   0.785   4.268   2.307  0.6458  0.7779  0.7772
  846MOL0     H14148   0.729   4.123   2.221 -1.2505  2.0663  0.6992
  846MOL0     H14149   0.605   4.119   2.478  1.0118  1.9415  1.5687
  846MOL0     H14150   0.604   4.289   2.420 -1.8506 -0.6318  2.2213
  846MOL0     H14151   0.495   4.210   2.211 -2.0223  0.0644 -0.6003
  846MOL0     H14152   0.476   4.056   2.282  0.7337  0.3552 -0.1713
  846MOL0     H14153   0.334   4.131   2.463  0.5817  0.9460  1.0093
  846MOL0     H14154   0.391   4.301   2.459  3.6980  0.7174 -1.6581
  846MOL0     H14155   0.195   4.339   2.365 -0.2884  1.3992 -1.1164
  846MOL0     H14156   0.274   4.302   2.218 -0.3585  1.9337  0.7034
  846MOL0     H14157   0.200   4.049   2.233  0.3691 -1.3068  0.5683
  846MOL0     H14158   0.128   4.089   2.384  2.1781  0.7995  0.7226
  846MOL0     H14159   0.076   4.213   2.094  3.6752 -1.3925  1.1558
  846MOL0     H14160  -0.020   4.242   2.248 -1.6501 -3.7787  3.9679
  846MOL0     H14161   0.015   4.018   1.941  2.1572  0.4848  0.8908
  846MOL0     H14162  -0.320   3.906   1.933 -0.1974  2.0975 -0.8995
  846MOL0     H14163  -0.178   3.925   1.824 -2.4152  2.4324  0.6357
  846MOL0     H14164  -0.264   3.707   1.765  0.1109 -0.4196 -1.3011
  846MOL0     H14165  -0.298   3.678   1.939 -1.2370 -0.1700 -1.9836
  846MOL0     H14166  -0.116   3.541   1.884  0.3116 -0.7815 -3.1762
  846MOL0     H14167  -0.048   3.679   1.975 -0.7400 -0.2652  0.3286
  846MOL0     H14168  -0.070   3.699   1.677 -0.9268 -0.2293  0.1650
  846MOL0     H14169   0.071   3.604   1.737  2.4799  1.6559 -0.2870
  846MOL0     H14170   0.258   3.979   1.774 -1.8055  2.2257  2.9954
  846MOL0     H14171   0.598   4.015   1.921 -0.1145 -0.1629  0.9759
  846MOL0     H14172   0.477   4.077   1.810  0.1894  0.1780 -0.1468
  846MOL0     H14173   0.459   4.110   1.976  0.1824 -0.9046 -0.0371
  846MOL0     H14174   0.866   3.522   2.102 -0.7066  0.5731 -0.2024
  846MOL0     H14175   1.026   3.498   2.286 -0.3390 -1.2302 -0.6116
  846MOL0     H14176   1.113   3.805   2.501  3.5963  0.1197  3.4678
  846MOL0     H14177   0.980   3.795   2.613 -0.2998 -1.3569  2.3070
  846MOL0     H14178   1.167   3.812   2.751  1.1941  0.7449 -1.5611
  846MOL0     H14179   1.114   3.640   2.746 -1.8962  2.3488  0.6739
  846MOL0     H14180   1.351   3.781   2.572 -0.9841 -0.0726 -0.9151
  846MOL0     H14181   1.318   3.604   2.582 -0.9053 -0.6255 -0.0622
  846MOL0     H14182   1.450   3.770   2.795  1.3986 -0.6452  0.1386
  846MOL0     H14183   1.367   3.620   2.828  1.1503  1.2229  1.4753
  846MOL0     H14184   1.554   3.671   2.595  1.0099 -0.3924 -0.6564
  846MOL0     H14185   1.522   3.511   2.629 -0.5909 -2.1734  3.0305
  846MOL0     H14186   1.734   3.552   2.702 -0.3741 -3.0300  2.1865
  846MOL0     H14187   1.692   3.697   2.798  2.3522 -1.7182  3.1006
  846MOL0     H14188   1.739   3.463   2.918  1.4734  2.3834 -0.7616
  846MOL0     H14189   1.566   3.441   2.878 -0.8066 -0.3875 -0.6360
  846MOL0     H14190   1.532   3.654   3.019 -0.5908 -0.9937 -1.0447
  846MOL0     H14191   1.707   3.665   3.040 -0.7013  0.9334  0.7710
  846MOL0     H14192   0.793   3.760   2.520  2.4563  0.9972 -1.2774
  846MOL0     H14193   0.621   3.791   2.344 -1.9723 -0.1291 -3.3515
  846MOL0     H14194   0.385   3.582   2.035  1.2421 -1.3037 -1.3244
  846MOL0     H14195   0.178   3.601   1.961 -0.8615  1.2649  1.6044
  846MOL0     H14196   1.236   4.049   2.397 -0.0410  0.4873 -0.4400
  846MOL0     H14197   1.346   3.856   2.299  0.2154 -0.7109  2.5594
  846MOL0     H14198   1.395   3.519   2.202 -1.8735 -1.4472 -1.9542
  846MOL0     H14199   1.594   3.356   2.185 -0.8383  2.5695  1.7441
  846MOL0     H14200   1.709   3.176   2.094 -0.5253  4.2127  0.9630
  846MOL0     H14201   1.588   3.179   1.954 -1.2842  0.6967  2.9326
  846MOL0     H14202   1.734   3.080   1.814 -0.8500  0.2550  0.6642
  846MOL0     H14203   1.772   2.991   1.963  1.1258 -1.6959 -1.2885
  846MOL0     H14204   1.957   3.187   1.812 -1.0664  0.5100  0.1496
  846MOL0     H14205   1.984   3.022   1.839 -1.3733  0.8427 -1.7405
  846MOL0     H14206   1.962   3.256   2.047  1.1592  0.2805  3.4991
  846MOL0     H14207   2.116   3.202   1.990 -0.8095  1.9773  1.2230
  846MOL0     H14208   2.016   2.919   2.297 -1.2382  3.1803  1.8299
  846MOL0     H14209   1.708   3.537   1.813  0.9724  1.9633  1.5664
  846MOL0     H14210   1.511   3.685   1.820 -2.0702 -1.7166 -1.6202
  847MOL0     O14211   9.421   1.043   5.355 -0.5809  0.0900  0.5584
  847MOL0     C14212   9.464   0.935   5.408 -0.2824 -0.8001  0.3203
  847MOL0     O14213   9.413   0.808   5.384 -0.0623 -0.0734  0.0006
  847MOL0     C14214   9.291   0.800   5.318 -0.1951  0.1329 -0.8053
  847MOL0     C14215   9.262   0.860   5.198 -0.5318 -0.6153 -0.2985
  847MOL0     C14216   9.136   0.854   5.143 -0.8467 -0.5130  0.2566
  847MOL0     C14217   9.028   0.791   5.195 -0.1258 -0.1084 -0.2790
  847MOL0     O14218   8.903   0.813   5.132  0.0263  0.4336 -0.2371
  847MOL0     C14219   8.773   0.790   5.196 -0.4043 -0.9920  0.3444
  847MOL0     C14220   8.667   0.773   5.092 -0.2481 -0.2309 -0.7802
  847MOL0     C14221   8.530   0.752   5.150  0.2761 -0.6591 -0.5389
  847MOL0     C14222   8.483   0.608   5.172  0.2444 -0.1286 -0.4190
  847MOL0     C14223   8.348   0.592   5.237  0.2339  0.2084 -0.5414
  847MOL0     C14224   8.296   0.444   5.235  0.0367 -0.7748  0.4303
  847MOL0     C14225   8.172   0.432   5.323  1.1588  0.0595  0.0469
  847MOL0     C14226   8.090   0.307   5.294  0.3255 -0.6878 -0.2530
  847MOL0     N14227   8.034   0.308   5.150 -0.1292 -0.0436 -0.9718
  847MOL0     C14228   7.917   0.372   5.100  1.2762  0.7467  1.0724
  847MOL0     C14229   7.916   0.349   4.968 -0.1940 -0.9980 -0.5579
  847MOL0     C14230   7.818   0.408   4.870  0.3451  0.4293 -0.4054
  847MOL0     C14231   7.727   0.297   4.819  0.4416  0.8213 -0.3326
  847MOL0     C14232   7.624   0.336   4.708 -0.0526 -0.2807  0.0175
  847MOL0     C14233   7.530   0.216   4.696 -0.6491 -0.3417  0.2550
  847MOL0     O14234   7.443   0.219   4.812  0.8790  0.5728  0.9367
  847MOL0     C14235   7.328   0.147   4.817 -0.6902  0.8602 -0.2366
  847MOL0     C14236   7.277   0.129   4.945 -0.8664 -0.1140  0.7730
  847MOL0     C14237   7.158   0.054   4.964 -0.1959  0.0301 -0.1566
  847MOL0     C14238   7.112   0.058   5.107  0.5898 -0.2040 -0.4478
  847MOL0     C14239   7.092  -0.012   4.853  0.0225 -0.0263 -0.1271
  847MOL0     C14240   6.960  -0.076   4.868 -0.1689 -0.0595  1.3069
  847MOL0     O14241   6.892  -0.090   4.746 -0.5603  0.6727  0.6489
  847MOL0     C14242   6.803  -0.196   4.720 -0.3377  0.0360  0.6794
  847MOL0     C14243   6.827  -0.324   4.770 -0.4447  0.1762  0.3080
  847MOL0     C14244   6.732  -0.423   4.733 -0.5909  0.4117 -0.6422
  847MOL0     C14245   6.627  -0.398   4.654  0.0989 -0.1951 -0.0348
  847MOL0     O14246   6.545  -0.506   4.617 -1.1133 -0.2736 -0.0201
  847MOL0     C14247   6.419  -0.488   4.567 -1.0703 -0.2929 -0.8603
  847MOL0     C14248   6.319  -0.574   4.638  0.2788 -0.3512  0.2398
  847MOL0     C14249   6.239  -0.649   4.526  0.0463  0.3763  0.1457
  847MOL0     C14250   6.118  -0.710   4.590 -0.1656 -0.4761 -0.1408
  847MOL0     C14251   6.029  -0.774   4.488 -0.4307  0.1398 -0.4799
  847MOL0     C14252   5.888  -0.835   4.524 -0.9590 -0.1290  0.3933
  847MOL0     C14253   5.769  -0.746   4.572 -0.3378  0.0798  0.4636
  847MOL0     C14254   5.764  -0.723   4.728 -0.0357 -0.6115  0.2859
  847MOL0    Cl14255   5.685  -0.866   4.806  0.4364 -0.1292 -0.0685
  847MOL0     C14256   6.617  -0.274   4.596  1.1488 -0.0855 -0.0576
  847MOL0     C14257   6.706  -0.172   4.624  1.0021 -0.1269  0.2220
  847MOL0     O14258   6.936  -0.137   4.972  0.1464  0.4188  0.5034
  847MOL0     C14259   7.150  -0.004   4.732 -0.0458 -0.0807  0.0949
  847MOL0     C14260   7.266   0.074   4.712 -0.6641  0.1002 -0.4872
  847MOL0     N14261   8.018   0.263   4.944 -0.1191  0.0737  0.1135
  847MOL0     N14262   8.094   0.239   5.044  0.0059 -0.0511  1.5551
  847MOL0     C14263   9.046   0.726   5.324 -0.2847  0.0319  0.6134
  847MOL0     C14264   9.184   0.730   5.384  0.9337  0.3831 -0.6670
  847MOL0     C14265   9.570   0.961   5.494 -0.6078  0.1698  0.0060
  847MOL0     C14266   9.646   0.858   5.551  0.5627 -0.3765  0.2198
  847MOL0     C14267   9.744   0.874   5.644 -0.3468  0.2015 -0.3174
  847MOL0     C14268   9.795   1.001   5.675 -0.0309  0.8674 -0.1501
  847MOL0     O14269   9.903   0.993   5.764 -0.3006  0.1984 -0.0593
  847MOL0     C14270   9.962   1.108   5.820 -0.1045 -0.1529 -0.0299
  847MOL0     C14271  10.088   1.075   5.909 -0.0313 -0.3239  0.0551
  847MOL0     C14272  10.135   1.193   5.998 -0.3808  0.1854  0.3048
  847MOL0     C14273  10.276   1.165   6.053 -0.5008 -0.5291 -0.1575
  847MOL0     C14274  10.296   1.259   6.164 -0.0214 -0.1294  0.0240
  847MOL0     C14275  10.293   1.350   6.244  0.1352 -0.3270 -0.0240
  847MOL0     C14276   9.724   1.106   5.619 -0.3064 -0.2633  0.3675
  847MOL0     C14277   9.620   1.092   5.528 -0.1526  0.6982  0.5531
  847MOL0     H14278   9.326   0.940   5.160 -0.4270 -1.3381 -1.7288
  847MOL0     H14279   9.126   0.901   5.046  0.0642  0.6470  0.7071
  847MOL0     H14280   8.778   0.709   5.269  0.6768 -0.6877  0.6250
  847MOL0     H14281   8.749   0.883   5.248  0.7512  0.0569 -0.9300
  847MOL0     H14282   8.662   0.848   5.013 -0.3566 -0.4963 -1.0308
  847MOL0     H14283   8.703   0.684   5.039 -1.8126 -0.2255 -1.9209
  847MOL0     H14284   8.512   0.806   5.243  0.6365 -1.2033 -0.1504
  847MOL0     H14285   8.452   0.789   5.082  0.1688  0.4781  0.1921
  847MOL0     H14286   8.474   0.552   5.079  0.6302 -2.3782  0.8277
  847MOL0     H14287   8.561   0.550   5.221 -0.7639 -0.6191  0.6614
  847MOL0     H14288   8.371   0.610   5.343 -1.3937 -3.4654  0.5925
  847MOL0     H14289   8.271   0.653   5.189  0.0356 -1.5246 -2.5556
  847MOL0     H14290   8.290   0.418   5.129  1.6153  1.0880 -0.1799
  847MOL0     H14291   8.377   0.391   5.286  0.3417  0.2810  1.0678
  847MOL0     H14292   8.196   0.450   5.428  2.3212  1.1340 -0.3805
  847MOL0     H14293   8.119   0.524   5.297  2.2821  0.6590 -0.2240
  847MOL0     H14294   8.006   0.294   5.363 -0.9562 -0.8480 -1.7860
  847MOL0     H14295   8.148   0.216   5.309 -0.6505 -1.7133 -2.3322
  847MOL0     H14296   7.842   0.433   5.150  0.3206  1.4103 -1.0347
  847MOL0     H14297   7.766   0.489   4.921  0.5138  0.2013  0.1442
  847MOL0     H14298   7.879   0.457   4.793  0.3732  1.1103  0.0385
  847MOL0     H14299   7.678   0.243   4.901  1.5326 -0.0668 -0.2473
  847MOL0     H14300   7.786   0.225   4.761 -2.2019 -1.1430 -0.8071
  847MOL0     H14301   7.679   0.331   4.613  1.1854 -3.0538  0.7796
  847MOL0     H14302   7.563   0.425   4.723  1.1297  0.7819 -1.2234
  847MOL0     H14303   7.585   0.121   4.698  1.7299  0.9559 -0.0092
  847MOL0     H14304   7.466   0.230   4.608 -0.9851 -1.3711  0.3119
  847MOL0     H14305   7.335   0.187   5.016  0.1980  0.5787 -0.6284
  847MOL0     H14306   7.186   0.105   5.172 -0.7136 -1.0574  1.7616
  847MOL0     H14307   7.025   0.122   5.126  2.3842  1.8528  1.3145
  847MOL0     H14308   7.096  -0.046   5.137 -2.6058  0.0284 -0.9511
  847MOL0     H14309   6.905  -0.336   4.844  2.9486 -2.2358 -3.2632
  847MOL0     H14310   6.753  -0.522   4.773  1.1026  1.6736  1.7822
  847MOL0     H14311   6.384  -0.386   4.583  1.3419  0.5056 -0.2694
  847MOL0     H14312   6.422  -0.511   4.460 -0.7554  2.7229 -1.5945
  847MOL0     H14313   6.355  -0.639   4.718 -0.6705  0.8967  1.7380
  847MOL0     H14314   6.253  -0.505   4.692  1.4307  0.8455  0.1755
  847MOL0     H14315   6.302  -0.732   4.492 -3.5846 -2.8064  0.5960
  847MOL0     H14316   6.206  -0.588   4.441  1.5897  2.3843  0.9141
  847MOL0     H14317   6.131  -0.785   4.668 -0.0915  1.1981  1.5366
  847MOL0     H14318   6.064  -0.627   4.637  0.1664 -1.0268  1.2618
  847MOL0     H14319   6.089  -0.850   4.437  1.5578  0.3069  1.4376
  847MOL0     H14320   6.018  -0.709   4.400  0.9663 -0.2875 -1.0008
  847MOL0     H14321   5.847  -0.881   4.433  1.2857 -2.8518  0.6528
  847MOL0     H14322   5.906  -0.914   4.597  1.2447 -1.3540 -1.3396
  847MOL0     H14323   5.675  -0.789   4.536  0.1329 -3.4395  2.9607
  847MOL0     H14324   5.786  -0.651   4.520  1.5236 -1.6960 -2.4986
  847MOL0     H14325   5.697  -0.636   4.732  1.4642  0.7687 -2.0861
  847MOL0     H14326   5.859  -0.699   4.776 -0.5954  1.2334  0.5514
  847MOL0     H14327   6.550  -0.256   4.512  1.5913  0.7599 -0.2400
  847MOL0     H14328   6.685  -0.081   4.568 -0.6321 -0.7847 -0.3041
  847MOL0     H14329   7.103  -0.052   4.647 -0.0220  0.2617 -0.1099
  847MOL0     H14330   7.305   0.080   4.611  0.3764 -0.1958 -0.1156
  847MOL0     H14331   8.966   0.663   5.362 -0.8585  0.0166 -0.5691
  847MOL0     H14332   9.216   0.686   5.478  0.2224  2.4435  0.6030
  847MOL0     H14333   9.616   0.758   5.520 -1.6759  0.8963 -2.1620
  847MOL0     H14334   9.798   0.792   5.691 -0.8872 -1.3272 -2.2386
  847MOL0     H14335   9.986   1.177   5.738 -2.1906  0.3400 -0.2727
  847MOL0     H14336   9.891   1.161   5.884 -1.5117 -1.3920 -0.5148
  847MOL0     H14337  10.161   1.040   5.836 -0.0977  1.9813 -1.2151
  847MOL0     H14338  10.061   0.997   5.981  1.0526 -1.3188 -0.5811
  847MOL0     H14339  10.070   1.199   6.086 -0.7095 -3.4802  0.4742
  847MOL0     H14340  10.133   1.283   5.936  0.6924 -0.9235 -1.3862
  847MOL0     H14341  10.347   1.187   5.972 -0.7266  0.6913 -0.0411
  847MOL0     H14342  10.289   1.063   6.089 -0.6041 -0.5311 -0.1253
  847MOL0     H14343  10.279   1.431   6.313 -2.9148 -0.3336 -0.4998
  847MOL0     H14344   9.760   1.206   5.644 -2.3870  0.6438 -0.0363
  847MOL0     H14345   9.589   1.187   5.487 -1.8618  0.4129  1.0874
  848MOL0     O14346  10.208   6.212  10.589 -0.1322 -0.2679 -0.0721
  848MOL0     C14347  10.270   6.274  10.676 -0.6272 -0.4138 -0.0560
  848MOL0     O14348  10.218   6.374  10.755 -0.5415  0.0506  0.8105
  848MOL0     C14349  10.095   6.425  10.744  0.2851  0.8020  0.5442
  848MOL0     C14350   9.982   6.363  10.673  1.0574 -0.1432  0.7928
  848MOL0     C14351   9.860   6.420  10.674  0.0205 -0.0684  0.3014
  848MOL0     C14352   9.839   6.553  10.719 -0.0972 -0.0725 -0.8289
  848MOL0     O14353   9.720   6.620  10.709 -0.3532 -0.9415  0.3672
  848MOL0     C14354   9.588   6.556  10.743 -0.5996 -0.3663 -0.4558
  848MOL0     C14355   9.592   6.456  10.862 -0.2111  0.3284  0.2301
  848MOL0     C14356   9.455   6.411  10.892  0.2590 -1.0230 -0.9018
  848MOL0     C14357   9.375   6.333  10.782  0.2260  0.2895 -0.4670
  848MOL0     C14358   9.235   6.295  10.842  0.3073  0.1911 -0.4689
  848MOL0     C14359   9.136   6.405  10.840  0.4949  0.2607  0.0076
  848MOL0     C14360   9.103   6.444  10.702 -0.6076 -0.7040 -0.4836
  848MOL0     C14361   8.994   6.549  10.706 -0.7082 -0.3678 -0.4673
  848MOL0     N14362   9.046   6.679  10.687 -0.3293  1.0887 -0.1883
  848MOL0     C14363   9.085   6.739  10.560  0.3386  0.0009 -0.0190
  848MOL0     C14364   9.149   6.847  10.605 -0.5498  0.0753  0.0950
  848MOL0     C14365   9.209   6.946  10.513 -0.6362 -0.2109  0.9618
  848MOL0     C14366   9.323   6.908  10.422 -0.5541  0.6736 -0.0022
  848MOL0     C14367   9.402   7.037  10.392  0.6294 -0.4905 -0.1939
  848MOL0     C14368   9.506   7.011  10.284 -0.2595  0.3810 -0.1327
  848MOL0     O14369   9.590   7.125  10.269  0.3082 -0.0177  0.7828
  848MOL0     C14370   9.726   7.107  10.250 -0.7898 -0.4697  0.2185
  848MOL0     C14371   9.815   7.196  10.294 -0.4229  0.1697 -0.5355
  848MOL0     C14372   9.949   7.179  10.284 -1.1750 -0.0269 -0.4486
  848MOL0     C14373  10.034   7.291  10.343 -0.2065 -0.6294 -1.1661
  848MOL0     C14374   9.997   7.061  10.210  0.3057  0.2338 -0.1914
  848MOL0     C14375  10.143   7.033  10.193  0.7815  0.0655 -0.0926
  848MOL0     O14376  10.205   6.921  10.241  0.2464 -0.7801  0.0006
  848MOL0     C14377  10.333   6.917  10.226  0.1774  0.4568 -0.1328
  848MOL0     C14378  10.405   6.988  10.319 -0.2207 -0.2239  0.3702
  848MOL0     C14379  10.544   6.974  10.317 -0.1426  0.4973 -0.5494
  848MOL0     C14380  10.610   6.877  10.242  0.2358 -1.0544 -0.1213
  848MOL0     O14381  10.746   6.868  10.259 -0.3131  0.1397 -0.8022
  848MOL0     C14382  10.826   6.949  10.171  0.2957  0.0972 -0.2670
  848MOL0     C14383  10.962   7.004  10.226  0.6220 -0.1919 -0.5408
  848MOL0     C14384  11.059   6.888  10.265  0.9861 -0.7736  0.7347
  848MOL0     C14385  11.116   6.819  10.142 -0.0384 -0.0368  0.1841
  848MOL0     C14386  11.226   6.907  10.067  0.3425 -0.5742  0.4164
  848MOL0     C14387  11.290   6.804   9.960  1.0234  0.1884 -0.5000
  848MOL0     C14388  11.323   6.878   9.829 -0.1072  0.4499 -0.1284
  848MOL0     C14389  11.436   6.968   9.850 -0.1814  0.5520 -1.1626
  848MOL0    Cl14390  11.472   7.032   9.689  0.1196 -0.3212  0.2101
  848MOL0     C14391  10.531   6.811  10.153 -0.3878  0.3812  0.0876
  848MOL0     C14392  10.392   6.823  10.145  0.4670  0.2821 -0.8297
  848MOL0     O14393  10.194   7.113  10.114 -0.5871 -0.3915  0.3550
  848MOL0     C14394   9.908   6.963  10.165  0.0864  0.4678  0.8569
  848MOL0     C14395   9.773   6.992  10.183 -0.1566 -0.2634  0.3849
  848MOL0     N14396   9.143   6.847  10.744  0.2239 -0.7207  0.6824
  848MOL0     N14397   9.084   6.747  10.799  0.0601 -0.4652  0.5577
  848MOL0     C14398   9.948   6.618  10.774 -1.2898  0.0940  0.2531
  848MOL0     C14399  10.070   6.557  10.787  0.7231  0.5554  0.3707
  848MOL0     C14400  10.417   6.245  10.691 -0.1362 -0.0347 -0.2609
  848MOL0     C14401  10.473   6.159  10.604 -0.6148 -0.4336 -0.3606
  848MOL0     C14402  10.613   6.141  10.609 -0.3325  0.4439  0.2126
  848MOL0     C14403  10.694   6.203  10.715  0.6363 -0.1517 -0.3697
  848MOL0     O14404  10.828   6.188  10.734 -0.9693 -0.3962  0.6633
  848MOL0     C14405  10.914   6.108  10.645  1.2814  0.3320 -0.3304
  848MOL0     C14406  11.061   6.130  10.659  0.0977 -0.0594  0.2179
  848MOL0     C14407  11.135   6.086  10.534 -0.5889  0.0452 -0.1497
  848MOL0     C14408  11.275   6.033  10.577  0.3197 -0.0006 -0.4953
  848MOL0     C14409  11.354   6.016  10.458  0.2846  0.9315  0.0332
  848MOL0     C14410  11.423   6.015  10.360  0.2948  0.0380 -0.1319
  848MOL0     C14411  10.630   6.282  10.808 -0.1893  0.3317 -0.1671
  848MOL0     C14412  10.493   6.310  10.789  0.3837 -0.4002 -0.2271
  848MOL0     H14413   9.999   6.269  10.622  1.6877 -0.3185  1.3136
  848MOL0     H14414   9.780   6.356  10.640 -0.4404  0.3565  0.5702
  848MOL0     H14415   9.521   6.636  10.774  1.1044  1.3728 -1.0425
  848MOL0     H14416   9.561   6.510  10.648  1.1493  0.1793 -1.2707
  848MOL0     H14417   9.653   6.371  10.833  0.3336  0.2738  1.5055
  848MOL0     H14418   9.643   6.501  10.947  1.9429 -1.3197 -0.1195
  848MOL0     H14419   9.453   6.369  10.993 -0.8589  3.5102  1.2357
  848MOL0     H14420   9.405   6.507  10.907  1.2910 -0.6464  0.2998
  848MOL0     H14421   9.357   6.391  10.691  0.0927  2.3941  0.8194
  848MOL0     H14422   9.442   6.252  10.753  1.7314  2.0645 -2.2250
  848MOL0     H14423   9.183   6.215  10.788 -0.2183  0.5413 -0.4906
  848MOL0     H14424   9.247   6.269  10.947 -2.0989 -1.4974 -0.5123
  848MOL0     H14425   9.054   6.366  10.902  3.0550 -4.1965  0.9660
  848MOL0     H14426   9.170   6.495  10.894 -0.2348 -1.5303  3.7924
  848MOL0     H14427   9.186   6.494  10.651 -4.6793  5.3835 -2.1973
  848MOL0     H14428   9.063   6.366  10.636 -1.0735 -0.6659 -0.2530
  848MOL0     H14429   8.943   6.558  10.802 -1.2194  1.6533 -0.8869
  848MOL0     H14430   8.927   6.517  10.626 -0.1195  1.9868 -2.0322
  848MOL0     H14431   9.062   6.694  10.465  1.2844 -1.0915  0.2406
  848MOL0     H14432   9.131   6.985  10.446 -1.1507 -3.9486 -0.8864
  848MOL0     H14433   9.238   7.035  10.569 -0.2986 -0.3862  1.0641
  848MOL0     H14434   9.285   6.876  10.325  0.9403  2.1120 -1.1084
  848MOL0     H14435   9.374   6.817  10.455 -0.3144 -1.3953 -5.1749
  848MOL0     H14436   9.457   7.087  10.473 -0.2850  2.6710 -1.3584
  848MOL0     H14437   9.336   7.116  10.355 -0.3714 -0.8884  0.6851
  848MOL0     H14438   9.446   6.987  10.197 -2.1101 -2.8067  1.8254
  848MOL0     H14439   9.557   6.923  10.324 -0.6462 -0.2217 -0.9371
  848MOL0     H14440   9.767   7.288  10.324 -0.3761  0.6783 -1.9245
  848MOL0     H14441   9.972   7.351  10.411  0.5048 -2.3456  1.1337
  848MOL0     H14442  10.124   7.253  10.392  1.0540  0.7821 -2.2952
  848MOL0     H14443  10.071   7.351  10.260  0.5432 -3.1536 -2.7652
  848MOL0     H14444  10.346   7.055  10.381 -2.6050 -1.6031 -0.2550
  848MOL0     H14445  10.606   7.021  10.393 -0.2094 -0.0581 -0.1392
  848MOL0     H14446  10.841   6.893  10.079 -1.1868  0.9857 -1.0886
  848MOL0     H14447  10.768   7.035  10.135 -0.0266 -0.0219 -0.0379
  848MOL0     H14448  11.005   7.060  10.143 -1.5154  2.0759 -0.2219
  848MOL0     H14449  10.952   7.067  10.315  2.8062  3.2247 -2.4891
  848MOL0     H14450  11.007   6.816  10.328  2.0800 -2.6833 -0.4488
  848MOL0     H14451  11.137   6.922  10.333  1.2780 -1.2003  0.6160
  848MOL0     H14452  11.168   6.728  10.174  3.0549  1.9894  1.4559
  848MOL0     H14453  11.045   6.815  10.059  0.3724  2.4449 -0.3555
  848MOL0     H14454  11.306   6.932  10.137 -0.9000  0.6132  1.4861
  848MOL0     H14455  11.190   7.001  10.025  0.0069  0.5030  2.8988
  848MOL0     H14456  11.372   6.748  10.004 -1.0885 -0.8050  2.4580
  848MOL0     H14457  11.204   6.745   9.927 -1.1161  2.4387  0.6788
  848MOL0     H14458  11.232   6.935   9.811 -1.5764 -0.4601  3.5658
  848MOL0     H14459  11.333   6.803   9.750 -2.1903 -0.0492  0.0204
  848MOL0     H14460  11.528   6.931   9.896 -0.9314  2.2461  2.0756
  848MOL0     H14461  11.398   7.048   9.915  1.6749  0.1920  0.4509
  848MOL0     H14462  10.577   6.744  10.081  0.5299  2.2492 -1.1564
  848MOL0     H14463  10.323   6.766  10.084 -2.0719  1.1286  1.0931
  848MOL0     H14464   9.939   6.870  10.117 -0.9535  1.6135 -2.2010
  848MOL0     H14465   9.701   6.927  10.135  0.8899 -0.4006 -1.0496
  848MOL0     H14466   9.942   6.724  10.797 -2.2334  0.3121 -0.9124
  848MOL0     H14467  10.150   6.608  10.840  0.9414 -0.8645  1.4563
  848MOL0     H14468  10.417   6.123  10.518 -2.3249  0.9603  0.1090
  848MOL0     H14469  10.649   6.069  10.536  3.1411 -1.2802  3.2623
  848MOL0     H14470  10.898   6.001  10.663 -0.7188  0.4653 -1.1889
  848MOL0     H14471  10.877   6.139  10.548 -0.3126  0.1214  0.1921
  848MOL0     H14472  11.074   6.074  10.752 -2.7442 -1.2783 -0.0121
  848MOL0     H14473  11.095   6.230  10.689 -1.2958  1.2270 -2.1636
  848MOL0     H14474  11.143   6.167  10.460 -0.7225  0.4310  0.2565
  848MOL0     H14475  11.079   6.002  10.491  0.8054  0.3228 -2.7436
  848MOL0     H14476  11.259   5.934  10.619  2.1675  0.1402  0.6548
  848MOL0     H14477  11.323   6.101  10.648 -0.1842 -1.3731  1.2380
  848MOL0     H14478  11.491   6.012  10.276  0.1368  1.3491 -0.3278
  848MOL0     H14479  10.688   6.328  10.888 -1.5884 -0.9959  1.6840
  848MOL0     H14480  10.434   6.372  10.855 -0.7811 -0.2937 -1.3185
  849MOL0     O14481   9.384   4.403  10.764  0.5116 -0.2090  0.1906
  849MOL0     C14482   9.436   4.296  10.778  0.1307  0.0034  0.0722
  849MOL0     O14483   9.364   4.176  10.774 -0.4224  0.0863 -0.2347
  849MOL0     C14484   9.229   4.170  10.753  0.3334 -0.2297 -1.1475
  849MOL0     C14485   9.162   4.255  10.657 -0.4793 -0.7123 -0.3446
  849MOL0     C14486   9.026   4.240  10.632 -0.5449 -0.2133 -0.2842
  849MOL0     C14487   8.952   4.155  10.710  0.4614 -0.3568 -0.1654
  849MOL0     O14488   8.811   4.151  10.693  0.3947 -0.5511  0.4386
  849MOL0     C14489   8.729   4.098  10.809  0.0567  1.0649 -0.1532
  849MOL0     C14490   8.581   4.129  10.777  0.4323 -0.0744  1.2191
  849MOL0     C14491   8.486   4.067  10.880  0.3200 -0.0235 -1.1595
  849MOL0     C14492   8.338   4.107  10.865 -0.5127  0.0367 -0.4131
  849MOL0     C14493   8.245   4.044  10.963 -0.3352  0.3004  0.0862
  849MOL0     C14494   8.107   4.122  10.963 -0.0854 -1.1458 -0.0033
  849MOL0     C14495   7.992   4.044  10.897  0.2331  0.1422 -0.9262
  849MOL0     C14496   7.864   4.122  10.905 -0.4666  0.3607  0.0633
  849MOL0     N14497   7.746   4.061  10.856  0.0393 -0.2161  0.4994
  849MOL0     C14498   7.684   4.107  10.741  0.4607  0.4386  1.1844
  849MOL0     C14499   7.560   4.051  10.748  0.1838 -0.4335  0.1945
  849MOL0     C14500   7.456   4.070  10.639  1.0845 -1.1240  0.4598
  849MOL0     C14501   7.352   4.176  10.682 -0.7807  0.2488 -0.1795
  849MOL0     C14502   7.239   4.110  10.762 -0.2341  0.1383  0.1276
  849MOL0     C14503   7.117   4.198  10.765  1.0581 -0.4488  0.4576
  849MOL0     O14504   7.013   4.140  10.839 -0.2258  0.1385 -0.1081
  849MOL0     C14505   6.889   4.207  10.863 -0.5784  0.1984  0.8938
  849MOL0     C14506   6.793   4.144  10.943 -0.4587  0.6102 -0.2718
  849MOL0     C14507   6.669   4.196  10.972 -0.4271 -1.0498  0.6968
  849MOL0     C14508   6.588   4.127  11.072 -0.2770  0.8168  0.0653
  849MOL0     C14509   6.628   4.326  10.914  0.0777 -0.3794 -0.1742
  849MOL0     C14510   6.492   4.389  10.954 -0.3037  0.7810 -0.3907
  849MOL0     O14511   6.403   4.314  11.029  0.0889  0.2562  0.1933
  849MOL0     C14512   6.281   4.361  11.057 -0.3047  0.3495 -0.5056
  849MOL0     C14513   6.263   4.392  11.188  0.7026  1.1583  0.0028
  849MOL0     C14514   6.132   4.435  11.228 -0.0514  0.5734  0.2464
  849MOL0     C14515   6.030   4.455  11.137  0.0390 -1.2399  0.3787
  849MOL0     O14516   5.917   4.521  11.170  0.6136 -0.9692  0.1275
  849MOL0     C14517   5.830   4.431  11.246 -0.7035  0.0030  0.8343
  849MOL0     C14518   5.710   4.501  11.296 -0.8057  0.5796  0.5067
  849MOL0     C14519   5.746   4.584  11.419 -0.3588 -0.6573 -0.6144
  849MOL0     C14520   5.626   4.662  11.461 -0.6237  0.0221 -0.0055
  849MOL0     C14521   5.649   4.731  11.596 -0.4460  0.5789 -0.3133
  849MOL0     C14522   5.511   4.773  11.647 -0.2412 -0.5695 -1.0554
  849MOL0     C14523   5.513   4.856  11.785 -0.8222 -0.2071  0.9685
  849MOL0     C14524   5.375   4.854  11.841 -0.5093 -0.6425 -0.6466
  849MOL0    Cl14525   5.390   4.979  11.969  0.1347  0.4652 -0.1148
  849MOL0     C14526   6.058   4.429  11.006  0.8498 -0.7918 -0.0103
  849MOL0     C14527   6.179   4.376  10.964 -0.8805 -0.5267 -0.0771
  849MOL0     O14528   6.474   4.503  10.911  0.4403 -0.4803 -0.0612
  849MOL0     C14529   6.721   4.389  10.831 -1.4703  0.3197 -0.4931
  849MOL0     C14530   6.853   4.331  10.809  0.9334 -1.0419  0.9301
  849MOL0     N14531   7.555   3.976  10.863  0.7305  0.3753  0.1641
  849MOL0     N14532   7.661   3.981  10.924 -0.8275  0.0433 -0.4894
  849MOL0     C14533   9.019   4.081  10.804 -0.1366  0.0072 -0.5055
  849MOL0     C14534   9.148   4.081  10.825 -0.3230 -0.0403 -0.3561
  849MOL0     C14535   9.584   4.292  10.777  0.2010 -0.2147  0.5997
  849MOL0     C14536   9.659   4.186  10.728 -0.7706  0.1823  0.6481
  849MOL0     C14537   9.796   4.185  10.753 -0.3221  0.0767 -0.0282
  849MOL0     C14538   9.869   4.291  10.814  0.0032  0.5481  0.0954
  849MOL0     O14539  10.010   4.301  10.817 -0.2505 -0.0482 -0.1202
  849MOL0     C14540  10.082   4.180  10.776  0.0107  0.3964 -0.6980
  849MOL0     C14541  10.080   4.069  10.884  0.2810  0.2355 -0.5115
  849MOL0     C14542  10.097   4.131  11.031  0.3627  0.2484  0.4755
  849MOL0     C14543  10.171   4.039  11.146  0.2552  0.4652 -0.1950
  849MOL0     C14544  10.165   4.120  11.272 -0.0543 -0.3574  0.2095
  849MOL0     C14545  10.154   4.185  11.374 -0.5619 -0.1623 -0.1503
  849MOL0     C14546   9.789   4.391  10.875  0.6360 -0.5124  0.3380
  849MOL0     C14547   9.657   4.393  10.846  0.3344 -1.0624  0.5069
  849MOL0     H14548   9.211   4.338  10.606 -0.4095 -0.5906 -0.0797
  849MOL0     H14549   8.981   4.305  10.558  0.8126  0.3674 -0.6354
  849MOL0     H14550   8.760   3.994  10.818  0.1229  1.0287 -0.7487
  849MOL0     H14551   8.756   4.157  10.897  2.1152 -1.5503  1.1363
  849MOL0     H14552   8.563   4.236  10.768 -0.7512 -0.3609 -0.2836
  849MOL0     H14553   8.559   4.078  10.682 -1.9507  2.0267  0.5291
  849MOL0     H14554   8.493   3.958  10.885 -0.8001 -0.0573  2.0942
  849MOL0     H14555   8.507   4.107  10.980 -3.1241 -1.4435  0.2952
  849MOL0     H14556   8.347   4.215  10.877  2.0155 -0.3306  2.5071
  849MOL0     H14557   8.314   4.087  10.760 -1.0800 -1.7528  0.0181
  849MOL0     H14558   8.227   3.938  10.941 -1.6823  0.7258 -0.9893
  849MOL0     H14559   8.292   4.055  11.061 -0.0687 -0.3848  0.0434
  849MOL0     H14560   8.084   4.138  11.069  0.1545 -2.5262  0.2816
  849MOL0     H14561   8.118   4.219  10.913 -1.4809 -1.4626 -0.9731
  849MOL0     H14562   8.022   4.037  10.792  0.8654 -0.6907 -0.6955
  849MOL0     H14563   7.986   3.944  10.939 -0.7787  0.5270 -0.1048
  849MOL0     H14564   7.881   4.223  10.865 -0.1427 -0.7577 -2.8224
  849MOL0     H14565   7.837   4.128  11.011 -1.4386  0.8367 -0.2018
  849MOL0     H14566   7.731   4.174  10.669 -3.4782  0.9322 -1.2392
  849MOL0     H14567   7.504   4.122  10.556 -2.1377  0.6767 -0.4555
  849MOL0     H14568   7.410   3.980  10.598 -1.9580  1.7796 -3.3208
  849MOL0     H14569   7.309   4.220  10.592 -3.0001 -0.8769  0.2734
  849MOL0     H14570   7.406   4.254  10.736  0.2353  0.8629 -1.9749
  849MOL0     H14571   7.273   4.095  10.865  0.5765 -3.4888 -0.5414
  849MOL0     H14572   7.212   4.015  10.715  1.0786  0.7301 -1.9957
  849MOL0     H14573   7.083   4.229  10.666  1.8532  0.0713  0.3336
  849MOL0     H14574   7.134   4.290  10.823  0.8012  0.5238 -0.9766
  849MOL0     H14575   6.827   4.045  10.973  1.8835  1.1315 -1.0461
  849MOL0     H14576   6.569   4.200  11.152  1.0835  2.7116 -1.2343
  849MOL0     H14577   6.499   4.075  11.038  0.6570 -1.6287  1.1537
  849MOL0     H14578   6.648   4.043  11.109 -2.2172 -0.8545 -0.4533
  849MOL0     H14579   6.344   4.366  11.255 -0.1844 -1.2404  0.2353
  849MOL0     H14580   6.115   4.451  11.334  2.3416 -0.4365  0.8551
  849MOL0     H14581   5.813   4.351  11.173  3.3469 -0.3052 -0.0181
  849MOL0     H14582   5.885   4.389  11.331  1.8811  1.3395 -0.0953
  849MOL0     H14583   5.682   4.579  11.225 -0.0397  1.0365  0.6920
  849MOL0     H14584   5.640   4.421  11.318  2.4339 -2.2146  1.4951
  849MOL0     H14585   5.821   4.657  11.388 -0.4162 -0.4848 -0.3410
  849MOL0     H14586   5.786   4.518  11.497  3.9683  1.6466 -0.5750
  849MOL0     H14587   5.611   4.746  11.392  1.5009  0.9075  0.5348
  849MOL0     H14588   5.537   4.598  11.463 -0.3307 -0.3896 -0.1622
  849MOL0     H14589   5.718   4.816  11.588  1.4807 -0.9534 -0.7142
  849MOL0     H14590   5.693   4.663  11.669 -1.9862 -2.9471 -2.3960
  849MOL0     H14591   5.461   4.842  11.579 -1.1437 -0.9455 -0.7930
  849MOL0     H14592   5.446   4.686  11.663 -0.6095  0.1754  2.1923
  849MOL0     H14593   5.537   4.960  11.762  0.3255 -0.3585  1.3928
  849MOL0     H14594   5.593   4.818  11.850  0.5057 -2.5927 -1.7957
  849MOL0     H14595   5.349   4.760  11.891  1.0469 -0.9793 -0.4274
  849MOL0     H14596   5.300   4.869  11.762 -2.8271  0.2941  1.5852
  849MOL0     H14597   5.988   4.471  10.934  1.5532 -0.4448 -0.5076
  849MOL0     H14598   6.195   4.371  10.857 -2.9017  0.9562 -0.5071
  849MOL0     H14599   6.687   4.476  10.777 -1.4005  0.9681  0.4910
  849MOL0     H14600   6.922   4.388  10.747 -2.7035  1.9229 -0.7825
  849MOL0     H14601   8.955   4.013  10.860 -0.1915 -1.6397 -2.4836
  849MOL0     H14602   9.198   4.012  10.892 -2.9868 -3.0514 -1.2408
  849MOL0     H14603   9.611   4.098  10.687  0.9277 -0.2365 -0.5498
  849MOL0     H14604   9.840   4.096  10.710  1.7385  0.1776  1.7052
  849MOL0     H14605  10.050   4.136  10.680  0.5949 -3.6235  0.7577
  849MOL0     H14606  10.187   4.198  10.752  0.6633 -2.0910  0.0326
  849MOL0     H14607  10.160   3.997  10.865  0.0948 -0.6014  1.6630
  849MOL0     H14608   9.987   4.011  10.872 -0.0367  0.4532  0.7993
  849MOL0     H14609   9.994   4.154  11.062 -0.6816 -3.5167  0.2047
  849MOL0     H14610  10.148   4.228  11.036  1.2254 -0.2503  1.9044
  849MOL0     H14611  10.275   4.040  11.111  0.1047  0.5541 -0.6373
  849MOL0     H14612  10.135   3.936  11.153  1.4820  0.0231 -0.1880
  849MOL0     H14613  10.167   4.218  11.475  0.4415 -0.6416 -0.1055
  849MOL0     H14614   9.828   4.477  10.928  0.4015 -0.5720  0.6105
  849MOL0     H14615   9.599   4.473  10.889  1.2332 -0.9546  1.5840
  850MOL0     O14616   7.758   2.509   5.242  0.7602 -0.2410  0.2598
  850MOL0     C14617   7.776   2.403   5.181 -0.0879 -0.4647 -0.0331
  850MOL0     O14618   7.692   2.354   5.078  0.2355 -0.6301 -0.7212
  850MOL0     C14619   7.576   2.418   5.056  0.1741 -0.3026  0.1418
  850MOL0     C14620   7.480   2.422   5.151  0.1525 -0.0149 -0.2820
  850MOL0     C14621   7.355   2.481   5.134  0.3441 -0.2033  0.0918
  850MOL0     C14622   7.315   2.533   5.007 -0.1285  0.7125  0.0703
  850MOL0     O14623   7.190   2.574   4.972  0.7670 -0.1228  0.6600
  850MOL0     C14624   7.132   2.646   5.081 -0.4366  1.2487 -0.2101
  850MOL0     C14625   7.023   2.735   5.038  0.0201 -0.0494 -0.3552
  850MOL0     C14626   6.901   2.653   4.984 -0.1881  0.6081  0.0826
  850MOL0     C14627   6.786   2.740   4.946  0.0900 -0.2785 -0.0842
  850MOL0     C14628   6.666   2.662   4.892  0.0184  0.1648  0.3707
  850MOL0     C14629   6.603   2.744   4.784 -0.1734 -0.0104 -0.6371
  850MOL0     C14630   6.458   2.699   4.737 -0.5119 -0.1483  0.4062
  850MOL0     C14631   6.344   2.785   4.798 -0.0118 -0.5624  0.1957
  850MOL0     N14632   6.309   2.763   4.936 -0.3888  0.6671 -0.7016
  850MOL0     C14633   6.388   2.803   5.038  0.6611 -0.5462  0.6408
  850MOL0     C14634   6.303   2.778   5.143 -0.3667  0.1195 -0.1042
  850MOL0     C14635   6.336   2.804   5.284  0.1338 -0.5784  0.4995
  850MOL0     C14636   6.319   2.674   5.371 -0.4411  0.2293 -0.3938
  850MOL0     C14637   6.327   2.694   5.520  0.4226  0.2571  0.3261
  850MOL0     C14638   6.208   2.775   5.565 -0.3671  0.1529  0.0512
  850MOL0     O14639   6.086   2.700   5.550 -0.2038  0.2038  0.9091
  850MOL0     C14640   5.964   2.749   5.580 -0.0671  0.0179  0.1596
  850MOL0     C14641   5.933   2.880   5.622  0.3641  0.5146 -0.2821
  850MOL0     C14642   5.802   2.919   5.653  1.1202  0.3688 -0.5120
  850MOL0     C14643   5.783   3.057   5.702 -0.3178 -0.2906 -0.0766
  850MOL0     C14644   5.695   2.817   5.644  0.4649 -0.6579  0.2445
  850MOL0     C14645   5.546   2.839   5.670  0.2956  0.4814  0.3022
  850MOL0     O14646   5.461   2.746   5.624  0.2024  0.4787  1.2474
  850MOL0     C14647   5.324   2.750   5.644  0.7203 -0.0377 -0.3527
  850MOL0     C14648   5.251   2.631   5.646  0.5459 -1.0720  0.3091
  850MOL0     C14649   5.111   2.627   5.663  0.1266 -0.2461 -0.1978
  850MOL0     C14650   5.043   2.746   5.697 -0.5972 -0.4000 -0.1230
  850MOL0     O14651   4.919   2.752   5.746 -0.2340  0.0959 -0.3620
  850MOL0     C14652   4.816   2.667   5.698  0.2634  0.9616 -0.1593
  850MOL0     C14653   4.779   2.566   5.815 -0.1727 -1.2567 -0.1630
  850MOL0     C14654   4.684   2.459   5.768  0.3976 -0.2316 -0.7451
  850MOL0     C14655   4.624   2.375   5.882 -0.4378 -0.0637  0.5184
  850MOL0     C14656   4.547   2.266   5.814 -0.6328 -0.2064  0.1515
  850MOL0     C14657   4.486   2.164   5.914 -0.5067  0.0155 -0.1910
  850MOL0     C14658   4.386   2.071   5.853 -0.4361 -0.1452  0.0102
  850MOL0     C14659   4.238   2.097   5.873 -0.9195  0.8341  0.1945
  850MOL0    Cl14660   4.185   2.236   5.778  0.0590 -0.0175 -0.0447
  850MOL0     C14661   5.111   2.859   5.674  0.0159 -0.3539  1.2052
  850MOL0     C14662   5.252   2.868   5.659 -0.5671  0.5031 -0.2663
  850MOL0     O14663   5.517   2.941   5.741  0.2198 -0.6675  0.0572
  850MOL0     C14664   5.730   2.687   5.598 -0.1874  0.1089 -0.1724
  850MOL0     C14665   5.860   2.657   5.572 -0.2747  0.0578 -0.3397
  850MOL0     N14666   6.178   2.735   5.102 -0.0436 -0.2913  0.3248
  850MOL0     N14667   6.185   2.720   4.982 -0.6209  1.0862 -0.0392
  850MOL0     C14668   7.415   2.530   4.905  0.1964 -0.1962 -0.6367
  850MOL0     C14669   7.547   2.471   4.932  0.8315 -0.1569  0.4074
  850MOL0     C14670   7.905   2.343   5.218  0.1084 -0.6850  0.4291
  850MOL0     C14671   7.953   2.243   5.133 -0.0961  0.7225 -0.3904
  850MOL0     C14672   8.072   2.183   5.148 -0.7657 -0.2342 -0.7622
  850MOL0     C14673   8.151   2.228   5.255 -0.9597  0.2168  0.6659
  850MOL0     O14674   8.285   2.188   5.265 -0.1978 -0.1135  0.8021
  850MOL0     C14675   8.316   2.067   5.198 -0.5610 -0.3145  1.1060
  850MOL0     C14676   8.450   2.014   5.238  0.1688  0.0519 -1.0215
  850MOL0     C14677   8.450   1.969   5.392  0.4807 -0.1631 -0.3681
  850MOL0     C14678   8.579   1.915   5.452  0.0704 -0.2151 -0.0242
  850MOL0     C14679   8.643   1.826   5.353 -1.4316 -0.2304  0.2241
  850MOL0     C14680   8.713   1.746   5.292 -0.0759  0.2172 -0.5729
  850MOL0     C14681   8.111   2.331   5.341  0.0508 -0.0946 -0.3513
  850MOL0     C14682   7.989   2.389   5.326 -0.0663 -0.9008  0.5939
  850MOL0     H14683   7.498   2.381   5.250 -0.7993 -0.9828 -0.4977
  850MOL0     H14684   7.285   2.471   5.217  1.7523 -2.6602  1.0793
  850MOL0     H14685   7.091   2.584   5.161  1.6989  1.7494  1.3590
  850MOL0     H14686   7.204   2.714   5.127 -0.0048  1.3098 -0.9733
  850MOL0     H14687   6.993   2.795   5.124 -0.8896 -0.9072 -0.0550
  850MOL0     H14688   7.048   2.798   4.952 -1.8554 -2.4813 -2.8852
  850MOL0     H14689   6.939   2.607   4.891 -0.4149 -2.1683  1.2587
  850MOL0     H14690   6.884   2.566   5.047  0.2431 -0.4857 -1.2381
  850MOL0     H14691   6.756   2.812   5.022  5.1461 -0.0595  2.0891
  850MOL0     H14692   6.827   2.806   4.869 -0.7557  0.5684  0.1792
  850MOL0     H14693   6.683   2.565   4.846 -0.4612  1.0153 -1.7308
  850MOL0     H14694   6.591   2.653   4.972 -2.4889  1.9312 -1.6103
  850MOL0     H14695   6.597   2.850   4.811  0.0595 -0.3934  1.0110
  850MOL0     H14696   6.678   2.740   4.704 -0.2869  0.3898 -0.7676
  850MOL0     H14697   6.454   2.715   4.628  0.6740 -1.0350  0.2090
  850MOL0     H14698   6.446   2.597   4.772 -1.9568  0.3799  1.5025
  850MOL0     H14699   6.256   2.761   4.737  0.6332  0.6145 -1.2372
  850MOL0     H14700   6.351   2.892   4.777 -0.2602 -0.5922 -0.0392
  850MOL0     H14701   6.473   2.869   5.028  0.4469 -0.3169  0.2945
  850MOL0     H14702   6.435   2.851   5.293  0.6429 -1.6679  0.7797
  850MOL0     H14703   6.258   2.867   5.327 -1.1926 -2.5260  1.0964
  850MOL0     H14704   6.397   2.603   5.341 -2.2625 -1.9601 -0.1425
  850MOL0     H14705   6.232   2.619   5.336 -1.4984  1.8299 -0.3994
  850MOL0     H14706   6.420   2.741   5.553 -0.1270  0.7603  1.1768
  850MOL0     H14707   6.319   2.599   5.574  1.8727 -1.0920 -1.6628
  850MOL0     H14708   6.196   2.870   5.512  0.6087  0.0534 -0.3676
  850MOL0     H14709   6.225   2.799   5.671  1.4321  0.6212 -0.3103
  850MOL0     H14710   6.006   2.959   5.635 -1.0650  1.6193  1.4737
  850MOL0     H14711   5.731   3.112   5.623  2.9257  0.3833 -1.8913
  850MOL0     H14712   5.709   3.067   5.783 -0.6958  2.2905 -0.6658
  850MOL0     H14713   5.874   3.102   5.742 -1.1713 -0.0986  1.7850
  850MOL0     H14714   5.305   2.536   5.645  3.7685  0.5798  1.4031
  850MOL0     H14715   5.068   2.528   5.675  0.5585 -0.2755  1.1799
  850MOL0     H14716   4.732   2.736   5.685  0.8194  1.5827 -0.6142
  850MOL0     H14717   4.844   2.608   5.610  0.9219 -0.4291  0.9572
  850MOL0     H14718   4.874   2.525   5.850  1.5226  2.2896 -0.1578
  850MOL0     H14719   4.744   2.623   5.902  1.2429  0.8793 -0.9024
  850MOL0     H14720   4.738   2.389   5.703 -2.8654 -0.9567 -2.9424
  850MOL0     H14721   4.602   2.508   5.714  0.6214  1.1881  0.1605
  850MOL0     H14722   4.709   2.330   5.934  1.0854  0.5095 -1.3544
  850MOL0     H14723   4.570   2.436   5.955 -1.1348  0.5657 -0.5056
  850MOL0     H14724   4.606   2.217   5.736 -0.3954  0.8532 -0.3530
  850MOL0     H14725   4.466   2.321   5.766 -0.6474 -0.2364  0.1414
  850MOL0     H14726   4.566   2.114   5.971  1.5926  1.9216 -1.3246
  850MOL0     H14727   4.428   2.227   5.981  0.9657  1.5956 -0.3335
  850MOL0     H14728   4.426   1.973   5.879 -1.4626 -0.7180 -0.5092
  850MOL0     H14729   4.395   2.074   5.744 -1.0301 -0.3232 -0.0477
  850MOL0     H14730   4.197   2.101   5.974 -1.9588 -1.1979 -0.0910
  850MOL0     H14731   4.198   2.006   5.826  4.1401 -1.6436  0.0642
  850MOL0     H14732   5.053   2.949   5.691 -1.7630 -1.3364  0.5623
  850MOL0     H14733   5.298   2.967   5.659  0.4900  0.0257 -0.7182
  850MOL0     H14734   5.661   2.608   5.569  0.8339 -0.0322 -2.4656
  850MOL0     H14735   5.892   2.560   5.535 -0.0273  0.0093 -0.0022
  850MOL0     H14736   7.394   2.565   4.805 -1.0617  0.0207 -0.3130
  850MOL0     H14737   7.625   2.455   4.858  0.0057  0.0926 -0.5408
  850MOL0     H14738   7.901   2.202   5.048 -0.2586 -1.4805  0.7033
  850MOL0     H14739   8.094   2.118   5.064  2.1035  0.6795 -0.7951
  850MOL0     H14740   8.238   1.993   5.218  0.4717 -1.3492  1.4150
  850MOL0     H14741   8.317   2.076   5.089 -1.0229 -1.6795  0.9745
  850MOL0     H14742   8.522   2.095   5.229  0.0118  0.6906  2.3723
  850MOL0     H14743   8.482   1.937   5.167  3.0891 -1.4272  1.6814
  850MOL0     H14744   8.372   1.895   5.413 -3.5599  3.7459 -0.3354
  850MOL0     H14745   8.418   2.064   5.435  0.7068  1.4455 -3.4553
  850MOL0     H14746   8.559   1.864   5.546 -1.2145 -2.4686 -1.4319
  850MOL0     H14747   8.643   1.994   5.491  0.7332 -2.1163  3.0661
  850MOL0     H14748   8.765   1.675   5.231 -2.4151 -0.3338 -2.0360
  850MOL0     H14749   8.169   2.357   5.430 -1.9493  0.6255  0.8195
  850MOL0     H14750   7.957   2.462   5.400  2.0111  1.5688 -0.7747
  851MOL0     O14751   9.464   3.199   0.097 -0.4618 -0.6859 -0.2329
  851MOL0     C14752   9.519   3.300   0.144 -0.9544  0.3011  0.1879
  851MOL0     O14753   9.465   3.384   0.240 -0.0953  0.2147  0.8510
  851MOL0     C14754   9.327   3.364   0.275 -1.5960  0.0249  0.1406
  851MOL0     C14755   9.263   3.483   0.317  0.5849 -0.0717 -0.5088
  851MOL0     C14756   9.133   3.467   0.370  0.3699 -0.3437  0.7015
  851MOL0     C14757   9.063   3.347   0.381 -0.3071  0.1661  0.4904
  851MOL0     O14758   8.939   3.330   0.442 -0.6606  0.3905 -0.0698
  851MOL0     C14759   8.937   3.392   0.571 -0.1104 -0.4192  0.0954
  851MOL0     C14760   8.783   3.381   0.614 -0.4238  0.3276  0.6665
  851MOL0     C14761   8.737   3.371   0.764  0.8482 -0.0744  0.0992
  851MOL0     C14762   8.588   3.373   0.782 -0.1069  0.3909 -0.1343
  851MOL0     C14763   8.501   3.245   0.746 -0.2708  0.0658 -0.0686
  851MOL0     C14764   8.364   3.280   0.716  0.3926  0.6255 -0.5885
  851MOL0     C14765   8.269   3.171   0.669 -0.3599  0.6419  0.8683
  851MOL0     C14766   8.197   3.106   0.784 -0.0317  0.4312  0.8498
  851MOL0     N14767   8.090   3.007   0.732  0.1445 -0.1979 -0.4303
  851MOL0     C14768   7.965   3.032   0.683 -0.7167 -0.3574 -0.1806
  851MOL0     C14769   7.926   2.915   0.633 -0.5272  1.1110  0.4904
  851MOL0     C14770   7.794   2.890   0.565  0.2087  0.7476  0.4047
  851MOL0     C14771   7.700   2.792   0.635 -0.4896  0.0799  0.0102
  851MOL0     C14772   7.758   2.664   0.690  1.4905  0.8714 -0.5585
  851MOL0     C14773   7.639   2.561   0.735 -0.8742 -0.0927  0.1268
  851MOL0     O14774   7.558   2.615   0.837  0.2654  0.4463 -0.0575
  851MOL0     C14775   7.601   2.610   0.966  0.0581 -0.1583 -0.3424
  851MOL0     C14776   7.512   2.640   1.060 -0.8612 -0.1109  0.0559
  851MOL0     C14777   7.539   2.633   1.197  0.1237 -0.5961 -0.3261
  851MOL0     C14778   7.439   2.647   1.303  0.1011 -0.5682 -0.3755
  851MOL0     C14779   7.668   2.599   1.238  0.1951  0.4841  0.4866
  851MOL0     C14780   7.727   2.589   1.376 -1.2763  0.5722 -0.1148
  851MOL0     O14781   7.842   2.521   1.404  0.0958  0.2302  0.1306
  851MOL0     C14782   7.883   2.502   1.537 -0.1120 -0.2503 -0.0369
  851MOL0     C14783   8.021   2.514   1.565  0.6088 -0.9317 -0.0672
  851MOL0     C14784   8.072   2.486   1.696 -0.2537 -0.0921 -0.3186
  851MOL0     C14785   7.995   2.449   1.801 -0.6063 -0.1037 -0.2910
  851MOL0     O14786   8.045   2.422   1.925 -0.3291 -0.0311  0.0532
  851MOL0     C14787   8.135   2.314   1.920  0.1226  0.1265 -0.1227
  851MOL0     C14788   8.161   2.267   2.058  0.4829 -0.5348 -0.1878
  851MOL0     C14789   8.236   2.136   2.065 -0.9675  0.1270 -0.0515
  851MOL0     C14790   8.376   2.152   1.988  0.6858 -0.3935  0.5433
  851MOL0     C14791   8.474   2.046   2.036  0.1873  0.8683 -1.0245
  851MOL0     C14792   8.611   2.059   1.975 -0.6157 -0.1796  0.0884
  851MOL0     C14793   8.680   1.926   1.960  0.3517  0.9639  0.3854
  851MOL0     C14794   8.830   1.929   1.935 -0.1765 -0.3191  0.7311
  851MOL0    Cl14795   8.894   2.021   1.797  0.1724 -0.1522  0.2779
  851MOL0     C14796   7.856   2.447   1.778  0.6266  0.1052  0.8649
  851MOL0     C14797   7.797   2.483   1.647 -0.6941  0.8408 -0.2125
  851MOL0     O14798   7.678   2.661   1.460 -0.3228 -0.1365 -0.0611
  851MOL0     C14799   7.763   2.567   1.140  0.5795  0.5171 -0.6977
  851MOL0     C14800   7.727   2.563   1.000  0.8638 -0.9913  0.0677
  851MOL0     N14801   8.030   2.831   0.638 -0.2619  0.2917 -0.0450
  851MOL0     N14802   8.128   2.878   0.705 -0.4055 -0.4157  0.5315
  851MOL0     C14803   9.134   3.233   0.346 -0.6488 -0.3941 -0.4638
  851MOL0     C14804   9.262   3.240   0.294  0.2484 -0.2246 -0.6553
  851MOL0     C14805   9.656   3.343   0.105  0.5681  0.8974 -0.3890
  851MOL0     C14806   9.702   3.302  -0.023  1.1383 -0.9867 -0.8032
  851MOL0     C14807   9.828   3.356  -0.056  0.1956  0.9368  0.7441
  851MOL0     C14808   9.901   3.448   0.025 -0.3486  0.0602  0.7584
  851MOL0     O14809  10.013   3.506  -0.047  0.0341 -0.1012 -0.2645
  851MOL0     C14810  10.079   3.620   0.019 -0.5943 -0.2715  0.0970
  851MOL0     C14811  10.204   3.658  -0.054 -1.2814 -0.6691 -0.9520
  851MOL0     C14812  10.276   3.764   0.034 -0.1275  0.7181 -0.2003
  851MOL0     C14813  10.411   3.795  -0.022 -0.8244  0.4626 -0.0707
  851MOL0     C14814  10.455   3.934   0.026  0.1732  0.5971  0.5588
  851MOL0     C14815  10.486   4.047   0.061 -0.1372 -0.0619 -0.5594
  851MOL0     C14816   9.860   3.483   0.151  0.4366 -0.4551 -1.0253
  851MOL0     C14817   9.730   3.439   0.182  0.6096  0.5124 -0.2627
  851MOL0     H14818   9.313   3.577   0.297  1.7852 -0.5768  0.0161
  851MOL0     H14819   9.076   3.556   0.394 -1.0379 -0.9657 -0.2232
  851MOL0     H14820   9.005   3.330   0.629  0.8806  1.0012  0.5086
  851MOL0     H14821   8.974   3.495   0.574 -0.8594 -0.1335 -0.0165
  851MOL0     H14822   8.736   3.468   0.567  2.4233  1.7117  0.1105
  851MOL0     H14823   8.748   3.292   0.561  2.1520  0.1160 -0.8458
  851MOL0     H14824   8.783   3.278   0.798  0.0096 -0.7354 -0.5143
  851MOL0     H14825   8.776   3.463   0.808  1.5110  0.0420 -0.7021
  851MOL0     H14826   8.567   3.382   0.889  1.5383 -4.2571  0.7979
  851MOL0     H14827   8.550   3.462   0.731  0.2044  1.3770  1.2643
  851MOL0     H14828   8.545   3.216   0.649  0.3823  1.5467 -0.2374
  851MOL0     H14829   8.510   3.166   0.821  2.9786 -1.0962 -1.4571
  851MOL0     H14830   8.323   3.333   0.803  1.7927 -1.5605  1.5541
  851MOL0     H14831   8.376   3.340   0.626  0.7546 -1.7157 -2.1830
  851MOL0     H14832   8.186   3.213   0.612 -1.9557 -1.7301  1.3128
  851MOL0     H14833   8.311   3.090   0.609 -2.7804 -0.1718  0.1514
  851MOL0     H14834   8.134   3.176   0.839 -1.4259 -0.1352  0.0125
  851MOL0     H14835   8.263   3.055   0.855 -0.5119  1.9427  2.4536
  851MOL0     H14836   7.911   3.126   0.674  1.9952  1.3302 -0.1348
  851MOL0     H14837   7.742   2.986   0.574  0.4727  0.8353  1.0321
  851MOL0     H14838   7.799   2.865   0.459  3.8892  0.8043  0.4554
  851MOL0     H14839   7.628   2.762   0.559  1.8723 -1.1134 -1.9071
  851MOL0     H14840   7.669   2.846   0.725  1.5723  1.3527  0.0249
  851MOL0     H14841   7.821   2.685   0.776  1.2691 -0.2451 -0.1063
  851MOL0     H14842   7.819   2.613   0.614  2.3251 -1.7135  1.6966
  851MOL0     H14843   7.679   2.462   0.756 -2.1806 -1.0728 -1.7079
  851MOL0     H14844   7.578   2.540   0.647 -2.2495  2.5665  0.3191
  851MOL0     H14845   7.415   2.671   1.023  0.3743  2.2290 -1.5377
  851MOL0     H14846   7.338   2.635   1.262 -0.7483  0.2597  1.3855
  851MOL0     H14847   7.454   2.571   1.380  1.4207  1.4295  1.4672
  851MOL0     H14848   7.446   2.744   1.353  0.3255 -0.4660 -0.6005
  851MOL0     H14849   8.082   2.537   1.478  1.0408 -0.2117  0.4173
  851MOL0     H14850   8.178   2.501   1.712 -0.6647  2.4316  0.3951
  851MOL0     H14851   8.090   2.232   1.864  0.6900 -0.4750  0.2936
  851MOL0     H14852   8.222   2.347   1.862 -0.0428 -2.1018 -1.7696
  851MOL0     H14853   8.213   2.346   2.114  0.2845  0.4912 -1.3943
  851MOL0     H14854   8.067   2.256   2.112 -0.8052 -0.8876 -2.3739
  851MOL0     H14855   8.186   2.046   2.027 -0.6813 -0.3711  0.7281
  851MOL0     H14856   8.248   2.117   2.172 -2.4234  1.5088  0.3855
  851MOL0     H14857   8.364   2.140   1.880  1.0915 -3.1063  0.7344
  851MOL0     H14858   8.413   2.253   2.006  3.2336 -0.7991 -1.7181
  851MOL0     H14859   8.434   1.947   2.011  1.1821 -0.3644  1.8672
  851MOL0     H14860   8.481   2.041   2.145  2.4214 -3.0605 -1.1646
  851MOL0     H14861   8.605   2.103   1.875 -0.7544  0.6151  0.4397
  851MOL0     H14862   8.674   2.118   2.043  0.5502  0.7964 -1.7343
  851MOL0     H14863   8.640   1.862   1.880  0.5732 -0.5979  1.4831
  851MOL0     H14864   8.660   1.884   2.059  0.9404  0.7942  0.4331
  851MOL0     H14865   8.872   1.830   1.916  0.3687  0.3715 -2.0218
  851MOL0     H14866   8.874   1.972   2.026 -1.5902  0.8624  0.9072
  851MOL0     H14867   7.793   2.422   1.864 -0.5903  0.1207  0.0083
  851MOL0     H14868   7.688   2.486   1.640 -0.5885  0.5434 -3.1997
  851MOL0     H14869   7.864   2.549   1.176  0.0496  1.6994  1.6420
  851MOL0     H14870   7.811   2.528   0.941  2.7865 -0.5034  2.3434
  851MOL0     H14871   9.093   3.133   0.360 -0.9549  0.0493  2.5821
  851MOL0     H14872   9.313   3.144   0.287  0.1262 -0.2688 -0.9703
  851MOL0     H14873   9.650   3.227  -0.081 -2.1999 -0.7614  1.6188
  851MOL0     H14874   9.863   3.316  -0.150 -1.6808  2.8350 -0.8917
  851MOL0     H14875  10.013   3.706   0.034 -0.7875 -0.0748 -1.7012
  851MOL0     H14876  10.102   3.577   0.117 -6.4861 -1.7942  1.1827
  851MOL0     H14877  10.171   3.691  -0.153  0.3892 -0.1608 -1.3874
  851MOL0     H14878  10.276   3.576  -0.056  0.5421  0.6886  1.8250
  851MOL0     H14879  10.292   3.731   0.137  1.5277  1.0927 -0.3147
  851MOL0     H14880  10.205   3.848   0.038  0.2098  0.9890  0.1808
  851MOL0     H14881  10.423   3.779  -0.130 -1.8867 -2.6288  0.1624
  851MOL0     H14882  10.477   3.718   0.020  0.3298 -0.1251 -2.7204
  851MOL0     H14883  10.519   4.144   0.092 -1.6218  0.1382  0.4945
  851MOL0     H14884   9.916   3.550   0.214 -0.1386 -0.9742  0.0639
  851MOL0     H14885   9.688   3.483   0.272  1.0396  0.0809  0.1566
  852MOL0     O14886   8.931   3.553   9.666  0.1661 -0.5376  0.8387
  852MOL0     C14887   8.969   3.628   9.757 -0.6146  0.7946 -0.6834
  852MOL0     O14888   8.897   3.729   9.816 -0.3405 -0.2457 -0.1910
  852MOL0     C14889   8.763   3.739   9.800  0.1376 -0.2499 -1.2541
  852MOL0     C14890   8.675   3.673   9.723  0.5258 -0.2193  0.6138
  852MOL0     C14891   8.535   3.705   9.725  0.1240 -0.2657  0.6598
  852MOL0     C14892   8.481   3.796   9.822  0.4336  0.3053 -0.0648
  852MOL0     O14893   8.350   3.835   9.834  0.3397  0.1301  0.2046
  852MOL0     C14894   8.256   3.752   9.771  0.3875  0.0190  0.2652
  852MOL0     C14895   8.110   3.811   9.769  0.7107 -0.2665  0.0472
  852MOL0     C14896   8.008   3.712   9.719 -0.0479  0.1699  0.1237
  852MOL0     C14897   8.029   3.670   9.569 -0.0799 -0.0097  0.0112
  852MOL0     C14898   7.932   3.552   9.518 -0.3315 -0.1461 -0.4194
  852MOL0     C14899   7.942   3.531   9.365 -0.2527  0.4427  0.2840
  852MOL0     C14900   7.875   3.406   9.314  0.3722 -0.2029  0.1706
  852MOL0     C14901   7.726   3.401   9.352  0.9810 -0.0566  0.1516
  852MOL0     N14902   7.657   3.292   9.271 -0.5165 -0.8982  0.5803
  852MOL0     C14903   7.641   3.288   9.131 -0.6707  0.1299  0.4417
  852MOL0     C14904   7.549   3.185   9.118  0.3609  0.3300  1.7803
  852MOL0     C14905   7.467   3.149   8.994 -0.1512  0.0303  0.1006
  852MOL0     C14906   7.322   3.112   9.026 -0.0884  0.7172  0.2376
  852MOL0     C14907   7.309   2.969   9.053  0.0307  0.5071 -0.6610
  852MOL0     C14908   7.175   2.933   9.115  0.4244 -0.2355 -0.1297
  852MOL0     O14909   7.148   2.792   9.123 -0.1876  0.1383 -0.2789
  852MOL0     C14910   7.020   2.766   9.152 -0.1750  0.8321  0.1084
  852MOL0     C14911   6.953   2.671   9.083  0.9998  0.3807 -0.2178
  852MOL0     C14912   6.821   2.636   9.114 -0.3854  0.1149 -0.0731
  852MOL0     C14913   6.768   2.528   9.034  0.1263 -0.4493  1.1228
  852MOL0     C14914   6.755   2.706   9.217 -0.2994  0.3655 -0.4857
  852MOL0     C14915   6.611   2.701   9.235  0.0996  0.6035 -0.2661
  852MOL0     O14916   6.522   2.659   9.136  0.2315  0.3866  0.4612
  852MOL0     C14917   6.389   2.626   9.163 -0.4280 -0.3653  0.4814
  852MOL0     C14918   6.277   2.710   9.121 -0.3822 -0.2790  0.4866
  852MOL0     C14919   6.142   2.671   9.137  0.0903 -1.2583 -0.6009
  852MOL0     C14920   6.112   2.554   9.210  0.4188 -0.8152 -0.3581
  852MOL0     O14921   5.974   2.535   9.240  0.0639 -0.1759  0.1995
  852MOL0     C14922   5.934   2.406   9.276  0.0813 -0.0077 -0.2507
  852MOL0     C14923   5.939   2.308   9.157 -0.0734  0.3052 -0.1326
  852MOL0     C14924   5.891   2.167   9.218 -0.3770  0.1335 -0.1835
  852MOL0     C14925   5.745   2.146   9.198 -0.0932 -0.1319  0.6606
  852MOL0     C14926   5.692   2.028   9.285 -0.5904  0.6147  0.2889
  852MOL0     C14927   5.751   1.892   9.249 -0.2007 -1.3976  0.2738
  852MOL0     C14928   5.691   1.777   9.319  0.1920 -0.3496 -0.9284
  852MOL0     C14929   5.741   1.776   9.460  0.2014 -0.3748 -0.9617
  852MOL0    Cl14930   5.684   1.622   9.533 -0.0812 -0.7403 -0.5968
  852MOL0     C14931   6.224   2.481   9.257  0.0848 -0.0184  0.6663
  852MOL0     C14932   6.355   2.514   9.240  0.8848 -0.1417 -0.2356
  852MOL0     O14933   6.585   2.726   9.349  0.0946  0.2028  0.3021
  852MOL0     C14934   6.836   2.788   9.297 -0.0920 -0.4085 -0.8496
  852MOL0     C14935   6.962   2.828   9.259  0.0509  0.0351 -0.9072
  852MOL0     N14936   7.520   3.122   9.242 -0.3403 -0.2148 -0.3023
  852MOL0     N14937   7.592   3.182   9.328 -0.3032 -0.8591 -0.0937
  852MOL0     C14938   8.576   3.870   9.898 -0.5509  0.3739  0.0578
  852MOL0     C14939   8.716   3.843   9.885  0.0797  0.7137  0.6052
  852MOL0     C14940   9.101   3.612   9.811  0.3141  1.0530 -0.2170
  852MOL0     C14941   9.162   3.490   9.778 -0.7135  0.3770 -0.8046
  852MOL0     C14942   9.304   3.481   9.796  0.7078  0.5127 -0.1611
  852MOL0     C14943   9.374   3.577   9.858 -0.9447 -0.5471 -0.1080
  852MOL0     O14944   9.496   3.550   9.889  0.4228 -0.5571 -0.0843
  852MOL0     C14945   9.589   3.652   9.916  0.3879  0.3136  0.3578
  852MOL0     C14946   9.712   3.594   9.863  0.5987 -0.2711  0.3828
  852MOL0     C14947   9.766   3.475   9.938 -0.3553  0.4350  0.0668
  852MOL0     C14948   9.897   3.411   9.874  0.6309  0.1160 -0.1638
  852MOL0     C14949   9.957   3.336   9.988  0.5596 -0.0536 -0.4980
  852MOL0     C14950  10.010   3.283  10.088  0.3970  0.4580 -0.4477
  852MOL0     C14951   9.303   3.683   9.914  0.1210 -0.1189  1.1948
  852MOL0     C14952   9.167   3.713   9.886 -0.5376 -0.2074  0.6780
  852MOL0     H14953   8.697   3.593   9.653 -0.7702  0.7184 -0.9404
  852MOL0     H14954   8.476   3.634   9.667  0.1088 -1.8302  2.5072
  852MOL0     H14955   8.280   3.733   9.666 -3.6721 -2.9449 -0.4086
  852MOL0     H14956   8.251   3.650   9.810  0.4370  0.1490  0.6124
  852MOL0     H14957   8.066   3.838   9.865  0.0964 -1.6543  0.1869
  852MOL0     H14958   8.110   3.906   9.716  1.9147 -0.7236 -0.8254
  852MOL0     H14959   8.019   3.622   9.780 -0.6168  0.5027  0.7294
  852MOL0     H14960   7.906   3.750   9.724 -0.0756 -0.0657  1.9862
  852MOL0     H14961   8.008   3.747   9.494  2.9953 -0.6370 -1.6721
  852MOL0     H14962   8.132   3.635   9.553  1.4070  4.3734 -1.5412
  852MOL0     H14963   7.970   3.458   9.558  1.6684  1.9138  2.9578
  852MOL0     H14964   7.826   3.566   9.544  0.2054  2.7192  0.6027
  852MOL0     H14965   7.881   3.612   9.325 -1.4450  0.1106  1.3287
  852MOL0     H14966   8.041   3.529   9.320  0.5313  1.0372  1.9127
  852MOL0     H14967   7.887   3.403   9.206  1.2436 -2.4168  0.2876
  852MOL0     H14968   7.929   3.319   9.353  2.0207  0.6740 -0.0719
  852MOL0     H14969   7.666   3.492   9.334 -0.2627 -1.0130 -0.7608
  852MOL0     H14970   7.712   3.383   9.459 -0.3651 -0.2065 -0.0296
  852MOL0     H14971   7.675   3.348   9.047  1.3002 -0.4253  0.7764
  852MOL0     H14972   7.468   3.241   8.935 -0.4769  1.1258  1.7363
  852MOL0     H14973   7.524   3.067   8.950 -0.7090 -0.8705  1.0042
  852MOL0     H14974   7.261   3.145   8.941  0.1695  0.9495  0.1413
  852MOL0     H14975   7.291   3.162   9.119 -0.6749 -0.6923  0.8321
  852MOL0     H14976   7.384   2.924   9.118 -0.5113 -0.8179 -0.9036
  852MOL0     H14977   7.326   2.908   8.963 -1.0786 -1.5592  0.4398
  852MOL0     H14978   7.101   2.984   9.053  0.7607 -1.3145 -1.4753
  852MOL0     H14979   7.174   2.980   9.214 -0.6495 -0.4971 -0.0035
  852MOL0     H14980   7.004   2.626   8.998  0.3568  2.7139 -1.9413
  852MOL0     H14981   6.825   2.504   8.944 -3.5529 -0.2536 -1.4746
  852MOL0     H14982   6.754   2.430   9.082 -0.3708 -1.2037 -0.4946
  852MOL0     H14983   6.670   2.557   8.994 -0.4789 -0.6975  2.3602
  852MOL0     H14984   6.310   2.795   9.062  2.5216 -1.5894  0.0055
  852MOL0     H14985   6.068   2.738   9.095 -0.1010 -0.3127  1.1211
  852MOL0     H14986   5.999   2.370   9.357 -0.1622  0.3072  0.0894
  852MOL0     H14987   5.829   2.404   9.305 -0.0705 -1.4616 -0.8059
  852MOL0     H14988   5.879   2.340   9.072  1.5047 -1.2801 -1.9148
  852MOL0     H14989   6.038   2.306   9.112 -0.3393 -0.9739 -0.7185
  852MOL0     H14990   5.893   2.172   9.328 -1.0413  3.8658 -0.2201
  852MOL0     H14991   5.961   2.087   9.194  1.4844  0.8495  2.4105
  852MOL0     H14992   5.700   2.243   9.219  0.1036  0.0734  0.1666
  852MOL0     H14993   5.722   2.120   9.095 -2.7283  0.7717  0.9493
  852MOL0     H14994   5.586   2.011   9.265 -0.5550  0.7654 -0.0313
  852MOL0     H14995   5.707   2.068   9.386  0.9332  0.2417  0.2284
  852MOL0     H14996   5.756   1.876   9.141 -2.4959  0.7559 -0.2596
  852MOL0     H14997   5.857   1.895   9.274 -0.5362  1.7284  1.8319
  852MOL0     H14998   5.718   1.683   9.268  1.9797  0.7641 -2.1725
  852MOL0     H14999   5.582   1.782   9.306  0.4211  1.3374 -2.6892
  852MOL0     H15000   5.702   1.864   9.511 -0.7553 -0.8214 -0.9042
  852MOL0     H15001   5.850   1.784   9.459  0.1465  2.8656  1.4686
  852MOL0     H15002   6.211   2.381   9.299  0.8182 -0.7352 -0.7509
  852MOL0     H15003   6.434   2.449   9.277 -1.5489 -3.2171 -0.0628
  852MOL0     H15004   6.780   2.832   9.380 -1.5189 -1.2730 -1.3141
  852MOL0     H15005   7.019   2.894   9.323  1.0036 -2.9726  1.6122
  852MOL0     H15006   8.553   3.946   9.971  3.1242  2.0210 -0.2484
  852MOL0     H15007   8.787   3.899   9.945  1.0383  0.4550 -0.2488
  852MOL0     H15008   9.122   3.401   9.731 -2.1399  0.2443  0.5754
  852MOL0     H15009   9.351   3.385   9.776 -1.0504 -0.1668 -1.2856
  852MOL0     H15010   9.561   3.745   9.866  1.7120  1.0362  0.9119
  852MOL0     H15011   9.597   3.669  10.024  0.5159  1.2838  0.2102
  852MOL0     H15012   9.791   3.668   9.880  1.0956 -0.6275 -0.3017
  852MOL0     H15013   9.710   3.572   9.756  1.2117  1.7534 -0.0952
  852MOL0     H15014   9.689   3.397   9.925 -0.9855  0.6826  1.9656
  852MOL0     H15015   9.782   3.486  10.045  0.8162 -2.6370  0.3147
  852MOL0     H15016   9.974   3.485   9.852 -0.7436  2.6469  2.8494
  852MOL0     H15017   9.882   3.336   9.796  2.0431 -0.1615 -0.1933
  852MOL0     H15018  10.058   3.242  10.175  0.2972 -1.4866 -1.2570
  852MOL0     H15019   9.360   3.756   9.970  2.6537 -2.3739  1.7602
  852MOL0     H15020   9.119   3.807   9.914 -2.4251 -1.4562  1.8526
  853MOL0     O15021   7.952   6.344   2.068  0.0335 -0.3752 -0.0043
  853MOL0     C15022   7.911   6.248   2.133 -0.3467 -0.6220 -0.8218
  853MOL0     O15023   7.886   6.249   2.272  0.0420 -0.4203  0.6752
  853MOL0     C15024   7.883   6.371   2.335  0.2748  0.0135 -0.7160
  853MOL0     C15025   7.792   6.485   2.322  0.6867 -0.3058 -0.3205
  853MOL0     C15026   7.799   6.590   2.414  0.6837  0.1900  0.1819
  853MOL0     C15027   7.903   6.596   2.506 -1.0016 -0.8979  0.3665
  853MOL0     O15028   7.902   6.717   2.579  1.0354 -0.3363  0.1062
  853MOL0     C15029   7.982   6.722   2.699 -0.6303 -0.0716 -0.1334
  853MOL0     C15030   7.927   6.822   2.805  0.7145  0.5547 -0.0666
  853MOL0     C15031   7.793   6.795   2.866  0.4160  0.8714 -0.0751
  853MOL0     C15032   7.743   6.906   2.961 -0.3227  0.6548 -0.8529
  853MOL0     C15033   7.604   6.878   3.037 -0.2313  0.6785 -0.6667
  853MOL0     C15034   7.570   6.979   3.144 -0.0814 -0.3344  0.1354
  853MOL0     C15035   7.446   6.929   3.230 -0.2264  0.0579  0.3113
  853MOL0     C15036   7.434   6.989   3.369  0.6659  0.5049 -0.3280
  853MOL0     N15037   7.355   6.897   3.461  0.7354 -0.2687  0.0435
  853MOL0     C15038   7.220   6.903   3.452 -0.9363 -0.2175  0.7852
  853MOL0     C15039   7.172   6.814   3.538 -0.1152  0.4203 -1.3603
  853MOL0     C15040   7.026   6.801   3.573 -0.2564  0.3427 -0.1438
  853MOL0     C15041   6.967   6.691   3.478 -0.1281  0.7671  0.0252
  853MOL0     C15042   6.820   6.674   3.502  0.1160  0.1674 -0.2034
  853MOL0     C15043   6.795   6.580   3.623 -0.1674 -0.1755  1.1139
  853MOL0     O15044   6.669   6.608   3.694  0.2401 -0.2797 -1.2861
  853MOL0     C15045   6.546   6.567   3.631  0.1134 -0.7455 -0.2136
  853MOL0     C15046   6.525   6.502   3.503 -0.4676 -0.3309  0.0839
  853MOL0     C15047   6.393   6.465   3.468 -0.9716  0.2937  0.6501
  853MOL0     C15048   6.393   6.390   3.340  0.2746  0.7359  0.1556
  853MOL0     C15049   6.280   6.481   3.555 -0.8562  0.2229 -1.0715
  853MOL0     C15050   6.150   6.432   3.528 -0.3345 -0.3642 -0.3642
  853MOL0     O15051   6.045   6.498   3.585  0.6169  0.1865  0.1291
  853MOL0     C15052   5.914   6.463   3.557  0.3842 -0.2953  0.0684
  853MOL0     C15053   5.816   6.564   3.568  0.5633  0.2516 -0.2544
  853MOL0     C15054   5.680   6.544   3.552  0.9085 -0.2340 -0.1661
  853MOL0     C15055   5.630   6.411   3.528 -0.2817  0.2277  0.2159
  853MOL0     O15056   5.494   6.387   3.514 -0.2016  0.1316  0.3580
  853MOL0     C15057   5.431   6.271   3.451  0.7505 -0.4373 -0.2829
  853MOL0     C15058   5.274   6.274   3.456 -0.2124 -0.0897  0.6019
  853MOL0     C15059   5.214   6.381   3.373 -0.4544 -0.1429  0.2035
  853MOL0     C15060   5.068   6.390   3.387 -0.4194 -0.6787  0.0688
  853MOL0     C15061   5.016   6.507   3.302 -0.3353  0.2637 -0.1335
  853MOL0     C15062   4.874   6.542   3.349  0.1665  0.5202 -0.8581
  853MOL0     C15063   4.810   6.666   3.270 -0.4579  0.6759  0.2794
  853MOL0     C15064   4.789   6.794   3.348  0.2757  0.2956 -0.2263
  853MOL0    Cl15065   4.630   6.786   3.425  0.1790  0.5693  0.0795
  853MOL0     C15066   5.719   6.306   3.537 -0.2243 -1.3367  0.5115
  853MOL0     C15067   5.858   6.329   3.543 -0.1437  0.4124 -0.3267
  853MOL0     O15068   6.139   6.327   3.469 -0.5416  0.6788 -0.1814
  853MOL0     C15069   6.303   6.555   3.673  0.6710  0.9148  0.5708
  853MOL0     C15070   6.431   6.595   3.707 -0.1947  0.4518 -0.3771
  853MOL0     N15071   7.283   6.752   3.594  0.0569  0.2503 -0.0208
  853MOL0     N15072   7.392   6.799   3.539 -0.4198  0.4949  0.2185
  853MOL0     C15073   8.001   6.500   2.509  0.0488  0.4019 -0.4196
  853MOL0     C15074   7.990   6.384   2.428 -0.2923  0.2963 -0.0395
  853MOL0     C15075   7.901   6.116   2.077  0.4251 -0.2500 -0.3277
  853MOL0     C15076   7.959   6.100   1.952  0.8562  0.0415 -0.4331
  853MOL0     C15077   7.933   5.986   1.879 -0.0153  0.4219 -0.1671
  853MOL0     C15078   7.835   5.898   1.916 -0.4284 -0.5493 -0.9778
  853MOL0     O15079   7.819   5.780   1.844 -0.4145  0.5181 -0.1622
  853MOL0     C15080   7.724   5.688   1.889 -0.1269  0.3842 -1.0067
  853MOL0     C15081   7.774   5.548   1.837  0.4403  0.1700 -0.1127
  853MOL0     C15082   7.692   5.432   1.880 -0.1743 -0.5722 -0.1238
  853MOL0     C15083   7.761   5.294   1.862  0.7453 -0.6903  0.4533
  853MOL0     C15084   7.807   5.280   1.721  0.0882 -0.5020 -0.8466
  853MOL0     C15085   7.826   5.255   1.605 -0.5289  0.1289  0.6342
  853MOL0     C15086   7.773   5.923   2.043 -0.7071 -0.4014  0.3937
  853MOL0     C15087   7.803   6.024   2.121  1.0196 -0.9088  0.1870
  853MOL0     H15088   7.714   6.473   2.247  0.0953 -0.3010  0.2882
  853MOL0     H15089   7.730   6.673   2.416 -0.9374 -1.1040  0.0664
  853MOL0     H15090   7.999   6.626   2.749  0.4155  0.8546  1.3613
  853MOL0     H15091   8.086   6.735   2.669  0.2432 -3.0122  1.2639
  853MOL0     H15092   8.001   6.815   2.885 -0.5170  1.0274  1.1587
  853MOL0     H15093   7.926   6.922   2.762  0.0786 -0.1469 -1.8009
  853MOL0     H15094   7.734   6.783   2.775  1.6820  0.2223 -0.8358
  853MOL0     H15095   7.794   6.692   2.904 -2.8075 -0.4656 -3.0703
  853MOL0     H15096   7.821   6.926   3.035  0.1380 -1.1132 -0.8237
  853MOL0     H15097   7.728   7.001   2.908 -2.3651  1.7827  1.5361
  853MOL0     H15098   7.525   6.872   2.961  0.6330  1.7783 -1.6897
  853MOL0     H15099   7.624   6.783   3.087 -0.1364  2.3334  2.7673
  853MOL0     H15100   7.658   7.000   3.207 -1.3818 -0.4707  2.0803
  853MOL0     H15101   7.539   7.072   3.097 -1.2844 -1.2625 -0.9607
  853MOL0     H15102   7.357   6.963   3.178  0.0173  0.8086  0.3720
  853MOL0     H15103   7.441   6.820   3.242 -1.5812 -0.2246 -2.1989
  853MOL0     H15104   7.381   7.085   3.361  1.2934  0.8375 -0.5414
  853MOL0     H15105   7.534   6.997   3.411  0.7370 -0.2515 -0.3433
  853MOL0     H15106   7.164   6.980   3.400 -0.9049 -1.8751 -1.8908
  853MOL0     H15107   7.016   6.770   3.677 -1.2713  1.0162 -0.0184
  853MOL0     H15108   6.959   6.887   3.559 -1.2904 -0.6595 -1.8012
  853MOL0     H15109   7.017   6.594   3.487  2.2809  1.7571 -1.6087
  853MOL0     H15110   6.987   6.727   3.377  0.9314 -0.6885 -0.3112
  853MOL0     H15111   6.781   6.620   3.416  2.5982  0.1571 -1.4181
  853MOL0     H15112   6.775   6.773   3.516  0.9780  0.3531  1.6170
  853MOL0     H15113   6.875   6.594   3.696  0.4435  3.0100 -0.0109
  853MOL0     H15114   6.799   6.474   3.595  0.1374 -0.7312  3.1422
  853MOL0     H15115   6.600   6.476   3.430 -1.0780 -2.2878  0.1005
  853MOL0     H15116   6.413   6.286   3.367  2.0212  1.6138  2.6241
  853MOL0     H15117   6.293   6.403   3.297 -0.3547  0.2297  1.3987
  853MOL0     H15118   6.467   6.424   3.268  0.2863 -0.5568 -0.4732
  853MOL0     H15119   5.847   6.667   3.576 -1.2521  0.7713  0.6540
  853MOL0     H15120   5.605   6.623   3.555 -1.8868 -2.5374 -2.6584
  853MOL0     H15121   5.459   6.276   3.345  2.2384  0.4112  0.1242
  853MOL0     H15122   5.477   6.181   3.492 -0.4506 -1.3134 -0.7995
  853MOL0     H15123   5.233   6.177   3.427  1.6714 -2.1456  4.1920
  853MOL0     H15124   5.245   6.285   3.560  0.8536 -0.6483  0.9717
  853MOL0     H15125   5.240   6.358   3.270 -0.5936 -2.7847  0.7101
  853MOL0     H15126   5.258   6.478   3.402  0.1276 -0.9083  2.0445
  853MOL0     H15127   5.017   6.305   3.342 -1.7648  1.3090 -2.4574
  853MOL0     H15128   5.037   6.396   3.491 -0.0290 -0.8680  0.1998
  853MOL0     H15129   5.023   6.486   3.195 -2.5823  2.7778 -0.8684
  853MOL0     H15130   5.076   6.597   3.319 -1.2657  0.4045  3.0657
  853MOL0     H15131   4.804   6.458   3.341 -1.4052  1.8898 -2.2335
  853MOL0     H15132   4.889   6.570   3.454  1.9031 -0.7515 -0.7277
  853MOL0     H15133   4.716   6.641   3.218  0.8165  0.2680 -1.9919
  853MOL0     H15134   4.877   6.694   3.188  1.0161  0.7157  1.4746
  853MOL0     H15135   4.791   6.876   3.275 -0.6028 -0.2086 -0.8289
  853MOL0     H15136   4.872   6.802   3.419  2.7846  0.0672 -2.9529
  853MOL0     H15137   5.691   6.204   3.510  1.1478 -1.0549 -2.4277
  853MOL0     H15138   5.925   6.243   3.549  0.9596  1.2781  0.2052
  853MOL0     H15139   6.223   6.574   3.743  0.3647 -0.8943  0.7672
  853MOL0     H15140   6.455   6.647   3.799 -1.7237 -0.6287  0.6740
  853MOL0     H15141   8.076   6.514   2.587  1.9194  1.3248 -2.2787
  853MOL0     H15142   8.052   6.300   2.457 -1.2971 -0.1022  1.0297
  853MOL0     H15143   8.031   6.170   1.910  1.2207  0.0581  0.1955
  853MOL0     H15144   7.988   5.960   1.789 -0.2575 -0.0445 -0.1865
  853MOL0     H15145   7.725   5.669   1.997  2.0780 -3.3654 -1.4893
  853MOL0     H15146   7.622   5.714   1.861 -1.4502 -2.6129  0.5372
  853MOL0     H15147   7.878   5.538   1.869  0.7092 -3.3358 -1.6797
  853MOL0     H15148   7.782   5.546   1.728 -0.9655 -0.5480 -0.2188
  853MOL0     H15149   7.597   5.426   1.826 -0.2565 -1.4547  0.0924
  853MOL0     H15150   7.663   5.438   1.985  0.7274  1.3704  0.0429
  853MOL0     H15151   7.687   5.215   1.874  0.3981 -0.1704  1.9701
  853MOL0     H15152   7.840   5.263   1.931 -0.1130 -0.5232  1.5329
  853MOL0     H15153   7.854   5.230   1.505  1.5455 -0.8881  1.4006
  853MOL0     H15154   7.686   5.868   2.077 -1.0831 -0.3118 -0.3812
  853MOL0     H15155   7.758   6.032   2.219 -2.7304 -0.5612 -1.3962
  854MOL0     O15156   4.368   3.312   7.814  0.1464 -0.5999  0.1689
  854MOL0     C15157   4.397   3.412   7.882 -0.9553  0.0926  0.2663
  854MOL0     O15158   4.321   3.530   7.873  0.1323  0.4428  0.1516
  854MOL0     C15159   4.190   3.526   7.818 -0.1384  1.1184 -0.5365
  854MOL0     C15160   4.085   3.468   7.892 -0.9638 -0.0290 -0.3414
  854MOL0     C15161   3.951   3.464   7.839  0.3108 -0.7228 -0.2876
  854MOL0     C15162   3.927   3.525   7.717  0.0743  0.4683  0.0253
  854MOL0     O15163   3.800   3.534   7.665 -0.3625  0.7537  0.4123
  854MOL0     C15164   3.694   3.577   7.755 -0.3022  0.4488  0.8570
  854MOL0     C15165   3.567   3.509   7.704  0.7444  0.2893  0.8054
  854MOL0     C15166   3.452   3.554   7.793  1.0962  0.1163 -0.1410
  854MOL0     C15167   3.331   3.459   7.761 -0.0500  0.1674  0.2366
  854MOL0     C15168   3.198   3.511   7.820 -0.2049 -0.3190  0.7326
  854MOL0     C15169   3.168   3.653   7.787  0.2014 -0.4564 -0.1416
  854MOL0     C15170   3.023   3.694   7.804  0.5885  0.3227 -0.0517
  854MOL0     C15171   3.005   3.830   7.865  0.9311  0.4244 -0.3446
  854MOL0     N15172   2.861   3.856   7.907 -0.3956 -0.2755  0.1185
  854MOL0     C15173   2.760   3.904   7.822 -0.8068 -0.2682  0.1242
  854MOL0     C15174   2.649   3.917   7.897 -0.8315  0.4622  0.8195
  854MOL0     C15175   2.519   3.959   7.856  1.0313 -0.7092 -0.5717
  854MOL0     C15176   2.419   3.843   7.814 -0.4245  0.1884 -0.8810
  854MOL0     C15177   2.458   3.792   7.671  0.5143  0.9910 -0.2153
  854MOL0     C15178   2.386   3.671   7.610  0.5980  1.1820 -0.8738
  854MOL0     O15179   2.239   3.668   7.627 -0.2231  0.3837  0.4589
  854MOL0     C15180   2.164   3.556   7.609 -0.3602 -0.5877 -0.6805
  854MOL0     C15181   2.034   3.553   7.633  0.0546 -0.0131 -0.5626
  854MOL0     C15182   1.950   3.443   7.606 -0.5640  0.6475 -1.3650
  854MOL0     C15183   1.811   3.463   7.641 -0.3835 -1.3269 -0.2206
  854MOL0     C15184   2.009   3.318   7.561  0.0908 -0.1816 -1.4829
  854MOL0     C15185   1.931   3.192   7.540 -0.1664 -0.0344  0.0935
  854MOL0     O15186   1.998   3.074   7.519 -0.5707 -0.2828 -0.1433
  854MOL0     C15187   1.940   2.951   7.542  0.1751 -0.1105  0.1783
  854MOL0     C15188   1.830   2.929   7.621 -0.1173  0.3427 -0.3541
  854MOL0     C15189   1.790   2.801   7.639 -0.4268 -0.2020 -0.7269
  854MOL0     C15190   1.849   2.692   7.579 -0.1870 -0.4563 -0.6691
  854MOL0     O15191   1.825   2.559   7.607  0.1133  0.4720 -0.2845
  854MOL0     C15192   1.722   2.530   7.707 -0.7262 -0.4127  0.5280
  854MOL0     C15193   1.742   2.381   7.742 -0.2290  0.2894  0.2564
  854MOL0     C15194   1.618   2.300   7.740  0.7469 -0.2555  0.3882
  854MOL0     C15195   1.567   2.271   7.599 -0.8891 -0.1145  0.4325
  854MOL0     C15196   1.424   2.231   7.594 -0.2771  0.1023 -0.4874
  854MOL0     C15197   1.389   2.169   7.461 -0.1501  0.5984 -0.7558
  854MOL0     C15198   1.243   2.212   7.432  0.1281  0.3733 -0.5855
  854MOL0     C15199   1.213   2.167   7.290 -0.6083 -0.2761 -1.1811
  854MOL0    Cl15200   1.326   2.257   7.179 -0.2315 -0.2776 -0.1185
  854MOL0     C15201   1.951   2.720   7.492 -0.5887 -0.0030  0.3190
  854MOL0     C15202   1.995   2.851   7.470  0.4951  0.0091 -0.5084
  854MOL0     O15203   1.811   3.202   7.555  0.1430 -0.1438 -0.5085
  854MOL0     C15204   2.145   3.320   7.546 -0.0038  0.0921 -0.6633
  854MOL0     C15205   2.226   3.435   7.574  0.4029  0.3387  0.0450
  854MOL0     N15206   2.675   3.872   8.020 -0.0728 -0.0413  0.6900
  854MOL0     N15207   2.804   3.848   8.033  0.2341 -0.6484  0.0511
  854MOL0     C15208   4.031   3.581   7.644  0.3187  0.1690  0.3167
  854MOL0     C15209   4.163   3.593   7.695  0.0657  1.3373  0.5938
  854MOL0     C15210   4.515   3.400   7.976 -0.0784  0.2372  0.3198
  854MOL0     C15211   4.597   3.288   7.975 -0.5958 -0.5361  0.1374
  854MOL0     C15212   4.700   3.273   8.078 -0.1539 -0.8883  0.2709
  854MOL0     C15213   4.720   3.382   8.170 -0.4033  0.3666 -0.3992
  854MOL0     O15214   4.825   3.382   8.268  0.3747 -0.4904 -0.6672
  854MOL0     C15215   4.937   3.299   8.234 -0.5133 -0.0528  0.0227
  854MOL0     C15216   4.925   3.178   8.315 -0.7634  0.1454 -0.0459
  854MOL0     C15217   5.041   3.085   8.294  1.0706 -0.3706  0.0169
  854MOL0     C15218   5.042   2.972   8.397 -0.1588  0.0565  0.1154
  854MOL0     C15219   5.078   3.023   8.531 -0.2755 -0.4359 -0.4851
  854MOL0     C15220   5.112   3.061   8.642 -0.6730  1.1664 -0.6940
  854MOL0     C15221   4.640   3.490   8.174 -0.0823  0.3499 -0.1553
  854MOL0     C15222   4.541   3.500   8.074  0.8364  0.3143 -0.4934
  854MOL0     H15223   4.102   3.415   7.985  0.3847 -1.0582 -1.1338
  854MOL0     H15224   3.868   3.419   7.893  1.1734  0.3108  2.0478
  854MOL0     H15225   3.719   3.549   7.858  2.1307 -0.1648  0.1682
  854MOL0     H15226   3.675   3.684   7.738 -3.6369 -0.2690 -0.6621
  854MOL0     H15227   3.547   3.532   7.600 -0.0084 -0.2897  0.8189
  854MOL0     H15228   3.577   3.400   7.709 -0.4396 -0.0189 -2.1772
  854MOL0     H15229   3.472   3.537   7.899  1.7025 -2.1073 -0.5638
  854MOL0     H15230   3.426   3.660   7.781  0.7720 -0.1329 -2.0057
  854MOL0     H15231   3.333   3.439   7.653  1.8316  0.3924  0.1812
  854MOL0     H15232   3.358   3.359   7.796 -0.9152 -0.0040  0.4343
  854MOL0     H15233   3.114   3.455   7.777 -1.7106  2.2055  0.2224
  854MOL0     H15234   3.196   3.493   7.928  0.0014 -0.2747  0.7435
  854MOL0     H15235   3.223   3.706   7.865  0.5239 -0.9096 -0.0588
  854MOL0     H15236   3.204   3.673   7.685 -0.6354  0.0499 -0.3462
  854MOL0     H15237   2.978   3.695   7.704 -0.2303 -0.6053  0.2915
  854MOL0     H15238   2.965   3.627   7.868 -0.7545  1.2769 -0.2467
  854MOL0     H15239   3.046   3.911   7.803 -1.6975  1.7124 -0.5434
  854MOL0     H15240   3.054   3.837   7.963  0.6296  2.8903 -0.2927
  854MOL0     H15241   2.775   3.910   7.715 -0.4350  0.2308  0.2031
  854MOL0     H15242   2.466   4.006   7.939  0.6265  1.8361 -2.1760
  854MOL0     H15243   2.525   4.041   7.784 -0.6456 -2.3308 -2.6899
  854MOL0     H15244   2.316   3.878   7.813 -0.7438 -0.5604  1.1466
  854MOL0     H15245   2.433   3.755   7.878  2.2702  0.5657 -0.8070
  854MOL0     H15246   2.561   3.755   7.683 -0.3814 -1.4098  0.7490
  854MOL0     H15247   2.453   3.871   7.595  1.9649  2.6956  1.3568
  854MOL0     H15248   2.435   3.586   7.659 -0.0409  1.4807  0.3182
  854MOL0     H15249   2.408   3.673   7.503  0.2857 -0.1272 -0.9748
  854MOL0     H15250   1.986   3.645   7.666 -0.3350  0.0553 -1.2912
  854MOL0     H15251   1.770   3.386   7.707 -0.9279 -0.4530  0.4832
  854MOL0     H15252   1.810   3.557   7.697  1.1354 -1.1724 -0.4131
  854MOL0     H15253   1.756   3.471   7.547  0.1318  1.9558 -0.3628
  854MOL0     H15254   1.771   3.010   7.662  2.2673  2.3728 -0.7097
  854MOL0     H15255   1.697   2.789   7.694  0.6974  0.1203  1.3352
  854MOL0     H15256   1.734   2.580   7.803 -0.1707 -0.4959  0.5061
  854MOL0     H15257   1.624   2.553   7.666 -1.7251  3.1855  4.3240
  854MOL0     H15258   1.807   2.339   7.666  0.8494  1.6621  0.3820
  854MOL0     H15259   1.782   2.373   7.843 -0.5373 -0.1072  0.3502
  854MOL0     H15260   1.544   2.356   7.798  0.7020  1.4802 -1.2226
  854MOL0     H15261   1.634   2.202   7.786 -1.8763 -0.2219  1.5483
  854MOL0     H15262   1.571   2.371   7.554 -1.9206  0.0471  0.6633
  854MOL0     H15263   1.637   2.213   7.539  1.0006  0.9258  1.5617
  854MOL0     H15264   1.365   2.321   7.612  1.9376  1.0119  3.4110
  854MOL0     H15265   1.406   2.157   7.673 -0.4332  1.1359  0.4695
  854MOL0     H15266   1.458   2.208   7.386  0.4753 -2.0144 -1.6307
  854MOL0     H15267   1.399   2.061   7.475 -0.2749  0.7078  0.2545
  854MOL0     H15268   1.234   2.321   7.434  0.0710  0.3601  0.0333
  854MOL0     H15269   1.177   2.163   7.504 -0.1312  0.0169 -1.0655
  854MOL0     H15270   1.111   2.197   7.266 -0.8702  2.9601  2.8256
  854MOL0     H15271   1.232   2.059   7.286  2.0816  0.1048 -0.9677
  854MOL0     H15272   1.995   2.638   7.437 -1.1396  0.1541 -0.3618
  854MOL0     H15273   2.074   2.883   7.403  1.8473  2.3181  2.0179
  854MOL0     H15274   2.197   3.231   7.512 -1.0298 -1.6757  2.0416
  854MOL0     H15275   2.331   3.433   7.547  0.6445  2.3267  0.7015
  854MOL0     H15276   4.000   3.620   7.547 -1.0198 -3.2479 -0.8000
  854MOL0     H15277   4.239   3.658   7.654 -1.5404  3.5701  1.0008
  854MOL0     H15278   4.579   3.213   7.898  0.2460  0.7290 -1.3564
  854MOL0     H15279   4.757   3.181   8.083 -2.3850 -2.2834  3.2629
  854MOL0     H15280   4.937   3.249   8.137  1.9849 -5.2832  2.3490
  854MOL0     H15281   5.028   3.360   8.233  0.7681 -1.7959  2.4594
  854MOL0     H15282   4.829   3.126   8.307 -0.3869 -0.6228  0.3365
  854MOL0     H15283   4.936   3.200   8.421 -0.3649 -3.3290  0.7721
  854MOL0     H15284   5.126   3.154   8.286 -1.9021  3.5473 -0.7094
  854MOL0     H15285   5.019   3.029   8.203 -1.1477  0.1229  0.1885
  854MOL0     H15286   5.106   2.890   8.363 -1.6060 -0.9583 -0.3066
  854MOL0     H15287   4.947   2.916   8.394 -0.7173  0.9340  0.8090
  854MOL0     H15288   5.142   3.084   8.742 -1.4478 -1.3147  0.1641
  854MOL0     H15289   4.652   3.578   8.236  0.3144  0.5602 -0.5289
  854MOL0     H15290   4.497   3.598   8.078  1.2016  0.4402  2.8958
  855MOL0     O15291   4.360   1.363   6.208 -0.1732  0.0475 -0.4165
  855MOL0     C15292   4.399   1.326   6.092  0.4368 -0.4210 -0.8384
  855MOL0     O15293   4.315   1.307   5.982 -0.0608 -0.0207  0.0205
  855MOL0     C15294   4.179   1.317   5.993  0.5608 -0.2517 -1.5000
  855MOL0     C15295   4.109   1.427   6.051 -0.1994 -0.1848 -0.4973
  855MOL0     C15296   3.971   1.426   6.067  0.2640  0.1332  0.3202
  855MOL0     C15297   3.895   1.320   6.007 -0.2757  0.1761  0.6309
  855MOL0     O15298   3.758   1.315   5.994  0.9506 -0.1358 -0.4976
  855MOL0     C15299   3.684   1.411   6.070  0.1057 -0.1338 -0.2262
  855MOL0     C15300   3.539   1.358   6.083 -0.1711 -0.2831 -0.8183
  855MOL0     C15301   3.423   1.464   6.071 -0.1583 -0.2293  0.3640
  855MOL0     C15302   3.280   1.412   6.090 -0.7257 -0.1142  0.4760
  855MOL0     C15303   3.266   1.266   6.066 -0.5535 -0.2174  0.7819
  855MOL0     C15304   3.116   1.222   6.098  0.9034 -0.0832 -0.0358
  855MOL0     C15305   3.025   1.271   5.981 -0.5703 -0.0309 -0.6256
  855MOL0     C15306   2.887   1.198   5.974  0.8324  0.7359 -0.2077
  855MOL0     N15307   2.787   1.264   5.886  0.1786  0.1406 -0.4434
  855MOL0     C15308   2.667   1.319   5.924 -0.4488  0.5125 -0.0783
  855MOL0     C15309   2.607   1.363   5.808 -0.8827  0.0574 -0.4109
  855MOL0     C15310   2.497   1.466   5.792 -0.0796 -0.0246  0.0889
  855MOL0     C15311   2.457   1.476   5.635 -0.2190  0.8372  0.2710
  855MOL0     C15312   2.393   1.353   5.567  0.7779  0.7488  0.0784
  855MOL0     C15313   2.424   1.356   5.413  0.0173  0.3428 -0.0023
  855MOL0     O15314   2.419   1.236   5.342  0.2131  0.1442 -0.3254
  855MOL0     C15315   2.301   1.212   5.278  0.9120  0.3142 -1.2297
  855MOL0     C15316   2.198   1.177   5.356 -0.6471 -0.3794 -0.5386
  855MOL0     C15317   2.071   1.153   5.287 -0.7602 -0.6829  0.2929
  855MOL0     C15318   1.963   1.116   5.389  0.5236  0.2721  0.2500
  855MOL0     C15319   2.062   1.156   5.141 -0.1443 -0.0574 -0.7673
  855MOL0     C15320   1.931   1.128   5.069  0.2533 -0.6313 -0.3223
  855MOL0     O15321   1.818   1.101   5.144  0.5702  0.7734  0.3132
  855MOL0     C15322   1.701   1.084   5.075 -0.5983  1.9034  1.2549
  855MOL0     C15323   1.628   0.960   5.061 -0.5642  0.1552  0.3187
  855MOL0     C15324   1.494   0.967   5.012 -0.0019  1.4452 -1.0276
  855MOL0     C15325   1.439   1.088   4.969  0.6612  0.3846 -0.0335
  855MOL0     O15326   1.320   1.091   4.901  0.2436 -0.3248 -0.3787
  855MOL0     C15327   1.271   0.974   4.834  0.5147  0.3470  0.1948
  855MOL0     C15328   1.144   0.990   4.751  1.1852  0.0098  0.1570
  855MOL0     C15329   1.157   1.060   4.612  0.1226 -0.0338  0.9322
  855MOL0     C15330   1.046   1.061   4.528  0.3390 -0.6729 -0.5299
  855MOL0     C15331   0.963   1.186   4.533  0.0834  0.2942 -0.9148
  855MOL0     C15332   0.840   1.167   4.434 -0.0887  0.6811 -0.1143
  855MOL0     C15333   0.771   1.301   4.402  0.7409  0.7797 -0.3450
  855MOL0     C15334   0.707   1.392   4.517  0.4819  0.0923  0.6521
  855MOL0    Cl15335   0.574   1.508   4.441 -0.0835 -0.6891  0.1055
  855MOL0     C15336   1.515   1.201   4.973  0.4580  0.5372  0.3205
  855MOL0     C15337   1.650   1.193   5.017 -0.1624 -1.1255 -0.5267
  855MOL0     O15338   1.937   1.116   4.947 -0.2832  0.2165  0.0678
  855MOL0     C15339   2.185   1.177   5.074 -0.6813 -0.0602  0.1708
  855MOL0     C15340   2.299   1.213   5.140 -0.6949  0.0003  0.6404
  855MOL0     N15341   2.690   1.322   5.704  0.7207  0.7264  0.2472
  855MOL0     N15342   2.787   1.253   5.753  0.1984  0.2254  0.4110
  855MOL0     C15343   3.964   1.219   5.937  0.3535 -0.5054 -0.8655
  855MOL0     C15344   4.102   1.215   5.935 -0.3905  0.2931 -0.2479
  855MOL0     C15345   4.538   1.297   6.081 -0.3958 -0.8243 -0.9286
  855MOL0     C15346   4.580   1.203   5.990 -0.2571  0.0922  0.1213
  855MOL0     C15347   4.707   1.161   5.987  0.1506 -0.1899 -0.5047
  855MOL0     C15348   4.800   1.230   6.066 -0.1767 -0.3622 -0.6138
  855MOL0     O15349   4.932   1.197   6.058  0.1393  0.1173  0.5295
  855MOL0     C15350   4.988   1.213   5.930 -0.0393 -0.5448  0.2565
  855MOL0     C15351   5.134   1.178   5.944 -0.1005 -0.2360 -0.2071
  855MOL0     C15352   5.221   1.292   6.005 -0.3487 -0.5422 -0.0044
  855MOL0     C15353   5.378   1.271   5.996 -1.2213 -0.2420  0.5278
  855MOL0     C15354   5.456   1.350   6.093  0.1506 -0.7337 -0.1018
  855MOL0     C15355   5.525   1.426   6.156 -1.1062  0.3284  1.0153
  855MOL0     C15356   4.758   1.333   6.161  1.1061 -0.6305  0.0341
  855MOL0     C15357   4.618   1.366   6.165  0.0405 -0.3657 -1.2220
  855MOL0     H15358   4.164   1.509   6.096 -0.5403  0.4923 -1.2959
  855MOL0     H15359   3.929   1.510   6.122 -0.4938 -0.7505  1.1440
  855MOL0     H15360   3.722   1.429   6.171 -0.8486  1.9838 -0.1856
  855MOL0     H15361   3.683   1.496   6.002  2.4624 -1.4376 -2.0169
  855MOL0     H15362   3.533   1.281   6.007  1.2869 -1.8798  0.6025
  855MOL0     H15363   3.529   1.309   6.180 -3.6013  1.8871  0.1069
  855MOL0     H15364   3.444   1.541   6.145  1.9040 -1.6844  1.4118
  855MOL0     H15365   3.424   1.506   5.970  0.4476  1.5988  1.1064
  855MOL0     H15366   3.242   1.436   6.189 -0.7929  3.3004 -0.2547
  855MOL0     H15367   3.208   1.468   6.028 -0.0695 -1.0540 -1.2078
  855MOL0     H15368   3.294   1.248   5.962 -0.9319  1.5793  0.3412
  855MOL0     H15369   3.337   1.207   6.126 -0.4309 -0.9075 -0.0149
  855MOL0     H15370   3.112   1.113   6.101  1.4030 -0.2585 -2.7214
  855MOL0     H15371   3.079   1.263   6.192  0.2235 -0.0740 -0.2974
  855MOL0     H15372   3.004   1.377   5.999  1.6220  0.2842  0.4032
  855MOL0     H15373   3.082   1.258   5.889 -0.6922 -0.7112 -0.6115
  855MOL0     H15374   2.855   1.172   6.075 -0.1942 -1.2341 -0.9874
  855MOL0     H15375   2.898   1.104   5.920 -2.0925  1.7643 -2.9501
  855MOL0     H15376   2.639   1.351   6.024  0.6161  1.3947 -0.0450
  855MOL0     H15377   2.406   1.431   5.842 -1.4912 -0.3292 -2.5551
  855MOL0     H15378   2.527   1.561   5.836 -4.6288 -0.0491  4.1446
  855MOL0     H15379   2.548   1.498   5.578 -1.0804 -0.1631 -1.5473
  855MOL0     H15380   2.394   1.565   5.628  0.7381  1.4282 -1.4696
  855MOL0     H15381   2.284   1.358   5.578  0.7986 -0.9949  1.5842
  855MOL0     H15382   2.431   1.257   5.603  1.4016  0.1284 -2.1055
  855MOL0     H15383   2.525   1.392   5.391 -0.3583  0.7130 -1.2612
  855MOL0     H15384   2.362   1.429   5.359 -1.1891 -1.9820 -2.0009
  855MOL0     H15385   2.207   1.162   5.463 -1.4859  1.3738 -0.1855
  855MOL0     H15386   1.974   1.164   5.487  0.7152  1.5101 -0.3692
  855MOL0     H15387   1.857   1.119   5.361  1.0541 -1.5980 -2.3613
  855MOL0     H15388   1.970   1.009   5.410 -2.6600 -0.0472  0.1336
  855MOL0     H15389   1.672   0.866   5.093  0.8030  0.3635 -0.8147
  855MOL0     H15390   1.448   0.869   5.002  2.2916  0.4190 -2.2752
  855MOL0     H15391   1.344   0.935   4.762 -2.5775  0.2291 -3.1418
  855MOL0     H15392   1.264   0.891   4.905  2.1227  1.3945  1.6489
  855MOL0     H15393   1.108   0.890   4.725 -2.3002  2.0578 -4.2624
  855MOL0     H15394   1.057   1.035   4.800 -1.5267 -2.1639 -2.2428
  855MOL0     H15395   1.238   1.002   4.567  1.5548  1.2333  1.7715
  855MOL0     H15396   1.195   1.161   4.630 -0.4348  0.7083 -1.6469
  855MOL0     H15397   1.075   1.044   4.424  1.4319  1.4873 -0.6178
  855MOL0     H15398   0.986   0.972   4.553  2.2772 -1.8799  0.0528
  855MOL0     H15399   1.023   1.269   4.495  1.2145 -0.0090  0.1395
  855MOL0     H15400   0.924   1.205   4.633 -1.7201  2.7370 -1.9764
  855MOL0     H15401   0.877   1.129   4.338  1.4170 -0.3153  0.8289
  855MOL0     H15402   0.770   1.093   4.473  1.1353 -1.1630 -1.2722
  855MOL0     H15403   0.683   1.280   4.340  0.4808 -0.0773  0.3013
  855MOL0     H15404   0.846   1.361   4.350  0.2030  1.4133 -0.4082
  855MOL0     H15405   0.774   1.446   4.584  0.1597 -0.5534  1.5218
  855MOL0     H15406   0.652   1.322   4.582 -1.9930 -0.0959 -1.5062
  855MOL0     H15407   1.478   1.296   4.934  0.3331  0.0855 -0.6825
  855MOL0     H15408   1.706   1.286   5.013  0.2616 -1.1981  1.9942
  855MOL0     H15409   2.179   1.171   4.966 -2.8720 -0.1537  0.2438
  855MOL0     H15410   2.395   1.225   5.091 -0.1050 -1.4596  1.3618
  855MOL0     H15411   3.911   1.137   5.890  2.8244 -2.5064 -0.3474
  855MOL0     H15412   4.155   1.135   5.884  0.8038  0.0384  1.3463
  855MOL0     H15413   4.506   1.161   5.923 -3.2189 -1.8688  4.1544
  855MOL0     H15414   4.745   1.074   5.934  2.2325  0.0294  0.5213
  855MOL0     H15415   4.949   1.160   5.842  0.4657  1.9765 -1.6059
  855MOL0     H15416   4.999   1.320   5.908  1.3374 -0.9182 -1.0830
  855MOL0     H15417   5.170   1.160   5.842  0.3481 -0.0952 -0.0764
  855MOL0     H15418   5.137   1.081   5.995 -2.3453 -0.6805 -0.8076
  855MOL0     H15419   5.197   1.298   6.111  0.5743 -1.1181  0.2557
  855MOL0     H15420   5.201   1.393   5.969 -0.0663 -0.3215  0.4442
  855MOL0     H15421   5.413   1.286   5.894  2.7833 -0.0339  1.7475
  855MOL0     H15422   5.396   1.163   6.009  0.6541  0.2166  2.1623
  855MOL0     H15423   5.592   1.484   6.216 -0.8461 -0.0411  1.0808
  855MOL0     H15424   4.838   1.379   6.219 -0.5808  1.5164  0.7941
  855MOL0     H15425   4.587   1.443   6.235  2.3615 -3.1537  3.3385
  856MOL0     O15426   2.279   4.410   1.813  0.0304 -0.3592  0.0083
  856MOL0     C15427   2.335   4.520   1.845  0.0946  0.3792  0.4305
  856MOL0     O15428   2.281   4.641   1.876  0.0061 -0.6069 -0.3374
  856MOL0     C15429   2.148   4.659   1.857  0.4308 -0.2480  0.2971
  856MOL0     C15430   2.102   4.727   1.739  0.0657  0.3471 -0.3814
  856MOL0     C15431   1.970   4.750   1.721  0.1580 -0.5791  0.6856
  856MOL0     C15432   1.877   4.725   1.817  0.6649  0.5451  0.2397
  856MOL0     O15433   1.745   4.757   1.775 -0.4602  0.3013 -0.6502
  856MOL0     C15434   1.646   4.736   1.874 -0.1388 -0.6285 -0.1911
  856MOL0     C15435   1.511   4.805   1.848 -0.1286  0.9410 -0.4465
  856MOL0     C15436   1.395   4.788   1.957 -0.7667 -0.1732  0.7179
  856MOL0     C15437   1.295   4.903   1.954  0.5905 -0.1926  0.3477
  856MOL0     C15438   1.177   4.881   2.050 -0.1922  0.4859 -0.9603
  856MOL0     C15439   1.103   5.009   2.079  0.3722  0.2389 -0.2923
  856MOL0     C15440   0.960   4.989   2.140 -0.2794 -0.4259  0.2277
  856MOL0     C15441   0.900   5.126   2.177 -0.7527 -0.2214  1.1594
  856MOL0     N15442   0.818   5.122   2.298 -0.3576 -0.9525 -0.9456
  856MOL0     C15443   0.678   5.127   2.308 -0.0612 -0.3942  0.5928
  856MOL0     C15444   0.641   5.158   2.437 -0.6950 -0.2165  0.8724
  856MOL0     C15445   0.514   5.187   2.505 -0.0320  0.2599 -0.1418
  856MOL0     C15446   0.401   5.088   2.458  0.5183 -0.5599 -0.5400
  856MOL0     C15447   0.270   5.153   2.492  0.3579  0.0154 -0.6765
  856MOL0     C15448   0.145   5.071   2.450 -0.2373  0.1555 -1.3103
  856MOL0     O15449   0.135   4.940   2.509 -0.2491  0.5016  0.2647
  856MOL0     C15450   0.083   4.925   2.635  0.1083  0.0134 -1.2555
  856MOL0     C15451   0.029   4.798   2.664  0.5365  0.1100 -0.4272
  856MOL0     C15452  -0.036   4.776   2.784  0.3027  0.5715 -0.2123
  856MOL0     C15453  -0.113   4.645   2.797  0.7918  0.7866  0.4979
  856MOL0     C15454  -0.042   4.880   2.880  0.2287  0.2778  0.0638
  856MOL0     C15455  -0.088   4.869   3.027 -0.3855 -0.3837 -0.1763
  856MOL0     O15456  -0.049   4.966   3.121  0.2400  0.6067  0.0007
  856MOL0     C15457  -0.072   4.933   3.248 -0.8468  0.3200  0.0711
  856MOL0     C15458   0.043   4.909   3.330  0.0918  0.4091  0.1899
  856MOL0     C15459   0.042   4.872   3.465  0.2789 -0.1212 -0.5268
  856MOL0     C15460  -0.081   4.862   3.530 -0.4824 -0.3569 -0.8075
  856MOL0     O15461  -0.078   4.844   3.666  0.2457 -0.1511 -0.0304
  856MOL0     C15462  -0.174   4.739   3.712  0.7238 -0.3425  0.1253
  856MOL0     C15463  -0.122   4.663   3.839 -0.8558 -0.3760 -0.0170
  856MOL0     C15464  -0.036   4.543   3.806 -0.5136  0.4227  0.4213
  856MOL0     C15465   0.101   4.573   3.738 -0.2959 -0.1288  0.1882
  856MOL0     C15466   0.158   4.435   3.691  0.2132  0.7860  0.0712
  856MOL0     C15467   0.306   4.447   3.680 -0.0258 -0.0714 -0.9158
  856MOL0     C15468   0.344   4.525   3.551 -0.8716 -0.3749  0.1268
  856MOL0     C15469   0.490   4.555   3.534  0.1037 -0.6391  0.8757
  856MOL0    Cl15470   0.579   4.399   3.526 -0.0143 -0.1697  0.2123
  856MOL0     C15471  -0.199   4.882   3.452 -0.0557 -0.1888  0.2518
  856MOL0     C15472  -0.190   4.918   3.316  0.2306  0.1383  0.6257
  856MOL0     O15473  -0.144   4.764   3.043  0.0912  0.2843 -0.4948
  856MOL0     C15474   0.011   5.010   2.853  0.0455  0.1452  0.6047
  856MOL0     C15475   0.065   5.030   2.729 -0.6331 -0.4089  0.0119
  856MOL0     N15476   0.763   5.164   2.509  0.3830  0.6011  0.4536
  856MOL0     N15477   0.855   5.141   2.426  0.2364 -0.7193 -0.2775
  856MOL0     C15478   1.919   4.655   1.940  0.2078 -1.2769  0.2093
  856MOL0     C15479   2.054   4.631   1.963 -0.1430 -0.1602  0.0879
  856MOL0     C15480   2.482   4.516   1.864  0.0878  0.3020 -0.1196
  856MOL0     C15481   2.546   4.386   1.887  0.3414  0.0242 -0.2854
  856MOL0     C15482   2.678   4.376   1.927 -0.6544 -0.1597 -0.8958
  856MOL0     C15483   2.759   4.492   1.918 -0.2967 -0.0395 -0.2738
  856MOL0     O15484   2.897   4.488   1.932 -0.0343  0.3512 -0.6735
  856MOL0     C15485   2.982   4.602   1.942 -0.3489 -0.4876  1.5138
  856MOL0     C15486   3.129   4.554   1.954  0.4409 -0.0889 -0.1670
  856MOL0     C15487   3.155   4.470   2.087  0.3511 -0.4340  0.5924
  856MOL0     C15488   3.289   4.405   2.089 -0.4454 -0.8233 -0.2692
  856MOL0     C15489   3.333   4.347   2.218 -0.1648 -0.0049  0.5241
  856MOL0     C15490   3.364   4.293   2.318  0.8761 -0.4294 -1.0181
  856MOL0     C15491   2.690   4.622   1.890  0.4667 -0.1714  0.0606
  856MOL0     C15492   2.554   4.639   1.873 -0.1731  0.4612  0.6135
  856MOL0     H15493   2.167   4.751   1.656  1.9572 -0.9487  0.6409
  856MOL0     H15494   1.930   4.802   1.634 -1.0060  0.7308  1.9494
  856MOL0     H15495   1.624   4.629   1.870 -0.7627 -0.4953 -0.3359
  856MOL0     H15496   1.684   4.767   1.972  0.5781 -2.3005  0.1018
  856MOL0     H15497   1.550   4.907   1.845  0.4863  0.7942  1.4736
  856MOL0     H15498   1.484   4.765   1.750  0.5697 -1.4163  0.2462
  856MOL0     H15499   1.342   4.694   1.941 -0.6525  0.3617 -4.7654
  856MOL0     H15500   1.448   4.791   2.053  2.4843 -2.5815 -0.8178
  856MOL0     H15501   1.349   4.996   1.978 -0.0668  1.4483 -3.7135
  856MOL0     H15502   1.251   4.916   1.855  3.3367  0.7623 -0.8720
  856MOL0     H15503   1.112   4.803   2.008 -0.9168  1.9022 -2.6294
  856MOL0     H15504   1.219   4.846   2.144  1.3465  2.0881 -1.0048
  856MOL0     H15505   1.166   5.069   2.144 -2.0181  0.2391  2.2041
  856MOL0     H15506   1.087   5.063   1.984  1.4964 -1.4006 -1.4596
  856MOL0     H15507   0.894   4.946   2.065  0.4004  1.2509 -1.4147
  856MOL0     H15508   0.964   4.937   2.237  0.8561  1.2050  1.1167
  856MOL0     H15509   0.834   5.155   2.095 -0.2856  0.1035  0.8924
  856MOL0     H15510   0.982   5.198   2.191  0.4184 -0.9927 -1.1776
  856MOL0     H15511   0.624   5.117   2.214  1.8809  0.2346 -0.6546
  856MOL0     H15512   0.534   5.165   2.610 -0.2205 -1.1364 -0.3814
  856MOL0     H15513   0.486   5.292   2.496 -2.3464 -0.4632 -3.0535
  856MOL0     H15514   0.423   4.997   2.514  0.1613 -0.7906 -0.7705
  856MOL0     H15515   0.395   5.079   2.349  0.1588  3.1980 -0.9727
  856MOL0     H15516   0.267   5.250   2.442 -0.6245 -0.7731 -2.2306
  856MOL0     H15517   0.257   5.182   2.597  0.1066 -0.2148 -0.6425
  856MOL0     H15518   0.154   5.060   2.341 -0.0480 -0.7302 -1.2190
  856MOL0     H15519   0.051   5.121   2.473 -1.6208 -2.5370 -0.6689
  856MOL0     H15520   0.050   4.721   2.590 -1.6629 -3.0986  2.0081
  856MOL0     H15521  -0.126   4.603   2.697  1.0897  2.0201 -0.0734
  856MOL0     H15522  -0.057   4.579   2.864  0.0844  1.3721  1.7039
  856MOL0     H15523  -0.212   4.667   2.837 -0.9662 -0.8796 -2.5964
  856MOL0     H15524   0.143   4.906   3.288 -0.4178 -0.8642 -1.0096
  856MOL0     H15525   0.137   4.863   3.517  0.7788 -2.5075 -1.7326
  856MOL0     H15526  -0.278   4.773   3.722  0.2933 -1.4604 -0.4162
  856MOL0     H15527  -0.174   4.659   3.638  0.5459  1.1951 -1.6077
  856MOL0     H15528  -0.080   4.739   3.905 -0.8126  1.5733 -2.1889
  856MOL0     H15529  -0.207   4.616   3.889  0.6264 -1.4955  1.5894
  856MOL0     H15530  -0.090   4.467   3.747 -1.1233  1.1489  0.0276
  856MOL0     H15531   0.002   4.501   3.899 -1.4314  1.9620  1.5225
  856MOL0     H15532   0.077   4.630   3.647  0.5542 -0.1780 -0.0767
  856MOL0     H15533   0.162   4.633   3.806 -1.2168 -0.9476  1.7824
  856MOL0     H15534   0.113   4.404   3.596  0.5959  0.2356  0.0645
  856MOL0     H15535   0.128   4.360   3.764 -4.0990 -1.0596 -3.1317
  856MOL0     H15536   0.347   4.506   3.763  0.3516  1.7909 -2.3418
  856MOL0     H15537   0.346   4.345   3.677 -1.4197 -0.6081 -2.0462
  856MOL0     H15538   0.300   4.626   3.547 -2.7851 -1.1983 -2.7763
  856MOL0     H15539   0.304   4.480   3.460 -0.3983  1.9375 -1.3293
  856MOL0     H15540   0.520   4.612   3.623 -0.1733 -1.6126  1.6168
  856MOL0     H15541   0.517   4.623   3.453  0.5209  1.7141  2.8628
  856MOL0     H15542  -0.293   4.882   3.505 -0.4769 -3.6404 -0.2965
  856MOL0     H15543  -0.280   4.941   3.260  0.8816  3.4776  0.7020
  856MOL0     H15544   0.010   5.088   2.927  0.0464  3.0149 -2.1980
  856MOL0     H15545   0.090   5.134   2.708  1.2353 -1.3745 -3.0607
  856MOL0     H15546   1.840   4.626   2.008 -0.5210  1.2028  0.5290
  856MOL0     H15547   2.080   4.582   2.056  1.0899  1.4905  0.6595
  856MOL0     H15548   2.483   4.300   1.905  2.1603 -1.3984 -0.4765
  856MOL0     H15549   2.714   4.277   1.951 -2.6665 -0.8526 -0.5807
  856MOL0     H15550   2.979   4.662   1.850 -0.7641 -0.1544  1.7439
  856MOL0     H15551   2.947   4.665   2.024 -1.6356  2.0435 -0.8266
  856MOL0     H15552   3.191   4.644   1.945  0.3574  0.0108  0.2301
  856MOL0     H15553   3.153   4.491   1.867 -0.0833 -1.8849  0.9369
  856MOL0     H15554   3.082   4.392   2.110 -0.5240  0.8770  2.5406
  856MOL0     H15555   3.166   4.546   2.165  2.7525  0.6530 -0.6929
  856MOL0     H15556   3.376   4.468   2.067  0.4243 -2.3847 -1.6176
  856MOL0     H15557   3.289   4.327   2.012  0.4847 -1.5596  0.4523
  856MOL0     H15558   3.402   4.236   2.401 -0.4823 -0.7440 -0.5786
  856MOL0     H15559   2.750   4.712   1.886 -1.6958  1.3671  0.3070
  856MOL0     H15560   2.526   4.739   1.843  0.9240  0.3798 -0.8019
  857MOL0     O15561   6.732   1.521   3.628  0.2467 -0.3590  0.4377
  857MOL0     C15562   6.773   1.414   3.677  0.2942  0.0697  0.0657
  857MOL0     O15563   6.900   1.361   3.673  0.1401  0.5978 -0.7062
  857MOL0     C15564   7.006   1.406   3.601 -0.1789 -0.5261 -0.6841
  857MOL0     C15565   7.115   1.314   3.602 -0.7413  0.2616 -0.3804
  857MOL0     C15566   7.237   1.350   3.540 -0.5432 -0.0716 -0.0880
  857MOL0     C15567   7.244   1.471   3.473 -1.0162 -0.4339  0.5744
  857MOL0     O15568   7.365   1.489   3.404 -0.2154  0.0303  0.4344
  857MOL0     C15569   7.370   1.593   3.307  0.2300  0.2414 -0.0422
  857MOL0     C15570   7.500   1.576   3.228 -0.1888 -0.8648  0.3708
  857MOL0     C15571   7.623   1.646   3.270 -0.0032  0.1175  1.4200
  857MOL0     C15572   7.708   1.570   3.376 -0.3097 -0.7145  0.1041
  857MOL0     C15573   7.848   1.645   3.409  0.1015 -0.3602  0.0929
  857MOL0     C15574   7.926   1.657   3.283 -0.6163 -0.6231 -1.3894
  857MOL0     C15575   8.070   1.699   3.317  1.1411 -1.0572 -0.5586
  857MOL0     C15576   8.078   1.846   3.355  0.1472 -0.2552 -0.1064
  857MOL0     N15577   8.219   1.886   3.363  0.3603 -0.4577 -1.0159
  857MOL0     C15578   8.309   1.810   3.434 -0.3456 -0.2094  0.9813
  857MOL0     C15579   8.432   1.855   3.393  0.6435  0.6362 -1.0041
  857MOL0     C15580   8.560   1.813   3.464 -0.0088  0.1658  0.2234
  857MOL0     C15581   8.680   1.853   3.380  0.6811 -0.5168  0.6136
  857MOL0     C15582   8.799   1.833   3.470  0.1948  0.2022 -0.2722
  857MOL0     C15583   8.937   1.870   3.415 -0.6257  0.5165  0.0677
  857MOL0     O15584   9.036   1.828   3.508  0.2734 -0.2018  0.4878
  857MOL0     C15585   9.140   1.757   3.451  0.1268  1.1060 -0.0887
  857MOL0     C15586   9.200   1.650   3.514  1.2723 -0.0180 -0.1594
  857MOL0     C15587   9.319   1.587   3.472  0.2304  0.5200  0.0416
  857MOL0     C15588   9.383   1.486   3.564 -0.3874  0.5092 -0.8793
  857MOL0     C15589   9.390   1.642   3.361 -1.3341 -0.3001 -0.3471
  857MOL0     C15590   9.524   1.601   3.313  0.9798 -0.6981 -0.9787
  857MOL0     O15591   9.568   1.647   3.192 -0.1564 -0.3488 -0.5866
  857MOL0     C15592   9.682   1.592   3.144 -0.1456  0.9580  0.8606
  857MOL0     C15593   9.802   1.663   3.125  1.1499  0.9117 -0.8646
  857MOL0     C15594   9.904   1.608   3.055  0.0291 -0.6710  0.1913
  857MOL0     C15595   9.899   1.474   3.012 -0.3466 -0.1919 -0.0554
  857MOL0     O15596   9.998   1.410   2.935  0.1234  0.0127  0.3459
  857MOL0     C15597  10.112   1.481   2.894 -1.0880  0.8382 -0.3692
  857MOL0     C15598  10.238   1.394   2.930 -0.0450  1.0989 -0.0956
  857MOL0     C15599  10.268   1.374   3.079  0.3639 -0.7969 -0.2148
  857MOL0     C15600  10.380   1.280   3.105 -0.8391  0.5627  0.7633
  857MOL0     C15601  10.393   1.254   3.253 -0.1031  0.0854 -0.9306
  857MOL0     C15602  10.519   1.177   3.294 -0.7488  0.0032  0.1325
  857MOL0     C15603  10.650   1.256   3.259 -1.2034  0.7687  0.2254
  857MOL0     C15604  10.778   1.178   3.284 -0.9503 -0.2837 -0.1796
  857MOL0    Cl15605  10.797   1.035   3.170 -0.2899  0.6587  0.1083
  857MOL0     C15606   9.784   1.397   3.034 -0.8401 -0.0505 -0.5215
  857MOL0     C15607   9.674   1.458   3.097 -0.1559 -0.5115  0.5198
  857MOL0     O15608   9.596   1.539   3.391 -0.2972 -0.0942 -0.1385
  857MOL0     C15609   9.313   1.736   3.280 -0.9314 -0.2772  0.5675
  857MOL0     C15610   9.193   1.788   3.327  0.3780 -1.0979 -0.1555
  857MOL0     N15611   8.416   1.939   3.288 -0.0830 -0.0698 -0.3387
  857MOL0     N15612   8.288   1.956   3.270 -0.1814 -0.4247 -0.1422
  857MOL0     C15613   7.142   1.568   3.493  0.1237 -0.2589 -0.0297
  857MOL0     C15614   7.020   1.537   3.555  0.2803 -0.0888 -0.5075
  857MOL0     C15615   6.665   1.352   3.762  0.8323  0.1722 -1.1034
  857MOL0     C15616   6.684   1.223   3.824  0.7809 -0.2416  1.4312
  857MOL0     C15617   6.583   1.158   3.898 -0.2892 -0.0141  0.4427
  857MOL0     C15618   6.450   1.215   3.904  0.1645  0.3551 -0.3922
  857MOL0     O15619   6.333   1.166   3.964  0.6712  0.2818  0.4952
  857MOL0     C15620   6.338   1.043   4.039 -0.9349 -0.2092  0.3636
  857MOL0     C15621   6.288   0.929   3.954 -0.5025 -0.1872  0.0193
  857MOL0     C15622   6.138   0.927   3.912 -0.3240 -0.5546  0.8909
  857MOL0     C15623   6.092   0.780   3.916  0.3209  0.8940 -0.3335
  857MOL0     C15624   6.159   0.696   3.823 -0.5182 -0.3153  0.6653
  857MOL0     C15625   6.217   0.633   3.739 -0.3056  0.3341 -0.1862
  857MOL0     C15626   6.435   1.343   3.841  0.4047  0.7297 -0.4227
  857MOL0     C15627   6.535   1.411   3.779 -0.5115  0.2114 -0.0879
  857MOL0     H15628   7.091   1.217   3.643  0.6869 -0.9786 -2.3285
  857MOL0     H15629   7.308   1.268   3.531 -0.7222 -0.0992 -1.4058
  857MOL0     H15630   7.283   1.585   3.241 -0.2459  2.1274  0.3159
  857MOL0     H15631   7.360   1.695   3.344 -2.5420  0.5325 -1.3812
  857MOL0     H15632   7.536   1.473   3.220  2.8754  0.1079  0.4755
  857MOL0     H15633   7.486   1.613   3.126 -2.7805  1.1344  1.3185
  857MOL0     H15634   7.678   1.664   3.177 -1.2110  0.3175  0.7185
  857MOL0     H15635   7.604   1.751   3.296  3.2945  0.8894  1.1704
  857MOL0     H15636   7.641   1.572   3.462 -4.3569 -0.5458 -2.7506
  857MOL0     H15637   7.729   1.468   3.344 -0.6237 -0.6746 -0.2460
  857MOL0     H15638   7.824   1.741   3.456 -1.5935 -0.6366 -0.1438
  857MOL0     H15639   7.898   1.601   3.495 -0.7502  1.5880  1.6797
  857MOL0     H15640   7.925   1.556   3.240 -1.0737 -1.7795  1.1721
  857MOL0     H15641   7.888   1.737   3.218  1.5280 -0.2370 -2.2753
  857MOL0     H15642   8.104   1.634   3.398 -2.9787 -0.7680  1.6446
  857MOL0     H15643   8.121   1.684   3.222 -0.6821 -1.6841 -1.4719
  857MOL0     H15644   8.037   1.860   3.455  3.5870  0.1371  1.3798
  857MOL0     H15645   8.026   1.900   3.275  1.2124 -0.9594 -1.3227
  857MOL0     H15646   8.294   1.727   3.503  3.4451 -2.5980 -0.7848
  857MOL0     H15647   8.580   1.852   3.564  0.1133 -0.3317  0.3941
  857MOL0     H15648   8.552   1.704   3.468 -0.8888  0.0894 -1.9714
  857MOL0     H15649   8.678   1.958   3.349 -1.8212 -0.4720  0.7344
  857MOL0     H15650   8.698   1.795   3.289  0.2648 -0.2937  0.3886
  857MOL0     H15651   8.799   1.725   3.489 -1.4595  0.3129  0.4876
  857MOL0     H15652   8.785   1.883   3.566  0.0569  0.3388 -0.3629
  857MOL0     H15653   8.937   1.978   3.402 -0.9433  0.2854 -2.3622
  857MOL0     H15654   8.952   1.821   3.318  1.2736 -1.1846  1.1370
  857MOL0     H15655   9.150   1.631   3.609 -1.7634 -0.4733 -1.7364
  857MOL0     H15656   9.430   1.416   3.494  2.9854  1.4693  0.2330
  857MOL0     H15657   9.455   1.531   3.632 -0.3153 -1.2490  0.2706
  857MOL0     H15658   9.308   1.432   3.621 -0.4491 -2.6531 -3.6421
  857MOL0     H15659   9.795   1.765   3.160 -0.5672  0.6021 -0.2222
  857MOL0     H15660   9.990   1.674   3.048  0.3839 -1.0981  0.4744
  857MOL0     H15661  10.115   1.496   2.786  0.9830  4.7233  0.0701
  857MOL0     H15662  10.128   1.577   2.945  0.1523 -0.1659  1.2311
  857MOL0     H15663  10.240   1.291   2.895  0.6228  0.1807  2.4431
  857MOL0     H15664  10.319   1.438   2.871 -2.4020 -0.3341 -4.9686
  857MOL0     H15665  10.177   1.332   3.123  0.2265 -0.1204  0.1498
  857MOL0     H15666  10.281   1.475   3.118  0.3564  0.4147 -3.1246
  857MOL0     H15667  10.361   1.183   3.058  1.4292  0.5366 -0.2129
  857MOL0     H15668  10.461   1.337   3.059 -1.9855  2.2783  0.7750
  857MOL0     H15669  10.297   1.210   3.279 -1.8747  3.1267 -1.8416
  857MOL0     H15670  10.405   1.348   3.307 -2.6421 -1.5850  2.9485
  857MOL0     H15671  10.521   1.157   3.402 -2.5848  1.1943  0.4195
  857MOL0     H15672  10.512   1.077   3.250  0.3886 -0.1604  0.2718
  857MOL0     H15673  10.652   1.350   3.315 -2.7374 -0.9634  3.4839
  857MOL0     H15674  10.647   1.264   3.150 -3.4013 -0.2895  0.1617
  857MOL0     H15675  10.782   1.124   3.379  1.4820  0.5190  0.2279
  857MOL0     H15676  10.868   1.239   3.273  0.8702 -2.9307 -1.1194
  857MOL0     H15677   9.766   1.297   2.997 -0.5778  0.3421 -1.7575
  857MOL0     H15678   9.577   1.410   3.104 -0.3397 -0.6429 -1.9685
  857MOL0     H15679   9.353   1.779   3.189 -3.0186 -0.1367 -0.3424
  857MOL0     H15680   9.155   1.871   3.270  0.9761  0.0332  1.0418
  857MOL0     H15681   7.149   1.672   3.461  2.1401  0.2247  1.7156
  857MOL0     H15682   6.939   1.605   3.581 -1.1681 -2.4289  1.5535
  857MOL0     H15683   6.780   1.172   3.825  1.0669  0.2826  1.1282
  857MOL0     H15684   6.600   1.062   3.944  1.0922 -0.6096 -1.2186
  857MOL0     H15685   6.436   1.019   4.082 -0.8473  0.0500  0.3063
  857MOL0     H15686   6.280   1.052   4.132  1.9885  1.3674  2.1898
  857MOL0     H15687   6.311   0.840   4.014  2.9802  1.9911  2.2905
  857MOL0     H15688   6.354   0.916   3.868  0.1713  1.7485  0.2072
  857MOL0     H15689   6.127   0.973   3.813  0.2734 -0.9833  0.6212
  857MOL0     H15690   6.075   0.982   3.982 -2.3007  2.0195 -2.6080
  857MOL0     H15691   5.984   0.774   3.901 -0.0653  1.0925  1.9946
  857MOL0     H15692   6.124   0.752   4.017  2.5804 -1.1948 -1.5058
  857MOL0     H15693   6.267   0.566   3.672 -1.2037 -0.0791 -0.4589
  857MOL0     H15694   6.330   1.371   3.831  1.1686  4.1636 -0.1829
  857MOL0     H15695   6.507   1.501   3.724 -2.7931 -1.6102 -2.1280
  858MOL0     O15696   0.069   0.587   3.402  0.5417  0.2414  0.8089
  858MOL0     C15697   0.046   0.522   3.501 -0.1443  0.7483  0.3324
  858MOL0     O15698  -0.049   0.419   3.509 -0.4002  0.8400  0.0485
  858MOL0     C15699  -0.149   0.419   3.416 -0.8335  0.1692 -0.1109
  858MOL0     C15700  -0.131   0.349   3.301  0.1302  0.7602  0.0402
  858MOL0     C15701  -0.215   0.363   3.195  0.5130 -0.0848 -0.0950
  858MOL0     C15702  -0.338   0.439   3.214 -0.3910 -0.6272  0.4192
  858MOL0     O15703  -0.426   0.452   3.113 -0.6225 -0.2488 -0.1891
  858MOL0     C15704  -0.560   0.492   3.143 -0.1066 -0.5387  0.3028
  858MOL0     C15705  -0.653   0.441   3.032 -0.5614 -0.1489 -0.0693
  858MOL0     C15706  -0.800   0.469   3.059  0.6593 -0.5405  0.2832
  858MOL0     C15707  -0.876   0.447   2.921  0.4531 -0.0631  0.3757
  858MOL0     C15708  -1.015   0.505   2.925 -0.3855 -0.0177  0.3901
  858MOL0     C15709  -1.074   0.498   2.789  0.3217  0.2755  0.4840
  858MOL0     C15710  -1.222   0.526   2.769  0.6930 -0.2567  0.2247
  858MOL0     C15711  -1.271   0.641   2.850 -0.1559 -0.2262 -0.3166
  858MOL0     N15712  -1.206   0.769   2.807 -0.2311 -0.2806  0.0203
  858MOL0     C15713  -1.263   0.864   2.724 -0.2701 -1.5897 -0.7482
  858MOL0     C15714  -1.182   0.973   2.740 -0.1186 -1.4196 -1.4615
  858MOL0     C15715  -1.197   1.104   2.665 -0.6882 -0.0645  0.3005
  858MOL0     C15716  -1.341   1.143   2.658  0.9065  0.1772 -0.0545
  858MOL0     C15717  -1.354   1.288   2.603 -0.7496 -0.0934  0.5916
  858MOL0     C15718  -1.376   1.307   2.456 -0.5907  1.1408  0.0718
  858MOL0     O15719  -1.262   1.236   2.394 -0.3500 -0.6773 -0.4210
  858MOL0     C15720  -1.230   1.269   2.258 -0.6577  0.6589 -0.1299
  858MOL0     C15721  -1.112   1.222   2.200 -0.4781 -0.0649  0.1331
  858MOL0     C15722  -1.070   1.270   2.074  1.0394 -0.3425  0.2310
  858MOL0     C15723  -0.937   1.236   2.025 -0.8196  0.3351  0.5671
  858MOL0     C15724  -1.150   1.375   2.014 -0.4512  0.4891 -0.7618
  858MOL0     C15725  -1.109   1.442   1.896  0.4664  0.5833  0.2087
  858MOL0     O15726  -1.054   1.564   1.911 -0.4441  0.5744  0.0718
  858MOL0     C15727  -1.066   1.647   1.808 -0.4029 -0.2596  0.3320
  858MOL0     C15728  -1.189   1.719   1.798  0.4056 -0.7662  0.4352
  858MOL0     C15729  -1.206   1.821   1.691 -0.0368  0.4278 -0.4058
  858MOL0     C15730  -1.108   1.843   1.598 -0.9986  0.0661  0.6315
  858MOL0     O15731  -1.105   1.930   1.494  0.0114  0.2187  0.8236
  858MOL0     C15732  -1.197   2.041   1.484  0.3232  0.6918  0.0565
  858MOL0     C15733  -1.123   2.174   1.533  0.1644  0.2190  0.4463
  858MOL0     C15734  -1.026   2.213   1.417  0.2095 -0.4322 -1.1337
  858MOL0     C15735  -0.905   2.116   1.385  0.3887 -0.1108 -0.3267
  858MOL0     C15736  -0.782   2.196   1.344 -0.4135  0.2895 -0.5281
  858MOL0     C15737  -0.684   2.105   1.263 -0.6272 -0.8384 -0.1565
  858MOL0     C15738  -0.617   1.984   1.329  0.7642  0.2511  0.5393
  858MOL0     C15739  -0.494   1.943   1.276 -0.1434  0.0898  0.1305
  858MOL0    Cl15740  -0.367   2.075   1.320 -0.3137 -0.4201  0.1239
  858MOL0     C15741  -0.998   1.745   1.595 -0.6435  0.8704 -0.1418
  858MOL0     C15742  -0.975   1.652   1.700 -0.1301 -0.3176  0.7993
  858MOL0     O15743  -1.127   1.388   1.788  0.6019  0.1924 -0.1320
  858MOL0     C15744  -1.272   1.411   2.067  0.1602 -0.7076  0.1524
  858MOL0     C15745  -1.314   1.360   2.187  0.2889 -1.3063 -0.8381
  858MOL0     N15746  -1.088   0.947   2.832 -0.4826 -0.2811  0.0403
  858MOL0     N15747  -1.093   0.823   2.865 -0.3471 -0.5406 -0.9805
  858MOL0     C15748  -0.348   0.506   3.333  0.2105  0.0217 -0.2701
  858MOL0     C15749  -0.261   0.497   3.436 -0.5736 -0.6901 -1.0332
  858MOL0     C15750   0.147   0.534   3.609 -0.2359  0.0469  0.5479
  858MOL0     C15751   0.258   0.618   3.600  0.3744 -0.8232 -0.4228
  858MOL0     C15752   0.338   0.641   3.714 -0.2174 -1.5283  0.0475
  858MOL0     C15753   0.310   0.565   3.827  0.4048  0.3685 -0.1708
  858MOL0     O15754   0.373   0.582   3.948 -0.4633 -0.7497 -0.3898
  858MOL0     C15755   0.475   0.676   3.972 -1.4079  0.2684  0.0495
  858MOL0     C15756   0.481   0.707   4.131 -1.1311  0.0165 -0.3162
  858MOL0     C15757   0.605   0.802   4.133 -0.5809  0.7735 -0.3102
  858MOL0     C15758   0.605   0.866   4.274 -0.4250 -0.2354 -0.5614
  858MOL0     C15759   0.529   0.994   4.284 -0.0990  0.9898  0.3776
  858MOL0     C15760   0.474   1.102   4.310 -0.8240  0.4095  0.1324
  858MOL0     C15761   0.208   0.481   3.828 -0.3878 -0.5929 -0.1054
  858MOL0     C15762   0.126   0.459   3.719 -0.1017 -0.2099 -1.0677
  858MOL0     H15763  -0.051   0.277   3.296 -1.1065 -0.8240  1.7165
  858MOL0     H15764  -0.187   0.343   3.092  0.9506  1.5070 -0.3123
  858MOL0     H15765  -0.605   0.459   3.237 -3.6107  2.5903 -0.0196
  858MOL0     H15766  -0.568   0.601   3.147 -1.6861 -0.6592  3.1944
  858MOL0     H15767  -0.615   0.473   2.935  1.5290 -3.3186 -0.4480
  858MOL0     H15768  -0.641   0.333   3.024  2.4746  0.1392 -0.9299
  858MOL0     H15769  -0.833   0.400   3.137 -0.1331 -2.4582 -1.6409
  858MOL0     H15770  -0.815   0.573   3.090  1.8094 -0.3113  0.1213
  858MOL0     H15771  -0.818   0.498   2.843 -4.4875  3.6761 -1.4171
  858MOL0     H15772  -0.879   0.340   2.903  3.0548 -0.6373  2.6151
  858MOL0     H15773  -1.076   0.446   2.994 -0.1151  0.9907  1.5080
  858MOL0     H15774  -1.016   0.609   2.959 -0.1094  0.4402 -0.9441
  858MOL0     H15775  -1.024   0.580   2.737  0.4081 -0.0331  0.0700
  858MOL0     H15776  -1.048   0.404   2.738  0.1218 -0.0822  1.0349
  858MOL0     H15777  -1.236   0.554   2.664  1.6898 -0.2718  0.0735
  858MOL0     H15778  -1.277   0.433   2.784  1.2288 -1.0222 -2.0784
  858MOL0     H15779  -1.244   0.619   2.954  0.6344  0.6660 -0.3270
  858MOL0     H15780  -1.380   0.651   2.846 -0.1637 -0.7105 -1.5684
  858MOL0     H15781  -1.351   0.854   2.661 -1.3584  2.5979 -0.1956
  858MOL0     H15782  -1.135   1.179   2.715  1.5885 -1.2057 -0.7165
  858MOL0     H15783  -1.156   1.095   2.564  2.2039 -1.2529  1.4850
  858MOL0     H15784  -1.390   1.137   2.755 -4.0835 -1.9009 -2.3618
  858MOL0     H15785  -1.391   1.072   2.592  2.5301 -0.3498 -0.7667
  858MOL0     H15786  -1.268   1.351   2.629  0.8420 -0.7246 -2.7011
  858MOL0     H15787  -1.439   1.332   2.657 -2.2234 -2.1397  0.0342
  858MOL0     H15788  -1.373   1.411   2.422  3.2039  0.7235 -1.3001
  858MOL0     H15789  -1.469   1.264   2.416 -0.2165  0.8394 -0.4789
  858MOL0     H15790  -1.036   1.179   2.264 -0.1211  0.2204 -0.0935
  858MOL0     H15791  -0.901   1.141   2.066  0.4732  0.9217  0.8294
  858MOL0     H15792  -0.938   1.205   1.920 -0.3685 -1.5921  1.0785
  858MOL0     H15793  -0.874   1.324   2.033 -0.9297  0.5562 -0.8311
  858MOL0     H15794  -1.269   1.715   1.871 -2.1078  0.0398 -2.0971
  858MOL0     H15795  -1.306   1.864   1.693 -0.7430 -1.1170  1.9210
  858MOL0     H15796  -1.225   2.058   1.379 -1.4543 -0.5731  0.2734
  858MOL0     H15797  -1.293   2.033   1.536  1.3686  1.4093  2.1823
  858MOL0     H15798  -1.191   2.258   1.547 -1.8280 -1.1668 -0.4192
  858MOL0     H15799  -1.080   2.154   1.632  0.3014  1.3309  0.6213
  858MOL0     H15800  -0.994   2.314   1.444 -1.1300 -0.9067  2.7829
  858MOL0     H15801  -1.086   2.223   1.325  2.1333  0.2124 -2.3787
  858MOL0     H15802  -0.867   2.065   1.474 -0.2154 -0.6491 -0.3703
  858MOL0     H15803  -0.932   2.047   1.306 -1.2017  2.1017 -1.8396
  858MOL0     H15804  -0.730   2.236   1.432  0.5295  1.9137 -1.7654
  858MOL0     H15805  -0.816   2.285   1.290 -1.4368 -1.6299 -3.2368
  858MOL0     H15806  -0.734   2.075   1.171  0.2680  0.5501 -1.1310
  858MOL0     H15807  -0.602   2.176   1.248 -1.2222  0.0968  0.9047
  858MOL0     H15808  -0.685   1.900   1.348  1.9698 -0.9453 -0.2267
  858MOL0     H15809  -0.597   2.024   1.429 -0.2223  1.9975  0.0764
  858MOL0     H15810  -0.483   1.923   1.169  1.2447 -0.5629  0.3772
  858MOL0     H15811  -0.467   1.851   1.328  0.9245  0.3523  0.0728
  858MOL0     H15812  -0.922   1.750   1.517  1.0951  0.6897  1.4671
  858MOL0     H15813  -0.885   1.591   1.707  0.2382  0.1221  0.0730
  858MOL0     H15814  -1.340   1.469   2.005 -0.7568 -1.5436  0.3533
  858MOL0     H15815  -1.405   1.403   2.227  0.6480  0.4169 -1.7627
  858MOL0     H15816  -0.440   0.561   3.353  0.1663  0.6851 -2.1807
  858MOL0     H15817  -0.274   0.537   3.536  0.5849 -1.7215 -0.4328
  858MOL0     H15818   0.278   0.684   3.516 -1.6310 -3.4220 -3.1036
  858MOL0     H15819   0.425   0.704   3.695 -2.8563  1.6352 -2.9499
  858MOL0     H15820   0.570   0.630   3.943  0.0332 -0.9837  5.5245
  858MOL0     H15821   0.457   0.769   3.918 -0.3608  0.9169  0.7738
  858MOL0     H15822   0.496   0.619   4.195 -0.9590  0.5417  0.3720
  858MOL0     H15823   0.394   0.767   4.157  0.2074  2.0984 -0.4435
  858MOL0     H15824   0.596   0.887   4.064 -0.2563  0.8672 -0.2423
  858MOL0     H15825   0.699   0.757   4.098 -0.4717  0.6644  0.1161
  858MOL0     H15826   0.710   0.892   4.296 -0.4309  1.0409 -1.8864
  858MOL0     H15827   0.564   0.794   4.345 -1.1214  0.1153 -0.6027
  858MOL0     H15828   0.422   1.192   4.337 -1.2466  1.6803 -4.1777
  858MOL0     H15829   0.198   0.432   3.924  0.5391  0.1060  0.3724
  858MOL0     H15830   0.045   0.387   3.727 -1.3606  1.3547  3.4915
  859MOL0     O15831   7.816   8.723   9.721 -0.0147 -0.4884 -0.3546
  859MOL0     C15832   7.801   8.766   9.606 -0.4140  0.4160 -0.0218
  859MOL0     O15833   7.677   8.795   9.547 -0.3651  0.1419 -0.1094
  859MOL0     C15834   7.560   8.767   9.609  0.5804 -0.1808 -0.2199
  859MOL0     C15835   7.522   8.665   9.698  0.7599  0.3776 -0.9601
  859MOL0     C15836   7.411   8.659   9.774  0.0651  0.3338 -0.3009
  859MOL0     C15837   7.309   8.757   9.754  0.6683 -1.2588 -0.1020
  859MOL0     O15838   7.205   8.768   9.840  0.0315  0.2351  0.3834
  859MOL0     C15839   7.131   8.648   9.861 -0.7371 -0.0559  0.4634
  859MOL0     C15840   7.000   8.654   9.784  0.5331  0.3398 -0.2314
  859MOL0     C15841   7.003   8.617   9.644  0.3179  0.2912  0.3229
  859MOL0     C15842   6.861   8.619   9.583  0.5167 -0.9603  0.3078
  859MOL0     C15843   6.838   8.591   9.440  0.0449 -0.3755  0.3128
  859MOL0     C15844   6.689   8.550   9.415 -0.2278  0.2788  0.0478
  859MOL0     C15845   6.676   8.485   9.277 -0.4194 -0.1818 -0.0342
  859MOL0     C15846   6.539   8.485   9.212  0.0296  0.2392  0.2953
  859MOL0     N15847   6.565   8.434   9.067 -0.3230 -0.2468 -0.2672
  859MOL0     C15848   6.616   8.309   9.040  0.9184  0.2865 -0.1368
  859MOL0     C15849   6.659   8.325   8.909  0.7801 -0.8610 -0.4660
  859MOL0     C15850   6.719   8.223   8.819  0.0182  0.3424  0.5977
  859MOL0     C15851   6.624   8.180   8.710 -0.2333 -0.3547 -0.8717
  859MOL0     C15852   6.521   8.081   8.766  0.0995  0.3529 -0.1686
  859MOL0     C15853   6.409   8.046   8.669 -0.8317  0.1402 -0.5953
  859MOL0     O15854   6.320   8.150   8.633 -0.0819  0.0942  0.8255
  859MOL0     C15855   6.205   8.119   8.563 -0.3011  0.4879 -0.1386
  859MOL0     C15856   6.116   8.220   8.534  0.3014  0.6492  0.1025
  859MOL0     C15857   5.993   8.191   8.472 -0.5338 -0.3914 -0.1616
  859MOL0     C15858   5.901   8.304   8.439 -0.2369 -0.0058 -0.0362
  859MOL0     C15859   5.961   8.061   8.426  0.3896 -0.1334  0.3351
  859MOL0     C15860   5.832   8.014   8.355  0.1367  0.7409  1.3032
  859MOL0     O15861   5.810   7.873   8.355  0.4372  0.6902 -0.1303
  859MOL0     C15862   5.694   7.835   8.290 -0.3361  0.8041 -0.7037
  859MOL0     C15863   5.712   7.742   8.184 -0.0701 -0.8277 -0.3712
  859MOL0     C15864   5.595   7.697   8.117 -0.2238  0.0244 -0.8036
  859MOL0     C15865   5.468   7.742   8.165  0.6462  0.4323 -0.0183
  859MOL0     O15866   5.345   7.708   8.112  0.5119  0.2152 -0.4496
  859MOL0     C15867   5.332   7.576   8.055  0.0502 -0.5080  0.0842
  859MOL0     C15868   5.215   7.569   7.955  0.0380  0.0902 -0.8891
  859MOL0     C15869   5.201   7.428   7.910  0.3091  0.7627 -0.5711
  859MOL0     C15870   5.106   7.392   7.795 -0.8519  0.3173 -0.5624
  859MOL0     C15871   4.966   7.405   7.829  0.1461 -0.3647 -0.0160
  859MOL0     C15872   4.874   7.357   7.702 -0.8361  0.1471 -0.6390
  859MOL0     C15873   4.854   7.205   7.718  0.3055  0.2943 -0.7525
  859MOL0     C15874   4.769   7.159   7.837  0.1566  0.6875  0.6081
  859MOL0    Cl15875   4.597   7.120   7.787  0.5383 -0.2922 -0.0288
  859MOL0     C15876   5.458   7.831   8.269 -0.9688 -0.0787 -0.5054
  859MOL0     C15877   5.567   7.878   8.336 -0.0076  0.0844 -0.7071
  859MOL0     O15878   5.762   8.100   8.293 -0.8970  0.1092  0.1590
  859MOL0     C15879   6.061   7.965   8.456 -0.0188 -1.2063  0.0776
  859MOL0     C15880   6.175   7.991   8.522 -0.4689 -0.3688  0.7170
  859MOL0     N15881   6.657   8.458   8.874 -0.6587 -0.2844  0.3310
  859MOL0     N15882   6.613   8.523   8.974 -0.3388  0.0240  0.2984
  859MOL0     C15883   7.340   8.861   9.662 -0.7622  0.3996  0.2371
  859MOL0     C15884   7.462   8.871   9.597  0.0082  0.2425 -0.3102
  859MOL0     C15885   7.935   8.771   9.534 -0.3278  0.4909 -0.0870
  859MOL0     C15886   8.040   8.679   9.569  0.5753  0.4034  0.8540
  859MOL0     C15887   8.168   8.677   9.496 -0.3555 -0.5275 -0.3122
  859MOL0     C15888   8.183   8.771   9.394 -0.4803  0.0711  0.4754
  859MOL0     O15889   8.296   8.765   9.320 -0.2553 -0.2592 -0.3421
  859MOL0     C15890   8.363   8.889   9.297 -0.6715  0.3419 -0.6332
  859MOL0     C15891   8.523   8.860   9.324 -0.2423  0.4743 -0.0864
  859MOL0     C15892   8.546   8.747   9.431 -0.2599 -0.1468 -0.3412
  859MOL0     C15893   8.688   8.721   9.481  0.1068  0.3963 -0.2043
  859MOL0     C15894   8.696   8.583   9.538 -0.0651  1.0872 -0.5819
  859MOL0     C15895   8.699   8.472   9.588  0.9426  0.1030 -0.8525
  859MOL0     C15896   8.072   8.857   9.356 -0.0924 -0.0591 -0.2744
  859MOL0     C15897   7.953   8.860   9.433 -0.3476 -0.9086 -0.2707
  859MOL0     H15898   7.596   8.587   9.710 -0.3569 -0.8143 -1.6223
  859MOL0     H15899   7.395   8.586   9.852  2.4055  0.8497  0.7303
  859MOL0     H15900   7.176   8.551   9.842 -3.1548 -1.1398 -0.1990
  859MOL0     H15901   7.103   8.666   9.965  2.2213  3.2627  0.8672
  859MOL0     H15902   6.939   8.578   9.833  1.5523 -2.2383 -2.6887
  859MOL0     H15903   6.959   8.755   9.791  0.6099  0.2790  1.6418
  859MOL0     H15904   7.072   8.684   9.593 -1.3748 -0.2073 -2.9037
  859MOL0     H15905   7.055   8.521   9.636  2.7570  1.5841 -0.0886
  859MOL0     H15906   6.800   8.548   9.639  0.8979 -1.4539  0.1105
  859MOL0     H15907   6.829   8.723   9.595 -0.2403 -0.9169 -1.6695
  859MOL0     H15908   6.877   8.665   9.370  2.9114  0.1564  2.3017
  859MOL0     H15909   6.902   8.505   9.418 -1.8958 -2.2739  1.6779
  859MOL0     H15910   6.654   8.487   9.497  2.8918  0.5489  1.7705
  859MOL0     H15911   6.626   8.639   9.423  0.9611  1.0799  0.9829
  859MOL0     H15912   6.736   8.540   9.203  0.4894 -1.3852 -0.2180
  859MOL0     H15913   6.731   8.391   9.276  3.3299  1.7696 -2.4010
  859MOL0     H15914   6.508   8.590   9.207  1.1550  0.5211 -2.1555
  859MOL0     H15915   6.466   8.419   9.260 -0.8402  1.1818  0.2987
  859MOL0     H15916   6.620   8.214   9.093 -4.0332  0.1732  0.5168
  859MOL0     H15917   6.810   8.261   8.773  0.3705 -0.7453  0.3629
  859MOL0     H15918   6.746   8.130   8.870  2.9853  0.1821 -1.0259
  859MOL0     H15919   6.684   8.118   8.642 -1.5535 -2.1229 -0.5079
  859MOL0     H15920   6.584   8.268   8.659 -1.2022 -0.7867 -0.8662
  859MOL0     H15921   6.476   8.126   8.854  0.9628 -1.5805  1.3476
  859MOL0     H15922   6.581   7.991   8.787  1.6739  0.9222 -1.9472
  859MOL0     H15923   6.350   7.968   8.718 -0.5369 -0.0489 -0.5425
  859MOL0     H15924   6.463   8.018   8.578 -0.9648  0.0158 -0.6356
  859MOL0     H15925   6.147   8.319   8.566  2.8477  0.2365 -0.8203
  859MOL0     H15926   5.808   8.294   8.496  1.8152 -1.9786  3.2851
  859MOL0     H15927   5.953   8.397   8.464  0.1562 -0.2547  0.0862
  859MOL0     H15928   5.876   8.297   8.332 -0.2818 -1.2148  0.0406
  859MOL0     H15929   5.813   7.711   8.157  0.2690  0.5819 -0.8117
  859MOL0     H15930   5.592   7.630   8.031 -1.9548  0.9017 -1.4729
  859MOL0     H15931   5.425   7.551   8.004 -0.6354  0.3855 -1.6817
  859MOL0     H15932   5.328   7.502   8.136  3.4314 -1.1248 -0.1652
  859MOL0     H15933   5.122   7.587   8.010  0.9768 -2.1829  1.7479
  859MOL0     H15934   5.220   7.641   7.874 -0.2908 -2.3874 -3.2612
  859MOL0     H15935   5.166   7.371   7.996 -2.4295  3.0339 -0.0402
  859MOL0     H15936   5.302   7.396   7.882  0.9933  2.3990 -0.0672
  859MOL0     H15937   5.127   7.460   7.712 -0.8244  1.2946  0.2234
  859MOL0     H15938   5.122   7.288   7.763 -1.8807  0.2641 -0.9375
  859MOL0     H15939   4.944   7.508   7.859  0.9909  0.7331 -2.8468
  859MOL0     H15940   4.941   7.350   7.920  0.9992  0.4821  0.7562
  859MOL0     H15941   4.771   7.396   7.708 -0.8207  0.2443 -0.9639
  859MOL0     H15942   4.920   7.382   7.607 -0.3358 -0.0876 -0.4611
  859MOL0     H15943   4.956   7.166   7.728  0.1083  0.0177  0.3436
  859MOL0     H15944   4.818   7.157   7.626 -2.9687  1.4459 -0.2155
  859MOL0     H15945   4.777   7.230   7.919  3.1062 -1.0148  1.9586
  859MOL0     H15946   4.810   7.067   7.879 -2.1226  0.4115  2.3887
  859MOL0     H15947   5.355   7.862   8.282 -0.8168 -0.4711  2.3590
  859MOL0     H15948   5.546   7.955   8.410  0.1017  0.3853 -0.9852
  859MOL0     H15949   6.060   7.861   8.422 -0.4818 -1.8749  2.0200
  859MOL0     H15950   6.239   7.907   8.550 -0.0120  0.3846  2.0130
  859MOL0     H15951   7.272   8.945   9.652  0.4291  1.0789 -3.5253
  859MOL0     H15952   7.483   8.962   9.542  1.1234  0.0793 -0.1787
  859MOL0     H15953   8.025   8.635   9.667 -1.2791  2.0154  1.3402
  859MOL0     H15954   8.257   8.626   9.531 -0.1969 -0.7957 -1.0936
  859MOL0     H15955   8.363   8.899   9.188 -0.5804 -0.4936 -0.7225
  859MOL0     H15956   8.321   8.975   9.348 -0.0847  0.6743 -0.7019
  859MOL0     H15957   8.570   8.956   9.346 -1.8624  1.4705 -0.8149
  859MOL0     H15958   8.559   8.820   9.229 -3.4076 -1.3670 -0.6752
  859MOL0     H15959   8.503   8.651   9.399  0.7934 -1.6355  2.3494
  859MOL0     H15960   8.498   8.775   9.525 -0.5341 -4.7168  1.1402
  859MOL0     H15961   8.708   8.792   9.562  0.4729  0.4261 -0.3171
  859MOL0     H15962   8.762   8.729   9.400  0.6180  1.4094  0.3341
  859MOL0     H15963   8.717   8.371   9.619  1.1691 -0.4751 -2.7503
  859MOL0     H15964   8.090   8.928   9.275  2.5796 -0.7190 -0.3585
  859MOL0     H15965   7.867   8.916   9.399 -0.4482 -1.3885 -0.8254
  860MOL0     O15966   0.848   1.798   3.313  0.2965 -0.1583 -0.7131
  860MOL0     C15967   0.890   1.797   3.428  0.5624  0.7547  0.2283
  860MOL0     O15968   1.019   1.786   3.472 -0.4999  0.5789  0.5123
  860MOL0     C15969   1.125   1.770   3.388  0.6999 -0.3409  0.4343
  860MOL0     C15970   1.128   1.737   3.252 -0.4427  0.6629 -0.1357
  860MOL0     C15971   1.246   1.737   3.176 -0.7529  0.6491  0.2366
  860MOL0     C15972   1.365   1.783   3.236  0.0979 -0.2479  0.4797
  860MOL0     O15973   1.477   1.805   3.160 -0.4570  0.2109  0.1475
  860MOL0     C15974   1.601   1.792   3.222  0.6184  0.5951  0.0325
  860MOL0     C15975   1.713   1.775   3.115 -1.2728 -0.2398  0.2412
  860MOL0     C15976   1.728   1.643   3.058 -0.3489 -0.2120 -0.2781
  860MOL0     C15977   1.792   1.541   3.152  0.0345 -0.0727  0.0627
  860MOL0     C15978   1.941   1.524   3.125  0.5900 -0.2305 -0.4757
  860MOL0     C15979   1.974   1.418   3.010 -0.5448  0.4826  0.5892
  860MOL0     C15980   1.930   1.272   3.040 -0.0855 -0.2402 -0.1503
  860MOL0     C15981   2.028   1.183   2.966 -0.1216  0.6115  1.3327
  860MOL0     N15982   1.968   1.047   2.980 -0.2482 -0.5752 -0.1372
  860MOL0     C15983   1.853   0.997   2.915  0.1523  0.2319 -0.2466
  860MOL0     C15984   1.858   0.863   2.917  0.1351  0.1790 -0.4204
  860MOL0     C15985   1.752   0.772   2.858  0.1445 -0.2890 -0.3174
  860MOL0     C15986   1.794   0.742   2.711  0.3453  1.0198 -0.7932
  860MOL0     C15987   1.679   0.665   2.636 -0.3079  0.1339 -1.6011
  860MOL0     C15988   1.563   0.755   2.583  0.1307 -0.0730 -0.1540
  860MOL0     O15989   1.465   0.668   2.513  0.4719 -1.0607 -0.7637
  860MOL0     C15990   1.377   0.727   2.429  0.2139 -0.4924 -0.2035
  860MOL0     C15991   1.331   0.658   2.316 -0.5956 -0.1568 -0.2398
  860MOL0     C15992   1.243   0.722   2.234 -0.0809 -0.5095 -0.0762
  860MOL0     C15993   1.200   0.637   2.119 -0.1288  0.2490  1.2166
  860MOL0     C15994   1.190   0.854   2.248 -0.7604  0.2456  0.3973
  860MOL0     C15995   1.079   0.917   2.163 -0.6575  0.4612 -0.3122
  860MOL0     O15996   1.066   0.876   2.035 -0.4043  1.1372 -0.4383
  860MOL0     C15997   0.947   0.879   1.971  1.0175 -0.8898  0.0058
  860MOL0     C15998   0.954   0.935   1.839 -0.2818  0.7014 -0.2466
  860MOL0     C15999   0.852   0.918   1.743 -1.2763  0.9566  0.0826
  860MOL0     C16000   0.740   0.843   1.781  0.4589 -0.1973 -0.9779
  860MOL0     O16001   0.637   0.821   1.689 -0.3244 -0.5550 -0.9984
  860MOL0     C16002   0.676   0.728   1.587  0.3909  0.4891  0.2246
  860MOL0     C16003   0.557   0.679   1.503 -0.5980 -0.2853  0.3634
  860MOL0     C16004   0.463   0.585   1.590 -0.0191  0.3506 -0.4188
  860MOL0     C16005   0.317   0.599   1.564  0.7562  0.7723 -0.4060
  860MOL0     C16006   0.230   0.497   1.653  0.1675 -0.3668  0.0798
  860MOL0     C16007   0.230   0.356   1.600 -0.0133 -1.0168 -0.4696
  860MOL0     C16008   0.158   0.263   1.689 -0.0629 -0.4498 -0.1015
  860MOL0     C16009   0.205   0.118   1.672  0.1906 -0.0160  0.6238
  860MOL0    Cl16010   0.086   0.000   1.747  0.4799 -0.3175  0.0965
  860MOL0     C16011   0.729   0.792   1.912  0.0142  0.0191  0.5180
  860MOL0     C16012   0.832   0.809   2.007 -0.4134  0.1736 -0.3557
  860MOL0     O16013   1.002   1.000   2.214 -0.3497 -0.4890  1.2086
  860MOL0     C16014   1.240   0.920   2.358  0.6316 -0.1473  0.0541
  860MOL0     C16015   1.331   0.862   2.443 -0.0430  0.1722  0.0635
  860MOL0     N16016   1.973   0.838   2.996  0.6308  0.0619  0.5227
  860MOL0     N16017   2.019   0.941   3.048 -0.1178  0.9627 -0.7471
  860MOL0     C16018   1.359   1.805   3.373  0.0947  0.6667  0.6539
  860MOL0     C16019   1.243   1.794   3.445 -0.1353  0.3690 -0.0651
  860MOL0     C16020   0.784   1.795   3.527 -0.3101  0.1095  0.7333
  860MOL0     C16021   0.652   1.793   3.487 -0.8106 -0.8738 -0.0730
  860MOL0     C16022   0.550   1.783   3.584 -0.4825  0.5306 -0.1332
  860MOL0     C16023   0.586   1.784   3.722 -0.2457  0.3871 -0.3916
  860MOL0     O16024   0.492   1.773   3.824 -0.3816  0.3905  0.0435
  860MOL0     C16025   0.364   1.709   3.802 -0.3823 -0.6793  0.6928
  860MOL0     C16026   0.261   1.699   3.913  0.2934  0.6623  0.2222
  860MOL0     C16027   0.310   1.608   4.024  0.7856 -0.5572  0.4437
  860MOL0     C16028   0.202   1.570   4.138 -0.0027  0.5016 -0.7785
  860MOL0     C16029   0.103   1.464   4.098  0.0931 -0.2169 -1.1344
  860MOL0     C16030   0.027   1.376   4.068  1.0693  0.5226  0.3381
  860MOL0     C16031   0.715   1.810   3.760  0.2264  0.4713  0.0456
  860MOL0     C16032   0.812   1.815   3.663  0.3332  0.0993 -0.5080
  860MOL0     H16033   1.036   1.714   3.198  0.0567 -1.2736 -0.2327
  860MOL0     H16034   1.248   1.713   3.070 -1.6754  0.4065  0.2570
  860MOL0     H16035   1.620   1.881   3.283 -1.3586 -0.6393  2.6378
  860MOL0     H16036   1.609   1.702   3.283  2.0096  0.3588 -0.4553
  860MOL0     H16037   1.695   1.849   3.036 -0.3418  0.2118  0.4358
  860MOL0     H16038   1.808   1.792   3.167 -1.8320  0.4563  1.0629
  860MOL0     H16039   1.629   1.607   3.027  0.9802 -2.4120 -2.2737
  860MOL0     H16040   1.783   1.645   2.963 -0.4818 -1.0739 -0.3854
  860MOL0     H16041   1.784   1.563   3.259 -0.3318 -2.5435  0.6116
  860MOL0     H16042   1.737   1.450   3.124 -0.6782  0.9337 -2.0535
  860MOL0     H16043   1.984   1.622   3.106  1.6134  0.1820  3.2628
  860MOL0     H16044   1.983   1.476   3.214 -1.3353  0.1817  0.7113
  860MOL0     H16045   1.936   1.440   2.910  3.2759  1.1238 -0.9245
  860MOL0     H16046   2.083   1.419   2.997 -0.7800  1.9532 -1.7582
  860MOL0     H16047   1.940   1.258   3.148  0.6757  0.0731 -0.1722
  860MOL0     H16048   1.827   1.252   3.010  0.3512 -0.6708 -1.4179
  860MOL0     H16049   2.129   1.181   3.008  1.8771 -0.1785 -2.9906
  860MOL0     H16050   2.040   1.209   2.860 -1.1010  0.1243  1.0818
  860MOL0     H16051   1.784   1.059   2.857 -3.2379 -0.2838  2.8918
  860MOL0     H16052   1.746   0.677   2.911  4.0627 -0.6501 -0.2450
  860MOL0     H16053   1.657   0.828   2.860  1.0122  1.2214  0.1777
  860MOL0     H16054   1.877   0.673   2.726  0.4885  1.2583 -0.4738
  860MOL0     H16055   1.834   0.826   2.653  1.9494 -0.8421 -2.5271
  860MOL0     H16056   1.633   0.580   2.688  0.6225  0.5509 -0.0409
  860MOL0     H16057   1.718   0.626   2.541  0.8034  0.0870 -1.1355
  860MOL0     H16058   1.594   0.827   2.507  0.4828 -1.0703 -0.9689
  860MOL0     H16059   1.519   0.811   2.667 -1.6701  2.6220 -2.6757
  860MOL0     H16060   1.374   0.560   2.301  3.0303  1.4649 -1.8995
  860MOL0     H16061   1.185   0.532   2.142 -2.1991  0.1652 -0.2650
  860MOL0     H16062   1.102   0.666   2.080  0.8778  1.0064 -0.8993
  860MOL0     H16063   1.271   0.642   2.036 -1.8350 -0.5516 -0.3428
  860MOL0     H16064   1.046   0.989   1.819 -0.1750  1.2617  1.5598
  860MOL0     H16065   0.859   0.958   1.643  0.3815 -0.5806 -0.4733
  860MOL0     H16066   0.747   0.769   1.515  0.2068  0.2015 -0.1214
  860MOL0     H16067   0.721   0.638   1.630  0.6648 -0.4297 -1.8616
  860MOL0     H16068   0.507   0.772   1.475 -1.4880 -0.4885  1.2488
  860MOL0     H16069   0.582   0.624   1.411 -0.0707 -1.8688  1.4200
  860MOL0     H16070   0.466   0.605   1.697 -0.2984 -1.8249  0.0272
  860MOL0     H16071   0.493   0.484   1.561  0.4287  0.9335 -2.1325
  860MOL0     H16072   0.284   0.702   1.580  0.3809  0.8855 -1.7098
  860MOL0     H16073   0.290   0.583   1.459 -0.7440  0.6057 -0.0265
  860MOL0     H16074   0.129   0.532   1.677  1.0617  1.1952  1.8195
  860MOL0     H16075   0.281   0.506   1.749  3.6389  2.3024 -1.7693
  860MOL0     H16076   0.185   0.365   1.500  0.6998  1.7271 -0.6134
  860MOL0     H16077   0.334   0.323   1.587  0.6984  1.5019 -1.7318
  860MOL0     H16078   0.053   0.264   1.657 -0.0751  0.9294 -0.0544
  860MOL0     H16079   0.169   0.282   1.796 -2.0260 -0.6585  0.1706
  860MOL0     H16080   0.301   0.103   1.723  1.8518 -0.6760 -2.4300
  860MOL0     H16081   0.233   0.092   1.570  1.4284  0.8948  0.7043
  860MOL0     H16082   0.656   0.726   1.958  3.1574 -1.3976  4.0224
  860MOL0     H16083   0.819   0.771   2.108  0.6317 -2.4061 -1.1099
  860MOL0     H16084   1.212   1.019   2.393 -1.3124 -1.1479  1.5448
  860MOL0     H16085   1.358   0.922   2.530 -0.7102  3.7604 -2.0026
  860MOL0     H16086   1.451   1.840   3.420  0.5723 -1.1727  1.1901
  860MOL0     H16087   1.249   1.813   3.552 -1.1437  1.4509 -0.1825
  860MOL0     H16088   0.626   1.799   3.382 -1.6578 -0.9537  0.1202
  860MOL0     H16089   0.446   1.786   3.552 -0.5273  1.2691  0.0726
  860MOL0     H16090   0.306   1.767   3.730 -0.9524 -1.8648  0.1773
  860MOL0     H16091   0.392   1.612   3.759  0.1977  0.1070 -0.7645
  860MOL0     H16092   0.166   1.658   3.875  0.9089  0.9006 -1.6640
  860MOL0     H16093   0.237   1.799   3.952 -2.0358  0.0289  0.5877
  860MOL0     H16094   0.376   1.671   4.085  1.7834 -0.4080 -0.7711
  860MOL0     H16095   0.355   1.515   3.988 -0.7594 -0.8339 -0.9087
  860MOL0     H16096   0.137   1.657   4.152 -2.9709 -1.2636 -2.3475
  860MOL0     H16097   0.257   1.547   4.229  2.7892 -0.0478 -2.4843
  860MOL0     H16098  -0.049   1.307   4.036  1.7126  0.3232 -0.8008
  860MOL0     H16099   0.763   1.832   3.855  0.9096  2.4856 -0.7109
  860MOL0     H16100   0.914   1.828   3.697 -0.3411  2.7974  0.7911
  861MOL0     O16101   4.931   6.654   2.440  0.0791 -0.2499  0.4601
  861MOL0     C16102   4.994   6.752   2.489 -0.2612  0.2285  1.4932
  861MOL0     O16103   4.949   6.878   2.505 -0.0666  0.3866 -0.1968
  861MOL0     C16104   4.827   6.918   2.482 -0.1129  0.0987  1.1287
  861MOL0     C16105   4.721   6.872   2.561 -0.4573  0.3667  0.8865
  861MOL0     C16106   4.585   6.902   2.535  0.2057  0.8804  0.2742
  861MOL0     C16107   4.554   6.984   2.426 -0.8076  0.2978 -0.1188
  861MOL0     O16108   4.421   7.006   2.385 -0.4427 -1.4544 -0.7382
  861MOL0     C16109   4.389   7.149   2.367  0.5687  0.8186 -1.5104
  861MOL0     C16110   4.234   7.154   2.371 -0.1814 -0.1471 -0.0524
  861MOL0     C16111   4.164   7.063   2.276  0.3744 -0.5388 -0.0579
  861MOL0     C16112   4.033   7.118   2.239 -0.5249  0.0626  0.5122
  861MOL0     C16113   3.962   7.050   2.124  0.1967 -1.0067 -0.7268
  861MOL0     C16114   3.815   7.101   2.129  0.5496 -0.4824  0.4982
  861MOL0     C16115   3.721   6.997   2.060  0.0171 -0.6267  1.0892
  861MOL0     C16116   3.577   7.051   2.064 -0.4790 -0.7010  1.3863
  861MOL0     N16117   3.491   7.048   2.185  0.1844 -0.0860  0.5085
  861MOL0     C16118   3.373   6.980   2.185 -0.1456  0.2641  0.7446
  861MOL0     C16119   3.310   7.009   2.295 -0.1109  0.4511 -0.9999
  861MOL0     C16120   3.165   6.970   2.338 -0.6234 -0.7306 -0.2885
  861MOL0     C16121   3.056   7.073   2.319  0.1651  0.1531 -0.5844
  861MOL0     C16122   3.077   7.158   2.195  0.7507  0.6849  1.2592
  861MOL0     C16123   3.059   7.090   2.059 -0.2626  0.2083 -0.1700
  861MOL0     O16124   2.941   7.015   2.066 -0.0100  1.0034  0.3017
  861MOL0     C16125   2.869   7.003   1.951 -0.1122  0.0941  0.1353
  861MOL0     C16126   2.910   7.016   1.823 -0.1851  0.3692  0.5777
  861MOL0     C16127   2.831   6.992   1.707 -0.5443  0.2780  0.3071
  861MOL0     C16128   2.896   7.017   1.574 -0.2468 -0.0302  0.2568
  861MOL0     C16129   2.693   6.949   1.724 -0.2404 -0.4006 -0.7226
  861MOL0     C16130   2.595   6.917   1.614  0.7379  1.3792  0.2348
  861MOL0     O16131   2.458   6.934   1.645 -0.3624  0.0330  0.1962
  861MOL0     C16132   2.358   6.934   1.548  1.1040  0.1228  0.1957
  861MOL0     C16133   2.231   6.967   1.594 -0.2635 -0.5895 -0.0666
  861MOL0     C16134   2.125   7.005   1.512 -0.4314 -0.4989  0.0255
  861MOL0     C16135   2.133   6.990   1.381  0.0103 -0.1521  1.4820
  861MOL0     O16136   2.022   7.015   1.306 -0.1387 -0.4603  0.6480
  861MOL0     C16137   2.048   7.097   1.192 -0.2723  0.1047 -0.2002
  861MOL0     C16138   1.922   7.172   1.160  0.0098  0.3512  0.5022
  861MOL0     C16139   1.907   7.278   1.271 -0.2723 -0.1057 -0.7042
  861MOL0     C16140   1.851   7.411   1.223  0.0534 -0.7653 -0.7024
  861MOL0     C16141   1.836   7.511   1.338  0.7316  0.2481 -0.0885
  861MOL0     C16142   1.740   7.622   1.291 -1.2095  1.2589  0.7678
  861MOL0     C16143   1.752   7.746   1.385  0.5213  0.4506  0.1977
  861MOL0     C16144   1.665   7.866   1.333 -0.9554  0.4394 -0.5926
  861MOL0    Cl16145   1.732   7.926   1.186 -0.3843 -0.0392  0.4125
  861MOL0     C16146   2.256   6.932   1.324  0.7494  0.1859 -0.2919
  861MOL0     C16147   2.367   6.907   1.408  0.9627 -1.6426  0.7125
  861MOL0     O16148   2.642   6.857   1.512  0.6128 -1.5657  0.0260
  861MOL0     C16149   2.654   6.929   1.859  0.2825 -0.4365  0.4933
  861MOL0     C16150   2.737   6.958   1.965 -0.0495  0.4340  0.4309
  861MOL0     N16151   3.375   7.107   2.364  0.0716 -0.8317  0.1304
  861MOL0     N16152   3.488   7.129   2.295  0.2513 -0.4741 -0.8718
  861MOL0     C16153   4.655   7.035   2.343 -0.3377  0.1299 -0.6727
  861MOL0     C16154   4.790   7.005   2.370  0.4092  1.0136  0.2749
  861MOL0     C16155   5.147   6.731   2.507 -0.2698  0.3150 -0.0387
  861MOL0     C16156   5.211   6.604   2.502 -0.2564 -0.4959 -0.9854
  861MOL0     C16157   5.350   6.589   2.534  0.2222  0.0633 -0.5945
  861MOL0     C16158   5.429   6.698   2.556 -0.0638 -0.4789  0.0208
  861MOL0     O16159   5.566   6.678   2.578 -0.2886 -0.4207 -0.5789
  861MOL0     C16160   5.646   6.798   2.585  0.6088  0.5719 -0.3758
  861MOL0     C16161   5.629   6.854   2.730  0.4010  0.9333 -0.5855
  861MOL0     C16162   5.746   6.821   2.828  0.2164 -0.7376 -0.2676
  861MOL0     C16163   5.874   6.909   2.799  0.3074 -0.4288  1.0777
  861MOL0     C16164   5.966   6.819   2.729  0.0887  0.0645 -0.1819
  861MOL0     C16165   6.053   6.738   2.707 -0.9797  0.0243 -0.5623
  861MOL0     C16166   5.365   6.827   2.552 -0.4291 -0.0241  0.2105
  861MOL0     C16167   5.226   6.837   2.536  0.0520 -1.0892 -0.1647
  861MOL0     H16168   4.733   6.798   2.639  1.5264 -1.5726 -1.0989
  861MOL0     H16169   4.503   6.863   2.595  0.2203  2.3628  1.3334
  861MOL0     H16170   4.432   7.210   2.446 -0.1164 -1.8954  1.1415
  861MOL0     H16171   4.423   7.176   2.266 -0.3810  0.5782 -1.9064
  861MOL0     H16172   4.190   7.151   2.471  0.0400 -0.0932  0.0450
  861MOL0     H16173   4.222   7.258   2.337 -0.9797  1.0982  3.6381
  861MOL0     H16174   4.233   7.058   2.191  3.6062  2.7718  2.0508
  861MOL0     H16175   4.145   6.962   2.312  0.7333 -0.6172 -0.0897
  861MOL0     H16176   3.970   7.126   2.328  1.1499 -1.5803  1.9325
  861MOL0     H16177   4.044   7.222   2.205  1.1912  1.2968  4.3037
  861MOL0     H16178   4.019   7.053   2.031  0.6856 -2.6711 -0.5237
  861MOL0     H16179   3.963   6.944   2.153 -2.7470 -0.7893  0.5561
  861MOL0     H16180   3.774   7.107   2.231  0.0997  1.3250  0.2285
  861MOL0     H16181   3.807   7.198   2.080 -3.0954 -0.1210  1.4999
  861MOL0     H16182   3.755   7.002   1.956  1.8301  1.4515  1.7060
  861MOL0     H16183   3.732   6.893   2.093  0.2207 -1.8068 -2.2732
  861MOL0     H16184   3.527   6.995   1.985  1.1856  2.1485 -1.9794
  861MOL0     H16185   3.581   7.154   2.028  0.6571 -1.4252 -0.7088
  861MOL0     H16186   3.314   6.931   2.108 -0.5281  0.8345  0.6608
  861MOL0     H16187   3.133   6.892   2.269  0.0536  1.0988 -2.8428
  861MOL0     H16188   3.151   6.933   2.440  0.2351 -2.2248 -0.6919
  861MOL0     H16189   3.058   7.140   2.405  1.5398 -0.7495  0.1230
  861MOL0     H16190   2.962   7.018   2.322  0.2609  0.0279  1.0953
  861MOL0     H16191   3.165   7.224   2.187  0.5067  0.7375 -3.6782
  861MOL0     H16192   2.992   7.227   2.199  1.2566  1.6212 -1.5810
  861MOL0     H16193   3.145   7.032   2.024 -0.1865  1.5641 -2.4403
  861MOL0     H16194   3.047   7.163   1.979  1.2756 -1.0725 -1.6411
  861MOL0     H16195   3.008   7.060   1.806 -1.7622  3.6901 -0.5653
  861MOL0     H16196   2.838   7.008   1.481  2.4794  1.7263 -1.7688
  861MOL0     H16197   2.934   7.119   1.563 -0.0874 -0.3677 -4.1097
  861MOL0     H16198   2.985   6.954   1.568  1.0196  1.5930  1.2939
  861MOL0     H16199   2.228   6.976   1.702  0.5287  0.6233 -0.1290
  861MOL0     H16200   2.030   7.044   1.546 -0.2310  0.3393 -0.3483
  861MOL0     H16201   2.123   7.173   1.213  0.7611 -1.1031  0.6167
  861MOL0     H16202   2.078   7.031   1.110  1.3410 -0.2545  0.6350
  861MOL0     H16203   1.915   7.208   1.057 -0.3533  3.0193  1.3861
  861MOL0     H16204   1.843   7.098   1.174 -1.0344  1.5346  1.1514
  861MOL0     H16205   1.991   7.289   1.340 -1.0239 -3.1429  0.8815
  861MOL0     H16206   1.833   7.239   1.341 -0.7741  0.5025 -0.8852
  861MOL0     H16207   1.928   7.448   1.155 -1.2433 -1.8604 -2.8781
  861MOL0     H16208   1.760   7.399   1.163 -1.4783  1.0270  1.1156
  861MOL0     H16209   1.935   7.554   1.359 -0.9070  5.0991 -0.9371
  861MOL0     H16210   1.795   7.454   1.421  0.3668  0.2977 -0.2353
  861MOL0     H16211   1.770   7.666   1.195  0.6635  3.8434  2.4078
  861MOL0     H16212   1.640   7.580   1.276 -0.6108  0.3578 -1.0311
  861MOL0     H16213   1.855   7.781   1.379  0.2666  1.1937  0.1575
  861MOL0     H16214   1.722   7.716   1.485 -0.6589 -2.9672 -1.0266
  861MOL0     H16215   1.688   7.935   1.414  0.2934 -2.3234  1.5919
  861MOL0     H16216   1.564   7.837   1.304 -0.3632 -1.8924 -0.5078
  861MOL0     H16217   2.262   6.921   1.217 -3.1792  0.6442 -0.7155
  861MOL0     H16218   2.453   6.874   1.351 -0.3608 -3.4253 -0.3558
  861MOL0     H16219   2.553   6.893   1.879 -1.3558  1.6000 -3.0524
  861MOL0     H16220   2.701   6.943   2.066 -1.3232 -3.2891 -0.4386
  861MOL0     H16221   4.620   7.102   2.265 -1.6953  0.6684  0.3767
  861MOL0     H16222   4.875   7.034   2.309  3.1351 -1.9819  2.3246
  861MOL0     H16223   5.159   6.509   2.493  0.1472 -0.5768 -3.0774
  861MOL0     H16224   5.373   6.483   2.536 -1.5178 -0.3469 -0.2969
  861MOL0     H16225   5.752   6.772   2.578  0.7289  0.3320  1.7000
  861MOL0     H16226   5.613   6.879   2.520 -1.5488  1.5281  1.7327
  861MOL0     H16227   5.545   6.803   2.778  1.0246  0.4063 -0.0187
  861MOL0     H16228   5.619   6.962   2.720  2.5543  0.9746 -3.7481
  861MOL0     H16229   5.774   6.716   2.819  1.2599 -0.4982  0.0300
  861MOL0     H16230   5.712   6.833   2.931 -1.4500 -0.9244 -0.7694
  861MOL0     H16231   5.916   6.953   2.890  0.9549  0.9751  0.1483
  861MOL0     H16232   5.863   6.988   2.724  2.4083  1.5081  2.6454
  861MOL0     H16233   6.121   6.655   2.700 -0.6500 -0.0638  2.4380
  861MOL0     H16234   5.422   6.917   2.573  0.4223 -0.8155  1.4410
  861MOL0     H16235   5.191   6.940   2.546  0.3607 -1.1744  2.7659
  862MOL0     O16236   7.125   5.778   6.704  0.2557 -1.0882  0.3248
  862MOL0     C16237   7.227   5.845   6.670 -0.3393  0.1170  0.5037
  862MOL0     O16238   7.227   5.990   6.664  0.0522  0.1519 -0.3479
  862MOL0     C16239   7.106   6.059   6.667 -0.6599 -0.8039  0.4480
  862MOL0     C16240   7.003   6.036   6.758 -0.5311  0.3835 -0.1496
  862MOL0     C16241   6.889   6.119   6.747 -0.4920  1.1456  0.3003
  862MOL0     C16242   6.861   6.217   6.656  0.5748 -0.3160  0.3744
  862MOL0     O16243   6.741   6.292   6.656 -0.1139  0.2149  0.1007
  862MOL0     C16244   6.657   6.289   6.775  0.5902  0.6241 -0.9832
  862MOL0     C16245   6.546   6.397   6.766 -0.2543  0.8726  0.4539
  862MOL0     C16246   6.433   6.363   6.667  0.2462  0.8187 -0.9963
  862MOL0     C16247   6.330   6.472   6.628  0.0155  0.0269  0.2792
  862MOL0     C16248   6.223   6.412   6.543 -0.1432 -0.0068 -0.2372
  862MOL0     C16249   6.100   6.370   6.634  0.3276 -0.0323  1.1148
  862MOL0     C16250   6.002   6.482   6.688 -0.2081 -0.6037 -0.2860
  862MOL0     C16251   5.900   6.524   6.584  0.2559  0.5405  0.0950
  862MOL0     N16252   5.805   6.615   6.654 -0.6446 -0.2350  0.1835
  862MOL0     C16253   5.833   6.733   6.711  0.0809 -1.1648  0.3817
  862MOL0     C16254   5.720   6.771   6.771  0.1878  0.4301 -0.7824
  862MOL0     C16255   5.717   6.896   6.854 -0.9103 -0.0719 -0.3794
  862MOL0     C16256   5.566   6.951   6.877  1.0302  0.4763 -0.0414
  862MOL0     C16257   5.564   7.090   6.945 -0.0924 -0.5524 -0.5690
  862MOL0     C16258   5.429   7.112   7.023  0.1479 -0.0906  0.0471
  862MOL0     O16259   5.305   7.107   6.944 -0.1982 -0.0839  0.1533
  862MOL0     C16260   5.192   7.159   7.007  0.6858 -0.0220  0.0377
  862MOL0     C16261   5.194   7.210   7.144 -0.1059  0.3320  0.9963
  862MOL0     C16262   5.087   7.281   7.206 -0.0273  0.2801 -0.5485
  862MOL0     C16263   5.106   7.328   7.350 -0.5715  0.1751 -0.1673
  862MOL0     C16264   4.961   7.282   7.138  0.8076  0.7212  0.0776
  862MOL0     C16265   4.828   7.325   7.193 -0.0879  0.9199  0.0352
  862MOL0     O16266   4.828   7.358   7.327  0.6751  0.5799 -1.4197
  862MOL0     C16267   4.721   7.428   7.369  0.2591  0.1281  0.0197
  862MOL0     C16268   4.593   7.377   7.404  0.5925 -0.2835 -0.5307
  862MOL0     C16269   4.490   7.461   7.442 -0.7895 -1.5290 -0.7058
  862MOL0     C16270   4.519   7.603   7.461 -0.0217  0.1616 -0.8705
  862MOL0     O16271   4.436   7.694   7.527  0.1799  0.1872  0.4450
  862MOL0     C16272   4.311   7.655   7.587  0.6045  0.3384 -0.2595
  862MOL0     C16273   4.234   7.781   7.619 -0.3290 -1.1352 -0.0664
  862MOL0     C16274   4.168   7.854   7.489  0.0068 -0.3868 -0.6031
  862MOL0     C16275   4.272   7.957   7.423 -0.0052 -0.2233 -0.2591
  862MOL0     C16276   4.199   8.039   7.316 -1.4907  0.9650  0.3849
  862MOL0     C16277   4.106   8.146   7.366  0.4978  0.2912  0.1303
  862MOL0     C16278   4.152   8.236   7.481  0.7609 -0.2044  0.0103
  862MOL0     C16279   4.103   8.383   7.493 -0.2415  0.6426 -0.3034
  862MOL0    Cl16280   4.191   8.481   7.623 -0.0944 -0.2589 -0.0857
  862MOL0     C16281   4.639   7.653   7.420 -0.4291 -0.5093  0.2154
  862MOL0     C16282   4.737   7.567   7.371  0.3077  0.2742 -1.0618
  862MOL0     O16283   4.728   7.331   7.120  0.2836  0.1399 -0.4197
  862MOL0     C16284   4.962   7.220   7.004 -0.8625 -0.6322 -0.1074
  862MOL0     C16285   5.077   7.171   6.933  0.3634  0.4109  0.7624
  862MOL0     N16286   5.620   6.675   6.742  0.3165 -0.7172 -0.0043
  862MOL0     N16287   5.673   6.584   6.671  0.5530  0.5028 -0.3468
  862MOL0     C16288   6.961   6.216   6.561  0.9863  0.3414  0.2161
  862MOL0     C16289   7.079   6.151   6.563  0.0237 -0.1066  1.0219
  862MOL0     C16290   7.354   5.785   6.649  0.2193 -0.1627  0.7585
  862MOL0     C16291   7.457   5.854   6.576 -0.9039  0.4254 -0.1582
  862MOL0     C16292   7.575   5.786   6.544 -0.1427  0.1217 -0.2814
  862MOL0     C16293   7.607   5.662   6.605 -0.2604  0.2277  0.3762
  862MOL0     O16294   7.727   5.598   6.584 -0.0474  0.1380  0.0371
  862MOL0     C16295   7.786   5.589   6.449  0.0382 -0.5164 -0.6045
  862MOL0     C16296   7.930   5.534   6.469  0.0698  0.1670 -0.6376
  862MOL0     C16297   8.017   5.650   6.530  0.1686 -0.3430 -0.0097
  862MOL0     C16298   8.158   5.602   6.523 -0.3005 -0.1514 -0.2450
  862MOL0     C16299   8.207   5.585   6.386 -0.8292  0.6569 -0.5689
  862MOL0     C16300   8.240   5.573   6.273  0.3079 -0.2243  0.7940
  862MOL0     C16301   7.507   5.601   6.690  0.1798 -0.1523  1.0594
  862MOL0     C16302   7.380   5.663   6.712 -0.0200  0.6379 -0.2808
  862MOL0     H16303   7.017   5.970   6.843  2.2121  5.1713  3.6271
  862MOL0     H16304   6.813   6.101   6.823 -0.3942  0.8409  0.3244
  862MOL0     H16305   6.598   6.197   6.782 -1.1264  1.7127 -0.5572
  862MOL0     H16306   6.702   6.299   6.874  0.7283 -2.1822 -0.6787
  862MOL0     H16307   6.498   6.412   6.863  0.9816 -0.0668  1.2394
  862MOL0     H16308   6.593   6.493   6.745  1.4200 -0.4001 -2.1700
  862MOL0     H16309   6.475   6.335   6.570  0.5310 -0.4653 -0.5130
  862MOL0     H16310   6.376   6.284   6.716 -0.1262  2.1521  0.8330
  862MOL0     H16311   6.285   6.506   6.722 -2.8825 -3.8106  0.5410
  862MOL0     H16312   6.379   6.559   6.583  1.7115 -0.2493  1.4886
  862MOL0     H16313   6.190   6.473   6.459  1.4205 -2.3557 -2.7435
  862MOL0     H16314   6.264   6.323   6.494  1.1444 -0.4931  1.5890
  862MOL0     H16315   6.040   6.299   6.576 -0.1385 -0.3198  1.9344
  862MOL0     H16316   6.137   6.316   6.721 -0.1551  1.6031  2.3938
  862MOL0     H16317   5.949   6.455   6.780 -0.1190  0.9143  0.2444
  862MOL0     H16318   6.071   6.565   6.709 -3.2546  2.0217  0.2568
  862MOL0     H16319   5.845   6.440   6.540 -0.2153  1.3200 -0.8323
  862MOL0     H16320   5.948   6.587   6.509  0.0637  1.1531  0.4747
  862MOL0     H16321   5.928   6.783   6.702  0.0829 -1.1254  0.6253
  862MOL0     H16322   5.755   6.883   6.955 -0.8204 -2.6870 -0.6695
  862MOL0     H16323   5.784   6.975   6.820 -0.8822  0.4122  0.7824
  862MOL0     H16324   5.509   6.881   6.940  3.9724 -0.1500  2.1731
  862MOL0     H16325   5.521   6.965   6.778 -0.1807  2.7505  0.7674
  862MOL0     H16326   5.584   7.166   6.868 -2.4011  0.6302 -0.0972
  862MOL0     H16327   5.645   7.095   7.017  0.7637  0.0470 -1.5446
  862MOL0     H16328   5.446   7.207   7.075  0.7387 -0.2623  0.1777
  862MOL0     H16329   5.420   7.054   7.115  3.9020  0.6727  1.0656
  862MOL0     H16330   5.278   7.206   7.212 -0.8732  0.5212  1.9877
  862MOL0     H16331   5.076   7.255   7.425 -1.6575  0.0755 -0.6755
  862MOL0     H16332   5.210   7.359   7.364 -0.7622  1.3257 -1.0522
  862MOL0     H16333   5.043   7.416   7.370  0.5351  1.5863 -2.3986
  862MOL0     H16334   4.579   7.270   7.408 -0.5337 -0.1856 -1.4021
  862MOL0     H16335   4.400   7.416   7.482  0.5633 -2.0905  1.9465
  862MOL0     H16336   4.243   7.596   7.525 -0.7040  0.7856  0.7174
  862MOL0     H16337   4.341   7.602   7.678  0.4323  2.8991  1.3853
  862MOL0     H16338   4.163   7.768   7.701  0.6762  4.1486  2.0365
  862MOL0     H16339   4.300   7.860   7.655 -2.8249  1.7532 -1.4402
  862MOL0     H16340   4.076   7.906   7.518 -0.5086 -0.6551 -1.6925
  862MOL0     H16341   4.123   7.778   7.425 -5.9777 -1.0506  3.5287
  862MOL0     H16342   4.328   8.010   7.501  0.3775 -1.4918  0.3531
  862MOL0     H16343   4.346   7.888   7.383  1.2195  0.4612  0.7565
  862MOL0     H16344   4.144   7.977   7.244  0.5308  0.1862 -0.5834
  862MOL0     H16345   4.278   8.082   7.253  1.4552 -1.5799  2.0697
  862MOL0     H16346   4.104   8.217   7.282  1.4382  2.3469  1.7533
  862MOL0     H16347   4.010   8.102   7.396  1.2027 -0.3748  1.4695
  862MOL0     H16348   4.261   8.232   7.487  0.7740 -1.5656 -0.7882
  862MOL0     H16349   4.112   8.199   7.576  2.7152  1.6680  1.6538
  862MOL0     H16350   3.995   8.402   7.495 -0.2026  1.0048 -1.4095
  862MOL0     H16351   4.144   8.428   7.403 -0.7855 -0.1767 -0.9769
  862MOL0     H16352   4.670   7.757   7.428  2.3396 -1.3356  1.2054
  862MOL0     H16353   4.835   7.608   7.349  0.9889 -1.1589 -0.7596
  862MOL0     H16354   4.872   7.197   6.948 -1.0426 -1.4348  0.4925
  862MOL0     H16355   5.077   7.133   6.831 -0.0791  0.2020  0.8366
  862MOL0     H16356   6.958   6.290   6.481  3.2367 -0.1999 -0.4434
  862MOL0     H16357   7.149   6.170   6.483 -2.8401 -2.3743 -2.3268
  862MOL0     H16358   7.437   5.949   6.527 -0.4876  1.0493  0.8425
  862MOL0     H16359   7.635   5.836   6.469  0.9444  0.1481  0.5783
  862MOL0     H16360   7.733   5.532   6.372  1.1288 -0.0932 -1.6897
  862MOL0     H16361   7.789   5.688   6.404  3.3865 -1.0635 -1.8239
  862MOL0     H16362   7.969   5.520   6.368 -0.7477  1.3379 -1.1405
  862MOL0     H16363   7.943   5.452   6.540 -0.1425  2.6569  2.5454
  862MOL0     H16364   7.989   5.672   6.634 -1.4831 -1.1490 -0.2482
  862MOL0     H16365   8.009   5.742   6.472 -0.6721 -0.8625 -0.7527
  862MOL0     H16366   8.162   5.505   6.574 -0.2114 -0.3210 -0.5755
  862MOL0     H16367   8.216   5.675   6.579 -1.3011 -0.7503  1.6654
  862MOL0     H16368   8.277   5.558   6.174 -0.2233  2.2635  0.1462
  862MOL0     H16369   7.535   5.508   6.738  2.7772 -0.3956 -0.7049
  862MOL0     H16370   7.313   5.607   6.777 -2.4225  1.4502 -1.9159
  863MOL0     O16371   6.884   9.030  10.442  0.1664  0.1251 -0.3213
  863MOL0     C16372   6.983   8.968  10.406  0.0048 -0.2830 -0.0445
  863MOL0     O16373   7.001   8.891  10.293 -0.7047  0.1203  0.2688
  863MOL0     C16374   6.887   8.859  10.228  0.1232  0.8568  0.2743
  863MOL0     C16375   6.884   8.894  10.101 -0.0634  0.4367  0.1888
  863MOL0     C16376   6.770   8.864  10.023 -0.5610 -0.5730 -0.4165
  863MOL0     C16377   6.664   8.796  10.080  1.0463  0.0617 -0.5530
  863MOL0     O16378   6.544   8.772  10.029 -0.1032  0.0779  0.8895
  863MOL0     C16379   6.535   8.778   9.885  0.1568 -0.0930 -0.1159
  863MOL0     C16380   6.396   8.817   9.839  0.5034  0.1145  0.3965
  863MOL0     C16381   6.327   8.706   9.749 -0.5753 -0.2074 -0.3565
  863MOL0     C16382   6.352   8.743   9.600  0.7257  0.3018  0.3931
  863MOL0     C16383   6.304   8.619   9.509  0.1984 -0.0966  0.2583
  863MOL0     C16384   6.153   8.618   9.480  0.1869 -0.0600  0.5521
  863MOL0     C16385   6.076   8.513   9.572 -0.0974  0.6768 -0.1434
  863MOL0     C16386   5.926   8.505   9.530 -1.3452  0.4789 -0.7306
  863MOL0     N16387   5.909   8.478   9.387  0.5314 -0.6642 -0.1766
  863MOL0     C16388   5.808   8.533   9.322 -0.9216 -0.0433  0.4925
  863MOL0     C16389   5.803   8.459   9.206  0.1600  0.2278 -0.0730
  863MOL0     C16390   5.720   8.496   9.082 -0.6088 -0.0741  0.4277
  863MOL0     C16391   5.808   8.504   8.952 -0.9839 -0.2862 -0.3661
  863MOL0     C16392   5.749   8.600   8.848 -0.6783  0.1396 -0.4008
  863MOL0     C16393   5.786   8.569   8.701  0.7495  0.0509  0.2799
  863MOL0     O16394   5.720   8.660   8.604  0.4563  0.4466 -0.0547
  863MOL0     C16395   5.796   8.681   8.490  0.8052  0.4108 -0.4685
  863MOL0     C16396   5.747   8.657   8.361  1.0190  0.2952 -0.4337
  863MOL0     C16397   5.812   8.680   8.242  0.2530  0.2253  0.2011
  863MOL0     C16398   5.728   8.661   8.118  0.2353 -0.2355  0.3037
  863MOL0     C16399   5.941   8.745   8.249  0.4687 -0.5469  0.2988
  863MOL0     C16400   6.010   8.786   8.123  0.0418  0.0384 -0.0919
  863MOL0     O16401   6.121   8.860   8.142  0.9048  0.2215  0.6701
  863MOL0     C16402   6.170   8.926   8.036  0.2762 -1.1729  0.2616
  863MOL0     C16403   6.078   8.998   7.945 -0.3435 -0.0387  0.9433
  863MOL0     C16404   6.139   9.070   7.841  0.2098 -0.1311  0.0720
  863MOL0     C16405   6.272   9.075   7.810 -0.6765 -0.0192  0.8133
  863MOL0     O16406   6.342   9.130   7.698  0.0362  1.0851 -0.9733
  863MOL0     C16407   6.272   9.173   7.585 -0.4231  0.1380 -0.0161
  863MOL0     C16408   6.360   9.248   7.490 -0.1059  1.0923  0.5327
  863MOL0     C16409   6.409   9.375   7.558  0.2827 -0.3218  0.5685
  863MOL0     C16410   6.501   9.474   7.507  0.4631 -0.3409 -0.3521
  863MOL0     C16411   6.641   9.408   7.473 -0.0122  0.4617  0.2086
  863MOL0     C16412   6.741   9.520   7.472 -0.0677 -0.1036 -0.8343
  863MOL0     C16413   6.880   9.467   7.430 -1.0464 -0.4409  0.1086
  863MOL0     C16414   6.988   9.578   7.408 -0.9751  0.2195 -0.2367
  863MOL0    Cl16415   7.080   9.621   7.568 -0.0926 -0.3981  0.0362
  863MOL0     C16416   6.360   9.015   7.905  0.7654 -0.3430  0.4720
  863MOL0     C16417   6.307   8.932   8.007  0.3413 -0.0870 -0.0501
  863MOL0     O16418   5.973   8.738   8.011 -0.2267  0.7997 -0.8348
  863MOL0     C16419   5.994   8.769   8.383  0.4895  0.1155  0.3069
  863MOL0     C16420   5.919   8.745   8.499 -0.3660 -0.1303 -0.2173
  863MOL0     N16421   5.907   8.361   9.201 -0.1924 -0.3841  0.2959
  863MOL0     N16422   5.961   8.372   9.318 -0.0697  0.3354  0.3631
  863MOL0     C16423   6.655   8.780  10.216  0.3797  0.2383  0.3536
  863MOL0     C16424   6.769   8.811  10.296 -0.5208  0.6569  0.1558
  863MOL0     C16425   7.099   8.975  10.503 -0.6394 -0.1609 -0.7997
  863MOL0     C16426   7.091   9.017  10.637  1.1409  0.2771  0.9408
  863MOL0     C16427   7.197   9.010  10.718  0.8481  0.5849 -0.5516
  863MOL0     C16428   7.321   8.982  10.668  0.1811  0.0040  0.5400
  863MOL0     O16429   7.439   8.951  10.737  0.6086  0.4870 -0.0912
  863MOL0     C16430   7.440   8.946  10.883  0.0568 -0.2677  0.3342
  863MOL0     C16431   7.577   8.922  10.936 -0.5599 -0.8082  0.1229
  863MOL0     C16432   7.676   9.012  10.854  0.1942  0.1298 -0.7240
  863MOL0     C16433   7.808   9.012  10.924 -0.2692 -0.1898  0.2823
  863MOL0     C16434   7.888   8.884  10.923  0.0227  0.7342 -0.1338
  863MOL0     C16435   7.949   8.785  10.943 -0.8950  0.0871 -0.2093
  863MOL0     C16436   7.337   8.953  10.532  0.0704  0.4092 -0.8843
  863MOL0     C16437   7.228   8.954  10.453  0.0466  0.3555  0.4967
  863MOL0     H16438   6.966   8.942  10.048 -3.0391  4.9255 -0.9365
  863MOL0     H16439   6.782   8.884   9.917 -0.4503 -0.6637 -0.4207
  863MOL0     H16440   6.593   8.863   9.849 -2.6549  0.6962 -3.2441
  863MOL0     H16441   6.576   8.689   9.835 -0.9447 -0.1587 -0.9424
  863MOL0     H16442   6.321   8.823   9.919  1.1763  1.5121  0.9602
  863MOL0     H16443   6.397   8.920   9.801 -1.1322  0.6660  1.7272
  863MOL0     H16444   6.371   8.610   9.776 -1.5273 -0.8339 -0.9820
  863MOL0     H16445   6.220   8.696   9.769 -0.4622 -1.7964 -0.4174
  863MOL0     H16446   6.299   8.831   9.562 -0.1209 -0.7274 -0.8598
  863MOL0     H16447   6.459   8.743   9.577  0.0428 -0.2181 -3.4082
  863MOL0     H16448   6.361   8.635   9.417  0.5578  1.2930  0.6929
  863MOL0     H16449   6.337   8.534   9.568 -1.1445 -0.4416  0.5432
  863MOL0     H16450   6.108   8.718   9.478 -2.5923 -1.2079 -0.5176
  863MOL0     H16451   6.145   8.588   9.375  0.9023  0.9052  0.2223
  863MOL0     H16452   6.114   8.411   9.568  0.6492  0.9037  0.7964
  863MOL0     H16453   6.080   8.534   9.679 -0.4986  1.1276 -0.2137
  863MOL0     H16454   5.876   8.595   9.567  1.8793  1.7563  0.8983
  863MOL0     H16455   5.881   8.421   9.585  0.1407  0.6611  0.8558
  863MOL0     H16456   5.764   8.629   9.349  0.7108  1.2755 -1.2965
  863MOL0     H16457   5.646   8.417   9.067 -0.3373  0.1791 -2.8405
  863MOL0     H16458   5.679   8.596   9.088  2.0878  1.1695 -0.1977
  863MOL0     H16459   5.818   8.402   8.915  1.4149  0.0284 -0.7753
  863MOL0     H16460   5.905   8.538   8.991  0.3726 -3.9858 -0.1556
  863MOL0     H16461   5.783   8.703   8.858  0.6795 -0.3594  0.4475
  863MOL0     H16462   5.641   8.598   8.861 -0.5112 -1.1965  1.2194
  863MOL0     H16463   5.738   8.472   8.690 -0.0876  0.6477 -1.7387
  863MOL0     H16464   5.893   8.549   8.686  0.3686 -1.6072 -0.4004
  863MOL0     H16465   5.651   8.606   8.356  2.2307 -2.0513 -1.1145
  863MOL0     H16466   5.772   8.587   8.050 -0.5632  0.6451 -1.2258
  863MOL0     H16467   5.623   8.633   8.131  0.1593 -0.4402 -0.7041
  863MOL0     H16468   5.719   8.758   8.070 -0.4393  0.6997  2.1943
  863MOL0     H16469   5.971   9.009   7.962 -0.1175 -0.3562  2.8067
  863MOL0     H16470   6.072   9.108   7.764  1.6015 -3.0319 -2.8040
  863MOL0     H16471   6.228   9.089   7.531 -1.2893  1.5226 -1.5262
  863MOL0     H16472   6.197   9.242   7.626 -1.2340 -0.0870 -1.0820
  863MOL0     H16473   6.448   9.188   7.464 -0.3253  0.1837  1.7751
  863MOL0     H16474   6.305   9.272   7.399 -0.6228 -1.8592 -0.0226
  863MOL0     H16475   6.461   9.348   7.650  3.0400  2.8907  0.1760
  863MOL0     H16476   6.320   9.432   7.589  1.3096  2.5578 -1.3339
  863MOL0     H16477   6.465   9.520   7.415  2.6200 -1.7554 -2.0243
  863MOL0     H16478   6.513   9.559   7.574  0.6051  2.3354 -3.5258
  863MOL0     H16479   6.644   9.355   7.378  1.3752 -0.5659  0.7885
  863MOL0     H16480   6.667   9.335   7.550 -1.3771  1.8555  2.0860
  863MOL0     H16481   6.716   9.601   7.402  4.8473  0.6342 -2.1165
  863MOL0     H16482   6.742   9.562   7.573 -1.0353  1.8620 -1.5755
  863MOL0     H16483   6.875   9.422   7.330  0.7611 -0.7828  0.1389
  863MOL0     H16484   6.915   9.395   7.504  1.9511  2.1904  1.5035
  863MOL0     H16485   6.938   9.663   7.358 -1.1208  1.4743  1.9253
  863MOL0     H16486   7.057   9.529   7.338 -1.0875 -3.4930  1.9984
  863MOL0     H16487   6.469   9.018   7.906  0.7542  1.6337  1.7606
  863MOL0     H16488   6.369   8.885   8.082  0.1324 -2.0512 -1.0305
  863MOL0     H16489   6.092   8.817   8.385  0.0470  1.0281  0.8443
  863MOL0     H16490   5.949   8.762   8.603  0.3563 -2.9649  0.1176
  863MOL0     H16491   6.562   8.739  10.256  1.0385 -0.2530  1.4148
  863MOL0     H16492   6.771   8.788  10.402  0.1225 -1.8906 -0.3563
  863MOL0     H16493   6.994   9.046  10.675 -0.6544 -2.8098 -0.8592
  863MOL0     H16494   7.174   9.019  10.824  1.2279 -1.3867 -0.2610
  863MOL0     H16495   7.395   9.037  10.924 -3.2544 -1.1862 -0.9105
  863MOL0     H16496   7.383   8.854  10.899 -1.2970  0.4255 -0.3430
  863MOL0     H16497   7.610   8.820  10.917  3.7382  0.4465 -0.2162
  863MOL0     H16498   7.572   8.929  11.045 -1.3920 -3.9890  0.3870
  863MOL0     H16499   7.643   9.117  10.849  0.2575  0.1054 -1.8605
  863MOL0     H16500   7.677   8.975  10.751  1.1500 -0.8741 -0.3649
  863MOL0     H16501   7.794   9.045  11.028  2.8653  0.0282  0.7502
  863MOL0     H16502   7.874   9.090  10.885  2.7929 -2.8981 -0.3938
  863MOL0     H16503   8.000   8.691  10.954 -1.7140 -0.0684  3.4226
  863MOL0     H16504   7.428   8.921  10.482  0.3584 -0.7204  0.2816
  863MOL0     H16505   7.241   8.918  10.352 -3.2453  2.9804 -1.0547
  864MOL0     O16506  10.171   4.464   4.527 -0.0481  0.5001 -0.0038
  864MOL0     C16507  10.275   4.509   4.478 -0.2471  0.4237 -0.3844
  864MOL0     O16508  10.400   4.481   4.518 -0.1661  0.0427 -0.2773
  864MOL0     C16509  10.445   4.372   4.589  0.0086 -0.4471  0.2988
  864MOL0     C16510  10.584   4.370   4.609 -0.0764 -0.5244  0.3297
  864MOL0     C16511  10.646   4.265   4.671 -0.0264  0.0466 -0.3335
  864MOL0     C16512  10.568   4.150   4.706 -0.3493 -0.5975 -0.0246
  864MOL0     O16513  10.622   4.032   4.749  0.5861 -0.3897 -0.3992
  864MOL0     C16514  10.655   3.952   4.635 -0.8127  1.0355 -0.7082
  864MOL0     C16515  10.693   3.815   4.694  0.6430 -0.7214 -0.7083
  864MOL0     C16516  10.820   3.823   4.774  0.3469  0.0684 -0.1221
  864MOL0     C16517  10.874   3.676   4.810  0.3212  0.0555 -0.0907
  864MOL0     C16518  11.015   3.680   4.867 -0.2113  0.9164 -0.2776
  864MOL0     C16519  11.031   3.771   4.999 -0.4686  0.6890 -0.2801
  864MOL0     C16520  11.159   3.727   5.069  0.3857 -0.6975 -0.9248
  864MOL0     C16521  11.185   3.810   5.192  0.0082  0.1649 -0.4853
  864MOL0     N16522  11.096   3.784   5.305 -0.1373  0.7805  0.6683
  864MOL0     C16523  11.067   3.663   5.365  0.5822 -0.2029 -0.5667
  864MOL0     C16524  11.005   3.681   5.483  0.4840  0.8697 -0.1784
  864MOL0     C16525  10.927   3.566   5.559  0.1482 -0.7203 -0.1069
  864MOL0     C16526  10.930   3.429   5.484  0.0818 -0.1107 -0.6999
  864MOL0     C16527  10.861   3.328   5.562  0.2955  0.5165 -0.1428
  864MOL0     C16528  10.831   3.207   5.483 -0.4747  0.5376 -0.2933
  864MOL0     O16529  10.782   3.101   5.570 -0.4888  0.0955  0.1320
  864MOL0     C16530  10.648   3.096   5.604 -0.0857 -0.1386 -0.5380
  864MOL0     C16531  10.551   3.189   5.594  0.3213 -0.0477  0.8751
  864MOL0     C16532  10.417   3.164   5.630  0.8687 -0.0842 -0.6533
  864MOL0     C16533  10.328   3.275   5.577 -0.1698  0.4281 -0.2669
  864MOL0     C16534  10.381   3.052   5.710  0.3774 -0.1530  0.8104
  864MOL0     C16535  10.248   3.020   5.771  0.9546  0.3822 -0.8339
  864MOL0     O16536  10.235   2.908   5.853 -0.3622  0.3325 -0.6089
  864MOL0     C16537  10.123   2.829   5.855  0.0620  0.4468  0.9340
  864MOL0     C16538  10.026   2.834   5.758  0.0521 -0.6481  0.4335
  864MOL0     C16539   9.919   2.749   5.769  0.0138 -0.1816  1.0143
  864MOL0     C16540   9.898   2.661   5.876 -0.7005 -0.4120  0.4439
  864MOL0     O16541   9.791   2.571   5.881 -0.7835  0.5298 -0.0143
  864MOL0     C16542   9.720   2.588   6.004  0.2507  0.6310  0.7132
  864MOL0     C16543   9.592   2.500   6.005 -0.8926 -1.4219 -0.2071
  864MOL0     C16544   9.632   2.354   5.979 -0.1731  0.0698 -0.1293
  864MOL0     C16545   9.501   2.265   5.999 -0.3431 -0.4560  0.1921
  864MOL0     C16546   9.526   2.108   5.988 -0.2305 -1.0410  0.0565
  864MOL0     C16547   9.644   2.063   6.066 -0.0126  0.0312 -0.8000
  864MOL0     C16548   9.618   2.054   6.229 -0.2260  0.1522  0.7675
  864MOL0     C16549   9.486   1.973   6.252  0.5873 -0.3554  1.0226
  864MOL0    Cl16550   9.514   1.807   6.170 -0.2338  0.0199  0.0654
  864MOL0     C16551   9.996   2.656   5.966 -0.7787 -0.3294  0.5471
  864MOL0     C16552  10.105   2.745   5.956 -0.0081  0.2323 -1.1839
  864MOL0     O16553  10.156   3.103   5.754  0.0577  0.1744 -0.1293
  864MOL0     C16554  10.484   2.963   5.723 -0.6547  1.0749 -0.6638
  864MOL0     C16555  10.614   2.981   5.670  0.7542 -0.4463  0.1093
  864MOL0     N16556  11.007   3.816   5.491  0.7099 -0.7552  0.2239
  864MOL0     N16557  11.060   3.877   5.397 -1.1578 -0.7783  0.8820
  864MOL0     C16558  10.431   4.146   4.690  0.2955  1.1568 -0.3025
  864MOL0     C16559  10.363   4.260   4.635 -0.0932  0.4411 -0.4299
  864MOL0     C16560  10.252   4.617   4.384 -0.2167 -0.6383  0.0947
  864MOL0     C16561  10.361   4.713   4.349  0.7422 -0.5213 -0.1470
  864MOL0     C16562  10.342   4.826   4.269  0.6050  0.1754  0.4509
  864MOL0     C16563  10.220   4.853   4.219  0.3529 -0.0462 -0.1200
  864MOL0     O16564  10.197   4.969   4.159 -1.0930 -0.0926  0.6685
  864MOL0     C16565  10.127   4.973   4.034 -0.5515 -0.1810 -0.2809
  864MOL0     C16566  10.169   4.860   3.936  0.5783 -1.3696  0.8985
  864MOL0     C16567  10.095   4.899   3.803 -0.5100  0.4023 -0.3129
  864MOL0     C16568  10.132   4.796   3.684  0.0979 -0.5893 -0.0016
  864MOL0     C16569  10.064   4.666   3.706 -0.2412 -0.3785  0.4767
  864MOL0     C16570   9.997   4.571   3.747  0.4597  0.2207 -0.1696
  864MOL0     C16571  10.111   4.768   4.254 -1.0680 -0.2658 -0.0460
  864MOL0     C16572  10.126   4.643   4.322 -0.3708 -0.9465  0.3469
  864MOL0     H16573  10.640   4.455   4.572  2.8774 -2.5915 -0.3769
  864MOL0     H16574  10.754   4.267   4.684 -0.1516  1.0862  0.6820
  864MOL0     H16575  10.568   3.940   4.570 -0.4635  1.9796 -1.3737
  864MOL0     H16576  10.742   3.996   4.584 -1.7294  1.8790 -1.5896
  864MOL0     H16577  10.617   3.772   4.760  2.1502 -0.8524  0.9988
  864MOL0     H16578  10.712   3.747   4.611  0.5568  0.6583 -1.9079
  864MOL0     H16579  10.894   3.874   4.712  0.7303 -0.8731 -0.4712
  864MOL0     H16580  10.810   3.885   4.864 -0.7806 -0.0826 -0.1346
  864MOL0     H16581  10.815   3.620   4.883 -0.0667 -0.3017 -0.6637
  864MOL0     H16582  10.879   3.615   4.719  1.5975 -4.4725  2.7204
  864MOL0     H16583  11.052   3.580   4.889  1.4824  1.1866 -1.6708
  864MOL0     H16584  11.081   3.726   4.792 -1.1147  0.1055 -1.6301
  864MOL0     H16585  11.035   3.877   4.969 -0.7028  0.8959  0.3926
  864MOL0     H16586  10.946   3.765   5.068  1.9972  1.8956  3.1221
  864MOL0     H16587  11.166   3.619   5.083  0.6287 -0.9055 -2.4780
  864MOL0     H16588  11.251   3.738   5.011  2.5839  0.1754  2.3957
  864MOL0     H16589  11.171   3.913   5.157  3.4092 -0.3309 -4.0053
  864MOL0     H16590  11.290   3.800   5.221  0.5153 -1.0706 -2.5301
  864MOL0     H16591  11.079   3.563   5.324  1.6427 -0.6999  0.8781
  864MOL0     H16592  10.983   3.554   5.652  1.0665 -1.5585 -0.7380
  864MOL0     H16593  10.826   3.596   5.589  0.2115  0.5465 -1.0717
  864MOL0     H16594  11.030   3.387   5.470 -0.4722 -1.7521  0.0847
  864MOL0     H16595  10.881   3.453   5.389 -1.8946  4.3457  1.1619
  864MOL0     H16596  10.762   3.365   5.589  0.7216  0.2124  2.0602
  864MOL0     H16597  10.926   3.295   5.644  0.9539  0.7736 -0.5552
  864MOL0     H16598  10.920   3.173   5.427 -0.5309  0.8646 -0.5837
  864MOL0     H16599  10.762   3.216   5.398 -0.5752 -1.1404 -0.4330
  864MOL0     H16600  10.577   3.276   5.535  1.0472 -1.1230 -0.4728
  864MOL0     H16601  10.348   3.295   5.471 -1.7302  1.3990 -0.4163
  864MOL0     H16602  10.222   3.247   5.582  0.0544 -0.1903  2.4588
  864MOL0     H16603  10.343   3.367   5.634 -0.7661  1.8411 -2.2782
  864MOL0     H16604  10.038   2.899   5.671 -0.3489  1.2987  1.7691
  864MOL0     H16605   9.840   2.757   5.695  1.1011 -1.1943 -0.3293
  864MOL0     H16606   9.785   2.568   6.090 -4.2278  0.3844  4.4388
  864MOL0     H16607   9.682   2.691   6.006 -2.0716 -0.1720  0.5049
  864MOL0     H16608   9.550   2.516   6.105  0.0921  1.4086 -0.1737
  864MOL0     H16609   9.514   2.535   5.937 -0.5514  0.4091  0.3000
  864MOL0     H16610   9.705   2.347   6.060  2.2253  0.5584 -2.1336
  864MOL0     H16611   9.680   2.338   5.883 -1.0860  2.1493 -1.0036
  864MOL0     H16612   9.471   2.279   6.103 -0.5034  0.7630 -0.0033
  864MOL0     H16613   9.417   2.294   5.935  1.3818  0.3844 -1.8069
  864MOL0     H16614   9.546   2.104   5.881  1.3492  3.4081 -0.0307
  864MOL0     H16615   9.432   2.055   6.008  0.0574 -1.0499  1.5181
  864MOL0     H16616   9.673   1.962   6.034  1.2679  0.2999 -0.5543
  864MOL0     H16617   9.732   2.127   6.060  3.0844 -3.7518 -0.3100
  864MOL0     H16618   9.609   2.158   6.262 -1.6586 -0.4895  2.5697
  864MOL0     H16619   9.714   2.014   6.264  0.9655  1.8215 -0.4021
  864MOL0     H16620   9.402   2.024   6.203  1.2028  0.0182  0.3524
  864MOL0     H16621   9.461   1.961   6.358 -0.7564 -1.8388  0.5760
  864MOL0     H16622  10.012   2.577   6.039  2.3486 -1.8365 -1.5182
  864MOL0     H16623  10.182   2.743   6.032  1.1077 -0.9221 -2.2905
  864MOL0     H16624  10.465   2.868   5.772  2.2102 -0.6976 -2.6883
  864MOL0     H16625  10.695   2.909   5.683  1.5604  0.0755 -1.6123
  864MOL0     H16626  10.378   4.058   4.723 -1.8457  1.1530 -3.3319
  864MOL0     H16627  10.255   4.267   4.627 -0.1242  0.0911 -0.3384
  864MOL0     H16628  10.463   4.710   4.387  0.4627 -1.2330  0.5766
  864MOL0     H16629  10.439   4.867   4.244  2.7376 -4.7472 -0.6858
  864MOL0     H16630  10.020   4.971   4.053 -0.7572  3.3721 -0.3597
  864MOL0     H16631  10.156   5.070   3.991  1.3426 -0.6827 -0.2610
  864MOL0     H16632  10.132   4.760   3.959  0.5065 -1.6800 -0.4864
  864MOL0     H16633  10.278   4.865   3.923  0.3006  1.3484 -1.5204
  864MOL0     H16634  10.104   5.007   3.783 -2.7097  0.5430 -0.8231
  864MOL0     H16635   9.989   4.897   3.830 -0.5888 -0.8432 -0.6754
  864MOL0     H16636  10.239   4.783   3.703  0.1428  2.1132  2.3546
  864MOL0     H16637  10.117   4.838   3.584 -1.8800  1.4051  1.0468
  864MOL0     H16638   9.950   4.479   3.776 -0.3485  0.9029  0.7666
  864MOL0     H16639  10.009   4.800   4.236 -1.3790 -1.4237 -0.3636
  864MOL0     H16640  10.038   4.581   4.333  0.0995 -2.2331 -2.3279
  865MOL0     O16641   7.324   5.978   6.288  0.6447  0.8636 -0.0606
  865MOL0     C16642   7.362   5.866   6.245  0.3166  0.2237  0.2067
  865MOL0     O16643   7.280   5.758   6.220  0.0588  0.4800  0.5632
  865MOL0     C16644   7.142   5.774   6.242  0.1255  0.1645 -0.2241
  865MOL0     C16645   7.087   5.746   6.360 -0.1374 -0.4669 -0.6762
  865MOL0     C16646   6.951   5.772   6.389 -0.2380 -0.7330 -0.0576
  865MOL0     C16647   6.867   5.818   6.284  0.2267 -0.2759  0.4897
  865MOL0     O16648   6.732   5.842   6.291  0.0228  0.2358 -0.0738
  865MOL0     C16649   6.697   5.954   6.362  0.2173 -0.4379 -0.2919
  865MOL0     C16650   6.558   5.944   6.417 -0.4021 -1.2988  0.1269
  865MOL0     C16651   6.560   5.821   6.508 -0.0448  0.1498  0.3781
  865MOL0     C16652   6.621   5.872   6.650  0.1505 -0.1007 -0.8271
  865MOL0     C16653   6.619   5.761   6.748  0.2763  0.1754 -0.3134
  865MOL0     C16654   6.698   5.802   6.881  0.7492  0.3570  0.1603
  865MOL0     C16655   6.641   5.730   6.999 -0.1504 -0.4987 -0.4312
  865MOL0     C16656   6.737   5.739   7.123 -0.1022  0.0218  0.1076
  865MOL0     N16657   6.735   5.623   7.210 -0.1217 -0.0829  0.5130
  865MOL0     C16658   6.772   5.497   7.178  0.5026 -0.1762 -0.3000
  865MOL0     C16659   6.736   5.423   7.282 -0.3614  0.0082  0.0162
  865MOL0     C16660   6.746   5.268   7.301 -0.0512  0.0054 -0.9181
  865MOL0     C16661   6.645   5.191   7.211 -0.5881  0.5060  0.6072
  865MOL0     C16662   6.496   5.211   7.260  0.1575 -0.4771  0.9135
  865MOL0     C16663   6.428   5.325   7.180 -0.4496  0.5771  0.8399
  865MOL0     O16664   6.409   5.286   7.043 -0.2655  0.2031  1.1301
  865MOL0     C16665   6.282   5.323   6.986 -0.6857 -1.0248  0.9338
  865MOL0     C16666   6.280   5.416   6.880  0.3036  0.7594 -0.0613
  865MOL0     C16667   6.159   5.466   6.828  0.0139 -0.6016 -0.2866
  865MOL0     C16668   6.167   5.558   6.703  0.1375 -0.9564  0.7564
  865MOL0     C16669   6.029   5.415   6.877 -0.3078 -0.5517 -0.0864
  865MOL0     C16670   5.889   5.445   6.820  0.3975 -0.2469 -0.0497
  865MOL0     O16671   5.858   5.572   6.762 -0.1664 -0.8609  0.1539
  865MOL0     C16672   5.730   5.590   6.722 -0.4419  1.2723  0.0680
  865MOL0     C16673   5.714   5.588   6.583  0.1557 -0.7077  0.8411
  865MOL0     C16674   5.591   5.617   6.526  0.1528 -0.4045  1.1662
  865MOL0     C16675   5.483   5.641   6.612  0.8359  0.4596 -0.4511
  865MOL0     O16676   5.357   5.668   6.566  0.1614  0.1285  0.8613
  865MOL0     C16677   5.258   5.560   6.584  0.0759 -0.1870 -0.3748
  865MOL0     C16678   5.133   5.621   6.652 -0.5036  0.7313  0.9727
  865MOL0     C16679   5.058   5.713   6.550 -0.5716  1.2430  0.3408
  865MOL0     C16680   4.935   5.774   6.615  0.2296  0.0592 -0.8962
  865MOL0     C16681   4.877   5.897   6.552  0.2265  0.3129  0.0623
  865MOL0     C16682   4.857   5.916   6.411  0.0626 -0.2563  1.2517
  865MOL0     C16683   4.740   6.002   6.369 -0.1817 -0.1831 -0.3107
  865MOL0     C16684   4.601   5.943   6.396  0.9887  0.6617 -0.1115
  865MOL0    Cl16685   4.536   6.024   6.547 -0.0693 -0.1722 -0.4618
  865MOL0     C16686   5.498   5.631   6.751 -0.2522  0.1214 -0.0409
  865MOL0     C16687   5.625   5.607   6.811 -0.8398 -0.6168 -0.5029
  865MOL0     O16688   5.809   5.351   6.817  0.9060  0.1995 -0.5891
  865MOL0     C16689   6.042   5.318   6.982  0.7155 -0.5456 -0.5302
  865MOL0     C16690   6.160   5.285   7.036 -0.4105 -0.2605  0.0711
  865MOL0     N16691   6.682   5.508   7.378 -0.1872 -0.1129  0.3227
  865MOL0     N16692   6.672   5.627   7.324 -0.6410  0.4991  0.6179
  865MOL0     C16693   6.922   5.834   6.158 -0.3545  0.0344  0.5475
  865MOL0     C16694   7.061   5.815   6.141  0.3343  0.2609  0.5826
  865MOL0     C16695   7.503   5.865   6.200  0.1329  1.0896 -0.5146
  865MOL0     C16696   7.595   5.971   6.242 -0.5989 -0.5198 -0.1644
  865MOL0     C16697   7.730   5.963   6.204  0.0587 -0.0491 -0.5387
  865MOL0     C16698   7.785   5.851   6.136 -0.2452 -0.4785 -1.0475
  865MOL0     O16699   7.923   5.850   6.126  0.2554 -0.5831  0.2405
  865MOL0     C16700   7.969   5.778   6.017  0.3881 -0.0847  0.3967
  865MOL0     C16701   8.107   5.816   5.981 -0.2539  0.6761 -0.0630
  865MOL0     C16702   8.137   5.963   5.966 -0.6383 -1.0992 -0.8762
  865MOL0     C16703   8.257   5.993   5.870  0.4751 -1.1411 -0.3815
  865MOL0     C16704   8.383   5.988   5.947  1.3330 -0.0240  0.2592
  865MOL0     C16705   8.486   5.969   6.014 -0.4738 -1.2561 -0.2459
  865MOL0     C16706   7.695   5.746   6.106 -0.2345  0.0274 -0.2345
  865MOL0     C16707   7.552   5.752   6.128 -0.2183 -0.1095  0.4339
  865MOL0     H16708   7.152   5.703   6.436 -1.3402  0.3281  0.8755
  865MOL0     H16709   6.896   5.759   6.482  1.3742  0.6537  1.1529
  865MOL0     H16710   6.765   5.984   6.443  1.9745 -2.7079 -0.7956
  865MOL0     H16711   6.691   6.034   6.288  1.3133 -0.8421 -0.8433
  865MOL0     H16712   6.516   6.034   6.464  0.1867 -0.6336 -0.5996
  865MOL0     H16713   6.493   5.923   6.333 -0.0647 -0.7974 -0.2640
  865MOL0     H16714   6.457   5.788   6.526  0.1946 -0.8554 -0.0113
  865MOL0     H16715   6.619   5.739   6.467  2.9537  1.7502  1.2463
  865MOL0     H16716   6.724   5.902   6.631 -0.6470  1.1493 -3.7128
  865MOL0     H16717   6.555   5.953   6.684 -1.7541 -1.6060 -0.7056
  865MOL0     H16718   6.515   5.730   6.764  1.0653 -1.2189  3.0311
  865MOL0     H16719   6.670   5.682   6.692  3.8891  1.3502  1.0297
  865MOL0     H16720   6.806   5.788   6.872  0.4952 -0.3369 -2.8045
  865MOL0     H16721   6.676   5.907   6.906  2.0276 -0.0083  3.3086
  865MOL0     H16722   6.545   5.773   7.027 -0.7984 -3.2004  2.0676
  865MOL0     H16723   6.624   5.628   6.965 -0.6838 -0.0411 -1.5893
  865MOL0     H16724   6.706   5.824   7.184 -0.2207 -0.6577  1.0257
  865MOL0     H16725   6.839   5.747   7.086 -0.4407 -2.3279 -1.5698
  865MOL0     H16726   6.813   5.455   7.086 -2.4530 -2.9492 -0.5384
  865MOL0     H16727   6.842   5.228   7.269 -0.9150  0.6595 -4.8836
  865MOL0     H16728   6.726   5.239   7.404 -1.0450 -0.9204 -1.3405
  865MOL0     H16729   6.663   5.084   7.216 -3.6319 -0.1254  0.0279
  865MOL0     H16730   6.659   5.211   7.104  1.2936 -1.0480  0.5105
  865MOL0     H16731   6.501   5.236   7.367 -0.4571  2.8145  0.2730
  865MOL0     H16732   6.433   5.124   7.240 -0.0613  0.0315 -0.7508
  865MOL0     H16733   6.486   5.418   7.179 -3.2336  2.5996 -3.8050
  865MOL0     H16734   6.335   5.344   7.234  0.7501 -0.8232  3.5931
  865MOL0     H16735   6.374   5.451   6.839 -1.0695  3.2145 -1.3930
  865MOL0     H16736   6.119   5.655   6.718  0.6005 -0.2273 -1.9290
  865MOL0     H16737   6.272   5.574   6.679 -0.3541  0.8358 -0.4125
  865MOL0     H16738   6.128   5.497   6.620  0.2066  0.6644 -0.5165
  865MOL0     H16739   5.807   5.589   6.528  0.9108  1.2747  2.0472
  865MOL0     H16740   5.581   5.642   6.421 -0.2606  0.7477  1.4602
  865MOL0     H16741   5.217   5.521   6.490 -3.4353  0.0899  0.8961
  865MOL0     H16742   5.307   5.481   6.642  3.5568  0.3126 -2.3567
  865MOL0     H16743   5.070   5.535   6.677 -1.0427 -0.0392 -2.4663
  865MOL0     H16744   5.160   5.669   6.746  0.8670 -1.9962  2.0988
  865MOL0     H16745   5.037   5.651   6.462 -1.4435 -1.8382  2.5659
  865MOL0     H16746   5.116   5.799   6.516 -0.5341  1.9795  2.1609
  865MOL0     H16747   4.856   5.699   6.612  0.2421  0.0483 -0.9363
  865MOL0     H16748   4.959   5.791   6.720  0.9424 -1.1493 -0.8443
  865MOL0     H16749   4.920   5.987   6.597 -1.1239  0.4849  1.0941
  865MOL0     H16750   4.778   5.908   6.598  0.2916  1.5603 -0.0516
  865MOL0     H16751   4.950   5.964   6.379 -0.1968 -0.0665  0.7642
  865MOL0     H16752   4.846   5.819   6.361  0.7874  0.3044 -0.0626
  865MOL0     H16753   4.760   6.026   6.264 -1.0482  0.2415 -0.3858
  865MOL0     H16754   4.747   6.094   6.428 -0.3625 -0.3940  0.0423
  865MOL0     H16755   4.604   5.835   6.413 -3.1932  0.1450 -1.4731
  865MOL0     H16756   4.532   5.947   6.311 -0.6711 -2.3702  0.9598
  865MOL0     H16757   5.415   5.629   6.820 -0.3568 -0.5634 -0.1823
  865MOL0     H16758   5.651   5.603   6.916  2.0696 -0.3796 -1.1183
  865MOL0     H16759   5.956   5.281   7.036  1.7749  0.7641  2.2147
  865MOL0     H16760   6.148   5.214   7.118  1.0861 -0.0349  0.5144
  865MOL0     H16761   6.861   5.864   6.073  0.2519 -1.5737 -0.4976
  865MOL0     H16762   7.102   5.830   6.042  0.1752  1.1728  0.6442
  865MOL0     H16763   7.561   6.048   6.310 -0.1587 -1.3497  1.0462
  865MOL0     H16764   7.800   6.036   6.243  0.1831 -0.6160  0.3409
  865MOL0     H16765   7.958   5.671   6.038  0.1885 -0.4719 -1.4514
  865MOL0     H16766   7.910   5.799   5.927  0.3258  0.1056  0.4812
  865MOL0     H16767   8.145   5.764   5.893  0.4226  2.1145 -0.6312
  865MOL0     H16768   8.175   5.778   6.058 -0.9182 -2.3314 -0.8317
  865MOL0     H16769   8.161   5.994   6.069 -1.7173 -1.0191 -0.6380
  865MOL0     H16770   8.048   6.018   5.934  0.0726 -0.0306 -1.0476
  865MOL0     H16771   8.252   6.094   5.829  2.9325 -1.7170 -2.3508
  865MOL0     H16772   8.263   5.919   5.789 -3.4194 -3.1248  0.8848
  865MOL0     H16773   8.577   5.951   6.067 -1.9178 -1.5796  2.2807
  865MOL0     H16774   7.738   5.657   6.061 -0.0035 -0.8019  1.5722
  865MOL0     H16775   7.485   5.674   6.093  2.5902 -2.2061 -0.6529
  866MOL0     O16776   2.185  10.020   8.540 -0.3092  0.3809 -0.5035
  866MOL0     C16777   2.264  10.034   8.444  0.4654  0.5924 -0.0838
  866MOL0     O16778   2.250  10.129   8.346  0.1001 -0.2909  0.3261
  866MOL0     C16779   2.140  10.214   8.348 -0.6147 -0.0637  0.3702
  866MOL0     C16780   2.013  10.177   8.384  0.1575  0.2661 -0.6765
  866MOL0     C16781   1.913  10.272   8.379  0.3431  0.4049 -0.1539
  866MOL0     C16782   1.940  10.405   8.343 -0.2549 -0.9352 -0.4307
  866MOL0     O16783   1.850  10.512   8.345 -0.5218  0.3049 -0.3281
  866MOL0     C16784   1.722  10.489   8.412  0.1199  0.5293  0.3741
  866MOL0     C16785   1.639  10.612   8.375  0.2723 -0.1066 -0.3713
  866MOL0     C16786   1.499  10.617   8.436 -0.1408 -0.4922  0.3950
  866MOL0     C16787   1.469  10.592   8.586  0.4007 -0.1075 -0.5855
  866MOL0     C16788   1.345  10.661   8.621 -0.5155 -0.1573 -0.4415
  866MOL0     C16789   1.286  10.604   8.743  0.1321  0.8980  0.2130
  866MOL0     C16790   1.228  10.717   8.820 -0.2192 -0.4280 -0.8567
  866MOL0     C16791   1.174  10.678   8.958 -0.0410 -0.0034  0.2578
  866MOL0     N16792   1.066  10.572   8.943 -1.1607  0.7177 -0.9224
  866MOL0     C16793   1.078  10.449   8.997 -0.1371  1.0774  0.5198
  866MOL0     C16794   0.966  10.380   8.944 -0.7219  0.3710 -1.0904
  866MOL0     C16795   0.920  10.251   8.986  0.1595 -0.8257  0.0463
  866MOL0     C16796   0.978  10.206   9.120 -0.2089  0.5496  0.4783
  866MOL0     C16797   0.975  10.052   9.152 -0.6760 -0.6579  0.0230
  866MOL0     C16798   0.832  10.008   9.187 -0.4568  0.8305  0.5112
  866MOL0     O16799   0.784  10.065   9.309 -0.3636 -0.3974  0.3879
  866MOL0     C16800   0.657  10.123   9.306  0.6316 -0.3270  0.7550
  866MOL0     C16801   0.644  10.262   9.331  0.1063  0.1322  0.1212
  866MOL0     C16802   0.519  10.312   9.371 -0.3163  0.3199 -0.9367
  866MOL0     C16803   0.527  10.438   9.436 -0.3485  0.1845  0.2090
  866MOL0     C16804   0.402  10.229   9.362 -0.5272 -0.0157 -0.4586
  866MOL0     C16805   0.261  10.283   9.376 -0.8842 -0.0454 -0.3953
  866MOL0     O16806   0.176  10.181   9.397  0.0430 -0.1246  0.9490
  866MOL0     C16807   0.046  10.210   9.418 -0.1403 -0.3673  0.0453
  866MOL0     C16808  -0.019  10.184   9.539  0.6993  0.1955  0.1529
  866MOL0     C16809  -0.162  10.198   9.548  0.5941  0.2291  0.0064
  866MOL0     C16810  -0.232  10.265   9.450 -0.2895 -0.1005 -0.6906
  866MOL0     O16811  -0.362  10.311   9.456  0.1322  0.4941  0.5094
  866MOL0     C16812  -0.461  10.220   9.512 -0.5669 -0.6550 -0.6948
  866MOL0     C16813  -0.600  10.298   9.510  0.8909  0.1223 -0.6394
  866MOL0     C16814  -0.632  10.408   9.611 -0.3363  0.3486  0.0221
  866MOL0     C16815  -0.749  10.497   9.578  0.2864  0.2340 -0.3670
  866MOL0     C16816  -0.796  10.598   9.690 -0.2937  0.4164 -0.0727
  866MOL0     C16817  -0.839  10.538   9.832 -0.5857 -0.0932  0.1851
  866MOL0     C16818  -0.908  10.631   9.922 -0.4523 -0.4450 -0.3467
  866MOL0     C16819  -0.959  10.557  10.052 -0.7627 -0.3948  0.4555
  866MOL0    Cl16820  -0.974  10.655  10.207 -0.2627  0.0484  0.2083
  866MOL0     C16821  -0.158  10.319   9.351 -0.2636  0.4582  0.5658
  866MOL0     C16822  -0.028  10.289   9.323  0.7546  0.2929  0.1771
  866MOL0     O16823   0.235  10.401   9.384 -0.4017 -0.7824 -0.1864
  866MOL0     C16824   0.422  10.095   9.338 -0.5671  0.5549 -0.4044
  866MOL0     C16825   0.542  10.039   9.318  0.5223 -0.0731  0.6802
  866MOL0     N16826   0.897  10.458   8.861 -0.4066 -0.2851  0.2721
  866MOL0     N16827   0.967  10.569   8.855  0.0794  0.5522  0.1370
  866MOL0     C16828   2.066  10.441   8.306 -0.0231  0.0074  0.3484
  866MOL0     C16829   2.172  10.345   8.307  0.0182  0.0783 -0.0592
  866MOL0     C16830   2.379   9.952   8.437 -1.0952  0.1737 -0.4899
  866MOL0     C16831   2.469   9.946   8.328 -0.5696 -0.1705  0.1029
  866MOL0     C16832   2.581   9.866   8.324 -0.3744 -0.2903  1.3579
  866MOL0     C16833   2.610   9.784   8.437  0.1342 -0.1793  0.2399
  866MOL0     O16834   2.723   9.701   8.422 -0.2134 -0.2006  0.1690
  866MOL0     C16835   2.746   9.607   8.530 -0.2718 -0.7701 -0.0907
  866MOL0     C16836   2.887   9.552   8.518 -0.6620  0.5010  0.5575
  866MOL0     C16837   3.000   9.649   8.562  0.2601 -0.1918 -0.3763
  866MOL0     C16838   3.136   9.575   8.578  0.7598  0.0609  0.8054
  866MOL0     C16839   3.250   9.669   8.599 -0.5780  0.4574 -0.5714
  866MOL0     C16840   3.346   9.743   8.612 -0.4144 -0.2330  0.5900
  866MOL0     C16841   2.515   9.780   8.537 -0.2041  0.2304 -0.2105
  866MOL0     C16842   2.408   9.868   8.537  0.8775 -0.1314  0.7632
  866MOL0     H16843   1.975  10.079   8.412  0.8879  0.2561  0.3442
  866MOL0     H16844   1.815  10.233   8.403  0.8845 -1.2634 -0.5358
  866MOL0     H16845   1.673  10.398   8.377 -2.0245  1.6493  0.2964
  866MOL0     H16846   1.723  10.475   8.520 -0.3291  0.2607  0.3468
  866MOL0     H16847   1.696  10.696   8.414  0.7874 -0.4193 -0.4501
  866MOL0     H16848   1.625  10.637   8.269  0.7390  0.6967 -0.2456
  866MOL0     H16849   1.458  10.715   8.411 -1.0384 -0.9696 -0.0489
  866MOL0     H16850   1.446  10.541   8.377  1.7170  0.9182 -3.4924
  866MOL0     H16851   1.455  10.488   8.616  0.6501  0.0513  0.0923
  866MOL0     H16852   1.547  10.637   8.649  0.0733 -0.5745  0.1641
  866MOL0     H16853   1.372  10.766   8.635  2.4348 -0.7496 -1.0055
  866MOL0     H16854   1.283  10.650   8.533  0.0875  1.1054 -1.0533
  866MOL0     H16855   1.207  10.529   8.729 -0.3607  1.1556  1.4211
  866MOL0     H16856   1.358  10.559   8.812 -0.3662  2.4578  1.8463
  866MOL0     H16857   1.313  10.781   8.841  1.7073 -2.9680 -0.3966
  866MOL0     H16858   1.144  10.755   8.761  0.1579  0.6925 -0.6834
  866MOL0     H16859   1.124  10.762   9.008 -0.8299 -1.3476  1.8666
  866MOL0     H16860   1.256  10.644   9.022  1.1337  1.9693 -0.1051
  866MOL0     H16861   1.151  10.417   9.071 -1.4569 -2.8700  0.3221
  866MOL0     H16862   0.813  10.242   9.008  0.8700 -4.3812  2.9018
  866MOL0     H16863   0.928  10.169   8.914 -4.0315 -0.2794 -1.3292
  866MOL0     H16864   0.914  10.257   9.193  0.9211  1.3701  0.9322
  866MOL0     H16865   1.079  10.242   9.143  0.0630  0.0180  0.1328
  866MOL0     H16866   1.044  10.034   9.235  0.5669  1.0513 -0.5698
  866MOL0     H16867   1.011   9.991   9.069 -3.4072  1.4990 -3.0220
  866MOL0     H16868   0.839   9.900   9.205  0.0491  0.5813 -1.0373
  866MOL0     H16869   0.774  10.026   9.096  1.9623 -0.5273 -1.4175
  866MOL0     H16870   0.728  10.330   9.322 -1.1394  2.1662  2.4647
  866MOL0     H16871   0.629  10.457   9.470 -0.5196 -2.4181  2.4580
  866MOL0     H16872   0.503  10.524   9.373  0.9692  0.6462  0.3060
  866MOL0     H16873   0.459  10.436   9.521 -2.3778 -1.2316 -1.3280
  866MOL0     H16874   0.033  10.137   9.622  1.0823 -0.6758 -0.5672
  866MOL0     H16875  -0.216  10.175   9.640  0.2388  0.5464 -0.1219
  866MOL0     H16876  -0.462  10.138   9.440  0.2680  0.8118 -2.4665
  866MOL0     H16877  -0.435  10.186   9.613 -1.3304  4.0824  1.3468
  866MOL0     H16878  -0.616  10.330   9.407 -1.7516 -1.2962 -0.7569
  866MOL0     H16879  -0.685  10.230   9.508  0.4920  0.4521  2.0805
  866MOL0     H16880  -0.541  10.467   9.599  1.5073 -2.0187  1.3574
  866MOL0     H16881  -0.638  10.372   9.714  0.1385 -0.6260 -0.2732
  866MOL0     H16882  -0.734  10.535   9.477  0.2215 -2.9349 -1.6587
  866MOL0     H16883  -0.836  10.432   9.566  1.1805 -1.6709  2.3220
  866MOL0     H16884  -0.875  10.656   9.641  1.7741  1.6140 -2.2103
  866MOL0     H16885  -0.717  10.670   9.711  0.1690  0.0478 -0.5296
  866MOL0     H16886  -0.910  10.457   9.815 -2.4863  1.6540 -0.5645
  866MOL0     H16887  -0.750  10.494   9.878  2.1111  3.6294 -0.9563
  866MOL0     H16888  -0.999  10.667   9.874  0.4505  3.1336  0.3628
  866MOL0     H16889  -0.840  10.711   9.953 -1.0332  0.6060 -1.6801
  866MOL0     H16890  -0.891  10.475  10.075 -0.0005  0.0675 -0.1110
  866MOL0     H16891  -1.058  10.513  10.033 -0.8632  0.3078 -0.7959
  866MOL0     H16892  -0.212  10.379   9.278 -0.7169  0.4771  0.9168
  866MOL0     H16893   0.017  10.333   9.235  2.1577  0.5989  1.0150
  866MOL0     H16894   0.346  10.022   9.368  1.5673 -1.3399  0.7773
  866MOL0     H16895   0.556   9.932   9.303 -0.8350  0.0272 -1.7024
  866MOL0     H16896   2.093  10.543   8.277 -2.6353  1.0871  1.4006
  866MOL0     H16897   2.275  10.363   8.277 -0.4368  1.3575 -0.9191
  866MOL0     H16898   2.452  10.010   8.242  2.3448  0.3365 -0.2108
  866MOL0     H16899   2.646   9.860   8.237  0.0894 -1.7616  1.7680
  866MOL0     H16900   2.743   9.667   8.622 -2.9861 -1.1355  0.1332
  866MOL0     H16901   2.673   9.526   8.534 -0.7073 -0.4025 -0.5584
  866MOL0     H16902   2.900   9.506   8.420  0.4030  0.5255  0.6787
  866MOL0     H16903   2.892   9.474   8.594  1.1185 -2.3992 -2.2832
  866MOL0     H16904   2.967   9.702   8.652 -1.4911 -1.9807  0.0823
  866MOL0     H16905   3.007   9.730   8.489  2.0730 -1.1711 -1.3485
  866MOL0     H16906   3.161   9.505   8.497 -2.5247 -0.2605 -0.0917
  866MOL0     H16907   3.132   9.503   8.661 -2.6406 -1.3112 -0.3693
  866MOL0     H16908   3.434   9.802   8.627 -1.3327  1.3439 -0.0223
  866MOL0     H16909   2.512   9.712   8.622 -3.2329 -0.2428 -0.5985
  866MOL0     H16910   2.341   9.851   8.620  2.8410 -0.0600  2.4322
  867MOL0     O16911   0.096  10.889   7.106  0.5529  0.2003 -0.2458
  867MOL0     C16912   0.156  10.989   7.082 -0.5971 -0.2707  0.1242
  867MOL0     O16913   0.107  11.119   7.070 -0.5093  0.2031 -0.1329
  867MOL0     C16914  -0.033  11.134   7.084  0.1574  1.3491  0.0558
  867MOL0     C16915  -0.100  11.127   7.210  0.3894  0.1396  0.3247
  867MOL0     C16916  -0.233  11.164   7.215 -0.1735  0.8392 -0.5135
  867MOL0     C16917  -0.299  11.201   7.098  0.3740 -0.3215 -0.5837
  867MOL0     O16918  -0.427  11.238   7.122  0.2919 -0.1599 -0.0219
  867MOL0     C16919  -0.489  11.346   7.053  0.6443 -0.8562 -0.6512
  867MOL0     C16920  -0.603  11.400   7.148  0.3320  0.2975 -0.2782
  867MOL0     C16921  -0.738  11.319   7.128 -0.0513 -0.5874 -0.6193
  867MOL0     C16922  -0.805  11.359   7.001  0.0138  0.8684 -0.4871
  867MOL0     C16923  -0.947  11.305   6.991  0.6241 -0.1720  0.0303
  867MOL0     C16924  -0.956  11.146   6.992 -0.5120 -0.0758 -0.1060
  867MOL0     C16925  -1.101  11.099   6.979  0.0771 -0.2907 -0.1957
  867MOL0     C16926  -1.175  11.114   7.117 -0.1442  0.7264 -0.3614
  867MOL0     N16927  -1.315  11.089   7.092 -0.0234 -0.4540 -0.3276
  867MOL0     C16928  -1.373  10.974   7.063 -0.0841  0.2111  0.5844
  867MOL0     C16929  -1.507  10.993   7.039  0.2218  0.1643  0.4364
  867MOL0     C16930  -1.607  10.881   7.001 -0.0830  0.1484  0.0808
  867MOL0     C16931  -1.693  10.834   7.123 -0.0107  0.4440  0.4208
  867MOL0     C16932  -1.803  10.726   7.096 -0.3555 -0.0677 -0.2180
  867MOL0     C16933  -1.856  10.685   7.231 -0.0534 -0.4976  0.3617
  867MOL0     O16934  -1.949  10.578   7.204  0.1366  0.0680  0.5038
  867MOL0     C16935  -2.009  10.513   7.308 -0.2723 -0.4849  0.2600
  867MOL0     C16936  -2.097  10.413   7.262 -1.0887 -0.4775  0.7215
  867MOL0     C16937  -2.177  10.348   7.350  1.0553 -0.0788 -0.3597
  867MOL0     C16938  -2.278  10.252   7.293  0.7141 -0.3696 -0.4386
  867MOL0     C16939  -2.163  10.361   7.494 -0.2696  0.4779  0.3773
  867MOL0     C16940  -2.253  10.294   7.598  0.5071 -0.0386 -0.2700
  867MOL0     O16941  -2.239  10.340   7.731  0.1285  0.1569 -0.4329
  867MOL0     C16942  -2.322  10.321   7.838  1.3409  0.4909 -0.2470
  867MOL0     C16943  -2.304  10.414   7.946  0.2633 -0.2221  0.0183
  867MOL0     C16944  -2.379  10.396   8.062 -0.5720  0.8387  0.3201
  867MOL0     C16945  -2.460  10.277   8.077 -0.4052 -0.8477 -0.2574
  867MOL0     O16946  -2.535  10.276   8.195  0.6730  0.7400  0.3836
  867MOL0     C16947  -2.665  10.199   8.196  0.8591  0.2668  0.1686
  867MOL0     C16948  -2.657  10.059   8.273  0.4468 -0.9718 -0.0090
  867MOL0     C16949  -2.607   9.952   8.177 -0.9615  0.8265 -0.7479
  867MOL0     C16950  -2.599   9.800   8.228  0.9215 -0.8377  0.7638
  867MOL0     C16951  -2.496   9.789   8.343 -0.2102 -0.2594 -0.6372
  867MOL0     C16952  -2.559   9.800   8.479 -0.2948  0.0126  0.0826
  867MOL0     C16953  -2.465   9.749   8.590  0.5235 -0.3402  0.3565
  867MOL0     C16954  -2.542   9.714   8.717 -0.3741  0.7050 -0.2336
  867MOL0    Cl16955  -2.436   9.724   8.862  0.1188  0.2308  0.3792
  867MOL0     C16956  -2.483  10.197   7.972 -0.3076  0.3471 -0.3893
  867MOL0     C16957  -2.416  10.215   7.853  0.2891  0.1529 -0.6325
  867MOL0     O16958  -2.339  10.212   7.558 -0.5245  0.0949 -1.1028
  867MOL0     C16959  -2.077  10.465   7.530  0.2443 -0.4133 -0.3361
  867MOL0     C16960  -2.007  10.546   7.437 -0.2730  0.4889 -0.3191
  867MOL0     N16961  -1.527  11.124   7.039 -0.7536 -0.0302  0.1326
  867MOL0     N16962  -1.416  11.185   7.076 -0.1845  0.6364 -0.2726
  867MOL0     C16963  -0.235  11.215   6.981  0.3230 -0.3385  0.2607
  867MOL0     C16964  -0.099  11.184   6.973 -0.1712 -0.3911 -0.4203
  867MOL0     C16965   0.307  10.985   7.052  0.2032  0.4767 -0.2117
  867MOL0     C16966   0.378  11.103   7.023  0.7302  0.4277 -0.2458
  867MOL0     C16967   0.509  11.101   6.983 -0.9019  0.0358  0.2510
  867MOL0     C16968   0.579  10.982   6.985 -0.6167  0.1867 -0.5773
  867MOL0     O16969   0.714  10.978   6.962 -0.3971 -0.2512  0.3386
  867MOL0     C16970   0.748  10.964   6.822  0.0294 -0.1191 -0.2825
  867MOL0     C16971   0.749  10.825   6.771  0.4144  0.7136  0.3779
  867MOL0     C16972   0.827  10.713   6.854 -0.1586 -0.2854 -0.5052
  867MOL0     C16973   0.973  10.764   6.889 -1.3284 -0.6142  0.0086
  867MOL0     C16974   1.054  10.801   6.774  0.3571 -0.2018 -0.8465
  867MOL0     C16975   1.138  10.840   6.699 -0.1055 -0.1303 -0.3541
  867MOL0     C16976   0.515  10.868   7.038  0.3755 -0.6246  0.1933
  867MOL0     C16977   0.380  10.866   7.065 -0.0368  0.6867 -0.1938
  867MOL0     H16978  -0.058  11.081   7.298 -2.3681  0.1198  1.7400
  867MOL0     H16979  -0.283  11.151   7.311 -0.7254 -3.2567 -1.1964
  867MOL0     H16980  -0.420  11.429   7.033 -0.9314  1.5482  2.8277
  867MOL0     H16981  -0.530  11.318   6.955 -0.2739 -3.3435  0.3736
  867MOL0     H16982  -0.565  11.384   7.249 -2.5520  1.0411  1.0512
  867MOL0     H16983  -0.616  11.507   7.127  2.0147  1.4546  3.6129
  867MOL0     H16984  -0.711  11.213   7.127  1.7419 -0.2792  2.3511
  867MOL0     H16985  -0.810  11.342   7.207 -2.1643  2.9004 -3.2960
  867MOL0     H16986  -0.811  11.469   6.996  0.8265  0.9009 -0.8859
  867MOL0     H16987  -0.747  11.333   6.913  0.1677  2.5108 -0.9062
  867MOL0     H16988  -1.002  11.352   7.073  0.6430 -0.6335  0.3101
  867MOL0     H16989  -0.999  11.343   6.902  0.2769  0.6857  0.5777
  867MOL0     H16990  -0.893  11.104   6.913 -0.8857 -1.4422  0.2994
  867MOL0     H16991  -0.929  11.116   7.094  0.1046  1.9646  0.3796
  867MOL0     H16992  -1.152  11.142   6.892 -0.4202  2.7698  1.4798
  867MOL0     H16993  -1.099  10.992   6.956 -1.4077 -0.3006 -0.3278
  867MOL0     H16994  -1.152  11.209   7.165  0.8544  0.4654 -0.2973
  867MOL0     H16995  -1.143  11.031   7.180 -1.5967  1.9399  2.0988
  867MOL0     H16996  -1.323  10.878   7.063  0.5276  0.4854 -1.3413
  867MOL0     H16997  -1.676  10.912   6.923 -0.4960  2.9826  1.4287
  867MOL0     H16998  -1.552  10.795   6.962 -2.2649 -0.8055 -1.0316
  867MOL0     H16999  -1.752  10.920   7.156  0.4226  1.0064 -0.2268
  867MOL0     H17000  -1.622  10.805   7.200  1.2302 -1.6230 -1.4129
  867MOL0     H17001  -1.761  10.634   7.054 -1.6097 -0.2183 -1.2021
  867MOL0     H17002  -1.875  10.779   7.033  1.4853  0.9945 -1.5423
  867MOL0     H17003  -1.897  10.764   7.295  0.4878 -2.4615  3.3160
  867MOL0     H17004  -1.782  10.637   7.295  1.8395  0.7422 -0.7983
  867MOL0     H17005  -2.107  10.395   7.156  0.6758  0.7823  0.3014
  867MOL0     H17006  -2.379  10.291   7.308 -0.2962 -3.0986  0.3422
  867MOL0     H17007  -2.262  10.255   7.185  5.1108  0.1016  0.0327
  867MOL0     H17008  -2.271  10.151   7.334  0.2524  0.2841  1.3539
  867MOL0     H17009  -2.228  10.490   7.930  0.1538 -0.4113 -1.4703
  867MOL0     H17010  -2.370  10.460   8.148  1.3634 -2.2913  2.6484
  867MOL0     H17011  -2.742  10.258   8.247  1.2908  2.4133 -1.5046
  867MOL0     H17012  -2.707  10.195   8.095  1.1306  0.1391  0.0601
  867MOL0     H17013  -2.586  10.070   8.355  0.6344  1.9312 -0.4322
  867MOL0     H17014  -2.753  10.020   8.309  0.9440 -0.6643  1.7454
  867MOL0     H17015  -2.508   9.982   8.142 -0.7580 -0.9593 -1.8298
  867MOL0     H17016  -2.676   9.960   8.092 -3.4683  0.9894  1.1834
  867MOL0     H17017  -2.700   9.777   8.264 -0.4018  4.2698  1.0677
  867MOL0     H17018  -2.572   9.740   8.140 -0.0289 -0.2899  0.0814
  867MOL0     H17019  -2.423   9.870   8.334  0.3543 -0.5240  1.1704
  867MOL0     H17020  -2.447   9.692   8.335  2.6080  0.8758  1.2509
  867MOL0     H17021  -2.598   9.898   8.508 -1.0552  0.4821 -2.3461
  867MOL0     H17022  -2.645   9.732   8.483 -0.8897  0.7829  0.8435
  867MOL0     H17023  -2.403   9.834   8.619 -0.8376  0.4625  1.0533
  867MOL0     H17024  -2.400   9.667   8.557 -1.3672 -1.4346 -0.8862
  867MOL0     H17025  -2.587   9.615   8.724 -2.6418  1.7747  2.2141
  867MOL0     H17026  -2.619   9.791   8.729 -1.2422 -0.2933  0.7401
  867MOL0     H17027  -2.565  10.126   7.977 -1.5130  1.7586  0.8761
  867MOL0     H17028  -2.432  10.149   7.768  0.4216  1.0187 -1.3423
  867MOL0     H17029  -2.061  10.492   7.634  0.8252 -1.6617 -0.0734
  867MOL0     H17030  -1.954  10.631   7.478  0.0301 -0.6616  1.8160
  867MOL0     H17031  -0.289  11.242   6.891  0.4306 -3.0538 -0.7181
  867MOL0     H17032  -0.056  11.190   6.873 -0.0680 -2.1308 -0.5041
  867MOL0     H17033   0.308  11.186   7.014 -2.1914 -1.7248  0.7625
  867MOL0     H17034   0.557  11.197   6.965  0.9813 -1.1185 -1.2507
  867MOL0     H17035   0.678  11.028   6.768  1.0684  1.8946  0.6528
  867MOL0     H17036   0.849  11.001   6.804 -0.2997 -0.0186 -2.0831
  867MOL0     H17037   0.789  10.830   6.670 -1.8456 -1.4915 -0.7277
  867MOL0     H17038   0.646  10.791   6.752  1.0511 -1.2957  0.3433
  867MOL0     H17039   0.820  10.620   6.797 -0.3033  0.8216 -2.3948
  867MOL0     H17040   0.778  10.701   6.951  0.7309  4.8386  0.8968
  867MOL0     H17041   1.032  10.687   6.939  2.4078  1.8837 -0.1606
  867MOL0     H17042   0.965  10.850   6.955 -1.4538 -0.2837 -0.4356
  867MOL0     H17043   1.226  10.858   6.640  2.1109 -1.4477  2.2715
  867MOL0     H17044   0.570  10.778   7.064  0.8383  0.1873  2.1654
  867MOL0     H17045   0.325  10.776   7.093  2.0954 -0.7365 -0.3385
  868MOL0     O17046   8.479   9.876  10.283 -0.0458 -0.0698  0.5280
  868MOL0     C17047   8.517   9.848  10.395  0.8083  0.0803 -0.2433
  868MOL0     O17048   8.438   9.804  10.503  0.1207 -0.3329 -0.1391
  868MOL0     C17049   8.301   9.804  10.499 -0.1603 -0.2605 -0.3545
  868MOL0     C17050   8.211   9.799  10.394  0.2725 -0.8777  0.9153
  868MOL0     C17051   8.071   9.777  10.419 -0.6666  0.6963 -0.2448
  868MOL0     C17052   8.015   9.798  10.549 -0.3397  0.1117  0.0204
  868MOL0     O17053   7.880   9.795  10.591 -0.1374  0.3754 -0.0270
  868MOL0     C17054   7.785   9.765  10.485  0.2711  0.0424  0.8870
  868MOL0     C17055   7.635   9.776  10.530 -0.7483 -0.4790  0.8582
  868MOL0     C17056   7.542   9.738  10.413 -0.1092 -0.3265  0.0627
  868MOL0     C17057   7.392   9.782  10.439  0.0211  1.0437  0.0942
  868MOL0     C17058   7.308   9.804  10.307 -0.5886  0.1971  0.0416
  868MOL0     C17059   7.155   9.813  10.335  0.2432 -1.1589 -0.0175
  868MOL0     C17060   7.068   9.810  10.209  0.5029  0.2178  0.6039
  868MOL0     C17061   6.919   9.799  10.252 -0.0650  0.6936  0.3431
  868MOL0     N17062   6.822   9.874  10.176 -0.4635  0.2991  0.1708
  868MOL0     C17063   6.774   9.844  10.054  0.3077  0.0709 -0.0967
  868MOL0     C17064   6.680   9.927  10.012 -0.4506 -0.5021 -0.2942
  868MOL0     C17065   6.595   9.910   9.892  0.4067 -0.0534  0.5079
  868MOL0     C17066   6.448   9.948   9.920  0.7395  0.0028  0.3678
  868MOL0     C17067   6.364   9.867   9.818 -0.0114 -0.7042 -0.1471
  868MOL0     C17068   6.223   9.912   9.814  0.6356  0.1135  0.0853
  868MOL0     O17069   6.216  10.048   9.776  0.2173 -0.4698 -0.0379
  868MOL0     C17070   6.189  10.065   9.635  0.6047  0.8674 -0.0651
  868MOL0     C17071   6.299  10.082   9.558 -0.3209 -0.1849  0.0994
  868MOL0     C17072   6.295  10.080   9.418 -0.4675 -0.2627  0.4180
  868MOL0     C17073   6.424  10.066   9.342 -0.3784 -0.0644 -1.0761
  868MOL0     C17074   6.172  10.069   9.356 -0.3047 -0.0739 -0.0752
  868MOL0     C17075   6.152  10.078   9.204  1.4066  1.3810 -0.7089
  868MOL0     O17076   6.034  10.039   9.151 -0.4386  0.3676  0.1440
  868MOL0     C17077   6.012  10.084   9.022  0.2893  0.8576  0.6187
  868MOL0     C17078   5.983   9.994   8.922  0.2478 -0.4549  0.5741
  868MOL0     C17079   5.940  10.026   8.796  0.0505 -0.6786 -0.5915
  868MOL0     C17080   5.917  10.165   8.765  0.3774 -0.0528 -1.1225
  868MOL0     O17081   5.861  10.207   8.653 -0.4691  0.5927 -1.3839
  868MOL0     C17082   5.758  10.133   8.588  0.3579 -0.1331 -1.2761
  868MOL0     C17083   5.802  10.105   8.441  1.0591 -0.1134 -0.3214
  868MOL0     C17084   5.688  10.035   8.356  0.1739 -0.0625 -1.0858
  868MOL0     C17085   5.584  10.143   8.332 -0.0023  0.7091  0.4013
  868MOL0     C17086   5.506  10.112   8.203  0.4381 -0.0787 -0.4279
  868MOL0     C17087   5.365  10.173   8.203 -0.6030  0.4546  0.0880
  868MOL0     C17088   5.281  10.130   8.083  0.6899 -0.1149 -0.1087
  868MOL0     C17089   5.322  10.209   7.955 -0.5713 -0.6921  0.2118
  868MOL0    Cl17090   5.287  10.123   7.811  0.7390 -0.0421 -0.1783
  868MOL0     C17091   5.950  10.256   8.863 -0.2688  0.2883  0.5190
  868MOL0     C17092   5.999  10.222   8.989 -0.4902  0.6493  0.1598
  868MOL0     O17093   6.248  10.113   9.139  0.0538 -0.4837 -0.2895
  868MOL0     C17094   6.054  10.058   9.431  0.0482 -0.1305 -0.1959
  868MOL0     C17095   6.070  10.054   9.569 -0.0028 -0.3277 -0.4535
  868MOL0     N17096   6.657  10.013  10.126 -0.3386 -0.2794 -0.5568
  868MOL0     N17097   6.752   9.982  10.217 -0.5191 -0.4085 -0.3615
  868MOL0     C17098   8.116   9.823  10.646 -0.6869 -0.0231 -0.9568
  868MOL0     C17099   8.255   9.813  10.622  0.6334 -0.5806  0.0661
  868MOL0     C17100   8.665   9.859  10.418  0.7519  0.3457  0.3970
  868MOL0     C17101   8.732   9.791  10.520 -0.2387 -0.3424  0.4599
  868MOL0     C17102   8.874   9.790  10.518 -0.5801  0.4322  0.4737
  868MOL0     C17103   8.952   9.858  10.421 -0.1686  0.3164  0.3945
  868MOL0     O17104   9.089   9.849  10.421  0.3420  0.0828 -0.0291
  868MOL0     C17105   9.153   9.953  10.490  0.4872 -0.7121 -0.5442
  868MOL0     C17106   9.293   9.966  10.440  0.0741  0.6460  0.1327
  868MOL0     C17107   9.307   9.996  10.291 -0.1318  0.4059  0.1732
  868MOL0     C17108   9.436   9.932  10.240 -0.0764 -0.6031  0.0219
  868MOL0     C17109   9.441   9.977  10.099 -0.5264  0.2119  0.0169
  868MOL0     C17110   9.452  10.033   9.991 -0.1148  0.7146 -0.1749
  868MOL0     C17111   8.894   9.925  10.322 -0.3054 -0.5737  0.5118
  868MOL0     C17112   8.746   9.937  10.322 -0.3558  0.5838 -0.8617
  868MOL0     H17113   8.248   9.795  10.292  0.1093  3.1099  0.5540
  868MOL0     H17114   8.005   9.757  10.335 -0.8347  1.1865 -0.2349
  868MOL0     H17115   7.795   9.840  10.406 -0.0096 -0.2529  0.5628
  868MOL0     H17116   7.800   9.666  10.442  2.9969  1.1906 -1.0762
  868MOL0     H17117   7.607   9.725  10.622 -0.1897 -1.0584  0.7062
  868MOL0     H17118   7.626   9.885  10.536  0.5684  0.0733 -3.5119
  868MOL0     H17119   7.565   9.795  10.322  2.3234  0.3151  0.9894
  868MOL0     H17120   7.552   9.631  10.398  0.9082 -0.0769 -1.2979
  868MOL0     H17121   7.339   9.708  10.500 -1.2560  0.7429 -1.3222
  868MOL0     H17122   7.388   9.871  10.504  0.6261 -0.7715  2.8009
  868MOL0     H17123   7.356   9.892  10.261  2.8486 -1.1263  0.7937
  868MOL0     H17124   7.338   9.725  10.237 -0.6363 -3.2420  3.5957
  868MOL0     H17125   7.136   9.736  10.410  4.1369 -1.6506  0.6597
  868MOL0     H17126   7.142   9.909  10.387  1.5472 -1.1822  0.3772
  868MOL0     H17127   7.068   9.912  10.170 -0.9515  0.7729  1.9275
  868MOL0     H17128   7.095   9.733  10.137 -0.5367  2.1736 -2.0158
  868MOL0     H17129   6.915   9.837  10.355  0.1001 -1.8226  1.3448
  868MOL0     H17130   6.888   9.694  10.249 -2.2467  1.1867  2.5205
  868MOL0     H17131   6.796   9.746  10.011  2.5159 -0.0555  1.1559
  868MOL0     H17132   6.636   9.979   9.818 -2.2626 -0.4923 -1.5713
  868MOL0     H17133   6.607   9.806   9.859  1.0584 -0.5717  2.2364
  868MOL0     H17134   6.445  10.055   9.901 -0.5871 -0.2320 -0.9650
  868MOL0     H17135   6.424   9.927  10.024 -3.1161  0.1799 -0.3447
  868MOL0     H17136   6.370   9.759   9.831  0.4123 -0.5931  0.6372
  868MOL0     H17137   6.401   9.886   9.716 -2.4860 -0.0991 -1.0036
  868MOL0     H17138   6.187   9.896   9.916  3.6058 -3.4103  0.7992
  868MOL0     H17139   6.177   9.844   9.741  1.7612 -0.0196 -0.5179
  868MOL0     H17140   6.389  10.085   9.618 -1.7706 -0.1898  2.3540
  868MOL0     H17141   6.446  10.150   9.275 -2.0488 -0.3558 -2.0511
  868MOL0     H17142   6.502  10.055   9.417 -0.5021 -0.4238 -0.9985
  868MOL0     H17143   6.403   9.979   9.279 -4.1052  0.5481 -0.8994
  868MOL0     H17144   5.989   9.890   8.955  0.7231  0.1812  2.6504
  868MOL0     H17145   5.923   9.944   8.727 -0.8874 -0.2094 -0.9287
  868MOL0     H17146   5.728  10.041   8.640 -1.4161  0.7918 -0.5949
  868MOL0     H17147   5.673  10.201   8.595  0.9631  0.4728  3.1814
  868MOL0     H17148   5.813  10.208   8.406 -1.0560 -0.0214 -0.8847
  868MOL0     H17149   5.897  10.052   8.443  0.9702 -0.4576 -2.6614
  868MOL0     H17150   5.645   9.957   8.418  1.1663 -0.3238 -0.7201
  868MOL0     H17151   5.730  10.001   8.261  0.2494 -1.2355 -0.6430
  868MOL0     H17152   5.528  10.158   8.424  1.9830  0.5301  1.7077
  868MOL0     H17153   5.619  10.243   8.304  0.0837  0.0714 -1.9887
  868MOL0     H17154   5.490  10.004   8.199  1.6785 -0.3547  1.2177
  868MOL0     H17155   5.559  10.154   8.116  4.5424 -2.8064  0.4715
  868MOL0     H17156   5.320  10.132   8.293 -0.8474 -0.3999 -0.4102
  868MOL0     H17157   5.364  10.281   8.216  1.6979  0.8047 -1.8942
  868MOL0     H17158   5.174  10.153   8.095  0.5298 -0.8437 -0.0886
  868MOL0     H17159   5.285  10.021   8.073 -4.1386 -0.3594 -2.0383
  868MOL0     H17160   5.430  10.230   7.955 -0.2455 -2.1682 -1.0085
  868MOL0     H17161   5.260  10.298   7.939  0.0512 -0.2383  0.2837
  868MOL0     H17162   5.937  10.361   8.837  0.2457  0.2290  0.0070
  868MOL0     H17163   6.031  10.301   9.056  0.4845  0.5260 -0.1351
  868MOL0     H17164   5.953  10.052   9.391 -0.2654 -0.7391  0.6641
  868MOL0     H17165   5.986  10.046   9.638  0.7314 -2.1105  0.2806
  868MOL0     H17166   8.093   9.839  10.751  1.5376  1.1991 -0.6082
  868MOL0     H17167   8.338   9.815  10.691  1.7510 -0.1139 -1.2487
  868MOL0     H17168   8.682   9.731  10.596  2.0323 -1.8772  0.8556
  868MOL0     H17169   8.931   9.734  10.591 -0.0139 -0.0782 -0.3470
  868MOL0     H17170   9.099  10.048  10.485  1.1124 -0.0786  2.7887
  868MOL0     H17171   9.161   9.936  10.597 -1.1442  0.9200 -0.1085
  868MOL0     H17172   9.342   9.869  10.453  0.6658  0.6301 -1.9299
  868MOL0     H17173   9.356  10.033  10.498  3.1525 -1.3856 -0.6337
  868MOL0     H17174   9.320  10.104  10.280 -1.8366  0.5455 -0.8774
  868MOL0     H17175   9.222   9.953  10.238 -0.3303 -0.6732  1.2983
  868MOL0     H17176   9.435   9.823  10.243  1.6238 -0.6859 -1.0067
  868MOL0     H17177   9.521   9.974  10.295 -1.9722  0.5981  2.2472
  868MOL0     H17178   9.455  10.079   9.894 -0.2923  0.7621 -0.1574
  868MOL0     H17179   8.954   9.978  10.248  0.2169  0.8214  1.8886
  868MOL0     H17180   8.701  10.004  10.250 -0.2514  0.4394 -1.0613
  869MOL0     O17181   1.988   2.000   6.083  0.9501 -0.4776 -0.0037
  869MOL0     C17182   1.960   2.098   6.151 -0.2856 -0.4819  0.3164
  869MOL0     O17183   2.047   2.159   6.237 -0.0171  0.8613 -0.2040
  869MOL0     C17184   2.174   2.117   6.269  0.3319  0.1623  0.6548
  869MOL0     C17185   2.235   2.202   6.360  0.0260 -0.9137  0.2158
  869MOL0     C17186   2.370   2.177   6.399 -0.3100 -0.1947 -0.0145
  869MOL0     C17187   2.441   2.069   6.350  0.6993 -0.1559  0.8015
  869MOL0     O17188   2.574   2.047   6.387 -0.1911  0.3353 -0.5289
  869MOL0     C17189   2.674   2.156   6.392 -0.6419  0.4399  0.4617
  869MOL0     C17190   2.808   2.086   6.436  0.1386 -0.1037  0.3172
  869MOL0     C17191   2.857   1.977   6.343 -0.0081  0.1237 -0.7139
  869MOL0     C17192   2.993   1.931   6.403 -0.0940 -0.7862  1.2168
  869MOL0     C17193   3.044   1.802   6.349 -0.0226  1.4796 -0.2623
  869MOL0     C17194   2.950   1.701   6.413  0.0767 -0.9952 -0.3543
  869MOL0     C17195   3.002   1.561   6.390  0.6511  0.2865 -0.7334
  869MOL0     C17196   2.927   1.458   6.473 -0.7162  0.6558  0.2164
  869MOL0     N17197   2.783   1.458   6.422 -0.3084 -0.3979 -1.2030
  869MOL0     C17198   2.672   1.514   6.489  0.2928 -0.2672  0.1069
  869MOL0     C17199   2.566   1.456   6.423 -0.4078 -0.5473  0.0939
  869MOL0     C17200   2.412   1.469   6.437  0.1629  0.3922  0.2610
  869MOL0     C17201   2.348   1.532   6.311  0.2435  0.2736 -0.0226
  869MOL0     C17202   2.253   1.436   6.230  0.2831  0.2663 -0.4964
  869MOL0     C17203   2.339   1.344   6.145  0.7713 -0.3970  1.3306
  869MOL0     O17204   2.249   1.301   6.039 -0.1253  0.8741  0.6540
  869MOL0     C17205   2.280   1.198   5.951 -0.5070  0.5457 -0.0600
  869MOL0     C17206   2.397   1.117   5.945 -0.1448 -0.5813 -0.0673
  869MOL0     C17207   2.418   1.033   5.838  0.7039  0.2245 -0.0937
  869MOL0     C17208   2.543   0.952   5.839 -1.3151  0.3920  0.9212
  869MOL0     C17209   2.325   1.024   5.735 -0.1796 -0.0821 -0.5405
  869MOL0     C17210   2.342   0.938   5.618  0.8494  0.7234  0.3789
  869MOL0     O17211   2.470   0.915   5.573  0.1611  0.1274 -0.2646
  869MOL0     C17212   2.493   0.883   5.441 -0.3467 -0.9125  0.8698
  869MOL0     C17213   2.617   0.830   5.423 -0.1388 -0.4246 -0.8440
  869MOL0     C17214   2.671   0.806   5.297  0.7527 -0.1636 -0.1865
  869MOL0     C17215   2.590   0.836   5.184  0.8465  0.5345  0.5609
  869MOL0     O17216   2.629   0.804   5.056  0.2016 -0.8457 -0.2485
  869MOL0     C17217   2.761   0.765   5.032  1.0032 -0.7634 -0.3120
  869MOL0     C17218   2.796   0.741   4.888  0.3210 -0.0341  0.4438
  869MOL0     C17219   2.732   0.621   4.830  0.0373 -0.5809  0.0975
  869MOL0     C17220   2.595   0.663   4.764 -0.3542  0.2383 -0.9665
  869MOL0     C17221   2.500   0.547   4.725  0.4518  0.3933 -0.4333
  869MOL0     C17222   2.436   0.472   4.850 -0.5494  0.1768  0.5569
  869MOL0     C17223   2.347   0.346   4.808  0.0105  0.3842 -0.2326
  869MOL0     C17224   2.407   0.251   4.708 -0.1000  0.4827  0.9160
  869MOL0    Cl17225   2.271   0.141   4.648 -0.1268 -0.4650 -0.0421
  869MOL0     C17226   2.465   0.879   5.195  0.5938 -0.4035  0.0720
  869MOL0     C17227   2.413   0.902   5.325  0.0965 -1.1291  0.1157
  869MOL0     O17228   2.240   0.888   5.566  0.6509 -0.0784  0.6576
  869MOL0     C17229   2.211   1.102   5.736 -0.4759 -0.4145  1.1029
  869MOL0     C17230   2.186   1.187   5.845 -0.1203  1.2740 -0.3502
  869MOL0     N17231   2.615   1.384   6.315 -0.5277  0.0464 -0.4027
  869MOL0     N17232   2.740   1.392   6.314  0.4502 -0.6510  0.2484
  869MOL0     C17233   2.375   1.968   6.274 -0.6946  0.3725  0.9187
  869MOL0     C17234   2.247   1.996   6.230 -0.2043  1.4887  0.8563
  869MOL0     C17235   1.837   2.177   6.127  0.1450  0.8423  0.8109
  869MOL0     C17236   1.816   2.303   6.204 -0.2079  1.5600  0.5426
  869MOL0     C17237   1.703   2.385   6.184  0.1385  0.6828  1.2090
  869MOL0     C17238   1.609   2.348   6.086 -0.1882  0.2710 -0.4240
  869MOL0     O17239   1.500   2.428   6.048  0.4186 -0.9975  0.0036
  869MOL0     C17240   1.499   2.575   6.065  0.1514  0.7933 -0.2204
  869MOL0     C17241   1.599   2.620   5.962 -0.8648 -0.1128 -0.0111
  869MOL0     C17242   1.587   2.557   5.817  0.4857 -0.0203 -0.1175
  869MOL0     C17243   1.642   2.654   5.727  0.7313 -0.2671 -0.6618
  869MOL0     C17244   1.604   2.621   5.593 -0.8063 -0.1070 -0.0247
  869MOL0     C17245   1.564   2.586   5.483 -0.4164 -0.2255  0.5031
  869MOL0     C17246   1.629   2.216   6.029 -0.2113 -0.3422 -0.1343
  869MOL0     C17247   1.740   2.136   6.042 -0.4873 -0.3793 -0.4611
  869MOL0     H17248   2.173   2.284   6.395  0.0345 -1.0129  0.4629
  869MOL0     H17249   2.422   2.238   6.472 -1.9682  2.1233 -0.6347
  869MOL0     H17250   2.682   2.211   6.298 -2.2375  0.7391  0.4802
  869MOL0     H17251   2.633   2.224   6.467 -0.4085 -0.7781  1.7462
  869MOL0     H17252   2.877   2.169   6.454 -2.2865  2.2462 -0.6517
  869MOL0     H17253   2.787   2.039   6.532  1.1018  0.6617  0.9184
  869MOL0     H17254   2.778   1.901   6.338  0.5991 -0.8377  2.0946
  869MOL0     H17255   2.868   2.025   6.245 -3.0006 -0.0336 -1.2211
  869MOL0     H17256   3.070   2.007   6.383  0.2768 -1.7356 -1.3560
  869MOL0     H17257   2.972   1.917   6.509 -0.8460  0.9751  1.3257
  869MOL0     H17258   3.050   1.786   6.241 -1.5522  0.5590 -0.2378
  869MOL0     H17259   3.145   1.782   6.387 -0.7535 -1.1229  0.5094
  869MOL0     H17260   2.949   1.716   6.521 -2.9651 -0.3263 -0.3868
  869MOL0     H17261   2.847   1.714   6.377  0.7679 -2.0433 -2.9552
  869MOL0     H17262   2.991   1.537   6.284 -1.3232 -1.7449 -0.1670
  869MOL0     H17263   3.110   1.559   6.405  0.2932 -1.4352  2.5302
  869MOL0     H17264   2.928   1.479   6.581  1.6064 -0.6703  0.4988
  869MOL0     H17265   2.978   1.363   6.458  0.1355  1.2850 -1.0487
  869MOL0     H17266   2.669   1.583   6.573 -0.2918  0.8002 -0.7589
  869MOL0     H17267   2.354   1.377   6.445 -2.3697  1.5841 -2.4112
  869MOL0     H17268   2.381   1.532   6.521 -0.3540 -0.7369  0.9439
  869MOL0     H17269   2.423   1.574   6.243  0.4416 -0.8933 -0.5442
  869MOL0     H17270   2.297   1.614   6.364  1.3454 -0.6991  2.7118
  869MOL0     H17271   2.186   1.493   6.165  0.0970  0.3617 -0.2263
  869MOL0     H17272   2.189   1.382   6.301  0.2172 -1.1778 -1.6282
  869MOL0     H17273   2.370   1.262   6.211  0.2243 -1.7587 -0.0274
  869MOL0     H17274   2.425   1.401   6.111 -0.9692  2.0816  0.8368
  869MOL0     H17275   2.477   1.137   6.015 -0.4051  0.5036 -0.0638
  869MOL0     H17276   2.579   0.954   5.942  1.6664 -4.6092  0.3041
  869MOL0     H17277   2.539   0.847   5.809  0.9776  0.3251  0.6721
  869MOL0     H17278   2.620   0.998   5.776 -0.3569 -1.1106  0.9549
  869MOL0     H17279   2.685   0.818   5.506 -1.2043  0.2420  0.1499
  869MOL0     H17280   2.775   0.774   5.302  1.6430  2.5932  0.9098
  869MOL0     H17281   2.819   0.845   5.077 -0.8784 -0.1911  1.2075
  869MOL0     H17282   2.774   0.675   5.093  0.3545 -0.9408 -0.4245
  869MOL0     H17283   2.773   0.826   4.823  0.3605 -0.2088  0.2016
  869MOL0     H17284   2.905   0.743   4.885  0.3406  3.2101 -0.9771
  869MOL0     H17285   2.717   0.540   4.902  1.4134 -0.9601 -0.0094
  869MOL0     H17286   2.805   0.597   4.752  0.9091  0.9512  0.3953
  869MOL0     H17287   2.530   0.726   4.825 -3.2742 -1.1868 -2.3964
  869MOL0     H17288   2.623   0.719   4.673 -0.0240 -0.1760 -1.1211
  869MOL0     H17289   2.551   0.475   4.660  0.3646 -0.5077  0.4808
  869MOL0     H17290   2.417   0.578   4.661 -0.1349  0.1330  0.1893
  869MOL0     H17291   2.517   0.446   4.918  0.6667  0.6144 -0.6723
  869MOL0     H17292   2.373   0.545   4.902 -2.1113 -2.1484  2.1351
  869MOL0     H17293   2.258   0.389   4.761  1.4412 -0.1208 -3.7654
  869MOL0     H17294   2.314   0.276   4.885 -1.5759  0.5075 -0.7739
  869MOL0     H17295   2.490   0.196   4.754 -0.0539  0.2738  0.5827
  869MOL0     H17296   2.453   0.300   4.622 -1.4703  1.3273  0.6332
  869MOL0     H17297   2.399   0.886   5.109  0.2054 -1.4941  0.2716
  869MOL0     H17298   2.313   0.943   5.335 -0.3638 -1.4612 -2.3191
  869MOL0     H17299   2.130   1.088   5.665 -1.0980 -0.5280  1.8152
  869MOL0     H17300   2.103   1.256   5.847 -0.2510  1.0999  0.2624
  869MOL0     H17301   2.421   1.870   6.263  1.0176  1.3427 -1.3867
  869MOL0     H17302   2.202   1.913   6.177  0.2848  0.5268  1.9109
  869MOL0     H17303   1.881   2.326   6.288  0.7067 -3.0294  1.3508
  869MOL0     H17304   1.698   2.482   6.231  2.5034  1.7573 -0.5438
  869MOL0     H17305   1.396   2.608   6.049  0.0193  0.3669 -0.2588
  869MOL0     H17306   1.522   2.606   6.167  1.7256  0.1481 -0.3457
  869MOL0     H17307   1.695   2.590   6.006 -0.9495 -1.2291 -0.5490
  869MOL0     H17308   1.587   2.729   5.958 -1.7286 -0.2387 -1.5819
  869MOL0     H17309   1.484   2.525   5.798 -0.5588  3.0196 -0.1509
  869MOL0     H17310   1.652   2.469   5.813 -0.8223 -0.9715 -1.2203
  869MOL0     H17311   1.751   2.664   5.730  0.5534  3.4548  2.3049
  869MOL0     H17312   1.588   2.747   5.749 -2.3928 -2.0012 -0.4655
  869MOL0     H17313   1.519   2.548   5.393  0.9346 -2.7162  0.7969
  869MOL0     H17314   1.571   2.184   5.942  0.1101  2.5776 -1.5419
  869MOL0     H17315   1.749   2.043   5.987 -0.9868 -0.7182  0.0205
  870MOL0     O17316   2.794   9.343   0.779  0.3737  0.7499 -0.4573
  870MOL0     C17317   2.776   9.379   0.664 -0.0690  0.7277 -0.0909
  870MOL0     O17318   2.656   9.367   0.598 -0.2034  0.0851  0.9014
  870MOL0     C17319   2.543   9.340   0.664  0.2880 -0.1227  0.1758
  870MOL0     C17320   2.506   9.202   0.660  0.2637  0.3700 -0.6343
  870MOL0     C17321   2.379   9.174   0.718 -0.4749  0.5754  0.0786
  870MOL0     C17322   2.298   9.272   0.783  0.5465  0.5558  0.8522
  870MOL0     O17323   2.168   9.245   0.833  0.0339 -0.2137  0.7345
  870MOL0     C17324   2.127   9.106   0.856  0.5732 -0.1748  0.4089
  870MOL0     C17325   2.027   9.056   0.747 -0.0933 -0.0100 -0.2046
  870MOL0     C17326   1.893   9.127   0.759  0.3352 -0.1179  0.9566
  870MOL0     C17327   1.794   9.063   0.659 -0.6863 -0.1179  0.4225
  870MOL0     C17328   1.651   9.060   0.707 -0.1649  0.4955  0.2175
  870MOL0     C17329   1.561   8.954   0.640  0.3744  0.6633  0.4743
  870MOL0     C17330   1.423   8.936   0.719  0.0001  0.7398 -0.1599
  870MOL0     C17331   1.324   8.846   0.641  0.1837  0.0160  0.1133
  870MOL0     N17332   1.181   8.882   0.659 -0.1935  0.3468  0.0204
  870MOL0     C17333   1.066   8.799   0.674  0.1170  1.2832 -0.2294
  870MOL0     C17334   0.955   8.876   0.691 -1.2927 -0.9195  0.0464
  870MOL0     C17335   0.820   8.822   0.686  0.7787  0.4360  0.1909
  870MOL0     C17336   0.722   8.928   0.613  0.4046 -0.1976 -0.3955
  870MOL0     C17337   0.572   8.874   0.596 -0.8891 -0.2487  0.0207
  870MOL0     C17338   0.505   8.821   0.715 -0.9064 -0.4374  0.5121
  870MOL0     O17339   0.360   8.833   0.708 -0.0272  0.1556 -0.5680
  870MOL0     C17340   0.301   8.812   0.831  0.0083  0.1113 -0.8177
  870MOL0     C17341   0.356   8.761   0.949  0.4695 -0.7586  1.0807
  870MOL0     C17342   0.285   8.734   1.060  0.6036 -0.2500 -0.9860
  870MOL0     C17343   0.362   8.675   1.190 -0.8901 -0.7791 -0.9730
  870MOL0     C17344   0.144   8.756   1.068  0.0895 -0.3945  0.2434
  870MOL0     C17345   0.066   8.722   1.188 -0.0555  0.2934 -0.4145
  870MOL0     O17346   0.070   8.591   1.226 -0.7801  0.9017 -0.1984
  870MOL0     C17347   0.023   8.572   1.349  0.7602  0.8417  0.1981
  870MOL0     C17348   0.069   8.635   1.465 -0.4881  0.2743  0.3414
  870MOL0     C17349   0.046   8.598   1.593 -0.4925  1.2225 -0.2184
  870MOL0     C17350  -0.057   8.507   1.611  0.4080  0.1322 -0.1247
  870MOL0     O17351  -0.090   8.459   1.740  0.2204  0.6460  0.2950
  870MOL0     C17352  -0.213   8.381   1.772 -0.0363 -0.0060  1.0179
  870MOL0     C17353  -0.209   8.355   1.915 -0.0984 -0.2051 -0.4815
  870MOL0     C17354  -0.318   8.261   1.963  0.3388  0.1318 -0.0142
  870MOL0     C17355  -0.457   8.261   1.897 -0.2043  0.2701  0.7822
  870MOL0     C17356  -0.557   8.170   1.964  0.2422  0.4222  0.1879
  870MOL0     C17357  -0.621   8.237   2.083  0.0249  0.5180 -0.6567
  870MOL0     C17358  -0.718   8.147   2.162  0.8525  1.3542  0.8938
  870MOL0     C17359  -0.766   8.218   2.289  0.2326 -0.2884  0.1070
  870MOL0    Cl17360  -0.881   8.122   2.404  0.0811 -0.2146 -0.2074
  870MOL0     C17361  -0.131   8.453   1.500  0.0505 -0.3840 -0.7698
  870MOL0     C17362  -0.087   8.487   1.371 -0.4945 -0.4378 -0.1960
  870MOL0     O17363  -0.002   8.810   1.244 -0.3511  0.8751  0.5248
  870MOL0     C17364   0.092   8.817   0.957  0.7412  0.0674 -0.0852
  870MOL0     C17365   0.172   8.850   0.846  0.1667  0.9887 -0.0647
  870MOL0     N17366   1.006   9.010   0.688 -0.0966  0.0031  0.5175
  870MOL0     N17367   1.127   9.004   0.655  1.1490 -0.3248  0.5942
  870MOL0     C17368   2.341   9.403   0.776  0.1937 -0.5771 -0.6749
  870MOL0     C17369   2.466   9.442   0.724 -0.2864 -0.0271 -1.6209
  870MOL0     C17370   2.890   9.450   0.602 -0.0901 -0.2230  0.7240
  870MOL0     C17371   2.992   9.512   0.681  0.5962  0.3005  0.7580
  870MOL0     C17372   3.107   9.570   0.625  0.9635  0.3507  0.5467
  870MOL0     C17373   3.123   9.565   0.487  0.3422  0.3226 -0.5036
  870MOL0     O17374   3.237   9.596   0.424 -0.1182  0.3762  0.5175
  870MOL0     C17375   3.289   9.540   0.301  0.3205  0.5092  0.0960
  870MOL0     C17376   3.426   9.465   0.314 -0.3070  0.4122 -0.2328
  870MOL0     C17377   3.418   9.334   0.399  0.2954  0.6675  0.4877
  870MOL0     C17378   3.322   9.213   0.353 -0.1851 -0.5283  0.2277
  870MOL0     C17379   3.335   9.109   0.443 -0.5965 -0.2557 -0.1915
  870MOL0     C17380   3.351   9.012   0.519 -1.0934 -0.5627 -0.5610
  870MOL0     C17381   3.022   9.512   0.407 -0.7018  0.0520 -0.0415
  870MOL0     C17382   2.908   9.450   0.460  0.4308  0.7159 -0.1125
  870MOL0     H17383   2.575   9.135   0.610 -0.2151  0.0904 -0.9289
  870MOL0     H17384   2.349   9.070   0.717  2.6581 -0.4722  1.9764
  870MOL0     H17385   2.214   9.041   0.864  0.2224 -0.6062  0.7554
  870MOL0     H17386   2.088   9.097   0.957  0.0521 -0.3586  0.1951
  870MOL0     H17387   2.082   9.075   0.654  0.9176 -0.0769  0.3617
  870MOL0     H17388   2.021   8.947   0.753  2.9862 -0.2592  0.2830
  870MOL0     H17389   1.867   9.125   0.866  2.8203 -0.6741  1.6264
  870MOL0     H17390   1.911   9.230   0.729 -4.2431 -0.1960 -3.2894
  870MOL0     H17391   1.801   9.112   0.562 -1.5023 -1.4343 -0.3241
  870MOL0     H17392   1.813   8.956   0.659  0.1518 -0.0046 -1.4449
  870MOL0     H17393   1.642   9.024   0.809 -1.8106  0.4569  0.0823
  870MOL0     H17394   1.598   9.155   0.693 -1.5737 -0.1653  0.9236
  870MOL0     H17395   1.541   8.986   0.538  0.1264  2.4730  1.0524
  870MOL0     H17396   1.619   8.861   0.640 -0.9380 -0.2014 -0.9335
  870MOL0     H17397   1.447   8.885   0.813 -0.0219 -2.2962 -1.6978
  870MOL0     H17398   1.371   9.032   0.735 -2.8694 -0.7000 -0.1942
  870MOL0     H17399   1.337   8.742   0.672 -3.1985 -1.7640 -3.5063
  870MOL0     H17400   1.362   8.851   0.538  4.6179 -0.8075  1.4828
  870MOL0     H17401   1.063   8.690   0.667 -2.8309  1.2569 -0.0366
  870MOL0     H17402   0.827   8.723   0.640 -0.2103  1.3992 -2.1917
  870MOL0     H17403   0.772   8.807   0.783  0.4377  3.4608  0.5937
  870MOL0     H17404   0.757   8.966   0.516 -1.1381 -2.1915 -1.8149
  870MOL0     H17405   0.714   9.008   0.687 -1.1682 -1.3833  0.7949
  870MOL0     H17406   0.573   8.798   0.517 -0.4826 -1.5115  1.1985
  870MOL0     H17407   0.524   8.965   0.559 -0.8985  0.2870  1.2906
  870MOL0     H17408   0.561   8.873   0.794 -1.0700  2.3205 -1.0441
  870MOL0     H17409   0.520   8.713   0.719  0.8507 -0.2044  0.7371
  870MOL0     H17410   0.461   8.736   0.948  1.1254  1.5773  2.3682
  870MOL0     H17411   0.467   8.705   1.176 -0.5438 -0.4997  1.7098
  870MOL0     H17412   0.357   8.716   1.291  1.6755  0.0059 -1.0712
  870MOL0     H17413   0.361   8.566   1.199 -0.1999 -1.0832 -3.5535
  870MOL0     H17414   0.153   8.701   1.447  0.3105 -0.2472  1.8779
  870MOL0     H17415   0.114   8.632   1.670  2.3188 -0.1761 -1.9369
  870MOL0     H17416  -0.303   8.438   1.749 -1.8885 -1.8685  3.1500
  870MOL0     H17417  -0.209   8.280   1.729  0.7606 -0.2880  1.7226
  870MOL0     H17418  -0.111   8.319   1.948  2.1204  4.7510 -0.7472
  870MOL0     H17419  -0.222   8.454   1.959  1.6417  0.4430 -1.3619
  870MOL0     H17420  -0.334   8.295   2.066 -2.1520  2.6931 -1.1316
  870MOL0     H17421  -0.290   8.155   1.969 -0.0451  0.0883  1.7635
  870MOL0     H17422  -0.496   8.363   1.902 -0.4338  0.3786 -1.7550
  870MOL0     H17423  -0.440   8.228   1.794  1.2534  1.6737  0.5263
  870MOL0     H17424  -0.518   8.069   1.982 -0.4815 -0.4231 -2.4695
  870MOL0     H17425  -0.637   8.149   1.892 -0.0777 -1.9101  1.1471
  870MOL0     H17426  -0.539   8.258   2.152  0.9711  1.5439 -2.0452
  870MOL0     H17427  -0.672   8.330   2.057 -0.3304  1.8420  3.9520
  870MOL0     H17428  -0.675   8.050   2.189 -1.3583 -0.2444 -0.8715
  870MOL0     H17429  -0.798   8.118   2.093  1.0735 -2.2877  1.9783
  870MOL0     H17430  -0.813   8.317   2.280 -0.1354 -0.2479  2.0575
  870MOL0     H17431  -0.676   8.228   2.351 -0.6365 -1.3442  1.6087
  870MOL0     H17432  -0.214   8.385   1.518  1.0727 -1.4348  0.1931
  870MOL0     H17433  -0.136   8.440   1.287 -3.2483  2.1309 -0.1813
  870MOL0     H17434  -0.014   8.842   0.957  0.5139 -0.8529 -0.3118
  870MOL0     H17435   0.126   8.878   0.752 -0.2731  0.2349 -0.0847
  870MOL0     H17436   2.283   9.487   0.813  4.3129  2.9933 -1.4490
  870MOL0     H17437   2.493   9.546   0.739 -2.8162  0.2838  2.0265
  870MOL0     H17438   2.982   9.527   0.788 -0.4031  0.3864  0.6629
  870MOL0     H17439   3.182   9.599   0.697  0.2953  3.2761  0.1993
  870MOL0     H17440   3.217   9.466   0.263  1.0544  0.4249 -1.1895
  870MOL0     H17441   3.302   9.613   0.220 -4.1732 -0.2316 -1.6421
  870MOL0     H17442   3.501   9.539   0.341  0.4643 -1.1596  2.2958
  870MOL0     H17443   3.445   9.446   0.208  2.0384  1.6651 -0.1019
  870MOL0     H17444   3.402   9.366   0.502  3.2886 -0.4410  1.4113
  870MOL0     H17445   3.517   9.288   0.397 -0.6861 -1.5915 -1.4929
  870MOL0     H17446   3.329   9.174   0.251 -1.2703 -0.5696  0.1531
  870MOL0     H17447   3.215   9.239   0.356 -0.5108 -1.8543  0.4575
  870MOL0     H17448   3.393   8.930   0.574  0.0107 -0.6088 -1.4279
  870MOL0     H17449   3.027   9.519   0.299 -0.6888 -1.1621 -0.1324
  870MOL0     H17450   2.820   9.418   0.404 -0.5278 -0.1257  1.7758
  871MOL0     O17451   9.432   5.137   1.078  0.3210 -0.9029  0.4894
  871MOL0     C17452   9.378   5.238   1.041  0.2084  0.2429 -0.2742
  871MOL0     O17453   9.242   5.262   1.043 -0.4636 -0.1443  0.2836
  871MOL0     C17454   9.140   5.185   1.105 -0.9120 -0.0837  0.1114
  871MOL0     C17455   9.166   5.054   1.136 -0.5328 -0.2805  0.5769
  871MOL0     C17456   9.066   4.974   1.198  0.6330 -0.3064  0.1710
  871MOL0     C17457   8.940   5.023   1.227 -0.7319  0.3139 -0.7266
  871MOL0     O17458   8.851   4.932   1.275 -0.1434  0.7112  0.8727
  871MOL0     C17459   8.709   4.956   1.271 -0.2826  0.0579  0.0186
  871MOL0     C17460   8.644   4.826   1.327  0.1122  0.1179  0.2463
  871MOL0     C17461   8.649   4.721   1.220  0.4808 -0.4982 -0.7418
  871MOL0     C17462   8.599   4.592   1.284 -0.3629  0.4504 -0.6160
  871MOL0     C17463   8.573   4.493   1.166  0.4987  0.2986 -0.3999
  871MOL0     C17464   8.510   4.360   1.201 -0.4577  0.0283 -0.1406
  871MOL0     C17465   8.461   4.298   1.075 -0.9946 -0.4114 -0.0170
  871MOL0     C17466   8.577   4.252   0.979 -0.4278  0.1873  0.0765
  871MOL0     N17467   8.677   4.156   1.032 -0.1310  0.1705 -0.6590
  871MOL0     C17468   8.779   4.179   1.129  0.7219  0.4265  0.0344
  871MOL0     C17469   8.842   4.057   1.144  0.2769  0.1194 -0.6767
  871MOL0     C17470   8.955   4.026   1.235  0.4218  0.4587  0.3352
  871MOL0     C17471   9.097   4.026   1.172 -0.2811  1.1720  0.4119
  871MOL0     C17472   9.116   4.130   1.062  0.5077  0.4222 -0.4445
  871MOL0     C17473   9.242   4.099   0.973 -0.7410 -0.2864 -0.1505
  871MOL0     O17474   9.253   4.215   0.884 -0.7778  0.4704 -0.7522
  871MOL0     C17475   9.385   4.244   0.856 -0.1995  0.3361  1.2736
  871MOL0     C17476   9.469   4.311   0.947 -0.3670 -0.8527  0.4899
  871MOL0     C17477   9.610   4.339   0.921 -0.9436 -1.1233 -0.3169
  871MOL0     C17478   9.683   4.402   1.042  0.0949 -0.1282  1.0891
  871MOL0     C17479   9.661   4.302   0.797  0.7578 -0.7179  0.2366
  871MOL0     C17480   9.798   4.334   0.766 -0.8332 -0.2890 -0.2005
  871MOL0     O17481   9.881   4.373   0.872 -0.0400 -0.1375  0.2150
  871MOL0     C17482  10.016   4.375   0.862 -0.1737  0.1495 -0.6524
  871MOL0     C17483  10.098   4.304   0.943 -0.3177  0.5382 -0.2779
  871MOL0     C17484  10.242   4.305   0.933  0.4049  0.4751 -0.5295
  871MOL0     C17485  10.299   4.377   0.819  0.2561 -0.1723 -0.2933
  871MOL0     O17486  10.436   4.388   0.801  0.4409 -0.1402  0.3943
  871MOL0     C17487  10.483   4.525   0.814 -0.5053  0.1015  0.3592
  871MOL0     C17488  10.589   4.540   0.921  0.2652 -0.5560  0.6625
  871MOL0     C17489  10.532   4.493   1.054  0.7037  0.3311 -0.8048
  871MOL0     C17490  10.643   4.489   1.156 -0.6635 -0.0449 -0.2268
  871MOL0     C17491  10.589   4.486   1.299 -0.7308  0.5861 -1.0624
  871MOL0     C17492  10.696   4.488   1.408  0.3907 -0.6464 -0.1339
  871MOL0     C17493  10.651   4.517   1.552 -0.1998  0.2845  0.4739
  871MOL0     C17494  10.679   4.654   1.598 -0.0773  0.3968  0.0178
  871MOL0    Cl17495  10.601   4.656   1.761 -0.1653 -0.2073  0.1783
  871MOL0     C17496  10.212   4.463   0.744 -0.1486  0.8168  0.2295
  871MOL0     C17497  10.069   4.460   0.765 -0.6065 -0.4829 -0.7743
  871MOL0     O17498   9.839   4.327   0.645 -0.2239  0.7414 -0.5267
  871MOL0     C17499   9.581   4.245   0.698 -0.3870  0.0652 -0.4581
  871MOL0     C17500   9.447   4.218   0.733 -0.4316 -0.2724  0.0793
  871MOL0     N17501   8.773   3.968   1.063 -0.0546  0.2756 -0.8941
  871MOL0     N17502   8.685   4.020   0.997  0.5258  0.5904  0.6480
  871MOL0     C17503   8.912   5.158   1.192  0.9099  0.6758  0.7648
  871MOL0     C17504   9.013   5.239   1.136 -0.2311 -0.1180 -0.1332
  871MOL0     C17505   9.468   5.343   0.988  0.5032 -0.8098 -0.6108
  871MOL0     C17506   9.420   5.468   0.949 -0.5903 -0.3902  1.1402
  871MOL0     C17507   9.514   5.569   0.915 -0.5988  0.0254  0.1572
  871MOL0     C17508   9.648   5.556   0.919 -0.8954  0.0093 -0.1516
  871MOL0     O17509   9.728   5.666   0.913 -0.0681 -0.0147  0.0249
  871MOL0     C17510   9.869   5.647   0.921 -0.7347 -0.7360  0.1866
  871MOL0     C17511   9.935   5.773   0.993 -0.7619 -0.2118 -0.6842
  871MOL0     C17512  10.086   5.771   0.978 -0.2456 -0.3879 -0.6840
  871MOL0     C17513  10.160   5.888   1.042  0.2916  0.9150 -0.6811
  871MOL0     C17514  10.113   6.013   0.985  1.0132 -0.5361 -0.6957
  871MOL0     C17515  10.057   6.119   0.949  0.0171  0.7273 -0.2402
  871MOL0     C17516   9.694   5.428   0.948 -0.6075  0.1735  0.1859
  871MOL0     C17517   9.602   5.327   0.987 -0.3246 -0.1057 -0.6754
  871MOL0     H17518   9.254   5.003   1.099  0.3076  1.3919  0.1950
  871MOL0     H17519   9.091   4.875   1.235  2.9180 -0.2033 -0.8840
  871MOL0     H17520   8.695   5.044   1.335 -2.0918 -0.3099  0.1744
  871MOL0     H17521   8.665   4.991   1.178 -1.7082 -1.2861  0.1498
  871MOL0     H17522   8.691   4.787   1.418 -0.7071 -1.1833  0.1252
  871MOL0     H17523   8.542   4.859   1.348 -0.0956  0.4121 -1.0977
  871MOL0     H17524   8.582   4.762   1.144 -0.9788  1.5256  1.5039
  871MOL0     H17525   8.747   4.708   1.175  0.4965 -1.7919 -0.3837
  871MOL0     H17526   8.670   4.546   1.354 -3.5411 -2.2857  1.0918
  871MOL0     H17527   8.505   4.610   1.337  0.1363 -3.7500  2.1140
  871MOL0     H17528   8.514   4.538   1.085  1.4830  1.5097 -0.4674
  871MOL0     H17529   8.673   4.463   1.133  1.1866  0.3701  1.4986
  871MOL0     H17530   8.580   4.297   1.258  1.0076 -0.5079 -2.3927
  871MOL0     H17531   8.423   4.362   1.268 -1.5942 -1.5384 -1.4816
  871MOL0     H17532   8.405   4.207   1.098 -0.7698 -0.3801  0.7046
  871MOL0     H17533   8.408   4.374   1.019  2.0064  1.7103 -0.2359
  871MOL0     H17534   8.627   4.340   0.936 -0.4616  1.9749  3.3761
  871MOL0     H17535   8.521   4.194   0.905 -3.2558  3.2034 -0.4349
  871MOL0     H17536   8.809   4.274   1.172  2.7090  0.9329 -2.1995
  871MOL0     H17537   8.955   4.109   1.306 -2.0998  3.3129 -2.6649
  871MOL0     H17538   8.936   3.941   1.302  1.6576 -1.6978 -1.9065
  871MOL0     H17539   9.122   3.926   1.135  1.5763  0.2150  3.7838
  871MOL0     H17540   9.164   4.050   1.255 -0.4896  2.0902  0.3280
  871MOL0     H17541   9.129   4.228   1.109  0.2340 -0.7114  2.1298
  871MOL0     H17542   9.029   4.141   0.997 -0.2375  0.8439  0.6077
  871MOL0     H17543   9.225   4.012   0.909 -0.5370  0.2209 -0.9130
  871MOL0     H17544   9.327   4.082   1.040 -0.5201  4.2446  1.0832
  871MOL0     H17545   9.424   4.338   1.042 -0.0596  1.7772 -0.0456
  871MOL0     H17546   9.767   4.338   1.072  0.5786 -1.0022 -1.7736
  871MOL0     H17547   9.708   4.507   1.030 -5.8927  1.7535  1.9520
  871MOL0     H17548   9.609   4.406   1.122 -0.8367  1.8072  0.1807
  871MOL0     H17549  10.062   4.226   1.009 -1.3755  0.9944 -0.2947
  871MOL0     H17550  10.309   4.251   0.999 -0.0697  0.3219 -0.1674
  871MOL0     H17551  10.537   4.541   0.720 -0.7326  0.8517  0.3493
  871MOL0     H17552  10.409   4.605   0.817 -0.0780  0.5564  4.3314
  871MOL0     H17553  10.681   4.483   0.905  1.1130  1.4493 -2.4188
  871MOL0     H17554  10.615   4.644   0.940 -1.5058  0.1600 -0.5824
  871MOL0     H17555  10.504   4.388   1.040 -0.1206 -0.0312  2.6842
  871MOL0     H17556  10.446   4.557   1.078  1.2668  0.4755  0.9606
  871MOL0     H17557  10.718   4.409   1.148  1.2867  1.5679  0.8723
  871MOL0     H17558  10.705   4.579   1.148 -0.7729  0.6382  4.2372
  871MOL0     H17559  10.526   4.399   1.317  1.9649 -1.2862 -0.0960
  871MOL0     H17560  10.529   4.576   1.316 -1.3148 -0.2361  1.9607
  871MOL0     H17561  10.755   4.396   1.417  1.6059  0.2087  1.1070
  871MOL0     H17562  10.759   4.571   1.374  0.6432 -0.3801  0.9197
  871MOL0     H17563  10.702   4.448   1.620  0.5158  0.8906  0.5572
  871MOL0     H17564  10.543   4.497   1.551 -0.5487  1.9909  1.5673
  871MOL0     H17565  10.629   4.729   1.535 -1.5900 -1.2943 -0.8807
  871MOL0     H17566  10.785   4.679   1.610 -0.2421  0.5625  1.2412
  871MOL0     H17567  10.249   4.532   0.669 -1.7599  2.8771  1.2221
  871MOL0     H17568  10.004   4.526   0.708  0.0137  0.0300 -0.9101
  871MOL0     H17569   9.619   4.222   0.598 -1.2387 -0.8413 -0.5898
  871MOL0     H17570   9.377   4.178   0.660 -1.8402 -0.9727  1.7320
  871MOL0     H17571   8.814   5.188   1.228  0.3664 -1.1240  0.9247
  871MOL0     H17572   8.989   5.345   1.131 -1.5358 -0.4235 -0.8044
  871MOL0     H17573   9.314   5.490   0.948 -0.4328  0.4010  0.3484
  871MOL0     H17574   9.470   5.663   0.885 -1.6122 -0.7750 -0.9650
  871MOL0     H17575   9.888   5.557   0.981 -0.7640 -2.4315 -2.1859
  871MOL0     H17576   9.909   5.648   0.819  1.7602  2.1774  1.0314
  871MOL0     H17577   9.918   5.752   1.099 -2.7726 -0.1896 -0.9677
  871MOL0     H17578   9.877   5.864   0.976 -2.6129 -1.0039  1.0125
  871MOL0     H17579  10.123   5.761   0.876  0.2357  0.5407 -0.6113
  871MOL0     H17580  10.126   5.681   1.025 -0.4940  0.3659  1.0577
  871MOL0     H17581  10.267   5.884   1.018  0.7942 -2.5084  1.5263
  871MOL0     H17582  10.144   5.888   1.150 -0.2000  0.9338 -0.7524
  871MOL0     H17583  10.033   6.210   0.898 -0.8987  0.0936 -0.9722
  871MOL0     H17584   9.795   5.392   0.934  0.1558  2.8078 -1.7885
  871MOL0     H17585   9.638   5.232   1.025 -0.6630  0.6263  1.6019
  872MOL0     O17586   7.241  11.251   3.028 -0.3653  0.3548  0.4885
  872MOL0     C17587   7.303  11.168   3.091 -0.5377 -0.7356  0.3543
  872MOL0     O17588   7.244  11.091   3.194 -0.1986 -0.5637  0.3635
  872MOL0     C17589   7.112  11.074   3.198  1.0895 -0.5854  0.1245
  872MOL0     C17590   7.031  11.061   3.085  0.4504 -0.2940 -0.3399
  872MOL0     C17591   6.888  11.058   3.093 -0.4298  0.6483  0.2070
  872MOL0     C17592   6.825  11.038   3.214 -0.4437  0.1690  1.0326
  872MOL0     O17593   6.692  11.007   3.225 -1.0698  0.3523 -0.2487
  872MOL0     C17594   6.628  10.993   3.352  0.2579  0.0380  0.0012
  872MOL0     C17595   6.469  10.973   3.330  0.5741 -0.5869  1.2805
  872MOL0     C17596   6.425  10.831   3.362  0.0826 -0.8338  0.7028
  872MOL0     C17597   6.276  10.820   3.341  0.0890  0.2186  0.6232
  872MOL0     C17598   6.233  10.673   3.303 -0.0269  0.3734 -0.7423
  872MOL0     C17599   6.094  10.674   3.237 -0.0641  0.1199  0.1567
  872MOL0     C17600   6.064  10.542   3.177  0.0538 -0.7420 -0.1845
  872MOL0     C17601   5.929  10.532   3.120 -0.1585 -0.5868  0.3723
  872MOL0     N17602   5.809  10.554   3.204 -0.3111 -0.6259 -0.1138
  872MOL0     C17603   5.798  10.507   3.332  0.5775 -0.3515  0.3073
  872MOL0     C17604   5.672  10.546   3.367  0.6020  0.4076  0.3986
  872MOL0     C17605   5.618  10.497   3.499  0.4354 -0.3386  1.0196
  872MOL0     C17606   5.601  10.609   3.611  0.0259 -0.2433 -0.1430
  872MOL0     C17607   5.464  10.682   3.600 -0.2856  0.1676  0.8524
  872MOL0     C17608   5.464  10.831   3.660  0.8180 -0.4135  0.2034
  872MOL0     O17609   5.517  10.844   3.792 -0.4204  0.2465  0.2247
  872MOL0     C17610   5.480  10.757   3.891  0.1329  0.8752 -0.2723
  872MOL0     C17611   5.588  10.740   3.986 -0.9165  0.2187 -0.5940
  872MOL0     C17612   5.555  10.661   4.104  0.2867  0.4952  0.0922
  872MOL0     C17613   5.673  10.638   4.198 -0.7399  0.1775  0.7646
  872MOL0     C17614   5.425  10.592   4.109 -0.2959  1.1073 -0.1095
  872MOL0     C17615   5.402  10.480   4.210  0.7309  0.1593  0.1420
  872MOL0     O17616   5.493  10.461   4.310 -0.3882  0.7306 -0.0517
  872MOL0     C17617   5.469  10.402   4.436  0.4890 -0.6287 -0.3428
  872MOL0     C17618   5.346  10.389   4.505  0.0124  0.2498 -0.1777
  872MOL0     C17619   5.329  10.332   4.638 -0.4984  0.6830 -0.3742
  872MOL0     C17620   5.445  10.280   4.692  0.2633 -0.2633 -0.8302
  872MOL0     O17621   5.430  10.216   4.810 -0.2331 -0.3258  0.9736
  872MOL0     C17622   5.480  10.085   4.830  0.8538  0.5647  0.3726
  872MOL0     C17623   5.536  10.075   4.981 -0.0230  0.1343  0.1107
  872MOL0     C17624   5.641  10.198   4.995 -0.0563  0.1129 -0.7734
  872MOL0     C17625   5.725  10.178   5.115  0.2026  0.7934 -0.5188
  872MOL0     C17626   5.833  10.281   5.139 -0.1419 -0.4095  0.0264
  872MOL0     C17627   5.931  10.238   5.260  0.1753  0.3021 -0.5047
  872MOL0     C17628   6.043  10.345   5.293  0.0816 -0.1000  0.6886
  872MOL0     C17629   6.142  10.361   5.184  0.8562 -0.6542  0.4385
  872MOL0    Cl17630   6.265  10.495   5.218  0.3015  0.4680  0.4060
  872MOL0     C17631   5.570  10.279   4.624 -0.1702 -1.0627 -0.6129
  872MOL0     C17632   5.579  10.347   4.499 -0.0758 -0.0630 -0.1764
  872MOL0     O17633   5.293  10.415   4.205 -0.0939 -0.2615  0.4317
  872MOL0     C17634   5.323  10.614   4.015 -0.0167  0.1279  0.6133
  872MOL0     C17635   5.355  10.700   3.911 -0.1829  0.3291 -0.0575
  872MOL0     N17636   5.606  10.602   3.253 -0.1590  0.5787  0.1384
  872MOL0     N17637   5.690  10.595   3.154  0.1482 -0.6348  0.2447
  872MOL0     C17638   6.902  11.056   3.326  0.2700 -0.1388  0.0290
  872MOL0     C17639   7.037  11.072   3.323 -0.1475  0.2205 -0.2502
  872MOL0     C17640   7.451  11.164   3.089  0.2342  0.4488  0.2483
  872MOL0     C17641   7.531  11.252   3.024  0.0463 -0.0073 -0.4379
  872MOL0     C17642   7.661  11.261   3.059 -0.7565  0.5245 -0.2865
  872MOL0     C17643   7.726  11.168   3.141 -0.6440 -0.3367  0.7980
  872MOL0     O17644   7.865  11.181   3.145 -0.0397 -0.1709  0.4720
  872MOL0     C17645   7.932  11.088   3.225 -0.0003  0.4544  0.4956
  872MOL0     C17646   8.072  11.136   3.246 -0.5945  0.3707 -0.0664
  872MOL0     C17647   8.166  11.032   3.318 -0.5135  0.1706  0.0527
  872MOL0     C17648   8.308  11.084   3.343  0.3112 -0.2007 -0.0675
  872MOL0     C17649   8.344  11.127   3.483 -0.1316 -0.0170 -0.2432
  872MOL0     C17650   8.373  11.161   3.596  0.5460  0.5334 -0.6714
  872MOL0     C17651   7.647  11.063   3.196  0.0975 -0.0714  0.6503
  872MOL0     C17652   7.507  11.068   3.178 -0.1269  0.1062 -0.5640
  872MOL0     H17653   7.091  11.042   2.997  0.5143  0.3518 -0.4354
  872MOL0     H17654   6.828  11.036   3.005 -0.9190 -2.9185  1.2646
  872MOL0     H17655   6.663  10.904   3.405 -0.4167 -0.1709  0.1105
  872MOL0     H17656   6.645  11.086   3.406  2.0019  0.6918 -1.5799
  872MOL0     H17657   6.412  11.038   3.399 -0.2455 -1.0849  1.0895
  872MOL0     H17658   6.437  11.003   3.230 -3.3935 -1.1313  2.1976
  872MOL0     H17659   6.473  10.768   3.286  0.5095  0.8074 -0.4504
  872MOL0     H17660   6.465  10.809   3.461  0.7496  1.1468  0.9057
  872MOL0     H17661   6.230  10.855   3.434 -1.4876  1.8730 -0.6982
  872MOL0     H17662   6.248  10.888   3.261  1.2248  1.4638  1.2436
  872MOL0     H17663   6.305  10.630   3.233  0.1877  0.6633 -0.7059
  872MOL0     H17664   6.229  10.612   3.394 -0.7013  0.1276 -0.9347
  872MOL0     H17665   6.020  10.698   3.314 -1.0125  0.4928 -0.8440
  872MOL0     H17666   6.088  10.757   3.166  2.0018 -0.0696 -0.3267
  872MOL0     H17667   6.133  10.511   3.099 -2.3281 -3.4086 -1.4096
  872MOL0     H17668   6.053  10.471   3.259 -1.0361  0.9845  1.2667
  872MOL0     H17669   5.925  10.430   3.080  0.6505 -0.1365 -0.9264
  872MOL0     H17670   5.916  10.610   3.044 -3.0250 -0.4364  0.9229
  872MOL0     H17671   5.878  10.474   3.398  1.4332  2.7408  1.0225
  872MOL0     H17672   5.519  10.463   3.468  0.0469  0.0792  1.7790
  872MOL0     H17673   5.682  10.413   3.527  2.9922  0.6934 -1.2343
  872MOL0     H17674   5.677  10.687   3.619  0.7372 -0.8293 -0.8878
  872MOL0     H17675   5.607  10.561   3.709  0.3862 -1.6225 -0.8088
  872MOL0     H17676   5.395  10.615   3.652 -0.3913  0.6416  1.3282
  872MOL0     H17677   5.417  10.686   3.501 -4.0666 -0.4253  2.4602
  872MOL0     H17678   5.361  10.861   3.644  0.9997 -0.5744 -1.5398
  872MOL0     H17679   5.519  10.900   3.595  1.2193 -1.0353 -0.1408
  872MOL0     H17680   5.682  10.788   3.960  0.0629 -2.9160 -3.6318
  872MOL0     H17681   5.705  10.535   4.183 -1.0663  0.2143 -0.1989
  872MOL0     H17682   5.752  10.708   4.168 -2.3209  2.1672  1.0124
  872MOL0     H17683   5.666  10.668   4.303  1.8950 -0.1455  1.1039
  872MOL0     H17684   5.255  10.422   4.457 -1.8663 -0.8626  2.3683
  872MOL0     H17685   5.232  10.313   4.682  0.6617  0.0601  2.0600
  872MOL0     H17686   5.391  10.024   4.813 -0.0235  1.6888  0.7788
  872MOL0     H17687   5.566  10.062   4.766 -1.3867 -0.4750 -2.4535
  872MOL0     H17688   5.455  10.103   5.049 -0.3014  2.6664 -1.1237
  872MOL0     H17689   5.580   9.976   4.996 -1.5328 -1.0609 -2.6387
  872MOL0     H17690   5.605  10.301   4.989 -0.2984 -0.0154 -1.8838
  872MOL0     H17691   5.712  10.193   4.911  1.3213  1.2530  0.2872
  872MOL0     H17692   5.670  10.176   5.210  2.4972 -0.0178  0.8920
  872MOL0     H17693   5.773  10.079   5.109  0.1306  0.7710 -0.7319
  872MOL0     H17694   5.788  10.379   5.159 -0.1786  0.5918 -4.0295
  872MOL0     H17695   5.895  10.290   5.049  3.1736  1.5503  2.3089
  872MOL0     H17696   5.862  10.222   5.343 -0.4925  2.1449 -0.6647
  872MOL0     H17697   5.976  10.141   5.236  0.7956 -0.1127  2.0680
  872MOL0     H17698   6.088  10.321   5.390 -2.7228  0.3723  2.2169
  872MOL0     H17699   5.990  10.439   5.311 -1.0150 -0.7158  0.7781
  872MOL0     H17700   6.095  10.390   5.090  2.0218  0.3903  0.1544
  872MOL0     H17701   6.199  10.269   5.169  1.5569 -0.1360 -0.1021
  872MOL0     H17702   5.665  10.257   4.672  0.7583  2.3641 -0.6236
  872MOL0     H17703   5.671  10.371   4.446  1.0807 -2.7116  0.4352
  872MOL0     H17704   5.230  10.557   4.017 -0.0072  0.1256  1.1357
  872MOL0     H17705   5.268  10.711   3.846 -0.2335 -0.7396 -0.1808
  872MOL0     H17706   6.852  11.044   3.422  1.2410 -0.3252  0.5270
  872MOL0     H17707   7.079  11.089   3.421 -0.5603 -0.3966  0.0466
  872MOL0     H17708   7.483  11.317   2.952  1.0972  0.0126 -1.1455
  872MOL0     H17709   7.722  11.332   3.004 -1.2913  0.7824 -0.5515
  872MOL0     H17710   7.878  11.073   3.319 -2.3363  0.2905 -0.8046
  872MOL0     H17711   7.936  10.987   3.182 -0.4179  0.7376 -0.2234
  872MOL0     H17712   8.070  11.221   3.315  0.4265  0.8176 -0.5659
  872MOL0     H17713   8.123  11.173   3.157  0.9492 -1.3017  0.0713
  872MOL0     H17714   8.176  10.940   3.259 -3.1017  1.5283 -2.7667
  872MOL0     H17715   8.124  11.017   3.418  1.5681 -1.8035  0.7372
  872MOL0     H17716   8.330  11.164   3.272 -0.9310  0.5508  0.3573
  872MOL0     H17717   8.379  11.001   3.336  1.0726  0.3104  1.0876
  872MOL0     H17718   8.395  11.188   3.697  1.0067 -2.4765  0.1358
  872MOL0     H17719   7.697  10.975   3.233  1.0135  0.3906  0.5393
  872MOL0     H17720   7.450  10.985   3.218  1.7698 -2.2211 -2.3452
  873MOL0     O17721   7.108  10.845   6.300  0.5195 -0.5458  0.2695
  873MOL0     C17722   7.064  10.900   6.204  0.1308  0.3901  0.5900
  873MOL0     O17723   7.131  10.968   6.107 -0.4237  0.1194  0.3201
  873MOL0     C17724   7.270  10.998   6.121  0.4972 -0.3601  0.3435
  873MOL0     C17725   7.374  10.903   6.148  0.7418 -0.1049 -0.3936
  873MOL0     C17726   7.505  10.941   6.151  0.3361  0.5376  0.2534
  873MOL0     C17727   7.552  11.064   6.131 -0.4808  0.5175 -1.0598
  873MOL0     O17728   7.683  11.093   6.128 -0.2245 -0.5196  0.4247
  873MOL0     C17729   7.718  11.174   6.011  0.2689  0.0546 -0.0408
  873MOL0     C17730   7.860  11.155   5.962 -0.2313 -0.1414  0.0193
  873MOL0     C17731   7.956  11.162   6.085 -0.7910 -0.0132  0.5273
  873MOL0     C17732   8.098  11.182   6.045 -0.5295  1.0000 -0.7010
  873MOL0     C17733   8.198  11.166   6.167 -0.2744 -0.6902  0.2087
  873MOL0     C17734   8.347  11.170   6.125  0.0055 -0.6182 -0.4689
  873MOL0     C17735   8.447  11.150   6.251 -0.3214  0.0150 -0.4527
  873MOL0     C17736   8.464  11.284   6.333 -0.1643 -0.0169 -0.8242
  873MOL0     N17737   8.577  11.277   6.432 -0.1783  0.6859 -0.0066
  873MOL0     C17738   8.591  11.178   6.531 -0.5925 -0.7421  0.8429
  873MOL0     C17739   8.685  11.240   6.611  0.8830 -0.2076  0.1599
  873MOL0     C17740   8.755  11.173   6.722 -0.2328  0.0402  0.5186
  873MOL0     C17741   8.656  11.102   6.815  0.1062  0.1348  0.4331
  873MOL0     C17742   8.556  11.196   6.882  0.7034  0.3555 -0.8869
  873MOL0     C17743   8.486  11.113   6.987  0.2086 -1.1095 -0.2155
  873MOL0     O17744   8.379  11.187   7.037  0.6195  0.2938 -0.9174
  873MOL0     C17745   8.312  11.142   7.152  0.4357  0.1731  0.6675
  873MOL0     C17746   8.209  11.215   7.202  0.5746  0.2385  0.1025
  873MOL0     C17747   8.132  11.172   7.312 -0.5365 -0.3994  1.1053
  873MOL0     C17748   8.016  11.264   7.345  0.4904 -0.4387  0.3131
  873MOL0     C17749   8.164  11.048   7.376 -0.0187  0.2476  0.4533
  873MOL0     C17750   8.087  10.992   7.482 -0.3044 -0.3828  0.4555
  873MOL0     O17751   7.984  11.055   7.528 -0.2961 -0.1375 -0.3644
  873MOL0     C17752   7.908  10.983   7.616 -0.4479 -0.3332 -0.9529
  873MOL0     C17753   7.930  10.985   7.757  0.4482  0.5037  0.3414
  873MOL0     C17754   7.829  10.946   7.848  0.0279  0.1427 -0.7926
  873MOL0     C17755   7.706  10.888   7.801 -0.5511 -0.2399  0.3803
  873MOL0     O17756   7.611  10.850   7.892  0.2397 -0.0315 -0.1501
  873MOL0     C17757   7.478  10.887   7.865  0.1048  0.0332 -0.2447
  873MOL0     C17758   7.397  10.905   7.992 -0.2000  0.3304  0.3927
  873MOL0     C17759   7.459  11.008   8.081 -0.3847  0.0507  0.8026
  873MOL0     C17760   7.383  11.028   8.212 -0.7217  0.0691  0.1661
  873MOL0     C17761   7.455  11.118   8.310 -0.3639  0.1263  0.0460
  873MOL0     C17762   7.572  11.059   8.394  0.0985  0.3179  0.2038
  873MOL0     C17763   7.658  11.165   8.463  0.2424 -0.8809 -0.9465
  873MOL0     C17764   7.716  11.100   8.582  1.5947 -0.4166 -0.7552
  873MOL0    Cl17765   7.834  11.226   8.638  0.3386 -0.0393  0.7882
  873MOL0     C17766   7.692  10.880   7.664  0.6396 -0.8930  0.7943
  873MOL0     C17767   7.791  10.930   7.581  0.7955  0.3152  0.3359
  873MOL0     O17768   8.132  10.888   7.526  0.4607  0.3780  0.6076
  873MOL0     C17769   8.285  10.988   7.340  0.5841  1.2413 -0.6241
  873MOL0     C17770   8.356  11.036   7.229  0.0900  0.1939 -0.5690
  873MOL0     N17771   8.721  11.365   6.565 -0.1524 -0.2175  0.0272
  873MOL0     N17772   8.663  11.382   6.450 -0.6273  0.3381 -0.7313
  873MOL0     C17773   7.455  11.164   6.104  0.2596 -0.2575 -0.1099
  873MOL0     C17774   7.320  11.129   6.087  0.2142 -0.5688 -0.7806
  873MOL0     C17775   6.919  10.921   6.194  0.5570  0.3931 -0.8722
  873MOL0     C17776   6.832  10.859   6.282  0.3848  0.0671 -0.3883
  873MOL0     C17777   6.690  10.865   6.269 -0.3363  0.0837 -0.1393
  873MOL0     C17778   6.628  10.940   6.164  0.2368  0.2843 -0.1113
  873MOL0     O17779   6.487  10.963   6.145 -0.3418 -0.1853  0.1384
  873MOL0     C17780   6.396  10.879   6.218 -0.1734 -0.1902 -0.8762
  873MOL0     C17781   6.260  10.880   6.142 -0.4315  0.1986 -0.2611
  873MOL0     C17782   6.151  10.778   6.181  0.5457  0.3167 -0.3891
  873MOL0     C17783   6.061  10.824   6.297 -1.2026  0.6311 -0.1847
  873MOL0     C17784   5.940  10.745   6.300  0.3516  0.0090  0.2618
  873MOL0     C17785   5.829  10.685   6.280  0.0576 -0.2856  0.1718
  873MOL0     C17786   6.717  10.993   6.069 -0.2876 -0.2463 -0.3782
  873MOL0     C17787   6.852  10.989   6.087 -0.8786  0.0918  0.3424
  873MOL0     H17788   7.349  10.799   6.165 -1.6842  0.4419 -0.2373
  873MOL0     H17789   7.578  10.863   6.166  0.8729  1.1159  0.6738
  873MOL0     H17790   7.653  11.155   5.925  1.0806 -2.5125 -0.1646
  873MOL0     H17791   7.711  11.277   6.048  1.4356 -0.4187  1.6173
  873MOL0     H17792   7.866  11.056   5.915  0.5733  0.0137 -0.2207
  873MOL0     H17793   7.893  11.233   5.892 -1.0854 -0.9088 -1.2859
  873MOL0     H17794   7.928  11.241   6.155 -0.1706 -0.1953  1.0002
  873MOL0     H17795   7.949  11.065   6.137 -2.4859 -1.2464 -1.8186
  873MOL0     H17796   8.130  11.115   5.965 -0.8769  1.8237 -1.5596
  873MOL0     H17797   8.110  11.278   5.992 -0.5477 -0.7592 -4.1779
  873MOL0     H17798   8.178  11.247   6.238 -0.9533  0.2409 -1.0237
  873MOL0     H17799   8.178  11.071   6.218 -0.9073  0.6549  2.6283
  873MOL0     H17800   8.361  11.086   6.056  1.9770  0.5567 -1.5795
  873MOL0     H17801   8.379  11.260   6.070 -1.9504 -0.3954 -1.3226
  873MOL0     H17802   8.422  11.058   6.305  2.8338 -0.6608  0.0422
  873MOL0     H17803   8.546  11.145   6.205  0.4941  0.8873  1.1056
  873MOL0     H17804   8.367  11.317   6.372 -0.2801 -2.7392  1.4803
  873MOL0     H17805   8.491  11.350   6.250  0.7762 -0.8827 -1.2313
  873MOL0     H17806   8.550  11.080   6.548  0.1135 -1.3732 -0.8000
  873MOL0     H17807   8.809  11.096   6.666  1.6821  0.1375  2.0928
  873MOL0     H17808   8.829  11.243   6.762  0.8604 -0.0700 -1.1963
  873MOL0     H17809   8.719  11.042   6.881 -0.0218  0.2294  0.6459
  873MOL0     H17810   8.605  11.027   6.755 -2.6175  1.8685  0.3907
  873MOL0     H17811   8.485  11.233   6.807  0.2580  0.7520 -0.2802
  873MOL0     H17812   8.598  11.291   6.918 -1.5994  1.4485 -0.9282
  873MOL0     H17813   8.560  11.092   7.065 -0.8991  1.0719  1.5098
  873MOL0     H17814   8.460  11.018   6.938  2.1377 -0.3365 -2.9904
  873MOL0     H17815   8.189  11.302   7.140  0.2396 -0.6129 -1.0176
  873MOL0     H17816   8.023  11.364   7.303  2.4582 -0.9630 -0.7414
  873MOL0     H17817   7.916  11.230   7.317  0.3192  1.7602 -2.1238
  873MOL0     H17818   8.006  11.277   7.453 -1.1872  0.1929  0.1102
  873MOL0     H17819   8.025  11.013   7.803  0.7543 -1.8430  1.2564
  873MOL0     H17820   7.844  10.937   7.955 -0.0916 -2.3812 -0.9301
  873MOL0     H17821   7.487  10.986   7.820  0.2527 -0.2677 -0.8834
  873MOL0     H17822   7.424  10.813   7.805  2.6409 -3.0271  0.9626
  873MOL0     H17823   7.294  10.938   7.978 -1.0721  0.7576  5.6680
  873MOL0     H17824   7.392  10.806   8.037 -1.3010  1.2583  2.4412
  873MOL0     H17825   7.470  11.103   8.028 -0.8457 -0.3739 -0.0718
  873MOL0     H17826   7.563  10.984   8.104  0.3909  0.1203 -2.2354
  873MOL0     H17827   7.278  11.056   8.198 -0.9107  2.5171  4.6288
  873MOL0     H17828   7.375  10.931   8.262 -0.9249 -0.2929 -0.5594
  873MOL0     H17829   7.372  11.159   8.368 -2.7952  1.3103 -3.8515
  873MOL0     H17830   7.497  11.199   8.249  1.5842  0.0237  1.1823
  873MOL0     H17831   7.541  10.988   8.471 -3.2877 -0.1425 -1.3974
  873MOL0     H17832   7.637  11.003   8.325 -1.9037 -1.7341 -0.1261
  873MOL0     H17833   7.590  11.241   8.501  1.4458 -0.1385 -0.2182
  873MOL0     H17834   7.733  11.206   8.395 -1.8767  1.6869 -1.9033
  873MOL0     H17835   7.768  11.008   8.557 -0.5525 -1.9065 -0.0244
  873MOL0     H17836   7.645  11.067   8.659  1.5357  1.8627  0.2565
  873MOL0     H17837   7.600  10.841   7.622  0.8182 -2.3938  1.7401
  873MOL0     H17838   7.774  10.924   7.474 -2.5935  1.3121  0.6856
  873MOL0     H17839   8.309  10.898   7.396 -2.2666 -0.7238 -2.2373
  873MOL0     H17840   8.443  10.978   7.203  0.0747  0.4313 -1.1614
  873MOL0     H17841   7.470  11.271   6.094  1.3376 -0.4395 -0.6409
  873MOL0     H17842   7.256  11.201   6.036 -0.5744 -1.0079 -0.4297
  873MOL0     H17843   6.867  10.815   6.375 -0.5974 -0.2624 -0.1671
  873MOL0     H17844   6.638  10.828   6.357  0.8692  1.0322  1.0191
  873MOL0     H17845   6.427  10.776   6.235 -1.0828 -0.3638 -0.1836
  873MOL0     H17846   6.370  10.922   6.315  0.1605  0.0114 -0.8762
  873MOL0     H17847   6.275  10.862   6.035 -1.6339 -0.5720 -0.3167
  873MOL0     H17848   6.219  10.982   6.143 -1.8537 -0.3475  0.8130
  873MOL0     H17849   6.195  10.684   6.215  1.0693  0.2546 -1.2060
  873MOL0     H17850   6.087  10.759   6.094  0.6601 -2.5184  0.0607
  873MOL0     H17851   6.029  10.927   6.283 -1.4204  1.0133  2.5431
  873MOL0     H17852   6.124  10.818   6.386 -3.5098  4.0081  1.8744
  873MOL0     H17853   5.729  10.649   6.272  0.0601 -0.5645  1.2278
  873MOL0     H17854   6.682  11.053   5.985 -1.2645  0.4268  0.4929
  873MOL0     H17855   6.910  11.053   6.021 -1.7809  0.6640  0.0789
  874MOL0     O17856   4.450   4.562   0.707 -0.4139 -0.6661 -0.3357
  874MOL0     C17857   4.409   4.461   0.762  0.3086  0.0429 -0.0581
  874MOL0     O17858   4.481   4.383   0.841  1.0281  0.6068 -0.5898
  874MOL0     C17859   4.617   4.379   0.825 -0.0251 -0.0166 -1.0587
  874MOL0     C17860   4.698   4.432   0.719 -0.4046 -0.1220  0.6918
  874MOL0     C17861   4.839   4.409   0.722 -0.1253  0.3062  1.0441
  874MOL0     C17862   4.902   4.337   0.828  0.9191  0.2367  0.2863
  874MOL0     O17863   5.041   4.331   0.800  0.6119  0.1749 -0.8190
  874MOL0     C17864   5.117   4.263   0.904 -0.6313  0.2032  0.9652
  874MOL0     C17865   5.260   4.266   0.854 -0.2649  0.5925  0.7547
  874MOL0     C17866   5.349   4.192   0.956 -0.3559  0.5630 -0.3913
  874MOL0     C17867   5.499   4.228   0.932 -0.0770 -0.5206 -0.0680
  874MOL0     C17868   5.597   4.136   1.005 -0.1477  0.3606 -0.9502
  874MOL0     C17869   5.722   4.212   1.060  0.5740 -0.2720 -0.5252
  874MOL0     C17870   5.848   4.129   1.075  0.4762 -0.9322 -0.2482
  874MOL0     C17871   5.851   4.055   1.205 -0.2363  0.2277 -0.2989
  874MOL0     N17872   5.976   3.974   1.223  0.1095 -0.5188  0.0007
  874MOL0     C17873   6.003   3.858   1.156  0.1708  0.5058 -0.5216
  874MOL0     C17874   6.134   3.839   1.190  0.3150 -0.2756 -1.3771
  874MOL0     C17875   6.194   3.708   1.149 -0.4912  0.3070  0.5577
  874MOL0     C17876   6.286   3.646   1.260 -0.9619  0.5519  0.7701
  874MOL0     C17877   6.334   3.509   1.218 -0.3652  0.4302 -0.0897
  874MOL0     C17878   6.403   3.522   1.083  0.4568  0.2252  0.0693
  874MOL0     O17879   6.457   3.389   1.066 -0.2185  0.3964  0.1158
  874MOL0     C17880   6.381   3.295   1.006  0.1131 -0.4931 -0.6532
  874MOL0     C17881   6.241   3.299   0.982  0.0646  0.4712 -0.5208
  874MOL0     C17882   6.171   3.187   0.923 -0.2054  0.3670  0.6929
  874MOL0     C17883   6.026   3.201   0.896 -0.1334  0.0476  0.3231
  874MOL0     C17884   6.250   3.068   0.891 -0.2707  0.0451 -0.5874
  874MOL0     C17885   6.186   2.945   0.839  0.6911 -0.1163 -0.0710
  874MOL0     O17886   6.236   2.822   0.880 -0.6520 -0.0316 -0.4378
  874MOL0     C17887   6.139   2.730   0.898 -1.2123  0.0398 -0.0345
  874MOL0     C17888   6.044   2.736   0.999 -0.2991  0.8632  0.5084
  874MOL0     C17889   5.946   2.631   1.014  0.0890 -0.0588 -0.9600
  874MOL0     C17890   5.938   2.524   0.926  1.0372 -0.5124 -0.5955
  874MOL0     O17891   5.837   2.427   0.932 -0.0989  0.2139 -0.4238
  874MOL0     C17892   5.723   2.463   0.849 -0.6981 -0.2710 -0.0182
  874MOL0     C17893   5.670   2.327   0.804 -0.4233  0.3089 -0.1928
  874MOL0     C17894   5.533   2.335   0.732 -0.9036  0.3146 -0.9985
  874MOL0     C17895   5.428   2.406   0.818 -0.0310 -0.0349 -0.1036
  874MOL0     C17896   5.282   2.358   0.778 -0.2451  0.4927  0.3410
  874MOL0     C17897   5.245   2.373   0.626  1.0918 -0.2732  0.6214
  874MOL0     C17898   5.188   2.251   0.568 -0.3198 -0.3214  0.2761
  874MOL0     C17899   5.057   2.206   0.618 -0.6058  0.4753 -0.7525
  874MOL0    Cl17900   4.971   2.079   0.532 -0.1334 -0.2362  0.2575
  874MOL0     C17901   6.045   2.513   0.838 -0.4843 -0.5157  0.1778
  874MOL0     C17902   6.144   2.613   0.814 -0.1490  0.5854  0.0353
  874MOL0     O17903   6.086   2.961   0.772 -0.4497  0.0609  0.3591
  874MOL0     C17904   6.385   3.060   0.942 -0.6972 -0.0283 -0.7461
  874MOL0     C17905   6.445   3.173   1.001 -0.8869  0.6261  0.2380
  874MOL0     N17906   6.174   3.926   1.283 -0.0801 -0.0730 -0.1375
  874MOL0     N17907   6.082   4.010   1.300 -0.2070 -0.5118  0.4392
  874MOL0     C17908   4.823   4.286   0.931 -0.5267 -0.3883  0.4107
  874MOL0     C17909   4.685   4.316   0.929 -1.1729  0.3357 -1.0052
  874MOL0     C17910   4.261   4.434   0.738 -1.1020 -0.0925 -0.4126
  874MOL0     C17911   4.207   4.327   0.811  0.1075  0.0209  0.1429
  874MOL0     C17912   4.071   4.288   0.798  0.7175  0.1483  0.5567
  874MOL0     C17913   3.998   4.334   0.687  0.2633 -0.9786  0.3655
  874MOL0     O17914   3.876   4.283   0.657 -0.1986  0.0408 -0.1677
  874MOL0     C17915   3.786   4.333   0.559  0.1044 -0.1220  0.0890
  874MOL0     C17916   3.672   4.236   0.521 -0.4537  0.7387 -0.0124
  874MOL0     C17917   3.569   4.224   0.629  0.0021 -0.5316  0.7656
  874MOL0     C17918   3.429   4.183   0.573 -0.0558 -0.2009  0.4369
  874MOL0     C17919   3.430   4.042   0.526 -0.0872 -0.1310  0.3272
  874MOL0     C17920   3.423   3.935   0.471 -0.4433  0.2792 -0.5595
  874MOL0     C17921   4.057   4.444   0.615  0.9954 -0.1201 -0.2440
  874MOL0     C17922   4.184   4.499   0.642  0.4804 -0.0658 -0.8354
  874MOL0     H17923   4.659   4.481   0.631 -1.7742 -2.1395  0.1110
  874MOL0     H17924   4.905   4.452   0.648 -0.4024  0.5432  0.9332
  874MOL0     H17925   5.111   4.324   0.995 -3.6704  1.8627 -0.2017
  874MOL0     H17926   5.088   4.163   0.935 -1.2154  0.5399  1.5381
  874MOL0     H17927   5.271   4.225   0.753  2.9933  1.6135  0.6021
  874MOL0     H17928   5.302   4.367   0.851 -0.9496  0.8771  0.4547
  874MOL0     H17929   5.312   4.212   1.056  1.8320 -1.3195  0.8809
  874MOL0     H17930   5.337   4.084   0.943 -4.6888  0.3939  2.9016
  874MOL0     H17931   5.524   4.225   0.825 -0.5175 -2.0428 -0.1555
  874MOL0     H17932   5.519   4.329   0.968  1.6510 -1.0183  0.4563
  874MOL0     H17933   5.548   4.084   1.088 -1.1900  1.3613 -0.9070
  874MOL0     H17934   5.626   4.061   0.931  0.5600 -0.0870 -0.2362
  874MOL0     H17935   5.740   4.295   0.990  1.1706 -0.7744 -0.9833
  874MOL0     H17936   5.700   4.253   1.158 -1.0023  1.7502 -1.6407
  874MOL0     H17937   5.853   4.057   0.992 -2.1281 -0.7606 -0.6381
  874MOL0     H17938   5.945   4.180   1.074  3.0526 -5.3303 -0.4738
  874MOL0     H17939   5.764   3.990   1.222 -1.2938  1.2958 -1.4069
  874MOL0     H17940   5.850   4.128   1.287  0.1217  2.4872 -2.2270
  874MOL0     H17941   5.930   3.815   1.088  0.8661 -0.7576 -0.5129
  874MOL0     H17942   6.114   3.640   1.119 -0.7297  1.6237 -2.0215
  874MOL0     H17943   6.251   3.730   1.059  0.7527 -0.9687  0.9945
  874MOL0     H17944   6.230   3.629   1.353  0.3594  1.1577  1.7029
  874MOL0     H17945   6.366   3.716   1.284 -0.0718 -0.1230 -0.1199
  874MOL0     H17946   6.246   3.444   1.220 -1.1437  1.4410  2.5032
  874MOL0     H17947   6.411   3.475   1.288 -0.9015  2.1305  1.4071
  874MOL0     H17948   6.489   3.590   1.087  0.9037 -0.1114 -2.3902
  874MOL0     H17949   6.330   3.536   1.003 -1.4264 -2.4417  1.1811
  874MOL0     H17950   6.189   3.389   1.012  0.3592  0.7493 -0.8405
  874MOL0     H17951   5.972   3.118   0.942 -0.8765  1.2935  1.7718
  874MOL0     H17952   5.972   3.291   0.925  0.0869  0.4998 -0.6278
  874MOL0     H17953   6.008   3.200   0.788  0.2572  2.7523  0.1713
  874MOL0     H17954   6.039   2.823   1.064 -0.2528 -0.6496  2.6290
  874MOL0     H17955   5.867   2.637   1.088 -0.8044  0.3547 -1.9287
  874MOL0     H17956   5.654   2.521   0.911  4.2106  3.7183  2.4344
  874MOL0     H17957   5.748   2.534   0.770 -1.4640 -0.3961 -0.3937
  874MOL0     H17958   5.741   2.283   0.734 -1.5359 -2.6823  0.4302
  874MOL0     H17959   5.654   2.267   0.895 -3.0856  1.1101 -0.0307
  874MOL0     H17960   5.508   2.231   0.706 -1.5070  0.1785  0.0329
  874MOL0     H17961   5.550   2.388   0.639  0.9569  1.2468 -0.1714
  874MOL0     H17962   5.425   2.381   0.925 -0.8118  1.6064  0.2891
  874MOL0     H17963   5.450   2.512   0.803  4.6540 -0.5700  1.4751
  874MOL0     H17964   5.203   2.401   0.839 -0.8367 -2.1153  1.5717
  874MOL0     H17965   5.278   2.252   0.805 -3.4047  0.5720  0.5837
  874MOL0     H17966   5.162   2.443   0.613 -0.1119 -1.8224 -0.2611
  874MOL0     H17967   5.328   2.415   0.569 -1.5298  0.4333 -2.9864
  874MOL0     H17968   5.269   2.181   0.589  0.3661  0.6162  0.8386
  874MOL0     H17969   5.176   2.268   0.461  1.2573 -0.0992  0.1174
  874MOL0     H17970   4.988   2.292   0.618 -1.4758 -0.2111 -0.8053
  874MOL0     H17971   5.063   2.186   0.725  1.2499 -2.2296 -1.2872
  874MOL0     H17972   6.037   2.421   0.780 -0.2840 -0.3423 -0.1300
  874MOL0     H17973   6.218   2.596   0.736 -1.1264 -2.2279 -0.3961
  874MOL0     H17974   6.438   2.966   0.943  0.5210  0.5926 -2.3555
  874MOL0     H17975   6.547   3.164   1.037 -1.1887  2.4017  1.6691
  874MOL0     H17976   4.858   4.225   1.013 -1.9649 -1.9302 -0.0590
  874MOL0     H17977   4.617   4.269   1.000 -1.7969  1.8167 -0.5825
  874MOL0     H17978   4.260   4.271   0.888  0.0135  0.4950  0.5550
  874MOL0     H17979   4.031   4.214   0.866 -3.1905  0.5884 -0.9385
  874MOL0     H17980   3.740   4.422   0.602 -1.0482 -1.0829  0.9589
  874MOL0     H17981   3.838   4.364   0.469  0.6842 -3.5839 -0.9411
  874MOL0     H17982   3.701   4.136   0.489 -2.5150 -0.2310  0.9382
  874MOL0     H17983   3.625   4.275   0.430 -0.6682 -1.9726 -1.1596
  874MOL0     H17984   3.549   4.310   0.693 -1.8343 -1.0665  0.9792
  874MOL0     H17985   3.590   4.146   0.703 -0.0853 -1.9579 -0.6341
  874MOL0     H17986   3.415   4.247   0.485 -0.4170 -1.2833 -0.3067
  874MOL0     H17987   3.353   4.193   0.651  2.4584  3.2547  2.7463
  874MOL0     H17988   3.425   3.832   0.440 -1.6886  0.7512 -2.3976
  874MOL0     H17989   3.986   4.487   0.545 -2.5329 -0.7575  2.6432
  874MOL0     H17990   4.229   4.572   0.576  2.0052 -0.3179 -0.1217
  875MOL0     O17991   2.201   7.503   3.208 -0.0672 -0.5430  0.5167
  875MOL0     C17992   2.260   7.410   3.153 -0.3295  0.2968 -0.2848
  875MOL0     O17993   2.203   7.320   3.062  0.8748  0.2264  0.4379
  875MOL0     C17994   2.073   7.316   3.041 -0.2354  0.5357 -0.6079
  875MOL0     C17995   2.035   7.329   2.905  0.2676 -0.7772  0.0708
  875MOL0     C17996   1.899   7.342   2.880  0.2925 -0.4276  0.8175
  875MOL0     C17997   1.807   7.325   2.983 -0.2942 -0.1003 -0.3743
  875MOL0     O17998   1.665   7.313   2.966  0.2495  0.0172 -0.0134
  875MOL0     C17999   1.626   7.255   2.840  0.7674  0.2260  0.6565
  875MOL0     C18000   1.478   7.211   2.838 -0.8926  0.7655 -0.3193
  875MOL0     C18001   1.391   7.342   2.841 -0.1513  0.3929  1.0125
  875MOL0     C18002   1.243   7.305   2.866 -1.5263  0.3739  0.2166
  875MOL0     C18003   1.182   7.218   2.759  0.0794  0.5411  0.2911
  875MOL0     C18004   1.168   7.285   2.626 -0.7127  1.2725  0.4558
  875MOL0     C18005   1.105   7.186   2.535  0.3775  0.1856  0.8538
  875MOL0     C18006   0.968   7.128   2.562  0.2600 -0.5185 -1.4247
  875MOL0     N18007   0.872   7.218   2.617  1.1075  0.4978  0.4968
  875MOL0     C18008   0.800   7.305   2.542  0.4580 -0.4320 -0.1778
  875MOL0     C18009   0.733   7.373   2.643  0.8247  0.0744  0.1132
  875MOL0     C18010   0.672   7.513   2.650  0.3770 -0.4970  0.0189
  875MOL0     C18011   0.513   7.508   2.626 -0.8124 -0.1544  0.1622
  875MOL0     C18012   0.449   7.457   2.752  0.0699  0.6967 -0.3758
  875MOL0     C18013   0.302   7.443   2.733  0.3239 -0.3419 -0.2880
  875MOL0     O18014   0.232   7.558   2.696  0.3258 -0.0239 -0.0888
  875MOL0     C18015   0.091   7.567   2.660 -0.7989 -0.5065 -0.2335
  875MOL0     C18016   0.043   7.689   2.616  0.4326 -0.7327  0.0834
  875MOL0     C18017  -0.091   7.706   2.575  0.1910  0.2728  0.5328
  875MOL0     C18018  -0.132   7.842   2.511  0.5932  0.9962 -0.4309
  875MOL0     C18019  -0.184   7.597   2.586  0.4694  0.3653  0.1035
  875MOL0     C18020  -0.332   7.596   2.560 -0.3482  0.1676 -0.3364
  875MOL0     O18021  -0.388   7.472   2.545  0.2691 -0.1379 -0.1553
  875MOL0     C18022  -0.528   7.472   2.550 -0.0764  0.3640 -0.4869
  875MOL0     C18023  -0.588   7.435   2.671  0.9964 -0.1106 -0.4844
  875MOL0     C18024  -0.723   7.428   2.672 -0.1403  0.4366  0.0182
  875MOL0     C18025  -0.811   7.463   2.569 -0.7993  0.3877  0.3468
  875MOL0     O18026  -0.938   7.427   2.597  1.3109 -0.0145 -0.0694
  875MOL0     C18027  -1.042   7.497   2.526  0.3139  0.4017  0.1527
  875MOL0     C18028  -1.182   7.431   2.554  0.0376 -1.1535  0.3838
  875MOL0     C18029  -1.285   7.516   2.468 -0.4853  1.2556 -0.3832
  875MOL0     C18030  -1.426   7.462   2.478  0.1506  0.7674 -0.0977
  875MOL0     C18031  -1.521   7.556   2.417  1.2819 -1.7408  1.0537
  875MOL0     C18032  -1.671   7.523   2.433 -0.1791 -0.1580  0.4559
  875MOL0     C18033  -1.753   7.640   2.378  0.6083  0.3697 -0.0788
  875MOL0     C18034  -1.906   7.619   2.404  0.0446 -0.4439 -0.2664
  875MOL0    Cl18035  -1.996   7.756   2.321 -0.3395  0.3031 -0.1305
  875MOL0     C18036  -0.760   7.511   2.455  0.8098  0.1279 -0.2602
  875MOL0     C18037  -0.619   7.510   2.440 -0.7769  0.9407 -0.5439
  875MOL0     O18038  -0.398   7.706   2.561  0.5070  1.0989 -1.2986
  875MOL0     C18039  -0.127   7.471   2.633 -0.0740 -0.8508  0.3516
  875MOL0     C18040   0.012   7.455   2.668  0.0945 -0.8748 -1.0877
  875MOL0     N18041   0.744   7.312   2.763 -0.4022  0.7359  0.2263
  875MOL0     N18042   0.830   7.217   2.746 -0.1854  1.2183 -0.6463
  875MOL0     C18043   1.845   7.301   3.117  0.1127 -0.6580 -0.0614
  875MOL0     C18044   1.977   7.320   3.147  0.0296 -0.2578  0.3525
  875MOL0     C18045   2.407   7.391   3.173  0.1826  0.1333 -0.8833
  875MOL0     C18046   2.484   7.310   3.091  0.3587  1.1663 -0.1944
  875MOL0     C18047   2.620   7.291   3.119 -0.9312  0.2244  0.9728
  875MOL0     C18048   2.692   7.369   3.209  0.1629 -0.1739 -0.4882
  875MOL0     O18049   2.830   7.374   3.211 -0.4826 -0.0735 -0.6841
  875MOL0     C18050   2.919   7.263   3.176  0.1628 -0.4980 -0.3795
  875MOL0     C18051   3.060   7.322   3.188  0.3569  0.3075  0.8994
  875MOL0     C18052   3.093   7.330   3.335 -0.6550 -0.2805  0.5656
  875MOL0     C18053   3.245   7.379   3.347  0.2353 -0.3643 -0.7076
  875MOL0     C18054   3.341   7.272   3.335  1.1222 -0.5747  0.1971
  875MOL0     C18055   3.417   7.183   3.326  0.7442  0.3788  0.3633
  875MOL0     C18056   2.610   7.455   3.283  0.0222 -0.1585  0.0596
  875MOL0     C18057   2.473   7.471   3.265  0.3819  0.2106 -0.4510
  875MOL0     H18058   2.108   7.335   2.825 -2.0804 -2.7864 -2.3963
  875MOL0     H18059   1.874   7.367   2.777  2.0740 -0.5659  0.3227
  875MOL0     H18060   1.636   7.334   2.765 -1.1786 -1.0583 -1.0572
  875MOL0     H18061   1.687   7.167   2.820  1.0688  0.7135 -0.6279
  875MOL0     H18062   1.452   7.158   2.746  1.0491 -3.8282  1.5036
  875MOL0     H18063   1.449   7.145   2.920  0.1740  1.3338  0.5383
  875MOL0     H18064   1.442   7.409   2.910  1.2230 -0.0551  0.4591
  875MOL0     H18065   1.393   7.378   2.738  2.1943 -5.8276 -1.5611
  875MOL0     H18066   1.239   7.248   2.959  1.3334 -0.8745 -0.3232
  875MOL0     H18067   1.183   7.396   2.872  0.7752  1.8965  2.0186
  875MOL0     H18068   1.234   7.123   2.757 -1.4002 -0.3455  1.5445
  875MOL0     H18069   1.085   7.187   2.799 -0.6507  2.0069 -0.2611
  875MOL0     H18070   1.107   7.376   2.631 -1.8523  0.5333  0.3670
  875MOL0     H18071   1.260   7.323   2.581 -1.1073 -0.5940 -2.1475
  875MOL0     H18072   1.089   7.250   2.447 -2.2004  0.1596  1.2358
  875MOL0     H18073   1.180   7.110   2.512 -0.1930  0.5921 -2.9309
  875MOL0     H18074   0.995   7.052   2.636  1.3418 -0.6176 -1.8925
  875MOL0     H18075   0.934   7.062   2.482  1.7524 -1.3475 -1.4080
  875MOL0     H18076   0.828   7.345   2.445  4.0171 -0.2355  0.7868
  875MOL0     H18077   0.706   7.548   2.748 -1.3065  3.2327 -0.5798
  875MOL0     H18078   0.714   7.583   2.577 -1.6083  2.9581  1.9019
  875MOL0     H18079   0.497   7.434   2.547  1.9856 -1.7884  0.9741
  875MOL0     H18080   0.475   7.610   2.615 -0.8178 -0.4172 -3.4003
  875MOL0     H18081   0.459   7.539   2.824  0.2585 -0.2969  0.7608
  875MOL0     H18082   0.493   7.366   2.793  0.3841  0.8143 -0.4556
  875MOL0     H18083   0.249   7.413   2.824  0.5184  0.3538  0.0633
  875MOL0     H18084   0.278   7.370   2.655 -4.0120  1.6140 -1.0742
  875MOL0     H18085   0.105   7.775   2.640 -1.7774  0.9328  0.1638
  875MOL0     H18086  -0.087   7.839   2.412  0.2973  0.2046 -0.5525
  875MOL0     H18087  -0.240   7.859   2.511  0.1424 -1.4637 -0.7539
  875MOL0     H18088  -0.090   7.911   2.585  1.2127  1.9169 -1.6217
  875MOL0     H18089  -0.532   7.424   2.763  2.2894 -1.6467 -1.4067
  875MOL0     H18090  -0.773   7.397   2.763  0.8935  1.1753  0.8602
  875MOL0     H18091  -1.042   7.603   2.552  1.1965  0.4771 -0.1402
  875MOL0     H18092  -1.029   7.506   2.418  2.4985  2.7975  0.5383
  875MOL0     H18093  -1.177   7.325   2.529  1.0683 -0.8024 -1.0365
  875MOL0     H18094  -1.204   7.441   2.661 -1.9566 -1.1186  0.0059
  875MOL0     H18095  -1.251   7.503   2.365 -1.4862 -2.8494 -0.3895
  875MOL0     H18096  -1.276   7.620   2.500  5.2108  0.5755  1.3469
  875MOL0     H18097  -1.422   7.363   2.432 -3.1625 -0.0705  1.1205
  875MOL0     H18098  -1.454   7.454   2.584 -1.5765  0.2462 -0.5659
  875MOL0     H18099  -1.508   7.555   2.308 -2.0225 -2.3805  0.5352
  875MOL0     H18100  -1.489   7.652   2.458  0.4581 -0.2098 -1.5860
  875MOL0     H18101  -1.698   7.426   2.392 -0.8725  0.2898 -0.1719
  875MOL0     H18102  -1.697   7.517   2.539 -3.5841  2.3945 -0.0662
  875MOL0     H18103  -1.749   7.663   2.271 -3.6836  1.4672 -0.2109
  875MOL0     H18104  -1.726   7.728   2.437  2.4607 -0.2959  0.1336
  875MOL0     H18105  -1.928   7.606   2.510  2.7901 -2.3696  0.1953
  875MOL0     H18106  -1.939   7.529   2.351 -1.8306 -0.8553  1.5012
  875MOL0     H18107  -0.819   7.552   2.374  0.1550  2.2416  1.2082
  875MOL0     H18108  -0.573   7.525   2.343  0.5200  0.7773  0.0150
  875MOL0     H18109  -0.189   7.384   2.648 -3.7248  1.3551 -0.6447
  875MOL0     H18110   0.053   7.361   2.701  0.9837  0.1077  0.7760
  875MOL0     H18111   1.780   7.292   3.204  1.3675 -1.3425  0.8466
  875MOL0     H18112   2.006   7.320   3.252 -1.4336  0.4320  0.7902
  875MOL0     H18113   2.441   7.256   3.007  0.3647  1.8291 -0.6327
  875MOL0     H18114   2.679   7.227   3.054  0.0515  0.9843  1.0850
  875MOL0     H18115   2.920   7.173   3.238 -0.9595 -0.6943 -0.6132
  875MOL0     H18116   2.904   7.233   3.072  4.5982 -1.6418 -0.8494
  875MOL0     H18117   3.069   7.419   3.137  3.1580 -0.4819 -0.3083
  875MOL0     H18118   3.120   7.251   3.131  1.1098  0.1556  1.8622
  875MOL0     H18119   3.086   7.232   3.383  1.1295 -1.0822 -0.7141
  875MOL0     H18120   3.027   7.408   3.376  2.1969  2.2841  0.6314
  875MOL0     H18121   3.267   7.431   3.440 -0.3973  2.7587 -2.1627
  875MOL0     H18122   3.263   7.462   3.277  1.5002  0.2182  0.2666
  875MOL0     H18123   3.481   7.098   3.318  0.2178  0.0150 -0.0714
  875MOL0     H18124   2.657   7.514   3.361  1.0638 -1.8622  0.7794
  875MOL0     H18125   2.435   7.548   3.331 -1.4441 -1.6235  0.7833
  876MOL0     O18126   6.086   8.170   0.763 -0.4635 -0.0935 -0.0762
  876MOL0     C18127   6.176   8.109   0.709  0.1066  0.1010 -0.6948
  876MOL0     O18128   6.153   8.016   0.623 -0.4079  0.1662  0.2243
  876MOL0     C18129   6.033   7.995   0.566 -0.0557 -1.2346  0.6549
  876MOL0     C18130   5.919   7.965   0.644  0.3752  0.1408 -0.3011
  876MOL0     C18131   5.805   7.904   0.584 -0.3985 -0.1156 -0.8848
  876MOL0     C18132   5.795   7.885   0.445  0.0951  0.2997  0.6363
  876MOL0     O18133   5.692   7.828   0.368 -0.2159  0.4477  0.2608
  876MOL0     C18134   5.562   7.853   0.431 -0.1753  0.2592  0.6352
  876MOL0     C18135   5.444   7.796   0.360 -0.0344  0.6419  0.1835
  876MOL0     C18136   5.438   7.854   0.221  0.3763 -0.3774  0.6915
  876MOL0     C18137   5.351   7.987   0.221  0.3726 -0.3453  0.5649
  876MOL0     C18138   5.316   8.036   0.079  0.7801 -0.0704  0.3103
  876MOL0     C18139   5.426   8.131   0.023  0.4009  0.3734  0.4947
  876MOL0     C18140   5.382   8.197  -0.111  0.2320 -0.4303 -0.8147
  876MOL0     C18141   5.457   8.331  -0.130 -0.0777 -0.0647  0.1116
  876MOL0     N18142   5.429   8.384  -0.265  0.1886 -0.3222 -0.0593
  876MOL0     C18143   5.305   8.433  -0.307  0.2526  0.1534 -0.2467
  876MOL0     C18144   5.311   8.429  -0.437 -0.0096 -0.0833  1.0746
  876MOL0     C18145   5.210   8.461  -0.547  0.2005  0.0063 -0.0943
  876MOL0     C18146   5.067   8.423  -0.502 -0.1265 -0.2511  0.0055
  876MOL0     C18147   4.962   8.490  -0.604  0.0499  0.2990  0.0872
  876MOL0     C18148   4.816   8.445  -0.576 -0.2087  0.6113  0.2176
  876MOL0     O18149   4.764   8.499  -0.457  0.0285  0.3777 -0.4022
  876MOL0     C18150   4.664   8.436  -0.383 -0.4667 -0.5790  1.0950
  876MOL0     C18151   4.607   8.503  -0.279  0.0978 -0.5596 -0.4602
  876MOL0     C18152   4.508   8.453  -0.197  0.0660  0.9980 -0.5612
  876MOL0     C18153   4.477   8.540  -0.077  0.2527  0.1074  0.4904
  876MOL0     C18154   4.452   8.323  -0.234 -0.6261 -0.7314 -0.0041
  876MOL0     C18155   4.337   8.267  -0.154  1.2503  0.0831 -0.4534
  876MOL0     O18156   4.275   8.344  -0.061 -0.0242 -0.8144 -0.0415
  876MOL0     C18157   4.162   8.304   0.006 -1.7834 -0.2468 -0.6266
  876MOL0     C18158   4.067   8.401   0.039 -1.0847  0.0123 -0.0659
  876MOL0     C18159   3.956   8.371   0.120 -1.0104  0.5771  0.0620
  876MOL0     C18160   3.932   8.236   0.155 -1.2644 -0.6614 -0.7627
  876MOL0     O18161   3.839   8.192   0.244  0.1642  0.1755 -0.3208
  876MOL0     C18162   3.710   8.253   0.226  0.2976  0.6412 -0.2562
  876MOL0     C18163   3.614   8.189   0.321  0.8209  0.1966 -0.8068
  876MOL0     C18164   3.463   8.217   0.298  0.1626 -0.0620 -0.1962
  876MOL0     C18165   3.379   8.211   0.425  0.7918 -0.8535 -0.5282
  876MOL0     C18166   3.233   8.237   0.405  0.5549 -0.6702 -0.3990
  876MOL0     C18167   3.192   8.380   0.356 -0.1318  0.4524 -0.1275
  876MOL0     C18168   3.037   8.377   0.337  0.7490 -0.5922 -0.0896
  876MOL0     C18169   2.964   8.516   0.322 -0.4902 -0.4245  0.0665
  876MOL0    Cl18170   2.798   8.471   0.254 -0.0893 -0.6943 -0.1387
  876MOL0     C18171   4.029   8.137   0.131  0.2253 -0.4346 -0.2754
  876MOL0     C18172   4.145   8.176   0.057  0.3950  0.7580  0.5066
  876MOL0     O18173   4.310   8.151  -0.177  0.4474 -0.4303 -0.0705
  876MOL0     C18174   4.501   8.263  -0.353 -0.0292  1.1059 -0.1083
  876MOL0     C18175   4.604   8.314  -0.421  0.5785 -0.4853 -0.2498
  876MOL0     N18176   5.438   8.392  -0.484  0.0247  1.4075 -0.8284
  876MOL0     N18177   5.507   8.367  -0.378  0.4395 -0.1823 -1.1444
  876MOL0     C18178   5.915   7.924   0.372 -0.4700 -0.1096  0.9032
  876MOL0     C18179   6.029   7.981   0.429  0.4368 -0.4498 -0.7932
  876MOL0     C18180   6.322   8.142   0.714  0.4193  0.5997 -0.9485
  876MOL0     C18181   6.424   8.044   0.666 -0.2946 -0.0249 -0.3256
  876MOL0     C18182   6.557   8.078   0.672 -0.2774  0.0607 -0.4595
  876MOL0     C18183   6.586   8.208   0.706  0.6730  0.5659  0.5303
  876MOL0     O18184   6.719   8.240   0.703  0.1779  0.0035 -0.3990
  876MOL0     C18185   6.767   8.318   0.817 -0.7162  0.3490  0.2913
  876MOL0     C18186   6.920   8.320   0.823 -0.3641  1.1601 -0.7219
  876MOL0     C18187   6.973   8.188   0.878 -0.8292 -0.0080  0.0941
  876MOL0     C18188   7.121   8.204   0.919  0.3812 -0.4091 -0.1595
  876MOL0     C18189   7.187   8.073   0.905 -0.0546  0.5253  0.3207
  876MOL0     C18190   7.240   7.962   0.914  0.6574  0.3329 -0.1124
  876MOL0     C18191   6.490   8.305   0.754 -1.4852 -0.2893 -0.1976
  876MOL0     C18192   6.359   8.267   0.764 -0.1267 -0.0851 -0.5753
  876MOL0     H18193   5.924   7.964   0.752  1.5143  0.8402 -0.3248
  876MOL0     H18194   5.730   7.862   0.650 -1.0056 -0.1053 -1.5606
  876MOL0     H18195   5.547   7.809   0.530  3.0660 -0.9444  0.6992
  876MOL0     H18196   5.543   7.960   0.444  1.0070  0.5254  0.2963
  876MOL0     H18197   5.468   7.691   0.341  2.0482  1.1634 -0.3413
  876MOL0     H18198   5.354   7.799   0.423  0.0085 -0.0992  0.2825
  876MOL0     H18199   5.534   7.872   0.171  1.0685 -1.3660  1.6259
  876MOL0     H18200   5.380   7.786   0.159 -1.0420  0.9759  0.4845
  876MOL0     H18201   5.255   7.957   0.264  1.4893 -3.2915  1.2384
  876MOL0     H18202   5.406   8.066   0.273 -0.3731  2.7315 -2.8727
  876MOL0     H18203   5.292   7.954   0.011  1.2071 -0.0856  0.1721
  876MOL0     H18204   5.224   8.095   0.083  1.7437  1.6711 -1.4737
  876MOL0     H18205   5.451   8.205   0.100 -2.3782 -1.1762  3.1034
  876MOL0     H18206   5.513   8.067   0.006 -0.5013 -0.1962 -2.5309
  876MOL0     H18207   5.392   8.130  -0.196 -1.9302 -1.0147 -0.6751
  876MOL0     H18208   5.277   8.226  -0.101  0.2481 -0.9990  1.8999
  876MOL0     H18209   5.565   8.313  -0.129  0.0858  0.4366 -2.4162
  876MOL0     H18210   5.435   8.395  -0.044  1.2867  0.6822 -0.0738
  876MOL0     H18211   5.219   8.451  -0.243 -1.7878 -0.0725 -2.7574
  876MOL0     H18212   5.222   8.565  -0.579  4.5091 -0.9107 -2.2748
  876MOL0     H18213   5.231   8.402  -0.636 -0.3003 -2.5865  1.3968
  876MOL0     H18214   5.051   8.475  -0.407 -0.3772 -0.5018  0.1018
  876MOL0     H18215   5.061   8.314  -0.492  0.9946 -0.2912  0.3122
  876MOL0     H18216   4.986   8.459  -0.706  1.3906  1.0450  0.1653
  876MOL0     H18217   4.982   8.597  -0.591 -0.2390  0.2616  0.9060
  876MOL0     H18218   4.802   8.337  -0.576 -0.8414  0.6905 -0.1759
  876MOL0     H18219   4.751   8.472  -0.659 -2.0682  3.3874  2.4056
  876MOL0     H18220   4.651   8.600  -0.261 -0.7559 -0.0201 -1.2076
  876MOL0     H18221   4.490   8.480   0.013  1.6981 -1.0954 -0.4811
  876MOL0     H18222   4.532   8.634  -0.082  0.5987  0.2313  4.0480
  876MOL0     H18223   4.373   8.573  -0.086 -0.1448 -0.2715  2.8921
  876MOL0     H18224   4.079   8.506   0.011  2.5615  1.0682  4.3124
  876MOL0     H18225   3.889   8.449   0.154 -1.3433  1.0388 -1.5552
  876MOL0     H18226   3.731   8.359   0.245 -0.0322  0.5921  0.3866
  876MOL0     H18227   3.671   8.238   0.125  0.3376 -1.4172 -0.0068
  876MOL0     H18228   3.620   8.080   0.313  0.8019  0.1187  0.1317
  876MOL0     H18229   3.645   8.214   0.423  0.3332  0.4348 -0.7137
  876MOL0     H18230   3.430   8.153   0.216  0.5909  2.2692 -2.3324
  876MOL0     H18231   3.440   8.321   0.271  1.2300  1.1787  3.1908
  876MOL0     H18232   3.397   8.113   0.471  0.3997 -0.1759  1.1572
  876MOL0     H18233   3.418   8.282   0.498 -0.4163  0.1489 -0.8342
  876MOL0     H18234   3.184   8.213   0.499  4.5614 -2.7277  1.4458
  876MOL0     H18235   3.192   8.166   0.332 -2.8092  0.7008  0.0128
  876MOL0     H18236   3.209   8.447   0.441 -2.0011  2.3774 -1.1617
  876MOL0     H18237   3.239   8.409   0.261 -0.7295  1.1426 -0.2308
  876MOL0     H18238   2.993   8.316   0.417 -0.4779  2.4822  1.7318
  876MOL0     H18239   3.025   8.330   0.239  0.4483 -0.8441  0.0654
  876MOL0     H18240   3.025   8.579   0.256  0.5175 -0.5395  0.8552
  876MOL0     H18241   2.961   8.566   0.419  0.0151  1.2658 -0.7385
  876MOL0     H18242   4.021   8.035   0.165  1.1094  0.3394  2.4755
  876MOL0     H18243   4.213   8.094   0.039  1.3856  1.8305 -0.9119
  876MOL0     H18244   4.453   8.174  -0.391 -1.0748  1.9485 -0.8507
  876MOL0     H18245   4.638   8.256  -0.506  1.5004  0.5705 -0.6256
  876MOL0     H18246   5.900   7.914   0.265  0.9765  0.3187  0.6501
  876MOL0     H18247   6.115   8.005   0.367  1.0246 -0.4257  0.0149
  876MOL0     H18248   6.398   7.945   0.628 -1.9643  0.1170  0.3794
  876MOL0     H18249   6.628   8.006   0.633  0.7687  0.7351  0.1754
  876MOL0     H18250   6.733   8.421   0.798 -2.1778 -0.6245 -2.9921
  876MOL0     H18251   6.732   8.288   0.916 -1.5576 -1.8049 -0.6096
  876MOL0     H18252   6.950   8.394   0.897  0.4726 -1.4431  1.7251
  876MOL0     H18253   6.974   8.327   0.728  1.4617 -0.7929  0.0967
  876MOL0     H18254   6.945   8.104   0.813 -2.5780 -0.5492  1.4582
  876MOL0     H18255   6.920   8.171   0.972 -1.3147  1.1090  0.0429
  876MOL0     H18256   7.137   8.254   1.015 -0.7462 -0.0072 -0.1683
  876MOL0     H18257   7.172   8.269   0.846  1.4743  0.3487  1.2196
  876MOL0     H18258   7.306   7.878   0.919 -0.5754 -0.5891  1.6401
  876MOL0     H18259   6.525   8.404   0.779 -1.9532 -0.4355  1.1295
  876MOL0     H18260   6.283   8.340   0.791 -1.2057 -0.4907 -2.3488
  877MOL0     O18261  10.285  10.892   6.683  0.7746  0.3138 -0.6277
  877MOL0     C18262  10.270  10.975   6.598 -0.3495 -0.0936 -0.4709
  877MOL0     O18263  10.356  10.996   6.494  0.1828 -0.3189 -0.0581
  877MOL0     C18264  10.490  10.965   6.498  1.0678 -0.0069 -0.0540
  877MOL0     C18265  10.556  10.882   6.595 -0.3874 -0.4416  0.3176
  877MOL0     C18266  10.692  10.858   6.602  0.2310 -0.2074 -0.0819
  877MOL0     C18267  10.771  10.911   6.493  0.2316  0.0333 -0.1275
  877MOL0     O18268  10.910  10.884   6.504  0.7556  0.1310 -0.5816
  877MOL0     C18269  10.974  10.822   6.382  1.0291 -0.6036 -0.0733
  877MOL0     C18270  11.068  10.715   6.426  0.7684 -0.9194 -0.7146
  877MOL0     C18271  11.144  10.634   6.321  0.7279  0.1736  0.4410
  877MOL0     C18272  11.057  10.534   6.245 -0.5507 -0.1562 -0.4491
  877MOL0     C18273  11.145  10.446   6.152 -0.7903 -0.3748  0.3287
  877MOL0     C18274  11.055  10.354   6.071  0.2275  0.1810  0.2137
  877MOL0     C18275  11.021  10.418   5.935  0.5119  0.2922  0.4663
  877MOL0     C18276  10.907  10.349   5.863  0.5915  0.4217  0.3625
  877MOL0     N18277  10.891  10.406   5.725 -0.5379 -0.7961 -0.2620
  877MOL0     C18278  10.798  10.500   5.687  0.3645 -0.0583 -0.7748
  877MOL0     C18279  10.824  10.527   5.555 -0.5495  0.4148  0.0258
  877MOL0     C18280  10.729  10.594   5.458  0.0227 -0.4240 -0.2128
  877MOL0     C18281  10.682  10.489   5.353 -0.2383 -0.2913  1.2232
  877MOL0     C18282  10.580  10.544   5.247 -0.1605  0.3795 -0.1798
  877MOL0     C18283  10.453  10.617   5.287 -0.2168 -0.9626 -0.3527
  877MOL0     O18284  10.493  10.756   5.274 -0.8246 -0.2606 -0.0500
  877MOL0     C18285  10.410  10.850   5.316  0.2249  0.5372  0.5397
  877MOL0     C18286  10.466  10.964   5.372  0.5479 -0.5175 -0.2318
  877MOL0     C18287  10.389  11.067   5.438  0.5202  0.5694  0.3765
  877MOL0     C18288  10.458  11.179   5.486 -0.7417  0.5598  1.0329
  877MOL0     C18289  10.247  11.059   5.448 -0.2539 -0.5542 -0.8215
  877MOL0     C18290  10.154  11.148   5.522  0.4438  0.1771 -0.3768
  877MOL0     O18291  10.030  11.103   5.559 -0.4299  0.2344  0.4023
  877MOL0     C18292   9.931  11.178   5.602  0.9226  0.2654 -0.2306
  877MOL0     C18293   9.917  11.309   5.553 -0.2892 -0.9359  0.0406
  877MOL0     C18294   9.812  11.384   5.594  0.1987 -1.0607 -0.0245
  877MOL0     C18295   9.718  11.334   5.676  0.1334 -0.9495 -0.0280
  877MOL0     O18296   9.599  11.395   5.703 -0.6338 -0.3185 -0.1493
  877MOL0     C18297   9.603  11.472   5.824  0.4152 -0.5261 -0.3423
  877MOL0     C18298   9.460  11.520   5.851  1.1560  0.3958 -0.9631
  877MOL0     C18299   9.381  11.427   5.943 -0.3863  0.5254 -0.1790
  877MOL0     C18300   9.236  11.394   5.888 -1.1652 -0.0990 -0.1949
  877MOL0     C18301   9.147  11.518   5.886  0.1843  0.8352 -0.2323
  877MOL0     C18302   8.996  11.490   5.870  0.4426 -0.2254  0.4676
  877MOL0     C18303   8.919  11.453   5.999  0.5667  0.5258 -0.7621
  877MOL0     C18304   8.780  11.403   5.951  0.2098  0.7981 -0.2924
  877MOL0    Cl18305   8.695  11.355   6.102 -0.0349  0.1704  0.2184
  877MOL0     C18306   9.725  11.206   5.725 -0.4772  0.5783 -0.2735
  877MOL0     C18307   9.838  11.129   5.690 -0.2558  0.2956  0.0079
  877MOL0     O18308  10.196  11.255   5.565 -0.0243 -0.5797  0.0676
  877MOL0     C18309  10.197  10.944   5.390  0.4722  0.5120  0.2152
  877MOL0     C18310  10.271  10.838   5.323  0.2290 -0.9462 -0.6240
  877MOL0     N18311  10.944  10.460   5.524  0.3345  0.2658 -0.4765
  877MOL0     N18312  10.981  10.395   5.628 -0.1845  1.4152  0.3637
  877MOL0     C18313  10.705  10.978   6.384  0.5648 -0.2057 -0.8573
  877MOL0     C18314  10.566  11.005   6.391  0.2965  0.0067 -1.1344
  877MOL0     C18315  10.153  11.066   6.603 -0.0295  0.6555  0.0735
  877MOL0     C18316  10.032  11.035   6.677 -0.0869  0.0681  0.1949
  877MOL0     C18317   9.931  11.131   6.694  0.4649 -0.2590  0.8902
  877MOL0     C18318   9.934  11.249   6.628 -0.6284 -0.2427  0.4482
  877MOL0     O18319   9.820  11.313   6.632 -0.3351 -0.0459  0.0327
  877MOL0     C18320   9.803  11.423   6.533  0.5420 -0.7045 -0.0783
  877MOL0     C18321   9.656  11.472   6.531 -0.4106  0.4165 -0.2549
  877MOL0     C18322   9.617  11.518   6.664  0.5202 -0.3674 -0.2767
  877MOL0     C18323   9.503  11.617   6.642  0.2096 -0.3563  0.5679
  877MOL0     C18324   9.434  11.646   6.771  0.3861 -0.0717 -0.3009
  877MOL0     C18325   9.364  11.661   6.870 -0.0511 -0.4463 -0.6022
  877MOL0     C18326  10.049  11.280   6.549  1.0454 -0.6688  0.3139
  877MOL0     C18327  10.157  11.196   6.544  0.4440  0.7193 -0.3944
  877MOL0     H18328  10.518  10.838   6.687  2.5568  0.9379  2.3395
  877MOL0     H18329  10.734  10.802   6.685  1.7265  1.8067  0.6090
  877MOL0     H18330  10.896  10.772   6.323  0.2147  0.6743 -0.1244
  877MOL0     H18331  11.017  10.893   6.312 -0.4589  0.1800 -0.2414
  877MOL0     H18332  11.146  10.757   6.490  0.1398 -0.0079 -0.5355
  877MOL0     H18333  10.998  10.650   6.478 -1.2392  0.1965 -1.9197
  877MOL0     H18334  11.200  10.695   6.250  0.5721 -1.5311 -1.2329
  877MOL0     H18335  11.226  10.587   6.376 -1.2782 -0.7707  2.8304
  877MOL0     H18336  10.989  10.479   6.310  0.4635 -2.1504 -1.0197
  877MOL0     H18337  11.000  10.601   6.180  0.4652  1.4019  0.1943
  877MOL0     H18338  11.219  10.493   6.086 -2.6243  1.2926 -0.6330
  877MOL0     H18339  11.203  10.380   6.217 -1.4328 -0.5937  0.6902
  877MOL0     H18340  11.119  10.269   6.048  1.8148  1.7922 -1.7471
  877MOL0     H18341  10.967  10.321   6.127 -0.6993 -0.4795 -1.5408
  877MOL0     H18342  10.997  10.524   5.950  1.0037  1.4092 -4.6162
  877MOL0     H18343  11.108  10.417   5.869 -0.0872 -0.2035 -0.3320
  877MOL0     H18344  10.817  10.352   5.925  2.2712 -4.2902  3.6170
  877MOL0     H18345  10.919  10.241   5.852 -1.7385  0.2128 -0.6001
  877MOL0     H18346  10.711  10.525   5.746  1.8578  1.7300  0.8317
  877MOL0     H18347  10.642  10.644   5.501 -0.3574  0.6992 -2.1532
  877MOL0     H18348  10.778  10.677   5.405 -1.4301 -0.0788 -1.0538
  877MOL0     H18349  10.635  10.408   5.410  0.4805 -0.6952  1.2486
  877MOL0     H18350  10.770  10.464   5.293 -0.6899  0.8418  0.0327
  877MOL0     H18351  10.551  10.451   5.197  2.5104 -0.7091  0.1414
  877MOL0     H18352  10.624  10.603   5.165 -3.1772  0.8981 -1.5592
  877MOL0     H18353  10.414  10.588   5.385  1.3205  0.8287  0.8466
  877MOL0     H18354  10.371  10.607   5.214 -0.6650  1.4427 -0.2382
  877MOL0     H18355  10.574  10.970   5.361  0.7162 -0.2926  1.3187
  877MOL0     H18356  10.565  11.162   5.472 -0.8816 -0.3158  0.9870
  877MOL0     H18357  10.426  11.271   5.436 -2.4398 -1.0301 -0.9995
  877MOL0     H18358  10.442  11.191   5.594 -2.2086  0.9717  0.7951
  877MOL0     H18359   9.978  11.361   5.480 -0.6491  0.8114  0.9345
  877MOL0     H18360   9.792  11.485   5.561 -2.1347 -1.3796  0.2253
  877MOL0     H18361   9.643  11.426   5.915  0.3065  2.9731  1.6578
  877MOL0     H18362   9.659  11.566   5.813 -0.8712  0.5421  1.6712
  877MOL0     H18363   9.471  11.619   5.898 -1.8137 -0.4880  1.9797
  877MOL0     H18364   9.409  11.532   5.755  0.1744  0.2251 -0.4793
  877MOL0     H18365   9.382  11.464   6.046  1.1526 -3.9620  1.6523
  877MOL0     H18366   9.425  11.327   5.951  1.2386  1.3425  1.9507
  877MOL0     H18367   9.237  11.341   5.793 -1.4436 -0.4697  0.0089
  877MOL0     H18368   9.205  11.328   5.969  1.2872  0.1675  1.0724
  877MOL0     H18369   9.179  11.580   5.802 -0.1078  0.2192 -0.8088
  877MOL0     H18370   9.155  11.577   5.978 -2.0507  2.5892 -1.0566
  877MOL0     H18371   8.950  11.579   5.826  1.0047 -0.2283 -0.1458
  877MOL0     H18372   8.987  11.414   5.791 -0.0370  0.3560 -0.0500
  877MOL0     H18373   8.912  11.536   6.070  0.3345 -0.4255  0.3600
  877MOL0     H18374   8.973  11.370   6.046 -3.4149 -2.1877 -0.5582
  877MOL0     H18375   8.778  11.324   5.875 -0.7019  0.6379 -0.1239
  877MOL0     H18376   8.722  11.488   5.914 -2.5254 -0.9208 -0.2488
  877MOL0     H18377   9.658  11.174   5.805  1.1809 -0.8386  0.6204
  877MOL0     H18378   9.859  11.031   5.733  1.7566  0.8233  0.3387
  877MOL0     H18379  10.089  10.928   5.391  0.6857 -2.4222 -3.2813
  877MOL0     H18380  10.206  10.756   5.293 -1.8703  0.5630 -0.4729
  877MOL0     H18381  10.753  11.024   6.298  1.9298 -0.6273 -0.3487
  877MOL0     H18382  10.519  11.068   6.317 -0.1548  0.8098 -0.1856
  877MOL0     H18383  10.014  10.941   6.729 -0.1328  0.2053  0.4255
  877MOL0     H18384   9.837  11.091   6.729  0.3951 -0.6733  0.2346
  877MOL0     H18385   9.863  11.514   6.538  0.6486 -0.6914 -1.3628
  877MOL0     H18386   9.834  11.379   6.438 -0.7509 -2.4133  0.2309
  877MOL0     H18387   9.600  11.387   6.491  2.4787 -1.1409 -1.2491
  877MOL0     H18388   9.645  11.549   6.453 -2.9666  0.4753  0.0793
  877MOL0     H18389   9.706  11.569   6.702  1.4782 -1.7696 -0.5714
  877MOL0     H18390   9.593  11.444   6.742 -0.2926  0.5611  0.3831
  877MOL0     H18391   9.433  11.572   6.572 -0.3702  0.2001  0.7795
  877MOL0     H18392   9.534  11.710   6.593 -0.7149  0.0952  0.8153
  877MOL0     H18393   9.296  11.658   6.953 -3.8392  0.0508 -3.3956
  877MOL0     H18394  10.044  11.365   6.482  1.5290 -1.2254 -0.4388
  877MOL0     H18395  10.246  11.231   6.493  0.6335  2.6732  1.1257
  878MOL0     O18396   3.321   0.154   2.227 -0.2628  0.3949  0.3330
  878MOL0     C18397   3.342   0.222   2.322 -1.0886  0.6184 -0.2008
  878MOL0     O18398   3.254   0.313   2.383 -0.4760  0.7713 -0.3595
  878MOL0     C18399   3.122   0.292   2.371 -0.1714 -0.4848  0.0395
  878MOL0     C18400   3.035   0.402   2.359  0.1769  0.4866  0.9258
  878MOL0     C18401   2.893   0.388   2.367 -0.6721 -0.5423 -0.1204
  878MOL0     C18402   2.830   0.263   2.360 -0.0658  0.0797 -1.1929
  878MOL0     O18403   2.691   0.248   2.340 -0.6029 -0.2973  0.1653
  878MOL0     C18404   2.614   0.367   2.330 -0.5776  0.2794  0.7839
  878MOL0     C18405   2.489   0.335   2.247 -0.1329  0.0531  1.1506
  878MOL0     C18406   2.426   0.475   2.195 -0.4252 -0.3540 -0.4071
  878MOL0     C18407   2.294   0.440   2.122  0.5403 -0.2439 -0.1863
  878MOL0     C18408   2.303   0.342   1.998  0.2800 -0.1516 -0.3594
  878MOL0     C18409   2.171   0.347   1.917  0.2244 -0.0993 -0.5032
  878MOL0     C18410   2.045   0.297   2.000  0.1053 -0.2665 -0.2603
  878MOL0     C18411   1.912   0.276   1.928 -0.8153  0.0941  0.0307
  878MOL0     N18412   1.819   0.194   2.015  0.2650  1.2943 -0.1167
  878MOL0     C18413   1.841   0.060   2.036  0.2985 -0.0246  0.2519
  878MOL0     C18414   1.744   0.028   2.126 -0.2284  0.4461 -0.6115
  878MOL0     C18415   1.717  -0.107   2.185  0.0226 -0.3079  0.1745
  878MOL0     C18416   1.639  -0.197   2.085 -0.2133  0.8368  0.0836
  878MOL0     C18417   1.497  -0.137   2.052 -0.1134 -0.4126 -0.4775
  878MOL0     C18418   1.413  -0.113   2.179  0.3362 -0.9028 -0.1746
  878MOL0     O18419   1.272  -0.105   2.154 -0.0235  0.8726 -0.6424
  878MOL0     C18420   1.192  -0.216   2.133  1.1734 -0.0488  0.0401
  878MOL0     C18421   1.051  -0.202   2.102 -0.0377  0.2597  0.4836
  878MOL0     C18422   0.983  -0.305   2.045  0.3737  0.3802 -0.2700
  878MOL0     C18423   0.845  -0.283   2.002  1.3125  0.6843 -0.8031
  878MOL0     C18424   1.047  -0.433   2.028 -0.1437 -0.7749  0.2857
  878MOL0     C18425   0.982  -0.554   1.963  0.2682  1.1562 -0.0112
  878MOL0     O18426   0.864  -0.549   1.901  0.8055  0.0254 -0.3808
  878MOL0     C18427   0.818  -0.648   1.817 -0.0940 -0.2447 -0.0593
  878MOL0     C18428   0.702  -0.721   1.859  0.1244  0.1376  0.0421
  878MOL0     C18429   0.659  -0.836   1.782 -0.2707 -0.2836  0.3604
  878MOL0     C18430   0.733  -0.879   1.665  0.6455 -0.0973  0.3360
  878MOL0     O18431   0.709  -0.995   1.596  0.4454 -0.0660 -0.2500
  878MOL0     C18432   0.605  -1.079   1.644 -0.4330  0.6207  0.7331
  878MOL0     C18433   0.602  -1.210   1.569 -0.0385  0.1873 -0.2909
  878MOL0     C18434   0.486  -1.295   1.621  0.3985  0.4300 -0.4990
  878MOL0     C18435   0.465  -1.434   1.550  0.1771 -0.4990 -0.1516
  878MOL0     C18436   0.357  -1.520   1.629 -1.2289  0.4891  0.8537
  878MOL0     C18437   0.221  -1.449   1.629 -1.0373 -0.0053 -0.0298
  878MOL0     C18438   0.107  -1.557   1.635 -0.2150  0.0305  0.1714
  878MOL0     C18439  -0.034  -1.493   1.629 -0.2349 -0.0817  0.0185
  878MOL0    Cl18440  -0.050  -1.372   1.497 -0.0988  0.4799  0.5295
  878MOL0     C18441   0.841  -0.796   1.619  0.5638 -0.5302 -0.3309
  878MOL0     C18442   0.886  -0.693   1.704 -0.5715 -1.0101  0.2061
  878MOL0     O18443   1.042  -0.657   1.980 -0.4555  0.8110  0.7125
  878MOL0     C18444   1.183  -0.448   2.069  1.6419  0.0495  0.2053
  878MOL0     C18445   1.247  -0.341   2.122  0.2404  0.5874 -0.1957
  878MOL0     N18446   1.677   0.144   2.162 -0.1285  0.5681  0.5233
  878MOL0     N18447   1.720   0.242   2.090  0.4635 -0.1832 -0.1841
  878MOL0     C18448   2.919   0.154   2.361  0.2150  0.9902  0.7118
  878MOL0     C18449   3.058   0.161   2.370 -0.2674 -1.0473  0.4242
  878MOL0     C18450   3.478   0.218   2.384 -0.2906 -0.0180  0.0174
  878MOL0     C18451   3.535   0.327   2.456 -0.3126  0.5738 -1.2891
  878MOL0     C18452   3.663   0.312   2.515  0.5846  0.7596  0.1629
  878MOL0     C18453   3.740   0.197   2.486  0.5497  0.4386  0.4203
  878MOL0     O18454   3.854   0.169   2.552 -0.2190  0.0357  0.1621
  878MOL0     C18455   3.924   0.246   2.655 -0.6347 -0.0507  0.0637
  878MOL0     C18456   4.008   0.362   2.589 -0.0360  0.1376  0.5645
  878MOL0     C18457   4.137   0.293   2.527 -0.2783  0.8671 -0.0680
  878MOL0     C18458   4.163   0.330   2.386  0.6618  0.6682 -0.0775
  878MOL0     C18459   4.258   0.255   2.310  0.2565  0.5505  0.4951
  878MOL0     C18460   4.342   0.197   2.244  1.0325 -0.9651 -0.3480
  878MOL0     C18461   3.681   0.091   2.412 -0.3517  0.5712  0.0333
  878MOL0     C18462   3.552   0.097   2.360  0.1423  0.0605 -0.3406
  878MOL0     H18463   3.084   0.498   2.372 -0.4332  0.6680  1.9602
  878MOL0     H18464   2.839   0.482   2.363 -0.7124 -0.6170 -2.6339
  878MOL0     H18465   2.597   0.400   2.433  3.1866  0.9440  1.3350
  878MOL0     H18466   2.671   0.445   2.279 -1.1893 -0.0205 -0.4125
  878MOL0     H18467   2.511   0.274   2.158 -1.6337  1.6834 -0.4399
  878MOL0     H18468   2.414   0.274   2.299 -1.0250 -1.8320 -2.0335
  878MOL0     H18469   2.403   0.552   2.269 -1.8036  0.6714 -1.8292
  878MOL0     H18470   2.489   0.518   2.117  0.0449  0.7609  0.5622
  878MOL0     H18471   2.220   0.394   2.188  1.3045 -1.8469 -0.3929
  878MOL0     H18472   2.255   0.536   2.088 -0.0017  1.0522  3.6404
  878MOL0     H18473   2.393   0.370   1.942  0.6142  0.4446  0.4615
  878MOL0     H18474   2.314   0.236   2.024 -0.4187 -0.1632 -0.0997
  878MOL0     H18475   2.156   0.454   1.900  0.2642 -0.0743 -0.3762
  878MOL0     H18476   2.176   0.294   1.821 -1.2921  0.5540 -0.9806
  878MOL0     H18477   2.085   0.211   2.055 -1.1705 -1.0353 -0.4994
  878MOL0     H18478   2.021   0.374   2.073 -1.6433 -1.4560  0.4686
  878MOL0     H18479   1.929   0.217   1.838 -2.3516 -2.6158  1.3732
  878MOL0     H18480   1.878   0.377   1.902  3.1576  0.9272 -2.8784
  878MOL0     H18481   1.921  -0.001   1.994  1.2163  1.2844  0.0485
  878MOL0     H18482   1.808  -0.154   2.224 -0.6630  1.0043  3.7814
  878MOL0     H18483   1.670  -0.100   2.284  1.4515 -0.1645  0.8691
  878MOL0     H18484   1.627  -0.302   2.113 -4.5237  1.3131  0.6836
  878MOL0     H18485   1.692  -0.208   1.990 -0.3989  1.8923 -0.1597
  878MOL0     H18486   1.431  -0.192   1.985 -2.5463  1.9952 -0.2467
  878MOL0     H18487   1.508  -0.039   2.002  2.8148 -0.3093  0.1870
  878MOL0     H18488   1.448  -0.022   2.229  0.7056 -2.1752  2.0045
  878MOL0     H18489   1.435  -0.201   2.240  1.0897 -0.1916  0.5994
  878MOL0     H18490   1.016  -0.100   2.101  3.8731  1.8179 -1.5627
  878MOL0     H18491   0.818  -0.179   2.023 -3.1792 -0.7181  1.5212
  878MOL0     H18492   0.836  -0.295   1.893  0.9201 -1.0234 -0.5974
  878MOL0     H18493   0.789  -0.357   2.058  0.2876 -0.4919 -3.2423
  878MOL0     H18494   0.658  -0.698   1.955  0.5729  3.0231 -0.3578
  878MOL0     H18495   0.577  -0.890   1.830 -2.3461  0.5698 -1.9988
  878MOL0     H18496   0.630  -1.115   1.744 -0.9285 -0.1634  0.5827
  878MOL0     H18497   0.513  -1.022   1.638  0.1775  1.6209  0.6602
  878MOL0     H18498   0.588  -1.180   1.464 -0.3655  0.6807 -0.1109
  878MOL0     H18499   0.698  -1.258   1.589  0.1692  0.9501  0.6063
  878MOL0     H18500   0.394  -1.237   1.616  0.1781 -0.0195 -2.6987
  878MOL0     H18501   0.507  -1.311   1.727  0.3415  0.6461 -0.4543
  878MOL0     H18502   0.412  -1.411   1.457 -2.9321 -1.7964  1.1533
  878MOL0     H18503   0.555  -1.495   1.535  0.0139 -1.2109  1.5964
  878MOL0     H18504   0.392  -1.547   1.729 -1.1681 -2.1761  0.2082
  878MOL0     H18505   0.363  -1.617   1.577  2.6616  1.7830 -1.5720
  878MOL0     H18506   0.196  -1.379   1.710  1.2388  1.2119 -0.3065
  878MOL0     H18507   0.216  -1.391   1.536  2.6830 -3.9232 -3.0724
  878MOL0     H18508   0.110  -1.618   1.726  1.0755 -1.5416 -0.8814
  878MOL0     H18509   0.116  -1.623   1.549  0.8000  0.9205 -0.4269
  878MOL0     H18510  -0.071  -1.451   1.722 -1.9076  0.7153 -0.9588
  878MOL0     H18511  -0.104  -1.574   1.605  0.8620 -0.8202 -0.8327
  878MOL0     H18512   0.901  -0.811   1.530  0.6350 -0.1948 -0.3404
  878MOL0     H18513   0.987  -0.655   1.689  0.0450 -2.1341  1.2735
  878MOL0     H18514   1.226  -0.548   2.066  2.5693  0.3685  1.6001
  878MOL0     H18515   1.347  -0.373   2.149  0.1122  1.6227  1.6817
  878MOL0     H18516   2.885   0.051   2.350 -1.5339  1.7007 -1.2205
  878MOL0     H18517   3.117   0.071   2.369  0.8220 -0.3659  1.1882
  878MOL0     H18518   3.488   0.421   2.481 -1.2094 -0.6808  2.5836
  878MOL0     H18519   3.697   0.391   2.581  2.8707 -1.3875  1.7809
  878MOL0     H18520   3.856   0.293   2.726 -0.0049  0.8919  0.0697
  878MOL0     H18521   3.985   0.179   2.716 -0.1530  3.0378  3.3572
  878MOL0     H18522   4.028   0.423   2.678 -0.4521 -1.4086  1.7458
  878MOL0     H18523   3.954   0.412   2.508  0.0832 -1.6065 -0.6372
  878MOL0     H18524   4.128   0.186   2.507 -0.3454  1.0220 -0.9090
  878MOL0     H18525   4.227   0.308   2.588  1.3648  0.7260 -2.3488
  878MOL0     H18526   4.189   0.436   2.386  1.1988  0.5644  1.5018
  878MOL0     H18527   4.067   0.336   2.334  0.0893  2.5122  1.0923
  878MOL0     H18528   4.424   0.143   2.200  0.2549 -1.0683 -1.7297
  878MOL0     H18529   3.748   0.008   2.394 -0.1459  1.2049 -2.6251
  878MOL0     H18530   3.509   0.025   2.292  1.1880  0.2502 -1.2333
  879MOL0     O18531   8.696  10.587   1.344  0.2380  0.5055 -0.1639
  879MOL0     C18532   8.716  10.514   1.250 -1.0548 -0.2573 -0.5200
  879MOL0     O18533   8.627  10.461   1.162  0.9510  0.3455 -0.2913
  879MOL0     C18534   8.497  10.515   1.150 -0.0478 -0.6127 -0.1001
  879MOL0     C18535   8.390  10.427   1.133 -0.4676 -0.0166 -0.0866
  879MOL0     C18536   8.255  10.478   1.114 -0.5226 -0.1058 -0.0305
  879MOL0     C18537   8.234  10.621   1.123 -0.9009  0.1941 -0.5705
  879MOL0     O18538   8.109  10.675   1.122  0.4563 -0.0635  0.5044
  879MOL0     C18539   7.999  10.582   1.108 -0.6734 -0.0587 -1.8752
  879MOL0     C18540   7.867  10.656   1.113  0.4329  0.0628 -1.0228
  879MOL0     C18541   7.771  10.638   0.999 -0.1654  1.1959  0.3000
  879MOL0     C18542   7.743  10.488   0.985 -0.6972 -0.3792  0.1848
  879MOL0     C18543   7.645  10.454   0.883  0.1845  0.3377  0.6951
  879MOL0     C18544   7.706  10.467   0.744 -0.5571 -0.3627  0.1624
  879MOL0     C18545   7.613  10.425   0.628 -0.1373  0.0884 -0.8943
  879MOL0     C18546   7.685  10.445   0.501 -0.8888  0.0489 -0.6681
  879MOL0     N18547   7.605  10.381   0.395  0.7961  0.2810  0.0765
  879MOL0     C18548   7.520  10.443   0.308  0.8809  0.4250  0.1367
  879MOL0     C18549   7.475  10.349   0.223  0.4562  0.5170 -0.4244
  879MOL0     C18550   7.366  10.361   0.123  0.1760 -0.6448 -0.1170
  879MOL0     C18551   7.217  10.341   0.179  0.4235 -0.2265 -0.3462
  879MOL0     C18552   7.108  10.375   0.075  0.5511 -0.1817 -0.2291
  879MOL0     C18553   6.980  10.308   0.108  0.0794  0.1830 -0.0980
  879MOL0     O18554   6.884  10.356   0.012  0.2822  0.2921  0.0172
  879MOL0     C18555   6.761  10.294   0.016 -0.1039  1.2024  0.5713
  879MOL0     C18556   6.733  10.166   0.073  0.2423 -0.2834  1.4801
  879MOL0     C18557   6.597  10.116   0.088 -0.1320 -0.5614  0.2431
  879MOL0     C18558   6.586   9.981   0.166  0.1145 -0.1095 -0.2167
  879MOL0     C18559   6.488  10.198   0.044 -0.0292  0.3625  0.2741
  879MOL0     C18560   6.343  10.153   0.050  0.1395 -0.1115 -0.4547
  879MOL0     O18561   6.250  10.238  -0.013  0.2984 -0.9335  0.3654
  879MOL0     C18562   6.116  10.231   0.014 -0.6347 -0.4056  0.8513
  879MOL0     C18563   6.055  10.220   0.142  0.5466  0.5681 -0.5585
  879MOL0     C18564   5.918  10.187   0.160 -0.0811 -0.2042 -0.7766
  879MOL0     C18565   5.825  10.195   0.055 -0.1305 -0.0313  0.8264
  879MOL0     O18566   5.691  10.162   0.077 -0.8133 -0.0976  0.1701
  879MOL0     C18567   5.607  10.275   0.048  0.8753 -0.7049  0.6780
  879MOL0     C18568   5.466  10.224   0.078 -0.2169 -0.1880 -0.6684
  879MOL0     C18569   5.369  10.268  -0.031  0.2915 -0.0466 -0.3712
  879MOL0     C18570   5.245  10.176  -0.024 -0.6975  0.2180 -0.3448
  879MOL0     C18571   5.130  10.227  -0.111 -0.6998 -0.1632  0.4869
  879MOL0     C18572   5.049  10.349  -0.056  0.5283  0.3661  0.0433
  879MOL0     C18573   4.939  10.406  -0.143 -0.1147  0.0015 -0.6663
  879MOL0     C18574   4.834  10.303  -0.164  0.6403  0.4362 -0.3893
  879MOL0    Cl18575   4.734  10.340  -0.304 -0.1125  0.5568 -0.3446
  879MOL0     C18576   5.888  10.201  -0.074  0.4598  0.3747 -0.1018
  879MOL0     C18577   6.026  10.222  -0.092 -0.5592 -0.1921  0.4498
  879MOL0     O18578   6.316  10.053   0.114  0.4511  0.5662 -0.2675
  879MOL0     C18579   6.521  10.314  -0.022  0.5234  0.5545 -0.3415
  879MOL0     C18580   6.651  10.367  -0.031 -0.0760  0.1421 -0.5005
  879MOL0     N18581   7.530  10.225   0.254 -0.0038  0.7822  0.3303
  879MOL0     N18582   7.604  10.248   0.362 -0.3463  0.2123 -0.0094
  879MOL0     C18583   8.343  10.702   1.120 -0.8686 -0.0687  0.2901
  879MOL0     C18584   8.477  10.649   1.128  0.4292 -0.8849  0.4845
  879MOL0     C18585   8.861  10.481   1.222  0.1921 -0.1684 -0.5674
  879MOL0     C18586   8.962  10.565   1.276 -0.1087 -0.2485  0.9801
  879MOL0     C18587   9.101  10.539   1.253 -0.0238 -0.7481  0.3722
  879MOL0     C18588   9.134  10.434   1.164  0.3345 -0.3548 -0.2085
  879MOL0     O18589   9.260  10.406   1.135  0.7816 -0.0992  1.0725
  879MOL0     C18590   9.369  10.491   1.179 -0.0034  0.5994  0.5501
  879MOL0     C18591   9.494  10.419   1.137 -0.5362 -0.5051 -0.1700
  879MOL0     C18592   9.612  10.513   1.144 -0.9078 -0.0661 -0.3405
  879MOL0     C18593   9.746  10.451   1.111  0.2694 -0.4313 -0.2565
  879MOL0     C18594   9.856  10.550   1.073  0.0853  0.2805 -0.6464
  879MOL0     C18595   9.957  10.605   1.049  0.0638  0.0092  0.0348
  879MOL0     C18596   9.038  10.349   1.117 -1.0749 -0.7386 -0.5750
  879MOL0     C18597   8.907  10.369   1.152  0.5901  0.2000 -0.0165
  879MOL0     H18598   8.424  10.325   1.150  1.6278  1.0302  2.8761
  879MOL0     H18599   8.171  10.420   1.079 -1.1918 -0.0820  1.4459
  879MOL0     H18600   8.013  10.537   1.009  1.3934 -0.1817 -1.5682
  879MOL0     H18601   8.002  10.498   1.178  2.2497 -1.5213 -3.5514
  879MOL0     H18602   7.814  10.610   1.198 -0.2891 -0.1607 -1.5807
  879MOL0     H18603   7.873  10.764   1.128 -2.0069  0.3531 -1.7288
  879MOL0     H18604   7.678  10.695   1.011 -2.0628 -1.5242 -0.6807
  879MOL0     H18605   7.817  10.675   0.907 -0.6078  1.8046  0.3143
  879MOL0     H18606   7.828  10.422   0.971 -1.9840 -1.7914 -1.4367
  879MOL0     H18607   7.700  10.458   1.081  1.0557  0.0955  1.1576
  879MOL0     H18608   7.602  10.354   0.891 -3.1566  1.1699 -3.2284
  879MOL0     H18609   7.559  10.522   0.892  0.0072  0.5549 -1.9455
  879MOL0     H18610   7.730  10.573   0.733  2.7341 -1.2322 -2.2275
  879MOL0     H18611   7.793  10.403   0.731 -2.2921 -2.8515 -0.1000
  879MOL0     H18612   7.579  10.321   0.635 -0.2818  0.1137 -1.1816
  879MOL0     H18613   7.532  10.498   0.642  2.8254  3.3276  0.8344
  879MOL0     H18614   7.785  10.402   0.511 -1.2304 -0.6541 -0.2274
  879MOL0     H18615   7.695  10.553   0.484 -0.3679 -0.1224 -1.5672
  879MOL0     H18616   7.474  10.542   0.311 -2.1974 -0.8453 -1.0358
  879MOL0     H18617   7.379  10.464   0.090 -0.3383  0.2271  2.2434
  879MOL0     H18618   7.374  10.292   0.038  0.2072  0.3484 -0.9375
  879MOL0     H18619   7.196  10.396   0.272 -3.3684 -1.3242 -0.3989
  879MOL0     H18620   7.196  10.235   0.197 -2.2115  0.2872  0.0539
  879MOL0     H18621   7.140  10.341  -0.024 -0.3735 -2.8667  0.3077
  879MOL0     H18622   7.090  10.483   0.077 -1.2500 -0.4487 -0.0318
  879MOL0     H18623   6.954  10.341   0.209 -0.1578  0.3805 -0.2215
  879MOL0     H18624   6.989  10.199   0.109 -0.5871  0.1223  1.1970
  879MOL0     H18625   6.808  10.111   0.129  1.2273  0.5238  0.9747
  879MOL0     H18626   6.675   9.919   0.156 -0.4741 -0.9630 -0.3414
  879MOL0     H18627   6.552   9.997   0.268  1.7634 -2.5394  0.7939
  879MOL0     H18628   6.513   9.914   0.117  1.1554 -2.9118  1.8018
  879MOL0     H18629   6.117  10.241   0.228  0.1978  0.0951 -0.1788
  879MOL0     H18630   5.878  10.177   0.260  0.8983 -0.7326 -0.4194
  879MOL0     H18631   5.631  10.359   0.114 -3.6858  0.5398  1.0897
  879MOL0     H18632   5.623  10.304  -0.056  2.0362  1.1405  1.3195
  879MOL0     H18633   5.472  10.116   0.057 -3.3706 -0.4932 -0.5039
  879MOL0     H18634   5.437  10.246   0.181 -2.7304  1.3148 -1.6059
  879MOL0     H18635   5.416  10.253  -0.129 -0.0529  0.2482 -0.5817
  879MOL0     H18636   5.355  10.377  -0.034  0.7493  0.0042 -1.0998
  879MOL0     H18637   5.269  10.078  -0.066  2.5181  1.2811 -1.3090
  879MOL0     H18638   5.203  10.166   0.076  0.4068  0.2288  0.1348
  879MOL0     H18639   5.061  10.148  -0.140  0.6410 -0.8316 -1.1091
  879MOL0     H18640   5.172  10.261  -0.206 -1.7185  0.4275  0.2388
  879MOL0     H18641   4.996  10.312   0.032 -2.6068  0.8659 -1.4870
  879MOL0     H18642   5.121  10.424  -0.022 -2.0590  2.4967  1.2287
  879MOL0     H18643   4.968  10.441  -0.243 -0.3607  2.1185 -0.0547
  879MOL0     H18644   4.895  10.493  -0.094  1.4405  0.0663  0.7465
  879MOL0     H18645   4.774  10.301  -0.073  2.0887 -0.2601  0.6003
  879MOL0     H18646   4.873  10.201  -0.163  3.0918  1.3020  1.0922
  879MOL0     H18647   5.827  10.177  -0.160 -0.9013 -1.9701  1.4222
  879MOL0     H18648   6.068  10.242  -0.190 -2.1482 -3.8719 -1.1983
  879MOL0     H18649   6.441  10.384  -0.046 -0.9594 -0.9615 -0.0250
  879MOL0     H18650   6.663  10.464  -0.079  0.5129  0.0294 -0.5868
  879MOL0     H18651   8.328  10.810   1.129  0.2101 -0.0900  3.3027
  879MOL0     H18652   8.551  10.728   1.127 -0.1048 -0.3478  1.5383
  879MOL0     H18653   8.908  10.645   1.325 -1.2001 -0.8896  0.8500
  879MOL0     H18654   9.181  10.604   1.288  1.8002 -2.0041 -1.2194
  879MOL0     H18655   9.352  10.591   1.139  2.6344 -0.2505 -3.2599
  879MOL0     H18656   9.362  10.501   1.288 -0.3595  4.2140  0.3056
  879MOL0     H18657   9.489  10.381   1.034 -0.2179 -2.0573  0.3531
  879MOL0     H18658   9.508  10.334   1.204 -0.6241 -0.4841 -0.1252
  879MOL0     H18659   9.630  10.553   1.244 -0.3867 -1.4263  0.1289
  879MOL0     H18660   9.606  10.588   1.065  2.1686  0.5675 -0.0917
  879MOL0     H18661   9.721  10.380   1.031  0.3264  0.3423 -0.9851
  879MOL0     H18662   9.771  10.393   1.200 -2.7451  0.2307  1.1345
  879MOL0     H18663  10.039  10.659   1.006 -1.6983  1.5926 -1.5419
  879MOL0     H18664   9.074  10.271   1.051 -0.8172 -0.3707 -0.8720
  879MOL0     H18665   8.833  10.302   1.110 -2.1741  3.6344 -1.0903
  880MOL0     O18666   1.872   2.814   2.498 -0.1041 -0.5918  0.2384
  880MOL0     C18667   1.828   2.773   2.605 -0.3375 -0.1358 -0.1505
  880MOL0     O18668   1.697   2.736   2.623 -0.4122  0.3701 -0.0925
  880MOL0     C18669   1.613   2.739   2.509  0.2378  0.5021 -0.3227
  880MOL0     C18670   1.602   2.856   2.437 -0.4936 -0.4997  0.3469
  880MOL0     C18671   1.542   2.870   2.314  1.0339 -0.1630 -1.5238
  880MOL0     C18672   1.472   2.751   2.268  0.0118 -0.9764  0.1132
  880MOL0     O18673   1.402   2.734   2.144 -0.0727 -0.2440 -0.1197
  880MOL0     C18674   1.475   2.783   2.032  0.0177  0.2153 -0.1180
  880MOL0     C18675   1.386   2.753   1.910 -0.5320 -1.0620  0.4072
  880MOL0     C18676   1.299   2.872   1.865 -0.3766 -0.5809 -0.4789
  880MOL0     C18677   1.187   2.840   1.761 -1.0978  0.3222  0.3811
  880MOL0     C18678   1.104   2.966   1.740  1.8848  0.4883  0.0548
  880MOL0     C18679   0.963   2.926   1.680 -0.5406 -0.2013 -0.4142
  880MOL0     C18680   0.897   3.047   1.614 -0.1739  0.4534  0.1558
  880MOL0     C18681   0.783   3.000   1.532  0.4089 -0.1880 -0.0747
  880MOL0     N18682   0.685   3.116   1.528  0.4516 -0.1513 -0.4224
  880MOL0     C18683   0.590   3.146   1.620  0.0966  0.5141  0.7801
  880MOL0     C18684   0.505   3.234   1.558 -0.3743 -0.2237  0.2709
  880MOL0     C18685   0.392   3.302   1.624  0.0933  0.1899  0.1951
  880MOL0     C18686   0.280   3.208   1.664 -0.2165  0.3220  0.4602
  880MOL0     C18687   0.188   3.165   1.553  0.5513 -0.4292  0.8997
  880MOL0     C18688   0.228   3.029   1.492 -0.0286 -0.0706 -0.3862
  880MOL0     O18689   0.147   2.986   1.383  0.7517  0.7236  0.6027
  880MOL0     C18690   0.009   2.969   1.391  0.1761 -0.5399 -0.1263
  880MOL0     C18691  -0.074   2.993   1.283  0.7101  0.3790  0.5233
  880MOL0     C18692  -0.214   2.998   1.289  0.4794  0.5022 -0.6814
  880MOL0     C18693  -0.288   3.027   1.156 -0.6953  0.2425 -0.7908
  880MOL0     C18694  -0.275   2.962   1.408  0.2434  0.1130 -0.7120
  880MOL0     C18695  -0.419   2.972   1.433 -0.0275 -0.4249 -0.7118
  880MOL0     O18696  -0.467   2.886   1.526  0.6822  0.4777 -0.1142
  880MOL0     C18697  -0.589   2.921   1.565  0.1053  1.5267  0.1046
  880MOL0     C18698  -0.692   2.899   1.477  0.0918 -0.0888 -0.5966
  880MOL0     C18699  -0.824   2.912   1.526 -0.1609  0.0787  0.7116
  880MOL0     C18700  -0.850   2.957   1.656  0.6010  0.4911 -0.0742
  880MOL0     O18701  -0.986   2.975   1.698  0.0171 -0.9846  0.2674
  880MOL0     C18702  -1.090   2.965   1.601  0.2770  0.6442 -0.4074
  880MOL0     C18703  -1.225   3.018   1.646  0.2244  0.2686 -0.3523
  880MOL0     C18704  -1.334   3.017   1.541 -0.7529  0.7868 -0.6979
  880MOL0     C18705  -1.462   3.088   1.582 -0.5027  0.7978  0.2223
  880MOL0     C18706  -1.543   3.115   1.452 -0.1505  0.5224  0.6213
  880MOL0     C18707  -1.691   3.156   1.481 -0.0284 -0.8129 -0.7507
  880MOL0     C18708  -1.680   3.298   1.553 -1.1132  0.2292 -0.9790
  880MOL0     C18709  -1.810   3.368   1.579  0.2912 -0.1566  0.1814
  880MOL0    Cl18710  -1.813   3.527   1.650  0.1701  0.2177 -0.1541
  880MOL0     C18711  -0.744   2.994   1.744  0.2735 -0.6544  0.6016
  880MOL0     C18712  -0.612   2.976   1.690 -0.8251  0.3701  0.7673
  880MOL0     O18713  -0.487   3.061   1.382 -0.4358 -0.0995 -0.5751
  880MOL0     C18714  -0.189   2.945   1.521  0.6700 -0.0488  0.6084
  880MOL0     C18715  -0.048   2.935   1.512  0.1097 -0.8647  0.0667
  880MOL0     N18716   0.548   3.253   1.424 -0.3871  0.1530 -0.2247
  880MOL0     N18717   0.653   3.174   1.408 -0.1515 -0.5492 -0.8092
  880MOL0     C18718   1.477   2.630   2.346  0.6585 -0.6580 -0.3445
  880MOL0     C18719   1.553   2.621   2.463  0.3288 -0.7336 -0.4210
  880MOL0     C18720   1.923   2.776   2.721 -0.1759 -0.4168 -0.8802
  880MOL0     C18721   2.039   2.842   2.709  0.4185  0.0606 -0.0542
  880MOL0     C18722   2.132   2.858   2.817 -0.4283 -0.2123  0.8029
  880MOL0     C18723   2.091   2.806   2.940 -0.5605  0.2315  0.1537
  880MOL0     O18724   2.147   2.834   3.061 -0.1659  0.5722  0.4098
  880MOL0     C18725   2.258   2.923   3.068 -0.2024 -0.2896  0.0751
  880MOL0     C18726   2.326   2.894   3.204 -0.4270  0.3066 -0.9472
  880MOL0     C18727   2.254   2.938   3.333 -0.0744  0.3674  0.8317
  880MOL0     C18728   2.124   2.859   3.354  0.4936  0.2259 -0.2921
  880MOL0     C18729   2.129   2.707   3.346 -0.5031 -0.3633 -0.6712
  880MOL0     C18730   2.128   2.585   3.352 -0.2020  1.0928  0.1809
  880MOL0     C18731   1.975   2.732   2.952  0.4703 -0.1360  0.4614
  880MOL0     C18732   1.892   2.719   2.846  0.0181 -0.3388  0.2609
  880MOL0     H18733   1.640   2.952   2.471  0.1723 -0.5259 -0.3129
  880MOL0     H18734   1.547   2.967   2.266  1.0075  1.0945  0.8717
  880MOL0     H18735   1.507   2.887   2.039  0.8300  0.1090 -1.8400
  880MOL0     H18736   1.571   2.731   2.026  0.0114  0.2073 -0.1537
  880MOL0     H18737   1.444   2.726   1.821 -0.6596  0.9263 -0.3311
  880MOL0     H18738   1.316   2.673   1.934 -0.9779 -0.2166  2.0399
  880MOL0     H18739   1.249   2.906   1.956  2.4304 -0.9551  1.2982
  880MOL0     H18740   1.369   2.947   1.829  1.3318 -1.5918  0.6049
  880MOL0     H18741   1.232   2.809   1.666 -2.9990 -0.4793 -0.3180
  880MOL0     H18742   1.128   2.759   1.805  1.9750 -1.0095  2.3819
  880MOL0     H18743   1.096   3.014   1.838 -0.9652 -1.7783  1.1004
  880MOL0     H18744   1.168   3.034   1.683  2.5931  1.1214  1.5487
  880MOL0     H18745   0.974   2.845   1.608  0.2087  1.2539 -1.9948
  880MOL0     H18746   0.905   2.887   1.764  2.9950 -0.6191  2.0457
  880MOL0     H18747   0.862   3.122   1.686 -2.9467  0.2326 -0.8360
  880MOL0     H18748   0.965   3.079   1.534 -1.8163 -2.5399 -2.6919
  880MOL0     H18749   0.744   2.900   1.553 -2.3163  0.6287 -0.8492
  880MOL0     H18750   0.828   2.996   1.433  2.8172 -0.0241  0.9409
  880MOL0     H18751   0.587   3.099   1.717  1.4999 -4.6310 -1.3510
  880MOL0     H18752   0.436   3.349   1.712  0.0448  0.6931 -0.0435
  880MOL0     H18753   0.360   3.391   1.568 -2.1096  0.2359  1.4151
  880MOL0     H18754   0.220   3.265   1.735  0.6074 -0.3419  1.7264
  880MOL0     H18755   0.318   3.119   1.714 -2.0539 -0.6479  0.2145
  880MOL0     H18756   0.199   3.238   1.472 -0.0919 -0.4543  0.7805
  880MOL0     H18757   0.086   3.167   1.591  0.3538  0.3087  0.3428
  880MOL0     H18758   0.220   2.952   1.570 -0.2377  0.0901 -0.2509
  880MOL0     H18759   0.328   3.045   1.451  1.5832  1.3012  3.6158
  880MOL0     H18760  -0.032   3.003   1.183  0.3489  0.6484  0.3942
  880MOL0     H18761  -0.269   3.130   1.125  1.1160  0.6645  1.4492
  880MOL0     H18762  -0.258   2.958   1.077  1.4172 -0.9744  0.9295
  880MOL0     H18763  -0.395   3.015   1.174 -0.6205  2.5123  1.9769
  880MOL0     H18764  -0.666   2.860   1.379  0.5334 -1.0611 -0.1056
  880MOL0     H18765  -0.895   2.895   1.445 -0.4352  0.6041  0.8335
  880MOL0     H18766  -1.058   3.029   1.519  1.2236 -0.5429 -1.0072
  880MOL0     H18767  -1.100   2.863   1.562 -0.3697  0.6291 -0.2102
  880MOL0     H18768  -1.267   2.963   1.730 -0.0844  4.4160  2.4863
  880MOL0     H18769  -1.203   3.118   1.683 -0.3419  0.8934 -1.6192
  880MOL0     H18770  -1.352   2.916   1.503 -1.4870 -0.0640  1.7103
  880MOL0     H18771  -1.293   3.086   1.467  1.2442 -0.0910 -0.4549
  880MOL0     H18772  -1.518   3.025   1.651 -1.2709  0.1876 -0.9137
  880MOL0     H18773  -1.437   3.184   1.627 -0.0922  0.8108 -0.0208
  880MOL0     H18774  -1.555   3.024   1.393 -2.8267 -0.1845  2.0869
  880MOL0     H18775  -1.486   3.185   1.391  1.1742  0.0258  1.2607
  880MOL0     H18776  -1.740   3.170   1.385 -3.4104 -2.3149  0.5869
  880MOL0     H18777  -1.748   3.085   1.541 -1.9945  2.0423  1.0088
  880MOL0     H18778  -1.621   3.367   1.492 -0.8366 -1.8019 -3.1401
  880MOL0     H18779  -1.633   3.287   1.651 -0.5947  1.7887 -1.0163
  880MOL0     H18780  -1.881   3.316   1.644  0.3903  0.4484  0.7785
  880MOL0     H18781  -1.860   3.387   1.483 -2.2479  1.4568  1.6938
  880MOL0     H18782  -0.765   3.021   1.847 -0.8432 -0.3948  0.3130
  880MOL0     H18783  -0.531   2.984   1.762 -0.3311 -1.5889  0.4752
  880MOL0     H18784  -0.229   2.929   1.620 -1.7969  1.1602 -0.1212
  880MOL0     H18785   0.012   2.902   1.597 -1.1111  0.7512  1.6276
  880MOL0     H18786   1.429   2.544   2.302 -0.8593 -0.4652  0.8507
  880MOL0     H18787   1.555   2.522   2.507 -2.3266 -0.8336 -0.3533
  880MOL0     H18788   2.057   2.896   2.617 -2.0179  1.4861  0.2153
  880MOL0     H18789   2.225   2.910   2.794 -1.0896  1.1095  1.0141
  880MOL0     H18790   2.337   2.921   2.992  1.4994 -0.9886  1.8134
  880MOL0     H18791   2.222   3.026   3.060 -0.6172 -0.3986  0.5074
  880MOL0     H18792   2.424   2.944   3.204  2.0135 -3.8671  1.2607
  880MOL0     H18793   2.355   2.790   3.222  1.4780  0.9687  0.0981
  880MOL0     H18794   2.221   3.040   3.311  0.5744  0.3286 -0.4381
  880MOL0     H18795   2.326   2.933   3.415 -0.5986 -0.1825  1.2661
  880MOL0     H18796   2.058   2.909   3.283  1.0643  0.0346 -0.9694
  880MOL0     H18797   2.080   2.890   3.449  2.4156  2.8321 -0.1285
  880MOL0     H18798   2.127   2.479   3.341 -1.5727  1.3013 -2.4810
  880MOL0     H18799   1.949   2.694   3.051  1.7686  1.6137  1.5456
  880MOL0     H18800   1.797   2.667   2.846  0.5499 -1.3684 -0.9044
  881MOL0     O18801   7.966   8.123   0.456 -0.5321  0.2312  0.5442
  881MOL0     C18802   7.974   8.027   0.534  0.3151 -0.3925 -0.3716
  881MOL0     O18803   7.891   7.912   0.543  0.5020 -1.4536 -0.3042
  881MOL0     C18804   7.773   7.923   0.475  0.1434  0.0556  0.6022
  881MOL0     C18805   7.661   7.972   0.541 -0.4446 -0.0170 -1.0868
  881MOL0     C18806   7.542   7.982   0.469 -0.7325  0.8573 -0.1636
  881MOL0     C18807   7.536   7.927   0.343  0.4433 -0.4922 -0.6297
  881MOL0     O18808   7.421   7.925   0.271 -0.1311  1.0900 -0.1959
  881MOL0     C18809   7.370   8.059   0.238  0.1977  0.4507 -0.5320
  881MOL0     C18810   7.322   8.055   0.092  0.1959 -0.8314 -0.3862
  881MOL0     C18811   7.190   7.977   0.077  1.4586  0.6305  0.4217
  881MOL0     C18812   7.131   7.997  -0.061  0.0846 -0.5018  0.2586
  881MOL0     C18813   7.007   7.906  -0.065  0.2801 -0.4051 -0.3356
  881MOL0     C18814   7.028   7.757  -0.103 -0.6821  0.2265 -0.3785
  881MOL0     C18815   6.895   7.700  -0.131  0.7179 -0.1109 -0.9362
  881MOL0     C18816   6.836   7.741  -0.261  1.0652 -0.0309 -0.3269
  881MOL0     N18817   6.741   7.651  -0.306 -0.0105  0.1858  0.2368
  881MOL0     C18818   6.627   7.633  -0.237  0.5882  0.2869  0.6786
  881MOL0     C18819   6.572   7.523  -0.295 -0.2938 -0.0274  0.1848
  881MOL0     C18820   6.446   7.465  -0.255  0.2214  0.3824 -0.1066
  881MOL0     C18821   6.325   7.509  -0.337  0.0925  0.7821 -0.8584
  881MOL0     C18822   6.275   7.652  -0.309 -0.0090 -0.6938 -0.1219
  881MOL0     C18823   6.186   7.702  -0.413  0.0898  0.7269  0.2197
  881MOL0     O18824   6.074   7.627  -0.422  0.7478  0.7066  0.2861
  881MOL0     C18825   5.993   7.640  -0.532 -0.4370 -0.5325  0.1906
  881MOL0     C18826   6.026   7.693  -0.658 -0.5921  0.2795  0.9214
  881MOL0     C18827   5.935   7.692  -0.768 -0.2123 -0.2764  0.0870
  881MOL0     C18828   5.984   7.733  -0.908 -0.0566  0.4577 -0.1115
  881MOL0     C18829   5.801   7.645  -0.743  0.3474  0.8002  0.2838
  881MOL0     C18830   5.694   7.649  -0.846 -0.0342  0.2817  1.2929
  881MOL0     O18831   5.637   7.524  -0.885 -0.1680  0.1905 -0.7535
  881MOL0     C18832   5.560   7.526  -0.998 -0.0200  0.4201  1.0104
  881MOL0     C18833   5.422   7.505  -0.986 -0.5551 -0.3021 -0.1155
  881MOL0     C18834   5.346   7.475  -1.090 -0.0943 -0.2903 -0.2105
  881MOL0     C18835   5.398   7.471  -1.221 -0.1407 -0.2418  0.1560
  881MOL0     O18836   5.320   7.446  -1.333 -0.0621  0.1728 -0.1868
  881MOL0     C18837   5.173   7.439  -1.318  0.2993 -0.1298 -0.5329
  881MOL0     C18838   5.092   7.465  -1.454 -0.0946  0.5609 -0.1436
  881MOL0     C18839   5.117   7.362  -1.564  0.1886  0.7170  0.2448
  881MOL0     C18840   5.035   7.411  -1.693 -0.6868  0.2644  0.1762
  881MOL0     C18841   5.071   7.335  -1.823 -0.6539 -0.0199 -0.2786
  881MOL0     C18842   5.022   7.421  -1.949 -0.2143  0.4833 -0.9376
  881MOL0     C18843   4.870   7.456  -1.954 -0.8943  0.1742  0.4281
  881MOL0     C18844   4.787   7.326  -1.955 -0.2078  0.1951  0.4114
  881MOL0    Cl18845   4.628   7.379  -1.997  0.7082 -0.9174  0.3045
  881MOL0     C18846   5.531   7.490  -1.239 -0.5585 -0.1086  0.4126
  881MOL0     C18847   5.616   7.519  -1.120 -0.4681 -0.1886  0.2701
  881MOL0     O18848   5.675   7.757  -0.912 -0.2277 -0.1686  0.1158
  881MOL0     C18849   5.771   7.600  -0.614  0.4532  1.0425  0.1466
  881MOL0     C18850   5.859   7.595  -0.508 -0.5490  0.3136  0.8146
  881MOL0     N18851   6.657   7.474  -0.402  0.6679  0.6678  0.6818
  881MOL0     N18852   6.764   7.553  -0.397  0.1834  0.4697  0.1200
  881MOL0     C18853   7.641   7.869   0.284  0.0535 -0.2781  0.1266
  881MOL0     C18854   7.761   7.865   0.350  0.7643 -0.1342  1.5643
  881MOL0     C18855   8.081   8.017   0.635 -0.3214  0.6369 -0.2307
  881MOL0     C18856   8.215   8.065   0.614  0.3770  0.0118 -0.1557
  881MOL0     C18857   8.297   8.073   0.713 -0.8499 -0.2194 -0.1395
  881MOL0     C18858   8.264   8.039   0.844 -1.1432  0.1047 -0.1164
  881MOL0     O18859   8.373   8.034   0.934  0.0685 -0.1051  0.2120
  881MOL0     C18860   8.351   8.043   1.076  0.4667  0.5812  0.0650
  881MOL0     C18861   8.457   8.140   1.133  0.0440  0.3137 -0.6093
  881MOL0     C18862   8.477   8.280   1.060  0.1349 -1.0797  0.1834
  881MOL0     C18863   8.595   8.292   0.969  0.4693  0.1936 -0.8953
  881MOL0     C18864   8.605   8.419   0.895 -0.1214 -0.3745 -1.6036
  881MOL0     C18865   8.609   8.529   0.842  0.1690 -0.3489 -0.0637
  881MOL0     C18866   8.138   7.987   0.877  0.3603  0.2424  0.4416
  881MOL0     C18867   8.045   7.982   0.766  0.0471  0.5224  0.3283
  881MOL0     H18868   7.678   8.007   0.642  2.4432  0.9056 -1.7785
  881MOL0     H18869   7.454   8.004   0.528 -0.2701 -0.7036  1.2000
  881MOL0     H18870   7.292   8.081   0.311  0.0410  3.4436 -1.4702
  881MOL0     H18871   7.450   8.133   0.238  1.0326 -0.4135 -1.6561
  881MOL0     H18872   7.302   8.159   0.065 -5.3158 -0.9410  1.8537
  881MOL0     H18873   7.402   8.010   0.033  0.6765  1.0391 -1.2463
  881MOL0     H18874   7.195   7.870   0.100 -0.0514  0.5826  0.6787
  881MOL0     H18875   7.113   8.013   0.147 -0.9871 -2.4053 -0.4448
  881MOL0     H18876   7.101   8.098  -0.088  0.4801 -1.1647 -3.0978
  881MOL0     H18877   7.200   7.968  -0.141  2.4458 -0.3705  2.1362
  881MOL0     H18878   6.956   7.906   0.032 -1.5682  1.3748 -1.2204
  881MOL0     H18879   6.930   7.957  -0.123  1.7376 -0.2310 -2.2016
  881MOL0     H18880   7.090   7.754  -0.192 -0.2059 -0.9355 -0.0178
  881MOL0     H18881   7.067   7.704  -0.016 -1.1802  0.7596  0.1880
  881MOL0     H18882   6.911   7.591  -0.131  0.2548 -0.1866 -0.1845
  881MOL0     H18883   6.824   7.737  -0.056  0.3921  2.8007 -2.5414
  881MOL0     H18884   6.900   7.753  -0.349  0.0537 -1.9868 -1.4089
  881MOL0     H18885   6.791   7.838  -0.241  1.4297 -0.4798  3.3283
  881MOL0     H18886   6.588   7.698  -0.159 -2.2543 -1.7841  1.1680
  881MOL0     H18887   6.458   7.356  -0.253 -0.8538  0.2374 -0.6775
  881MOL0     H18888   6.423   7.492  -0.152  2.6084  1.2423  0.2461
  881MOL0     H18889   6.243   7.441  -0.310  1.6561 -0.9877 -0.3361
  881MOL0     H18890   6.351   7.497  -0.442  1.4041 -1.0333 -0.3782
  881MOL0     H18891   6.364   7.716  -0.311  0.2361 -1.0483 -1.4335
  881MOL0     H18892   6.228   7.650  -0.210  0.8464 -0.8676  0.2817
  881MOL0     H18893   6.247   7.683  -0.502  0.3622 -1.3629  0.8138
  881MOL0     H18894   6.160   7.808  -0.403  0.0824  0.8198 -0.6878
  881MOL0     H18895   6.121   7.744  -0.672  0.3007 -1.9101 -1.6598
  881MOL0     H18896   5.963   7.645  -0.970 -3.6164 -0.5347  2.2078
  881MOL0     H18897   5.932   7.822  -0.945  0.8374  1.5312  1.1211
  881MOL0     H18898   6.090   7.755  -0.890  0.5991 -1.9678 -0.6540
  881MOL0     H18899   5.377   7.511  -0.887 -1.0064  4.6350 -0.3784
  881MOL0     H18900   5.242   7.466  -1.062  0.1126 -1.8759  0.1465
  881MOL0     H18901   5.154   7.336  -1.287 -1.1114 -0.0914 -1.1817
  881MOL0     H18902   5.133   7.506  -1.241  2.3575 -1.4272  1.7866
  881MOL0     H18903   4.984   7.466  -1.434  0.1342  1.2414  1.2023
  881MOL0     H18904   5.117   7.563  -1.497  0.8639  0.8666  1.0480
  881MOL0     H18905   5.091   7.259  -1.540  2.3051  0.4340  1.5924
  881MOL0     H18906   5.222   7.356  -1.593  0.5283 -3.4333  1.7254
  881MOL0     H18907   4.929   7.400  -1.669 -0.8019  0.0331 -0.4409
  881MOL0     H18908   5.058   7.516  -1.712  1.0244 -0.0599  0.2755
  881MOL0     H18909   5.029   7.234  -1.816  0.1403 -0.2358  2.2617
  881MOL0     H18910   5.179   7.322  -1.830 -0.8140 -2.8153  0.9923
  881MOL0     H18911   5.072   7.517  -1.957 -0.6493  0.6863 -1.2829
  881MOL0     H18912   5.054   7.366  -2.037 -1.0193  0.2537 -1.0956
  881MOL0     H18913   4.857   7.506  -2.051  7.0840  2.4719 -0.1016
  881MOL0     H18914   4.848   7.527  -1.873  2.5607  2.8997 -0.7925
  881MOL0     H18915   4.782   7.287  -1.853  2.1376  1.0088  0.9035
  881MOL0     H18916   4.819   7.252  -2.029 -1.6223  1.1974 -1.2628
  881MOL0     H18917   5.570   7.466  -1.337 -2.7210 -2.7329  0.0945
  881MOL0     H18918   5.723   7.527  -1.136 -0.8855  2.4923 -2.0475
  881MOL0     H18919   5.666   7.576  -0.602 -0.0134  2.6771 -0.3912
  881MOL0     H18920   5.833   7.563  -0.407 -0.3286  1.5649  1.2987
  881MOL0     H18921   7.641   7.822   0.186  0.9995 -1.4146  0.6525
  881MOL0     H18922   7.857   7.842   0.306  1.4819  1.9277  1.9399
  881MOL0     H18923   8.243   8.102   0.517  1.6736  2.5783  1.1004
  881MOL0     H18924   8.401   8.091   0.689 -0.9581  0.1669 -0.3294
  881MOL0     H18925   8.255   8.086   1.106  0.4593 -1.0801  2.7701
  881MOL0     H18926   8.362   7.939   1.108  1.2892 -0.1145 -2.2973
  881MOL0     H18927   8.553   8.089   1.126 -0.8640 -1.3705 -1.5170
  881MOL0     H18928   8.432   8.158   1.238 -0.6325  0.7637 -0.8346
  881MOL0     H18929   8.490   8.361   1.131  1.6141 -0.9366 -0.2140
  881MOL0     H18930   8.385   8.290   1.001 -0.4353  0.6840  1.2898
  881MOL0     H18931   8.584   8.206   0.903 -1.1092 -0.6268  0.3722
  881MOL0     H18932   8.680   8.285   1.038 -1.4768 -3.3108  1.4283
  881MOL0     H18933   8.606   8.628   0.801 -0.0890  0.5329  1.9170
  881MOL0     H18934   8.102   7.951   0.972 -1.6773  1.2822  0.1171
  881MOL0     H18935   7.941   7.957   0.784 -0.1792  0.0587 -1.4051
  882MOL0     O18936   0.175   7.972   3.127  0.0899 -0.1015 -0.4001
  882MOL0     C18937   0.277   7.906   3.125 -0.3542  0.2782  0.0766
  882MOL0     O18938   0.279   7.771   3.117 -0.5414 -0.5090  0.0910
  882MOL0     C18939   0.159   7.722   3.109 -0.5036 -0.2763  0.2296
  882MOL0     C18940   0.109   7.670   3.225 -1.0678 -0.1782  0.9805
  882MOL0     C18941  -0.013   7.609   3.223  0.5066  0.5820  0.1945
  882MOL0     C18942  -0.084   7.581   3.105  1.0197  0.4261  0.9300
  882MOL0     O18943  -0.200   7.516   3.115  0.4193  0.0014  0.0688
  882MOL0     C18944  -0.308   7.596   3.079  0.2698 -0.6374  0.0750
  882MOL0     C18945  -0.439   7.522   3.116  0.1955 -0.0972  1.0037
  882MOL0     C18946  -0.556   7.606   3.050  1.7991  0.2055  0.1734
  882MOL0     C18947  -0.684   7.517   3.037  0.2463  0.1552 -0.0119
  882MOL0     C18948  -0.799   7.595   2.982 -0.0333  0.2933 -0.1777
  882MOL0     C18949  -0.931   7.551   3.057 -0.0693 -0.7880 -0.0391
  882MOL0     C18950  -1.049   7.608   2.977 -0.8261  0.0774 -0.3566
  882MOL0     C18951  -1.179   7.577   3.054 -0.2188  0.0999  0.6484
  882MOL0     N18952  -1.287   7.601   2.965  0.0119 -0.8103  0.5496
  882MOL0     C18953  -1.352   7.716   2.941 -0.2142  0.5202  0.3731
  882MOL0     C18954  -1.451   7.701   2.854  0.3693 -0.2352  0.9148
  882MOL0     C18955  -1.554   7.802   2.805 -0.8319  0.6637  0.0282
  882MOL0     C18956  -1.698   7.807   2.860 -0.3282  0.1226 -0.0144
  882MOL0     C18957  -1.784   7.695   2.807 -0.2497 -0.3123 -0.1828
  882MOL0     C18958  -1.912   7.681   2.892 -0.7204 -0.2747 -0.0929
  882MOL0     O18959  -1.956   7.545   2.848 -0.2619  0.3727  0.0191
  882MOL0     C18960  -2.088   7.536   2.833 -0.4189 -0.1567  0.3750
  882MOL0     C18961  -2.174   7.598   2.923 -0.1820 -0.4903  0.2376
  882MOL0     C18962  -2.313   7.589   2.900 -0.0641 -0.0083 -0.8945
  882MOL0     C18963  -2.407   7.663   3.008 -0.4130  0.4048  0.1476
  882MOL0     C18964  -2.362   7.504   2.801 -0.0959 -0.9761 -1.2292
  882MOL0     C18965  -2.503   7.480   2.766  0.8315  0.0085 -0.8079
  882MOL0     O18966  -2.542   7.342   2.765  0.4057 -0.4267  0.0408
  882MOL0     C18967  -2.663   7.315   2.710  0.2819  1.0895 -0.2453
  882MOL0     C18968  -2.678   7.227   2.599 -0.5679 -0.6092  0.0903
  882MOL0     C18969  -2.792   7.221   2.534  0.3981 -0.5840  0.5469
  882MOL0     C18970  -2.907   7.283   2.574 -1.0995  0.1296 -0.1023
  882MOL0     O18971  -3.027   7.256   2.523  0.1816 -0.2680 -0.6774
  882MOL0     C18972  -3.125   7.226   2.620 -0.7975  0.7561  0.2875
  882MOL0     C18973  -3.213   7.128   2.557  0.8030 -0.1770  0.6864
  882MOL0     C18974  -3.147   7.007   2.484 -0.1342 -0.5164  0.4206
  882MOL0     C18975  -3.078   6.915   2.592 -0.0611  0.0796  0.1782
  882MOL0     C18976  -3.034   6.780   2.542 -1.1100  0.8241  0.4196
  882MOL0     C18977  -2.919   6.723   2.624 -0.7888  0.5949  0.4447
  882MOL0     C18978  -2.892   6.592   2.567  1.1597  0.7557  0.3464
  882MOL0     C18979  -2.789   6.510   2.658  1.3581 -0.3300 -0.4109
  882MOL0    Cl18980  -2.745   6.372   2.569  0.0932 -0.1918  0.0320
  882MOL0     C18981  -2.903   7.366   2.693 -0.7204  1.2159  0.5074
  882MOL0     C18982  -2.780   7.379   2.756  1.0295 -0.5059  0.4625
  882MOL0     O18983  -2.580   7.571   2.721  0.9025 -0.5812  1.0014
  882MOL0     C18984  -2.271   7.447   2.714  0.3449 -0.3770  0.0832
  882MOL0     C18985  -2.135   7.458   2.725  0.3912 -0.2511 -0.9049
  882MOL0     N18986  -1.450   7.559   2.823  0.3526 -0.2966 -0.4972
  882MOL0     N18987  -1.352   7.504   2.898  0.4449 -0.4719  0.1283
  882MOL0     C18988  -0.039   7.647   2.988  0.2890  1.0604  0.0210
  882MOL0     C18989   0.083   7.712   2.992  0.1584  0.0859 -0.0115
  882MOL0     C18990   0.407   7.967   3.100 -0.4530 -0.3843 -0.4101
  882MOL0     C18991   0.508   7.897   3.030 -0.1394 -0.1973  0.3084
  882MOL0     C18992   0.632   7.951   2.996  1.3554  1.0520  0.4456
  882MOL0     C18993   0.658   8.087   3.013  0.3059  0.4042  0.2824
  882MOL0     O18994   0.759   8.141   2.947  0.7514 -1.5337  0.6772
  882MOL0     C18995   0.769   8.281   2.910 -0.7863  0.2155  0.4701
  882MOL0     C18996   0.808   8.371   3.028 -0.1646 -0.6921 -0.3061
  882MOL0     C18997   0.876   8.497   2.974  0.6718 -0.7186 -0.7240
  882MOL0     C18998   1.021   8.512   2.978  0.5948  1.0609  0.5781
  882MOL0     C18999   1.089   8.388   2.925  0.8180 -0.0860 -0.1000
  882MOL0     C19000   1.132   8.281   2.875 -0.1906 -0.2649 -0.6127
  882MOL0     C19001   0.556   8.156   3.086 -0.3595 -0.6742  0.2935
  882MOL0     C19002   0.431   8.096   3.124  0.3247  0.6550 -0.1372
  882MOL0     H19003   0.174   7.679   3.311  1.3814  1.7285 -0.9279
  882MOL0     H19004  -0.062   7.566   3.309 -0.7272 -0.9009 -1.1774
  882MOL0     H19005  -0.302   7.692   3.132  0.4311  0.9695 -2.6602
  882MOL0     H19006  -0.293   7.629   2.976 -0.2871 -0.1535  0.1429
  882MOL0     H19007  -0.435   7.424   3.067  0.6775  1.8033 -3.2059
  882MOL0     H19008  -0.443   7.516   3.225  2.9208  0.1114  1.1673
  882MOL0     H19009  -0.592   7.689   3.112 -0.0961  0.8559 -1.6874
  882MOL0     H19010  -0.527   7.641   2.951 -0.7778 -4.0126 -2.3524
  882MOL0     H19011  -0.662   7.435   2.967 -0.4092  0.1463 -0.2173
  882MOL0     H19012  -0.707   7.484   3.139 -0.7537  2.5850  0.6007
  882MOL0     H19013  -0.778   7.702   2.986 -3.1995  1.0322  3.1882
  882MOL0     H19014  -0.806   7.569   2.876  1.8265  2.5469 -0.9168
  882MOL0     H19015  -0.929   7.442   3.062  0.5784 -0.9327 -2.3142
  882MOL0     H19016  -0.930   7.594   3.157  0.6357  1.5635 -0.9912
  882MOL0     H19017  -1.044   7.717   2.968 -0.3052 -0.0688 -2.3387
  882MOL0     H19018  -1.047   7.567   2.876 -1.6338 -0.2103 -0.2601
  882MOL0     H19019  -1.171   7.628   3.150  4.2995  0.1468  0.4264
  882MOL0     H19020  -1.199   7.475   3.088 -1.0963  0.4736  1.3182
  882MOL0     H19021  -1.325   7.808   2.993 -0.3891  0.5950  0.3306
  882MOL0     H19022  -1.519   7.900   2.837 -1.8228  1.2080 -0.5311
  882MOL0     H19023  -1.562   7.794   2.697  0.1743 -0.9917  0.0299
  882MOL0     H19024  -1.742   7.904   2.835  0.1940  0.9110  1.9577
  882MOL0     H19025  -1.686   7.790   2.968 -1.1169 -0.6379 -0.0371
  882MOL0     H19026  -1.733   7.599   2.816 -0.2008 -0.2771 -0.0779
  882MOL0     H19027  -1.801   7.712   2.701  3.2716 -0.8507 -0.9307
  882MOL0     H19028  -1.974   7.765   2.856 -1.7910 -1.6504 -1.6421
  882MOL0     H19029  -1.896   7.688   3.000  0.6118 -1.7765 -0.1646
  882MOL0     H19030  -2.141   7.655   3.009 -0.3006  0.9162 -0.6109
  882MOL0     H19031  -2.436   7.765   2.984 -0.2873  0.7396  1.3556
  882MOL0     H19032  -2.498   7.603   3.017  0.2115 -0.6271 -0.1742
  882MOL0     H19033  -2.356   7.666   3.105  0.7342 -2.2881 -0.2900
  882MOL0     H19034  -2.592   7.179   2.555  0.3920  0.4705  0.7240
  882MOL0     H19035  -2.808   7.162   2.444 -1.3539  0.4993  0.0758
  882MOL0     H19036  -3.080   7.180   2.708  1.1220 -0.7602 -1.3813
  882MOL0     H19037  -3.173   7.322   2.643  0.6240  1.1989  1.4792
  882MOL0     H19038  -3.287   7.087   2.627  1.4245 -1.4604  0.6207
  882MOL0     H19039  -3.271   7.181   2.481  0.1519  0.6046  1.7045
  882MOL0     H19040  -3.073   7.049   2.416 -1.2982  1.7602  0.4727
  882MOL0     H19041  -3.225   6.950   2.432 -2.2510  1.3019  1.4141
  882MOL0     H19042  -2.994   6.968   2.636  0.1555 -1.1592  1.3372
  882MOL0     H19043  -3.145   6.887   2.674 -0.3094 -4.9832 -1.3873
  882MOL0     H19044  -3.011   6.791   2.435  1.1343  0.6512  0.8298
  882MOL0     H19045  -3.116   6.709   2.534  0.8805 -1.4690 -1.1117
  882MOL0     H19046  -2.830   6.786   2.625 -1.5410  1.7287 -0.6765
  882MOL0     H19047  -2.955   6.706   2.726 -1.3133 -1.4913 -0.0174
  882MOL0     H19048  -2.848   6.612   2.468  0.0843 -2.4756 -0.9047
  882MOL0     H19049  -2.988   6.539   2.568  2.0026 -0.9948 -2.0365
  882MOL0     H19050  -2.828   6.490   2.758  0.3394  0.3862 -0.6380
  882MOL0     H19051  -2.696   6.563   2.678  0.1118  2.3333 -1.1651
  882MOL0     H19052  -2.995   7.414   2.724 -1.1759  1.6204 -1.3504
  882MOL0     H19053  -2.773   7.439   2.846 -2.5317  3.1867 -1.3903
  882MOL0     H19054  -2.305   7.377   2.639 -0.4337 -0.7375  0.7509
  882MOL0     H19055  -2.077   7.388   2.665 -0.2515 -1.3811 -0.2407
  882MOL0     H19056  -0.098   7.625   2.900 -2.2878  2.0075  1.4048
  882MOL0     H19057   0.124   7.755   2.901  2.2307  0.9930  1.2809
  882MOL0     H19058   0.476   7.797   3.000 -0.2890 -0.2740  0.7219
  882MOL0     H19059   0.697   7.893   2.931 -0.8071  0.2583 -1.1397
  882MOL0     H19060   0.845   8.297   2.833  0.8690 -0.2124  1.9505
  882MOL0     H19061   0.676   8.319   2.867 -0.8340 -1.8468 -1.4346
  882MOL0     H19062   0.878   8.324   3.098  0.2026  2.2706  1.5124
  882MOL0     H19063   0.719   8.395   3.087 -0.3716 -0.9656 -0.5069
  882MOL0     H19064   0.831   8.574   3.038 -1.3232 -0.9347 -1.7962
  882MOL0     H19065   0.837   8.510   2.873 -2.5628  0.3840  0.5281
  882MOL0     H19066   1.060   8.526   3.079 -1.9501  2.6836  1.4367
  882MOL0     H19067   1.050   8.594   2.912 -0.4725  1.8840  1.0991
  882MOL0     H19068   1.166   8.191   2.827 -0.5873 -0.5149 -0.4329
  882MOL0     H19069   0.566   8.258   3.122 -2.3611 -0.5127  0.5506
  882MOL0     H19070   0.348   8.147   3.171  1.3962  0.8068  1.6909
  883MOL0     O19071   6.860   1.154   4.026  0.2005  0.0141 -0.1971
  883MOL0     C19072   6.935   1.122   4.118 -0.3534 -0.5619  0.4129
  883MOL0     O19073   6.901   1.096   4.251  0.7916 -0.1177  0.7067
  883MOL0     C19074   6.775   1.129   4.299 -0.0048  0.6789  0.2930
  883MOL0     C19075   6.685   1.222   4.253 -0.1603  0.1307  0.4617
  883MOL0     C19076   6.558   1.238   4.314  0.2007 -0.7091  0.4688
  883MOL0     C19077   6.524   1.176   4.435 -0.3027  0.9361 -0.4616
  883MOL0     O19078   6.402   1.190   4.490  0.3959 -0.7598 -0.3334
  883MOL0     C19079   6.395   1.185   4.638  0.2094 -0.1858 -0.1723
  883MOL0     C19080   6.252   1.179   4.698 -0.0173  1.0340 -1.0362
  883MOL0     C19081   6.169   1.302   4.662  0.5717 -0.1402  0.1929
  883MOL0     C19082   6.136   1.311   4.508  0.5478 -0.1965 -0.4759
  883MOL0     C19083   6.005   1.382   4.479 -0.6489 -0.2289 -0.9573
  883MOL0     C19084   6.014   1.527   4.517  0.4148  0.3527  0.5736
  883MOL0     C19085   6.089   1.617   4.416  0.9864  0.0231 -0.8008
  883MOL0     C19086   6.084   1.767   4.465  0.2230  0.0778  0.6312
  883MOL0     N19087   5.997   1.859   4.396 -0.3130 -0.3149 -0.9827
  883MOL0     C19088   5.868   1.881   4.423 -0.3012  0.4347 -0.5170
  883MOL0     C19089   5.823   1.979   4.339  0.2007 -0.4370  0.2026
  883MOL0     C19090   5.683   2.044   4.332 -0.1019 -0.1977 -0.9430
  883MOL0     C19091   5.611   2.056   4.467  0.4666 -0.3888  0.0633
  883MOL0     C19092   5.476   2.135   4.465 -0.3043  0.2371 -0.4316
  883MOL0     C19093   5.371   2.078   4.365 -0.1854  0.5406 -0.8010
  883MOL0     O19094   5.341   1.940   4.391 -0.6256  0.1176 -0.6204
  883MOL0     C19095   5.256   1.905   4.487 -0.3272  0.3619 -0.5304
  883MOL0     C19096   5.191   1.998   4.583 -0.5852  0.7837 -0.2334
  883MOL0     C19097   5.094   1.954   4.670 -0.4771 -0.6282  0.5212
  883MOL0     C19098   5.013   2.061   4.744 -0.1982 -0.6656  0.1339
  883MOL0     C19099   5.055   1.821   4.666 -0.5455  0.1519 -0.8028
  883MOL0     C19100   4.951   1.757   4.759 -0.5135  0.2173 -0.0486
  883MOL0     O19101   4.905   1.638   4.715  0.3977  0.2151  0.3133
  883MOL0     C19102   4.814   1.578   4.797  0.3081  0.2546 -0.2008
  883MOL0     C19103   4.681   1.546   4.747 -0.0470  0.1294 -0.4000
  883MOL0     C19104   4.596   1.489   4.845  0.2214 -0.0318 -0.5359
  883MOL0     C19105   4.631   1.471   4.974  0.9633  0.1492 -0.6490
  883MOL0     O19106   4.537   1.408   5.057  0.1011  0.6626  0.4644
  883MOL0     C19107   4.555   1.395   5.198 -0.3835  0.1242  0.4704
  883MOL0     C19108   4.430   1.337   5.263 -1.0643 -0.2630  0.1014
  883MOL0     C19109   4.319   1.428   5.260  0.2590  0.3696 -0.1830
  883MOL0     C19110   4.328   1.547   5.357  0.0960  0.2477 -0.4951
  883MOL0     C19111   4.220   1.644   5.346  0.3502  0.0700 -0.3135
  883MOL0     C19112   4.071   1.601   5.345  0.3552  0.7237 -0.5276
  883MOL0     C19113   3.973   1.728   5.334 -0.6585  0.7322 -0.0489
  883MOL0     C19114   3.833   1.663   5.350  0.4296  0.2441 -0.7455
  883MOL0    Cl19115   3.686   1.773   5.315 -0.5043  0.0897 -0.6903
  883MOL0     C19116   4.757   1.515   5.026  0.7937  0.5502 -0.3218
  883MOL0     C19117   4.853   1.555   4.929 -0.0689  0.1968  0.0834
  883MOL0     O19118   4.925   1.816   4.861 -0.1920  0.1644  0.3825
  883MOL0     C19119   5.118   1.725   4.583 -0.2841  0.3814 -0.4016
  883MOL0     C19120   5.218   1.770   4.495  0.6709 -0.3169 -0.2272
  883MOL0     N19121   5.929   2.022   4.268  0.3675 -0.2548  0.4547
  883MOL0     N19122   6.032   1.955   4.307  0.7125  0.0234  0.4234
  883MOL0     C19123   6.614   1.081   4.477  0.7461  0.1491  0.1399
  883MOL0     C19124   6.735   1.061   4.406 -0.3093  0.5075  0.4785
  883MOL0     C19125   7.079   1.104   4.075 -0.2696  0.5664  0.5118
  883MOL0     C19126   7.179   1.077   4.166 -0.3645 -0.7905  0.1928
  883MOL0     C19127   7.315   1.063   4.129 -0.3641 -0.4898 -0.3509
  883MOL0     C19128   7.353   1.081   3.988 -0.7991 -0.4188  0.2606
  883MOL0     O19129   7.478   1.088   3.941 -0.4084  0.3627 -0.6121
  883MOL0     C19130   7.592   1.030   4.021  1.6141  0.7184  0.1776
  883MOL0     C19131   7.691   1.139   4.042 -0.2753 -0.1063  0.0461
  883MOL0     C19132   7.812   1.086   4.115 -0.1398  0.6565 -0.1349
  883MOL0     C19133   7.911   1.201   4.127  0.0579  0.5304 -0.2282
  883MOL0     C19134   8.038   1.175   4.198 -1.3837 -0.4841 -0.4872
  883MOL0     C19135   8.136   1.160   4.271  0.9012  0.3451  1.1435
  883MOL0     C19136   7.253   1.104   3.897 -0.2898 -0.0476  0.8881
  883MOL0     C19137   7.117   1.128   3.944 -0.3161 -0.3492  1.0965
  883MOL0     H19138   6.730   1.281   4.174  0.9144  0.7671  1.5179
  883MOL0     H19139   6.489   1.311   4.274  0.1019 -0.6088  0.8242
  883MOL0     H19140   6.443   1.096   4.680  0.6536 -0.1668 -0.6337
  883MOL0     H19141   6.442   1.275   4.679  2.3111 -1.2820 -0.0132
  883MOL0     H19142   6.201   1.089   4.663 -2.1151  1.8052 -0.1824
  883MOL0     H19143   6.267   1.177   4.806  1.9872  3.6087 -1.1632
  883MOL0     H19144   6.073   1.299   4.715  1.7267 -1.7147  2.3477
  883MOL0     H19145   6.221   1.394   4.693 -2.1100  1.9136 -1.0396
  883MOL0     H19146   6.217   1.367   4.463 -0.5466  0.5585 -1.5549
  883MOL0     H19147   6.138   1.209   4.468  0.2292 -0.3212 -0.1845
  883MOL0     H19148   5.975   1.366   4.375  1.4707 -2.9402 -1.2609
  883MOL0     H19149   5.919   1.334   4.527 -0.2879  1.0225  1.0213
  883MOL0     H19150   5.908   1.550   4.507  0.8340  1.3367 -2.6651
  883MOL0     H19151   6.059   1.542   4.616  0.6133  0.6150  0.4441
  883MOL0     H19152   6.193   1.592   4.395  2.3015  3.1991  1.3233
  883MOL0     H19153   6.035   1.604   4.321 -1.2931 -2.5632  0.6827
  883MOL0     H19154   6.187   1.803   4.467  0.4426 -0.3946 -1.0257
  883MOL0     H19155   6.057   1.770   4.571 -1.0879  0.3536  0.3044
  883MOL0     H19156   5.815   1.832   4.504 -0.7390  1.1572 -0.3544
  883MOL0     H19157   5.689   2.142   4.284  0.3139 -1.4058 -3.4738
  883MOL0     H19158   5.627   1.976   4.267  1.1948 -0.3709 -1.8934
  883MOL0     H19159   5.678   2.107   4.537  0.8042  0.1884 -0.6739
  883MOL0     H19160   5.596   1.958   4.514 -0.9052  0.6662  1.9163
  883MOL0     H19161   5.479   2.243   4.451 -3.3999  0.3710 -0.9645
  883MOL0     H19162   5.435   2.139   4.566  4.1867  2.3583  1.5292
  883MOL0     H19163   5.409   2.088   4.262  3.5435 -2.0399  0.0931
  883MOL0     H19164   5.283   2.142   4.370  0.8513  1.9473  0.2539
  883MOL0     H19165   5.223   2.101   4.586  3.9705 -0.3228  4.5099
  883MOL0     H19166   5.043   2.084   4.847 -2.3337  0.3834  0.5827
  883MOL0     H19167   5.016   2.151   4.683  2.3638  0.3416  1.6046
  883MOL0     H19168   4.907   2.038   4.758 -0.2984 -0.6484 -0.5730
  883MOL0     H19169   4.633   1.566   4.652  1.0221  0.1527 -0.9463
  883MOL0     H19170   4.494   1.455   4.826  0.5289 -2.3133  1.4626
  883MOL0     H19171   4.630   1.317   5.212 -1.7788 -1.8940 -2.2443
  883MOL0     H19172   4.583   1.489   5.245 -1.7191  0.3727  0.8273
  883MOL0     H19173   4.398   1.243   5.219 -0.7510  0.5610 -1.9996
  883MOL0     H19174   4.448   1.314   5.368 -3.7367 -2.0748  0.2508
  883MOL0     H19175   4.233   1.368   5.292 -1.7315  0.8668 -3.9753
  883MOL0     H19176   4.296   1.459   5.157  1.6317 -2.5508 -1.4955
  883MOL0     H19177   4.341   1.518   5.462  0.8597  1.8984 -0.1062
  883MOL0     H19178   4.425   1.590   5.333  2.2150 -2.9165  1.5642
  883MOL0     H19179   4.238   1.697   5.252  2.5566 -0.5885 -0.3139
  883MOL0     H19180   4.241   1.721   5.420  3.9406 -0.9947 -0.0507
  883MOL0     H19181   4.055   1.536   5.258  1.1829 -1.5057  0.9013
  883MOL0     H19182   4.062   1.542   5.436  1.0251 -1.3679 -1.7335
  883MOL0     H19183   3.983   1.782   5.240  3.4496 -1.6317 -1.2509
  883MOL0     H19184   3.992   1.802   5.413 -0.4830 -0.7881  1.3897
  883MOL0     H19185   3.822   1.626   5.453 -0.1151 -0.1773 -0.9492
  883MOL0     H19186   3.813   1.580   5.282 -0.9761  1.5450 -1.9862
  883MOL0     H19187   4.794   1.499   5.127 -0.7369 -1.4457 -0.0203
  883MOL0     H19188   4.954   1.574   4.966 -0.5477  1.4221  0.8382
  883MOL0     H19189   5.086   1.623   4.568  2.8182 -1.0302  1.5916
  883MOL0     H19190   5.266   1.701   4.426 -3.2114 -0.7171 -2.8607
  883MOL0     H19191   6.594   1.008   4.555  1.7778 -2.4306 -1.8373
  883MOL0     H19192   6.808   0.985   4.429 -0.7145 -0.9356 -2.5403
  883MOL0     H19193   7.153   1.065   4.271 -0.9931  1.8786  0.3970
  883MOL0     H19194   7.391   1.051   4.205 -1.1326  1.2291  0.7581
  883MOL0     H19195   7.565   0.976   4.112 -1.8375  3.1296  0.7777
  883MOL0     H19196   7.639   0.953   3.960  1.4113  0.6760  0.0739
  883MOL0     H19197   7.637   1.209   4.106 -4.9550 -2.4413 -0.9268
  883MOL0     H19198   7.720   1.172   3.943  0.2290 -2.5001 -0.6837
  883MOL0     H19199   7.860   1.013   4.050  3.7283  3.5262 -0.8430
  883MOL0     H19200   7.783   1.033   4.206  1.0633  1.7441  0.9334
  883MOL0     H19201   7.855   1.279   4.179 -0.3792  0.5969 -0.7890
  883MOL0     H19202   7.943   1.229   4.027 -1.3239  0.5257 -0.6885
  883MOL0     H19203   8.227   1.139   4.323  0.7335 -0.6915  1.0479
  883MOL0     H19204   7.261   1.128   3.791 -0.2074  0.7959  1.0787
  883MOL0     H19205   7.039   1.149   3.872 -0.7365 -0.2253  1.5802
  884MOL0     O19206   9.584   9.915   8.657 -0.4380  0.0326 -0.2080
  884MOL0     C19207   9.607   9.857   8.555 -0.6541 -0.6851  0.3380
  884MOL0     O19208   9.546   9.744   8.525  0.9372  1.3031  0.7145
  884MOL0     C19209   9.483   9.662   8.617  0.4628 -0.3139 -0.2423
  884MOL0     C19210   9.371   9.713   8.687  0.1531 -0.0863 -0.4246
  884MOL0     C19211   9.297   9.628   8.768  0.0306 -0.5864  0.9719
  884MOL0     C19212   9.335   9.497   8.787 -0.1318 -0.0666 -0.1891
  884MOL0     O19213   9.258   9.401   8.859 -0.3963  0.9595  0.2818
  884MOL0     C19214   9.178   9.442   8.965 -0.7011  0.2301 -0.3329
  884MOL0     C19215   9.106   9.320   9.035 -0.7134  0.2488  1.0548
  884MOL0     C19216   9.008   9.372   9.143 -0.2871  0.1940 -0.1677
  884MOL0     C19217   8.902   9.281   9.198  0.1885  0.3973 -0.0350
  884MOL0     C19218   8.838   9.331   9.323 -0.0552 -0.7042 -0.0834
  884MOL0     C19219   8.702   9.268   9.336  0.0687  0.3592  0.9968
  884MOL0     C19220   8.623   9.306   9.458  0.4902 -0.1391  0.8989
  884MOL0     C19221   8.523   9.419   9.428 -0.5573  0.8508 -0.4692
  884MOL0     N19222   8.415   9.376   9.343  1.0417  0.0860  0.4436
  884MOL0     C19223   8.320   9.282   9.367 -1.0995  0.8752 -0.9175
  884MOL0     C19224   8.233   9.286   9.262  0.0193  0.3550  0.2244
  884MOL0     C19225   8.114   9.209   9.250  0.1301 -0.7471 -0.8346
  884MOL0     C19226   8.011   9.293   9.177 -0.0945  0.5721 -0.3600
  884MOL0     C19227   7.939   9.386   9.283 -0.5376 -0.7973  0.0263
  884MOL0     C19228   7.917   9.513   9.198 -0.1001  0.1283  0.5708
  884MOL0     O19229   7.838   9.484   9.083  0.2486 -0.1634 -0.3001
  884MOL0     C19230   7.700   9.511   9.092  0.5966  0.5434 -0.2376
  884MOL0     C19231   7.612   9.446   9.001 -0.4991 -0.4043 -0.2716
  884MOL0     C19232   7.468   9.458   9.005  0.2478 -0.3183 -0.4870
  884MOL0     C19233   7.388   9.381   8.895 -0.1533 -0.3839 -0.4378
  884MOL0     C19234   7.407   9.549   9.085 -0.0249 -1.1499 -0.0803
  884MOL0     C19235   7.259   9.578   9.098  0.2443  0.4985 -0.0328
  884MOL0     O19236   7.191   9.459   9.092 -0.0042  0.6751  0.3098
  884MOL0     C19237   7.050   9.468   9.085  0.1571 -0.5044 -0.4837
  884MOL0     C19238   6.984   9.424   8.972 -0.5317  0.0629  0.3062
  884MOL0     C19239   6.844   9.423   8.958 -0.2190  0.8234 -0.8347
  884MOL0     C19240   6.766   9.477   9.063  0.2497 -0.3893  0.0357
  884MOL0     O19241   6.628   9.484   9.062 -0.2468 -0.0056  0.0704
  884MOL0     C19242   6.570   9.369   9.001  0.4548 -0.2152 -0.0792
  884MOL0     C19243   6.455   9.322   9.087 -0.5635 -0.2946  0.2880
  884MOL0     C19244   6.319   9.361   9.041 -0.1241  0.4053  0.7953
  884MOL0     C19245   6.270   9.265   8.930 -0.3412 -0.2302 -0.2673
  884MOL0     C19246   6.123   9.278   8.897 -0.1603  0.3181  0.1727
  884MOL0     C19247   6.099   9.151   8.818 -0.1439  0.2318  0.9553
  884MOL0     C19248   5.954   9.147   8.788  0.8189  0.1885 -0.2294
  884MOL0     C19249   5.918   9.008   8.743  0.8819 -0.4174  0.3123
  884MOL0    Cl19250   5.744   8.995   8.747 -0.7804  0.1598 -0.0776
  884MOL0     C19251   6.831   9.518   9.177  0.3232  0.0166  0.2093
  884MOL0     C19252   6.973   9.510   9.199 -0.0361  0.0336 -0.4781
  884MOL0     O19253   7.220   9.687   9.149 -0.4903  0.7558 -0.5075
  884MOL0     C19254   7.492   9.627   9.176 -0.1751  0.7915  0.9253
  884MOL0     C19255   7.627   9.599   9.176  0.7129  0.1144  0.4866
  884MOL0     N19256   8.268   9.387   9.177 -0.0560 -0.0801  0.2346
  884MOL0     N19257   8.377   9.435   9.222  0.2114  0.3749  0.3769
  884MOL0     C19258   9.451   9.459   8.719  0.0856 -0.1171 -0.2527
  884MOL0     C19259   9.513   9.530   8.622  0.9752  0.6520 -0.6141
  884MOL0     C19260   9.706   9.926   8.464  0.5216 -0.4726 -0.1846
  884MOL0     C19261   9.739   9.868   8.341  1.1876  0.2079  0.1277
  884MOL0     C19262   9.821   9.932   8.243 -0.5005 -0.0968  0.1244
  884MOL0     C19263   9.860  10.064   8.272  0.4436 -0.1368  0.2781
  884MOL0     O19264   9.937  10.125   8.173  0.7025  0.9560  0.1980
  884MOL0     C19265  10.039  10.227   8.200 -0.5881  0.6403  0.4659
  884MOL0     C19266  10.157  10.165   8.280  0.5382 -0.0376 -0.5204
  884MOL0     C19267  10.212  10.046   8.194 -0.1237 -0.4365 -0.0313
  884MOL0     C19268  10.236   9.926   8.289  0.6885 -1.2912 -1.0427
  884MOL0     C19269  10.349   9.958   8.381  0.5350  0.5132 -0.3358
  884MOL0     C19270  10.433   9.983   8.462  0.0846 -0.7842 -0.2233
  884MOL0     C19271   9.815  10.128   8.381 -0.4730 -0.8750 -0.5502
  884MOL0     C19272   9.749  10.062   8.484 -0.6949  0.1789 -0.6812
  884MOL0     H19273   9.355   9.818   8.666  3.1819  0.4486 -0.4404
  884MOL0     H19274   9.215   9.670   8.824 -0.6524  1.4288 -1.3362
  884MOL0     H19275   9.243   9.492   9.038  1.9588 -1.2451 -1.5374
  884MOL0     H19276   9.107   9.516   8.929  0.1252  1.6210  0.7837
  884MOL0     H19277   9.046   9.265   8.962  1.6156  1.5129 -2.0675
  884MOL0     H19278   9.177   9.247   9.077  0.4959  1.5852  1.4283
  884MOL0     H19279   9.067   9.402   9.230 -0.4324 -1.7131  0.6498
  884MOL0     H19280   8.952   9.456   9.102  0.6314 -0.2223 -2.4092
  884MOL0     H19281   8.823   9.255   9.126 -1.0793 -0.2236  1.5097
  884MOL0     H19282   8.947   9.187   9.233  0.2467  0.8299  1.0902
  884MOL0     H19283   8.900   9.322   9.413 -0.4891  0.5868  0.3752
  884MOL0     H19284   8.833   9.439   9.307  1.0775 -0.9081 -2.1124
  884MOL0     H19285   8.636   9.290   9.251 -3.7759  0.5144  3.7582
  884MOL0     H19286   8.717   9.159   9.337 -2.3650 -0.0660 -0.6862
  884MOL0     H19287   8.569   9.216   9.490  0.3472  0.3662  2.1238
  884MOL0     H19288   8.697   9.334   9.534  3.6769  0.4798 -2.1707
  884MOL0     H19289   8.566   9.504   9.373  1.4131  0.9264  1.0679
  884MOL0     H19290   8.488   9.454   9.525  0.3579 -2.2650  1.1148
  884MOL0     H19291   8.306   9.209   9.445  0.8597  1.5129  0.1086
  884MOL0     H19292   8.141   9.117   9.197  7.0954 -0.3928  1.1160
  884MOL0     H19293   8.074   9.179   9.347  0.8061  1.0478  0.0438
  884MOL0     H19294   7.935   9.226   9.137  1.7845 -3.0905  1.6451
  884MOL0     H19295   8.057   9.348   9.094 -1.3816  1.4971 -0.4824
  884MOL0     H19296   7.999   9.423   9.368 -0.8182  1.6073 -0.7438
  884MOL0     H19297   7.845   9.341   9.316 -2.2563  2.8428  0.6030
  884MOL0     H19298   8.015   9.554   9.173  0.1797 -0.3787  0.8218
  884MOL0     H19299   7.868   9.592   9.254 -0.6593  0.4128 -0.3010
  884MOL0     H19300   7.673   9.402   8.924 -0.8790 -1.2492 -0.0955
  884MOL0     H19301   7.454   9.355   8.811  0.8724 -0.1390  0.2787
  884MOL0     H19302   7.349   9.288   8.938 -0.5440  1.1024  2.7178
  884MOL0     H19303   7.300   9.432   8.855 -1.2931 -1.5985  0.4489
  884MOL0     H19304   7.045   9.374   8.897  1.9710  1.5889  1.2161
  884MOL0     H19305   6.797   9.393   8.865  1.0678  2.3361 -2.0472
  884MOL0     H19306   6.527   9.385   8.901 -2.5739 -2.3076  0.7716
  884MOL0     H19307   6.643   9.288   8.999  1.3944  0.4610  2.5514
  884MOL0     H19308   6.458   9.215   9.110 -0.0008 -0.4561 -0.5044
  884MOL0     H19309   6.458   9.377   9.182 -2.4006 -0.3332  0.3921
  884MOL0     H19310   6.317   9.462   9.000 -2.7241 -0.2971 -1.0483
  884MOL0     H19311   6.254   9.347   9.128 -1.9746 -3.1531 -0.9363
  884MOL0     H19312   6.341   9.283   8.848  1.4815  2.2732  1.6839
  884MOL0     H19313   6.295   9.166   8.970 -0.2365 -1.0478 -2.2516
  884MOL0     H19314   6.107   9.363   8.830  0.9780  1.0705  0.8151
  884MOL0     H19315   6.059   9.297   8.984  0.5689 -1.4749  1.1504
  884MOL0     H19316   6.155   9.134   8.726 -2.7397  2.1775 -1.1507
  884MOL0     H19317   6.126   9.072   8.889 -1.0305  1.8888  3.2458
  884MOL0     H19318   5.921   9.227   8.721 -0.5648  0.6577  0.9506
  884MOL0     H19319   5.897   9.160   8.881  1.8393 -0.5516  0.5098
  884MOL0     H19320   5.973   8.932   8.799  0.8869 -3.0331 -2.9390
  884MOL0     H19321   5.959   8.998   8.642  2.7808  1.8090  0.7768
  884MOL0     H19322   6.764   9.560   9.252 -0.0311 -0.9256  0.4300
  884MOL0     H19323   7.012   9.538   9.296  0.3575 -0.8665 -0.3587
  884MOL0     H19324   7.443   9.695   9.245 -1.4950 -1.1110  1.9469
  884MOL0     H19325   7.666   9.673   9.245  0.7045 -0.1657  0.7955
  884MOL0     H19326   9.472   9.353   8.724  1.8440  0.2375  3.5157
  884MOL0     H19327   9.597   9.494   8.564 -0.2816 -0.6393 -1.7403
  884MOL0     H19328   9.707   9.768   8.312 -1.5113  0.8779  0.5118
  884MOL0     H19329   9.852   9.883   8.150  2.2621 -2.8176  2.2600
  884MOL0     H19330  10.082  10.262   8.105  2.5313 -0.7893  1.2330
  884MOL0     H19331  10.018  10.318   8.255  0.1130  1.3287 -0.3761
  884MOL0     H19332  10.124  10.132   8.379 -1.1232 -0.3083 -1.1312
  884MOL0     H19333  10.238  10.236   8.298  1.2787 -0.3358 -2.3988
  884MOL0     H19334  10.303  10.080   8.143 -1.6347  2.0135 -1.2808
  884MOL0     H19335  10.140  10.022   8.116  0.0595  1.2690 -0.7776
  884MOL0     H19336  10.254   9.841   8.222  3.1884 -1.8663  0.2728
  884MOL0     H19337  10.144   9.901   8.343  0.4146  2.5832  0.5576
  884MOL0     H19338  10.508  10.000   8.537 -1.7750  1.8610  1.2065
  884MOL0     H19339   9.849  10.230   8.397  0.9537 -1.3288 -0.6317
  884MOL0     H19340   9.734  10.117   8.577  0.7619  0.0423 -0.3246
  885MOL0     O19341   4.123   2.052   9.679 -0.8683  0.3145 -0.7533
  885MOL0     C19342   4.187   2.107   9.771  1.2145  0.4272  0.5803
  885MOL0     O19343   4.129   2.137   9.888  0.5803  0.9785  0.4091
  885MOL0     C19344   4.004   2.089   9.907  0.0415  0.9154 -0.3185
  885MOL0     C19345   3.899   2.154   9.843 -0.8172 -0.1412  0.2736
  885MOL0     C19346   3.770   2.117   9.859  0.1808  0.1949 -1.0191
  885MOL0     C19347   3.740   2.024   9.964 -0.0639 -0.2667  0.4901
  885MOL0     O19348   3.606   1.999   9.981  0.3229 -0.0172 -0.2796
  885MOL0     C19349   3.575   1.874  10.035  0.2919  0.5578  0.8849
  885MOL0     C19350   3.424   1.850  10.035 -1.1713 -0.6864 -0.3406
  885MOL0     C19351   3.396   1.702  10.051  0.2554 -0.2858 -0.2582
  885MOL0     C19352   3.247   1.671  10.064 -0.6288  0.4579 -0.3822
  885MOL0     C19353   3.228   1.527  10.097  0.0069 -0.5729 -0.7556
  885MOL0     C19354   3.092   1.488  10.157 -0.6633  0.1093  0.0710
  885MOL0     C19355   3.068   1.341  10.170 -0.1989 -0.1660 -0.4445
  885MOL0     C19356   2.939   1.304  10.235 -0.4559  0.2037  0.1215
  885MOL0     N19357   2.906   1.162  10.203 -0.9280  0.3247  0.5939
  885MOL0     C19358   2.840   1.115  10.092 -0.2305  1.1299 -0.4800
  885MOL0     C19359   2.855   0.978  10.091 -0.0899 -0.1885  0.5111
  885MOL0     C19360   2.801   0.879   9.988 -0.3329 -0.0556  0.2136
  885MOL0     C19361   2.793   0.938   9.844  0.6491  0.0207  0.0428
  885MOL0     C19362   2.663   0.894   9.769  0.3613  0.7078 -0.5613
  885MOL0     C19363   2.524   0.898   9.845 -0.0394  0.2633  0.0029
  885MOL0     O19364   2.504   1.021   9.911 -0.2236 -0.2073 -0.6816
  885MOL0     C19365   2.390   1.062   9.963 -0.3166 -0.7089  0.3225
  885MOL0     C19366   2.273   0.992   9.966 -0.6041  0.3993 -0.5407
  885MOL0     C19367   2.141   1.052   9.993 -0.4536  0.0852 -0.1319
  885MOL0     C19368   2.018   0.960   9.977  0.0595  0.7966 -0.9732
  885MOL0     C19369   2.138   1.184  10.051  0.5561  0.5804 -0.1030
  885MOL0     C19370   2.019   1.254  10.105 -0.3481  0.1856 -1.0022
  885MOL0     O19371   2.041   1.379  10.142  0.2252 -0.9428  0.3501
  885MOL0     C19372   1.944   1.458  10.190  0.2336  0.1400  0.0164
  885MOL0     C19373   1.888   1.421  10.309 -0.4236 -0.1681 -0.1973
  885MOL0     C19374   1.781   1.500  10.359 -1.5062  0.8105 -0.7419
  885MOL0     C19375   1.757   1.628  10.306 -0.1952 -0.0744 -0.5490
  885MOL0     O19376   1.648   1.705  10.346 -0.2164 -0.2968  0.5364
  885MOL0     C19377   1.633   1.701  10.492  0.1515 -0.8881 -0.2788
  885MOL0     C19378   1.654   1.841  10.543 -0.4142  0.8605  0.3287
  885MOL0     C19379   1.793   1.886  10.511 -0.5301  0.4414  0.0842
  885MOL0     C19380   1.833   2.026  10.574  1.2735  0.3166 -1.0582
  885MOL0     C19381   1.719   2.126  10.534 -0.4336 -0.9414 -0.5350
  885MOL0     C19382   1.765   2.268  10.556 -0.4086 -0.3087 -0.2835
  885MOL0     C19383   1.881   2.309  10.465 -0.1651  0.3423 -0.3252
  885MOL0     C19384   1.922   2.460  10.453  0.5826 -0.0900 -0.0604
  885MOL0    Cl19385   2.011   2.493  10.294 -0.2188  0.1287 -0.0922
  885MOL0     C19386   1.834   1.668  10.199 -0.4770 -0.2190  0.4876
  885MOL0     C19387   1.924   1.582  10.141 -0.5008 -0.0517  0.3614
  885MOL0     O19388   1.919   1.188  10.134  0.6190 -0.7201 -0.8957
  885MOL0     C19389   2.261   1.245  10.058 -0.1415 -0.4433 -0.3427
  885MOL0     C19390   2.376   1.192  10.011  0.3119 -0.4803  0.1464
  885MOL0     N19391   2.928   0.952  10.200  0.1799  0.4594  0.0750
  885MOL0     N19392   2.964   1.057  10.264  0.4657 -0.0369  0.3921
  885MOL0     C19393   3.844   1.963  10.038  0.4672  0.1792 -0.3689
  885MOL0     C19394   3.972   2.003  10.013  0.0168 -0.0257 -0.4774
  885MOL0     C19395   4.326   2.137   9.757 -0.3408  0.3809 -0.1019
  885MOL0     C19396   4.396   2.127   9.631  0.5495  0.6076 -0.7587
  885MOL0     C19397   4.533   2.160   9.617  0.6066  0.3674 -0.4687
  885MOL0     C19398   4.601   2.212   9.737 -0.3263  0.2713  0.5197
  885MOL0     O19399   4.724   2.250   9.705 -0.7848 -0.3401  0.0092
  885MOL0     C19400   4.812   2.278   9.815 -0.5451 -0.8701 -0.7051
  885MOL0     C19401   4.953   2.274   9.763  0.1083  1.0508  0.6499
  885MOL0     C19402   5.028   2.369   9.851  0.5524  0.3361 -0.0631
  885MOL0     C19403   5.028   2.327   9.994 -0.4949  0.4964  0.0415
  885MOL0     C19404   5.131   2.231  10.036 -0.4302 -0.2722 -0.4691
  885MOL0     C19405   5.224   2.155  10.062 -0.0926  1.0238 -0.0758
  885MOL0     C19406   4.528   2.227   9.862  0.3758  0.4634 -0.2147
  885MOL0     C19407   4.395   2.179   9.874 -0.3745  0.9321  0.3089
  885MOL0     H19408   3.931   2.213   9.758 -0.9803 -0.5964 -0.1077
  885MOL0     H19409   3.685   2.161   9.807 -1.0753 -0.9028 -0.0035
  885MOL0     H19410   3.630   1.812   9.964 -1.1383 -2.7019  2.3935
  885MOL0     H19411   3.595   1.849  10.140 -0.2653 -3.2974  0.2141
  885MOL0     H19412   3.388   1.912  10.118 -0.8305 -0.0208 -0.6807
  885MOL0     H19413   3.391   1.880   9.935  1.4548  1.8182 -0.5733
  885MOL0     H19414   3.435   1.655   9.961  0.6962 -2.4050  0.9499
  885MOL0     H19415   3.462   1.662  10.129  1.8435  3.5765  0.5902
  885MOL0     H19416   3.208   1.737  10.142  0.3388  0.8330 -0.1972
  885MOL0     H19417   3.186   1.690   9.975  1.4216  0.1250 -1.9337
  885MOL0     H19418   3.244   1.464  10.009 -4.2813 -1.6914 -0.9434
  885MOL0     H19419   3.305   1.500  10.170  0.9333 -3.1048 -2.5387
  885MOL0     H19420   3.087   1.539  10.254  0.9715  1.0305 -0.2957
  885MOL0     H19421   3.008   1.518  10.094 -0.1852  0.6262 -0.3239
  885MOL0     H19422   3.075   1.308  10.066  2.6680  0.5497 -0.5555
  885MOL0     H19423   3.155   1.294  10.216 -0.3438 -0.8571 -0.8568
  885MOL0     H19424   2.857   1.368  10.203 -0.1294  1.6206  1.9718
  885MOL0     H19425   2.961   1.321  10.341  0.3996  1.0082 -0.1720
  885MOL0     H19426   2.789   1.181  10.024 -4.2821 -0.0417  1.1052
  885MOL0     H19427   2.873   0.796   9.989 -1.9009 -1.5451 -1.7068
  885MOL0     H19428   2.708   0.825  10.010  0.5202 -1.1091  1.4267
  885MOL0     H19429   2.881   0.903   9.789  0.8484 -0.3308  0.5733
  885MOL0     H19430   2.809   1.047   9.847  4.4818 -0.3643 -1.0922
  885MOL0     H19431   2.676   0.786   9.758 -0.2981  0.7220 -1.6465
  885MOL0     H19432   2.662   0.925   9.664 -3.0574  0.6881 -0.6569
  885MOL0     H19433   2.520   0.827   9.929 -0.3291 -0.6907 -0.7988
  885MOL0     H19434   2.441   0.870   9.780 -0.6111 -1.3305  1.3420
  885MOL0     H19435   2.269   0.886   9.945 -1.5257  0.1375  0.8674
  885MOL0     H19436   1.947   1.008   9.910  0.8618  0.3516 -2.1706
  885MOL0     H19437   2.044   0.864   9.931 -0.4500  0.2485 -0.1558
  885MOL0     H19438   1.972   0.943  10.075 -1.8825 -2.4661 -2.3045
  885MOL0     H19439   1.925   1.335  10.364 -1.0251 -1.4856 -1.7719
  885MOL0     H19440   1.722   1.456  10.438 -1.6505  3.6816  0.8478
  885MOL0     H19441   1.533   1.664  10.518 -2.2563  2.5191 -3.6085
  885MOL0     H19442   1.709   1.644  10.547  2.6645  0.4238 -2.2060
  885MOL0     H19443   1.578   1.903  10.494 -0.4033  1.5668  1.1818
  885MOL0     H19444   1.646   1.858  10.651  0.9664 -1.2445  0.8331
  885MOL0     H19445   1.809   1.890  10.403 -1.6161 -0.6785 -0.1314
  885MOL0     H19446   1.862   1.811  10.551 -1.9556 -0.0172  1.8213
  885MOL0     H19447   1.835   2.026  10.683 -1.0730 -1.1042 -0.9490
  885MOL0     H19448   1.937   2.052  10.552  0.8611  1.5017 -1.6942
  885MOL0     H19449   1.633   2.110  10.600  0.3781 -2.2295  0.2704
  885MOL0     H19450   1.700   2.115  10.427  1.0245  0.1061 -0.9377
  885MOL0     H19451   1.678   2.333  10.539  0.5828  0.7468 -1.4812
  885MOL0     H19452   1.800   2.280  10.659 -0.8494 -0.8725 -0.0612
  885MOL0     H19453   1.864   2.277  10.362 -1.4338  2.7950 -0.9685
  885MOL0     H19454   1.961   2.244  10.501  0.3746  1.0074 -0.2997
  885MOL0     H19455   1.970   2.507  10.539  0.2972  1.7725 -0.8668
  885MOL0     H19456   1.827   2.513  10.448  0.9535  0.4961 -1.3204
  885MOL0     H19457   1.829   1.767  10.154  1.0928 -1.3862 -2.5548
  885MOL0     H19458   1.980   1.600  10.051 -1.6827  0.4131 -0.3047
  885MOL0     H19459   2.275   1.340  10.109 -0.8895  0.5212 -1.8719
  885MOL0     H19460   2.472   1.243  10.007  1.2627 -2.2288 -1.6713
  885MOL0     H19461   3.826   1.880  10.105 -3.5810  0.1954 -1.2282
  885MOL0     H19462   4.063   1.970  10.062  0.8173  1.0921 -1.1592
  885MOL0     H19463   4.337   2.092   9.547  0.6529 -1.2213 -0.0984
  885MOL0     H19464   4.597   2.149   9.530  2.6231  2.5754  0.6296
  885MOL0     H19465   4.796   2.382   9.846 -0.5385  0.5252 -4.7472
  885MOL0     H19466   4.807   2.195   9.886 -0.4884  1.2223  1.9076
  885MOL0     H19467   4.955   2.319   9.663 -0.3481  1.8899  1.0067
  885MOL0     H19468   4.982   2.169   9.766 -1.9285  0.4407  0.4988
  885MOL0     H19469   4.998   2.472   9.832 -2.7816 -0.6961 -1.0805
  885MOL0     H19470   5.134   2.368   9.823  0.8516 -0.8927  1.0091
  885MOL0     H19471   4.939   2.282  10.039  1.2912 -1.9519  1.3520
  885MOL0     H19472   5.034   2.423  10.046 -1.7872  1.5334 -1.6116
  885MOL0     H19473   5.313   2.098  10.079  0.2724  0.9363 -2.0408
  885MOL0     H19474   4.571   2.274   9.950  0.5350 -0.1923  0.0566
  885MOL0     H19475   4.342   2.169   9.969  1.0257  0.6167  1.0956
  886MOL0     O19476   9.273   4.114   4.854  0.1132 -0.5013  0.3790
  886MOL0     C19477   9.334   4.150   4.755 -0.0100  0.5988  0.3416
  886MOL0     O19478   9.276   4.234   4.661 -0.3087 -0.3813 -0.2869
  886MOL0     C19479   9.142   4.250   4.645  0.6711 -0.5722  0.1066
  886MOL0     C19480   9.045   4.152   4.681 -0.2417 -0.1424 -0.3760
  886MOL0     C19481   8.908   4.182   4.674 -0.0987 -0.6202  0.1601
  886MOL0     C19482   8.860   4.304   4.633 -0.4582 -0.2338  0.0033
  886MOL0     O19483   8.728   4.325   4.629 -0.2218 -0.6016  0.1683
  886MOL0     C19484   8.690   4.463   4.663  0.5276 -0.3939  0.6202
  886MOL0     C19485   8.534   4.470   4.697  0.1009 -0.2635 -0.3275
  886MOL0     C19486   8.510   4.400   4.828 -0.2729  0.3737  0.8757
  886MOL0     C19487   8.561   4.476   4.950 -0.5421  0.8977 -0.4624
  886MOL0     C19488   8.508   4.406   5.081 -0.4439  0.9412  0.7665
  886MOL0     C19489   8.542   4.483   5.213 -0.1869  0.4965 -0.1342
  886MOL0     C19490   8.482   4.406   5.334 -0.6104 -1.1706  0.5551
  886MOL0     C19491   8.530   4.468   5.467 -1.0637 -0.5905  0.7066
  886MOL0     N19492   8.424   4.478   5.564  0.0130  0.4830  0.4980
  886MOL0     C19493   8.377   4.599   5.594  0.5391  0.0939 -0.3130
  886MOL0     C19494   8.274   4.556   5.678 -0.6255  0.5022  0.7692
  886MOL0     C19495   8.168   4.656   5.715 -0.7697 -0.3227  0.2632
  886MOL0     C19496   8.022   4.609   5.689 -0.5024 -1.0787 -0.0312
  886MOL0     C19497   7.991   4.563   5.545 -0.2623  0.8144 -0.2975
  886MOL0     C19498   7.924   4.427   5.527 -0.0135 -0.2186 -0.1989
  886MOL0     O19499   7.835   4.405   5.637  0.5582  1.2052  0.1025
  886MOL0     C19500   7.713   4.373   5.605 -0.1586  0.3477 -0.1996
  886MOL0     C19501   7.623   4.448   5.528 -0.2355  0.4064 -0.0704
  886MOL0     C19502   7.481   4.414   5.525 -0.5720 -0.5421 -0.6763
  886MOL0     C19503   7.385   4.498   5.446 -0.1814  0.5726 -0.2756
  886MOL0     C19504   7.426   4.307   5.608 -1.1072 -1.0264 -0.7912
  886MOL0     C19505   7.284   4.260   5.619 -0.1950 -0.5919 -0.1594
  886MOL0     O19506   7.192   4.325   5.543  0.3893 -0.3591  0.4773
  886MOL0     C19507   7.069   4.274   5.524 -0.4198 -0.1230  1.0787
  886MOL0     C19508   6.978   4.253   5.620 -0.7305 -0.3031 -0.2892
  886MOL0     C19509   6.853   4.206   5.592  0.2688 -0.9313 -0.4045
  886MOL0     C19510   6.810   4.170   5.469 -0.0814  0.4889 -0.4797
  886MOL0     O19511   6.682   4.132   5.459 -0.3320  0.2663  1.0645
  886MOL0     C19512   6.624   4.108   5.328 -0.0825  0.3889  0.4523
  886MOL0     C19513   6.482   4.045   5.331 -0.0241  0.2931 -0.4295
  886MOL0     C19514   6.381   4.142   5.385  0.1497 -0.9626 -0.8472
  886MOL0     C19515   6.279   4.062   5.463 -0.8159  0.9695 -0.2742
  886MOL0     C19516   6.166   4.148   5.501 -0.2563  0.3165 -0.3074
  886MOL0     C19517   6.061   4.073   5.584 -0.1805  0.5392 -0.1842
  886MOL0     C19518   5.971   4.174   5.641 -0.2912 -0.8520 -0.2309
  886MOL0     C19519   5.838   4.102   5.676  0.1637  0.7184 -0.1914
  886MOL0    Cl19520   5.703   4.214   5.740  0.1205 -0.1926  0.6298
  886MOL0     C19521   6.903   4.187   5.368 -0.6610  0.4656  0.5946
  886MOL0     C19522   7.033   4.250   5.392  0.9660 -0.3185 -0.5744
  886MOL0     O19523   7.258   4.161   5.688 -0.1389  0.1758  0.5943
  886MOL0     C19524   7.527   4.235   5.678 -0.6140 -0.0608 -0.5407
  886MOL0     C19525   7.666   4.262   5.676  0.4113  0.0641 -0.3808
  886MOL0     N19526   8.284   4.425   5.718 -0.1375 -0.2829 -0.4280
  886MOL0     N19527   8.373   4.379   5.648  0.5466  0.4884  0.4903
  886MOL0     C19528   8.960   4.397   4.608 -0.2867 -0.2716  0.8104
  886MOL0     C19529   9.098   4.379   4.614 -0.2827  0.8802 -0.0818
  886MOL0     C19530   9.479   4.130   4.733 -0.3060 -0.3478 -0.6043
  886MOL0     C19531   9.561   4.069   4.830  1.0574 -0.6262 -0.3566
  886MOL0     C19532   9.693   4.048   4.805 -1.1911  0.5130 -0.1344
  886MOL0     C19533   9.764   4.096   4.695  0.4447  0.8420  0.8033
  886MOL0     O19534   9.899   4.083   4.688 -0.5735  0.0836  0.0300
  886MOL0     C19535   9.969   4.188   4.620  0.3073 -0.1373 -0.3683
  886MOL0     C19536  10.033   4.150   4.485 -1.0738  0.4053 -0.1233
  886MOL0     C19537  10.093   4.019   4.505  0.0304  0.0380  0.1279
  886MOL0     C19538  10.192   3.979   4.393  0.0615  0.3042  0.1351
  886MOL0     C19539  10.287   3.883   4.435  0.4872  0.1884  0.2579
  886MOL0     C19540  10.378   3.809   4.460 -1.0617 -0.2746  0.3671
  886MOL0     C19541   9.692   4.156   4.599  0.2677  0.6921 -0.3587
  886MOL0     C19542   9.549   4.169   4.616  0.2959 -0.2328 -0.1214
  886MOL0     H19543   9.077   4.058   4.726  1.9172  0.8283  0.2620
  886MOL0     H19544   8.830   4.111   4.700 -1.0533  1.1786  2.6799
  886MOL0     H19545   8.750   4.516   4.737  2.8901  0.2369 -1.5926
  886MOL0     H19546   8.695   4.526   4.573 -0.0039 -2.4262 -0.9120
  886MOL0     H19547   8.497   4.571   4.711 -1.7899 -0.6550 -1.9334
  886MOL0     H19548   8.474   4.422   4.618 -0.5941 -0.0333  0.0551
  886MOL0     H19549   8.405   4.368   4.835  0.5983 -2.5022  2.5288
  886MOL0     H19550   8.570   4.308   4.834 -2.8175 -1.6283 -1.3965
  886MOL0     H19551   8.671   4.480   4.950 -0.5537  1.2507 -0.5892
  886MOL0     H19552   8.531   4.581   4.949  1.1168  1.4051  0.2458
  886MOL0     H19553   8.400   4.392   5.068  0.2370 -2.6515 -4.8807
  886MOL0     H19554   8.553   4.307   5.096  3.7524  2.7885  1.8148
  886MOL0     H19555   8.651   4.480   5.218 -0.2281 -1.9544  0.7200
  886MOL0     H19556   8.516   4.589   5.210  1.1043  0.8059 -1.0322
  886MOL0     H19557   8.374   4.404   5.315 -0.7184 -1.4201  1.1697
  886MOL0     H19558   8.513   4.301   5.333 -1.4910 -1.4394 -0.4102
  886MOL0     H19559   8.582   4.563   5.451  3.0755 -3.1140 -3.0196
  886MOL0     H19560   8.603   4.404   5.519  0.0404 -1.1121 -1.3768
  886MOL0     H19561   8.392   4.696   5.548 -0.1574 -0.2840 -1.3886
  886MOL0     H19562   8.184   4.675   5.822 -0.4193  1.2582 -0.0511
  886MOL0     H19563   8.190   4.753   5.669 -2.0476 -0.3136 -0.3771
  886MOL0     H19564   7.960   4.690   5.729  1.0930  0.1330  0.0988
  886MOL0     H19565   8.018   4.530   5.765 -0.5715  0.5051  1.6929
  886MOL0     H19566   8.077   4.578   5.478 -0.6626  0.6538 -0.8565
  886MOL0     H19567   7.920   4.638   5.510  0.4396  3.5168  3.4572
  886MOL0     H19568   8.000   4.349   5.525 -1.7814 -2.0077 -1.2575
  886MOL0     H19569   7.864   4.416   5.437 -0.6542  3.8805 -0.4928
  886MOL0     H19570   7.668   4.514   5.454  0.1620  0.7676  0.4840
  886MOL0     H19571   7.303   4.546   5.501  0.8335 -0.9702  2.8247
  886MOL0     H19572   7.435   4.584   5.401 -0.4763  1.7299  1.4912
  886MOL0     H19573   7.344   4.437   5.365 -0.9350 -0.7802  1.0598
  886MOL0     H19574   7.000   4.292   5.719 -1.6908 -0.1344 -0.1293
  886MOL0     H19575   6.781   4.201   5.673  0.1041 -1.4508 -0.5771
  886MOL0     H19576   6.625   4.208   5.284  2.5805  0.9944  1.7334
  886MOL0     H19577   6.692   4.041   5.275 -0.2324  0.8902 -0.4055
  886MOL0     H19578   6.446   4.004   5.235 -2.2502 -1.5330  1.0674
  886MOL0     H19579   6.483   3.953   5.390 -0.4799  1.0190  0.7281
  886MOL0     H19580   6.345   4.210   5.307  1.0725 -0.3839 -0.7916
  886MOL0     H19581   6.434   4.218   5.443 -2.5314  2.1257 -2.1073
  886MOL0     H19582   6.249   3.974   5.405 -0.6253 -0.9890  2.4149
  886MOL0     H19583   6.316   4.000   5.545 -1.2453 -1.0076 -1.5212
  886MOL0     H19584   6.115   4.199   5.419 -0.8941 -1.0441 -0.7823
  886MOL0     H19585   6.211   4.230   5.557 -0.2726 -0.0084  0.1886
  886MOL0     H19586   5.995   4.017   5.517  1.4345 -0.0519 -1.3508
  886MOL0     H19587   6.104   4.019   5.669  0.8659  3.3713  1.2142
  886MOL0     H19588   5.961   4.264   5.580  0.0172 -0.9941 -0.4949
  886MOL0     H19589   6.019   4.203   5.735  0.4784  2.8062 -1.6032
  886MOL0     H19590   5.861   4.030   5.756 -2.2978  1.7493  1.5806
  886MOL0     H19591   5.795   4.056   5.587 -0.8099 -1.3040  1.2435
  886MOL0     H19592   6.863   4.183   5.267  0.3971  0.2116  0.1663
  886MOL0     H19593   7.101   4.268   5.309  1.3460 -0.1880 -0.2376
  886MOL0     H19594   7.501   4.150   5.741 -0.1930 -0.6881 -1.1905
  886MOL0     H19595   7.737   4.197   5.728  1.2123 -0.2633 -1.8314
  886MOL0     H19596   8.936   4.500   4.585  0.1709 -0.4032 -0.3051
  886MOL0     H19597   9.172   4.458   4.611 -0.7375  1.2870 -0.8177
  886MOL0     H19598   9.519   4.046   4.927 -2.9187  0.3884 -1.6523
  886MOL0     H19599   9.752   4.017   4.890  0.0044  1.0229 -0.7584
  886MOL0     H19600   9.915   4.279   4.592  0.2800 -0.4905 -1.4785
  886MOL0     H19601  10.044   4.216   4.695  0.8993 -1.9434 -0.2512
  886MOL0     H19602  10.117   4.220   4.473 -1.2029  0.8691  1.4366
  886MOL0     H19603   9.963   4.144   4.402  0.5561  1.2850 -1.6241
  886MOL0     H19604  10.010   3.948   4.514 -0.8141  1.2462  2.7456
  886MOL0     H19605  10.158   4.015   4.593  4.0037  2.5628 -2.3594
  886MOL0     H19606  10.237   4.074   4.362  0.0558 -0.2746 -1.7791
  886MOL0     H19607  10.132   3.946   4.308 -3.1605 -0.5348  2.5506
  886MOL0     H19608  10.440   3.732   4.500 -1.8711  0.4430  3.2001
  886MOL0     H19609   9.731   4.196   4.506 -1.2467  4.1382  0.3266
  886MOL0     H19610   9.494   4.221   4.538  1.3818  0.5293 -0.4108
  887MOL0     O19611   6.231   0.446   8.677 -0.0363 -0.9080  0.5185
  887MOL0     C19612   6.271   0.333   8.696 -0.1710 -1.0717 -0.7094
  887MOL0     O19613   6.196   0.230   8.749  0.7637 -0.7258 -0.3691
  887MOL0     C19614   6.054   0.256   8.754  0.1390  0.1236  0.3788
  887MOL0     C19615   5.971   0.178   8.671  0.4442  0.2925  0.5508
  887MOL0     C19616   5.837   0.200   8.646  1.0530  0.0049 -0.1586
  887MOL0     C19617   5.776   0.303   8.720  0.2075 -0.2891  0.0929
  887MOL0     O19618   5.643   0.340   8.706  0.3335 -0.2392 -0.0995
  887MOL0     C19619   5.542   0.245   8.662  0.1050 -0.1654 -0.4778
  887MOL0     C19620   5.463   0.181   8.776 -0.3694  1.2869 -0.3107
  887MOL0     C19621   5.376   0.275   8.858 -0.2734 -0.0050  0.9934
  887MOL0     C19622   5.253   0.352   8.779 -0.3706  0.4545 -0.3132
  887MOL0     C19623   5.145   0.241   8.742  0.6907 -0.0543 -0.7815
  887MOL0     C19624   5.022   0.303   8.668  0.1273 -0.7626 -0.7691
  887MOL0     C19625   4.889   0.252   8.724 -0.1774 -0.0076  0.2369
  887MOL0     C19626   4.778   0.312   8.644 -0.5118 -0.6052 -0.0433
  887MOL0     N19627   4.702   0.205   8.578 -0.1871  0.4820  0.8679
  887MOL0     C19628   4.570   0.194   8.601  0.6557 -0.5904  0.0938
  887MOL0     C19629   4.533   0.096   8.509  0.7761 -0.0795  0.5842
  887MOL0     C19630   4.402   0.022   8.487  0.0373  1.2733 -0.1197
  887MOL0     C19631   4.338   0.087   8.374  0.1974 -0.1210  0.0580
  887MOL0     C19632   4.202   0.025   8.327  0.3870 -0.8255  0.4304
  887MOL0     C19633   4.130   0.110   8.223 -0.2681 -0.3378 -0.4088
  887MOL0     O19634   4.013   0.050   8.168 -0.0742  0.2931 -1.2044
  887MOL0     C19635   4.016  -0.061   8.089 -0.4397  0.4886 -0.1074
  887MOL0     C19636   3.902  -0.123   8.050  0.1320  0.2696  0.1430
  887MOL0     C19637   3.897  -0.231   7.954  0.1407 -0.0712 -0.6798
  887MOL0     C19638   3.765  -0.288   7.910 -0.6264 -1.0414 -0.7401
  887MOL0     C19639   4.016  -0.262   7.888  0.1671 -0.3747  0.2321
  887MOL0     C19640   4.021  -0.350   7.772  0.0161 -0.3430 -0.6502
  887MOL0     O19641   4.121  -0.439   7.767 -0.2469  0.1677  1.2806
  887MOL0     C19642   4.110  -0.539   7.673  0.3660  0.3694 -0.3067
  887MOL0     C19643   4.227  -0.577   7.601  0.2315  1.2887 -1.0231
  887MOL0     C19644   4.237  -0.690   7.515  0.5983 -0.0739 -0.4009
  887MOL0     C19645   4.115  -0.755   7.491 -1.1503 -0.5864 -0.4746
  887MOL0     O19646   4.107  -0.851   7.391  0.2509  0.0460  0.6707
  887MOL0     C19647   4.222  -0.937   7.376  0.6100  0.3059  0.6402
  887MOL0     C19648   4.188  -1.066   7.306  0.0544 -1.0311  0.9753
  887MOL0     C19649   4.301  -1.164   7.332 -0.8541  0.2259 -0.2637
  887MOL0     C19650   4.282  -1.277   7.224 -0.8143 -0.2878  0.0682
  887MOL0     C19651   4.337  -1.402   7.281  0.2529  0.4632  0.5174
  887MOL0     C19652   4.357  -1.512   7.171 -0.4670  0.6757 -0.4212
  887MOL0     C19653   4.457  -1.452   7.070  0.0100  0.2688 -1.0795
  887MOL0     C19654   4.510  -1.562   6.975 -0.3859 -0.3421  0.3607
  887MOL0    Cl19655   4.630  -1.665   7.052  0.0833  0.2127  0.1511
  887MOL0     C19656   4.000  -0.728   7.570  0.5330 -0.2705 -0.0287
  887MOL0     C19657   3.994  -0.616   7.658  0.2279  0.0744  0.4292
  887MOL0     O19658   3.932  -0.334   7.689  0.1023 -0.4719  0.6682
  887MOL0     C19659   4.135  -0.204   7.928  0.9925  0.0791 -0.9336
  887MOL0     C19660   4.138  -0.100   8.019  0.1637 -0.6266 -0.0779
  887MOL0     N19661   4.645   0.057   8.434  0.1874 -1.3694 -0.5161
  887MOL0     N19662   4.751   0.120   8.480  0.1547 -1.0132 -0.2113
  887MOL0     C19663   5.856   0.375   8.810 -0.3361  0.3031 -0.0559
  887MOL0     C19664   5.996   0.358   8.831  0.8378 -1.2510 -0.5417
  887MOL0     C19665   6.411   0.302   8.655  0.5796 -0.3749  0.0614
  887MOL0     C19666   6.516   0.394   8.657 -0.6520 -0.2766  0.6807
  887MOL0     C19667   6.649   0.347   8.619  0.1868  1.0813 -0.3842
  887MOL0     C19668   6.674   0.204   8.588 -0.0256 -0.7823  0.4182
  887MOL0     O19669   6.795   0.146   8.563 -0.0097 -0.3904 -1.4400
  887MOL0     C19670   6.910   0.216   8.551  0.5922  0.2772  0.1148
  887MOL0     C19671   7.016   0.114   8.574  0.2168  0.0023 -1.1594
  887MOL0     C19672   7.146   0.182   8.543 -2.3632 -0.3035 -0.7287
  887MOL0     C19673   7.262   0.080   8.553  1.1835  0.5131  0.7126
  887MOL0     C19674   7.285   0.028   8.689  0.7241  0.2883 -0.4998
  887MOL0     C19675   7.331  -0.008   8.792 -0.1100  0.3653  0.9080
  887MOL0     C19676   6.558   0.123   8.587  0.9919 -0.0773 -0.5616
  887MOL0     C19677   6.432   0.174   8.613  0.5514  0.0895 -0.3435
  887MOL0     H19678   6.013   0.100   8.609 -0.8395 -2.2178  2.6205
  887MOL0     H19679   5.787   0.129   8.581 -2.2391  0.5221  1.5610
  887MOL0     H19680   5.472   0.302   8.600  0.6095  1.0472  0.0341
  887MOL0     H19681   5.596   0.167   8.607  0.0193 -1.2894  0.9757
  887MOL0     H19682   5.426   0.084   8.743  2.6212 -0.0293 -0.0805
  887MOL0     H19683   5.542   0.139   8.839  1.0685  0.6797 -2.4169
  887MOL0     H19684   5.332   0.221   8.943 -0.4321 -2.9873 -0.8196
  887MOL0     H19685   5.442   0.351   8.898 -0.7942  1.0480 -0.0801
  887MOL0     H19686   5.207   0.428   8.843  1.4607  1.8659 -0.5868
  887MOL0     H19687   5.285   0.406   8.689  4.4804 -0.5036  0.5817
  887MOL0     H19688   5.189   0.160   8.683  2.5268 -0.7506  1.3985
  887MOL0     H19689   5.098   0.203   8.833 -1.8824 -0.0649 -2.0346
  887MOL0     H19690   5.039   0.410   8.686  0.6109 -0.9431 -0.1191
  887MOL0     H19691   5.035   0.286   8.561  2.3961  1.4570 -0.9610
  887MOL0     H19692   4.886   0.143   8.709 -1.9527  0.0771 -0.2410
  887MOL0     H19693   4.877   0.270   8.831 -0.1312 -1.4167  0.4979
  887MOL0     H19694   4.820   0.384   8.573  0.7756  0.5267  1.7720
  887MOL0     H19695   4.706   0.369   8.704  1.2900  1.6306  0.1174
  887MOL0     H19696   4.507   0.216   8.687  2.6106 -2.1667  2.0408
  887MOL0     H19697   4.426  -0.084   8.469 -1.4261  0.3898  2.6278
  887MOL0     H19698   4.331   0.029   8.569 -0.5619 -2.2726 -0.1634
  887MOL0     H19699   4.405   0.091   8.287  0.7461  0.8430  0.4980
  887MOL0     H19700   4.327   0.194   8.394  2.0132  0.3887 -1.3447
  887MOL0     H19701   4.129   0.022   8.408 -0.4259  2.5136 -0.0008
  887MOL0     H19702   4.226  -0.075   8.290 -0.3972 -0.9576  0.2666
  887MOL0     H19703   4.196   0.147   8.144  2.4654 -0.4816  1.6193
  887MOL0     H19704   4.096   0.206   8.263  0.1982 -0.2666 -0.1718
  887MOL0     H19705   3.816  -0.071   8.091 -2.4360 -3.1366 -0.4511
  887MOL0     H19706   3.696  -0.292   7.995  2.1593 -0.1289  1.7195
  887MOL0     H19707   3.731  -0.227   7.826  1.1001  0.0127 -0.7067
  887MOL0     H19708   3.768  -0.389   7.869 -2.3308 -0.5507 -2.1824
  887MOL0     H19709   4.319  -0.520   7.611 -0.4615  2.9856 -3.4006
  887MOL0     H19710   4.334  -0.713   7.472  0.7417 -1.1840  0.4616
  887MOL0     H19711   4.298  -0.880   7.321  1.2367  0.1948  1.3620
  887MOL0     H19712   4.249  -0.969   7.478 -0.1616 -0.9397  0.4693
  887MOL0     H19713   4.092  -1.113   7.331 -1.6787  0.2883 -2.5215
  887MOL0     H19714   4.171  -1.048   7.200 -1.9982  0.3049  1.4672
  887MOL0     H19715   4.292  -1.199   7.436  1.5894  0.4378  0.0887
  887MOL0     H19716   4.400  -1.116   7.328  0.4370 -2.3209 -0.8909
  887MOL0     H19717   4.176  -1.297   7.211 -0.5596 -3.1225  1.5643
  887MOL0     H19718   4.329  -1.228   7.138  0.5516 -2.5332 -0.5514
  887MOL0     H19719   4.267  -1.442   7.356  1.8629 -1.7245  0.9408
  887MOL0     H19720   4.432  -1.384   7.332  0.8590  1.0183 -0.7690
  887MOL0     H19721   4.403  -1.597   7.223  1.1051  2.4360  1.1806
  887MOL0     H19722   4.263  -1.537   7.121 -1.2366  1.0994  0.7803
  887MOL0     H19723   4.544  -1.405   7.117  2.3150 -0.7032 -4.0400
  887MOL0     H19724   4.406  -1.384   7.002  0.4155  2.3416  0.6032
  887MOL0     H19725   4.548  -1.535   6.876 -0.6405 -1.8326 -0.1671
  887MOL0     H19726   4.433  -1.635   6.950  1.8576 -2.5714 -0.5097
  887MOL0     H19727   3.908  -0.783   7.553  1.2754 -1.4740 -0.2622
  887MOL0     H19728   3.901  -0.606   7.712  0.1788  1.8025  0.0839
  887MOL0     H19729   4.228  -0.241   7.887  0.2333 -3.4801  0.1880
  887MOL0     H19730   4.235  -0.057   8.042  0.2799 -0.4691 -0.8352
  887MOL0     H19731   5.811   0.446   8.879  1.9476 -0.5155  2.4634
  887MOL0     H19732   6.052   0.427   8.893 -1.3036  0.5366 -0.4654
  887MOL0     H19733   6.491   0.496   8.686 -0.8172 -0.3669  0.8542
  887MOL0     H19734   6.730   0.419   8.629  0.5884  0.8171 -1.5421
  887MOL0     H19735   6.914   0.240   8.444 -0.8150  1.0204  0.2135
  887MOL0     H19736   6.921   0.306   8.611 -3.1014  0.3961  0.8608
  887MOL0     H19737   6.999   0.034   8.501 -1.1816 -0.0250 -0.8256
  887MOL0     H19738   7.021   0.074   8.675  2.3432  1.0735 -0.7831
  887MOL0     H19739   7.159   0.264   8.614 -0.3191 -2.0257  1.0301
  887MOL0     H19740   7.148   0.233   8.446 -1.2696  1.1117 -0.0091
  887MOL0     H19741   7.352   0.127   8.513  0.4676  1.6965  0.4467
  887MOL0     H19742   7.235   0.007   8.476 -2.2011  0.5201  1.6990
  887MOL0     H19743   7.359  -0.052   8.886 -1.7180 -0.6837  0.9452
  887MOL0     H19744   6.568   0.019   8.558  1.2487  0.3687 -2.1805
  887MOL0     H19745   6.347   0.107   8.606  2.6685 -2.6158 -2.2093
  888MOL0     O19746   5.651   8.764   4.281  0.1341  0.2487  0.7614
  888MOL0     C19747   5.721   8.841   4.345 -0.0958 -0.0581  0.2153
  888MOL0     O19748   5.700   8.876   4.478  0.5554  0.5980 -0.1067
  888MOL0     C19749   5.603   8.802   4.535  0.1625  0.5018  0.2538
  888MOL0     C19750   5.643   8.725   4.650  0.0449  0.2797 -0.1512
  888MOL0     C19751   5.543   8.658   4.733 -0.2212  0.3145 -0.7036
  888MOL0     C19752   5.411   8.686   4.705  0.4963 -0.7601 -0.0825
  888MOL0     O19753   5.313   8.633   4.795 -0.4147 -0.6070  0.4611
  888MOL0     C19754   5.324   8.688   4.935  0.5422 -0.4693 -0.4054
  888MOL0     C19755   5.253   8.831   4.958 -0.7211 -0.6350 -0.5020
  888MOL0     C19756   5.120   8.840   4.890 -0.6262 -0.5547  0.7311
  888MOL0     C19757   5.060   8.983   4.912  0.5755  0.0479 -0.3298
  888MOL0     C19758   4.922   8.989   4.850 -0.0817 -0.1549  0.0839
  888MOL0     C19759   4.859   9.131   4.889  0.1082 -0.7638  0.1002
  888MOL0     C19760   4.715   9.133   4.834  0.3189  0.0782 -0.0425
  888MOL0     C19761   4.603   9.151   4.939  0.1328 -0.2726 -0.8803
  888MOL0     N19762   4.611   9.052   5.046 -0.8497  1.2481  0.1411
  888MOL0     C19763   4.645   8.923   5.017  0.4545  1.1073  0.2508
  888MOL0     C19764   4.660   8.866   5.137 -0.3053  0.1846 -0.3433
  888MOL0     C19765   4.700   8.727   5.170  0.5317  0.0968 -0.3722
  888MOL0     C19766   4.840   8.725   5.234 -0.3369 -0.1485 -0.5400
  888MOL0     C19767   4.894   8.584   5.246 -0.7446  0.0520  0.9851
  888MOL0     C19768   5.046   8.608   5.254 -0.6957 -0.0581  0.4446
  888MOL0     O19769   5.101   8.484   5.303 -0.0877  0.1001 -0.6301
  888MOL0     C19770   5.233   8.474   5.350  0.2225 -0.7505 -0.4135
  888MOL0     C19771   5.325   8.576   5.338 -0.2267  0.1109  0.6638
  888MOL0     C19772   5.465   8.558   5.366  0.5094 -0.0311 -0.0074
  888MOL0     C19773   5.546   8.678   5.319  0.0506 -0.4753 -0.3077
  888MOL0     C19774   5.511   8.434   5.428  0.4430  1.1295 -0.3612
  888MOL0     C19775   5.651   8.398   5.465  0.5848  0.6357 -0.6288
  888MOL0     O19776   5.674   8.270   5.507  0.0225 -0.2944 -0.1372
  888MOL0     C19777   5.766   8.235   5.597 -0.4795  0.2993  0.2730
  888MOL0     C19778   5.796   8.095   5.601 -0.8195 -0.2639  0.9853
  888MOL0     C19779   5.904   8.044   5.673 -0.0100  0.8210  0.2108
  888MOL0     C19780   5.981   8.127   5.754  0.3131 -0.9461 -0.0895
  888MOL0     O19781   6.099   8.096   5.817  0.0861  0.1724  0.3075
  888MOL0     C19782   6.114   7.961   5.861  0.7091  0.3470 -0.1345
  888MOL0     C19783   6.253   7.944   5.921 -0.2498  0.2034  0.5131
  888MOL0     C19784   6.288   8.030   6.042 -0.4242  0.1524  0.1423
  888MOL0     C19785   6.416   8.006   6.117 -0.0278 -0.1019 -0.3912
  888MOL0     C19786   6.439   8.092   6.243 -0.1847  0.8410 -0.3552
  888MOL0     C19787   6.332   8.097   6.342  0.9075 -0.1216  0.6532
  888MOL0     C19788   6.378   8.101   6.484  0.3398  0.1754  0.3988
  888MOL0     C19789   6.275   8.036   6.576  0.2845 -0.7416 -0.3828
  888MOL0    Cl19790   6.107   8.117   6.558  0.0725 -0.1186  0.0544
  888MOL0     C19791   5.944   8.259   5.758 -0.9471 -0.6895 -0.5493
  888MOL0     C19792   5.851   8.317   5.674  0.7740 -0.7639 -0.2515
  888MOL0     O19793   5.734   8.489   5.467  0.5697  0.0011 -0.1574
  888MOL0     C19794   5.412   8.335   5.445  0.6483  0.2366 -0.2758
  888MOL0     C19795   5.272   8.347   5.400 -0.4358 -0.1399 -0.9956
  888MOL0     N19796   4.632   8.956   5.234 -0.3809 -0.2968 -0.0520
  888MOL0     N19797   4.608   9.070   5.178 -0.1760  0.1496 -0.1676
  888MOL0     C19798   5.366   8.771   4.601  0.8248  0.2690  0.3936
  888MOL0     C19799   5.461   8.827   4.519  0.0270 -0.2392  0.1149
  888MOL0     C19800   5.835   8.917   4.275  0.9016 -0.7964  0.9479
  888MOL0     C19801   5.899   9.018   4.344 -0.4007  0.1291  0.1399
  888MOL0     C19802   6.005   9.088   4.287  0.7626  1.1810  0.0017
  888MOL0     C19803   6.048   9.066   4.155 -1.2541  0.5823  0.5122
  888MOL0     O19804   6.157   9.115   4.095 -0.0405 -0.2912  0.3931
  888MOL0     C19805   6.225   9.225   4.158  0.3016 -0.7159 -1.1850
  888MOL0     C19806   6.335   9.171   4.259  0.6069  0.1434  0.2139
  888MOL0     C19807   6.448   9.271   4.304 -0.2122  0.0822  0.7968
  888MOL0     C19808   6.538   9.193   4.395 -0.4960 -0.2989 -0.2124
  888MOL0     C19809   6.641   9.295   4.453 -0.2909  0.1047 -0.6977
  888MOL0     C19810   6.726   9.376   4.488  0.2911  0.5957  0.2835
  888MOL0     C19811   5.974   8.968   4.085  0.3799  0.3752 -0.7155
  888MOL0     C19812   5.861   8.895   4.138  0.4289  0.5721  0.2093
  888MOL0     H19813   5.750   8.706   4.653  0.1458  0.9103  0.9481
  888MOL0     H19814   5.569   8.593   4.815  1.7505  1.7903 -0.0786
  888MOL0     H19815   5.273   8.616   4.999 -0.5619 -0.8552 -1.6863
  888MOL0     H19816   5.430   8.688   4.962  1.3895  1.5400 -3.2354
  888MOL0     H19817   5.241   8.842   5.066  0.6671 -0.2104 -0.3721
  888MOL0     H19818   5.312   8.914   4.919 -2.4322  1.2405  0.7269
  888MOL0     H19819   5.129   8.833   4.781 -4.4694 -0.1235  0.2370
  888MOL0     H19820   5.050   8.759   4.914  0.7119 -2.0283 -0.1589
  888MOL0     H19821   5.031   9.007   5.015 -2.0374 -2.3762 -0.3979
  888MOL0     H19822   5.139   9.050   4.876  0.2311 -1.2466 -3.8947
  888MOL0     H19823   4.927   8.990   4.741 -2.2049 -0.0143 -0.0474
  888MOL0     H19824   4.858   8.910   4.889  2.4968 -2.4776 -0.1213
  888MOL0     H19825   4.843   9.147   4.996 -1.6435  4.7691 -0.6754
  888MOL0     H19826   4.913   9.209   4.835 -1.6522 -0.3582 -1.1507
  888MOL0     H19827   4.714   9.220   4.768  0.9021  0.7169  0.7744
  888MOL0     H19828   4.692   9.041   4.779 -0.8760  1.2338 -1.5625
  888MOL0     H19829   4.503   9.135   4.897 -1.0402 -0.4934  1.8168
  888MOL0     H19830   4.606   9.254   4.977  1.6481 -1.2104  1.8066
  888MOL0     H19831   4.659   8.860   4.929  1.4624  1.7358 -0.0484
  888MOL0     H19832   4.631   8.678   5.240  1.8338 -0.0352  0.8753
  888MOL0     H19833   4.712   8.668   5.079  0.5672 -2.1161  0.9691
  888MOL0     H19834   4.843   8.766   5.336 -0.5669 -2.2819  0.3916
  888MOL0     H19835   4.907   8.788   5.175  0.3768  3.8332  3.9010
  888MOL0     H19836   4.872   8.528   5.155 -0.1011 -0.3993  1.1041
  888MOL0     H19837   4.874   8.517   5.330  1.3057 -4.0072 -1.4620
  888MOL0     H19838   5.067   8.693   5.320  2.5072  0.7715 -1.4423
  888MOL0     H19839   5.086   8.629   5.154 -2.2906  3.2629  0.3546
  888MOL0     H19840   5.289   8.674   5.308 -5.0571 -1.5322  0.1145
  888MOL0     H19841   5.547   8.750   5.402  1.6308 -1.0360  0.2059
  888MOL0     H19842   5.649   8.643   5.309 -0.4836 -1.8529 -1.2850
  888MOL0     H19843   5.512   8.717   5.223 -1.2711 -1.6800 -0.3487
  888MOL0     H19844   5.743   8.025   5.538  0.9190 -0.5442 -0.2367
  888MOL0     H19845   5.938   7.942   5.658  0.8174  1.2338 -0.8649
  888MOL0     H19846   6.040   7.931   5.935  2.3987  0.6643  1.7811
  888MOL0     H19847   6.103   7.894   5.775 -0.7809 -0.9681  1.0309
  888MOL0     H19848   6.257   7.842   5.960  2.4768  0.2725  0.6225
  888MOL0     H19849   6.336   7.947   5.850  3.0074  4.5066  3.8878
  888MOL0     H19850   6.197   8.033   6.102 -1.0092 -0.4202 -0.6914
  888MOL0     H19851   6.296   8.131   5.999 -2.0625  0.4342  0.4505
  888MOL0     H19852   6.418   7.898   6.134  1.6882 -0.0684 -0.2523
  888MOL0     H19853   6.485   8.038   6.039 -1.8658 -0.0025 -2.0677
  888MOL0     H19854   6.473   8.187   6.200  0.1117 -0.1144 -2.3822
  888MOL0     H19855   6.527   8.052   6.294 -2.0338 -1.0915  1.5207
  888MOL0     H19856   6.267   8.183   6.322  0.2845 -0.5927  0.6006
  888MOL0     H19857   6.261   8.014   6.344 -0.5583  1.0988  1.6752
  888MOL0     H19858   6.404   8.207   6.501  0.9836  0.3263 -1.2762
  888MOL0     H19859   6.470   8.044   6.498 -0.0425 -0.7579 -0.7850
  888MOL0     H19860   6.303   8.076   6.674  1.4951  0.6481 -1.2444
  888MOL0     H19861   6.269   7.927   6.572 -1.1836 -1.2047  5.4667
  888MOL0     H19862   6.006   8.320   5.822 -0.7095 -0.0217 -1.3964
  888MOL0     H19863   5.832   8.424   5.668  0.5802 -0.8104 -0.5117
  888MOL0     H19864   5.433   8.232   5.472  0.5980  0.4827  0.7099
  888MOL0     H19865   5.192   8.274   5.408 -1.4455  1.1687  3.1769
  888MOL0     H19866   5.262   8.800   4.587  0.9159 -0.0483 -1.1534
  888MOL0     H19867   5.435   8.908   4.452 -0.9892 -0.1607  0.5825
  888MOL0     H19868   5.886   9.046   4.448  0.1989  1.1663 -0.0572
  888MOL0     H19869   6.059   9.158   4.349 -0.5863 -0.3585  3.1560
  888MOL0     H19870   6.263   9.290   4.079  0.0019  0.4787 -0.3696
  888MOL0     H19871   6.154   9.287   4.215  1.1230  0.7304 -1.6994
  888MOL0     H19872   6.392   9.089   4.214  0.2742  0.1594 -0.2353
  888MOL0     H19873   6.278   9.133   4.345 -1.2246  1.0666 -0.5393
  888MOL0     H19874   6.405   9.353   4.361 -2.1956 -0.2188 -0.1864
  888MOL0     H19875   6.508   9.316   4.225  0.0650  0.0695  0.9953
  888MOL0     H19876   6.577   9.112   4.333  0.0791  1.2964 -2.0642
  888MOL0     H19877   6.492   9.141   4.479  1.0173 -0.5150  0.5129
  888MOL0     H19878   6.801   9.436   4.535 -0.5444  0.6534  1.6047
  888MOL0     H19879   6.008   8.947   3.985  0.7842 -2.3508 -0.0960
  888MOL0     H19880   5.805   8.824   4.078 -3.0303  1.5357  2.0581
  889MOL0     O19881  10.116   7.095   9.211 -0.1586 -0.3250  0.2441
  889MOL0     C19882   9.993   7.068   9.233 -0.4268 -0.2041 -1.0133
  889MOL0     O19883   9.888   7.144   9.189  0.2104  0.1279 -0.8466
  889MOL0     C19884   9.912   7.257   9.123 -0.2755 -0.1915 -0.3884
  889MOL0     C19885   9.986   7.270   9.012  0.3689 -0.3444  0.8620
  889MOL0     C19886   9.995   7.395   8.948  0.8270  0.4935 -0.6145
  889MOL0     C19887   9.932   7.516   8.996  0.5580  1.0962  0.2616
  889MOL0     O19888   9.935   7.640   8.926  0.8099 -0.1250 -0.1378
  889MOL0     C19889   9.975   7.650   8.791  0.3660  0.1706 -0.2327
  889MOL0     C19890   9.973   7.793   8.737  0.1980 -0.4083 -0.6559
  889MOL0     C19891   9.838   7.857   8.773 -0.4530  0.1280  0.8110
  889MOL0     C19892   9.810   7.968   8.680  0.6749 -0.0348 -0.1926
  889MOL0     C19893   9.679   8.040   8.698  0.4594 -0.0030  0.2378
  889MOL0     C19894   9.556   7.964   8.639 -0.2393  0.4345 -0.0284
  889MOL0     C19895   9.423   7.985   8.711 -0.7559 -1.0866  0.5741
  889MOL0     C19896   9.315   7.915   8.640  0.2758  0.1232 -0.1520
  889MOL0     N19897   9.184   7.974   8.650 -0.3777 -0.2987 -0.2083
  889MOL0     C19898   9.146   8.091   8.599  0.6522  0.1231 -1.2068
  889MOL0     C19899   9.021   8.115   8.646 -0.2543 -0.9574  0.2153
  889MOL0     C19900   8.939   8.244   8.648  0.7109 -0.0415  0.3505
  889MOL0     C19901   8.858   8.266   8.510 -0.9073  0.0808 -0.4844
  889MOL0     C19902   8.757   8.384   8.524 -0.4356 -0.3849 -0.3246
  889MOL0     C19903   8.637   8.339   8.608  0.0752  0.0445  0.1718
  889MOL0     O19904   8.634   8.391   8.736  0.3566  0.1943 -0.2817
  889MOL0     C19905   8.511   8.412   8.793  1.2296  0.3500 -0.9135
  889MOL0     C19906   8.521   8.479   8.921  0.1506  0.7710  0.6392
  889MOL0     C19907   8.414   8.483   9.010 -0.5920 -0.6791  0.4158
  889MOL0     C19908   8.448   8.539   9.143 -0.0770 -0.4396  0.0925
  889MOL0     C19909   8.286   8.435   8.974  0.4358  0.0538 -0.4704
  889MOL0     C19910   8.165   8.445   9.064 -0.3868 -0.5363 -0.2769
  889MOL0     O19911   8.047   8.427   9.009  0.2383  0.5415  0.2949
  889MOL0     C19912   7.934   8.431   9.081 -0.9553 -0.5018  0.4853
  889MOL0     C19913   7.913   8.519   9.187  0.7980 -0.4650  0.1643
  889MOL0     C19914   7.785   8.523   9.246 -0.0463 -0.1899  0.3077
  889MOL0     C19915   7.683   8.435   9.200 -0.9967 -0.5868  0.1594
  889MOL0     O19916   7.561   8.438   9.267 -0.0953  0.3074 -0.4711
  889MOL0     C19917   7.522   8.533   9.361 -0.1907  0.5633 -0.2777
  889MOL0     C19918   7.390   8.493   9.430 -1.2466 -0.5636 -0.0971
  889MOL0     C19919   7.279   8.465   9.328  0.0879  0.8273  1.0633
  889MOL0     C19920   7.191   8.587   9.300  0.2136 -0.0959 -0.4717
  889MOL0     C19921   7.083   8.555   9.195 -0.3724  0.6037  0.1794
  889MOL0     C19922   7.144   8.507   9.065 -0.2906  0.1578 -0.5417
  889MOL0     C19923   7.059   8.512   8.942  0.4199  0.9815 -0.2926
  889MOL0     C19924   7.137   8.506   8.803  1.1556 -0.1586 -0.6626
  889MOL0    Cl19925   7.258   8.627   8.780 -0.1252 -0.4938 -0.2057
  889MOL0     C19926   7.708   8.355   9.091  0.3413  0.0713  0.7803
  889MOL0     C19927   7.837   8.345   9.036  0.8878 -0.4060 -0.4422
  889MOL0     O19928   8.186   8.468   9.183 -0.7563 -0.0557  0.0961
  889MOL0     C19929   8.275   8.380   8.841 -0.2292  0.6457  0.1811
  889MOL0     C19930   8.388   8.364   8.758  0.0521 -0.6688 -0.5900
  889MOL0     N19931   8.993   8.009   8.731  0.2920 -0.1305 -0.9373
  889MOL0     N19932   9.092   7.932   8.734 -0.3895 -0.1064  0.4890
  889MOL0     C19933   9.859   7.494   9.101  0.1015 -0.0291 -0.7422
  889MOL0     C19934   9.844   7.370   9.169  1.6802 -0.5500 -0.2870
  889MOL0     C19935   9.963   6.940   9.300  0.0719 -0.0699 -0.1260
  889MOL0     C19936   9.834   6.919   9.342  0.7969  0.2809 -0.2987
  889MOL0     C19937   9.795   6.801   9.402  0.1327  0.0712  0.6103
  889MOL0     C19938   9.884   6.696   9.415 -0.4188 -0.6301  0.5809
  889MOL0     O19939   9.836   6.577   9.458  0.2671  0.5227  0.1832
  889MOL0     C19940   9.938   6.486   9.516  0.5981  0.6489  0.2293
  889MOL0     C19941   9.881   6.370   9.598 -0.2505 -0.8073  0.3231
  889MOL0     C19942   9.795   6.408   9.712 -0.2829  0.1755 -0.1392
  889MOL0     C19943   9.796   6.303   9.826  0.0992 -0.5450 -0.1017
  889MOL0     C19944   9.923   6.229   9.852  0.4153 -0.0448  0.3533
  889MOL0     C19945  10.019   6.181   9.887 -0.1084 -0.0386 -0.7081
  889MOL0     C19946  10.017   6.717   9.368  0.1038 -0.5488  0.6764
  889MOL0     C19947  10.054   6.842   9.321 -0.4553  0.2460  0.2351
  889MOL0     H19948  10.029   7.184   8.960 -2.8120 -4.0445  3.7302
  889MOL0     H19949  10.062   7.415   8.865  1.8883  1.0078  0.3328
  889MOL0     H19950  10.079   7.614   8.786  0.6019  0.9966 -2.0641
  889MOL0     H19951   9.899   7.592   8.737  0.1149  0.6615 -0.4102
  889MOL0     H19952  10.051   7.858   8.780  1.2614 -0.5628 -2.2528
  889MOL0     H19953   9.994   7.786   8.630  2.7447  1.0604 -0.3404
  889MOL0     H19954   9.756   7.789   8.748 -1.0030  1.2495 -0.5990
  889MOL0     H19955   9.843   7.878   8.880  0.4138 -2.3475  1.3208
  889MOL0     H19956   9.885   8.046   8.700  1.1180 -0.0652 -1.6192
  889MOL0     H19957   9.801   7.930   8.578 -2.6923 -2.7145  0.8986
  889MOL0     H19958   9.661   8.050   8.806 -3.0087  1.4474 -0.3524
  889MOL0     H19959   9.685   8.138   8.651  4.2057 -1.1353 -2.0986
  889MOL0     H19960   9.556   8.003   8.537 -2.1475  2.7948  0.7730
  889MOL0     H19961   9.580   7.857   8.648 -1.2551  0.3435  2.3757
  889MOL0     H19962   9.417   7.967   8.819 -3.0271 -1.2752  0.4784
  889MOL0     H19963   9.406   8.092   8.696  0.1593 -1.0581 -0.3134
  889MOL0     H19964   9.314   7.823   8.699  3.1510 -0.8530 -1.4683
  889MOL0     H19965   9.331   7.887   8.535 -3.5508 -0.9764 -0.6315
  889MOL0     H19966   9.207   8.160   8.541  1.1694 -1.9606 -3.3156
  889MOL0     H19967   8.869   8.241   8.732  0.8015  0.2643  0.4372
  889MOL0     H19968   9.002   8.332   8.661  1.3085 -0.2244 -1.0911
  889MOL0     H19969   8.806   8.174   8.483 -0.7871 -0.5060  1.1762
  889MOL0     H19970   8.937   8.284   8.436 -1.6864  0.1294 -1.3187
  889MOL0     H19971   8.729   8.412   8.422 -2.1804 -4.3534 -1.1363
  889MOL0     H19972   8.801   8.479   8.557  0.2042 -0.9502  0.4916
  889MOL0     H19973   8.621   8.231   8.614 -1.6381  0.2689 -0.0091
  889MOL0     H19974   8.555   8.381   8.550  1.0758 -0.3462 -1.6009
  889MOL0     H19975   8.616   8.513   8.959  0.7718  0.0191 -0.1773
  889MOL0     H19976   8.548   8.583   9.152  0.1827 -1.0419  0.1887
  889MOL0     H19977   8.385   8.626   9.164  1.6196  0.7956  0.3034
  889MOL0     H19978   8.443   8.476   9.232  2.8831 -1.8608 -0.6191
  889MOL0     H19979   7.986   8.597   9.206  0.8316 -0.4839  0.1117
  889MOL0     H19980   7.772   8.591   9.330  1.6104 -2.2757  2.3775
  889MOL0     H19981   7.606   8.541   9.430  0.7315  0.8099 -1.3839
  889MOL0     H19982   7.515   8.626   9.303  2.4648  1.5050  0.7515
  889MOL0     H19983   7.400   8.411   9.501 -2.7559 -0.0679  0.7474
  889MOL0     H19984   7.357   8.572   9.498 -0.8278  0.9661 -1.5975
  889MOL0     H19985   7.204   8.393   9.363 -0.9050  0.5514 -1.4062
  889MOL0     H19986   7.316   8.399   9.249  0.2639 -0.4156  2.1380
  889MOL0     H19987   7.141   8.615   9.393 -3.3593 -0.1442 -2.2025
  889MOL0     H19988   7.257   8.665   9.262  0.7545 -0.5633 -0.4888
  889MOL0     H19989   7.029   8.648   9.173 -0.8467 -0.1440 -2.0098
  889MOL0     H19990   7.018   8.480   9.240  2.4945 -2.5148 -0.5307
  889MOL0     H19991   7.228   8.576   9.048  0.0692 -0.5635 -1.8425
  889MOL0     H19992   7.183   8.406   9.080 -1.5180 -0.0454  1.7471
  889MOL0     H19993   7.002   8.605   8.954  1.1090  1.3651  0.0391
  889MOL0     H19994   6.993   8.425   8.941  2.6757 -0.8160 -0.9414
  889MOL0     H19995   7.070   8.513   8.717 -2.8505  1.9656  2.2615
  889MOL0     H19996   7.188   8.409   8.800  1.1469 -0.4228  3.0859
  889MOL0     H19997   7.632   8.287   9.053 -1.1165  2.1605 -0.2548
  889MOL0     H19998   7.866   8.271   8.963  0.9505 -0.6335 -0.1865
  889MOL0     H19999   8.183   8.344   8.796  1.2824  0.6211 -3.2396
  889MOL0     H20000   8.381   8.312   8.662  0.7463 -3.1828  0.6200
  889MOL0     H20001   9.809   7.583   9.137 -1.3360  0.1036 -2.8817
  889MOL0     H20002   9.782   7.354   9.257  0.9725 -2.5045 -1.0983
  889MOL0     H20003   9.762   7.000   9.333  1.8869  1.1936 -1.0360
  889MOL0     H20004   9.694   6.805   9.441 -0.1675  0.4155 -0.1830
  889MOL0     H20005   9.991   6.448   9.428 -1.5777  0.8279 -1.2645
  889MOL0     H20006   9.998   6.547   9.584 -1.4921  1.8790  1.0615
  889MOL0     H20007   9.973   6.322   9.631 -0.4146 -1.0978  0.3602
  889MOL0     H20008   9.824   6.303   9.533 -1.3747  0.9348 -0.5640
  889MOL0     H20009   9.689   6.431   9.692 -1.3539 -2.2214  2.2537
  889MOL0     H20010   9.836   6.498   9.759 -1.0804  0.6527 -0.3184
  889MOL0     H20011   9.721   6.226   9.808  0.8257 -1.0986 -0.8402
  889MOL0     H20012   9.765   6.351   9.919  2.5268  0.2018  0.4044
  889MOL0     H20013  10.096   6.132   9.943 -0.1721 -0.0527 -0.6330
  889MOL0     H20014  10.096   6.644   9.358 -0.7611 -1.8684  2.7788
  889MOL0     H20015  10.158   6.857   9.294  0.1113 -2.6775  0.5298
  890MOL0     O20016   4.167   0.289   6.735 -0.1271 -0.2841 -0.1458
  890MOL0     C20017   4.206   0.404   6.744 -0.3566  0.5146 -0.0082
  890MOL0     O20018   4.114   0.508   6.760 -0.6949 -0.1442  0.0689
  890MOL0     C20019   3.999   0.491   6.837  0.3769  0.0174 -0.0285
  890MOL0     C20020   3.880   0.542   6.801 -0.6677 -0.0035 -1.2130
  890MOL0     C20021   3.771   0.530   6.895 -0.4196  0.3009 -0.7354
  890MOL0     C20022   3.776   0.448   7.009 -0.4885 -0.0719 -0.4171
  890MOL0     O20023   3.676   0.433   7.100 -0.1456  0.6613 -0.1166
  890MOL0     C20024   3.547   0.494   7.066 -0.2721  0.7500 -0.7208
  890MOL0     C20025   3.450   0.469   7.184  0.9423 -0.1108 -0.5738
  890MOL0     C20026   3.309   0.534   7.172  0.4513  0.4731  0.1954
  890MOL0     C20027   3.234   0.489   7.045  0.5125 -0.0661 -0.6812
  890MOL0     C20028   3.098   0.561   7.033 -0.4235 -0.0742 -0.4740
  890MOL0     C20029   3.006   0.550   7.162  0.2339  0.6824 -0.6795
  890MOL0     C20030   2.870   0.605   7.121 -0.6069  0.0035 -0.3411
  890MOL0     C20031   2.868   0.746   7.173  0.2319  0.1632 -0.0489
  890MOL0     N20032   2.767   0.823   7.100 -0.5783 -1.3222 -0.6549
  890MOL0     C20033   2.744   0.843   6.968 -0.3877  0.3978 -0.0071
  890MOL0     C20034   2.646   0.927   6.951 -0.1597 -0.0875 -0.4913
  890MOL0     C20035   2.596   0.981   6.823  0.1258 -0.1862 -0.0620
  890MOL0     C20036   2.439   0.993   6.823 -0.6135  1.0106 -0.6247
  890MOL0     C20037   2.397   1.002   6.681 -0.1766  0.0374  0.1437
  890MOL0     C20038   2.245   1.022   6.672 -0.1022  0.3114  0.7772
  890MOL0     O20039   2.199   1.020   6.537 -1.0091 -0.5507  0.5985
  890MOL0     C20040   2.067   1.047   6.500 -0.2795 -0.0264  0.1225
  890MOL0     C20041   2.053   1.098   6.366 -1.0656 -0.0530  0.4111
  890MOL0     C20042   1.928   1.137   6.310  0.2748  1.0592 -0.4937
  890MOL0     C20043   1.926   1.185   6.162  0.5027 -0.8371 -0.0345
  890MOL0     C20044   1.809   1.118   6.384  0.3268 -0.1978  0.2499
  890MOL0     C20045   1.682   1.142   6.324  1.3867 -0.2479 -1.2086
  890MOL0     O20046   1.656   1.274   6.292  0.2471 -0.7744 -0.4466
  890MOL0     C20047   1.544   1.289   6.216 -0.1692  0.1718  0.0580
  890MOL0     C20048   1.418   1.301   6.280 -0.7860 -0.7940 -0.3675
  890MOL0     C20049   1.302   1.329   6.212  0.5069  1.0146  0.2531
  890MOL0     C20050   1.301   1.349   6.072 -0.3747 -0.3704  0.0700
  890MOL0     O20051   1.179   1.375   6.015 -0.1174  0.8678  0.5476
  890MOL0     C20052   1.073   1.283   6.043 -0.1020 -0.4591  0.4858
  890MOL0     C20053   0.948   1.320   5.961  0.2624  0.3804 -0.6884
  890MOL0     C20054   0.841   1.210   5.989 -0.0358 -0.2333 -1.2465
  890MOL0     C20055   0.710   1.232   5.914  1.0209 -0.4937 -0.6823
  890MOL0     C20056   0.597   1.197   6.009  0.1684  0.1896 -0.1908
  890MOL0     C20057   0.454   1.215   5.937 -1.0117  0.0300 -0.0938
  890MOL0     C20058   0.341   1.162   6.034 -0.0179 -0.6669  1.0023
  890MOL0     C20059   0.199   1.152   5.968  0.0556  0.2725  0.1544
  890MOL0    Cl20060   0.137   1.318   5.948  0.0430 -0.3567 -0.1094
  890MOL0     C20061   1.421   1.333   6.001 -0.6714  0.3079  0.3858
  890MOL0     C20062   1.538   1.306   6.074 -0.6416 -0.4701  0.5047
  890MOL0     O20063   1.608   1.046   6.291 -0.3525  0.0391 -0.4183
  890MOL0     C20064   1.823   1.056   6.511  0.1358 -0.6266 -0.3437
  890MOL0     C20065   1.945   1.017   6.571 -0.5772  0.3009  0.2240
  890MOL0     N20066   2.614   0.974   7.077  0.1118  0.4955 -0.5004
  890MOL0     N20067   2.681   0.906   7.169 -0.3951  0.6159 -0.6759
  890MOL0     C20068   3.898   0.394   7.036  0.8883  0.9765 -0.0886
  890MOL0     C20069   4.007   0.411   6.955  0.4980  0.2165  0.7651
  890MOL0     C20070   4.353   0.432   6.742  0.4857 -0.5111  0.5874
  890MOL0     C20071   4.403   0.556   6.748 -0.4643 -0.0943 -0.3197
  890MOL0     C20072   4.539   0.576   6.741 -0.7088 -0.3798 -0.3972
  890MOL0     C20073   4.628   0.468   6.756 -0.0055 -0.5730  0.1329
  890MOL0     O20074   4.766   0.482   6.761 -0.3983 -0.9633 -0.6465
  890MOL0     C20075   4.813   0.584   6.672  0.6563 -0.0676  0.6935
  890MOL0     C20076   4.960   0.549   6.631 -0.0867 -0.8141  0.4252
  890MOL0     C20077   4.976   0.396   6.590  0.7497 -0.8757  0.3548
  890MOL0     C20078   5.092   0.330   6.667 -0.3181 -0.7231  0.7703
  890MOL0     C20079   5.212   0.396   6.618  0.1002 -0.2817  0.3623
  890MOL0     C20080   5.319   0.449   6.610 -0.6398  0.6242  0.5464
  890MOL0     C20081   4.573   0.336   6.756 -0.4670  0.1957 -0.0506
  890MOL0     C20082   4.437   0.320   6.752 -0.3932  0.2138  0.7831
  890MOL0     H20083   3.873   0.604   6.712  1.0429  3.7252  1.0126
  890MOL0     H20084   3.675   0.570   6.864 -0.8329 -0.3446 -0.3025
  890MOL0     H20085   3.564   0.601   7.053  0.5053  0.6272 -0.7678
  890MOL0     H20086   3.509   0.448   6.974  2.7568 -2.2317 -0.6980
  890MOL0     H20087   3.435   0.363   7.204 -3.1603  0.6735  1.4527
  890MOL0     H20088   3.490   0.509   7.278 -1.9405  1.1698  0.2182
  890MOL0     H20089   3.248   0.499   7.256 -2.1219  2.5437 -0.6981
  890MOL0     H20090   3.323   0.641   7.185 -0.7074  0.4584  2.0994
  890MOL0     H20091   3.298   0.520   6.962 -1.1311 -2.2951 -2.9056
  890MOL0     H20092   3.215   0.381   7.044  3.4124 -0.7106 -3.1865
  890MOL0     H20093   3.115   0.667   7.011 -1.6919 -0.2615 -2.6140
  890MOL0     H20094   3.042   0.520   6.949  1.1793  0.8971 -2.0983
  890MOL0     H20095   3.002   0.445   7.194  1.3500 -0.0416 -2.7320
  890MOL0     H20096   3.054   0.601   7.247  0.1733 -0.6763  0.1973
  890MOL0     H20097   2.849   0.593   7.015 -2.9609  4.9630 -0.7313
  890MOL0     H20098   2.792   0.554   7.178 -0.6572  1.1944  0.6997
  890MOL0     H20099   2.961   0.795   7.145  0.9485 -0.3852  1.3087
  890MOL0     H20100   2.865   0.750   7.282 -2.4212 -3.3248  0.1769
  890MOL0     H20101   2.808   0.814   6.885 -0.1142  1.1064 -0.0526
  890MOL0     H20102   2.630   1.082   6.800 -1.4301  0.3170 -0.3026
  890MOL0     H20103   2.632   0.922   6.738  0.0477  1.6403 -1.4251
  890MOL0     H20104   2.419   1.088   6.874  3.2365  1.2175  0.9052
  890MOL0     H20105   2.383   0.916   6.877  0.4903 -0.0233 -0.9070
  890MOL0     H20106   2.438   0.917   6.627  2.8074  1.9867 -0.8847
  890MOL0     H20107   2.441   1.091   6.635  0.5883 -0.5561 -0.2776
  890MOL0     H20108   2.216   1.111   6.729  0.1355 -0.2729  1.8396
  890MOL0     H20109   2.200   0.940   6.729  0.3223  0.7649  1.8011
  890MOL0     H20110   2.141   1.108   6.303 -1.3986  0.9905  0.0895
  890MOL0     H20111   2.026   1.179   6.117  1.7593  2.6024  1.9088
  890MOL0     H20112   1.853   1.131   6.102  0.7825  0.8307 -2.0094
  890MOL0     H20113   1.894   1.289   6.154 -0.4529 -1.1379 -0.2415
  890MOL0     H20114   1.398   1.293   6.386 -0.1177 -3.9728 -0.3871
  890MOL0     H20115   1.211   1.342   6.271  1.6881  1.3823  2.0653
  890MOL0     H20116   1.101   1.186   6.002 -1.4290 -0.7671  0.2669
  890MOL0     H20117   1.050   1.300   6.148 -0.0678  0.3976  0.3665
  890MOL0     H20118   0.910   1.416   5.999 -1.4181 -1.0071  1.4288
  890MOL0     H20119   0.965   1.331   5.854 -0.2466 -2.0050 -1.0706
  890MOL0     H20120   0.827   1.213   6.098  1.2346 -0.7563 -1.0393
  890MOL0     H20121   0.876   1.107   5.979  2.3909  0.2687  0.9072
  890MOL0     H20122   0.702   1.340   5.899  0.7983  0.4784  4.5142
  890MOL0     H20123   0.716   1.175   5.820 -0.3610  1.5041 -2.0559
  890MOL0     H20124   0.591   1.263   6.096 -3.3913 -0.6653  0.3918
  890MOL0     H20125   0.606   1.095   6.049 -0.3882  0.1636 -0.1275
  890MOL0     H20126   0.434   1.320   5.916  0.9074  0.1782 -1.3770
  890MOL0     H20127   0.443   1.160   5.843  0.8834 -2.3153  0.9424
  890MOL0     H20128   0.332   1.218   6.127 -1.5037  0.1742  0.3850
  890MOL0     H20129   0.369   1.058   6.056  0.5762 -0.9250 -0.7424
  890MOL0     H20130   0.118   1.102   6.022  0.5472  0.2483  0.8775
  890MOL0     H20131   0.218   1.098   5.875 -0.8410 -0.8194  0.5830
  890MOL0     H20132   1.434   1.334   5.894  1.0140 -0.0297  0.5563
  890MOL0     H20133   1.625   1.303   6.009  0.2983  0.1129  1.7007
  890MOL0     H20134   1.731   1.024   6.560  0.0557 -2.3214 -1.4851
  890MOL0     H20135   1.945   0.958   6.662  2.1082  0.9728  0.7505
  890MOL0     H20136   3.921   0.335   7.125 -0.7571 -2.6355 -1.8636
  890MOL0     H20137   4.101   0.367   6.988  0.3826  0.5058  1.4898
  890MOL0     H20138   4.337   0.639   6.726 -0.3842  0.1169  0.2226
  890MOL0     H20139   4.575   0.679   6.737 -2.3022  0.1912 -3.2780
  890MOL0     H20140   4.766   0.577   6.573 -0.0382  2.4150  0.7981
  890MOL0     H20141   4.810   0.688   6.706 -2.1957  0.1758 -0.0371
  890MOL0     H20142   5.031   0.572   6.711  1.3742  2.8886 -1.6605
  890MOL0     H20143   4.986   0.622   6.554  0.5208 -2.4555 -0.9960
  890MOL0     H20144   4.996   0.394   6.482 -0.7508 -1.5800  0.0657
  890MOL0     H20145   4.881   0.345   6.605 -0.5593  1.5907  0.9508
  890MOL0     H20146   5.112   0.224   6.649 -1.7044 -1.0819  1.2628
  890MOL0     H20147   5.083   0.348   6.775  0.4808  0.2894  0.6873
  890MOL0     H20148   5.417   0.491   6.596  0.2868 -1.6789 -0.5447
  890MOL0     H20149   4.638   0.249   6.749 -1.9133 -0.7573 -3.5588
  890MOL0     H20150   4.400   0.219   6.737  0.4714  0.2451 -2.2472
  891MOL0     O20151   2.579   3.559   4.496 -0.2993 -0.2852 -0.0124
  891MOL0     C20152   2.637   3.660   4.502 -0.1712 -0.3238  0.5648
  891MOL0     O20153   2.775   3.680   4.538  0.2367 -0.0716  0.1819
  891MOL0     C20154   2.866   3.580   4.552 -0.4107 -0.3186  0.2729
  891MOL0     C20155   2.844   3.446   4.587 -0.8687  0.1490 -0.2524
  891MOL0     C20156   2.948   3.353   4.604 -0.3197 -0.9375  0.1190
  891MOL0     C20157   3.081   3.384   4.563  0.8034 -0.4795  0.6259
  891MOL0     O20158   3.166   3.276   4.576  0.0479 -0.0245 -0.6823
  891MOL0     C20159   3.279   3.258   4.491 -0.5142  0.3584  0.3328
  891MOL0     C20160   3.398   3.323   4.554 -0.3915  0.3862  0.2765
  891MOL0     C20161   3.536   3.270   4.503 -0.0392  0.6963 -0.1792
  891MOL0     C20162   3.649   3.357   4.563  0.8397  0.3658 -0.0420
  891MOL0     C20163   3.786   3.316   4.529  0.4490 -0.1760  0.3222
  891MOL0     C20164   3.853   3.428   4.442  0.3294 -0.4900 -0.0621
  891MOL0     C20165   4.002   3.396   4.411  0.5891 -0.6270  0.0103
  891MOL0     C20166   4.007   3.273   4.315 -0.6084  0.4426  0.0622
  891MOL0     N20167   4.145   3.239   4.271 -0.4847 -0.5606 -0.1869
  891MOL0     C20168   4.263   3.284   4.331  0.7522  0.3587 -0.2152
  891MOL0     C20169   4.361   3.217   4.253  0.2390  0.2391 -0.3945
  891MOL0     C20170   4.515   3.219   4.281  0.0008  0.1598  1.0205
  891MOL0     C20171   4.588   3.217   4.147  0.7411 -0.4187  0.1193
  891MOL0     C20172   4.729   3.187   4.161 -0.3125  0.8993 -0.7746
  891MOL0     C20173   4.813   3.179   4.037  0.1527 -0.3304 -0.3381
  891MOL0     O20174   4.941   3.138   4.090 -0.2095  0.6941  0.2808
  891MOL0     C20175   5.052   3.188   4.026 -0.3859 -0.7376 -0.0107
  891MOL0     C20176   5.083   3.156   3.891 -0.9434  0.2665  0.3620
  891MOL0     C20177   5.194   3.221   3.820 -0.7562  0.1719  0.3532
  891MOL0     C20178   5.219   3.159   3.691 -0.5126 -0.3837 -0.0910
  891MOL0     C20179   5.271   3.314   3.891  0.4424  0.1700 -0.1144
  891MOL0     C20180   5.392   3.374   3.829 -0.2398  0.0579 -0.6680
  891MOL0     O20181   5.497   3.400   3.912  0.0407 -1.0084  0.3123
  891MOL0     C20182   5.616   3.413   3.841 -0.4596  0.3723  0.3415
  891MOL0     C20183   5.732   3.340   3.873  0.2062  0.5876  0.6545
  891MOL0     C20184   5.854   3.366   3.807  0.8820  0.0331  0.3384
  891MOL0     C20185   5.869   3.474   3.726 -0.3107  0.2882  1.7427
  891MOL0     O20186   5.986   3.518   3.670 -0.4299  0.3935  0.1219
  891MOL0     C20187   6.087   3.419   3.641  0.3634 -0.4810 -0.2822
  891MOL0     C20188   6.192   3.407   3.744 -0.1172 -0.2370  0.7568
  891MOL0     C20189   6.278   3.529   3.781  0.0005 -0.0779 -0.5978
  891MOL0     C20190   6.367   3.482   3.895 -0.6116  0.1224 -1.0238
  891MOL0     C20191   6.506   3.442   3.852 -1.3710  0.0592 -0.0941
  891MOL0     C20192   6.594   3.562   3.819  0.7395 -0.6068  0.8967
  891MOL0     C20193   6.747   3.535   3.813 -0.2412  0.2430  0.7834
  891MOL0     C20194   6.808   3.507   3.954 -0.2141  0.3442  0.6382
  891MOL0    Cl20195   6.958   3.420   3.908 -0.1674 -0.1236  0.5368
  891MOL0     C20196   5.762   3.555   3.699  0.7648 -0.1172  0.8139
  891MOL0     C20197   5.636   3.532   3.761 -0.5177  0.8480  0.2342
  891MOL0     O20198   5.383   3.400   3.709 -0.3213 -0.0664 -0.2299
  891MOL0     C20199   5.237   3.334   4.028  0.5713 -0.3106  0.1510
  891MOL0     C20200   5.132   3.277   4.096 -0.2018 -0.2406  0.6589
  891MOL0     N20201   4.296   3.150   4.149 -0.0734  0.6232 -0.2754
  891MOL0     N20202   4.163   3.167   4.164 -0.6671 -1.0360  0.1642
  891MOL0     C20203   3.111   3.510   4.516 -0.7799 -0.1312  0.2602
  891MOL0     C20204   3.003   3.609   4.514  0.0280  0.4078  0.6643
  891MOL0     C20205   2.558   3.781   4.459 -0.2576  0.0380  1.0495
  891MOL0     C20206   2.616   3.907   4.490 -0.5189  0.9466 -0.4538
  891MOL0     C20207   2.551   4.024   4.457  0.0841 -1.0311 -0.1094
  891MOL0     C20208   2.431   4.017   4.383 -0.1801 -0.3224  0.2415
  891MOL0     O20209   2.375   4.146   4.348 -0.3127  0.3259  0.3707
  891MOL0     C20210   2.473   4.245   4.295  0.0413  0.3070  1.3973
  891MOL0     C20211   2.401   4.345   4.225  0.0790  0.3158 -0.1462
  891MOL0     C20212   2.342   4.456   4.309 -0.1045  0.5109  0.3505
  891MOL0     C20213   2.250   4.409   4.425 -0.3745 -0.5271  0.3067
  891MOL0     C20214   2.195   4.525   4.503 -0.3303 -0.4759 -0.1974
  891MOL0     C20215   2.159   4.612   4.576  0.0457 -0.5463  0.9342
  891MOL0     C20216   2.368   3.896   4.356 -0.4639 -0.1666  0.2439
  891MOL0     C20217   2.431   3.776   4.397  0.2686  0.2132  0.4424
  891MOL0     H20218   2.747   3.418   4.628 -1.0916 -0.1814 -0.9884
  891MOL0     H20219   2.931   3.253   4.643  0.7946 -0.7914  1.0250
  891MOL0     H20220   3.297   3.150   4.487  0.7981  0.5540  0.2312
  891MOL0     H20221   3.260   3.292   4.389  1.7988 -0.2479 -0.3592
  891MOL0     H20222   3.391   3.430   4.535 -0.2791  0.2912 -0.3132
  891MOL0     H20223   3.395   3.305   4.662  0.6805 -3.2646 -0.1503
  891MOL0     H20224   3.553   3.171   4.547 -1.6585  1.2658  1.8938
  891MOL0     H20225   3.536   3.261   4.394 -1.6877 -0.8636 -0.0926
  891MOL0     H20226   3.626   3.460   4.535  0.2142  0.8803  2.1872
  891MOL0     H20227   3.639   3.360   4.671  0.0791 -1.3087 -0.0292
  891MOL0     H20228   3.843   3.303   4.621 -0.0544  1.1869  0.8580
  891MOL0     H20229   3.768   3.218   4.484 -0.2085  0.0615  0.0568
  891MOL0     H20230   3.798   3.432   4.347 -0.0816 -1.7505  0.1113
  891MOL0     H20231   3.843   3.524   4.493 -0.4363  0.1719 -1.3935
  891MOL0     H20232   4.047   3.477   4.353  0.7050 -1.5000 -1.1677
  891MOL0     H20233   4.060   3.363   4.497  2.1762 -3.4153 -1.9941
  891MOL0     H20234   3.955   3.287   4.221 -0.7407 -0.7293 -0.0627
  891MOL0     H20235   3.976   3.174   4.352 -0.7443 -0.0124 -1.2265
  891MOL0     H20236   4.285   3.335   4.424  0.2301 -1.1398  0.7727
  891MOL0     H20237   4.523   3.315   4.333 -0.1602  0.6376  0.1825
  891MOL0     H20238   4.545   3.137   4.347 -1.0909 -0.0050  1.3401
  891MOL0     H20239   4.580   3.309   4.089  0.3121 -1.9545 -2.4423
  891MOL0     H20240   4.542   3.148   4.075  1.9868  1.2992 -2.4597
  891MOL0     H20241   4.739   3.090   4.211 -0.5943  1.7425  0.9871
  891MOL0     H20242   4.774   3.264   4.225  0.8179 -0.6031  0.3000
  891MOL0     H20243   4.815   3.270   3.976 -1.2243 -0.8309 -1.1677
  891MOL0     H20244   4.784   3.095   3.973 -2.9245  0.6947 -0.4405
  891MOL0     H20245   5.031   3.069   3.852 -0.9546  1.1048 -1.5957
  891MOL0     H20246   5.166   3.213   3.612 -1.1515  0.4031  0.8512
  891MOL0     H20247   5.322   3.153   3.653 -0.3165 -0.7643  0.4842
  891MOL0     H20248   5.178   3.058   3.693  0.9667 -1.0096  0.6259
  891MOL0     H20249   5.725   3.262   3.948 -1.5182  0.8783  0.8445
  891MOL0     H20250   5.923   3.286   3.833  0.6929 -0.8115 -1.5730
  891MOL0     H20251   6.045   3.321   3.620 -1.8706 -0.0321  1.7651
  891MOL0     H20252   6.137   3.451   3.548  1.0026  2.4041  0.9234
  891MOL0     H20253   6.137   3.378   3.834 -1.5637  0.2851  0.0705
  891MOL0     H20254   6.259   3.331   3.702  1.4835  0.6957  1.5519
  891MOL0     H20255   6.211   3.602   3.828  0.3662  0.0720 -0.3030
  891MOL0     H20256   6.327   3.584   3.699 -0.1674  1.4840  0.3114
  891MOL0     H20257   6.384   3.560   3.970 -3.0374 -0.9103  0.7222
  891MOL0     H20258   6.318   3.407   3.956  0.1025  1.2994  1.1153
  891MOL0     H20259   6.491   3.380   3.763 -1.6216  0.3123 -0.2275
  891MOL0     H20260   6.550   3.376   3.927  1.4820 -0.8225 -2.3330
  891MOL0     H20261   6.567   3.601   3.721  1.0848 -0.3367  0.9058
  891MOL0     H20262   6.574   3.649   3.883 -0.6159 -0.6141  0.5154
  891MOL0     H20263   6.794   3.630   3.784  0.4343 -0.2592  0.2101
  891MOL0     H20264   6.766   3.464   3.732 -4.2583  2.4426 -2.4420
  891MOL0     H20265   6.746   3.439   4.014 -0.1710  0.4622  0.8168
  891MOL0     H20266   6.817   3.603   4.005  1.1829  0.3149  0.4800
  891MOL0     H20267   5.773   3.643   3.636  0.6052  0.5302  1.6807
  891MOL0     H20268   5.556   3.603   3.745 -0.5869  0.1209 -3.8755
  891MOL0     H20269   5.301   3.403   4.082 -0.7921 -0.4169  2.0183
  891MOL0     H20270   5.114   3.314   4.197  3.7678  1.1313  1.0221
  891MOL0     H20271   3.211   3.540   4.485 -0.3236 -1.9950 -0.1609
  891MOL0     H20272   3.027   3.710   4.484  3.0290 -0.7086 -1.1800
  891MOL0     H20273   2.695   3.914   4.564 -0.5431  2.9626 -0.5824
  891MOL0     H20274   2.596   4.122   4.469  1.7918 -1.7524 -0.3320
  891MOL0     H20275   2.515   4.286   4.387  0.6242 -0.1398  1.3339
  891MOL0     H20276   2.533   4.196   4.218 -3.2994 -1.9672 -0.0283
  891MOL0     H20277   2.326   4.297   4.162 -0.0776 -1.7274  1.4863
  891MOL0     H20278   2.473   4.397   4.162  1.7842  1.6374  2.6612
  891MOL0     H20279   2.286   4.531   4.253 -1.8129  0.8200  2.3660
  891MOL0     H20280   2.435   4.499   4.349  0.6378 -2.7326  2.5547
  891MOL0     H20281   2.301   4.336   4.487  1.5390  0.2328 -0.3079
  891MOL0     H20282   2.163   4.361   4.379  1.7891 -1.2420 -3.4951
  891MOL0     H20283   2.101   4.694   4.615 -2.4631 -0.6176 -2.2154
  891MOL0     H20284   2.273   3.903   4.305 -0.5566  2.6595  0.5870
  891MOL0     H20285   2.385   3.679   4.383  0.6480  0.1134 -0.1214
  892MOL0     O20286   8.708  10.818   6.038  0.0990  0.4804 -0.2764
  892MOL0     C20287   8.695  10.734   5.947 -0.1402  0.2054  0.5688
  892MOL0     O20288   8.570  10.691   5.908 -1.0442 -0.3216 -0.2515
  892MOL0     C20289   8.446  10.718   5.973  0.1268  0.6703  0.2265
  892MOL0     C20290   8.337  10.676   5.885 -0.0055 -0.2461 -0.7267
  892MOL0     C20291   8.208  10.694   5.927 -0.0669  1.2881  0.1750
  892MOL0     C20292   8.178  10.766   6.037 -1.0443  0.1999 -1.4966
  892MOL0     O20293   8.048  10.800   6.076  1.1677  0.3005 -0.2543
  892MOL0     C20294   7.941  10.705   6.037  0.1082  0.0952  0.7107
  892MOL0     C20295   7.811  10.734   6.121 -0.5881 -0.7505  0.4166
  892MOL0     C20296   7.825  10.674   6.264  0.6454  0.1824  0.2204
  892MOL0     C20297   7.916  10.762   6.351  0.3691 -0.0514  0.0391
  892MOL0     C20298   7.947  10.696   6.489 -0.4666  0.9065  0.2254
  892MOL0     C20299   7.822  10.671   6.569  0.6097  1.0287 -0.6560
  892MOL0     C20300   7.736  10.800   6.590 -0.5161  0.4228  0.2641
  892MOL0     C20301   7.601  10.775   6.667 -1.4942  0.9311  0.7464
  892MOL0     N20302   7.516  10.889   6.657  0.5364 -0.1954 -0.0808
  892MOL0     C20303   7.419  10.911   6.567  0.6450  0.1114 -0.4136
  892MOL0     C20304   7.363  11.030   6.603 -0.2656 -0.0725  0.4922
  892MOL0     C20305   7.229  11.089   6.549 -0.6710 -0.1467 -0.6397
  892MOL0     C20306   7.102  11.032   6.630  0.1158 -0.9427  0.4726
  892MOL0     C20307   6.983  11.111   6.574 -0.2844 -0.2858  0.0818
  892MOL0     C20308   6.855  11.060   6.644 -0.2411  0.5685  0.0673
  892MOL0     O20309   6.745  11.127   6.595 -0.0858 -0.8784  0.1816
  892MOL0     C20310   6.617  11.116   6.652  0.6003 -0.0629 -0.1765
  892MOL0     C20311   6.588  11.010   6.736  0.0223  1.1358 -0.3305
  892MOL0     C20312   6.464  10.992   6.804 -0.7473 -0.6872 -0.3590
  892MOL0     C20313   6.451  10.862   6.883  0.6272 -0.7149 -0.1870
  892MOL0     C20314   6.365  11.095   6.796  0.1078 -0.6238 -1.0026
  892MOL0     C20315   6.245  11.084   6.879  0.8786 -0.5354  0.4501
  892MOL0     O20316   6.156  11.171   6.836  0.0545  0.0370 -0.5842
  892MOL0     C20317   6.047  11.195   6.906  0.3462 -0.1959 -0.0391
  892MOL0     C20318   5.951  11.091   6.913  0.3723 -1.2591 -0.7440
  892MOL0     C20319   5.821  11.116   6.968 -0.2555 -0.7533 -0.0375
  892MOL0     C20320   5.793  11.253   7.001  0.9179 -0.1548 -0.0269
  892MOL0     O20321   5.664  11.295   7.031 -0.0286 -0.1268 -0.1971
  892MOL0     C20322   5.578  11.192   7.095 -0.2038 -1.0564 -0.4915
  892MOL0     C20323   5.454  11.267   7.154  0.1975 -0.1911  0.2012
  892MOL0     C20324   5.348  11.293   7.051  0.4971 -0.1820  0.2331
  892MOL0     C20325   5.221  11.353   7.111 -0.1355  0.7090 -0.4387
  892MOL0     C20326   5.113  11.373   6.996 -0.1272  0.0422 -0.5824
  892MOL0     C20327   4.989  11.429   7.048  0.2618 -0.9132 -0.1624
  892MOL0     C20328   4.997  11.571   7.115 -0.0885 -0.6255 -0.1234
  892MOL0     C20329   4.854  11.613   7.168 -0.0676 -0.5498  0.0189
  892MOL0    Cl20330   4.736  11.628   7.033  0.1643  0.8114 -0.1422
  892MOL0     C20331   5.889  11.352   6.991 -0.3672 -0.0067 -0.1217
  892MOL0     C20332   6.013  11.327   6.950  0.0769 -0.3708 -0.2677
  892MOL0     O20333   6.228  11.002   6.965 -0.0232 -0.0121 -0.0346
  892MOL0     C20334   6.401  11.199   6.704  0.5996 -0.1096 -0.1823
  892MOL0     C20335   6.519  11.214   6.633  0.1434  0.1708 -0.3196
  892MOL0     N20336   7.433  11.084   6.706  0.1847 -0.1305 -0.7707
  892MOL0     N20337   7.522  10.994   6.748 -0.3638 -0.0378  0.2241
  892MOL0     C20338   8.284  10.815   6.115 -0.5149 -0.1360 -0.6847
  892MOL0     C20339   8.416  10.786   6.092 -0.4093  0.3193 -0.1257
  892MOL0     C20340   8.810  10.710   5.860  0.3601  0.2167  0.2171
  892MOL0     C20341   8.785  10.670   5.724  0.0860  0.2777  0.0488
  892MOL0     C20342   8.892  10.653   5.638 -0.1523  0.5315  0.2710
  892MOL0     C20343   9.022  10.660   5.671 -0.0862  0.8694 -0.6358
  892MOL0     O20344   9.120  10.638   5.585  0.6662  0.0444 -0.1452
  892MOL0     C20345   9.122  10.533   5.491 -0.4462 -0.6991  0.0292
  892MOL0     C20346   9.274  10.497   5.484 -0.4736 -0.1254 -0.2233
  892MOL0     C20347   9.304  10.429   5.351 -0.0086 -0.2124 -0.2339
  892MOL0     C20348   9.453  10.420   5.317  0.7789 -0.2089 -0.2859
  892MOL0     C20349   9.506  10.286   5.355 -0.2205 -0.8553 -0.2665
  892MOL0     C20350   9.557  10.181   5.383 -0.2402  0.0757 -0.1234
  892MOL0     C20351   9.054  10.697   5.800  0.1173  1.6091 -0.1594
  892MOL0     C20352   8.950  10.723   5.893 -0.6093 -0.6178  1.3821
  892MOL0     H20353   8.355  10.629   5.790  0.8588  1.3173 -1.3734
  892MOL0     H20354   8.138  10.648   5.858  1.9327  0.4582 -1.4203
  892MOL0     H20355   7.910  10.723   5.934  2.9832 -0.0856 -0.2488
  892MOL0     H20356   7.971  10.600   6.041 -0.0950 -0.0528 -1.0696
  892MOL0     H20357   7.797  10.842   6.130  0.0727 -0.6705  0.5658
  892MOL0     H20358   7.726  10.691   6.067 -1.8303  2.2727 -0.2337
  892MOL0     H20359   7.730  10.661   6.317  0.7140  1.6698  0.7756
  892MOL0     H20360   7.869  10.575   6.253 -1.7852 -0.7625 -2.6956
  892MOL0     H20361   8.016  10.774   6.309  0.5032  1.8980  0.8147
  892MOL0     H20362   7.888  10.866   6.371 -0.0061 -0.3989  1.4547
  892MOL0     H20363   7.997  10.601   6.471 -0.4289  0.6156  1.7445
  892MOL0     H20364   8.020  10.757   6.542  0.8421 -0.7634  0.4048
  892MOL0     H20365   7.762  10.591   6.524 -0.4720  1.1785  0.4400
  892MOL0     H20366   7.851  10.633   6.667 -1.9019 -0.5501 -0.4434
  892MOL0     H20367   7.791  10.883   6.635 -1.6261  1.3370 -0.0180
  892MOL0     H20368   7.709  10.841   6.492  1.2305 -1.4953 -1.1060
  892MOL0     H20369   7.635  10.747   6.767  2.3964  1.5635 -0.2379
  892MOL0     H20370   7.550  10.684   6.634 -4.1162  1.6920  2.3807
  892MOL0     H20371   7.390  10.834   6.496  3.7785 -2.8522  1.2166
  892MOL0     H20372   7.231  11.198   6.561  1.9697 -0.3977  2.5882
  892MOL0     H20373   7.229  11.052   6.446  0.0995 -0.0625 -0.6755
  892MOL0     H20374   7.112  11.040   6.738  1.4407  0.7264  0.2618
  892MOL0     H20375   7.083  10.927   6.607  4.1547 -2.1499  1.7954
  892MOL0     H20376   6.976  11.096   6.466  2.1057 -1.0732 -0.0346
  892MOL0     H20377   7.001  11.217   6.594 -1.2839  0.0511 -0.7700
  892MOL0     H20378   6.867  11.081   6.750 -2.6765  3.5799 -0.1271
  892MOL0     H20379   6.855  10.953   6.619  0.3668  1.0080 -2.0470
  892MOL0     H20380   6.664  10.933   6.743 -1.7768 -0.7024 -0.1156
  892MOL0     H20381   6.440  10.897   6.986  1.3180  1.1437 -0.6919
  892MOL0     H20382   6.366  10.805   6.845  0.0462 -0.2876  0.4544
  892MOL0     H20383   6.529  10.785   6.879  0.2431 -1.1712  0.7488
  892MOL0     H20384   5.966  10.995   6.864 -1.4761 -0.7336 -2.4831
  892MOL0     H20385   5.753  11.032   6.974  1.2084 -1.8876  1.6078
  892MOL0     H20386   5.554  11.106   7.032  1.3882 -3.3003  1.7620
  892MOL0     H20387   5.638  11.141   7.171 -0.3199 -0.5229 -0.0389
  892MOL0     H20388   5.404  11.211   7.233 -0.8472  2.6901  1.7106
  892MOL0     H20389   5.482  11.357   7.210 -2.1316  1.2047 -0.7377
  892MOL0     H20390   5.327  11.198   7.002  0.7782 -0.3000  0.3399
  892MOL0     H20391   5.379  11.362   6.972  1.4910  0.9249  1.5287
  892MOL0     H20392   5.165  11.296   7.185 -1.3521  1.5105 -0.7114
  892MOL0     H20393   5.249  11.454   7.141 -0.3633  1.4211 -2.4723
  892MOL0     H20394   5.087  11.282   6.941 -0.9494  0.7945 -1.4849
  892MOL0     H20395   5.160  11.430   6.915  1.2115 -0.1265  0.0369
  892MOL0     H20396   4.908  11.427   6.975 -2.6029  0.5421  2.7108
  892MOL0     H20397   4.947  11.365   7.126 -1.9543 -2.0774 -2.1657
  892MOL0     H20398   5.032  11.653   7.052 -2.1026  1.7598  1.6620
  892MOL0     H20399   5.066  11.563   7.200 -3.4669 -0.0280  2.8835
  892MOL0     H20400   4.859  11.710   7.218  0.5121 -0.1816 -0.7198
  892MOL0     H20401   4.830  11.542   7.248  2.5028 -3.3569 -1.4711
  892MOL0     H20402   5.863  11.447   7.036 -2.8490 -0.5163 -0.3405
  892MOL0     H20403   6.080  11.412   6.942  2.7748 -2.3349 -0.0818
  892MOL0     H20404   6.320  11.270   6.693 -1.8332 -2.7855 -1.1611
  892MOL0     H20405   6.540  11.302   6.574 -0.0120  1.0381  0.8696
  892MOL0     H20406   8.256  10.871   6.203 -0.1195  1.2697 -1.4304
  892MOL0     H20407   8.492  10.820   6.161 -1.7554  1.0054  1.0713
  892MOL0     H20408   8.685  10.659   5.685 -0.2294 -0.1567  0.9490
  892MOL0     H20409   8.875  10.629   5.533 -0.6105 -1.9785  0.8481
  892MOL0     H20410   9.048  10.456   5.514 -2.6962  0.4439 -2.7400
  892MOL0     H20411   9.090  10.575   5.395  0.2242  0.0738  0.1328
  892MOL0     H20412   9.307  10.441   5.572 -2.3735  1.2027  1.4255
  892MOL0     H20413   9.331  10.590   5.478  3.0448 -2.1153 -0.1553
  892MOL0     H20414   9.246  10.472   5.270  1.6402 -0.7868 -1.7849
  892MOL0     H20415   9.268  10.326   5.359  2.0719 -0.9376  0.7623
  892MOL0     H20416   9.497  10.501   5.376 -0.9089  0.9072 -0.4987
  892MOL0     H20417   9.481  10.436   5.213  2.7649 -0.7695  0.1236
  892MOL0     H20418   9.603  10.087   5.404  0.1466 -0.7038 -3.8308
  892MOL0     H20419   9.160  10.709   5.825  0.5958  1.3856 -1.9555
  892MOL0     H20420   8.974  10.760   5.992 -1.2423  0.0196  1.3047
  893MOL0     O20421  10.195   3.590  10.329 -0.6692 -0.5544 -0.1371
  893MOL0     C20422  10.237   3.569  10.215  0.0786  0.3069 -0.2168
  893MOL0     O20423  10.199   3.632  10.099  0.1141  0.4839 -0.2817
  893MOL0     C20424  10.084   3.702  10.095  0.5649  0.0560 -0.3855
  893MOL0     C20425   9.960   3.674  10.158  1.1175  1.6100 -0.3438
  893MOL0     C20426   9.846   3.750  10.151 -0.7161  0.4174 -0.1125
  893MOL0     C20427   9.850   3.856  10.064  0.2947  0.0829  0.0911
  893MOL0     O20428   9.734   3.925  10.055  0.0477  0.2488 -0.4793
  893MOL0     C20429   9.732   4.056   9.987 -0.3338  0.3287  0.0239
  893MOL0     C20430   9.608   4.142   9.997 -0.5263  0.7092 -0.8239
  893MOL0     C20431   9.485   4.065   9.936 -0.9095 -0.0329  0.4493
  893MOL0     C20432   9.361   4.161   9.946 -0.6596  0.2789  0.4774
  893MOL0     C20433   9.233   4.123   9.869  0.3496  0.6618 -0.5885
  893MOL0     C20434   9.106   4.207   9.901  0.2926  1.5720 -0.4711
  893MOL0     C20435   8.975   4.131   9.893 -0.2221  0.1412  0.3400
  893MOL0     C20436   8.858   4.228   9.940 -0.0916  0.7192  0.2558
  893MOL0     N20437   8.828   4.318   9.832  0.5417 -0.0602  0.6515
  893MOL0     C20438   8.739   4.296   9.731 -0.3485  0.2046 -0.7229
  893MOL0     C20439   8.723   4.413   9.664  0.5758 -0.5508 -0.4461
  893MOL0     C20440   8.626   4.443   9.556  0.2957  0.7522  0.3199
  893MOL0     C20441   8.484   4.449   9.589 -0.4754 -0.9351 -0.3168
  893MOL0     C20442   8.431   4.595   9.571 -0.2320 -0.6885  1.5383
  893MOL0     C20443   8.282   4.617   9.632  0.7107  0.4033 -0.4143
  893MOL0     O20444   8.186   4.532   9.558  0.0401 -0.1844  0.0616
  893MOL0     C20445   8.070   4.570   9.504  0.4656  0.2858 -1.0199
  893MOL0     C20446   8.010   4.698   9.516  0.1447  0.0371 -1.1688
  893MOL0     C20447   7.873   4.732   9.478  0.1621  0.6900  0.9341
  893MOL0     C20448   7.827   4.871   9.506  0.6900 -0.2601  0.2460
  893MOL0     C20449   7.806   4.628   9.409 -0.2023 -0.0927  0.3900
  893MOL0     C20450   7.655   4.626   9.371 -0.1035 -0.1470  0.8793
  893MOL0     O20451   7.617   4.535   9.275  0.5934 -0.7171 -0.0559
  893MOL0     C20452   7.500   4.546   9.211  0.2253 -0.4726 -0.7855
  893MOL0     C20453   7.460   4.667   9.149 -0.9212 -0.2968  0.5940
  893MOL0     C20454   7.334   4.680   9.097  1.0806 -0.9132 -0.5842
  893MOL0     C20455   7.242   4.576   9.084  0.0545 -0.5952  0.2594
  893MOL0     O20456   7.127   4.609   9.012  0.5256  0.2734  0.3309
  893MOL0     C20457   7.023   4.516   9.000 -0.5727  0.3004 -0.5247
  893MOL0     C20458   6.922   4.572   8.903 -0.0947  0.0264 -0.3671
  893MOL0     C20459   6.811   4.653   8.966 -0.1727  0.4470  0.3215
  893MOL0     C20460   6.718   4.711   8.859  0.2536 -0.2530 -0.3629
  893MOL0     C20461   6.644   4.831   8.925  0.1179 -0.2791 -0.0020
  893MOL0     C20462   6.515   4.861   8.865 -0.5227 -0.5401  0.0730
  893MOL0     C20463   6.396   4.787   8.922  0.0705  0.2434 -0.1635
  893MOL0     C20464   6.290   4.756   8.828  0.6424 -0.0771  0.9944
  893MOL0    Cl20465   6.177   4.885   8.800  0.5282  0.1421 -0.1470
  893MOL0     C20466   7.277   4.459   9.152 -0.9764 -0.0178 -0.1540
  893MOL0     C20467   7.402   4.445   9.216  0.0467 -0.1395  1.1668
  893MOL0     O20468   7.583   4.713   9.415 -0.3535 -0.1058  0.3931
  893MOL0     C20469   7.866   4.502   9.389 -0.9589 -0.6252 -0.1521
  893MOL0     C20470   7.997   4.481   9.441  0.0392  0.9501 -0.0229
  893MOL0     N20471   8.805   4.505   9.729 -1.1181 -0.3266  0.3223
  893MOL0     N20472   8.865   4.446   9.828  0.2950  0.7077 -0.3181
  893MOL0     C20473   9.958   3.880   9.978  0.8909  0.5640 -0.8565
  893MOL0     C20474  10.074   3.806  10.001  0.2841  0.5471 -0.4499
  893MOL0     C20475  10.349   3.477  10.199 -1.0391  1.3295  0.5114
  893MOL0     C20476  10.413   3.476  10.068 -0.7995 -0.5918 -0.1722
  893MOL0     C20477  10.522   3.388  10.058 -0.1044  0.3597  0.0900
  893MOL0     C20478  10.561   3.290  10.154 -0.2970 -0.3009 -0.6987
  893MOL0     O20479  10.669   3.208  10.156  1.4410  0.4622 -0.2841
  893MOL0     C20480  10.713   3.153  10.036 -0.5270 -0.3119 -0.7556
  893MOL0     C20481  10.843   3.078  10.070 -0.0102  0.2858  0.1588
  893MOL0     C20482  10.932   3.066   9.949  0.6282 -0.1306  0.0436
  893MOL0     C20483  11.073   3.027   9.984 -1.0803 -0.3611  0.2156
  893MOL0     C20484  11.138   2.969   9.862 -0.0653  0.5573 -0.8496
  893MOL0     C20485  11.166   2.904   9.767  0.4347  0.1400 -0.0130
  893MOL0     C20486  10.492   3.292  10.278 -0.0212  1.0730  0.2313
  893MOL0     C20487  10.384   3.374  10.290 -0.4243 -0.1557 -0.1896
  893MOL0     H20488   9.953   3.584  10.218 -1.3439  1.0180 -1.3891
  893MOL0     H20489   9.749   3.734  10.197 -0.6145  0.4925  0.1307
  893MOL0     H20490   9.810   4.125  10.021 -0.5353  0.8642 -0.5790
  893MOL0     H20491   9.752   4.031   9.882  1.3951 -3.2274  1.0454
  893MOL0     H20492   9.585   4.172  10.099  1.7925 -2.1122  0.6911
  893MOL0     H20493   9.609   4.235   9.940  0.0868  1.4503  0.3640
  893MOL0     H20494   9.505   4.043   9.831  2.1370  0.3080  0.8587
  893MOL0     H20495   9.457   3.980   9.998 -0.9328 -0.6980 -0.4542
  893MOL0     H20496   9.325   4.192  10.045  1.6744 -1.2408  1.8990
  893MOL0     H20497   9.386   4.260   9.906 -4.0965  1.8105  1.6902
  893MOL0     H20498   9.240   4.129   9.760 -1.7796 -3.6630 -1.1489
  893MOL0     H20499   9.220   4.020   9.904 -1.6448  1.8643  2.6608
  893MOL0     H20500   9.115   4.245  10.003  3.3153  2.0085 -0.8276
  893MOL0     H20501   9.115   4.297   9.839  3.0804  2.3323  0.8960
  893MOL0     H20502   8.951   4.100   9.791 -1.0324  1.7777 -0.0016
  893MOL0     H20503   8.974   4.034   9.944 -0.8510 -0.2964 -0.4832
  893MOL0     H20504   8.885   4.282  10.031 -1.6261  2.0966 -0.0648
  893MOL0     H20505   8.769   4.173   9.973  2.1417 -3.2930  0.3236
  893MOL0     H20506   8.683   4.203   9.723 -1.1478  0.6503 -0.4165
  893MOL0     H20507   8.659   4.525   9.491 -0.7667  0.1149 -1.0865
  893MOL0     H20508   8.636   4.351   9.497  0.0715  1.2031 -0.4424
  893MOL0     H20509   8.479   4.408   9.690 -0.6986 -1.2141 -0.4413
  893MOL0     H20510   8.438   4.387   9.512  4.0850 -1.5497 -2.9426
  893MOL0     H20511   8.411   4.624   9.468 -0.2939 -1.1298  1.4231
  893MOL0     H20512   8.506   4.667   9.605 -0.5188  0.5928 -0.4135
  893MOL0     H20513   8.268   4.725   9.629  1.1503  0.4408 -3.3576
  893MOL0     H20514   8.284   4.587   9.737 -0.3976  0.1994 -0.4425
  893MOL0     H20515   8.062   4.781   9.561 -1.6347  0.9583 -0.7214
  893MOL0     H20516   7.723   4.867   9.539  0.3329  1.8482 -0.4977
  893MOL0     H20517   7.873   4.916   9.595  1.5679 -0.2457 -0.1994
  893MOL0     H20518   7.824   4.939   9.420 -3.6244 -2.4013 -1.5998
  893MOL0     H20519   7.528   4.751   9.160 -0.5520 -0.2648 -1.4125
  893MOL0     H20520   7.312   4.774   9.047 -0.0076 -0.5298  0.5521
  893MOL0     H20521   7.068   4.439   8.937 -0.0162  0.8337 -0.7938
  893MOL0     H20522   6.983   4.498   9.100 -0.4048  2.8474  0.0761
  893MOL0     H20523   6.972   4.628   8.824  1.0435 -1.9920 -1.1679
  893MOL0     H20524   6.864   4.486   8.869 -1.8993 -0.8495  4.1123
  893MOL0     H20525   6.864   4.727   9.026 -0.6295  0.5816  0.5632
  893MOL0     H20526   6.751   4.592   9.033  0.3926  1.9221  2.2357
  893MOL0     H20527   6.772   4.753   8.774 -0.7869  1.5591 -0.1805
  893MOL0     H20528   6.650   4.639   8.813 -0.9713  0.2229  0.6387
  893MOL0     H20529   6.708   4.915   8.896 -1.5198  1.1502  0.3669
  893MOL0     H20530   6.630   4.816   9.032  0.7009  4.7594  1.0072
  893MOL0     H20531   6.499   4.969   8.868  1.6057 -0.0716 -2.3441
  893MOL0     H20532   6.522   4.840   8.758 -2.0088  0.8209 -0.3297
  893MOL0     H20533   6.361   4.838   9.012  4.9964  5.0524 -0.4675
  893MOL0     H20534   6.427   4.687   8.955  1.2868  0.5675 -0.2775
  893MOL0     H20535   6.225   4.674   8.860  0.0174 -0.0618 -0.1780
  893MOL0     H20536   6.334   4.726   8.733 -1.2088  0.1966 -0.0058
  893MOL0     H20537   7.207   4.376   9.157 -0.1722 -0.7561 -0.7568
  893MOL0     H20538   7.441   4.350   9.252 -0.0359 -0.4183  0.5351
  893MOL0     H20539   7.829   4.420   9.328  3.4732 -2.8076 -0.2912
  893MOL0     H20540   8.054   4.395   9.408  1.0240  1.6684 -0.2482
  893MOL0     H20541   9.935   3.947   9.895  0.9873  3.4110  1.2399
  893MOL0     H20542  10.160   3.824   9.938 -0.7352 -2.6622 -3.0677
  893MOL0     H20543  10.394   3.540   9.982  0.4027 -0.1401 -0.1322
  893MOL0     H20544  10.581   3.377   9.968  0.2197 -0.4712  0.3954
  893MOL0     H20545  10.642   3.083   9.992  0.4062  0.1294 -3.1094
  893MOL0     H20546  10.733   3.237   9.968 -3.0387  2.5261  1.6533
  893MOL0     H20547  10.810   2.979  10.105 -0.5681 -0.5586 -2.5313
  893MOL0     H20548  10.886   3.135  10.153 -1.2977 -1.1920  1.9291
  893MOL0     H20549  10.930   3.166   9.904 -1.2953  0.7164  1.8350
  893MOL0     H20550  10.888   2.992   9.881 -0.7975  0.2659  0.4851
  893MOL0     H20551  11.069   2.949  10.060  1.3629  0.4805  1.3142
  893MOL0     H20552  11.135   3.113  10.012  2.2115 -1.3967 -3.0872
  893MOL0     H20553  11.202   2.852   9.681 -3.9906  0.9097 -2.5972
  893MOL0     H20554  10.511   3.229  10.364 -3.0047  0.6034  0.6453
  893MOL0     H20555  10.339   3.380  10.389 -4.2623 -3.2170 -1.4772
  894MOL0     O20556   5.562   3.875   3.613 -0.1327  0.7879 -0.4304
  894MOL0     C20557   5.582   3.890   3.737  0.4045  0.7155  0.2481
  894MOL0     O20558   5.487   3.917   3.830  0.2816  0.7100 -0.4076
  894MOL0     C20559   5.359   3.905   3.781 -0.3665 -0.6266  0.3771
  894MOL0     C20560   5.294   3.777   3.769 -0.9541  0.1842 -0.6711
  894MOL0     C20561   5.171   3.778   3.705 -0.7528 -0.9171  0.6617
  894MOL0     C20562   5.102   3.892   3.670  0.2807  1.3261 -1.0260
  894MOL0     O20563   4.976   3.867   3.618  0.2515  0.2373  0.7871
  894MOL0     C20564   4.870   3.958   3.584  0.1499 -0.2204 -0.4681
  894MOL0     C20565   4.751   3.870   3.533  0.0315  0.2211 -0.0163
  894MOL0     C20566   4.759   3.799   3.396 -0.5773  0.5284 -0.0643
  894MOL0     C20567   4.629   3.722   3.361  0.1472 -0.6503 -0.4594
  894MOL0     C20568   4.651   3.613   3.266 -0.7998 -0.2036  0.4675
  894MOL0     C20569   4.515   3.537   3.246  0.5219 -0.1823 -0.2032
  894MOL0     C20570   4.526   3.403   3.171 -0.5696  0.4696 -0.1058
  894MOL0     C20571   4.530   3.419   3.011 -0.1990 -0.4996 -0.9397
  894MOL0     N20572   4.417   3.499   2.961  0.0817  0.2092  0.6427
  894MOL0     C20573   4.283   3.475   2.989  0.1426  0.1017 -0.4758
  894MOL0     C20574   4.214   3.566   2.919 -1.0767  0.0177  0.7333
  894MOL0     C20575   4.075   3.608   2.929  0.1739 -0.6254  0.6051
  894MOL0     C20576   3.969   3.510   2.880 -0.6281  0.5939 -0.8110
  894MOL0     C20577   4.006   3.435   2.751  0.3817 -0.5253 -1.6532
  894MOL0     C20578   3.868   3.386   2.679 -0.2374 -0.1544 -0.4952
  894MOL0     O20579   3.778   3.497   2.658  0.1617  0.4357  0.1040
  894MOL0     C20580   3.654   3.461   2.616  1.2858 -0.3629 -0.2214
  894MOL0     C20581   3.555   3.547   2.645  0.2864  0.0158 -0.2280
  894MOL0     C20582   3.417   3.526   2.613  0.0498  0.0377  0.6838
  894MOL0     C20583   3.320   3.640   2.640  0.1809 -1.0244  0.5175
  894MOL0     C20584   3.387   3.392   2.560  0.5295  0.6710 -0.2419
  894MOL0     C20585   3.247   3.344   2.545 -0.1335  0.8541  0.2048
  894MOL0     O20586   3.218   3.241   2.454  0.5127 -0.0277 -0.3958
  894MOL0     C20587   3.092   3.211   2.412  0.6604  0.0025  1.0191
  894MOL0     C20588   3.074   3.085   2.362  0.0458  0.9470  0.8238
  894MOL0     C20589   2.951   3.032   2.328 -0.1461  0.1416  0.0370
  894MOL0     C20590   2.841   3.117   2.335  0.1441 -0.0687  0.2072
  894MOL0     O20591   2.715   3.056   2.309 -0.2659 -0.5610 -0.1179
  894MOL0     C20592   2.627   3.134   2.237  0.5229 -1.0122  0.6135
  894MOL0     C20593   2.502   3.054   2.214 -0.2907 -0.6551  0.5786
  894MOL0     C20594   2.430   2.991   2.328 -0.0726 -0.0115  0.3776
  894MOL0     C20595   2.369   3.106   2.408 -0.0956  0.0984  0.2321
  894MOL0     C20596   2.344   3.062   2.558  0.1174 -0.1554  0.5140
  894MOL0     C20597   2.302   3.192   2.637 -0.7293 -0.4944  0.0675
  894MOL0     C20598   2.266   3.179   2.787  0.1640 -0.0362  0.2610
  894MOL0     C20599   2.253   3.308   2.861 -0.3463 -0.3934 -0.1715
  894MOL0    Cl20600   2.129   3.406   2.792  0.1679 -0.0886 -0.8629
  894MOL0     C20601   2.852   3.244   2.386  0.0961  0.1554 -0.3252
  894MOL0     C20602   2.971   3.298   2.419 -1.2301 -0.3435 -0.0762
  894MOL0     O20603   3.168   3.397   2.622 -0.7842  0.2135  0.1737
  894MOL0     C20604   3.489   3.301   2.519  0.4189  0.1650 -0.1721
  894MOL0     C20605   3.619   3.351   2.551 -0.0428 -0.1294  0.5806
  894MOL0     N20606   4.305   3.640   2.834 -0.7860  1.1004 -0.2809
  894MOL0     N20607   4.421   3.595   2.863 -0.2171  0.3999  0.2715
  894MOL0     C20608   5.153   4.015   3.703 -0.2874 -0.5708  0.5524
  894MOL0     C20609   5.285   4.021   3.751 -0.5578  0.3690 -0.2005
  894MOL0     C20610   5.731   3.897   3.782 -1.0454  0.3177  0.3448
  894MOL0     C20611   5.832   3.920   3.679 -0.4522  0.1600 -0.4077
  894MOL0     C20612   5.967   3.942   3.712 -0.0356  1.8844 -0.6471
  894MOL0     C20613   6.007   3.928   3.849 -0.0315 -0.4298 -0.8414
  894MOL0     O20614   6.134   3.923   3.894 -0.3264 -0.2197  0.0682
  894MOL0     C20615   6.246   3.943   3.812 -0.2985 -0.0246  0.7934
  894MOL0     C20616   6.368   3.969   3.897 -0.3653 -0.3444  0.6125
  894MOL0     C20617   6.496   3.986   3.825  0.5364  0.9383 -0.2616
  894MOL0     C20618   6.615   4.003   3.926 -0.5388 -0.0577  0.1235
  894MOL0     C20619   6.628   3.892   4.024 -0.1502 -0.1397 -1.0142
  894MOL0     C20620   6.636   3.806   4.113 -0.1531 -0.3383 -0.5054
  894MOL0     C20621   5.907   3.905   3.942 -0.1948 -0.3769  0.1719
  894MOL0     C20622   5.771   3.895   3.912  0.1297 -0.7467  0.8539
  894MOL0     H20623   5.339   3.679   3.785  0.0541  0.4724 -1.6334
  894MOL0     H20624   5.128   3.681   3.679 -0.3319 -0.9753  0.1569
  894MOL0     H20625   4.849   4.019   3.673 -0.0478 -0.0585 -0.6229
  894MOL0     H20626   4.893   4.020   3.498 -1.6243 -1.6056 -2.0220
  894MOL0     H20627   4.738   3.790   3.608 -0.3449 -1.1973 -1.5395
  894MOL0     H20628   4.659   3.928   3.530 -0.2851 -0.3185 -1.9471
  894MOL0     H20629   4.775   3.869   3.314 -1.7983 -1.1445 -1.8303
  894MOL0     H20630   4.844   3.731   3.393 -0.7631  0.1752 -5.3116
  894MOL0     H20631   4.583   3.676   3.448 -0.0935  0.7685  0.1935
  894MOL0     H20632   4.556   3.789   3.314 -0.3022 -0.9523 -0.1941
  894MOL0     H20633   4.684   3.658   3.172  0.2211  1.7091  1.6800
  894MOL0     H20634   4.725   3.540   3.300 -0.2494  1.0764  2.1385
  894MOL0     H20635   4.474   3.522   3.346 -1.3147  0.8290 -0.7574
  894MOL0     H20636   4.445   3.608   3.201  1.2531  0.5921 -0.1385
  894MOL0     H20637   4.609   3.346   3.214 -0.5351  0.8151  0.2929
  894MOL0     H20638   4.435   3.346   3.190 -1.4354  2.0888  0.8531
  894MOL0     H20639   4.529   3.323   2.957 -0.3962  0.1475 -2.1334
  894MOL0     H20640   4.620   3.476   2.987  0.7911 -1.6014  0.0600
  894MOL0     H20641   4.245   3.401   3.058  0.4078 -1.0466 -1.5274
  894MOL0     H20642   4.065   3.648   3.031 -0.5095 -0.7994  0.6135
  894MOL0     H20643   4.066   3.701   2.872 -0.9026 -2.2457 -2.0340
  894MOL0     H20644   3.874   3.563   2.870 -0.4723  1.2612  0.8931
  894MOL0     H20645   3.951   3.439   2.961 -1.4250 -2.0781 -3.1783
  894MOL0     H20646   4.074   3.354   2.779 -0.3050 -1.3153 -2.2251
  894MOL0     H20647   4.072   3.496   2.688 -0.3408  0.8558 -1.0991
  894MOL0     H20648   3.822   3.316   2.750  0.7905 -0.4705 -0.1209
  894MOL0     H20649   3.890   3.341   2.582 -3.6101 -0.4951 -1.2059
  894MOL0     H20650   3.591   3.640   2.688  1.5534 -1.1136  1.2824
  894MOL0     H20651   3.326   3.670   2.745  2.3635 -0.0188  0.1551
  894MOL0     H20652   3.351   3.732   2.588  0.9196 -0.4132  2.0011
  894MOL0     H20653   3.216   3.623   2.611  0.8533  0.2555 -3.2560
  894MOL0     H20654   3.163   3.024   2.346  0.4585  1.6405  0.4704
  894MOL0     H20655   2.945   2.928   2.298 -0.3665 -0.4785  2.1081
  894MOL0     H20656   2.596   3.229   2.283 -1.7853 -1.3282 -0.1564
  894MOL0     H20657   2.666   3.167   2.140 -0.7553 -0.8523  0.1353
  894MOL0     H20658   2.437   3.110   2.146  0.3983 -2.5766 -1.8107
  894MOL0     H20659   2.528   2.968   2.151 -0.2001 -0.2384  0.0300
  894MOL0     H20660   2.499   2.920   2.375 -0.9592 -1.2800 -0.1572
  894MOL0     H20661   2.342   2.933   2.297 -0.8013  2.0436 -1.6633
  894MOL0     H20662   2.437   3.192   2.414 -0.5771  0.4724  0.3893
  894MOL0     H20663   2.272   3.134   2.366 -0.9370 -1.3014  1.1500
  894MOL0     H20664   2.428   3.017   2.611 -0.3719  0.4787  1.8782
  894MOL0     H20665   2.264   2.987   2.554 -0.6116  0.6535 -1.7598
  894MOL0     H20666   2.386   3.262   2.632 -0.2214 -0.8155  2.8115
  894MOL0     H20667   2.224   3.236   2.575 -1.4860 -1.8716  0.0131
  894MOL0     H20668   2.352   3.123   2.825  0.1633 -1.1189 -1.2389
  894MOL0     H20669   2.173   3.123   2.805  0.0786  0.1324  0.3434
  894MOL0     H20670   2.350   3.358   2.859  0.0917 -1.2438 -0.3751
  894MOL0     H20671   2.233   3.293   2.968 -1.2653 -3.5407 -0.6865
  894MOL0     H20672   2.755   3.289   2.405 -1.1629 -2.8305  0.9277
  894MOL0     H20673   2.976   3.400   2.454 -1.4752 -0.4102  0.1504
  894MOL0     H20674   3.491   3.208   2.464  0.2968  1.1309 -1.8976
  894MOL0     H20675   3.696   3.277   2.532  0.0268 -0.5217  2.2674
  894MOL0     H20676   5.097   4.107   3.691 -0.4643 -0.8434 -0.8984
  894MOL0     H20677   5.341   4.113   3.765  2.5436 -1.2328 -1.2530
  894MOL0     H20678   5.792   3.929   3.579 -3.2272 -0.6917  0.5299
  894MOL0     H20679   6.045   3.948   3.637  1.2324  0.4552  0.4913
  894MOL0     H20680   6.264   3.853   3.752 -1.2798  0.2713  0.0512
  894MOL0     H20681   6.230   4.025   3.742  2.8263 -0.4025 -0.5495
  894MOL0     H20682   6.381   3.884   3.964 -1.9620 -2.8375 -1.9922
  894MOL0     H20683   6.347   4.063   3.947 -2.7902  0.3786 -1.5507
  894MOL0     H20684   6.487   4.077   3.764 -1.7840  0.9832  0.0634
  894MOL0     H20685   6.508   3.896   3.765 -2.0414  0.4415 -0.1666
  894MOL0     H20686   6.608   4.095   3.984 -2.3287  0.7824 -1.3090
  894MOL0     H20687   6.697   4.009   3.854 -2.3017 -1.7602 -2.1899
  894MOL0     H20688   6.622   3.748   4.203 -0.2123 -1.0542 -0.9699
  894MOL0     H20689   5.937   3.899   4.046  2.7003  2.3047 -0.3485
  894MOL0     H20690   5.696   3.892   3.991 -1.0137 -0.7386 -0.1994
  895MOL0     O20691   0.642   1.387   1.789 -0.0226  0.2098  0.1306
  895MOL0     C20692   0.581   1.310   1.856 -1.0308  0.2890  0.6328
  895MOL0     O20693   0.593   1.295   1.987 -0.1260  0.0311 -0.2034
  895MOL0     C20694   0.684   1.372   2.059  0.0089 -0.1309 -0.1045
  895MOL0     C20695   0.768   1.308   2.143 -0.1893 -0.0159  0.1384
  895MOL0     C20696   0.861   1.389   2.213  0.1259  0.5475 -0.7743
  895MOL0     C20697   0.869   1.529   2.205  0.2740 -0.5374  0.4306
  895MOL0     O20698   0.971   1.594   2.281  0.0289  0.5125  0.1249
  895MOL0     C20699   0.919   1.698   2.369 -1.0438 -0.2932 -0.2028
  895MOL0     C20700   0.848   1.636   2.498  0.5992 -0.3759 -0.9490
  895MOL0     C20701   0.940   1.559   2.589 -0.2353 -0.2307  0.2194
  895MOL0     C20702   1.060   1.634   2.637 -0.6014  0.0581  0.1957
  895MOL0     C20703   1.154   1.559   2.739 -0.2030 -0.1507 -0.3422
  895MOL0     C20704   1.277   1.645   2.781 -0.3700 -0.4243  0.1104
  895MOL0     C20705   1.373   1.565   2.865 -0.1637 -0.1172  0.0541
  895MOL0     C20706   1.469   1.452   2.799 -0.0482 -0.5604  0.7749
  895MOL0     N20707   1.574   1.526   2.725 -0.0811  0.3895 -0.2313
  895MOL0     C20708   1.607   1.661   2.731 -0.6892  0.3186  0.6775
  895MOL0     C20709   1.737   1.657   2.674 -0.7432 -0.2688  0.0453
  895MOL0     C20710   1.832   1.775   2.651  0.1165  0.0490 -0.0418
  895MOL0     C20711   1.798   1.844   2.518  0.0554 -0.1074  0.1598
  895MOL0     C20712   1.855   1.759   2.404  0.2030 -0.3741  0.8813
  895MOL0     C20713   1.817   1.808   2.260  0.4473  0.0816  0.8219
  895MOL0     O20714   1.680   1.780   2.227  0.2141  0.1966 -0.3091
  895MOL0     C20715   1.643   1.802   2.097 -1.0996 -0.2963  0.2891
  895MOL0     C20716   1.712   1.876   1.996  0.0233 -0.2240 -0.0175
  895MOL0     C20717   1.655   1.897   1.873 -0.1367 -0.2272 -1.1713
  895MOL0     C20718   1.725   1.988   1.779  0.3206 -0.0157  0.0150
  895MOL0     C20719   1.536   1.837   1.830  0.2272  0.0861 -0.2206
  895MOL0     C20720   1.474   1.841   1.692 -0.2829 -0.3948 -0.6653
  895MOL0     O20721   1.363   1.774   1.689  0.5872  0.1018 -0.9813
  895MOL0     C20722   1.272   1.798   1.587 -1.3146 -0.2416 -0.2071
  895MOL0     C20723   1.196   1.920   1.589 -0.2123  0.5025 -0.0618
  895MOL0     C20724   1.101   1.940   1.489  0.5154 -0.6914 -1.4382
  895MOL0     C20725   1.065   1.839   1.399 -0.6875  0.7081  0.3490
  895MOL0     O20726   0.977   1.861   1.299  0.4479  0.1059  0.0181
  895MOL0     C20727   0.846   1.903   1.344 -0.5096 -0.3838  0.1251
  895MOL0     C20728   0.738   1.825   1.262 -0.4512  0.1661 -0.3478
  895MOL0     C20729   0.610   1.874   1.303 -0.2434 -0.1743 -0.8892
  895MOL0     C20730   0.500   1.822   1.212 -0.5329 -0.3363 -0.4852
  895MOL0     C20731   0.362   1.834   1.271  0.0264 -0.2177 -0.6113
  895MOL0     C20732   0.251   1.765   1.189 -0.7290  0.0869 -0.1217
  895MOL0     C20733   0.199   1.838   1.069 -0.7143 -0.4462  0.5780
  895MOL0     C20734   0.068   1.786   0.997 -0.0683 -0.5212 -0.4749
  895MOL0    Cl20735  -0.070   1.815   1.108  0.1267  0.5857 -0.0354
  895MOL0     C20736   1.132   1.708   1.407 -0.2622 -0.7873 -0.1455
  895MOL0     C20737   1.234   1.697   1.502  0.3313  0.1696  0.3430
  895MOL0     O20738   1.527   1.889   1.597 -0.4215 -0.1543  0.6387
  895MOL0     C20739   1.467   1.767   1.938 -0.1048 -0.1334 -0.6479
  895MOL0     C20740   1.524   1.750   2.068  0.5872 -0.0670  0.9400
  895MOL0     N20741   1.785   1.528   2.653 -0.8012 -0.1236 -0.0835
  895MOL0     N20742   1.679   1.454   2.668  0.1813  0.8542 -0.7303
  895MOL0     C20743   0.772   1.588   2.117  0.2193 -0.4199 -0.1826
  895MOL0     C20744   0.685   1.506   2.054 -0.1462 -0.5055  0.0525
  895MOL0     C20745   0.492   1.215   1.778  0.2342 -1.5381  0.2886
  895MOL0     C20746   0.453   1.237   1.644 -0.7380  0.7282 -0.6614
  895MOL0     C20747   0.364   1.158   1.577 -0.2804 -0.0058 -0.1123
  895MOL0     C20748   0.273   1.075   1.653 -0.0138  0.3596 -0.0919
  895MOL0     O20749   0.160   1.005   1.608 -0.0241 -0.3642 -0.2971
  895MOL0     C20750   0.121   0.996   1.466  0.4209 -0.5299 -0.8517
  895MOL0     C20751   0.043   0.870   1.438  0.1080 -0.5903  0.7843
  895MOL0     C20752  -0.085   0.856   1.514  0.3091  0.0172  0.4004
  895MOL0     C20753  -0.187   0.757   1.457  0.4216 -1.0389 -0.0057
  895MOL0     C20754  -0.164   0.614   1.480  0.4181 -0.0347 -0.0592
  895MOL0     C20755  -0.162   0.489   1.503 -0.1452  0.5970  0.3889
  895MOL0     C20756   0.310   1.054   1.782 -0.2475 -0.2455  0.0514
  895MOL0     C20757   0.419   1.122   1.842 -0.9210  0.1695 -0.1404
  895MOL0     H20758   0.778   1.200   2.147  0.5870  0.0873  3.1058
  895MOL0     H20759   0.936   1.333   2.268 -0.4103 -0.7313 -1.3237
  895MOL0     H20760   1.010   1.751   2.399  0.3084 -2.2905 -0.5736
  895MOL0     H20761   0.850   1.771   2.325 -1.0453  1.5536  2.5815
  895MOL0     H20762   0.804   1.715   2.561 -2.9597 -2.2241 -0.8456
  895MOL0     H20763   0.763   1.572   2.474 -2.2546  1.9472  2.0341
  895MOL0     H20764   0.881   1.541   2.679  1.2848 -3.3315  0.7197
  895MOL0     H20765   0.974   1.463   2.550 -0.9971 -0.5465  0.3198
  895MOL0     H20766   1.123   1.646   2.548  0.1149 -1.1145  0.5192
  895MOL0     H20767   1.032   1.729   2.682 -1.7984  0.4049 -1.1806
  895MOL0     H20768   1.084   1.560   2.824 -2.1716  2.0400 -1.8475
  895MOL0     H20769   1.186   1.462   2.701 -3.4486 -0.9692 -1.2864
  895MOL0     H20770   1.325   1.698   2.699  3.1606  0.2312  2.3894
  895MOL0     H20771   1.238   1.725   2.845  0.0972 -0.9294  1.0429
  895MOL0     H20772   1.413   1.646   2.926 -2.1253  0.3107  0.8763
  895MOL0     H20773   1.306   1.514   2.935 -2.2673 -0.9251 -2.3687
  895MOL0     H20774   1.426   1.382   2.726  2.2217  1.0672 -2.3483
  895MOL0     H20775   1.514   1.395   2.881  1.0290 -1.0322 -0.1163
  895MOL0     H20776   1.544   1.743   2.764  0.0493  0.4507  1.8004
  895MOL0     H20777   1.827   1.846   2.734  1.7349 -0.5931  0.6621
  895MOL0     H20778   1.934   1.737   2.641  0.6090  1.6814 -1.7803
  895MOL0     H20779   1.830   1.948   2.514  0.5445 -0.2475  0.2832
  895MOL0     H20780   1.689   1.849   2.510 -0.2650 -3.8335  0.4129
  895MOL0     H20781   1.833   1.652   2.413  1.1594 -0.8200 -1.5155
  895MOL0     H20782   1.964   1.764   2.408  0.2927 -2.1848  1.6723
  895MOL0     H20783   1.877   1.735   2.205  0.8214  1.0660 -0.1132
  895MOL0     H20784   1.866   1.905   2.247  2.7424 -1.2442 -1.3180
  895MOL0     H20785   1.808   1.922   2.017 -1.7257  4.1202 -0.3455
  895MOL0     H20786   1.750   1.929   1.690  0.2718 -2.0773  1.3273
  895MOL0     H20787   1.671   2.079   1.752 -0.6391 -0.4395  0.4850
  895MOL0     H20788   1.821   2.028   1.814  1.2901 -0.1252 -2.3230
  895MOL0     H20789   1.229   1.993   1.662  0.7073  0.2145 -0.1705
  895MOL0     H20790   1.040   2.029   1.488  2.5013  0.8059  0.4836
  895MOL0     H20791   0.836   1.876   1.450 -0.9622 -1.4052 -0.1693
  895MOL0     H20792   0.838   2.011   1.330  1.8072 -0.2498 -0.5059
  895MOL0     H20793   0.749   1.859   1.158 -0.9410 -0.8419 -0.7440
  895MOL0     H20794   0.746   1.716   1.262  4.2112  0.3143  1.1937
  895MOL0     H20795   0.609   1.983   1.311  0.5077 -0.2865  4.0075
  895MOL0     H20796   0.597   1.842   1.407  0.2879  0.7880 -0.5013
  895MOL0     H20797   0.497   1.893   1.129  2.9094 -1.8447 -2.0825
  895MOL0     H20798   0.527   1.723   1.173  1.2044 -0.8662  1.8710
  895MOL0     H20799   0.331   1.939   1.282  0.3870 -0.2941  1.6507
  895MOL0     H20800   0.367   1.797   1.373 -1.2785 -0.2334 -0.5401
  895MOL0     H20801   0.288   1.668   1.154  2.8348  0.9324  1.0024
  895MOL0     H20802   0.162   1.739   1.248 -2.9624  2.4441 -2.2202
  895MOL0     H20803   0.276   1.837   0.991 -1.4813  0.4028 -0.2073
  895MOL0     H20804   0.198   1.946   1.085 -1.9564  0.1528 -2.5942
  895MOL0     H20805   0.078   1.678   0.979 -4.5266 -1.2757  0.2904
  895MOL0     H20806   0.052   1.839   0.902 -1.2623 -2.1959 -1.2764
  895MOL0     H20807   1.094   1.641   1.330  0.3044 -1.2543 -0.0242
  895MOL0     H20808   1.292   1.606   1.503  0.3513  0.1818  0.2885
  895MOL0     H20809   1.376   1.709   1.938  1.7787 -3.4293  2.0317
  895MOL0     H20810   1.477   1.705   2.154 -0.6900  1.2607  0.9721
  895MOL0     H20811   0.762   1.694   2.096 -0.6954 -0.6490 -1.0204
  895MOL0     H20812   0.611   1.558   1.993 -0.5172  0.9569  1.6792
  895MOL0     H20813   0.520   1.308   1.596  1.2431 -1.5831 -1.5189
  895MOL0     H20814   0.355   1.163   1.469  0.8088 -0.7426 -0.2504
  895MOL0     H20815   0.060   1.085   1.449  1.0291  0.2504  0.8829
  895MOL0     H20816   0.207   0.995   1.398  1.1599  0.2837  0.0523
  895MOL0     H20817   0.106   0.786   1.468  0.9054 -0.2221  0.1932
  895MOL0     H20818   0.032   0.865   1.329 -1.7106  0.2923  0.9038
  895MOL0     H20819  -0.138   0.951   1.520  1.1117  0.3574  3.2099
  895MOL0     H20820  -0.072   0.817   1.615 -1.0221 -0.6652  0.3339
  895MOL0     H20821  -0.196   0.776   1.349 -0.7125 -2.0076 -0.1036
  895MOL0     H20822  -0.283   0.792   1.495  1.5114  3.8692 -1.1699
  895MOL0     H20823  -0.164   0.389   1.542 -1.4438  0.9575  1.3363
  895MOL0     H20824   0.254   0.981   1.840 -1.6370  3.1488  3.3494
  895MOL0     H20825   0.450   1.097   1.942  3.5786 -0.3712 -1.4657
  896MOL0     O20826   3.337   6.683   4.144 -0.6071 -0.6117  0.1901
  896MOL0     C20827   3.311   6.798   4.187 -0.3948 -0.5985 -0.5450
  896MOL0     O20828   3.222   6.888   4.134 -0.6502 -0.0899  0.3074
  896MOL0     C20829   3.135   6.847   4.039  0.2103  0.4861  0.2013
  896MOL0     C20830   2.995   6.847   4.067 -0.3818 -0.8638  0.2732
  896MOL0     C20831   2.906   6.814   3.970 -0.0268 -0.3146  0.2898
  896MOL0     C20832   2.952   6.752   3.847  0.2729  0.1191  0.2661
  896MOL0     O20833   2.869   6.716   3.742  0.4811  0.2343 -0.0094
  896MOL0     C20834   2.725   6.705   3.776  0.7021 -0.0301 -0.2998
  896MOL0     C20835   2.663   6.630   3.654  0.9134  0.0567  0.3165
  896MOL0     C20836   2.546   6.694   3.576  0.8770 -0.7232 -0.6226
  896MOL0     C20837   2.505   6.599   3.460 -0.0137  0.1266 -1.0498
  896MOL0     C20838   2.390   6.659   3.379  0.2284  0.5620 -0.1774
  896MOL0     C20839   2.326   6.540   3.305  0.9418 -0.5194  0.1280
  896MOL0     C20840   2.188   6.598   3.252 -0.3158 -0.0785 -0.3398
  896MOL0     C20841   2.113   6.491   3.175 -0.7355  0.7141 -0.3037
  896MOL0     N20842   1.975   6.530   3.141 -0.7082  0.0842 -0.5567
  896MOL0     C20843   1.860   6.527   3.221 -0.9263 -0.3336  0.1808
  896MOL0     C20844   1.776   6.617   3.171  0.2340  0.2580  0.9022
  896MOL0     C20845   1.638   6.657   3.210  0.2911  0.6370 -0.1643
  896MOL0     C20846   1.639   6.784   3.296 -0.3876 -0.6714 -0.0004
  896MOL0     C20847   1.635   6.912   3.211  0.6427 -0.4703 -0.1555
  896MOL0     C20848   1.657   7.042   3.302  0.3152 -0.7376 -0.1418
  896MOL0     O20849   1.545   7.052   3.400 -0.0722  0.4428 -0.5353
  896MOL0     C20850   1.433   7.110   3.353  0.0367 -0.9693 -0.0248
  896MOL0     C20851   1.429   7.238   3.304  0.2183  0.1930 -0.0688
  896MOL0     C20852   1.307   7.293   3.260  0.6519 -0.4833  0.6483
  896MOL0     C20853   1.310   7.428   3.209  0.6175 -0.2763 -0.4223
  896MOL0     C20854   1.178   7.225   3.272 -0.2445 -0.4610 -0.7881
  896MOL0     C20855   1.037   7.278   3.242  0.3705 -0.7204  0.0599
  896MOL0     O20856   0.947   7.182   3.222  0.8140  0.6318  0.6517
  896MOL0     C20857   0.814   7.203   3.192  0.1172 -0.1196  0.0847
  896MOL0     C20858   0.749   7.100   3.113 -0.2656  0.0402  0.9793
  896MOL0     C20859   0.619   7.114   3.062  0.8372  0.7368  0.3752
  896MOL0     C20860   0.551   7.228   3.083 -0.2442  0.0051  0.6466
  896MOL0     O20861   0.419   7.245   3.042 -1.3084  0.3006  0.0649
  896MOL0     C20862   0.323   7.269   3.150  0.0175 -0.0549  0.2508
  896MOL0     C20863   0.191   7.191   3.146  0.1289  0.1348  0.8731
  896MOL0     C20864   0.096   7.217   3.270 -0.5937 -0.0720 -0.4310
  896MOL0     C20865  -0.053   7.204   3.244 -0.0815  0.8542  0.1270
  896MOL0     C20866  -0.119   7.255   3.378 -0.0637 -0.1969 -0.1606
  896MOL0     C20867  -0.277   7.249   3.359 -0.4152  0.7490 -0.2327
  896MOL0     C20868  -0.355   7.293   3.476  1.0363 -1.0636 -0.9741
  896MOL0     C20869  -0.506   7.292   3.449 -0.3294 -0.0935  0.7741
  896MOL0    Cl20870  -0.561   7.130   3.387  0.6587 -0.0688 -0.3267
  896MOL0     C20871   0.614   7.331   3.153  0.0918 -0.0913  0.0611
  896MOL0     C20872   0.741   7.323   3.205  0.1673  0.0688  0.1716
  896MOL0     O20873   1.023   7.401   3.225  0.3084 -0.7035  0.1887
  896MOL0     C20874   1.194   7.097   3.320  1.0043  0.6967  0.4198
  896MOL0     C20875   1.313   7.046   3.360  0.0091  0.1889  0.1674
  896MOL0     N20876   1.845   6.666   3.060  0.8637  0.0937 -0.1549
  896MOL0     N20877   1.960   6.610   3.041 -0.4440 -0.0975  0.5423
  896MOL0     C20878   3.086   6.749   3.819 -0.5666  0.4004  0.6540
  896MOL0     C20879   3.174   6.801   3.915 -0.6840  0.3403 -0.2099
  896MOL0     C20880   3.357   6.828   4.321 -0.1788  0.2213  0.2553
  896MOL0     C20881   3.301   6.938   4.393 -0.5343  0.1197 -0.1967
  896MOL0     C20882   3.353   6.980   4.525  0.6413  0.7158  0.5940
  896MOL0     C20883   3.467   6.907   4.572  1.0241  0.1264  0.3779
  896MOL0     O20884   3.509   6.949   4.698 -0.6046  0.5023  1.0177
  896MOL0     C20885   3.621   6.885   4.768 -0.1916  0.1367 -0.0911
  896MOL0     C20886   3.761   6.914   4.706 -1.3191 -0.0896 -0.7176
  896MOL0     C20887   3.867   6.856   4.798  0.8641  0.9689 -0.4494
  896MOL0     C20888   4.010   6.907   4.761  0.3370 -0.3710 -0.8676
  896MOL0     C20889   4.029   7.034   4.844  0.2468 -0.8332 -0.8584
  896MOL0     C20890   4.043   7.136   4.901  0.3309 -0.4431  0.1323
  896MOL0     C20891   3.513   6.789   4.504  0.7997 -0.2034  0.2719
  896MOL0     C20892   3.457   6.747   4.387  0.1682  0.2663 -0.3424
  896MOL0     H20893   2.969   6.868   4.170 -1.7134  2.4675 -0.6215
  896MOL0     H20894   2.801   6.807   3.996 -1.0282 -2.2172 -3.5003
  896MOL0     H20895   2.707   6.639   3.862  0.9135 -1.5122 -1.3515
  896MOL0     H20896   2.684   6.804   3.794 -1.1238 -0.9594  1.0268
  896MOL0     H20897   2.741   6.613   3.579  1.7486 -3.2388  1.7270
  896MOL0     H20898   2.620   6.535   3.685  1.6218  0.4332  2.6489
  896MOL0     H20899   2.453   6.709   3.633 -0.0940  0.2143 -2.3644
  896MOL0     H20900   2.582   6.788   3.534 -1.9707  1.7393  1.9264
  896MOL0     H20901   2.586   6.587   3.388  0.2670 -3.2328 -0.3394
  896MOL0     H20902   2.487   6.497   3.496  0.0780  0.7984  1.0215
  896MOL0     H20903   2.312   6.699   3.445 -0.5976  1.1208 -1.4374
  896MOL0     H20904   2.424   6.737   3.310 -1.3842  0.3125 -1.3345
  896MOL0     H20905   2.389   6.506   3.222  0.2392 -1.0053 -0.2134
  896MOL0     H20906   2.313   6.455   3.373  1.2804 -0.2553  0.5290
  896MOL0     H20907   2.125   6.637   3.332  1.2962 -3.3809  2.8341
  896MOL0     H20908   2.194   6.685   3.187 -2.3771  0.9817  0.7996
  896MOL0     H20909   2.108   6.394   3.227 -0.5909 -1.1287 -3.4393
  896MOL0     H20910   2.165   6.479   3.080 -1.1738  2.7943 -0.8428
  896MOL0     H20911   1.861   6.475   3.316 -1.5060  2.7897  2.0189
  896MOL0     H20912   1.573   6.675   3.123  0.4591  0.7617 -0.2642
  896MOL0     H20913   1.595   6.570   3.261 -2.0710  0.5556 -2.0857
  896MOL0     H20914   1.731   6.785   3.356 -1.3080 -0.0707  1.4640
  896MOL0     H20915   1.553   6.776   3.363 -1.6116  1.7642 -1.1919
  896MOL0     H20916   1.540   6.910   3.156 -0.7596 -0.4665  2.1409
  896MOL0     H20917   1.712   6.909   3.134  0.8828 -0.6999  0.0924
  896MOL0     H20918   1.665   7.136   3.246  1.8999 -0.0037  1.2224
  896MOL0     H20919   1.756   7.043   3.347  0.9546  3.7091 -1.1609
  896MOL0     H20920   1.517   7.301   3.295 -1.8259  3.1611 -0.5264
  896MOL0     H20921   1.406   7.456   3.166 -0.8899  0.6346 -3.5282
  896MOL0     H20922   1.241   7.453   3.128  1.2473  0.0402 -0.8729
  896MOL0     H20923   1.291   7.500   3.290 -0.1395 -2.4589  1.4569
  896MOL0     H20924   0.805   7.010   3.091 -1.0835 -0.1635 -0.3579
  896MOL0     H20925   0.579   7.030   3.006  2.2333 -0.6147  1.3029
  896MOL0     H20926   0.375   7.255   3.246  1.1246  0.7146 -0.2094
  896MOL0     H20927   0.293   7.374   3.144  3.5129  0.9908 -3.0339
  896MOL0     H20928   0.137   7.214   3.054  1.6368  0.3497  0.0154
  896MOL0     H20929   0.212   7.084   3.141  0.4897  0.1714  1.5457
  896MOL0     H20930   0.111   7.318   3.310 -2.9673 -0.0987  0.7240
  896MOL0     H20931   0.127   7.148   3.349  0.4100  1.9631  1.0339
  896MOL0     H20932  -0.087   7.268   3.163  1.7995 -0.7841 -2.0849
  896MOL0     H20933  -0.084   7.103   3.218  3.3224 -0.8664  2.1167
  896MOL0     H20934  -0.086   7.359   3.391 -2.1176  0.7122 -1.5117
  896MOL0     H20935  -0.095   7.187   3.460  1.2589  1.0031  0.4977
  896MOL0     H20936  -0.304   7.300   3.266  3.3844  1.6690 -0.9724
  896MOL0     H20937  -0.291   7.141   3.344  4.6166  0.1094 -2.0686
  896MOL0     H20938  -0.325   7.390   3.515 -1.0811 -0.5261 -0.5905
  896MOL0     H20939  -0.341   7.218   3.554  1.8799  0.7493  0.6932
  896MOL0     H20940  -0.536   7.377   3.387 -1.5021 -1.9475 -1.3101
  896MOL0     H20941  -0.555   7.311   3.545 -1.0406 -0.6065  0.5187
  896MOL0     H20942   0.553   7.419   3.171 -1.5388 -1.1072 -0.3021
  896MOL0     H20943   0.790   7.411   3.247 -0.0818 -0.5873  1.9428
  896MOL0     H20944   1.103   7.039   3.324  0.8787  0.6843 -1.6509
  896MOL0     H20945   1.317   6.949   3.409  1.0848  0.3612  0.4466
  896MOL0     H20946   3.128   6.713   3.725  1.6609  2.8156  0.5971
  896MOL0     H20947   3.279   6.801   3.886 -0.7431 -5.4898 -1.8821
  896MOL0     H20948   3.229   6.998   4.339 -0.1244  0.2398 -0.6085
  896MOL0     H20949   3.300   7.050   4.590  1.6461 -0.0428  2.2990
  896MOL0     H20950   3.611   6.911   4.874 -0.8627 -2.4355  0.5408
  896MOL0     H20951   3.609   6.776   4.769 -0.9462  0.2125  0.6278
  896MOL0     H20952   3.771   7.022   4.693  2.2102 -0.4784 -2.6176
  896MOL0     H20953   3.773   6.871   4.606 -2.7177  1.6377 -1.6744
  896MOL0     H20954   3.866   6.747   4.786 -1.9555  0.9919 -1.0923
  896MOL0     H20955   3.841   6.866   4.904 -2.9104 -1.2197 -0.9873
  896MOL0     H20956   4.034   6.926   4.656 -0.3614  4.2612 -0.4050
  896MOL0     H20957   4.074   6.824   4.794 -0.9885 -0.2473  2.3307
  896MOL0     H20958   4.068   7.230   4.945  1.2634 -1.2876  1.5097
  896MOL0     H20959   3.582   6.717   4.547 -0.2479 -1.2098  0.3210
  896MOL0     H20960   3.489   6.657   4.336 -3.6484 -1.8129  0.5551
  897MOL0     O20961   8.048   7.509   2.050  0.1526  0.1689 -0.0020
  897MOL0     C20962   8.135   7.427   2.081  0.0331  0.2524 -0.3796
  897MOL0     O20963   8.127   7.293   2.052  0.8022 -0.2068  0.5041
  897MOL0     C20964   8.024   7.236   1.971 -0.1227 -0.6989 -0.3736
  897MOL0     C20965   7.967   7.293   1.857 -0.2205 -0.1663  1.4080
  897MOL0     C20966   7.864   7.224   1.781 -0.4133  1.1170  0.4876
  897MOL0     C20967   7.815   7.102   1.825 -0.6649  0.1988  0.7959
  897MOL0     O20968   7.730   7.040   1.736  0.3195 -0.0809 -0.7024
  897MOL0     C20969   7.700   6.898   1.751 -0.7349  0.1594  0.0687
  897MOL0     C20970   7.641   6.842   1.617 -0.4535  1.0579 -0.1219
  897MOL0     C20971   7.709   6.883   1.494  0.1487 -0.6198 -0.2525
  897MOL0     C20972   7.671   6.792   1.378 -0.2104  0.7371 -0.0564
  897MOL0     C20973   7.746   6.812   1.250 -1.1128 -0.7842 -0.9585
  897MOL0     C20974   7.702   6.928   1.168  0.1672 -0.3163  0.3909
  897MOL0     C20975   7.793   6.959   1.053  0.0561 -0.0019 -0.4513
  897MOL0     C20976   7.918   7.047   1.095  0.0801  0.1383 -0.0245
  897MOL0     N20977   7.885   7.173   1.160 -0.2381 -0.3123  0.7570
  897MOL0     C20978   7.923   7.200   1.286 -0.3204  0.4202 -0.6384
  897MOL0     C20979   7.851   7.311   1.327  0.0679 -0.7939  0.2468
  897MOL0     C20980   7.862   7.397   1.447  0.8389  0.1836 -0.9397
  897MOL0     C20981   7.903   7.539   1.402  1.0597  0.2718 -0.3243
  897MOL0     C20982   7.829   7.643   1.487  0.8634 -0.0559  0.0110
  897MOL0     C20983   7.681   7.634   1.458  0.3832 -0.0143  0.0461
  897MOL0     O20984   7.623   7.768   1.463  0.5087  0.5859 -0.3766
  897MOL0     C20985   7.508   7.799   1.415 -0.8117 -0.3004 -0.3264
  897MOL0     C20986   7.468   7.930   1.404 -0.3308 -0.1593 -0.7434
  897MOL0     C20987   7.341   7.971   1.359  0.2041  0.7632 -0.1067
  897MOL0     C20988   7.316   8.119   1.346  0.0579  0.2478  0.1541
  897MOL0     C20989   7.242   7.870   1.315 -0.6542 -0.4239 -0.0398
  897MOL0     C20990   7.089   7.895   1.270 -0.0405  0.4656 -0.1241
  897MOL0     O20991   7.021   7.788   1.224  0.4584 -0.4236 -0.0923
  897MOL0     C20992   6.895   7.805   1.169 -0.3900  0.0572 -0.5082
  897MOL0     C20993   6.789   7.733   1.233 -0.5664 -0.2464  0.1573
  897MOL0     C20994   6.651   7.732   1.172 -0.9468 -1.1775 -0.9502
  897MOL0     C20995   6.633   7.825   1.066  0.1585  0.0030  0.5978
  897MOL0     O20996   6.510   7.851   1.012  0.3197  0.4636 -0.5413
  897MOL0     C20997   6.399   7.765   1.044 -0.3940 -0.3497  0.4793
  897MOL0     C20998   6.269   7.797   0.966  0.2703  0.8676 -0.0562
  897MOL0     C20999   6.150   7.711   1.032 -1.3489  0.1991  0.1338
  897MOL0     C21000   6.026   7.727   0.941 -0.2444  0.0732 -0.7098
  897MOL0     C21001   5.898   7.663   1.005  1.1944 -0.2053 -0.5317
  897MOL0     C21002   5.768   7.676   0.920  0.6422  0.3806 -0.4177
  897MOL0     C21003   5.642   7.612   0.973  0.1450 -0.0183 -0.4446
  897MOL0     C21004   5.518   7.642   0.878 -0.2646 -0.3689 -0.0882
  897MOL0    Cl21005   5.369   7.592   0.960  0.1924  0.3725  0.5097
  897MOL0     C21006   6.735   7.895   1.003 -0.2865 -0.5863 -0.5942
  897MOL0     C21007   6.872   7.876   1.053  0.2107 -0.1930 -0.5919
  897MOL0     O21008   7.047   8.006   1.287  0.0451 -0.0849 -0.0664
  897MOL0     C21009   7.288   7.732   1.333  0.5272  0.3258 -0.1618
  897MOL0     C21010   7.423   7.702   1.374  0.4307 -0.1119 -0.4617
  897MOL0     N21011   7.768   7.345   1.226  0.2405 -0.3154  0.1727
  897MOL0     N21012   7.781   7.260   1.134  0.1480  0.2291 -0.0239
  897MOL0     C21013   7.869   7.047   1.940  0.5579 -0.8022  0.7266
  897MOL0     C21014   7.972   7.112   2.013  0.7801  0.5794  0.8096
  897MOL0     C21015   8.261   7.469   2.142  0.2078 -0.2831 -0.3840
  897MOL0     C21016   8.367   7.373   2.154 -0.1124 -0.3229 -0.4253
  897MOL0     C21017   8.488   7.418   2.209 -0.5076 -0.5894 -0.7516
  897MOL0     C21018   8.505   7.558   2.245 -1.8866  0.5256 -0.3751
  897MOL0     O21019   8.629   7.601   2.301  0.1607 -0.2269  0.2811
  897MOL0     C21020   8.735   7.508   2.298 -1.2771  0.2787  0.0864
  897MOL0     C21021   8.861   7.586   2.355  0.2863 -0.4224 -0.1416
  897MOL0     C21022   8.973   7.491   2.383  0.0786  1.1157  0.4419
  897MOL0     C21023   9.050   7.427   2.272  1.0844 -0.8433 -0.3949
  897MOL0     C21024   9.168   7.370   2.331  0.3307  0.1558  0.2031
  897MOL0     C21025   9.268   7.301   2.370  0.2293  0.7651 -0.2047
  897MOL0     C21026   8.407   7.642   2.221  0.3693  0.0621 -0.1508
  897MOL0     C21027   8.285   7.609   2.170  1.1253  0.8870  0.1520
  897MOL0     H21028   8.017   7.384   1.825  1.0161 -1.2253  0.2094
  897MOL0     H21029   7.824   7.263   1.687 -2.0136 -0.0433  0.6415
  897MOL0     H21030   7.793   6.844   1.771  0.7194  0.7331 -4.2337
  897MOL0     H21031   7.626   6.888   1.831 -0.0752 -0.6076  0.6020
  897MOL0     H21032   7.642   6.733   1.611  0.7051  0.9694  1.3048
  897MOL0     H21033   7.536   6.871   1.610 -0.2830  2.6712  2.7107
  897MOL0     H21034   7.692   6.990   1.478  1.3361 -0.5677 -1.3293
  897MOL0     H21035   7.818   6.883   1.504  0.6730 -2.7050 -3.9637
  897MOL0     H21036   7.685   6.689   1.412  0.6928 -0.6004 -3.9456
  897MOL0     H21037   7.562   6.795   1.365 -0.0744  0.9039 -1.3143
  897MOL0     H21038   7.853   6.821   1.275 -0.9774 -2.2256 -0.9656
  897MOL0     H21039   7.729   6.723   1.189  1.9322 -1.1349 -1.4931
  897MOL0     H21040   7.604   6.912   1.123  1.2429 -1.7109 -1.6283
  897MOL0     H21041   7.697   7.011   1.239  2.4714  0.2861 -0.0715
  897MOL0     H21042   7.824   6.861   1.015 -1.7451  0.0359 -2.1317
  897MOL0     H21043   7.738   7.015   0.977 -0.4284  0.0014 -0.1069
  897MOL0     H21044   7.984   7.074   1.012  0.7511 -0.0673  0.4443
  897MOL0     H21045   7.977   6.975   1.151  0.6744  0.3473 -0.3770
  897MOL0     H21046   7.992   7.138   1.342 -0.9071 -2.6939 -3.0513
  897MOL0     H21047   7.766   7.397   1.499  0.6216 -2.0909 -1.2653
  897MOL0     H21048   7.929   7.361   1.525 -0.1015  1.8021  0.6823
  897MOL0     H21049   7.872   7.559   1.299 -0.7931  1.4372  0.4068
  897MOL0     H21050   8.006   7.557   1.433  0.6687 -0.3250  1.4735
  897MOL0     H21051   7.871   7.742   1.465  0.5023  1.0477  3.6162
  897MOL0     H21052   7.857   7.627   1.592 -1.3329  0.1068  0.6560
  897MOL0     H21053   7.625   7.570   1.526 -1.4322  3.2341  1.8883
  897MOL0     H21054   7.662   7.581   1.365  0.1877 -2.3400  1.3442
  897MOL0     H21055   7.539   8.000   1.446  0.2486 -1.5169  0.6596
  897MOL0     H21056   7.408   8.166   1.308 -1.8378  2.5115 -1.9777
  897MOL0     H21057   7.242   8.145   1.270 -0.8541 -0.1945  0.8714
  897MOL0     H21058   7.281   8.160   1.441  0.7939 -0.1182  0.5981
  897MOL0     H21059   6.810   7.667   1.316  1.1797  0.4601  0.3079
  897MOL0     H21060   6.576   7.667   1.216  1.4325 -0.8322  4.4640
  897MOL0     H21061   6.424   7.659   1.042 -0.6329 -0.4532  1.9212
  897MOL0     H21062   6.380   7.783   1.150  0.9187  2.1131  0.3780
  897MOL0     H21063   6.234   7.901   0.966 -0.0674  0.7590 -0.5129
  897MOL0     H21064   6.281   7.767   0.862  1.5958  2.3602 -0.3719
  897MOL0     H21065   6.134   7.726   1.139 -1.9824  0.0024  0.0663
  897MOL0     H21066   6.180   7.606   1.021  3.2473  0.8656  3.3711
  897MOL0     H21067   6.019   7.833   0.918 -1.3320  0.4823  1.2741
  897MOL0     H21068   6.042   7.678   0.845 -0.6764 -1.2804 -0.1291
  897MOL0     H21069   5.885   7.714   1.101 -3.6889 -0.3868 -0.8173
  897MOL0     H21070   5.911   7.555   1.019 -0.5431 -0.1693  2.1553
  897MOL0     H21071   5.739   7.779   0.898 -0.5986  0.1048 -0.1603
  897MOL0     H21072   5.790   7.641   0.819 -0.8888 -0.1425 -0.5966
  897MOL0     H21073   5.626   7.649   1.074 -1.0176 -3.1672  0.6516
  897MOL0     H21074   5.657   7.504   0.976  1.0766  0.0794 -1.1365
  897MOL0     H21075   5.526   7.593   0.781 -0.3610 -2.5146  0.9297
  897MOL0     H21076   5.513   7.750   0.862 -3.5063 -0.6377 -1.6110
  897MOL0     H21077   6.728   7.947   0.908  4.8682 -0.4936 -1.2501
  897MOL0     H21078   6.961   7.918   1.008  2.5479 -0.4365  3.3984
  897MOL0     H21079   7.222   7.652   1.302 -1.7225  1.9716  0.1220
  897MOL0     H21080   7.449   7.596   1.378  1.2527  0.0977  2.3649
  897MOL0     H21081   7.827   6.952   1.973  1.0006 -1.0023  0.7209
  897MOL0     H21082   8.001   7.066   2.107 -1.7736 -1.0243  0.9105
  897MOL0     H21083   8.355   7.269   2.124  0.4069 -0.1697 -1.2080
  897MOL0     H21084   8.569   7.350   2.233 -0.2929 -0.4122 -0.9634
  897MOL0     H21085   8.712   7.419   2.358  0.4202  0.3615  0.8998
  897MOL0     H21086   8.752   7.481   2.194 -1.6338  2.9370 -0.7556
  897MOL0     H21087   8.823   7.632   2.446 -0.6483 -0.4739 -0.4897
  897MOL0     H21088   8.893   7.660   2.280  0.1487 -0.2802 -0.0614
  897MOL0     H21089   8.935   7.417   2.455 -0.7668  0.9331 -0.1760
  897MOL0     H21090   9.047   7.547   2.440 -0.6021  0.3234  2.1895
  897MOL0     H21091   9.076   7.496   2.191 -2.8890 -0.4721 -1.5217
  897MOL0     H21092   8.980   7.361   2.220  0.9925  0.6596 -2.3021
  897MOL0     H21093   9.345   7.234   2.401  2.6767  3.3396 -0.3114
  897MOL0     H21094   8.439   7.741   2.253  4.3609 -0.9567 -0.4664
  897MOL0     H21095   8.214   7.685   2.140  2.7019  2.6896  0.7472
  898MOL0     O21096  10.041   8.813   5.887 -0.8290  0.2294  0.3811
  898MOL0     C21097  10.095   8.876   5.981  0.3848  1.2550  0.0344
  898MOL0     O21098  10.050   8.879   6.115  0.1974  0.5280  0.0932
  898MOL0     C21099   9.948   8.802   6.165  0.5446  0.4458  0.4044
  898MOL0     C21100   9.832   8.790   6.097 -0.0083 -0.2448 -0.4337
  898MOL0     C21101   9.718   8.730   6.154  0.3810  0.7303  0.2228
  898MOL0     C21102   9.728   8.680   6.286  0.7461  0.2074  0.8504
  898MOL0     O21103   9.628   8.614   6.346 -0.4999 -0.8494  0.8046
  898MOL0     C21104   9.562   8.512   6.270  0.7242 -0.7413 -0.2483
  898MOL0     C21105   9.434   8.572   6.208 -0.0812 -0.3111  0.4268
  898MOL0     C21106   9.346   8.649   6.305 -0.1603  1.1365  0.0861
  898MOL0     C21107   9.275   8.547   6.397  0.5389  0.6663  0.3470
  898MOL0     C21108   9.197   8.641   6.495 -0.3023  0.2086  0.0780
  898MOL0     C21109   9.048   8.666   6.443 -0.1587 -0.1312 -0.0174
  898MOL0     C21110   8.984   8.765   6.539 -0.2528 -0.3321  0.9581
  898MOL0     C21111   8.840   8.809   6.491  0.0722  0.0256  0.5174
  898MOL0     N21112   8.846   8.920   6.389 -0.1768  0.2693 -0.6177
  898MOL0     C21113   8.847   8.917   6.250 -0.8930 -0.7525  0.7552
  898MOL0     C21114   8.836   9.050   6.211  0.4933  0.6679  0.7436
  898MOL0     C21115   8.833   9.105   6.069 -0.4824 -0.2020  0.1596
  898MOL0     C21116   8.883   9.025   5.947 -0.4258  0.0694 -0.7025
  898MOL0     C21117   9.021   9.061   5.907 -0.6611 -0.0384  0.5564
  898MOL0     C21118   9.115   8.937   5.885 -0.0689  0.9723 -0.3820
  898MOL0     O21119   9.259   8.962   5.875  0.7750  0.3072 -0.3998
  898MOL0     C21120   9.329   8.985   5.998 -0.9901  0.2084 -0.6527
  898MOL0     C21121   9.456   9.038   5.986 -0.7642  0.4667 -0.3867
  898MOL0     C21122   9.536   9.083   6.098 -0.1268 -0.8288  0.1247
  898MOL0     C21123   9.669   9.143   6.063  0.8315  1.1509 -0.0165
  898MOL0     C21124   9.483   9.057   6.230 -0.2092 -0.6089  0.5980
  898MOL0     C21125   9.544   9.100   6.354  0.8924 -0.0003  0.4023
  898MOL0     O21126   9.459   9.080   6.461  0.5105 -0.2621 -0.0332
  898MOL0     C21127   9.491   9.144   6.582  0.1530 -0.2172  0.4709
  898MOL0     C21128   9.521   9.280   6.592  0.3335 -0.7587  0.2634
  898MOL0     C21129   9.575   9.346   6.710 -0.4679  0.2295  0.1459
  898MOL0     C21130   9.594   9.256   6.822 -0.3595 -0.4676  0.2427
  898MOL0     O21131   9.632   9.294   6.944 -0.3124  0.1368  0.1249
  898MOL0     C21132   9.637   9.429   6.983 -0.4898 -0.5478  0.5155
  898MOL0     C21133   9.687   9.432   7.134 -0.0248 -0.0519 -0.4083
  898MOL0     C21134   9.625   9.536   7.222  0.5961  0.1891 -0.4086
  898MOL0     C21135   9.470   9.510   7.249 -0.0996 -0.3397 -0.9536
  898MOL0     C21136   9.401   9.637   7.323  0.4012 -0.2168  0.4716
  898MOL0     C21137   9.437   9.632   7.474 -0.6650  0.1744  0.2501
  898MOL0     C21138   9.332   9.546   7.541 -0.0388 -0.2817  0.0071
  898MOL0     C21139   9.382   9.520   7.686 -0.4417  0.2220 -0.9611
  898MOL0    Cl21140   9.490   9.379   7.693 -0.2640  0.1199  0.4108
  898MOL0     C21141   9.564   9.120   6.812 -0.0617 -1.0834  0.6885
  898MOL0     C21142   9.505   9.061   6.694 -0.3362  0.2763  0.1930
  898MOL0     O21143   9.647   9.169   6.360 -0.1380  0.1942  0.0708
  898MOL0     C21144   9.360   8.979   6.236 -0.5830 -0.4186  1.2727
  898MOL0     C21145   9.277   8.953   6.125 -0.1308 -0.4464  0.5609
  898MOL0     N21146   8.820   9.131   6.314  0.3168  0.4532 -1.2350
  898MOL0     N21147   8.830   9.056   6.420  0.4629  0.1868 -0.0009
  898MOL0     C21148   9.850   8.701   6.357  0.2542  0.2450  0.4000
  898MOL0     C21149   9.960   8.754   6.296 -0.2438 -0.5260  0.5749
  898MOL0     C21150  10.208   8.953   5.940  0.6198 -0.3388 -0.0043
  898MOL0     C21151  10.235   8.973   5.809 -0.3617 -0.1348  0.6176
  898MOL0     C21152  10.339   9.054   5.751  0.5502 -0.0636  0.6507
  898MOL0     C21153  10.417   9.122   5.833 -0.4501 -0.1813 -1.0973
  898MOL0     O21154  10.510   9.211   5.779 -0.9312  0.5893  0.5680
  898MOL0     C21155  10.602   9.285   5.864  0.0110 -0.4838  0.1994
  898MOL0     C21156  10.669   9.402   5.781 -0.3632 -0.1474 -0.1013
  898MOL0     C21157  10.697   9.363   5.633 -1.0188  0.5659 -0.5034
  898MOL0     C21158  10.776   9.235   5.623 -0.7505  0.6357  0.8920
  898MOL0     C21159  10.902   9.244   5.708  0.3056 -0.6985 -0.2925
  898MOL0     C21160  11.005   9.234   5.779  0.2934  0.3540 -0.8114
  898MOL0     C21161  10.393   9.107   5.974 -0.3344  0.1539 -0.4529
  898MOL0     C21162  10.293   9.021   6.033 -0.0392 -0.0700  0.3704
  898MOL0     H21163   9.814   8.820   5.994 -0.0835 -0.3943 -0.4642
  898MOL0     H21164   9.627   8.720   6.095 -0.2737  0.2513  1.2744
  898MOL0     H21165   9.619   8.457   6.195 -0.5295 -1.5444 -0.6414
  898MOL0     H21166   9.530   8.439   6.345  1.5823  1.3887  2.3583
  898MOL0     H21167   9.457   8.638   6.124 -1.2636 -0.2260  0.1560
  898MOL0     H21168   9.367   8.494   6.169  0.1621  0.6644 -2.1356
  898MOL0     H21169   9.415   8.708   6.366  0.6881 -0.3617  0.6355
  898MOL0     H21170   9.272   8.708   6.251 -0.1585 -0.2116 -1.4622
  898MOL0     H21171   9.193   8.498   6.344  2.2952  0.1238 -2.0285
  898MOL0     H21172   9.344   8.477   6.446 -1.7214 -0.3660  2.2870
  898MOL0     H21173   9.191   8.590   6.592 -1.0394 -1.0727 -0.6064
  898MOL0     H21174   9.252   8.735   6.505  1.3294 -0.9009  2.4593
  898MOL0     H21175   9.046   8.701   6.340  1.8802 -0.7522 -0.3158
  898MOL0     H21176   8.989   8.574   6.446 -2.2179  1.1477  0.6688
  898MOL0     H21177   8.977   8.710   6.634  0.4130  0.4967  1.4970
  898MOL0     H21178   9.050   8.851   6.553 -2.5084  1.5423  0.6071
  898MOL0     H21179   8.787   8.843   6.581 -2.2568 -2.7001  0.3069
  898MOL0     H21180   8.783   8.723   6.455  0.4314  0.2768 -0.6602
  898MOL0     H21181   8.852   8.840   6.174  1.6260  0.7225 -0.7202
  898MOL0     H21182   8.725   9.119   6.058 -0.5167 -0.5670  0.0364
  898MOL0     H21183   8.874   9.207   6.077  0.8842 -0.4582 -2.6246
  898MOL0     H21184   8.813   9.033   5.863 -1.8087  3.7136  0.6029
  898MOL0     H21185   8.886   8.920   5.979 -2.7322  0.0804 -0.2386
  898MOL0     H21186   9.066   9.114   5.991 -1.1018  2.3093 -0.6227
  898MOL0     H21187   9.023   9.119   5.814  0.7360  2.2704  1.9392
  898MOL0     H21188   9.083   8.892   5.791 -1.7729 -1.7979  1.3875
  898MOL0     H21189   9.097   8.859   5.959 -0.2902  2.4295  1.1671
  898MOL0     H21190   9.501   9.066   5.891  2.9940  0.2245  1.1590
  898MOL0     H21191   9.735   9.076   6.009 -1.0365 -1.4415  0.7350
  898MOL0     H21192   9.658   9.237   6.008  1.8016  0.6733 -1.0746
  898MOL0     H21193   9.730   9.161   6.152 -1.2378 -2.0535  2.2521
  898MOL0     H21194   9.509   9.324   6.493  2.3398 -0.4569  0.1107
  898MOL0     H21195   9.607   9.450   6.716  1.4495 -0.3340  0.2753
  898MOL0     H21196   9.708   9.483   6.920 -1.1752  0.0348  0.2216
  898MOL0     H21197   9.547   9.491   6.976 -0.8089 -1.1550 -1.6534
  898MOL0     H21198   9.667   9.333   7.176 -0.6169 -0.9289 -2.5874
  898MOL0     H21199   9.793   9.456   7.123 -0.6873  2.4938 -2.2945
  898MOL0     H21200   9.642   9.632   7.172 -0.0015  0.1901 -0.6238
  898MOL0     H21201   9.676   9.558   7.316  0.7293 -0.6979 -0.2647
  898MOL0     H21202   9.421   9.508   7.152 -0.7418 -1.1259 -0.6246
  898MOL0     H21203   9.468   9.418   7.309  2.9805 -0.4691 -0.8856
  898MOL0     H21204   9.292   9.638   7.319  0.3780  0.2033  1.1505
  898MOL0     H21205   9.438   9.731   7.283  0.6651 -0.0768  1.0265
  898MOL0     H21206   9.525   9.568   7.487 -1.2241 -1.7038 -3.6701
  898MOL0     H21207   9.443   9.732   7.517 -1.8256 -0.2594  1.4716
  898MOL0     H21208   9.303   9.457   7.485 -2.7054  1.4164 -1.5793
  898MOL0     H21209   9.241   9.607   7.546  0.5017  0.4532  1.3111
  898MOL0     H21210   9.289   9.506   7.742  1.1442  1.2598  2.0912
  898MOL0     H21211   9.429   9.610   7.726 -0.8587 -0.3396  0.8879
  898MOL0     H21212   9.579   9.056   6.899  0.9818  2.5437  3.4382
  898MOL0     H21213   9.513   8.953   6.682 -0.8352  0.5066 -3.3216
  898MOL0     H21214   9.318   8.946   6.330 -0.6291 -0.7310  1.1411
  898MOL0     H21215   9.173   8.922   6.131 -0.5391  0.2290 -1.7996
  898MOL0     H21216   9.861   8.658   6.456 -2.2563 -0.5954  0.3979
  898MOL0     H21217  10.050   8.758   6.356  0.1674  0.5263 -0.0825
  898MOL0     H21218  10.168   8.922   5.742 -1.8137  1.8676  0.4440
  898MOL0     H21219  10.345   9.075   5.645 -1.7518 -0.4181  0.3996
  898MOL0     H21220  10.551   9.327   5.951 -2.9736  0.0022 -1.6421
  898MOL0     H21221  10.678   9.215   5.900  1.2306  0.1829 -0.9929
  898MOL0     H21222  10.756   9.454   5.823 -1.7827  0.1055  2.7513
  898MOL0     H21223  10.595   9.481   5.790 -1.7131 -1.4265  0.4697
  898MOL0     H21224  10.766   9.443   5.606  0.5359 -0.9819 -1.3374
  898MOL0     H21225  10.607   9.373   5.571 -1.2881  4.7194  0.2932
  898MOL0     H21226  10.818   9.204   5.527  0.2889  0.7918  1.2846
  898MOL0     H21227  10.712   9.156   5.663 -1.6393  1.8415  1.9331
  898MOL0     H21228  11.086   9.220   5.848 -2.0940 -3.6855  1.5609
  898MOL0     H21229  10.451   9.160   6.049  0.4701  1.2657 -1.8359
  898MOL0     H21230  10.280   9.024   6.141 -0.6896  2.3679  0.2850
  899MOL0     O21231   8.792   2.719   7.116 -0.5272  0.0712  0.9892
  899MOL0     C21232   8.831   2.798   7.200  0.7532 -0.9817 -0.0332
  899MOL0     O21233   8.742   2.858   7.295 -0.6146  0.9078  0.2172
  899MOL0     C21234   8.604   2.838   7.286  0.1948  0.4774  1.0640
  899MOL0     C21235   8.520   2.946   7.329 -0.2462  1.1970  0.5181
  899MOL0     C21236   8.379   2.934   7.317 -0.7740 -0.2185 -0.6936
  899MOL0     C21237   8.317   2.815   7.272  0.0918 -1.0734  0.3383
  899MOL0     O21238   8.181   2.798   7.260 -0.4352 -0.5508 -0.4284
  899MOL0     C21239   8.096   2.905   7.220 -0.7993  1.4441 -0.1578
  899MOL0     C21240   7.986   2.840   7.139 -0.2541 -0.2889 -0.4018
  899MOL0     C21241   7.911   2.956   7.090  0.8424 -0.0927  0.2822
  899MOL0     C21242   7.824   2.924   6.971 -0.1910 -0.0620  0.1832
  899MOL0     C21243   7.764   3.051   6.913 -0.6469 -0.7577  0.3209
  899MOL0     C21244   7.678   3.008   6.794  0.5444 -0.1642  0.3694
  899MOL0     C21245   7.628   3.130   6.731 -0.4369  0.4033 -0.2645
  899MOL0     C21246   7.515   3.115   6.635  0.1403 -0.0284  0.6975
  899MOL0     N21247   7.528   3.027   6.519 -0.7156 -0.7247  0.2657
  899MOL0     C21248   7.567   3.073   6.398  0.2849 -0.2584 -0.0976
  899MOL0     C21249   7.586   2.956   6.329 -0.2098 -0.0652 -0.2582
  899MOL0     C21250   7.626   2.949   6.182 -0.5503 -0.3863 -0.0065
  899MOL0     C21251   7.737   2.836   6.157  0.2230  0.1639 -0.3882
  899MOL0     C21252   7.796   2.840   6.017 -0.1685 -0.4432  1.1969
  899MOL0     C21253   7.870   2.714   5.988 -0.5784 -0.4172 -0.2652
  899MOL0     O21254   7.986   2.735   5.895  0.8831  0.1859 -0.9574
  899MOL0     C21255   8.098   2.801   5.944 -0.8993 -0.2748  0.6730
  899MOL0     C21256   8.176   2.861   5.843  1.1653 -0.0603 -0.2931
  899MOL0     C21257   8.281   2.944   5.882  0.0811 -0.5797 -0.2983
  899MOL0     C21258   8.335   3.037   5.777  0.0119 -0.3555  0.2900
  899MOL0     C21259   8.316   2.968   6.013  0.1776 -0.0439 -0.6759
  899MOL0     C21260   8.429   3.057   6.062  0.6218  0.2135  0.6736
  899MOL0     O21261   8.415   3.122   6.182  0.0334 -0.2342 -0.0440
  899MOL0     C21262   8.511   3.196   6.234 -0.4921  0.3291 -0.1594
  899MOL0     C21263   8.569   3.295   6.161  0.0251 -0.6221  0.6009
  899MOL0     C21264   8.652   3.387   6.220  0.8550  0.1059  0.5747
  899MOL0     C21265   8.669   3.384   6.354 -0.4534 -0.0950  0.1502
  899MOL0     O21266   8.743   3.485   6.407 -0.3974  0.5300 -0.3511
  899MOL0     C21267   8.866   3.428   6.461  0.4049 -0.2252  0.1280
  899MOL0     C21268   8.974   3.526   6.471 -0.3312 -1.1860  0.2296
  899MOL0     C21269   8.932   3.668   6.517 -0.2954  0.7202  0.3763
  899MOL0     C21270   9.062   3.741   6.526 -0.3931 -0.1685 -0.2325
  899MOL0     C21271   9.040   3.887   6.564  0.8965  0.1689  1.1613
  899MOL0     C21272   9.171   3.951   6.599  0.5191 -0.8312 -0.9586
  899MOL0     C21273   9.213   3.941   6.748 -0.8299 -0.9911 -0.2514
  899MOL0     C21274   9.364   3.916   6.758  1.1573 -0.4277  0.3608
  899MOL0    Cl21275   9.420   3.950   6.929 -0.4021 -0.4066 -0.1317
  899MOL0     C21276   8.604   3.283   6.429 -0.1022  1.3682 -0.0861
  899MOL0     C21277   8.520   3.192   6.371 -0.1233 -0.6930  0.0911
  899MOL0     O21278   8.528   3.052   5.993 -0.7656 -0.2402  0.2993
  899MOL0     C21279   8.245   2.897   6.114 -0.1105 -1.0941 -0.4023
  899MOL0     C21280   8.138   2.822   6.079 -0.2907  0.3826  0.8287
  899MOL0     N21281   7.553   2.849   6.413 -0.5982  0.8488  0.0188
  899MOL0     N21282   7.523   2.894   6.530  0.6978 -0.4844 -0.0590
  899MOL0     C21283   8.396   2.708   7.237  0.7304  0.2031 -0.8049
  899MOL0     C21284   8.533   2.717   7.255 -1.7736 -0.5583 -0.0880
  899MOL0     C21285   8.973   2.822   7.211  0.5561  0.5448 -0.6630
  899MOL0     C21286   9.033   2.906   7.311  0.0088  0.6979 -0.6454
  899MOL0     C21287   9.173   2.934   7.300 -0.4559  0.0340 -0.6394
  899MOL0     C21288   9.254   2.872   7.206 -0.0285 -0.8556  0.2465
  899MOL0     O21289   9.392   2.894   7.194  0.3944  0.2057  0.1014
  899MOL0     C21290   9.464   2.913   7.314  0.3073  0.9645  0.1726
  899MOL0     C21291   9.613   2.915   7.279 -0.3531 -0.3685  0.4192
  899MOL0     C21292   9.706   2.906   7.398 -0.0208 -0.2048  0.0005
  899MOL0     C21293   9.846   2.864   7.359  0.0734  0.3078 -0.3311
  899MOL0     C21294   9.926   2.965   7.293  0.2137  0.0586  0.9131
  899MOL0     C21295   9.976   3.065   7.246  0.4043  0.2193  0.1725
  899MOL0     C21296   9.195   2.788   7.109  0.2417  0.0394 -0.5469
  899MOL0     C21297   9.059   2.763   7.112 -0.0705  0.2037 -0.0981
  899MOL0     H21298   8.581   3.029   7.363  0.9089  2.3591 -3.8009
  899MOL0     H21299   8.329   3.024   7.351  2.0882  1.2336  0.0279
  899MOL0     H21300   8.062   2.960   7.308 -0.6427  1.7489 -0.2864
  899MOL0     H21301   8.158   2.966   7.153  2.3199  1.3295  2.4032
  899MOL0     H21302   8.023   2.803   7.043 -1.6841  4.5483 -3.1542
  899MOL0     H21303   7.922   2.776   7.200  0.8245  0.8287  2.0622
  899MOL0     H21304   7.848   2.992   7.172 -0.3021 -4.3937  1.5773
  899MOL0     H21305   7.977   3.037   7.057  0.0167 -0.2032 -1.7565
  899MOL0     H21306   7.884   2.882   6.889  0.9149  0.4521  0.7031
  899MOL0     H21307   7.743   2.862   7.009  0.6242  0.9626  4.0472
  899MOL0     H21308   7.712   3.111   6.988  0.4601  0.2280  0.3253
  899MOL0     H21309   7.842   3.113   6.868 -2.5790  1.0695 -0.7032
  899MOL0     H21310   7.736   2.959   6.715  0.7798  1.3899 -0.4527
  899MOL0     H21311   7.598   2.938   6.820  0.5857  0.4561  2.3636
  899MOL0     H21312   7.589   3.204   6.801 -1.1798  1.0108 -1.2945
  899MOL0     H21313   7.712   3.181   6.682  2.0769 -2.1230  1.0921
  899MOL0     H21314   7.502   3.215   6.593  2.2812  0.9595  2.1695
  899MOL0     H21315   7.417   3.091   6.679  0.8617 -0.0567  2.3599
  899MOL0     H21316   7.584   3.177   6.372  3.0806 -0.5663  0.1647
  899MOL0     H21317   7.536   2.956   6.121  0.6446  0.5875 -1.7677
  899MOL0     H21318   7.677   3.039   6.146 -0.7918 -0.0667  0.4426
  899MOL0     H21319   7.687   2.739   6.163 -1.9746  1.1554 -1.4618
  899MOL0     H21320   7.824   2.846   6.223  1.2567  2.0508 -1.9124
  899MOL0     H21321   7.868   2.923   6.011  0.1544 -0.8188 -2.5490
  899MOL0     H21322   7.719   2.859   5.942  1.3822  2.1411  0.1238
  899MOL0     H21323   7.803   2.643   5.937 -0.4665 -1.2913  0.7675
  899MOL0     H21324   7.902   2.662   6.079  0.6295 -1.3356 -1.1772
  899MOL0     H21325   8.138   2.873   5.742  1.8082  1.1837 -0.4078
  899MOL0     H21326   8.342   3.138   5.816 -0.6763 -0.5574  0.9700
  899MOL0     H21327   8.429   2.996   5.738 -0.0575 -1.9772  1.7073
  899MOL0     H21328   8.269   3.037   5.689  0.5749 -0.2186 -0.1381
  899MOL0     H21329   8.550   3.298   6.054 -0.2107  1.8870  0.6485
  899MOL0     H21330   8.680   3.465   6.150 -3.8060  2.0332  0.4605
  899MOL0     H21331   8.848   3.394   6.563 -1.0175 -1.4147 -0.4851
  899MOL0     H21332   8.894   3.350   6.390  1.5599  0.8137 -0.6013
  899MOL0     H21333   9.051   3.477   6.531  1.4057 -0.2004 -1.0871
  899MOL0     H21334   9.016   3.548   6.372 -1.8285  0.6751 -0.0435
  899MOL0     H21335   8.887   3.676   6.616 -2.5098 -1.2033 -0.3971
  899MOL0     H21336   8.869   3.703   6.435  0.1561  1.3515  0.2877
  899MOL0     H21337   9.129   3.701   6.603 -3.3367 -3.4499  0.8998
  899MOL0     H21338   9.107   3.741   6.427 -0.6361  2.9459 -0.4348
  899MOL0     H21339   8.967   3.897   6.645 -1.8790  3.3918 -1.4225
  899MOL0     H21340   8.986   3.938   6.484 -0.3105 -3.3343 -0.4560
  899MOL0     H21341   9.249   3.908   6.536 -0.0224 -1.9710 -0.8676
  899MOL0     H21342   9.173   4.057   6.571  0.0517 -0.9849 -1.6033
  899MOL0     H21343   9.162   3.853   6.788  0.1095 -1.8042 -0.7800
  899MOL0     H21344   9.183   4.032   6.800 -1.6722 -1.6835  0.5126
  899MOL0     H21345   9.414   3.988   6.693  1.4078  0.5442  1.5936
  899MOL0     H21346   9.397   3.816   6.728  2.3025 -0.0655  0.3816
  899MOL0     H21347   8.618   3.272   6.536 -2.3128  1.9368  0.3005
  899MOL0     H21348   8.474   3.116   6.434 -3.2495 -0.2680 -1.4719
  899MOL0     H21349   8.275   2.896   6.218  0.7035  2.4763 -0.4918
  899MOL0     H21350   8.094   2.767   6.162  1.0792  0.1913  1.4465
  899MOL0     H21351   8.351   2.615   7.203  4.5436 -2.2374  0.2426
  899MOL0     H21352   8.603   2.635   7.244  0.3897  0.5277  3.5533
  899MOL0     H21353   8.982   2.956   7.393 -1.0130  0.7951 -1.3278
  899MOL0     H21354   9.216   3.018   7.353 -1.8171  0.6405 -0.4444
  899MOL0     H21355   9.443   3.002   7.375  1.9845  0.7678  1.1044
  899MOL0     H21356   9.453   2.822   7.373 -3.7837  0.4845 -0.9818
  899MOL0     H21357   9.634   3.004   7.220  1.4212 -2.1233 -1.7985
  899MOL0     H21358   9.622   2.819   7.227  3.8625 -0.4612  0.9318
  899MOL0     H21359   9.661   2.842   7.474 -1.0610  1.8076  1.1710
  899MOL0     H21360   9.716   2.999   7.454  2.4935 -1.4171  1.7816
  899MOL0     H21361   9.834   2.777   7.293  1.7037 -0.0800 -0.1632
  899MOL0     H21362   9.893   2.821   7.448 -0.6777 -2.5853 -1.2289
  899MOL0     H21363  10.006   3.165   7.221 -1.6206  1.8349  3.4857
  899MOL0     H21364   9.246   2.740   7.026  0.9251  1.1014 -0.7534
  899MOL0     H21365   9.027   2.707   7.025 -2.4954 -0.1073  0.9342
  900MOL0     O21366   6.333   9.093  11.340  0.6322  0.1864 -0.4822
  900MOL0     C21367   6.362   9.047  11.455  0.0114 -0.0094 -0.0242
  900MOL0     O21368   6.283   8.971  11.534  0.0734  0.8350 -0.7189
  900MOL0     C21369   6.162   8.933  11.488  0.0334  0.2604  0.6972
  900MOL0     C21370   6.044   9.008  11.505 -0.1054  0.0555  0.0334
  900MOL0     C21371   5.924   8.976  11.443  0.9236  0.1015  1.1425
  900MOL0     C21372   5.904   8.857  11.374  0.1504  0.2303  0.8804
  900MOL0     O21373   5.776   8.812  11.340 -0.2577 -0.1201 -0.5502
  900MOL0     C21374   5.757   8.691  11.263  0.5232 -0.3774 -0.7882
  900MOL0     C21375   5.618   8.692  11.199 -0.6923  0.8081  0.3652
  900MOL0     C21376   5.594   8.821  11.127  1.4580  0.2332 -0.3962
  900MOL0     C21377   5.449   8.831  11.085 -0.2525 -0.3705 -0.7846
  900MOL0     C21378   5.434   8.938  10.985  0.0070  0.8539  0.6218
  900MOL0     C21379   5.469   8.912  10.833 -0.2844  0.1331 -0.2653
  900MOL0     C21380   5.369   8.824  10.766  0.4898  0.0704 -0.6294
  900MOL0     C21381   5.396   8.810  10.619 -0.0900 -0.6816  0.9337
  900MOL0     N21382   5.270   8.776  10.553  0.5592  0.2855  0.6248
  900MOL0     C21383   5.249   8.659  10.489  0.0396  0.3258 -0.3052
  900MOL0     C21384   5.133   8.674  10.410  0.0476 -0.5473  0.2333
  900MOL0     C21385   5.060   8.574  10.324  0.3793  0.2779  0.1689
  900MOL0     C21386   4.922   8.550  10.386 -0.0048 -0.1733  0.1157
  900MOL0     C21387   4.859   8.426  10.336  0.4007  0.1612  0.7386
  900MOL0     C21388   4.727   8.399  10.388 -0.4906  0.6460  0.3845
  900MOL0     O21389   4.699   8.269  10.329  0.7508  0.2756  0.0489
  900MOL0     C21390   4.586   8.208  10.378  0.4550 -0.4299  0.2905
  900MOL0     C21391   4.547   8.201  10.509  0.6397  0.2990 -0.2386
  900MOL0     C21392   4.419   8.159  10.541  0.0976 -0.5752 -0.6422
  900MOL0     C21393   4.371   8.184  10.698 -0.5105  0.3596  0.6444
  900MOL0     C21394   4.336   8.093  10.444 -0.0076 -0.2316 -0.8596
  900MOL0     C21395   4.215   8.019  10.472  0.3026 -0.2141 -0.3977
  900MOL0     O21396   4.155   8.042  10.590  0.4418 -0.0998 -0.7494
  900MOL0     C21397   4.028   7.998  10.598  0.0995 -0.6107  0.0102
  900MOL0     C21398   3.930   8.040  10.510 -0.5339 -0.4127 -0.7710
  900MOL0     C21399   3.798   7.997  10.526  0.2883 -0.9150 -1.1186
  900MOL0     C21400   3.746   7.949  10.647 -0.3980  0.6380  0.1111
  900MOL0     O21401   3.618   7.906  10.668  0.5551  0.1240 -0.2505
  900MOL0     C21402   3.515   7.908  10.557  0.3010  0.0138  0.2462
  900MOL0     C21403   3.381   7.864  10.613  0.7229  0.5117  0.1670
  900MOL0     C21404   3.282   7.824  10.512 -0.4132 -0.2485 -0.1574
  900MOL0     C21405   3.161   7.779  10.586  0.0873 -0.3829 -0.3119
  900MOL0     C21406   3.049   7.735  10.494  0.1749 -1.0840  0.1972
  900MOL0     C21407   2.981   7.837  10.404 -0.1936 -0.2056  0.2214
  900MOL0     C21408   2.836   7.854  10.441  0.1002 -1.0221 -0.6595
  900MOL0     C21409   2.727   7.739  10.416 -0.6811  0.0131 -0.4474
  900MOL0    Cl21410   2.719   7.604  10.541  0.4105  0.2080  0.3855
  900MOL0     C21411   3.843   7.943  10.749 -0.2405  0.1521  0.8249
  900MOL0     C21412   3.986   7.953  10.722  0.5340 -1.0953  0.6995
  900MOL0     O21413   4.174   7.943  10.388  0.0443 -0.3089 -0.2798
  900MOL0     C21414   4.385   8.084  10.319 -0.1012 -0.1426  0.3947
  900MOL0     C21415   4.508   8.144  10.286  0.2724 -0.0898 -0.3088
  900MOL0     N21416   5.090   8.805  10.430 -0.1070 -0.1444 -0.1079
  900MOL0     N21417   5.171   8.863  10.510 -0.6174  0.5991  0.0148
  900MOL0     C21418   6.024   8.773  11.367  0.1698  0.3161 -0.0682
  900MOL0     C21419   6.149   8.815  11.418  0.0841  0.6772 -0.5596
  900MOL0     C21420   6.498   9.065  11.503  0.2483  0.2806 -0.7986
  900MOL0     C21421   6.540   9.007  11.629 -0.4566  0.6524  0.0501
  900MOL0     C21422   6.666   9.024  11.683  0.3534  0.1289  0.0541
  900MOL0     C21423   6.755   9.103  11.604 -0.4065 -0.8724 -0.5893
  900MOL0     O21424   6.874   9.109  11.668 -0.2288  0.1126 -0.0351
  900MOL0     C21425   6.971   9.186  11.591  0.0296  1.0971  1.6612
  900MOL0     C21426   7.112   9.186  11.663 -0.2780 -0.2478  0.7735
  900MOL0     C21427   7.172   9.051  11.678  0.8385  0.2617 -1.0750
  900MOL0     C21428   7.310   9.054  11.724 -0.9948  0.1781 -0.6533
  900MOL0     C21429   7.358   8.915  11.741 -0.3529  0.4098  0.3962
  900MOL0     C21430   7.425   8.814  11.764  1.0927  0.5901  0.3192
  900MOL0     C21431   6.717   9.148  11.477  0.4813  0.1663 -0.8120
  900MOL0     C21432   6.590   9.129  11.429 -0.8523 -0.0980  0.8988
  900MOL0     H21433   6.042   9.099  11.563  0.0213  1.2010 -1.6816
  900MOL0     H21434   5.838   9.043  11.446  0.8363  0.1190 -0.7386
  900MOL0     H21435   5.833   8.681  11.185  1.3576  1.1711 -0.2202
  900MOL0     H21436   5.760   8.602  11.327 -1.2243 -0.4291 -0.7487
  900MOL0     H21437   5.613   8.612  11.124 -2.7937  2.6964 -1.6788
  900MOL0     H21438   5.542   8.668  11.274 -0.6720 -0.8070 -0.0908
  900MOL0     H21439   5.620   8.908  11.187  0.9192  0.0022  0.1952
  900MOL0     H21440   5.664   8.821  11.043  1.5993 -2.0785 -0.3639
  900MOL0     H21441   5.409   8.732  11.059 -1.6466  0.1502 -0.7556
  900MOL0     H21442   5.401   8.863  11.178 -0.0831  0.4067 -0.9636
  900MOL0     H21443   5.333   8.980  10.991 -0.0173  2.4708 -5.2473
  900MOL0     H21444   5.501   9.017  11.021  2.1558 -1.5760  2.2763
  900MOL0     H21445   5.477   9.006  10.777  3.5431 -0.8854 -1.7518
  900MOL0     H21446   5.575   8.885  10.831 -0.1176  0.5069  1.7281
  900MOL0     H21447   5.390   8.726  10.810  0.0815  0.1627 -0.2203
  900MOL0     H21448   5.268   8.853  10.796 -0.9527 -1.1308 -3.8325
  900MOL0     H21449   5.479   8.741  10.602 -0.8915 -0.9022 -2.8753
  900MOL0     H21450   5.429   8.908  10.583 -0.8107 -0.4588  0.8601
  900MOL0     H21451   5.319   8.575  10.493  1.6309  1.6377  3.1236
  900MOL0     H21452   5.048   8.615  10.223  0.9363 -1.6471 -0.7129
  900MOL0     H21453   5.123   8.485  10.324 -3.0601 -2.4214 -1.9913
  900MOL0     H21454   4.861   8.633  10.349 -1.1279 -1.1975 -0.3974
  900MOL0     H21455   4.909   8.561  10.494 -1.0477 -2.7923  0.3391
  900MOL0     H21456   4.911   8.331  10.349  0.3464  0.1471  0.8578
  900MOL0     H21457   4.856   8.441  10.228  1.9684  0.9043  0.7765
  900MOL0     H21458   4.652   8.472  10.357  0.7760  0.1907 -4.7429
  900MOL0     H21459   4.731   8.392  10.497 -1.7384 -3.8894  0.3506
  900MOL0     H21460   4.611   8.236  10.589  2.4950  3.1190 -2.7357
  900MOL0     H21461   4.369   8.087  10.749  2.2182  0.5852  1.3335
  900MOL0     H21462   4.455   8.235  10.747  0.7211 -0.2837 -0.7368
  900MOL0     H21463   4.274   8.235  10.705 -2.5072 -3.1361  0.4470
  900MOL0     H21464   3.950   8.084  10.413 -2.1033  0.5828 -0.6800
  900MOL0     H21465   3.728   8.025  10.448 -2.0460  0.3700  1.2709
  900MOL0     H21466   3.501   8.007  10.512  1.6031 -0.5195 -1.4461
  900MOL0     H21467   3.554   7.835  10.486  1.9096 -1.0785  2.1433
  900MOL0     H21468   3.385   7.783  10.686 -4.6849  0.0674  0.3655
  900MOL0     H21469   3.351   7.953  10.669  3.0348 -0.8092  3.8044
  900MOL0     H21470   3.318   7.751  10.440 -0.5487 -1.6082  1.1053
  900MOL0     H21471   3.269   7.918  10.456  3.0816  0.1108 -0.5930
  900MOL0     H21472   3.189   7.699  10.655  2.2441  0.9576  0.4832
  900MOL0     H21473   3.114   7.859  10.645  0.7236 -0.1845 -0.0623
  900MOL0     H21474   2.971   7.705  10.564  0.2526 -1.1181  0.2684
  900MOL0     H21475   3.070   7.644  10.437  1.2055 -1.9555  1.8808
  900MOL0     H21476   3.025   7.934  10.426 -0.9124  0.4443 -1.1276
  900MOL0     H21477   3.000   7.828  10.296 -0.0048  1.0768  0.1379
  900MOL0     H21478   2.799   7.942  10.388  1.9023 -1.1422 -2.2140
  900MOL0     H21479   2.831   7.883  10.547  0.0101 -0.5731 -0.7843
  900MOL0     H21480   2.748   7.695  10.318  1.3646 -0.4157  0.1370
  900MOL0     H21481   2.626   7.779  10.414 -1.5238 -2.0069 -0.7856
  900MOL0     H21482   3.808   7.901  10.843 -2.3117  0.9090  0.4553
  900MOL0     H21483   4.060   7.949  10.802  0.2744 -1.4393  0.9217
  900MOL0     H21484   4.330   8.022  10.249  0.7892  0.1490 -0.5795
  900MOL0     H21485   4.553   8.126  10.188  3.6869 -1.0276  1.2845
  900MOL0     H21486   6.021   8.678  11.315 -0.7711  0.6731 -0.6769
  900MOL0     H21487   6.236   8.755  11.392 -0.2833 -0.8668  1.5972
  900MOL0     H21488   6.470   8.953  11.692 -1.5680  3.4547  1.4004
  900MOL0     H21489   6.706   8.997  11.780 -1.1826  0.7163  0.8815
  900MOL0     H21490   6.985   9.137  11.494 -1.6104  3.1530  0.3051
  900MOL0     H21491   6.930   9.286  11.575  1.2025  1.5941  1.6277
  900MOL0     H21492   7.103   9.241  11.757 -0.4674  2.1666 -0.5792
  900MOL0     H21493   7.178   9.240  11.594 -0.5930  0.7878  1.2572
  900MOL0     H21494   7.161   8.989  11.589 -1.7226 -1.0765  0.0786
  900MOL0     H21495   7.104   8.996  11.744  2.2585  1.8457  1.9239
  900MOL0     H21496   7.309   9.099  11.823 -3.2654 -1.1753  0.0038
  900MOL0     H21497   7.382   9.109  11.663 -0.9218 -2.0863 -2.7925
  900MOL0     H21498   7.481   8.724  11.767  0.0891 -0.1510 -1.5279
  900MOL0     H21499   6.791   9.194  11.413 -0.7049  0.2253 -2.1746
  900MOL0     H21500   6.570   9.155  11.326  0.6345 -1.4383  0.2148
  901MOL0     O21501   6.763   8.773   1.807 -0.4884 -0.3515  0.2113
  901MOL0     C21502   6.677   8.851   1.824 -0.0660  0.3546  0.4249
  901MOL0     O21503   6.556   8.843   1.759 -0.0365 -0.1859 -0.7136
  901MOL0     C21504   6.512   8.725   1.702 -0.8678  0.5737  0.2432
  901MOL0     C21505   6.404   8.731   1.617 -0.2449  0.1998 -0.5441
  901MOL0     C21506   6.344   8.617   1.559  0.1100  0.6728 -1.0814
  901MOL0     C21507   6.394   8.495   1.582 -0.2497 -0.0300  0.3110
  901MOL0     O21508   6.342   8.373   1.538  0.1841  0.0226 -0.2877
  901MOL0     C21509   6.221   8.371   1.458  0.0769  0.2633 -0.2505
  901MOL0     C21510   6.089   8.377   1.527  1.0215  0.5782  0.2024
  901MOL0     C21511   5.979   8.365   1.426 -0.5634  0.2048 -0.8248
  901MOL0     C21512   5.845   8.306   1.482  0.0799 -0.3558  0.3214
  901MOL0     C21513   5.729   8.323   1.380 -1.4294 -0.0202  0.6052
  901MOL0     C21514   5.614   8.223   1.416  0.0435  0.0782 -0.3899
  901MOL0     C21515   5.509   8.226   1.297  0.2118 -0.3280  0.0733
  901MOL0     C21516   5.409   8.343   1.315  0.1503 -0.5376 -0.5519
  901MOL0     N21517   5.319   8.354   1.200 -1.2877  0.2375  0.0317
  901MOL0     C21518   5.334   8.427   1.089  0.4273  0.0746  0.8705
  901MOL0     C21519   5.222   8.404   1.009 -0.1177 -0.6416 -0.5165
  901MOL0     C21520   5.200   8.450   0.873 -0.6552 -0.1212  1.9701
  901MOL0     C21521   5.064   8.535   0.853 -0.3948 -0.5256 -0.2396
  901MOL0     C21522   4.942   8.447   0.828 -0.6889 -0.2666  0.2924
  901MOL0     C21523   4.820   8.533   0.778 -0.4603 -0.3821 -0.7837
  901MOL0     O21524   4.775   8.623   0.878  0.8413  0.5037 -0.1932
  901MOL0     C21525   4.672   8.703   0.853  0.4533 -0.1649  0.8020
  901MOL0     C21526   4.624   8.764   0.967 -0.5429 -0.0284 -0.0141
  901MOL0     C21527   4.515   8.849   0.975  0.8238 -0.7122 -0.4695
  901MOL0     C21528   4.472   8.899   1.111 -0.0988 -0.5012  0.2240
  901MOL0     C21529   4.444   8.883   0.858 -0.9251  0.6975  0.7083
  901MOL0     C21530   4.338   8.989   0.856  0.0941 -0.0930  0.1181
  901MOL0     O21531   4.272   8.998   0.739  0.1658  0.4151 -0.3391
  901MOL0     C21532   4.162   9.086   0.712  0.4820 -0.0155 -0.3687
  901MOL0     C21533   4.048   9.033   0.661  0.3845  0.0872 -1.1070
  901MOL0     C21534   3.937   9.108   0.648  0.3320  0.7743  1.0791
  901MOL0     C21535   3.942   9.244   0.667  0.0189  0.7656  0.2472
  901MOL0     O21536   3.826   9.311   0.631  0.3489 -0.5285 -0.0180
  901MOL0     C21537   3.819   9.458   0.651  0.7435  0.1460  1.6756
  901MOL0     C21538   3.678   9.511   0.623 -0.2918 -0.3592  0.1706
  901MOL0     C21539   3.675   9.663   0.593  0.6638 -1.3150  0.9315
  901MOL0     C21540   3.545   9.727   0.640 -0.1952 -0.3274  0.3894
  901MOL0     C21541   3.544   9.873   0.609 -0.3981 -0.4678 -0.0238
  901MOL0     C21542   3.400   9.934   0.619 -0.1883 -0.3777 -0.3945
  901MOL0     C21543   3.344   9.959   0.472 -0.4877  0.4148  0.3055
  901MOL0     C21544   3.207  10.019   0.484 -0.0339 -0.8237  0.1065
  901MOL0    Cl21545   3.228  10.188   0.532  0.1285  0.1965 -0.0962
  901MOL0     C21546   4.061   9.307   0.717  0.0690  0.2467  0.5587
  901MOL0     C21547   4.171   9.226   0.743 -0.2331 -0.4028  0.1665
  901MOL0     O21548   4.319   9.062   0.950 -0.3693  0.3569 -0.6174
  901MOL0     C21549   4.486   8.808   0.739 -0.0517 -0.3043  0.2140
  901MOL0     C21550   4.604   8.727   0.729 -0.8577 -0.1679 -1.1157
  901MOL0     N21551   5.148   8.316   1.078  0.8787  0.6663  0.7543
  901MOL0     N21552   5.202   8.284   1.196 -0.9239  0.1007  0.8441
  901MOL0     C21553   6.492   8.482   1.672  0.6129  0.5584  0.5830
  901MOL0     C21554   6.553   8.594   1.733  0.3044  1.0220 -0.0551
  901MOL0     C21555   6.715   8.959   1.913  0.7640 -0.6258 -0.2613
  901MOL0     C21556   6.792   8.935   2.020 -0.2211  0.8346 -0.0667
  901MOL0     C21557   6.811   9.035   2.118  0.0899 -0.0915  1.0312
  901MOL0     C21558   6.750   9.162   2.095 -0.1208  1.2753 -0.7717
  901MOL0     O21559   6.747   9.262   2.192 -0.3560  0.0166 -0.1284
  901MOL0     C21560   6.798   9.249   2.328 -0.7268  0.2931 -0.4341
  901MOL0     C21561   6.691   9.305   2.423  0.4539  0.1637  0.6824
  901MOL0     C21562   6.733   9.274   2.564 -0.3559 -0.0049 -0.8076
  901MOL0     C21563   6.730   9.138   2.614 -0.0762 -0.2032  0.4812
  901MOL0     C21564   6.609   9.063   2.581 -1.7905 -0.3095  0.0527
  901MOL0     C21565   6.503   9.030   2.537 -0.0808  0.2174  0.3630
  901MOL0     C21566   6.677   9.186   1.975 -0.0210 -0.7671 -0.7721
  901MOL0     C21567   6.664   9.084   1.882  0.3310 -0.0611 -0.1011
  901MOL0     H21568   6.340   8.819   1.615  0.1739  0.5038 -0.6186
  901MOL0     H21569   6.255   8.619   1.496 -1.4934  4.9237  0.9841
  901MOL0     H21570   6.206   8.443   1.377 -3.2991 -0.2711 -0.2391
  901MOL0     H21571   6.232   8.279   1.400  1.1739  0.7184 -0.7964
  901MOL0     H21572   6.077   8.291   1.594 -0.3082 -0.6299 -1.4998
  901MOL0     H21573   6.085   8.473   1.580  0.8642 -0.4914  2.2509
  901MOL0     H21574   5.953   8.468   1.398 -3.1944 -0.7544 -2.2796
  901MOL0     H21575   6.010   8.306   1.339 -0.3605  0.7476 -1.1291
  901MOL0     H21576   5.859   8.200   1.505  0.9599 -0.0905  1.0583
  901MOL0     H21577   5.815   8.334   1.583 -4.9337 -3.7657  0.1618
  901MOL0     H21578   5.706   8.430   1.382 -1.8179  0.0680 -2.5324
  901MOL0     H21579   5.773   8.301   1.282 -2.4835  2.1207 -0.4003
  901MOL0     H21580   5.647   8.122   1.446 -1.0488  0.2845  1.7464
  901MOL0     H21581   5.576   8.254   1.514  1.6637  1.6876 -0.2375
  901MOL0     H21582   5.557   8.244   1.200  1.5609 -0.2365  0.7319
  901MOL0     H21583   5.463   8.127   1.298  0.5840 -0.5761 -1.9300
  901MOL0     H21584   5.467   8.433   1.338  3.6695 -3.1701  1.8485
  901MOL0     H21585   5.341   8.323   1.399  0.6797 -0.2371 -0.0468
  901MOL0     H21586   5.418   8.489   1.059  0.5817 -0.3676  0.3725
  901MOL0     H21587   5.283   8.521   0.864  2.6779 -3.8202  0.2040
  901MOL0     H21588   5.203   8.371   0.797 -0.1875  0.3403  1.5010
  901MOL0     H21589   5.076   8.601   0.767 -0.7338 -0.5426 -0.3008
  901MOL0     H21590   5.051   8.597   0.943 -0.8515 -0.4605 -0.3453
  901MOL0     H21591   4.916   8.388   0.917  1.6088  0.5592  1.5968
  901MOL0     H21592   4.973   8.375   0.751 -0.1696 -1.5644  1.6539
  901MOL0     H21593   4.739   8.473   0.735  0.5451 -0.8208 -2.1181
  901MOL0     H21594   4.865   8.590   0.696 -0.1243 -1.1316 -1.1369
  901MOL0     H21595   4.677   8.737   1.058  0.6775 -0.3074 -0.7974
  901MOL0     H21596   4.499   9.004   1.121  1.5961 -0.9116  0.2954
  901MOL0     H21597   4.365   8.880   1.125 -0.1602  0.4709  1.1956
  901MOL0     H21598   4.514   8.847   1.198  0.4084 -1.4491 -0.5626
  901MOL0     H21599   4.040   8.925   0.653 -1.3613  0.2658 -2.3571
  901MOL0     H21600   3.845   9.066   0.607  1.8295 -0.6907 -1.0148
  901MOL0     H21601   3.848   9.482   0.754  0.6890  0.8053  1.5464
  901MOL0     H21602   3.870   9.515   0.573 -2.3984 -1.1558 -1.6498
  901MOL0     H21603   3.629   9.462   0.538 -2.1294 -0.4825  1.2618
  901MOL0     H21604   3.610   9.486   0.704  1.9150  0.1329  2.3096
  901MOL0     H21605   3.680   9.688   0.487  1.9949  1.9416  1.6294
  901MOL0     H21606   3.755   9.719   0.642  2.2093 -1.3668 -1.3671
  901MOL0     H21607   3.467   9.679   0.581  0.9197  0.6403 -2.0131
  901MOL0     H21608   3.528   9.717   0.747 -1.0576  0.9546  0.3906
  901MOL0     H21609   3.590   9.895   0.512 -1.9446  2.2572 -0.2136
  901MOL0     H21610   3.606   9.911   0.691 -0.7758  0.5211 -0.1849
  901MOL0     H21611   3.330   9.864   0.666 -1.8330  0.3169 -1.7115
  901MOL0     H21612   3.412  10.025   0.678  1.8567 -1.5040  1.0458
  901MOL0     H21613   3.331   9.867   0.415  0.8696  1.0564 -1.1062
  901MOL0     H21614   3.407  10.032   0.420 -0.3148 -0.7444 -1.1675
  901MOL0     H21615   3.137   9.974   0.554  1.7715 -0.1116  2.5068
  901MOL0     H21616   3.161  10.014   0.385  1.4555 -0.0318 -0.6653
  901MOL0     H21617   4.071   9.414   0.735 -2.3801  0.9170 -1.4891
  901MOL0     H21618   4.258   9.269   0.792  1.2304 -1.5537 -1.2994
  901MOL0     H21619   4.428   8.817   0.648  2.9498  1.3961 -1.6786
  901MOL0     H21620   4.623   8.655   0.650 -1.7263 -0.7988 -0.7713
  901MOL0     H21621   6.525   8.380   1.691 -1.8593 -0.9560 -2.3867
  901MOL0     H21622   6.631   8.594   1.809  2.2521  0.2947 -1.9360
  901MOL0     H21623   6.835   8.837   2.040  1.0463  1.4442  0.2649
  901MOL0     H21624   6.868   9.012   2.208  0.2516 -0.8521  0.7389
  901MOL0     H21625   6.828   9.148   2.356  2.0032  1.9503  3.5541
  901MOL0     H21626   6.887   9.310   2.348  0.0183 -1.8766  3.9959
  901MOL0     H21627   6.599   9.251   2.398  0.2866  0.6600  0.2150
  901MOL0     H21628   6.667   9.410   2.407  0.3700  0.0278 -0.1533
  901MOL0     H21629   6.655   9.323   2.622  0.1132  1.2334 -1.1681
  901MOL0     H21630   6.830   9.318   2.590  0.3775 -3.0936  2.3628
  901MOL0     H21631   6.756   9.142   2.720  1.9698  0.9093 -0.0122
  901MOL0     H21632   6.823   9.088   2.583  0.6776  1.9364 -0.9028
  901MOL0     H21633   6.403   8.998   2.515  0.8228 -2.1787 -0.6294
  901MOL0     H21634   6.629   9.282   1.959 -2.3492 -1.1807  2.7020
  901MOL0     H21635   6.608   9.102   1.791 -0.8178 -0.0374  0.5888
  902MOL0     O21636   7.762   8.632  11.278  0.6408 -0.3311 -0.5451
  902MOL0     C21637   7.737   8.749  11.292 -0.5791  0.9076  0.5267
  902MOL0     O21638   7.617   8.803  11.298  0.7953  0.1945 -0.0055
  902MOL0     C21639   7.507   8.723  11.287  0.5034  0.0247  0.9664
  902MOL0     C21640   7.481   8.654  11.163  0.2876 -0.3124 -0.2967
  902MOL0     C21641   7.367   8.571  11.149  0.1466 -1.1250 -0.0585
  902MOL0     C21642   7.273   8.566  11.256 -0.6298  0.4013  0.0427
  902MOL0     O21643   7.173   8.488  11.244 -0.0066  0.0905  1.2149
  902MOL0     C21644   7.044   8.551  11.248  1.3489  0.0963  0.2657
  902MOL0     C21645   6.953   8.508  11.126  0.5220 -1.0957  0.0818
  902MOL0     C21646   6.968   8.360  11.097 -0.0804 -0.9990  0.1553
  902MOL0     C21647   6.882   8.304  10.984  0.5736 -0.2026 -0.5841
  902MOL0     C21648   6.842   8.149  10.995 -0.4362 -0.5652 -0.4571
  902MOL0     C21649   6.754   8.108  10.878  0.3741 -0.6028  0.5818
  902MOL0     C21650   6.752   7.966  10.842  0.5340  0.2424  0.2258
  902MOL0     C21651   6.682   7.931  10.712  1.4120  0.4833  0.1211
  902MOL0     N21652   6.604   7.809  10.721 -0.1215  0.2039  0.8160
  902MOL0     C21653   6.651   7.677  10.716  0.4837  0.3872 -0.1279
  902MOL0     C21654   6.533   7.608  10.688  0.3094 -0.2793 -0.9092
  902MOL0     C21655   6.500   7.463  10.687  0.5746  0.2781 -0.0263
  902MOL0     C21656   6.436   7.435  10.545  0.9680 -0.3698 -0.8154
  902MOL0     C21657   6.359   7.299  10.564 -0.4292 -0.4940  0.3075
  902MOL0     C21658   6.287   7.268  10.427  0.0904  0.6138  0.5484
  902MOL0     O21659   6.210   7.143  10.456  0.6084  0.0130 -0.3807
  902MOL0     C21660   6.084   7.156  10.520 -0.0940  0.2792  0.5802
  902MOL0     C21661   6.022   7.038  10.534  0.2170 -0.0496 -0.2530
  902MOL0     C21662   5.895   7.026  10.597  0.2599  0.2101 -1.5244
  902MOL0     C21663   5.844   6.885  10.619 -0.6002 -0.2281 -0.1199
  902MOL0     C21664   5.824   7.141  10.643 -0.1244 -1.0845  0.4974
  902MOL0     C21665   5.700   7.149  10.723 -0.0621 -0.5188 -0.3937
  902MOL0     O21666   5.654   7.275  10.756  0.4481  0.3225  0.1936
  902MOL0     C21667   5.532   7.291  10.814  0.4361 -0.5391  1.0321
  902MOL0     C21668   5.417   7.265  10.743  0.7025 -0.5474 -0.6142
  902MOL0     C21669   5.286   7.268  10.799 -0.1794  0.0627 -0.1542
  902MOL0     C21670   5.267   7.306  10.928  0.5683 -0.6531  0.0605
  902MOL0     O21671   5.137   7.317  10.982 -0.4022  0.2675 -0.7756
  902MOL0     C21672   5.053   7.213  10.951  0.4784  0.1752  0.5860
  902MOL0     C21673   4.929   7.228  11.040  0.7720 -0.1425  0.5405
  902MOL0     C21674   4.818   7.312  10.986 -0.6446  0.5069 -0.1501
  902MOL0     C21675   4.687   7.314  11.062  0.2680  0.5637  0.4697
  902MOL0     C21676   4.575   7.376  10.970 -0.1546  0.0877  0.1122
  902MOL0     C21677   4.457   7.440  11.037 -0.4764 -0.9613 -0.4512
  902MOL0     C21678   4.388   7.361  11.152 -0.6244  0.1772  0.4519
  902MOL0     C21679   4.308   7.233  11.119 -0.3234 -0.0882 -0.0012
  902MOL0    Cl21680   4.187   7.248  10.994 -0.1268 -0.1381  0.1491
  902MOL0     C21681   5.386   7.333  11.004 -0.4117 -0.3431 -0.4348
  902MOL0     C21682   5.515   7.335  10.948 -0.0781 -0.3092 -0.7183
  902MOL0     O21683   5.659   7.040  10.764  0.3762 -0.2575  0.2248
  902MOL0     C21684   5.888   7.265  10.601 -0.0253 -0.1962 -0.9332
  902MOL0     C21685   6.011   7.274  10.544  0.2448  0.3920  0.3609
  902MOL0     N21686   6.421   7.693  10.691  0.7559 -0.3957 -0.0344
  902MOL0     N21687   6.466   7.813  10.704  0.3681  0.0211 -0.0429
  902MOL0     C21688   7.300   8.638  11.375  0.7330 -0.7947  0.2742
  902MOL0     C21689   7.411   8.722  11.383 -0.3602  0.0597  0.4918
  902MOL0     C21690   7.856   8.839  11.289  0.3606  0.3692 -0.6600
  902MOL0     C21691   7.839   8.979  11.315  0.0062  0.1303  0.2884
  902MOL0     C21692   7.949   9.067  11.305  0.1321 -0.7385  0.4444
  902MOL0     C21693   8.077   9.016  11.292  0.9619  0.0531 -0.7231
  902MOL0     O21694   8.181   9.098  11.289 -0.2691 -0.2115  0.1322
  902MOL0     C21695   8.242   9.107  11.418  0.4065 -0.3409  0.4841
  902MOL0     C21696   8.203   9.234  11.480 -0.0070 -0.1235  0.3951
  902MOL0     C21697   8.280   9.252  11.614  0.2080 -0.1731  0.2348
  902MOL0     C21698   8.293   9.398  11.666 -0.1875  0.1659 -0.8501
  902MOL0     C21699   8.371   9.385  11.787  0.2357 -0.0251  0.4997
  902MOL0     C21700   8.441   9.396  11.880 -0.0137 -0.2127  0.1570
  902MOL0     C21701   8.099   8.883  11.270 -0.2210 -0.0342  0.8875
  902MOL0     C21702   7.993   8.791  11.267 -0.1739 -0.1474  0.4827
  902MOL0     H21703   7.554   8.666  11.083  2.3754  0.1829  1.5715
  902MOL0     H21704   7.334   8.511  11.064 -1.8155  0.9917 -0.9224
  902MOL0     H21705   6.986   8.524  11.337  0.6258  0.6349 -0.0317
  902MOL0     H21706   7.059   8.660  11.252  1.1649  0.1146  0.5287
  902MOL0     H21707   6.848   8.528  11.149  1.1240  0.0021  2.0995
  902MOL0     H21708   6.975   8.561  11.032 -3.3246  1.1397  0.2563
  902MOL0     H21709   7.075   8.344  11.078  0.1934 -0.0308  0.8303
  902MOL0     H21710   6.930   8.304  11.183 -0.6226 -0.4560  0.2787
  902MOL0     H21711   6.788   8.360  10.978  0.9739  0.3435 -1.8900
  902MOL0     H21712   6.934   8.321  10.890  0.6642 -0.0820 -0.5121
  902MOL0     H21713   6.939   8.100  10.981  0.9130  1.8162 -0.1330
  902MOL0     H21714   6.804   8.122  11.094 -0.1943  0.6244 -0.0154
  902MOL0     H21715   6.657   8.157  10.876  1.1738  1.0442 -0.9226
  902MOL0     H21716   6.813   8.156  10.798  0.8977 -0.6990  0.9037
  902MOL0     H21717   6.855   7.929  10.836  1.3652  2.4918 -0.3571
  902MOL0     H21718   6.696   7.915  10.921 -1.2379  1.3872 -0.2308
  902MOL0     H21719   6.759   7.924  10.635 -1.1415 -0.8065 -2.5449
  902MOL0     H21720   6.616   8.008  10.670 -0.2054 -0.7603  0.2889
  902MOL0     H21721   6.752   7.639  10.729  1.4527  2.0687 -2.2251
  902MOL0     H21722   6.595   7.412  10.701 -0.5905 -1.2886  3.0377
  902MOL0     H21723   6.439   7.436  10.774  1.2202 -1.9956 -0.2214
  902MOL0     H21724   6.514   7.427  10.469  1.0749  1.2440 -0.8975
  902MOL0     H21725   6.367   7.515  10.521 -2.3874 -1.3596  4.0110
  902MOL0     H21726   6.289   7.311  10.647  1.1619  1.9913  1.4253
  902MOL0     H21727   6.423   7.215  10.591 -0.2517 -0.2304  0.7253
  902MOL0     H21728   6.360   7.248  10.348 -0.9104 -0.4940 -0.1259
  902MOL0     H21729   6.228   7.349  10.382 -1.3814 -2.3723 -3.4568
  902MOL0     H21730   6.076   6.949  10.503 -1.5382  0.0148 -4.2088
  902MOL0     H21731   5.740   6.876  10.586 -0.6920  0.9382 -0.1967
  902MOL0     H21732   5.881   6.813  10.545 -1.4516 -3.6900  2.5389
  902MOL0     H21733   5.868   6.855  10.721  0.6268  0.4793 -0.1851
  902MOL0     H21734   5.423   7.237  10.638 -3.4418  0.0699 -1.1761
  902MOL0     H21735   5.196   7.263  10.738 -0.7035 -1.0823  0.6826
  902MOL0     H21736   5.012   7.197  10.851 -0.6639 -0.5784  1.1531
  902MOL0     H21737   5.100   7.116  10.968  1.6354  0.5047 -0.6189
  902MOL0     H21738   4.896   7.126  11.065 -0.1614 -0.8490 -2.9697
  902MOL0     H21739   4.966   7.265  11.135 -1.2331 -0.0103  1.3209
  902MOL0     H21740   4.793   7.283  10.884  0.0793 -5.2283  0.9657
  902MOL0     H21741   4.850   7.416  10.978 -1.4914  0.7109 -1.1470
  902MOL0     H21742   4.667   7.207  11.072 -3.0612  1.0217 -0.0818
  902MOL0     H21743   4.695   7.352  11.165 -3.2707  0.2867  0.9623
  902MOL0     H21744   4.537   7.297  10.906  1.9544 -2.5231  1.8803
  902MOL0     H21745   4.626   7.453  10.910  1.0457  2.2899  3.6350
  902MOL0     H21746   4.488   7.540  11.068 -1.3494  0.1653 -2.9077
  902MOL0     H21747   4.379   7.472  10.968 -1.1230  1.4831  1.2684
  902MOL0     H21748   4.311   7.433  11.182 -2.1601 -1.5120  0.7375
  902MOL0     H21749   4.458   7.357  11.236  0.7531  2.5396 -0.4862
  902MOL0     H21750   4.262   7.190  11.209  0.2973 -4.6810 -1.6265
  902MOL0     H21751   4.383   7.157  11.097  2.5344  2.2617  0.9092
  902MOL0     H21752   5.358   7.352  11.107 -0.8270 -2.0902 -0.1874
  902MOL0     H21753   5.604   7.349  11.009 -2.0689  0.1971  2.2284
  902MOL0     H21754   5.842   7.362  10.619 -2.0525 -1.1095 -0.9325
  902MOL0     H21755   6.045   7.376  10.527 -0.6926  0.3834 -1.8602
  902MOL0     H21756   7.226   8.621  11.453 -1.9539  2.2029 -1.3865
  902MOL0     H21757   7.449   8.785  11.463 -0.3245  3.7213 -2.1273
  902MOL0     H21758   7.743   9.025  11.338  0.0150 -0.7521  2.3365
  902MOL0     H21759   7.947   9.174  11.321 -1.7399 -0.6831  0.1173
  902MOL0     H21760   8.212   9.019  11.475  0.9293 -0.2200  0.9516
  902MOL0     H21761   8.351   9.107  11.423  0.4273  2.2992  2.0648
  902MOL0     H21762   8.095   9.231  11.498 -0.5779  0.2709 -2.5553
  902MOL0     H21763   8.230   9.320  11.419  1.2287 -1.8883 -1.6871
  902MOL0     H21764   8.378   9.203  11.608  0.7223  0.8314  0.3090
  902MOL0     H21765   8.223   9.198  11.690 -2.0225  2.0325  0.2344
  902MOL0     H21766   8.205   9.458  11.690  1.0141  1.8979 -0.6017
  902MOL0     H21767   8.350   9.461  11.597 -1.5370  0.4166 -1.7701
  902MOL0     H21768   8.485   9.409  11.976 -1.3516  2.6157  0.4896
  902MOL0     H21769   8.199   8.848  11.246 -0.8339  0.3866 -3.0315
  902MOL0     H21770   8.006   8.686  11.242  0.4770  0.3063 -1.2538
  903MOL0     O21771   4.177   7.079  10.160  0.0661  0.5551 -0.1757
  903MOL0     C21772   4.111   7.119  10.258  0.8570  0.1549 -0.2456
  903MOL0     O21773   4.126   7.231  10.328 -0.6697  0.1602  0.3821
  903MOL0     C21774   4.231   7.309  10.286  0.9027 -0.3288  0.5428
  903MOL0     C21775   4.214   7.426  10.207  0.7446  0.3499 -0.2498
  903MOL0     C21776   4.313   7.517  10.183 -0.9908 -0.1614  0.1972
  903MOL0     C21777   4.443   7.499  10.239 -0.7557  0.6705  0.0903
  903MOL0     O21778   4.552   7.581  10.219  0.1533  0.2129 -1.2693
  903MOL0     C21779   4.522   7.717  10.178 -0.0946  0.0149 -0.1787
  903MOL0     C21780   4.545   7.749  10.028 -0.8383  0.3123  0.4556
  903MOL0     C21781   4.678   7.690   9.972 -1.3276 -0.5555 -0.5490
  903MOL0     C21782   4.811   7.752  10.031  0.2278 -0.6391  0.3035
  903MOL0     C21783   4.897   7.807   9.923  0.0906 -0.9626  0.1833
  903MOL0     C21784   4.839   7.923   9.837  0.1127 -0.3941 -0.8374
  903MOL0     C21785   4.900   7.921   9.701  0.0637 -0.1404 -0.7282
  903MOL0     C21786   5.037   7.992   9.698  0.5462 -0.3544  0.1274
  903MOL0     N21787   5.092   7.981   9.564  0.2770 -0.1646 -0.3301
  903MOL0     C21788   5.069   7.881   9.474  1.4896  0.6477  0.1476
  903MOL0     C21789   5.157   7.896   9.376  0.0463 -0.0192  0.4703
  903MOL0     C21790   5.176   7.819   9.245  0.1151  0.5943 -0.1458
  903MOL0     C21791   5.144   7.893   9.120 -0.1503 -0.0144  0.5139
  903MOL0     C21792   5.009   7.953   9.117  0.7532 -0.2446  0.4343
  903MOL0     C21793   4.890   7.859   9.097  0.7790 -0.7244  0.5526
  903MOL0     O21794   4.870   7.769   9.202  0.4860 -0.0943  0.0473
  903MOL0     C21795   4.745   7.774   9.259 -0.0598  0.4227 -1.0716
  903MOL0     C21796   4.714   7.887   9.343  0.2971 -0.1905 -0.1148
  903MOL0     C21797   4.585   7.910   9.413 -0.2375  1.6218 -0.1252
  903MOL0     C21798   4.562   8.034   9.498  0.4612 -0.4233 -0.0994
  903MOL0     C21799   4.496   7.798   9.404  0.2892  0.3127  0.6124
  903MOL0     C21800   4.369   7.802   9.479 -0.3970  0.3558 -0.3977
  903MOL0     O21801   4.264   7.734   9.425  0.3344  0.1104 -0.2727
  903MOL0     C21802   4.140   7.733   9.492  0.3050 -0.2719 -0.2007
  903MOL0     C21803   4.100   7.647   9.594  0.2884  0.3208 -0.0994
  903MOL0     C21804   3.982   7.665   9.665  0.7889 -0.0008 -0.0394
  903MOL0     C21805   3.889   7.766   9.623  0.0416  0.0031 -0.0354
  903MOL0     O21806   3.762   7.781   9.666  0.5326 -0.2655 -1.0338
  903MOL0     C21807   3.710   7.672   9.744  0.1201 -1.0752 -0.4387
  903MOL0     C21808   3.556   7.685   9.749 -0.4520 -0.2889  0.6031
  903MOL0     C21809   3.507   7.806   9.844  0.0922  0.8965  0.1342
  903MOL0     C21810   3.348   7.821   9.831 -0.0870  0.0192 -1.1606
  903MOL0     C21811   3.297   7.904   9.956  0.0719 -0.3706  0.1193
  903MOL0     C21812   3.151   7.952   9.965 -0.3957  0.4644  0.8235
  903MOL0     C21813   3.127   8.029  10.092 -0.0387 -0.4944  0.1248
  903MOL0     C21814   2.980   8.075  10.119 -0.2760  0.8305  0.1080
  903MOL0    Cl21815   2.920   8.193   9.993 -0.4115  0.0266 -0.2237
  903MOL0     C21816   3.924   7.847   9.513 -0.2001  0.3417  0.6138
  903MOL0     C21817   4.053   7.833   9.456  0.3181 -0.1567  0.6254
  903MOL0     O21818   4.372   7.833   9.598  0.3666 -0.3843 -0.2627
  903MOL0     C21819   4.525   7.687   9.327  0.0326 -0.3476  0.4106
  903MOL0     C21820   4.647   7.676   9.252 -0.4962 -0.0287  0.7004
  903MOL0     N21821   5.245   7.998   9.414 -0.0186 -0.2664  0.0012
  903MOL0     N21822   5.217   8.041   9.538  0.1055  0.3303  0.0875
  903MOL0     C21823   4.456   7.397  10.333  0.0662  0.4260  0.1744
  903MOL0     C21824   4.345   7.310  10.365  0.2551 -0.5057  0.2149
  903MOL0     C21825   4.011   7.019  10.314 -0.1323 -0.1278 -0.1155
  903MOL0     C21826   4.030   6.882  10.309  0.5487  1.0478 -0.5876
  903MOL0     C21827   3.954   6.801  10.397  0.1633  0.8709 -0.3943
  903MOL0     C21828   3.849   6.857  10.473 -0.3330  0.5575 -1.1955
  903MOL0     O21829   3.771   6.760  10.548 -0.3604  0.2123  0.7154
  903MOL0     C21830   3.647   6.805  10.610 -1.0140 -0.7390 -0.3471
  903MOL0     C21831   3.524   6.803  10.515 -0.8389  0.1845 -0.2224
  903MOL0     C21832   3.406   6.884  10.575 -0.4446 -0.4364 -0.2565
  903MOL0     C21833   3.419   7.034  10.553 -0.8194 -0.0226  0.1744
  903MOL0     C21834   3.396   7.051  10.406  0.2502  1.0383  0.3456
  903MOL0     C21835   3.385   7.054  10.285 -0.4280 -0.0548 -0.0661
  903MOL0     C21836   3.822   6.991  10.468 -0.1754  0.1609 -0.4706
  903MOL0     C21837   3.908   7.069  10.391 -0.6357 -0.5197 -0.7884
  903MOL0     H21838   4.111   7.447  10.179 -0.0734 -1.2997  1.2947
  903MOL0     H21839   4.288   7.607  10.128 -2.2355  0.3553  1.5267
  903MOL0     H21840   4.421   7.747  10.210 -0.0042 -0.8048  0.9561
  903MOL0     H21841   4.592   7.778  10.236 -0.2843  4.2822 -3.9707
  903MOL0     H21842   4.458   7.705   9.977  0.0752  1.5943 -2.4037
  903MOL0     H21843   4.546   7.855  10.003 -0.6587  0.0531 -0.7015
  903MOL0     H21844   4.676   7.582   9.990 -0.8106 -0.6198 -0.8387
  903MOL0     H21845   4.685   7.681   9.863 -3.3414  0.5938 -0.8244
  903MOL0     H21846   4.789   7.836  10.098 -0.1433  1.2213 -2.0465
  903MOL0     H21847   4.866   7.684  10.097 -1.6146 -0.8724  1.6672
  903MOL0     H21848   4.991   7.841   9.969 -2.3458  2.1722  3.4243
  903MOL0     H21849   4.901   7.723   9.854  1.0448 -0.5523 -0.2908
  903MOL0     H21850   4.733   7.903   9.822 -0.9313  1.3646  2.9935
  903MOL0     H21851   4.832   8.017   9.893  0.8833  0.1555 -1.6404
  903MOL0     H21852   4.908   7.817   9.666 -0.5866 -1.5196  2.7571
  903MOL0     H21853   4.826   7.976   9.644 -1.6228 -2.0632 -0.5201
  903MOL0     H21854   5.108   7.943   9.765  0.2195  0.7980  1.3686
  903MOL0     H21855   5.009   8.091   9.734 -2.6511 -0.4626 -1.7103
  903MOL0     H21856   5.005   7.794   9.466  2.5733 -0.3018  1.3685
  903MOL0     H21857   5.284   7.811   9.234  0.7963  0.5736  4.3912
  903MOL0     H21858   5.127   7.721   9.248  1.8784 -0.2962  1.6444
  903MOL0     H21859   5.141   7.827   9.032 -1.8132 -0.0218  0.5305
  903MOL0     H21860   5.229   7.961   9.111  0.7338 -1.2488 -0.8538
  903MOL0     H21861   5.003   8.012   9.025  1.3222 -0.2974  0.3589
  903MOL0     H21862   4.988   8.014   9.205 -1.0168 -3.1156  2.1414
  903MOL0     H21863   4.909   7.808   9.002 -0.6896  2.7780 -1.8403
  903MOL0     H21864   4.806   7.926   9.076 -0.7102 -2.4564  0.8635
  903MOL0     H21865   4.792   7.962   9.329  0.2608 -0.4709 -2.2095
  903MOL0     H21866   4.460   8.070   9.478  1.3697  1.7329 -1.1643
  903MOL0     H21867   4.584   8.004   9.600 -0.6619 -1.8993 -0.2640
  903MOL0     H21868   4.628   8.118   9.474 -1.5155  1.6171  1.1875
  903MOL0     H21869   4.155   7.556   9.611  1.7495  0.2773 -4.0460
  903MOL0     H21870   3.959   7.597   9.747  0.3104  0.4144  0.1741
  903MOL0     H21871   3.725   7.582   9.683 -0.8437 -1.0538 -0.7318
  903MOL0     H21872   3.761   7.682   9.840  2.9189  1.6531 -2.0128
  903MOL0     H21873   3.521   7.691   9.645  0.2220 -4.5311 -0.0559
  903MOL0     H21874   3.518   7.589   9.786 -0.4141 -0.3939  0.3754
  903MOL0     H21875   3.559   7.892   9.801  0.7002  0.0753 -0.8071
  903MOL0     H21876   3.540   7.789   9.947 -0.4790  0.3207  0.2280
  903MOL0     H21877   3.330   7.874   9.737 -1.3545  3.0725  0.6415
  903MOL0     H21878   3.293   7.727   9.837  0.5842 -0.3928 -1.4676
  903MOL0     H21879   3.356   7.997   9.957  0.8904 -0.8381 -1.3136
  903MOL0     H21880   3.324   7.851  10.048  1.0594 -0.0480  0.0264
  903MOL0     H21881   3.134   8.017   9.879 -0.8094  0.7146  1.0928
  903MOL0     H21882   3.079   7.869   9.961  0.1227  0.0375 -2.2443
  903MOL0     H21883   3.184   8.122  10.082  1.9470 -1.7624 -1.1373
  903MOL0     H21884   3.163   7.968  10.176  0.1361 -2.0040 -0.9932
  903MOL0     H21885   2.959   8.105  10.222  0.7587 -2.2804  1.3259
  903MOL0     H21886   2.911   7.991  10.120 -2.1025  2.2559  0.3144
  903MOL0     H21887   3.842   7.907   9.475  0.9481  0.1722 -2.4117
  903MOL0     H21888   4.078   7.889   9.366 -1.7428  0.4977  0.4149
  903MOL0     H21889   4.456   7.603   9.329 -1.1353  0.5435 -0.6776
  903MOL0     H21890   4.673   7.585   9.201  3.1773  1.3336 -0.1478
  903MOL0     H21891   4.549   7.378  10.386 -0.7507  0.1642  1.5786
  903MOL0     H21892   4.354   7.227  10.434 -1.5964 -2.2145 -1.4658
  903MOL0     H21893   4.112   6.829  10.263  1.0420 -1.5666  2.8863
  903MOL0     H21894   3.987   6.700  10.419  1.5118  1.6979  1.6983
  903MOL0     H21895   3.633   6.750  10.703  0.2321  1.8473  1.5091
  903MOL0     H21896   3.659   6.909  10.643 -0.0915 -0.5971 -1.0677
  903MOL0     H21897   3.496   6.698  10.503 -1.3773 -0.1254  3.0104
  903MOL0     H21898   3.555   6.831  10.414 -1.9400 -0.9920 -0.9181
  903MOL0     H21899   3.397   6.865  10.682 -0.7532  2.8981  0.4134
  903MOL0     H21900   3.316   6.853  10.521 -0.9407  0.5032  0.0024
  903MOL0     H21901   3.512   7.082  10.586 -0.2737  0.9235 -2.4810
  903MOL0     H21902   3.339   7.084  10.608  0.0810  0.1686  1.3483
  903MOL0     H21903   3.369   7.049  10.179 -1.0307 -2.3168  0.0746
  903MOL0     H21904   3.738   7.045  10.510 -0.8772  0.0605 -1.6784
  903MOL0     H21905   3.899   7.175  10.414  0.6675 -0.6512  0.4481
  904MOL0     O21906   9.413   1.581   7.914  0.8317 -0.2092  0.0548
  904MOL0     C21907   9.435   1.462   7.934 -0.3349  0.4174  0.1957
  904MOL0     O21908   9.348   1.354   7.909 -0.9866  0.3762  0.1630
  904MOL0     C21909   9.222   1.365   7.854 -1.3753  0.2783 -0.3449
  904MOL0     C21910   9.172   1.484   7.790 -0.2271  0.6508 -0.3911
  904MOL0     C21911   9.044   1.483   7.727  0.9023  0.8442  0.0525
  904MOL0     C21912   8.978   1.358   7.717  0.0117  0.2855 -0.3332
  904MOL0     O21913   8.858   1.327   7.664  0.0018 -0.2536 -0.0384
  904MOL0     C21914   8.795   1.427   7.592  1.0196 -0.5161 -0.6921
  904MOL0     C21915   8.708   1.523   7.685 -1.2266  0.0449 -0.0007
  904MOL0     C21916   8.560   1.506   7.651  0.7918 -0.2545  0.0238
  904MOL0     C21917   8.463   1.561   7.761 -0.0873 -0.7283 -0.7929
  904MOL0     C21918   8.323   1.518   7.745  0.0876 -1.0203  0.5228
  904MOL0     C21919   8.253   1.565   7.616 -1.3000  0.3515  0.2750
  904MOL0     C21920   8.104   1.585   7.659  0.3780  0.8874 -0.6711
  904MOL0     C21921   8.016   1.599   7.536  1.3675  0.4636  0.2707
  904MOL0     N21922   7.898   1.671   7.571  0.0827 -0.1893 -0.4925
  904MOL0     C21923   7.835   1.687   7.696 -0.3715  0.8176 -0.0177
  904MOL0     C21924   7.727   1.770   7.674 -0.0283  0.2427  0.2751
  904MOL0     C21925   7.630   1.805   7.784  0.1172 -1.3338 -0.2532
  904MOL0     C21926   7.494   1.793   7.740 -0.0761  0.7406 -0.4310
  904MOL0     C21927   7.397   1.812   7.856 -0.0816  0.1952 -0.1992
  904MOL0     C21928   7.256   1.810   7.818  0.7262  0.7982 -1.0048
  904MOL0     O21929   7.170   1.752   7.924 -0.0354  0.1483  0.1835
  904MOL0     C21930   7.036   1.753   7.913  0.0328  0.2579  0.2946
  904MOL0     C21931   6.975   1.686   8.008  0.4225  0.5504 -0.3534
  904MOL0     C21932   6.835   1.691   8.036 -0.8514 -0.1538 -0.2628
  904MOL0     C21933   6.784   1.626   8.161  0.9212 -0.0277 -0.0664
  904MOL0     C21934   6.758   1.776   7.946  1.0391  0.1228 -0.3531
  904MOL0     C21935   6.620   1.819   7.971 -0.3214 -0.1844 -0.2428
  904MOL0     O21936   6.580   1.920   7.899  0.0050 -0.7633 -0.5280
  904MOL0     C21937   6.449   1.956   7.908  0.2364  0.4353 -0.7323
  904MOL0     C21938   6.337   1.874   7.860  0.5918 -0.5084  0.3725
  904MOL0     C21939   6.206   1.921   7.863  0.4188  0.5601  0.9587
  904MOL0     C21940   6.173   2.033   7.933 -0.1999 -0.8427 -1.1740
  904MOL0     O21941   6.045   2.068   7.935 -0.2795 -0.7225 -0.6767
  904MOL0     C21942   5.994   2.162   8.026  0.7881  0.5966 -0.0753
  904MOL0     C21943   5.841   2.160   8.012  0.0510  0.0291  0.8382
  904MOL0     C21944   5.768   2.244   8.111 -0.2912 -0.6273 -0.9343
  904MOL0     C21945   5.730   2.380   8.065  0.3520  0.0474 -0.2460
  904MOL0     C21946   5.646   2.467   8.163 -0.5837  0.0103  0.2687
  904MOL0     C21947   5.537   2.402   8.251 -0.0237 -0.1725 -0.0104
  904MOL0     C21948   5.501   2.500   8.360 -0.1426 -0.1288  0.0673
  904MOL0     C21949   5.359   2.476   8.410  0.7383 -0.6319  0.4108
  904MOL0    Cl21950   5.247   2.489   8.275 -0.3581  0.1293  0.0033
  904MOL0     C21951   6.273   2.113   7.989 -0.2559  0.2242  1.1821
  904MOL0     C21952   6.420   2.075   7.982 -0.0163 -0.3677 -0.5627
  904MOL0     O21953   6.552   1.756   8.054 -0.1844 -0.1866  0.0235
  904MOL0     C21954   6.826   1.833   7.833  0.1298  0.2864 -0.7738
  904MOL0     C21955   6.962   1.825   7.817  0.0193  0.1184 -0.4609
  904MOL0     N21956   7.724   1.791   7.539  0.7428 -0.6934 -0.3597
  904MOL0     N21957   7.820   1.741   7.483  0.0032  0.5217  0.7616
  904MOL0     C21958   9.039   1.242   7.779  0.5281 -0.0992 -0.1778
  904MOL0     C21959   9.147   1.252   7.853  0.5093  0.9910  0.5436
  904MOL0     C21960   9.574   1.429   7.986  0.5683  0.1922  0.4670
  904MOL0     C21961   9.628   1.295   7.996  1.0341  0.1984  0.5530
  904MOL0     C21962   9.756   1.270   8.036 -0.1268  0.1008 -0.2994
  904MOL0     C21963   9.845   1.376   8.063  0.3394 -0.4585 -1.1423
  904MOL0     O21964   9.972   1.340   8.109 -0.0201 -0.1594  0.6922
  904MOL0     C21965  10.074   1.435   8.123 -0.0391 -0.5831  0.1723
  904MOL0     C21966  10.161   1.451   8.003 -0.3054  0.2221 -0.1674
  904MOL0     C21967  10.248   1.330   7.983 -0.0173 -0.2710 -0.0658
  904MOL0     C21968  10.329   1.359   7.863 -0.4575 -0.3828  0.6169
  904MOL0     C21969  10.420   1.250   7.838 -0.3966  0.1391  0.2921
  904MOL0     C21970  10.489   1.159   7.803  0.4436 -0.3195  0.0793
  904MOL0     C21971   9.800   1.507   8.042  0.1324  0.6851 -0.6679
  904MOL0     C21972   9.662   1.534   8.012  0.6866  0.2123  0.1451
  904MOL0     H21973   9.219   1.581   7.802 -0.8984  0.8006  1.3980
  904MOL0     H21974   8.999   1.568   7.678 -2.4207 -1.2067 -0.7831
  904MOL0     H21975   8.868   1.490   7.541  1.9179 -0.0655  1.0675
  904MOL0     H21976   8.738   1.378   7.513  1.3084 -1.2200 -0.4688
  904MOL0     H21977   8.718   1.479   7.785 -2.2411  1.7284  0.8745
  904MOL0     H21978   8.752   1.623   7.692 -0.2883 -0.3240 -0.4086
  904MOL0     H21979   8.546   1.555   7.554 -0.4819 -0.1562  0.2331
  904MOL0     H21980   8.543   1.398   7.642 -1.9702 -0.4618  4.5754
  904MOL0     H21981   8.495   1.517   7.855  0.3303 -0.1194 -0.6485
  904MOL0     H21982   8.483   1.668   7.753  0.2453 -0.7646 -0.4236
  904MOL0     H21983   8.306   1.411   7.752 -0.1171 -1.4747 -3.9208
  904MOL0     H21984   8.276   1.557   7.836  0.0771 -1.8138  0.8635
  904MOL0     H21985   8.300   1.657   7.582 -3.5222  1.8940  1.0768
  904MOL0     H21986   8.266   1.493   7.535 -1.0714  1.1785 -0.4379
  904MOL0     H21987   8.058   1.502   7.715 -2.6121  2.9789  0.2183
  904MOL0     H21988   8.101   1.671   7.727 -3.2358  0.3604  0.0591
  904MOL0     H21989   8.000   1.499   7.494  2.7907 -0.0013  0.7886
  904MOL0     H21990   8.066   1.659   7.460 -1.7802  1.8322 -0.8769
  904MOL0     H21991   7.869   1.645   7.790  3.5900 -0.4663 -1.8169
  904MOL0     H21992   7.643   1.744   7.874  4.2746 -0.8609 -0.3540
  904MOL0     H21993   7.658   1.905   7.818  0.5511 -1.0567 -1.3945
  904MOL0     H21994   7.481   1.690   7.703 -0.8176  0.2253  1.1458
  904MOL0     H21995   7.477   1.859   7.654  0.3361  2.0922  0.4997
  904MOL0     H21996   7.424   1.907   7.904  3.3541  0.1741 -1.8072
  904MOL0     H21997   7.416   1.729   7.925  1.8841 -1.2793 -2.3615
  904MOL0     H21998   7.239   1.744   7.733 -1.0600 -0.1022  0.0030
  904MOL0     H21999   7.221   1.912   7.796  0.9885  1.0391 -0.3420
  904MOL0     H22000   7.041   1.622   8.066 -1.2668 -1.5568 -0.6086
  904MOL0     H22001   6.744   1.703   8.229  2.9281  2.8901 -1.9392
  904MOL0     H22002   6.704   1.554   8.142 -0.3143  1.3579 -0.3697
  904MOL0     H22003   6.868   1.571   8.204  1.0012  0.3189  0.2248
  904MOL0     H22004   6.350   1.782   7.803 -2.2458 -0.0724 -1.1615
  904MOL0     H22005   6.129   1.858   7.821  0.3250  0.1280  1.7662
  904MOL0     H22006   6.016   2.123   8.126  1.9319 -1.8987 -1.2173
  904MOL0     H22007   6.031   2.260   7.996  2.1646  0.2548  0.4613
  904MOL0     H22008   5.822   2.194   7.910 -0.2989  0.9223  1.1931
  904MOL0     H22009   5.806   2.057   8.024  3.8491 -1.3131  2.1410
  904MOL0     H22010   5.820   2.248   8.207 -1.1513 -4.1113 -0.1889
  904MOL0     H22011   5.677   2.196   8.150  0.9398  0.5891  4.1972
  904MOL0     H22012   5.815   2.438   8.028 -0.0658  0.7641 -0.0889
  904MOL0     H22013   5.672   2.358   7.975  0.9357  1.0685 -0.8963
  904MOL0     H22014   5.609   2.554   8.108 -1.9440 -1.9590 -2.1688
  904MOL0     H22015   5.718   2.512   8.232 -0.9480  2.7060 -0.9694
  904MOL0     H22016   5.451   2.379   8.188 -1.1608 -2.6632  2.2636
  904MOL0     H22017   5.568   2.309   8.299 -1.3529  0.0892  1.4336
  904MOL0     H22018   5.482   2.597   8.312 -0.5127 -0.0149  0.4404
  904MOL0     H22019   5.578   2.513   8.436  0.6273  3.0445 -1.0971
  904MOL0     H22020   5.326   2.546   8.487  0.3621  1.2226 -1.3441
  904MOL0     H22021   5.354   2.376   8.455  1.8257 -1.1941 -0.6368
  904MOL0     H22022   6.252   2.208   8.036  4.7526  1.7657  0.9438
  904MOL0     H22023   6.493   2.146   8.020 -3.6287  2.5775  1.6550
  904MOL0     H22024   6.774   1.896   7.761 -0.1743 -0.4812 -1.2316
  904MOL0     H22025   7.007   1.857   7.724 -0.4789 -0.5473 -0.9392
  904MOL0     H22026   8.997   1.142   7.773  0.7908 -0.3552  1.5978
  904MOL0     H22027   9.168   1.159   7.905  1.7088  0.5979 -0.5907
  904MOL0     H22028   9.553   1.218   7.984  0.6654 -0.1226  3.9456
  904MOL0     H22029   9.788   1.171   8.065 -1.8370  0.0688  1.7086
  904MOL0     H22030  10.037   1.535   8.145 -0.2224 -0.5458 -0.2854
  904MOL0     H22031  10.132   1.409   8.213 -0.5600 -1.9789  0.1368
  904MOL0     H22032  10.227   1.535   8.026 -0.1912 -0.2368  1.2944
  904MOL0     H22033  10.105   1.473   7.911 -0.4892 -0.2335 -0.1645
  904MOL0     H22034  10.185   1.242   7.966  3.3197 -2.7009 -0.9071
  904MOL0     H22035  10.308   1.302   8.070  0.5532  1.3946  0.1052
  904MOL0     H22036  10.386   1.450   7.884 -2.4419  0.5261  2.5924
  904MOL0     H22037  10.276   1.387   7.772  0.1443  0.4830  0.5232
  904MOL0     H22038  10.562   1.087   7.771  0.3450 -1.5946  2.5001
  904MOL0     H22039   9.865   1.594   8.050  1.4774 -0.1485 -2.0593
  904MOL0     H22040   9.627   1.636   8.019  1.2985  0.3418  1.9504
  905MOL0     O22041   5.478   5.580   3.252 -0.2270  0.0758 -0.7001
  905MOL0     C22042   5.511   5.566   3.135 -0.2031 -0.2573  0.2375
  905MOL0     O22043   5.423   5.553   3.025  0.2964  0.0522 -0.7312
  905MOL0     C22044   5.290   5.529   3.047  1.0390  0.1776 -1.2813
  905MOL0     C22045   5.249   5.423   2.977 -1.0339  0.1926  0.0104
  905MOL0     C22046   5.118   5.373   2.981 -0.3913  0.2304 -1.4432
  905MOL0     C22047   5.017   5.438   3.052 -0.1989 -0.7361 -0.0252
  905MOL0     O22048   4.889   5.408   3.057  0.1596 -0.2098 -0.4354
  905MOL0     C22049   4.822   5.325   2.961  0.7370  0.0015  0.6715
  905MOL0     C22050   4.682   5.368   2.950  0.3624  0.4273  0.0103
  905MOL0     C22051   4.618   5.329   2.820  0.5196  0.0324  0.2552
  905MOL0     C22052   4.468   5.359   2.823 -0.1951 -0.1899  0.2119
  905MOL0     C22053   4.407   5.363   2.684  0.4535  0.7233 -0.0158
  905MOL0     C22054   4.250   5.321   2.679 -0.2056  0.6218 -1.2574
  905MOL0     C22055   4.170   5.420   2.762 -0.0253 -0.0877 -0.3336
  905MOL0     C22056   4.192   5.571   2.724  0.1734 -0.0214 -0.2404
  905MOL0     N22057   4.111   5.667   2.806  0.0291  0.6554  0.5832
  905MOL0     C22058   3.980   5.654   2.837 -0.3538  0.0780 -1.0456
  905MOL0     C22059   3.948   5.770   2.896  0.7346  0.8189 -0.5727
  905MOL0     C22060   3.809   5.805   2.950 -0.9823  0.0170  0.6759
  905MOL0     C22061   3.715   5.841   2.835  1.1181  0.2293 -0.0805
  905MOL0     C22062   3.589   5.908   2.896 -0.0386 -0.4184  0.1685
  905MOL0     C22063   3.474   5.913   2.794  0.2759 -0.8294  0.7228
  905MOL0     O22064   3.426   5.788   2.747  0.0184 -0.7369 -0.2160
  905MOL0     C22065   3.292   5.764   2.732  0.6286 -0.1141 -0.2864
  905MOL0     C22066   3.199   5.865   2.737  0.3311 -0.3295  0.5917
  905MOL0     C22067   3.068   5.847   2.700  0.6265  0.2126  0.5323
  905MOL0     C22068   2.977   5.975   2.690 -0.4900  0.0765  0.2436
  905MOL0     C22069   3.029   5.711   2.667  0.0039 -0.1674 -0.0096
  905MOL0     C22070   2.896   5.675   2.638 -0.5962 -0.4545 -0.2355
  905MOL0     O22071   2.857   5.702   2.507  0.5356 -0.5290 -0.6396
  905MOL0     C22072   2.738   5.657   2.449 -0.2899  0.4437  0.4738
  905MOL0     C22073   2.654   5.559   2.500 -0.9669 -0.4938 -0.2386
  905MOL0     C22074   2.543   5.529   2.431 -0.2086  0.6606 -0.2069
  905MOL0     C22075   2.510   5.585   2.305  0.4500 -0.2451 -0.5132
  905MOL0     O22076   2.420   5.529   2.221 -0.5588 -0.2294 -0.7656
  905MOL0     C22077   2.385   5.581   2.090 -0.0456  0.7616  0.2757
  905MOL0     C22078   2.280   5.495   2.019  0.6191  0.1613 -0.0894
  905MOL0     C22079   2.146   5.544   2.069 -0.7680  0.5098 -0.1533
  905MOL0     C22080   2.038   5.454   2.014  0.4752 -0.4016 -0.0263
  905MOL0     C22081   1.894   5.522   2.043  0.7047 -0.3886 -0.7647
  905MOL0     C22082   1.863   5.533   2.187 -0.0904 -0.0363 -0.0340
  905MOL0     C22083   1.707   5.540   2.229 -0.0727 -0.1391  0.2246
  905MOL0     C22084   1.636   5.671   2.206 -1.0322 -0.0958 -0.0320
  905MOL0    Cl22085   1.482   5.670   2.296 -0.0687 -0.4821  0.3508
  905MOL0     C22086   2.587   5.690   2.251 -0.4093  0.0657 -0.3330
  905MOL0     C22087   2.699   5.721   2.327 -0.3254  0.6616 -0.2198
  905MOL0     O22088   2.828   5.644   2.732  0.7451  0.3532 -0.4394
  905MOL0     C22089   3.123   5.607   2.667 -0.0839 -1.0685 -0.4935
  905MOL0     C22090   3.255   5.640   2.698  0.3280  0.0458 -1.3808
  905MOL0     N22091   4.062   5.851   2.885  0.2935  0.6014 -0.3933
  905MOL0     N22092   4.151   5.791   2.821 -0.3347 -0.2783 -0.1329
  905MOL0     C22093   5.062   5.557   3.126 -0.0239 -1.0718  0.0734
  905MOL0     C22094   5.199   5.593   3.131 -1.1023 -0.4377 -0.0802
  905MOL0     C22095   5.659   5.558   3.106  0.5044 -1.0877 -0.3252
  905MOL0     C22096   5.756   5.547   3.203 -1.2223  0.3325  0.6348
  905MOL0     C22097   5.893   5.518   3.170 -0.5937 -0.3799 -0.7725
  905MOL0     C22098   5.929   5.513   3.040 -0.0189 -0.5257  0.4250
  905MOL0     O22099   6.063   5.487   3.013  0.2822 -0.1868 -0.1227
  905MOL0     C22100   6.132   5.612   2.959  0.1215  1.0829 -0.4039
  905MOL0     C22101   6.259   5.645   3.024  0.1301  0.1807  0.2264
  905MOL0     C22102   6.378   5.591   2.945 -0.0081 -0.1893 -0.4370
  905MOL0     C22103   6.514   5.615   3.008  0.0455 -0.3621  1.0777
  905MOL0     C22104   6.620   5.528   2.954  0.5437  0.1461 -1.0407
  905MOL0     C22105   6.716   5.476   2.914 -0.9610 -0.4807 -0.9115
  905MOL0     C22106   5.833   5.523   2.938  0.1462  0.3552  0.0446
  905MOL0     C22107   5.695   5.543   2.970  0.7089  0.1938 -0.2627
  905MOL0     H22108   5.324   5.368   2.922  3.0663  1.5687  3.6250
  905MOL0     H22109   5.093   5.284   2.924 -2.8302 -0.2403  0.1969
  905MOL0     H22110   4.872   5.329   2.864  1.3090 -2.0316  0.8406
  905MOL0     H22111   4.830   5.219   2.986  2.2293 -0.3441 -1.0868
  905MOL0     H22112   4.619   5.328   3.030  1.2394  1.4066  1.2231
  905MOL0     H22113   4.679   5.477   2.957  1.6754  0.9385 -4.3181
  905MOL0     H22114   4.656   5.380   2.731  2.5843 -3.4907 -1.0977
  905MOL0     H22115   4.640   5.225   2.794 -0.7478  0.2942 -2.2446
  905MOL0     H22116   4.431   5.273   2.879 -0.5471 -0.5792 -0.6008
  905MOL0     H22117   4.448   5.453   2.875 -1.1324 -0.9869  1.3367
  905MOL0     H22118   4.421   5.461   2.637  1.0098  1.3194  1.3332
  905MOL0     H22119   4.458   5.288   2.623 -0.9817 -0.8598  0.6675
  905MOL0     H22120   4.224   5.306   2.574 -0.1792 -0.3467 -1.1357
  905MOL0     H22121   4.233   5.233   2.742  1.5892  1.5947  0.7254
  905MOL0     H22122   4.066   5.389   2.751 -0.2087  0.2950  0.2586
  905MOL0     H22123   4.191   5.421   2.869 -0.0133  2.0949 -0.3203
  905MOL0     H22124   4.157   5.572   2.620  2.0360  2.1531 -0.9318
  905MOL0     H22125   4.298   5.598   2.720  1.0448 -2.7165  2.0535
  905MOL0     H22126   3.912   5.570   2.846  0.8085 -0.6756  4.6113
  905MOL0     H22127   3.764   5.720   3.002 -1.5435  0.1074  0.3495
  905MOL0     H22128   3.820   5.884   3.025 -0.1413 -0.3672  0.9638
  905MOL0     H22129   3.699   5.749   2.779 -2.7738  0.7751 -0.1773
  905MOL0     H22130   3.767   5.906   2.764 -0.6287 -0.6421 -2.3048
  905MOL0     H22131   3.620   6.005   2.935  1.9447 -0.8541 -0.2007
  905MOL0     H22132   3.551   5.850   2.980 -0.6135 -0.7296 -0.2955
  905MOL0     H22133   3.503   5.979   2.712 -0.0112  0.9380  1.9715
  905MOL0     H22134   3.404   5.970   2.856  1.7853 -0.9194  2.5902
  905MOL0     H22135   3.219   5.969   2.764  1.9113  0.0046 -1.5602
  905MOL0     H22136   2.899   5.966   2.614 -1.5389 -0.5787  1.3621
  905MOL0     H22137   2.925   5.974   2.787 -0.1308 -0.7681  0.4417
  905MOL0     H22138   3.036   6.067   2.688 -1.8604  0.9810  0.0462
  905MOL0     H22139   2.687   5.505   2.588  4.8842  0.1781 -1.6000
  905MOL0     H22140   2.484   5.448   2.473  0.9077 -0.8271 -1.4260
  905MOL0     H22141   2.345   5.682   2.104 -0.8588  0.3871  0.7571
  905MOL0     H22142   2.476   5.581   2.029  0.4757 -0.1857  1.0265
  905MOL0     H22143   2.269   5.516   1.912 -6.2720  0.0684  0.1768
  905MOL0     H22144   2.304   5.389   2.035  3.1209  0.8784  1.5916
  905MOL0     H22145   2.122   5.644   2.030 -1.3511  0.7129  0.6821
  905MOL0     H22146   2.150   5.553   2.178  0.5324  3.4240 -0.3266
  905MOL0     H22147   2.038   5.422   1.909 -1.1593 -1.3091  0.2269
  905MOL0     H22148   2.042   5.358   2.066 -0.9384 -0.9461 -0.8657
  905MOL0     H22149   1.822   5.454   1.996  0.9360 -1.2399  0.0763
  905MOL0     H22150   1.882   5.622   1.999 -0.7910  1.1941  2.7782
  905MOL0     H22151   1.913   5.461   2.252  3.2363  2.0259 -0.0973
  905MOL0     H22152   1.916   5.621   2.225 -1.8994  1.3916 -0.6474
  905MOL0     H22153   1.708   5.511   2.334  1.8263  1.0133  0.5641
  905MOL0     H22154   1.647   5.465   2.177  0.9203 -1.3252  0.7345
  905MOL0     H22155   1.636   5.691   2.098  1.3849  2.5522  0.3490
  905MOL0     H22156   1.697   5.755   2.239  2.2438 -1.2709 -2.5436
  905MOL0     H22157   2.553   5.733   2.158 -2.9329 -2.4445 -0.7049
  905MOL0     H22158   2.769   5.787   2.278 -1.2189  1.0608 -1.0005
  905MOL0     H22159   3.099   5.505   2.639 -1.1327 -0.9826  0.0182
  905MOL0     H22160   3.334   5.567   2.693 -0.1908 -1.2383  3.6753
  905MOL0     H22161   4.982   5.594   3.189 -2.0399 -0.4240 -2.6488
  905MOL0     H22162   5.235   5.677   3.189  0.1915 -1.0462  0.0395
  905MOL0     H22163   5.723   5.537   3.306 -1.7295 -0.4910  0.4038
  905MOL0     H22164   5.978   5.511   3.236 -1.9827  2.2006  1.4964
  905MOL0     H22165   6.146   5.598   2.852 -0.2447  0.2215 -0.3511
  905MOL0     H22166   6.072   5.702   2.970 -0.2680  0.5562  3.0128
  905MOL0     H22167   6.255   5.612   3.128 -1.7464 -1.4537 -0.2993
  905MOL0     H22168   6.276   5.753   3.031  2.9578 -0.2489  1.8560
  905MOL0     H22169   6.370   5.624   2.841 -1.1994  0.8011 -0.0509
  905MOL0     H22170   6.366   5.482   2.937  0.9417 -0.3409  0.0986
  905MOL0     H22171   6.512   5.601   3.116  0.7960 -0.1701  1.1240
  905MOL0     H22172   6.539   5.718   2.981 -0.1533 -1.2736 -3.3679
  905MOL0     H22173   6.804   5.431   2.872  0.5854  1.6592 -0.1416
  905MOL0     H22174   5.859   5.529   2.833 -1.1824 -1.0562 -0.3899
  905MOL0     H22175   5.610   5.532   2.904  0.4042 -0.1427  0.1778
  906MOL0     O22176   6.945   8.475   2.215 -0.4227  0.0883 -0.4672
  906MOL0     C22177   6.965   8.559   2.296 -0.4417  0.0986 -0.4166
  906MOL0     O22178   6.864   8.628   2.353  0.1491 -0.4119 -0.3546
  906MOL0     C22179   6.745   8.633   2.292  0.2871 -0.4492 -0.3014
  906MOL0     C22180   6.681   8.752   2.271  0.6890 -0.1262  0.4092
  906MOL0     C22181   6.566   8.771   2.187 -0.3880 -0.7731 -0.7015
  906MOL0     C22182   6.504   8.658   2.145 -0.4480  0.6353 -0.0742
  906MOL0     O22183   6.389   8.672   2.066  0.3422  0.7498  0.0444
  906MOL0     C22184   6.297   8.567   2.038 -0.2937 -0.1695 -0.5469
  906MOL0     C22185   6.208   8.609   1.914  0.4597  0.4771  0.2120
  906MOL0     C22186   6.069   8.542   1.906 -0.1576  0.7387 -1.2689
  906MOL0     C22187   6.094   8.389   1.908 -0.0767  0.2207 -0.1123
  906MOL0     C22188   5.962   8.308   1.915 -0.1433 -0.9717 -0.0277
  906MOL0     C22189   5.893   8.308   2.051 -0.3158 -0.2905 -0.1459
  906MOL0     C22190   5.747   8.272   2.033 -0.0140  0.2879 -0.0539
  906MOL0     C22191   5.658   8.311   2.161 -0.2560 -0.8798  0.7303
  906MOL0     N22192   5.516   8.310   2.136  0.4488  0.0063  0.0495
  906MOL0     C22193   5.423   8.206   2.161 -0.4802  0.7897 -0.5060
  906MOL0     C22194   5.317   8.236   2.089 -0.6249 -0.1812 -0.6757
  906MOL0     C22195   5.190   8.149   2.099  0.0108 -1.0786 -0.3201
  906MOL0     C22196   5.129   8.166   2.228 -0.1358  0.5630 -0.4853
  906MOL0     C22197   4.993   8.093   2.232  0.1423  0.5016  0.1905
  906MOL0     C22198   5.006   7.944   2.261  0.4670 -0.4064 -0.0642
  906MOL0     O22199   4.900   7.892   2.345 -0.5050  0.2596  0.0962
  906MOL0     C22200   4.784   7.879   2.285 -0.3056 -0.7095  0.6131
  906MOL0     C22201   4.769   7.791   2.185 -0.3274  0.3018 -0.0756
  906MOL0     C22202   4.648   7.760   2.122 -0.1351 -0.2430 -0.9890
  906MOL0     C22203   4.648   7.634   2.037  0.6924  0.6780 -0.1888
  906MOL0     C22204   4.540   7.841   2.155  0.3259  0.0569 -0.4737
  906MOL0     C22205   4.403   7.807   2.114 -0.2472  0.3544  0.1201
  906MOL0     O22206   4.314   7.913   2.137  0.6662 -0.0254 -0.6817
  906MOL0     C22207   4.183   7.898   2.102  0.5657 -0.2950 -0.5882
  906MOL0     C22208   4.143   7.939   1.977 -0.2264  0.6070  0.1084
  906MOL0     C22209   4.009   7.921   1.941  0.2618  0.2301  0.3727
  906MOL0     C22210   3.917   7.869   2.028  0.4575 -0.2096 -0.1972
  906MOL0     O22211   3.782   7.851   1.983 -0.7538 -0.2752  0.3811
  906MOL0     C22212   3.674   7.826   2.079 -0.3500 -0.2454 -1.1470
  906MOL0     C22213   3.540   7.803   2.002  0.0362  0.5139 -0.0284
  906MOL0     C22214   3.486   7.913   1.933 -0.4675 -0.0332 -0.4580
  906MOL0     C22215   3.344   7.887   1.874 -1.1890  0.9637 -0.6360
  906MOL0     C22216   3.309   8.007   1.794  0.0440  0.4132 -0.2437
  906MOL0     C22217   3.182   8.017   1.717 -0.0592 -0.3025 -0.2989
  906MOL0     C22218   3.167   7.916   1.591 -0.2111  0.5702 -0.1524
  906MOL0     C22219   3.044   7.824   1.605  0.1950  0.3528 -0.4767
  906MOL0    Cl22220   2.894   7.919   1.595 -0.1503  0.2216 -0.0817
  906MOL0     C22221   3.957   7.834   2.156  0.6481  0.4013  1.2876
  906MOL0     C22222   4.091   7.843   2.194 -0.1055  0.0239 -0.0988
  906MOL0     O22223   4.370   7.691   2.088  0.1318  0.5789  0.6492
  906MOL0     C22224   4.559   7.951   2.247 -0.4351  0.1829 -0.0152
  906MOL0     C22225   4.678   7.969   2.306 -0.2727 -0.2914  0.2510
  906MOL0     N22226   5.346   8.350   2.008 -0.2422 -0.5449  0.0349
  906MOL0     N22227   5.470   8.386   2.035  0.8595 -0.1358  0.1385
  906MOL0     C22228   6.553   8.528   2.178  0.6133 -0.6083 -0.4308
  906MOL0     C22229   6.671   8.523   2.248  0.0750  0.4016 -0.4506
  906MOL0     C22230   7.112   8.585   2.340 -0.0677  0.4599 -0.1285
  906MOL0     C22231   7.146   8.713   2.375 -0.2917  0.0973 -0.0140
  906MOL0     C22232   7.282   8.747   2.404  0.0813  0.1135 -0.1080
  906MOL0     C22233   7.384   8.643   2.396 -0.0246 -0.4722 -0.2912
  906MOL0     O22234   7.508   8.649   2.432 -0.1495  0.0008  0.6311
  906MOL0     C22235   7.574   8.770   2.462 -0.6633  0.3815 -0.1800
  906MOL0     C22236   7.712   8.737   2.520  0.5087  0.0357  0.0685
  906MOL0     C22237   7.814   8.659   2.428 -0.2652  0.8700 -0.1412
  906MOL0     C22238   7.889   8.736   2.311  0.4753 -0.0343 -0.3892
  906MOL0     C22239   7.790   8.781   2.206  0.8849  0.6792  0.3160
  906MOL0     C22240   7.701   8.797   2.112 -0.4951  1.3938 -0.6575
  906MOL0     C22241   7.346   8.525   2.336  0.0619  0.2413  0.0337
  906MOL0     C22242   7.215   8.496   2.312  0.0028  0.1321  0.4373
  906MOL0     H22243   6.724   8.844   2.309 -0.0286  0.5766 -0.4442
  906MOL0     H22244   6.531   8.864   2.142  0.8961  0.0123 -0.1388
  906MOL0     H22245   6.341   8.469   2.017 -1.2100 -0.1436 -2.8050
  906MOL0     H22246   6.235   8.546   2.125 -0.8883  2.4118 -0.2814
  906MOL0     H22247   6.202   8.717   1.929 -2.6030  0.0278  3.5524
  906MOL0     H22248   6.263   8.578   1.824  0.1479 -1.1399  0.5400
  906MOL0     H22249   6.013   8.581   1.992  0.1864 -1.1987 -0.1067
  906MOL0     H22250   6.027   8.563   1.807 -0.7393  0.4578 -1.0877
  906MOL0     H22251   6.145   8.351   1.819 -0.5308 -0.1565 -0.2158
  906MOL0     H22252   6.155   8.363   1.995 -3.5226  0.3732  2.5645
  906MOL0     H22253   5.893   8.345   1.838 -0.1012  0.9067  0.7778
  906MOL0     H22254   5.987   8.206   1.886  0.6942 -0.3271 -1.7574
  906MOL0     H22255   5.930   8.225   2.112 -1.5995 -0.4583  0.4360
  906MOL0     H22256   5.906   8.398   2.111  1.9687 -0.4211 -0.3655
  906MOL0     H22257   5.705   8.327   1.948  0.3753 -2.2500 -2.0322
  906MOL0     H22258   5.738   8.169   1.999 -1.5257  1.1073 -2.4113
  906MOL0     H22259   5.695   8.413   2.171  2.5786 -1.5685 -1.4758
  906MOL0     H22260   5.675   8.267   2.260  1.1225  0.2149  1.0231
  906MOL0     H22261   5.442   8.112   2.211  0.0977  0.5912 -1.0699
  906MOL0     H22262   5.122   8.183   2.021  0.8314 -2.9186 -1.9139
  906MOL0     H22263   5.211   8.042   2.088 -2.0222 -1.7355  1.3873
  906MOL0     H22264   5.123   8.268   2.267 -0.2605 -0.3019  1.9224
  906MOL0     H22265   5.191   8.117   2.304 -1.3534 -1.6006 -0.7943
  906MOL0     H22266   4.943   8.106   2.136  0.0623  0.0135  0.1648
  906MOL0     H22267   4.935   8.145   2.310 -0.4981 -1.2869  0.9566
  906MOL0     H22268   5.096   7.925   2.321 -1.2625  2.4541  3.8818
  906MOL0     H22269   5.020   7.895   2.164  0.9945  1.6929 -1.1132
  906MOL0     H22270   4.853   7.728   2.156  1.9063  2.3554  1.5765
  906MOL0     H22271   4.571   7.565   2.073  0.3622  1.0387 -0.1881
  906MOL0     H22272   4.611   7.658   1.937 -2.6291  2.1042  1.2208
  906MOL0     H22273   4.739   7.575   2.032 -0.0101 -0.3663 -1.1272
  906MOL0     H22274   4.213   7.981   1.906  0.0968 -0.6171 -0.3148
  906MOL0     H22275   3.987   7.959   1.842  2.0593  2.8642  0.8823
  906MOL0     H22276   3.705   7.743   2.143  4.3334  2.4671  0.6842
  906MOL0     H22277   3.667   7.912   2.147  1.3380  0.3280 -1.6490
  906MOL0     H22278   3.552   7.723   1.928  0.5176  1.2889 -0.8030
  906MOL0     H22279   3.466   7.754   2.066  0.0931 -0.5750 -0.7680
  906MOL0     H22280   3.546   7.938   1.845  0.1240 -0.1049 -0.0800
  906MOL0     H22281   3.482   7.995   2.006  2.6550  1.0702 -1.3749
  906MOL0     H22282   3.358   7.797   1.813  0.3022  1.0713 -0.5022
  906MOL0     H22283   3.274   7.864   1.955 -1.4886 -0.0104 -1.1626
  906MOL0     H22284   3.395   8.016   1.726  0.6114 -3.5461 -0.3452
  906MOL0     H22285   3.318   8.090   1.864  0.4022 -0.7195  1.0937
  906MOL0     H22286   3.104   8.000   1.792  0.2189  0.2606  0.1232
  906MOL0     H22287   3.173   8.122   1.688  1.7351 -0.4983 -1.7352
  906MOL0     H22288   3.258   7.859   1.574 -0.5243 -0.1617  0.5418
  906MOL0     H22289   3.156   7.975   1.500  3.2633 -0.6926 -1.5258
  906MOL0     H22290   3.040   7.788   1.708  0.0699  0.3245 -0.4916
  906MOL0     H22291   3.054   7.734   1.544  0.9864 -2.2356  3.1542
  906MOL0     H22292   3.898   7.785   2.232  2.5126 -1.2875  1.7144
  906MOL0     H22293   4.124   7.817   2.294 -0.3030  0.9228  0.2108
  906MOL0     H22294   4.473   8.012   2.271 -2.7891 -3.1209  0.5530
  906MOL0     H22295   4.683   8.060   2.364  1.2936 -1.2950  1.7971
  906MOL0     H22296   6.496   8.438   2.158 -0.6265  0.2116 -0.6958
  906MOL0     H22297   6.706   8.421   2.264 -0.1231  0.2465 -0.9714
  906MOL0     H22298   7.074   8.795   2.375 -0.2589  0.1413  1.3890
  906MOL0     H22299   7.301   8.849   2.436 -0.1834 -0.9505  4.1462
  906MOL0     H22300   7.592   8.831   2.373  1.6102  0.2219  0.1223
  906MOL0     H22301   7.525   8.833   2.538 -0.9894 -1.1855  0.9583
  906MOL0     H22302   7.693   8.675   2.608  0.6493  1.6046  1.2338
  906MOL0     H22303   7.761   8.830   2.550  0.7174 -0.1489  0.3029
  906MOL0     H22304   7.772   8.568   2.383  2.9998 -2.2879  2.6546
  906MOL0     H22305   7.883   8.617   2.501 -1.7044 -1.4844 -0.0233
  906MOL0     H22306   7.964   8.671   2.265 -1.4946 -2.4649 -0.3857
  906MOL0     H22307   7.938   8.818   2.365  2.2722 -2.4207  1.8762
  906MOL0     H22308   7.657   8.790   2.015 -0.2396 -1.3553 -0.6418
  906MOL0     H22309   7.422   8.449   2.325  0.7796  1.2143 -2.3476
  906MOL0     H22310   7.180   8.401   2.270 -1.1421  1.1273 -0.9612
  907MOL0     O22311   7.619   5.638   5.775 -0.0615  0.4697  0.8105
  907MOL0     C22312   7.609   5.527   5.831  0.1995 -1.2638  1.1595
  907MOL0     O22313   7.712   5.439   5.848  0.2364  0.1941 -0.0595
  907MOL0     C22314   7.838   5.460   5.794  0.0522 -0.3899 -0.8890
  907MOL0     C22315   7.948   5.432   5.866 -0.2675 -0.2870 -0.4458
  907MOL0     C22316   8.079   5.447   5.822 -1.2275 -0.7246 -0.2839
  907MOL0     C22317   8.104   5.499   5.695 -0.0386  0.7606  0.6690
  907MOL0     O22318   8.231   5.496   5.632  0.3204  0.6399  0.0578
  907MOL0     C22319   8.341   5.447   5.708  0.8392 -0.5182  0.4168
  907MOL0     C22320   8.398   5.552   5.795  0.3718  1.4239  0.7224
  907MOL0     C22321   8.521   5.508   5.875  1.0020  0.7100 -0.3152
  907MOL0     C22322   8.641   5.596   5.856 -0.1463 -0.2328  0.8394
  907MOL0     C22323   8.749   5.549   5.949 -0.6831 -1.1838 -0.2490
  907MOL0     C22324   8.871   5.643   5.921  0.5120  0.9890  0.0563
  907MOL0     C22325   8.858   5.793   5.976 -0.0469  0.4801  0.1737
  907MOL0     C22326   8.990   5.848   5.947 -0.0775 -0.7541  0.0478
  907MOL0     N22327   9.013   5.972   6.019 -0.7108  0.4187  0.3141
  907MOL0     C22328   9.036   5.990   6.152  0.2068 -0.5765 -1.1296
  907MOL0     C22329   9.050   6.126   6.168 -0.1189  1.5909  0.6916
  907MOL0     C22330   9.065   6.215   6.282  0.0159 -0.7081  0.5293
  907MOL0     C22331   9.204   6.198   6.356  0.0091 -0.7865 -0.2500
  907MOL0     C22332   9.326   6.213   6.267  0.7748 -0.2582  0.1578
  907MOL0     C22333   9.380   6.102   6.185  0.6704 -0.3183  0.1545
  907MOL0     O22334   9.464   6.008   6.260 -0.2007 -0.5998  0.7599
  907MOL0     C22335   9.410   5.902   6.316  0.5305  0.1852  0.6187
  907MOL0     C22336   9.359   5.803   6.235  1.0408  0.6188  0.6158
  907MOL0     C22337   9.281   5.693   6.279 -0.4669 -0.8767 -0.4535
  907MOL0     C22338   9.241   5.585   6.180  0.4526 -0.3686  0.0848
  907MOL0     C22339   9.237   5.691   6.414 -0.2793 -0.7435  0.6666
  907MOL0     C22340   9.152   5.587   6.469 -0.4500 -0.0305 -0.5134
  907MOL0     O22341   9.058   5.527   6.388  0.0395  1.0418  0.3731
  907MOL0     C22342   8.939   5.478   6.437  0.1178 -1.1290 -0.2078
  907MOL0     C22343   8.826   5.514   6.359 -0.1267 -0.4260  0.5623
  907MOL0     C22344   8.698   5.479   6.395  0.3642  0.3566 -0.1961
  907MOL0     C22345   8.678   5.398   6.514 -0.4153 -0.5005  0.1463
  907MOL0     O22346   8.551   5.358   6.548  0.5160 -0.5971  1.0649
  907MOL0     C22347   8.488   5.411   6.667  0.1258  0.5299  0.5372
  907MOL0     C22348   8.457   5.311   6.767  0.0227  0.4513 -0.4570
  907MOL0     C22349   8.389   5.380   6.890  0.5691 -0.3122 -0.8557
  907MOL0     C22350   8.298   5.281   6.971 -0.9059 -0.7166  0.4154
  907MOL0     C22351   8.152   5.290   6.914 -0.3685 -0.2072 -0.3632
  907MOL0     C22352   8.051   5.204   6.980 -0.1857  0.0699  0.1879
  907MOL0     C22353   7.902   5.245   6.937 -0.7739 -0.2404  0.1264
  907MOL0     C22354   7.797   5.158   6.997 -0.4492 -0.6383 -0.0226
  907MOL0    Cl22355   7.658   5.184   6.888  0.0357  0.2321  0.1092
  907MOL0     C22356   8.786   5.369   6.597 -0.7391  0.6377 -0.2270
  907MOL0     C22357   8.924   5.415   6.561  0.0700 -0.3411  0.2341
  907MOL0     O22358   9.167   5.568   6.594  0.1569 -0.0925 -0.1987
  907MOL0     C22359   9.306   5.782   6.497  0.2411 -0.6932 -0.0897
  907MOL0     C22360   9.391   5.883   6.448  0.1077  0.3856 -0.6167
  907MOL0     N22361   9.048   6.179   6.041  0.2779 -0.5161  0.4770
  907MOL0     N22362   9.025   6.087   5.954 -0.0266  0.7983 -0.2405
  907MOL0     C22363   7.998   5.546   5.622 -0.6184  0.3348  0.1271
  907MOL0     C22364   7.862   5.522   5.667 -0.0602 -0.0825  0.4758
  907MOL0     C22365   7.474   5.488   5.885  0.9164 -0.3743  0.6145
  907MOL0     C22366   7.362   5.574   5.868 -0.1333 -0.6854 -0.5289
  907MOL0     C22367   7.236   5.541   5.917  0.2973 -0.5570 -0.2372
  907MOL0     C22368   7.225   5.422   5.994 -0.3574 -0.2272 -0.8699
  907MOL0     O22369   7.109   5.398   6.066  0.1510 -0.5353 -0.0695
  907MOL0     C22370   7.093   5.305   6.172 -0.1881  0.4154 -0.3729
  907MOL0     C22371   7.020   5.389   6.284  0.3004  0.2872  0.0380
  907MOL0     C22372   6.895   5.468   6.233 -0.6532  0.3762 -0.0101
  907MOL0     C22373   6.788   5.380   6.178 -0.5336  0.3580  0.7089
  907MOL0     C22374   6.690   5.464   6.112  0.1548  0.4215  0.4428
  907MOL0     C22375   6.609   5.537   6.060 -0.2878 -0.1242 -0.2813
  907MOL0     C22376   7.337   5.334   6.015  0.2498 -0.6904  0.1635
  907MOL0     C22377   7.461   5.368   5.954  0.4876  0.4498 -0.6248
  907MOL0     H22378   7.921   5.395   5.964 -0.3470 -0.5015 -0.5468
  907MOL0     H22379   8.162   5.413   5.883  0.6614  1.0673 -1.6951
  907MOL0     H22380   8.328   5.358   5.769  3.5411  0.6195  2.8868
  907MOL0     H22381   8.423   5.420   5.641  0.9938 -1.1737  0.8598
  907MOL0     H22382   8.428   5.641   5.740  0.9264  0.6924 -0.1918
  907MOL0     H22383   8.315   5.567   5.865 -1.1800  1.0353 -0.9407
  907MOL0     H22384   8.486   5.512   5.979 -0.1191  1.4020 -0.6987
  907MOL0     H22385   8.558   5.406   5.856  3.0396  1.1219  1.1289
  907MOL0     H22386   8.668   5.592   5.750 -1.4470 -0.6289  0.5100
  907MOL0     H22387   8.604   5.695   5.886 -2.4262  0.4092 -3.2856
  907MOL0     H22388   8.727   5.551   6.056  2.0174  4.9842  0.6400
  907MOL0     H22389   8.770   5.446   5.919  0.3052 -0.6978 -1.3130
  907MOL0     H22390   8.959   5.588   5.954 -1.4665 -2.3354  0.2468
  907MOL0     H22391   8.879   5.646   5.812  1.2515  0.6855  0.1008
  907MOL0     H22392   8.775   5.843   5.925 -0.6131 -0.1527  0.4608
  907MOL0     H22393   8.840   5.797   6.083  1.8868  1.2005  0.5003
  907MOL0     H22394   9.008   5.866   5.840  1.7874  0.0969  0.4700
  907MOL0     H22395   9.072   5.781   5.974  3.4032  2.8127 -0.8119
  907MOL0     H22396   9.041   5.922   6.237  0.7840  1.1298  0.2474
  907MOL0     H22397   9.055   6.319   6.249  2.8111 -0.0829  1.3205
  907MOL0     H22398   8.990   6.182   6.354 -1.6838 -0.5156 -1.0743
  907MOL0     H22399   9.200   6.101   6.407 -0.3230 -1.1353 -0.9267
  907MOL0     H22400   9.213   6.269   6.439  0.4180  1.9849 -2.4995
  907MOL0     H22401   9.408   6.233   6.336 -0.7675 -3.4792  3.1814
  907MOL0     H22402   9.294   6.295   6.201  1.5952 -1.0660 -1.3040
  907MOL0     H22403   9.450   6.134   6.107  1.4256 -2.0717  0.0553
  907MOL0     H22404   9.292   6.057   6.139 -0.5129  0.4117  1.6135
  907MOL0     H22405   9.378   5.818   6.129  0.5742 -5.2786 -0.6536
  907MOL0     H22406   9.311   5.564   6.098  0.3370 -2.0056  0.3594
  907MOL0     H22407   9.231   5.492   6.236 -0.4002 -1.4727 -1.7890
  907MOL0     H22408   9.139   5.605   6.147  0.3897  0.2272  0.6438
  907MOL0     H22409   8.837   5.565   6.264 -1.2837 -1.1066  0.0378
  907MOL0     H22410   8.610   5.504   6.337 -0.2804 -0.6105  0.3225
  907MOL0     H22411   8.550   5.489   6.710  1.2668 -0.1017  0.0849
  907MOL0     H22412   8.396   5.466   6.644 -0.6756 -0.9137  0.0966
  907MOL0     H22413   8.397   5.227   6.730  0.0865 -1.1902  2.7582
  907MOL0     H22414   8.547   5.259   6.801 -1.4063 -2.2510 -0.5564
  907MOL0     H22415   8.332   5.464   6.852  0.2587 -0.5781 -0.9810
  907MOL0     H22416   8.466   5.420   6.957 -3.4549  1.3614  3.3177
  907MOL0     H22417   8.333   5.179   6.990  1.7042  0.5092  3.1296
  907MOL0     H22418   8.293   5.327   7.070 -1.0387 -0.0633  0.1065
  907MOL0     H22419   8.145   5.258   6.810 -0.1404 -1.1440 -0.0990
  907MOL0     H22420   8.121   5.394   6.901 -1.5905 -0.4053  0.7229
  907MOL0     H22421   8.063   5.100   6.947 -4.2384 -0.5578  0.1988
  907MOL0     H22422   8.054   5.211   7.089 -0.0384 -0.9980  0.2686
  907MOL0     H22423   7.893   5.260   6.829  2.7323  1.1263 -0.1164
  907MOL0     H22424   7.877   5.337   6.990  0.8560  0.2319  0.1388
  907MOL0     H22425   7.781   5.186   7.101  0.5822  1.1549 -0.2973
  907MOL0     H22426   7.840   5.058   6.984  0.4854 -0.2634  0.0771
  907MOL0     H22427   8.779   5.304   6.684  1.1199  1.5753  0.6874
  907MOL0     H22428   9.005   5.395   6.631 -0.0925 -2.2770 -0.0881
  907MOL0     H22429   9.302   5.779   6.605 -0.1110 -0.6108 -0.0966
  907MOL0     H22430   9.436   5.955   6.516  1.6381  0.7979 -2.0053
  907MOL0     H22431   8.024   5.581   5.523 -2.3960  0.7768 -0.2060
  907MOL0     H22432   7.780   5.547   5.601 -0.8054 -3.8460 -0.2332
  907MOL0     H22433   7.367   5.673   5.826  1.6057 -1.4041 -2.1318
  907MOL0     H22434   7.154   5.612   5.907 -0.1417 -1.0303 -0.0501
  907MOL0     H22435   7.037   5.218   6.139  3.0513 -2.1281  0.2767
  907MOL0     H22436   7.184   5.266   6.220  1.6786  1.2833 -2.9915
  907MOL0     H22437   7.093   5.460   6.323 -0.0439  2.1101 -2.4237
  907MOL0     H22438   6.990   5.329   6.371  0.7646  0.1479  0.1074
  907MOL0     H22439   6.927   5.540   6.156  0.0482 -0.3851 -0.4465
  907MOL0     H22440   6.865   5.529   6.318 -1.9055  1.7003 -1.3428
  907MOL0     H22441   6.730   5.333   6.259 -0.8386 -0.1232  0.2150
  907MOL0     H22442   6.833   5.315   6.103 -1.4382 -0.3284  0.7410
  907MOL0     H22443   6.539   5.592   6.000  0.3341 -0.7352 -1.6134
  907MOL0     H22444   7.329   5.241   6.071 -1.3515 -0.6805  0.0140
  907MOL0     H22445   7.543   5.300   5.974 -0.5542 -1.4612 -2.4644
  908MOL0     O22446  10.969   3.387  10.086 -0.6743  0.1586  0.3170
  908MOL0     C22447  11.078   3.408  10.029  0.1835 -0.1975  0.5997
  908MOL0     O22448  11.190   3.417  10.106 -0.0171 -0.0650 -0.5605
  908MOL0     C22449  11.192   3.429  10.240  0.1460  0.5584  0.0086
  908MOL0     C22450  11.218   3.321  10.321 -0.5023 -0.2528  0.4048
  908MOL0     C22451  11.216   3.322  10.462 -0.1234 -0.0083  0.2606
  908MOL0     C22452  11.172   3.443  10.516 -0.7061  0.3044  0.6828
  908MOL0     O22453  11.152   3.435  10.653  0.0630  0.3984 -0.1278
  908MOL0     C22454  11.217   3.549  10.717  0.1087 -0.3611  0.1909
  908MOL0     C22455  11.207   3.538  10.866 -0.3980 -1.1975  1.0603
  908MOL0     C22456  11.224   3.670  10.946 -0.1307  0.6408 -1.5590
  908MOL0     C22457  11.346   3.750  10.905  0.0204 -0.0873 -0.5864
  908MOL0     C22458  11.396   3.850  11.008 -0.0869  0.0457 -0.7920
  908MOL0     C22459  11.509   3.801  11.082  0.0770 -0.0856 -0.2236
  908MOL0     C22460  11.554   3.911  11.183  0.2175  0.2046 -0.2102
  908MOL0     C22461  11.688   3.850  11.236  0.4537  0.9859 -0.3153
  908MOL0     N22462  11.657   3.751  11.345 -0.7553  0.1794  0.7415
  908MOL0     C22463  11.614   3.624  11.337 -0.3439  0.5895  0.5778
  908MOL0     C22464  11.629   3.569  11.464  0.0987 -0.7076 -0.7381
  908MOL0     C22465  11.598   3.429  11.511 -0.4780 -0.4991 -0.6281
  908MOL0     C22466  11.442   3.414  11.538 -0.2664  0.8480  1.0659
  908MOL0     C22467  11.386   3.487  11.663  0.4844 -0.2660 -0.0572
  908MOL0     C22468  11.236   3.478  11.658 -1.0530 -0.4668 -0.4229
  908MOL0     O22469  11.202   3.332  11.672 -0.4590 -0.3066  0.3261
  908MOL0     C22470  11.071   3.300  11.657  0.9298 -0.4450 -0.4523
  908MOL0     C22471  11.044   3.166  11.649 -0.2846 -0.8478  0.0654
  908MOL0     C22472  10.913   3.119  11.636  0.7811  0.1666  0.7973
  908MOL0     C22473  10.891   2.970  11.645 -0.0317  0.2739  0.7145
  908MOL0     C22474  10.806   3.206  11.608 -0.3803  0.5282 -0.1809
  908MOL0     C22475  10.666   3.169  11.574 -0.0128 -0.2484 -0.3265
  908MOL0     O22476  10.567   3.223  11.659  0.6750  0.1563  1.0698
  908MOL0     C22477  10.443   3.177  11.637  0.7674  0.2909  0.1202
  908MOL0     C22478  10.409   3.039  11.669 -0.1052 -0.3626 -0.2778
  908MOL0     C22479  10.278   2.997  11.670 -0.0845 -0.6913 -0.1704
  908MOL0     C22480  10.178   3.087  11.643  0.9535  0.1355 -0.0038
  908MOL0     O22481  10.049   3.039  11.641  0.1769  0.0559 -0.4141
  908MOL0     C22482   9.973   3.085  11.530 -0.6458 -0.3785 -0.8415
  908MOL0     C22483   9.843   3.001  11.510  0.2589 -0.6378 -0.3037
  908MOL0     C22484   9.751   2.995  11.632 -0.0592 -0.4435  0.1452
  908MOL0     C22485   9.631   2.913  11.584  0.3261  0.5999  0.0246
  908MOL0     C22486   9.540   2.926  11.702  1.1365  0.1955 -0.2011
  908MOL0     C22487   9.400   2.855  11.668 -0.1368 -0.4088 -0.9744
  908MOL0     C22488   9.293   2.855  11.780  0.4150  0.4544  0.1864
  908MOL0     C22489   9.152   2.813  11.730  0.2326  0.3555 -0.1527
  908MOL0    Cl22490   9.088   2.930  11.619  0.3928  0.0532 -0.1070
  908MOL0     C22491  10.204   3.218  11.610 -0.1362  0.1756 -0.0522
  908MOL0     C22492  10.333   3.255  11.603  0.2208 -0.1658 -0.2659
  908MOL0     O22493  10.643   3.106  11.468  0.6708 -0.5408 -0.2621
  908MOL0     C22494  10.837   3.344  11.602 -0.1849  0.0419 -0.6901
  908MOL0     C22495  10.969   3.394  11.635  1.0698 -0.2283  0.6586
  908MOL0     N22496  11.683   3.670  11.545  0.1890  0.5104 -0.3784
  908MOL0     N22497  11.707   3.776  11.472 -0.1004  0.0106 -0.5753
  908MOL0     C22498  11.149   3.549  10.442 -0.5603 -1.2493  0.6290
  908MOL0     C22499  11.164   3.547  10.301 -0.2822 -0.8296  0.5377
  908MOL0     C22500  11.094   3.394   9.884  0.2097  0.0147  0.2518
  908MOL0     C22501  10.991   3.451   9.796 -0.5656  0.0771  0.1351
  908MOL0     C22502  11.018   3.458   9.661  0.7124  0.5496  0.0045
  908MOL0     C22503  11.137   3.426   9.597 -0.3372 -0.0205  0.9404
  908MOL0     O22504  11.160   3.460   9.463 -0.2010 -0.6526 -0.0988
  908MOL0     C22505  11.291   3.507   9.428  0.3748  0.0633  0.4268
  908MOL0     C22506  11.296   3.608   9.311 -0.4598  0.8866 -0.6009
  908MOL0     C22507  11.302   3.542   9.167  0.4115 -0.3248 -0.1839
  908MOL0     C22508  11.190   3.448   9.124  1.3344  0.4213  0.4737
  908MOL0     C22509  11.062   3.502   9.149  0.3692 -0.7369  0.2885
  908MOL0     C22510  10.944   3.534   9.145 -0.3189  1.1985 -0.0354
  908MOL0     C22511  11.234   3.372   9.689 -0.2335 -1.0416  0.2984
  908MOL0     C22512  11.218   3.367   9.823  0.8204  0.5817  0.3245
  908MOL0     H22513  11.247   3.225  10.277  1.6785 -0.1279  1.4496
  908MOL0     H22514  11.232   3.231  10.519 -0.1674 -0.0927  0.1393
  908MOL0     H22515  11.321   3.558  10.684 -0.5983  0.5168 -2.0171
  908MOL0     H22516  11.162   3.639  10.687 -3.6815 -1.9001  1.8566
  908MOL0     H22517  11.102   3.512  10.876 -2.5357  5.0642 -0.7692
  908MOL0     H22518  11.258   3.451  10.910 -1.0251 -0.7276  2.7490
  908MOL0     H22519  11.127   3.722  10.949 -2.3197 -3.1248 -0.4700
  908MOL0     H22520  11.235   3.626  11.046  0.9643 -2.3269 -2.8973
  908MOL0     H22521  11.428   3.679  10.889  1.1088  1.1572 -0.8262
  908MOL0     H22522  11.319   3.798  10.810  0.8805 -1.9496 -1.8447
  908MOL0     H22523  11.419   3.953  10.976 -0.2636  0.3261 -0.0328
  908MOL0     H22524  11.316   3.861  11.081  1.0199 -1.1808  0.6653
  908MOL0     H22525  11.483   3.707  11.132  0.2497 -0.6953 -1.2342
  908MOL0     H22526  11.582   3.787  11.001 -1.1256  0.0751 -1.3800
  908MOL0     H22527  11.577   4.000  11.124 -0.5458 -0.0033 -0.8297
  908MOL0     H22528  11.485   3.941  11.262  3.2305 -0.0983  2.8067
  908MOL0     H22529  11.751   3.929  11.276 -1.3275  2.3056  0.0216
  908MOL0     H22530  11.742   3.797  11.157  0.3826 -0.5936  0.6464
  908MOL0     H22531  11.588   3.572  11.246  0.1327 -1.3672  1.4980
  908MOL0     H22532  11.626   3.349  11.441 -1.2416 -2.3234  1.0441
  908MOL0     H22533  11.665   3.407  11.594  1.1816  0.2171 -1.7280
  908MOL0     H22534  11.416   3.309  11.555  1.5796  0.3577  1.1348
  908MOL0     H22535  11.398   3.444  11.442  3.3171  0.2058 -0.9436
  908MOL0     H22536  11.424   3.590  11.659  0.9957 -0.3117  2.1178
  908MOL0     H22537  11.415   3.454  11.763 -2.3643  0.4194  1.0746
  908MOL0     H22538  11.201   3.528  11.567  3.3542 -2.3430 -3.5394
  908MOL0     H22539  11.201   3.531  11.747  1.8346  1.9383 -0.5611
  908MOL0     H22540  11.131   3.102  11.664  1.3724  1.0458 -1.1067
  908MOL0     H22541  10.969   2.916  11.699 -0.3205 -2.0589 -1.0045
  908MOL0     H22542  10.797   2.954  11.698  0.4575  0.4708  1.6623
  908MOL0     H22543  10.877   2.920  11.548 -1.3550 -1.0437  1.5483
  908MOL0     H22544  10.497   2.984  11.702  0.7619  2.3854  2.5369
  908MOL0     H22545  10.251   2.898  11.705 -0.8443  0.3171  2.3531
  908MOL0     H22546   9.956   3.192  11.547  2.5767  0.2951 -1.1669
  908MOL0     H22547  10.024   3.079  11.433  0.0598  1.3825 -0.6227
  908MOL0     H22548   9.790   3.031  11.419 -1.4912  0.1494  0.9158
  908MOL0     H22549   9.878   2.901  11.482  2.3528  0.9792 -4.3073
  908MOL0     H22550   9.721   3.098  11.654  0.0709 -0.2936 -0.3711
  908MOL0     H22551   9.782   2.946  11.725 -2.6344 -0.6208  1.0117
  908MOL0     H22552   9.578   2.944  11.493 -1.3803  1.9435  1.4019
  908MOL0     H22553   9.660   2.809  11.573  0.2978  0.6436 -0.5230
  908MOL0     H22554   9.517   3.030  11.728 -2.7916 -0.2058 -1.4457
  908MOL0     H22555   9.578   2.875  11.791 -0.7965 -1.1491 -0.0925
  908MOL0     H22556   9.346   2.894  11.581 -2.4295 -0.1988  0.4609
  908MOL0     H22557   9.446   2.757  11.648  0.4404 -0.2318 -0.5256
  908MOL0     H22558   9.281   2.951  11.831  0.9818 -0.5982  2.4288
  908MOL0     H22559   9.326   2.783  11.855 -1.0647  0.9078  1.3217
  908MOL0     H22560   9.095   2.794  11.821  1.0527  3.1637  1.0679
  908MOL0     H22561   9.157   2.716  11.680  0.2910 -0.7719  1.9435
  908MOL0     H22562  10.130   3.292  11.584  0.0990 -0.4203 -2.6914
  908MOL0     H22563  10.368   3.357  11.591  1.2787 -0.4960 -0.1439
  908MOL0     H22564  10.765   3.421  11.576  0.6268  1.3348  0.7202
  908MOL0     H22565  10.995   3.499  11.643 -0.8929  0.5241 -1.6432
  908MOL0     H22566  11.107   3.640  10.485  1.7680 -0.2713  0.9484
  908MOL0     H22567  11.127   3.634  10.247  0.6075 -0.5627  0.3425
  908MOL0     H22568  10.898   3.484   9.841 -1.9325 -3.6404  0.3145
  908MOL0     H22569  10.957   3.513   9.590  2.4780  1.6452 -0.7115
  908MOL0     H22570  11.341   3.547   9.517 -1.6520  0.7942  1.2932
  908MOL0     H22571  11.349   3.424   9.388  1.9649  1.7303 -0.9333
  908MOL0     H22572  11.382   3.672   9.333 -0.3572 -0.1282  2.4293
  908MOL0     H22573  11.210   3.676   9.315 -0.9573  0.2464  2.5155
  908MOL0     H22574  11.396   3.486   9.164 -0.0382 -1.0554 -1.0397
  908MOL0     H22575  11.311   3.621   9.092 -0.2931  0.0531  0.1162
  908MOL0     H22576  11.195   3.352   9.175  1.8286  0.3451  0.2902
  908MOL0     H22577  11.206   3.432   9.017  0.2757 -0.8436  0.4967
  908MOL0     H22578  10.842   3.564   9.130  0.0867  2.5345 -0.2854
  908MOL0     H22579  11.334   3.357   9.650  0.5076  0.0106  1.7073
  908MOL0     H22580  11.310   3.353   9.879 -0.1690  3.6932  3.0663
  909MOL0     O22581   2.725   7.959   8.594  0.5449  0.0502  0.1856
  909MOL0     C22582   2.817   8.039   8.577 -1.2643 -0.5107 -1.0894
  909MOL0     O22583   2.925   8.031   8.494 -0.3364  1.0208 -0.9090
  909MOL0     C22584   2.929   7.923   8.417  0.8211  0.8323 -0.9406
  909MOL0     C22585   2.996   7.803   8.445 -0.0047  0.2601  1.0017
  909MOL0     C22586   2.986   7.694   8.351 -0.3592  0.5653 -0.2245
  909MOL0     C22587   2.927   7.715   8.229 -0.2364  0.6165  0.6158
  909MOL0     O22588   2.900   7.605   8.152 -0.5030 -0.1030  1.0286
  909MOL0     C22589   2.782   7.602   8.083 -0.0014 -1.1787  1.2332
  909MOL0     C22590   2.752   7.460   8.028 -0.0738 -0.2709 -0.9862
  909MOL0     C22591   2.863   7.370   7.974  0.7454  0.5177 -0.8451
  909MOL0     C22592   2.949   7.437   7.872  1.0834 -0.2777  0.2834
  909MOL0     C22593   3.056   7.339   7.815 -0.8046 -0.3588  0.3850
  909MOL0     C22594   3.139   7.392   7.701 -0.0043 -0.4517 -0.1069
  909MOL0     C22595   3.249   7.303   7.649  0.5377  0.1416  0.3421
  909MOL0     C22596   3.354   7.383   7.564 -0.4517 -0.0352  0.6762
  909MOL0     N22597   3.415   7.285   7.468 -0.3447 -0.4961 -0.2314
  909MOL0     C22598   3.378   7.273   7.332  0.0358 -0.4064  0.4619
  909MOL0     C22599   3.426   7.148   7.301 -0.3467 -1.0614 -0.4885
  909MOL0     C22600   3.408   7.082   7.169 -0.3414  0.2136 -0.1644
  909MOL0     C22601   3.435   6.931   7.149 -0.1317 -0.2366  0.7909
  909MOL0     C22602   3.402   6.880   7.010  0.1569 -0.1173 -0.8831
  909MOL0     C22603   3.420   6.732   7.014 -0.2361  0.2033  0.7034
  909MOL0     O22604   3.306   6.682   7.087  0.1760  0.2594  0.3547
  909MOL0     C22605   3.189   6.645   7.019  0.3449 -0.9825 -0.8345
  909MOL0     C22606   3.160   6.669   6.886 -0.1487 -0.5238  0.7362
  909MOL0     C22607   3.039   6.624   6.828  0.4426 -0.8661 -0.5335
  909MOL0     C22608   3.027   6.646   6.677  0.4490  0.2682 -0.1769
  909MOL0     C22609   2.936   6.567   6.920  0.5911  0.4640 -0.8737
  909MOL0     C22610   2.791   6.548   6.877 -0.5580  0.5123  0.2813
  909MOL0     O22611   2.706   6.484   6.970 -0.4793  0.5121  0.2058
  909MOL0     C22612   2.583   6.452   6.933  0.5298 -0.4203 -0.2696
  909MOL0     C22613   2.474   6.545   6.908  0.2939 -0.4621  0.2336
  909MOL0     C22614   2.341   6.491   6.885  0.1647 -0.5138  0.5634
  909MOL0     C22615   2.318   6.357   6.879  0.2212 -0.5231  0.1036
  909MOL0     O22616   2.190   6.304   6.847  0.3395 -0.8053 -0.2805
  909MOL0     C22617   2.079   6.377   6.903 -0.2455  0.7788 -0.2789
  909MOL0     C22618   1.959   6.281   6.893  0.2798 -0.9462  0.3185
  909MOL0     C22619   1.919   6.287   6.743 -0.3995 -0.9754 -0.3718
  909MOL0     C22620   1.874   6.141   6.710 -0.0244  0.0785  0.2127
  909MOL0     C22621   1.829   6.114   6.562 -0.9956  0.0371 -0.5859
  909MOL0     C22622   1.805   5.975   6.520 -0.5799  0.3826  0.0283
  909MOL0     C22623   1.659   5.942   6.542 -0.1073 -0.5237  1.0016
  909MOL0     C22624   1.571   6.004   6.429 -0.0413 -0.3133  0.9199
  909MOL0    Cl22625   1.436   5.888   6.420 -0.4921 -0.2962 -0.2035
  909MOL0     C22626   2.423   6.273   6.916 -1.6573  0.2651 -0.3474
  909MOL0     C22627   2.553   6.316   6.934 -0.0601  0.0090 -0.2732
  909MOL0     O22628   2.751   6.596   6.771 -0.8414  0.0514  0.1287
  909MOL0     C22629   2.965   6.550   7.062 -1.5035 -1.3199 -0.2417
  909MOL0     C22630   3.091   6.595   7.106  0.1718  0.4873 -0.3180
  909MOL0     N22631   3.489   7.093   7.404 -1.3594 -0.8457 -0.2582
  909MOL0     N22632   3.478   7.176   7.509 -0.5638  1.2409  0.4719
  909MOL0     C22633   2.879   7.842   8.197  0.9482  1.0729  0.9315
  909MOL0     C22634   2.879   7.947   8.292  1.2705 -0.3938 -0.0357
  909MOL0     C22635   2.811   8.152   8.664  0.7515 -0.0563  0.3208
  909MOL0     C22636   2.713   8.168   8.766 -0.5198  0.5590 -0.1254
  909MOL0     C22637   2.720   8.281   8.839  0.5588 -0.0085  0.1535
  909MOL0     C22638   2.828   8.378   8.820 -0.0136 -0.2460 -0.1478
  909MOL0     O22639   2.841   8.500   8.889  0.2617  0.4231  1.0811
  909MOL0     C22640   2.781   8.495   9.026  0.2599 -0.9955 -0.7511
  909MOL0     C22641   2.832   8.609   9.121 -0.6250 -0.1962  0.7348
  909MOL0     C22642   2.983   8.625   9.113  0.0795 -0.5602 -0.8505
  909MOL0     C22643   3.070   8.524   9.184  0.8457  0.4655 -0.2848
  909MOL0     C22644   3.085   8.560   9.321 -0.2714  0.1344  0.6056
  909MOL0     C22645   3.118   8.583   9.436  0.7728  0.2364 -0.4060
  909MOL0     C22646   2.923   8.353   8.722 -0.9354 -0.4179  0.6443
  909MOL0     C22647   2.918   8.241   8.648  0.0592 -0.0882 -0.3041
  909MOL0     H22648   3.043   7.785   8.540  2.7552  0.5234 -0.2172
  909MOL0     H22649   3.020   7.598   8.387 -0.9339  0.9636  1.4736
  909MOL0     H22650   2.696   7.649   8.130 -1.4492 -0.2617 -2.0112
  909MOL0     H22651   2.801   7.664   7.994 -1.2518  0.0824  1.8139
  909MOL0     H22652   2.692   7.409   8.106 -2.3830  0.0372 -2.4559
  909MOL0     H22653   2.680   7.481   7.948  1.2405  0.3666 -2.0317
  909MOL0     H22654   2.929   7.334   8.054  1.6742  0.3485 -1.6712
  909MOL0     H22655   2.813   7.278   7.941 -0.5294  0.2911  1.5052
  909MOL0     H22656   2.893   7.468   7.783 -0.2287 -0.6027  0.9624
  909MOL0     H22657   3.006   7.519   7.915  2.8790 -0.6557 -1.2351
  909MOL0     H22658   3.124   7.313   7.896 -0.2433 -3.4153 -0.9257
  909MOL0     H22659   3.000   7.249   7.788 -0.7621 -0.3498  0.2661
  909MOL0     H22660   3.073   7.424   7.620 -0.1731 -1.0217 -0.2027
  909MOL0     H22661   3.203   7.473   7.736  3.6757 -1.7027 -3.2576
  909MOL0     H22662   3.299   7.251   7.731 -2.2423 -1.5940  1.0717
  909MOL0     H22663   3.205   7.222   7.589 -0.0680 -0.1497  1.1736
  909MOL0     H22664   3.422   7.426   7.637  0.0694  0.0927  0.1269
  909MOL0     H22665   3.312   7.463   7.502  2.0743  0.8276 -0.0363
  909MOL0     H22666   3.326   7.353   7.282 -0.6081 -0.6503  0.7314
  909MOL0     H22667   3.300   7.084   7.150 -0.3199 -1.8293 -0.7685
  909MOL0     H22668   3.462   7.142   7.096 -0.4061 -1.1564 -1.3916
  909MOL0     H22669   3.379   6.876   7.225 -1.5023 -0.2033 -0.1529
  909MOL0     H22670   3.543   6.927   7.162  0.0907  2.0122  0.0913
  909MOL0     H22671   3.485   6.915   6.946 -1.5555  1.1937 -2.5113
  909MOL0     H22672   3.302   6.910   6.978 -0.2587 -0.0586  0.4373
  909MOL0     H22673   3.509   6.706   7.072 -1.3091 -2.7236  1.1782
  909MOL0     H22674   3.429   6.693   6.913  2.7337 -0.5113  1.1494
  909MOL0     H22675   3.239   6.699   6.818  0.0072 -2.1652  0.1295
  909MOL0     H22676   2.959   6.729   6.656  0.2270  0.0090 -0.5075
  909MOL0     H22677   3.121   6.665   6.624  1.2409 -2.3369  0.1523
  909MOL0     H22678   2.992   6.555   6.627 -1.9480  0.4877  0.9589
  909MOL0     H22679   2.498   6.651   6.907 -0.1094 -0.1963 -4.5722
  909MOL0     H22680   2.271   6.570   6.859  2.5304  0.8424 -2.2891
  909MOL0     H22681   2.099   6.385   7.010 -0.9095 -2.5473  0.1870
  909MOL0     H22682   2.056   6.478   6.867 -0.7817  1.1454  1.0312
  909MOL0     H22683   1.982   6.179   6.926 -0.0492 -0.1170  3.4161
  909MOL0     H22684   1.866   6.309   6.944  0.0521  0.1052 -0.6338
  909MOL0     H22685   1.998   6.317   6.673 -1.2959  0.1834 -0.9317
  909MOL0     H22686   1.847   6.369   6.731 -0.3979 -0.6739  1.3630
  909MOL0     H22687   1.952   6.068   6.734 -0.1862 -0.0931  0.2210
  909MOL0     H22688   1.793   6.114   6.778  2.7128  1.3747  4.3828
  909MOL0     H22689   1.912   6.134   6.494 -1.0003 -1.2105 -0.9796
  909MOL0     H22690   1.751   6.190   6.548  1.5347  3.0162  0.2808
  909MOL0     H22691   1.822   5.954   6.414  0.8338 -0.2423  0.3551
  909MOL0     H22692   1.878   5.907   6.565 -0.5609  1.2745  1.4262
  909MOL0     H22693   1.622   5.988   6.635 -0.2913  0.3093  0.5306
  909MOL0     H22694   1.645   5.834   6.549  3.5118 -1.0904  1.0969
  909MOL0     H22695   1.631   5.993   6.338 -1.4154 -2.3929  0.1827
  909MOL0     H22696   1.537   6.108   6.431  1.7602  0.4429 -2.0916
  909MOL0     H22697   2.406   6.169   6.944  3.6371 -0.1683  2.4340
  909MOL0     H22698   2.636   6.246   6.941 -0.2041 -0.1507 -0.1574
  909MOL0     H22699   2.910   6.509   7.146  1.3020 -1.0928  1.8681
  909MOL0     H22700   3.120   6.563   7.206 -2.7848  0.5364  0.6373
  909MOL0     H22701   2.832   7.862   8.101 -0.7324 -0.0543  1.4750
  909MOL0     H22702   2.826   8.037   8.264  0.0658 -1.4804 -1.4405
  909MOL0     H22703   2.637   8.091   8.774  1.2455 -1.1213  1.8303
  909MOL0     H22704   2.652   8.310   8.918  0.5355  3.7981 -1.0616
  909MOL0     H22705   2.672   8.489   9.018 -0.0486 -1.1464  2.2433
  909MOL0     H22706   2.822   8.405   9.074 -0.8992 -0.8103  0.6665
  909MOL0     H22707   2.825   8.588   9.228 -0.7330 -1.0141  0.5700
  909MOL0     H22708   2.783   8.701   9.089 -0.3667 -0.8729 -1.7747
  909MOL0     H22709   3.006   8.727   9.145 -3.0833  1.6767 -4.7026
  909MOL0     H22710   3.000   8.631   9.005 -2.8235 -2.2565 -1.5213
  909MOL0     H22711   3.176   8.520   9.156  0.7288  0.3037 -0.7111
  909MOL0     H22712   3.017   8.429   9.173 -2.6591  2.0459  1.4778
  909MOL0     H22713   3.139   8.599   9.540  0.6999  0.2687 -0.3964
  909MOL0     H22714   2.999   8.429   8.713 -1.5977  0.0906 -1.0903
  909MOL0     H22715   2.994   8.228   8.571  0.4348  0.5369 -0.0369
  910MOL0     O22716  10.062   2.401   5.677 -0.5620  0.7394  0.3330
  910MOL0     C22717  10.083   2.290   5.731  1.0448  0.0488 -0.0893
  910MOL0     O22718  10.187   2.263   5.814  0.7727  0.0709  0.4362
  910MOL0     C22719  10.299   2.340   5.802  0.2956 -0.2430 -1.3370
  910MOL0     C22720  10.293   2.489   5.811 -0.4412  0.9486 -1.3464
  910MOL0     C22721  10.409   2.563   5.815  0.0716 -0.5469  0.1426
  910MOL0     C22722  10.531   2.505   5.788 -0.3006 -0.0461  0.2569
  910MOL0     O22723  10.636   2.591   5.798 -0.1341 -0.3269  0.4193
  910MOL0     C22724  10.717   2.591   5.684 -0.3017 -0.2082 -0.1510
  910MOL0     C22725  10.854   2.652   5.703  1.3198 -0.6332  0.3725
  910MOL0     C22726  10.940   2.586   5.816 -0.1026  0.4909 -0.4175
  910MOL0     C22727  10.969   2.430   5.806  0.1223  0.4189 -0.3503
  910MOL0     C22728  11.035   2.374   5.933  0.0980  0.2232 -0.5594
  910MOL0     C22729  10.961   2.395   6.062  0.4111  0.8799 -0.2999
  910MOL0     C22730  11.034   2.337   6.185  0.5781  0.1158 -0.3385
  910MOL0     C22731  10.949   2.340   6.310  0.3167  0.0764 -0.3364
  910MOL0     N22732  10.914   2.206   6.353  0.9358  0.4202 -0.0172
  910MOL0     C22733  10.794   2.147   6.305  0.2359 -0.3212 -0.0607
  910MOL0     C22734  10.795   2.023   6.356 -0.2493 -0.0999 -0.6981
  910MOL0     C22735  10.689   1.926   6.345 -0.3777  0.2856  0.4276
  910MOL0     C22736  10.621   1.923   6.475 -0.5139 -0.1763  0.5129
  910MOL0     C22737  10.513   1.809   6.473 -0.4233  0.0367 -0.3286
  910MOL0     C22738  10.411   1.844   6.576  1.0273 -0.0156 -0.8041
  910MOL0     O22739  10.286   1.768   6.558  0.3539 -0.2083 -0.7501
  910MOL0     C22740  10.183   1.795   6.637 -0.0385 -0.2479 -0.0068
  910MOL0     C22741  10.069   1.722   6.614  0.8297 -0.1137  0.3326
  910MOL0     C22742   9.952   1.736   6.686 -0.1059  0.1403 -0.3961
  910MOL0     C22743   9.822   1.650   6.662  0.1587 -0.4346  0.2667
  910MOL0     C22744   9.951   1.826   6.799  0.1347  0.5760  0.2757
  910MOL0     C22745   9.836   1.853   6.887  0.3179  0.2570 -0.4894
  910MOL0     O22746   9.739   1.760   6.903  0.3261 -0.7663 -0.7572
  910MOL0     C22747   9.619   1.804   6.951 -0.0831  0.3302  0.1749
  910MOL0     C22748   9.525   1.868   6.854  0.1257 -0.4341 -0.0767
  910MOL0     C22749   9.409   1.920   6.903 -0.2888 -0.7225 -0.2937
  910MOL0     C22750   9.366   1.909   7.035  0.6420  0.6690  0.5575
  910MOL0     O22751   9.235   1.936   7.077 -0.5643  0.9900  0.4870
  910MOL0     C22752   9.156   2.028   6.993 -0.5330  0.7584  0.2274
  910MOL0     C22753   9.034   2.077   7.064 -0.2017 -1.3476  0.4641
  910MOL0     C22754   8.918   1.976   7.064  0.3068 -1.3032 -0.3281
  910MOL0     C22755   8.846   1.957   6.929 -0.9535 -0.2654  0.3516
  910MOL0     C22756   8.718   1.875   6.929 -0.3343 -0.6190 -1.6100
  910MOL0     C22757   8.597   1.965   6.930 -0.0302 -0.0596 -0.8809
  910MOL0     C22758   8.462   1.894   6.975  0.0919 -0.3766 -0.0411
  910MOL0     C22759   8.349   2.006   6.975 -0.5523  0.1378  0.8014
  910MOL0    Cl22760   8.264   2.004   6.821  0.5109  0.2994 -0.3629
  910MOL0     C22761   9.457   1.858   7.127  0.1833 -0.0796 -1.6550
  910MOL0     C22762   9.590   1.817   7.095  0.2015  0.4648  1.0508
  910MOL0     O22763   9.849   1.954   6.961 -0.4264  0.0427  0.6634
  910MOL0     C22764  10.069   1.894   6.826 -0.1119  0.3698 -0.2985
  910MOL0     C22765  10.183   1.880   6.747 -0.4391 -0.1612 -0.3234
  910MOL0     N22766  10.909   2.013   6.432  1.0726  0.6650  0.4508
  910MOL0     N22767  10.980   2.115   6.432 -0.0112 -0.2788 -0.4373
  910MOL0     C22768  10.541   2.366   5.777 -0.5335 -0.0061  0.7815
  910MOL0     C22769  10.425   2.277   5.778  0.4952 -0.4278  0.2897
  910MOL0     C22770   9.966   2.196   5.726 -0.2402  0.8399  0.0487
  910MOL0     C22771   9.850   2.224   5.643 -0.1241  0.0416  0.4631
  910MOL0     C22772   9.752   2.124   5.626  1.2097 -0.4559 -0.1569
  910MOL0     C22773   9.764   2.001   5.691  0.6380  0.3138  0.3478
  910MOL0     O22774   9.674   1.894   5.676 -0.2984  0.0115 -0.2815
  910MOL0     C22775   9.548   1.922   5.617 -0.6482 -0.0819 -0.2888
  910MOL0     C22776   9.449   1.809   5.633  0.4012  0.0941  0.2736
  910MOL0     C22777   9.419   1.782   5.780 -0.0303  0.0772 -0.4161
  910MOL0     C22778   9.311   1.669   5.789  0.2894 -0.1422  0.2884
  910MOL0     C22779   9.350   1.545   5.716  0.3503 -0.4431 -0.2826
  910MOL0     C22780   9.371   1.455   5.641 -0.6372 -0.5921 -0.0923
  910MOL0     C22781   9.874   1.980   5.774 -0.6314  0.3324 -0.0664
  910MOL0     C22782   9.970   2.074   5.793 -0.3734 -0.5250 -0.8674
  910MOL0     H22783  10.200   2.541   5.835  0.4007  2.6809 -1.6353
  910MOL0     H22784  10.397   2.670   5.825 -0.8657 -0.6023 -0.2824
  910MOL0     H22785  10.731   2.489   5.647 -0.8644  0.0001 -0.9814
  910MOL0     H22786  10.675   2.658   5.608  1.3146  0.9215 -0.1044
  910MOL0     H22787  10.899   2.632   5.606 -0.7994 -0.0362 -0.7963
  910MOL0     H22788  10.854   2.760   5.725  3.2117 -0.0432 -2.0924
  910MOL0     H22789  11.021   2.655   5.841 -1.4957  1.7513  0.8566
  910MOL0     H22790  10.865   2.605   5.893 -0.6337  0.5719 -0.9390
  910MOL0     H22791  10.874   2.380   5.784 -0.0276  0.4481  0.2152
  910MOL0     H22792  11.038   2.405   5.725  1.4177  2.7225 -0.0620
  910MOL0     H22793  11.049   2.267   5.916 -0.5299 -0.1295  0.9486
  910MOL0     H22794  11.134   2.419   5.945 -0.2111  0.1962  5.3890
  910MOL0     H22795  10.956   2.504   6.072 -1.7902  0.8738 -0.8986
  910MOL0     H22796  10.860   2.354   6.070  0.6803  0.6560  3.0956
  910MOL0     H22797  11.056   2.233   6.156 -3.5937 -0.5564 -1.7722
  910MOL0     H22798  11.132   2.382   6.202  0.7099  0.6424 -2.2231
  910MOL0     H22799  10.865   2.410   6.305 -0.3811 -0.6782  0.5642
  910MOL0     H22800  11.016   2.385   6.385  0.2845  0.7959 -0.7303
  910MOL0     H22801  10.717   2.204   6.252 -0.5720 -0.8830  0.4917
  910MOL0     H22802  10.623   1.958   6.264  1.4051  1.2938 -0.7134
  910MOL0     H22803  10.741   1.833   6.323 -2.7569 -1.1596  0.6201
  910MOL0     H22804  10.573   2.019   6.494 -2.2913 -1.1670  1.3940
  910MOL0     H22805  10.698   1.921   6.552 -0.4365  1.4784  0.4938
  910MOL0     H22806  10.564   1.713   6.488  0.2951  0.2055 -1.5687
  910MOL0     H22807  10.468   1.820   6.374  2.0488  0.5138 -1.4782
  910MOL0     H22808  10.384   1.949   6.563  1.3922  0.1970  0.1012
  910MOL0     H22809  10.444   1.824   6.678 -1.9918 -0.1203  0.2683
  910MOL0     H22810  10.066   1.661   6.524 -2.6054  0.0336  0.2109
  910MOL0     H22811   9.744   1.726   6.649  1.0726  0.1857 -2.0338
  910MOL0     H22812   9.839   1.588   6.573 -0.8683  2.4794 -2.1577
  910MOL0     H22813   9.802   1.586   6.748 -0.5196 -1.2799 -0.5007
  910MOL0     H22814   9.541   1.873   6.747  1.5082  1.2902  0.1627
  910MOL0     H22815   9.332   1.960   6.837 -0.0773 -2.1577 -1.4645
  910MOL0     H22816   9.215   2.109   6.950  1.4128 -1.0913 -0.7793
  910MOL0     H22817   9.119   1.975   6.904  0.4393 -0.4403  0.5137
  910MOL0     H22818   9.057   2.097   7.169  1.0087 -3.1463  0.5933
  910MOL0     H22819   9.012   2.173   7.017  0.5417 -0.3893  2.0098
  910MOL0     H22820   8.846   2.022   7.132  1.6208 -1.0471  0.9337
  910MOL0     H22821   8.953   1.878   7.098  0.2178 -1.2558 -0.1001
  910MOL0     H22822   8.825   2.056   6.888  0.0186  0.1827  0.9088
  910MOL0     H22823   8.925   1.910   6.868  0.9688  1.2159  1.5708
  910MOL0     H22824   8.720   1.810   7.017 -2.2713  2.9171  1.2945
  910MOL0     H22825   8.709   1.809   6.842  0.6085  0.9901 -2.9792
  910MOL0     H22826   8.616   2.047   7.001  2.1201 -0.6957 -0.6529
  910MOL0     H22827   8.587   2.012   6.832  4.6984  0.4393 -1.3399
  910MOL0     H22828   8.476   1.852   7.075 -2.1968 -0.5962  0.2372
  910MOL0     H22829   8.427   1.822   6.901 -2.8814  1.5613 -0.6765
  910MOL0     H22830   8.398   2.102   6.988 -1.2872  0.6763 -0.2954
  910MOL0     H22831   8.280   1.975   7.054 -1.2970 -0.3713 -0.0287
  910MOL0     H22832   9.422   1.848   7.229  1.0315 -0.4703 -1.3912
  910MOL0     H22833   9.667   1.778   7.161  0.9089 -3.9460 -1.9380
  910MOL0     H22834  10.070   1.959   6.913 -0.7630  1.2576 -0.9382
  910MOL0     H22835  10.271   1.938   6.772 -0.1571 -0.0667 -1.4665
  910MOL0     H22836  10.643   2.335   5.756 -0.6675  0.4796 -0.7122
  910MOL0     H22837  10.432   2.169   5.764 -1.4119 -0.4834 -0.4570
  910MOL0     H22838   9.837   2.318   5.590  3.2288  1.9704  2.7096
  910MOL0     H22839   9.674   2.147   5.553 -0.1253 -0.1952  1.3060
  910MOL0     H22840   9.496   2.006   5.662 -1.8729  0.2308 -2.2170
  910MOL0     H22841   9.568   1.929   5.510  1.3790 -1.3408 -0.0597
  910MOL0     H22842   9.492   1.720   5.586  1.6605  0.8483 -0.0674
  910MOL0     H22843   9.350   1.829   5.592  0.2046  0.4466  0.9122
  910MOL0     H22844   9.376   1.875   5.819  2.0402  1.7138 -1.7876
  910MOL0     H22845   9.503   1.764   5.847 -1.3441 -2.1288  0.7449
  910MOL0     H22846   9.214   1.703   5.751 -0.4903 -0.4700  1.8940
  910MOL0     H22847   9.293   1.636   5.892  1.4420 -4.4073 -0.6492
  910MOL0     H22848   9.401   1.378   5.573 -2.6147  0.2339 -2.0458
  910MOL0     H22849   9.883   1.894   5.839 -1.6314  0.2192 -0.0688
  910MOL0     H22850  10.047   2.037   5.860 -2.5333 -1.5101  1.2152
  911MOL0     O22851   9.652   3.302   2.892  0.0102 -0.9087 -0.6916
  911MOL0     C22852   9.579   3.220   2.843 -0.2610  0.1256 -0.7366
  911MOL0     O22853   9.623   3.112   2.767 -0.2499  0.0656 -0.2332
  911MOL0     C22854   9.754   3.068   2.754 -0.5536 -0.3427  0.7389
  911MOL0     C22855   9.853   3.076   2.855 -0.3432 -0.1252  0.0229
  911MOL0     C22856   9.990   3.033   2.841 -0.4666  0.4104 -0.6457
  911MOL0     C22857  10.033   2.992   2.718  1.1244  0.6442 -0.2343
  911MOL0     O22858  10.158   2.953   2.687  0.3660 -0.5111 -0.0396
  911MOL0     C22859  10.276   2.994   2.764  0.5627  0.0710 -0.4291
  911MOL0     C22860  10.395   2.944   2.680 -0.0843 -0.8503 -0.4324
  911MOL0     C22861  10.412   3.031   2.556 -0.0316 -0.8071  1.2688
  911MOL0     C22862  10.529   3.005   2.472  0.7270  0.1535  0.0326
  911MOL0     C22863  10.670   3.068   2.510  0.0040  0.0923  0.0696
  911MOL0     C22864  10.755   3.074   2.386  0.1536  0.2119 -0.9607
  911MOL0     C22865  10.896   3.145   2.415  0.9473 -0.9291 -0.1223
  911MOL0     C22866  10.981   3.052   2.507 -0.4291 -0.1882 -0.7663
  911MOL0     N22867  11.057   2.945   2.436  0.2215 -0.1755 -0.0030
  911MOL0     C22868  11.022   2.814   2.443 -0.0875  0.2151  0.0933
  911MOL0     C22869  11.103   2.750   2.359  1.2920  0.2346 -0.6183
  911MOL0     C22870  11.097   2.594   2.330  0.1173 -0.0265  0.2206
  911MOL0     C22871  10.963   2.523   2.363  0.4238  0.8554  1.0244
  911MOL0     C22872  10.855   2.563   2.256  0.2343 -0.0212 -0.3345
  911MOL0     C22873  10.854   2.473   2.135 -0.0972 -0.1812  0.0256
  911MOL0     O22874  10.827   2.337   2.171 -0.0424 -0.3169 -0.0488
  911MOL0     C22875  10.701   2.300   2.215 -0.1998  0.3602  0.5029
  911MOL0     C22876  10.692   2.198   2.315 -0.0476 -0.0670 -0.4138
  911MOL0     C22877  10.557   2.164   2.370  0.6590  0.3541 -0.2673
  911MOL0     C22878  10.554   2.081   2.492 -0.3767  0.3995 -0.3912
  911MOL0     C22879  10.441   2.221   2.310 -0.0556 -0.2284 -0.2565
  911MOL0     C22880  10.303   2.218   2.370 -0.0804  0.3064 -0.7363
  911MOL0     O22881  10.199   2.242   2.294  0.3758 -0.1174  1.0400
  911MOL0     C22882  10.077   2.244   2.369 -0.8071  0.1072  1.2628
  911MOL0     C22883   9.962   2.182   2.309 -0.0359 -0.3536 -0.3386
  911MOL0     C22884   9.833   2.197   2.363  0.2271 -0.8626 -0.8780
  911MOL0     C22885   9.816   2.261   2.490  0.6255 -1.0067 -0.2345
  911MOL0     O22886   9.690   2.254   2.560 -0.1867  0.2781  0.0607
  911MOL0     C22887   9.685   2.275   2.699  0.6032 -0.6302  0.6525
  911MOL0     C22888   9.544   2.228   2.746 -0.6828  0.1886  0.1156
  911MOL0     C22889   9.426   2.310   2.693  0.9912 -0.3557 -0.1575
  911MOL0     C22890   9.311   2.309   2.786  0.2199 -0.3698 -0.2713
  911MOL0     C22891   9.202   2.404   2.734 -0.7276  0.4495 -0.5103
  911MOL0     C22892   9.078   2.413   2.827  0.1711  0.1918 -0.3726
  911MOL0     C22893   8.990   2.283   2.805 -1.1502 -0.7102  0.2671
  911MOL0     C22894   8.852   2.297   2.862  0.7680 -0.9161 -0.1342
  911MOL0    Cl22895   8.743   2.423   2.794 -0.3134 -0.3942 -0.1741
  911MOL0     C22896   9.933   2.323   2.548  0.1679 -0.2420  0.1467
  911MOL0     C22897  10.052   2.318   2.490 -0.9278  0.1873  0.7112
  911MOL0     O22898  10.292   2.185   2.486  0.3107 -0.2000  1.0595
  911MOL0     C22899  10.458   2.313   2.204  0.2778 -0.9261  0.3968
  911MOL0     C22900  10.585   2.354   2.156 -0.4173 -0.4603  0.3492
  911MOL0     N22901  11.189   2.842   2.301  0.2570 -0.3264 -0.0172
  911MOL0     N22902  11.156   2.961   2.345  0.6479 -0.0137  0.6189
  911MOL0     C22903   9.937   2.978   2.622 -0.3164 -0.0090 -0.8789
  911MOL0     C22904   9.807   3.015   2.632  0.4274  0.0327 -0.5185
  911MOL0     C22905   9.430   3.226   2.861  0.5424 -0.2708  0.6784
  911MOL0     C22906   9.373   3.317   2.945  0.2227  0.0561 -0.0136
  911MOL0     C22907   9.234   3.317   2.977  0.4895 -0.3707 -0.2070
  911MOL0     C22908   9.153   3.213   2.929  0.2436 -0.0808 -0.2642
  911MOL0     O22909   9.018   3.200   2.956 -0.2107 -0.3043 -0.0883
  911MOL0     C22910   8.962   3.253   3.080  0.3377 -0.1525 -0.9675
  911MOL0     C22911   8.808   3.226   3.102 -0.0067  0.9169 -0.1296
  911MOL0     C22912   8.765   3.079   3.057  0.3287  0.1799  0.2985
  911MOL0     C22913   8.624   3.057   3.125 -0.9837  0.2180  0.4754
  911MOL0     C22914   8.593   2.918   3.100  0.0258 -0.9809 -0.9166
  911MOL0     C22915   8.574   2.796   3.091  0.2275 -0.1575  0.2527
  911MOL0     C22916   9.209   3.125   2.842  0.6210  0.4157 -0.8431
  911MOL0     C22917   9.347   3.125   2.809  0.3265 -0.2022 -0.8745
  911MOL0     H22918   9.817   3.115   2.950 -1.7871 -1.1001 -0.0794
  911MOL0     H22919  10.056   3.033   2.928 -0.4242 -0.6233 -0.6630
  911MOL0     H22920  10.272   3.103   2.774  0.1025  0.1628 -1.5073
  911MOL0     H22921  10.279   2.950   2.864 -1.3644  3.5285  1.3371
  911MOL0     H22922  10.483   2.941   2.745 -1.0576 -0.8293  0.9274
  911MOL0     H22923  10.371   2.840   2.657 -0.6726 -1.3259  2.0533
  911MOL0     H22924  10.318   3.018   2.501  0.2016 -1.4534  1.0170
  911MOL0     H22925  10.422   3.139   2.569  0.1003 -0.6301 -0.1356
  911MOL0     H22926  10.547   2.897   2.465 -0.5845  0.0196 -3.0429
  911MOL0     H22927  10.502   3.034   2.370  1.8112 -1.6551 -0.8229
  911MOL0     H22928  10.665   3.166   2.559  0.8185  0.5718 -0.7694
  911MOL0     H22929  10.709   2.997   2.584 -0.9784  0.3481  0.8569
  911MOL0     H22930  10.781   2.972   2.355 -0.0518 -0.3143  0.5002
  911MOL0     H22931  10.698   3.133   2.315  2.8391  2.5371 -1.3799
  911MOL0     H22932  10.947   3.169   2.321  0.1034 -1.0941 -0.6345
  911MOL0     H22933  10.879   3.238   2.468  1.1598 -2.1109  2.1481
  911MOL0     H22934  10.937   3.005   2.595  1.4224  2.6169  1.8742
  911MOL0     H22935  11.055   3.121   2.549  0.1224 -1.6581  0.8036
  911MOL0     H22936  10.941   2.783   2.507 -0.6921  1.2986 -0.1208
  911MOL0     H22937  11.111   2.580   2.222 -3.1394 -0.5073 -0.2423
  911MOL0     H22938  11.170   2.533   2.384 -1.5616 -3.2602 -0.8612
  911MOL0     H22939  10.931   2.552   2.463 -0.7913  0.0301  0.8850
  911MOL0     H22940  10.974   2.414   2.367 -1.1937  0.5082 -1.6507
  911MOL0     H22941  10.854   2.669   2.229  2.6053  0.2210  0.3288
  911MOL0     H22942  10.757   2.565   2.306 -0.6668  4.7192 -1.7379
  911MOL0     H22943  10.954   2.477   2.091  0.1243 -2.1931  0.2807
  911MOL0     H22944  10.777   2.512   2.068 -0.5736  0.6906  1.0326
  911MOL0     H22945  10.779   2.151   2.361 -0.2984 -1.3428 -1.1942
  911MOL0     H22946  10.470   2.011   2.489  0.8265 -1.2128  1.2498
  911MOL0     H22947  10.647   2.027   2.508 -0.3333  0.5449 -0.1393
  911MOL0     H22948  10.528   2.146   2.576 -0.9809 -0.5071  0.1465
  911MOL0     H22949   9.970   2.113   2.226  1.1775 -0.2377 -0.3386
  911MOL0     H22950   9.744   2.153   2.320 -0.2090 -0.5518 -0.2932
  911MOL0     H22951   9.763   2.220   2.753  1.5950  0.7265  0.6516
  911MOL0     H22952   9.703   2.382   2.709 -1.3801 -0.1196 -0.6618
  911MOL0     H22953   9.536   2.125   2.709 -0.3601  0.7126 -1.4699
  911MOL0     H22954   9.539   2.229   2.855 -1.2874  0.8137  0.0951
  911MOL0     H22955   9.395   2.270   2.596  0.7387 -0.5931  0.0173
  911MOL0     H22956   9.468   2.411   2.694 -0.3947  0.3587  3.8184
  911MOL0     H22957   9.268   2.211   2.805 -2.7065  0.6451 -1.0807
  911MOL0     H22958   9.351   2.342   2.883 -1.3856  1.7078 -0.2188
  911MOL0     H22959   9.177   2.392   2.629 -0.4093  0.1853 -0.5586
  911MOL0     H22960   9.247   2.503   2.749 -0.3951 -0.0747  2.8687
  911MOL0     H22961   9.119   2.419   2.928 -2.8095 -0.7895  1.0290
  911MOL0     H22962   9.020   2.503   2.805 -2.6997 -0.7382  2.5013
  911MOL0     H22963   9.048   2.198   2.841  0.2760  0.6509  1.3044
  911MOL0     H22964   8.985   2.271   2.697 -1.8459 -1.1807  0.3452
  911MOL0     H22965   8.844   2.301   2.971  0.1091 -0.8393 -0.1812
  911MOL0     H22966   8.792   2.209   2.837 -0.2811 -0.0563 -0.7544
  911MOL0     H22967   9.925   2.362   2.649  0.0095  0.3382 -0.0849
  911MOL0     H22968  10.136   2.363   2.542 -1.2690  0.7242  0.7958
  911MOL0     H22969  10.377   2.377   2.171  1.3094 -0.0776 -0.6104
  911MOL0     H22970  10.595   2.413   2.066  0.2114 -0.3522  0.4859
  911MOL0     H22971   9.973   2.952   2.524 -0.0664  3.2553 -1.7849
  911MOL0     H22972   9.744   3.017   2.544  0.9786 -3.3107 -1.1033
  911MOL0     H22973   9.431   3.400   2.984 -0.6583 -0.9578  3.9313
  911MOL0     H22974   9.193   3.397   3.037 -0.2665  0.4969 -1.8443
  911MOL0     H22975   9.009   3.206   3.166 -2.2920 -2.5853 -0.7388
  911MOL0     H22976   8.968   3.361   3.100 -1.8140 -0.2703  0.6685
  911MOL0     H22977   8.750   3.300   3.046  0.6352  1.2963 -0.2903
  911MOL0     H22978   8.792   3.221   3.210  0.4317 -2.6419 -0.1143
  911MOL0     H22979   8.838   3.003   3.086 -1.1337 -1.4978 -0.2979
  911MOL0     H22980   8.760   3.079   2.947 -0.7643 -1.6777  0.3148
  911MOL0     H22981   8.543   3.124   3.096 -0.8471  0.2635  0.2009
  911MOL0     H22982   8.646   3.067   3.232  3.0103  0.6249 -0.2583
  911MOL0     H22983   8.554   2.691   3.093 -0.6163  0.0119  1.0436
  911MOL0     H22984   9.143   3.048   2.803 -0.0142 -0.3944  1.6296
  911MOL0     H22985   9.378   3.049   2.737  0.3327 -0.0406 -1.0440
  912MOL0     O22986   0.971   4.841   6.388  0.2922 -0.9133 -0.1203
  912MOL0     C22987   0.907   4.926   6.448 -0.5477  0.7887 -0.6991
  912MOL0     O22988   0.800   5.003   6.408 -0.0849 -0.6970 -0.6354
  912MOL0     C22989   0.772   4.994   6.280  1.0734 -0.0769  0.5078
  912MOL0     C22990   0.681   4.899   6.234  0.1562  0.1726  0.5378
  912MOL0     C22991   0.647   4.883   6.103  0.1367  0.6803  0.2333
  912MOL0     C22992   0.693   4.983   6.013  0.5650  0.3130 -0.6328
  912MOL0     O22993   0.637   4.992   5.884  0.1235 -0.4745  0.0829
  912MOL0     C22994   0.598   4.868   5.825  0.3151  0.6576 -0.8262
  912MOL0     C22995   0.547   4.901   5.679  0.4681 -0.3391 -0.2183
  912MOL0     C22996   0.530   4.774   5.596  0.2285  0.1641 -0.3773
  912MOL0     C22997   0.430   4.792   5.483 -0.3111  0.3664  0.4780
  912MOL0     C22998   0.407   4.654   5.411  0.8647 -0.3844 -1.4601
  912MOL0     C22999   0.284   4.669   5.320 -0.1418 -0.0021  0.0695
  912MOL0     C23000   0.282   4.565   5.218 -0.1796  0.3565 -0.3124
  912MOL0     C23001   0.137   4.570   5.151  0.0469 -1.0639 -0.2349
  912MOL0     N23002   0.092   4.451   5.085 -0.4862  0.4442  0.0975
  912MOL0     C23003   0.135   4.402   4.966 -0.3699  0.0135 -0.0241
  912MOL0     C23004   0.044   4.307   4.927  0.8285 -0.7876  1.3639
  912MOL0     C23005   0.054   4.231   4.806 -0.2520 -0.2049  1.3887
  912MOL0     C23006  -0.080   4.171   4.756 -0.1445 -0.0970  0.4188
  912MOL0     C23007  -0.049   4.110   4.621  0.1654  0.1480  0.5481
  912MOL0     C23008  -0.162   4.026   4.557 -0.3257 -0.3873  0.5969
  912MOL0     O23009  -0.276   4.118   4.554  0.6548  1.1420 -0.6962
  912MOL0     C23010  -0.380   4.079   4.474  0.7361  0.8393 -0.0229
  912MOL0     C23011  -0.399   3.960   4.411 -1.0089  0.3963  0.4173
  912MOL0     C23012  -0.507   3.940   4.327  0.2600  1.0673  0.5807
  912MOL0     C23013  -0.520   3.804   4.257  0.7603  0.8605  0.0861
  912MOL0     C23014  -0.602   4.044   4.293 -0.5714  0.8501  0.5623
  912MOL0     C23015  -0.706   4.043   4.189  1.2701  0.8811 -0.2998
  912MOL0     O23016  -0.755   4.168   4.155 -0.0502 -0.2074 -0.1033
  912MOL0     C23017  -0.835   4.182   4.044  0.6970 -0.1174 -0.4196
  912MOL0     C23018  -0.796   4.278   3.948 -0.2080 -0.2493  0.0298
  912MOL0     C23019  -0.863   4.295   3.828 -0.3492 -0.4682  0.3774
  912MOL0     C23020  -0.981   4.229   3.800 -0.9622 -0.2838 -0.3244
  912MOL0     O23021  -1.035   4.246   3.675 -0.1903  0.1908  0.1230
  912MOL0     C23022  -1.073   4.387   3.665 -0.5238 -0.0330 -0.0035
  912MOL0     C23023  -1.088   4.416   3.516  0.3099 -0.4869 -0.2742
  912MOL0     C23024  -1.230   4.388   3.456  0.1860 -0.0228  0.5231
  912MOL0     C23025  -1.307   4.263   3.492  0.0573 -0.2406 -0.5558
  912MOL0     C23026  -1.458   4.298   3.469  0.7307  0.0913 -0.0074
  912MOL0     C23027  -1.558   4.185   3.490 -0.4586 -0.0116  0.1438
  912MOL0     C23028  -1.547   4.134   3.639 -1.0269 -0.0370 -0.3397
  912MOL0     C23029  -1.655   4.028   3.655 -0.3299 -0.4418  0.6083
  912MOL0    Cl23030  -1.669   3.984   3.829  0.2451  0.2733  0.0974
  912MOL0     C23031  -1.032   4.142   3.909 -0.0493 -0.2315  0.0842
  912MOL0     C23032  -0.955   4.111   4.024 -0.6155  0.0872  0.5080
  912MOL0     O23033  -0.753   3.931   4.145 -0.5618  0.5340 -0.2397
  912MOL0     C23034  -0.579   4.162   4.364 -0.5405  0.0851 -0.0804
  912MOL0     C23035  -0.472   4.179   4.450  0.7478 -1.1623 -0.0885
  912MOL0     N23036  -0.052   4.302   5.021  0.3415  0.6735  0.3058
  912MOL0     N23037  -0.019   4.371   5.120  0.1901 -0.4270 -0.7817
  912MOL0     C23038   0.767   5.088   6.059 -0.1069 -0.8767  0.5145
  912MOL0     C23039   0.814   5.088   6.186  0.4480  0.2233 -0.1138
  912MOL0     C23040   0.928   4.922   6.597  0.2383  0.8308  0.2497
  912MOL0     C23041   0.924   5.045   6.668 -0.6357  0.4239  0.1400
  912MOL0     C23042   0.935   5.047   6.805 -0.3381  0.3652  0.2983
  912MOL0     C23043   0.942   4.932   6.890 -0.9710 -0.2951 -0.3691
  912MOL0     O23044   0.940   4.943   7.024 -0.6994 -0.1325 -0.4887
  912MOL0     C23045   0.815   4.916   7.073  0.6866 -1.3729 -0.8297
  912MOL0     C23046   0.809   4.797   7.167  0.0304 -0.4868  0.2536
  912MOL0     C23047   0.908   4.796   7.279 -0.0863  0.2661 -0.5601
  912MOL0     C23048   0.880   4.704   7.390  0.4410  0.3736  1.1564
  912MOL0     C23049   0.860   4.564   7.344 -0.3682 -0.1028 -0.8666
  912MOL0     C23050   0.855   4.455   7.310  0.3313  0.1510  0.4011
  912MOL0     C23051   0.955   4.808   6.824 -0.1947 -0.4344  0.3786
  912MOL0     C23052   0.948   4.804   6.682 -0.4126  1.0939 -0.0266
  912MOL0     H23053   0.640   4.824   6.301  0.5519 -0.6679 -0.1348
  912MOL0     H23054   0.611   4.782   6.082  1.2665  0.2970  0.0816
  912MOL0     H23055   0.676   4.792   5.818 -1.6528 -1.4000 -1.5331
  912MOL0     H23056   0.518   4.824   5.885  1.0593 -1.4425 -1.3117
  912MOL0     H23057   0.458   4.963   5.690  0.9382  0.3943 -0.4927
  912MOL0     H23058   0.614   4.968   5.625  0.4051 -0.3293 -0.2848
  912MOL0     H23059   0.631   4.751   5.558 -0.1399  0.3013 -1.4689
  912MOL0     H23060   0.512   4.688   5.661  1.2871 -2.1369 -2.8624
  912MOL0     H23061   0.332   4.820   5.524 -0.6588  0.8447 -0.6499
  912MOL0     H23062   0.458   4.860   5.402 -0.6826 -0.7173 -0.5744
  912MOL0     H23063   0.491   4.628   5.346  2.0370  1.5506 -0.7971
  912MOL0     H23064   0.378   4.574   5.480 -1.9039  1.0831 -0.7464
  912MOL0     H23065   0.192   4.669   5.380 -1.1118 -2.1519 -1.2842
  912MOL0     H23066   0.284   4.766   5.269 -0.7495 -0.4582 -0.8278
  912MOL0     H23067   0.361   4.583   5.144 -1.4034 -0.1022 -1.7867
  912MOL0     H23068   0.297   4.466   5.261 -1.0678  1.4921  2.8797
  912MOL0     H23069   0.133   4.652   5.078 -0.2812 -1.1258 -0.2872
  912MOL0     H23070   0.063   4.592   5.229  0.6848  0.7289 -0.0848
  912MOL0     H23071   0.218   4.444   4.910 -1.1497 -0.1784 -1.3736
  912MOL0     H23072   0.098   4.304   4.737 -3.6604  2.2090  1.5557
  912MOL0     H23073   0.123   4.148   4.825 -0.0254 -1.4753 -3.5018
  912MOL0     H23074  -0.158   4.245   4.740  0.4009  0.8716  1.9727
  912MOL0     H23075  -0.109   4.100   4.833  1.3441 -2.9115 -1.4265
  912MOL0     H23076   0.030   4.035   4.630 -0.2183 -0.0270  2.9267
  912MOL0     H23077  -0.024   4.183   4.544 -3.0605 -0.8665 -1.6681
  912MOL0     H23078  -0.173   3.936   4.617 -0.7837 -1.2924 -0.8106
  912MOL0     H23079  -0.138   3.991   4.456 -3.7577 -3.7004  0.6850
  912MOL0     H23080  -0.331   3.878   4.429 -1.6551 -0.0850  0.7263
  912MOL0     H23081  -0.431   3.745   4.284 -0.5247 -0.8677  0.6796
  912MOL0     H23082  -0.618   3.768   4.288  0.7038  1.2684  0.3869
  912MOL0     H23083  -0.518   3.826   4.150  3.5541 -0.7585 -0.3047
  912MOL0     H23084  -0.709   4.338   3.972 -1.8209  2.2204  0.0209
  912MOL0     H23085  -0.805   4.358   3.762 -0.7096  1.1203  1.5177
  912MOL0     H23086  -1.165   4.412   3.718 -0.4122 -0.3196  0.3268
  912MOL0     H23087  -0.995   4.454   3.702 -1.5307  0.0360  2.1348
  912MOL0     H23088  -1.062   4.521   3.503 -2.3049  0.7791  3.1916
  912MOL0     H23089  -1.018   4.348   3.466  2.6056  0.9160  0.8686
  912MOL0     H23090  -1.204   4.398   3.350  2.1207  5.2465  1.2007
  912MOL0     H23091  -1.297   4.474   3.461 -0.7087 -0.5556 -1.4010
  912MOL0     H23092  -1.285   4.178   3.426  3.7288 -0.0528  0.1715
  912MOL0     H23093  -1.284   4.233   3.594  0.5506  0.3454 -0.4896
  912MOL0     H23094  -1.468   4.331   3.365 -0.0889  2.0864  0.6605
  912MOL0     H23095  -1.484   4.389   3.523 -0.6410 -1.9512  3.0787
  912MOL0     H23096  -1.657   4.224   3.462 -0.0227 -0.9067 -2.9280
  912MOL0     H23097  -1.530   4.114   3.413  0.3444  0.9832 -0.5081
  912MOL0     H23098  -1.572   4.219   3.703  0.9325 -0.2854  0.8301
  912MOL0     H23099  -1.452   4.095   3.678  0.2327  2.0358 -1.1581
  912MOL0     H23100  -1.626   3.940   3.597 -3.3270 -0.7753 -0.5587
  912MOL0     H23101  -1.748   4.053   3.604  0.7187  0.0618 -1.1346
  912MOL0     H23102  -1.122   4.083   3.893  1.3038 -1.8096 -2.3299
  912MOL0     H23103  -0.993   4.044   4.100 -2.4025 -1.9887 -2.0238
  912MOL0     H23104  -0.641   4.250   4.347  0.1926  0.7294  0.4872
  912MOL0     H23105  -0.462   4.279   4.491 -1.3790 -0.1860 -1.7595
  912MOL0     H23106   0.785   5.172   5.993 -1.2615 -1.5821 -0.7458
  912MOL0     H23107   0.882   5.164   6.223  0.3075  0.1196  0.3677
  912MOL0     H23108   0.891   5.141   6.629 -2.2262 -0.3674 -0.5451
  912MOL0     H23109   0.933   5.143   6.857 -0.2666  0.8930 -0.6447
  912MOL0     H23110   0.784   5.007   7.125  0.9767 -1.1371 -1.0688
  912MOL0     H23111   0.733   4.890   7.005 -0.7284 -0.3809  0.4183
  912MOL0     H23112   0.841   4.706   7.115 -0.6419 -1.3362  1.2808
  912MOL0     H23113   0.703   4.786   7.194 -0.8844 -0.0524 -2.7820
  912MOL0     H23114   0.905   4.895   7.327  0.5716 -0.3359  0.7738
  912MOL0     H23115   1.006   4.773   7.238  0.3613  1.8022 -0.4432
  912MOL0     H23116   0.781   4.737   7.422  0.1357  0.5351  0.0884
  912MOL0     H23117   0.948   4.719   7.475  0.0912  0.1483  1.4794
  912MOL0     H23118   0.845   4.353   7.280 -0.1032 -0.1519  1.5346
  912MOL0     H23119   0.969   4.717   6.880  3.1098 -1.3132 -1.5798
  912MOL0     H23120   0.963   4.708   6.633  0.5997  1.0448  0.3603
  913MOL0     O23121   9.640  10.717   6.676  0.3634 -0.3207  0.2627
  913MOL0     C23122   9.610  10.607   6.632 -0.1321  0.4019  0.3015
  913MOL0     O23123   9.663  10.556   6.512  0.2479  0.5398  0.1560
  913MOL0     C23124   9.770  10.616   6.452  0.0842 -0.0552 -0.0017
  913MOL0     C23125   9.889  10.642   6.524 -0.0707  0.0096 -0.7149
  913MOL0     C23126  10.006  10.671   6.450 -0.6291 -0.5240 -0.5691
  913MOL0     C23127  10.011  10.657   6.312 -0.2186  0.7564  0.1322
  913MOL0     O23128  10.115  10.676   6.223  0.4623 -0.0420 -0.0508
  913MOL0     C23129  10.251  10.685   6.276  0.0070  0.8919  0.6245
  913MOL0     C23130  10.349  10.659   6.168 -0.7182 -0.0252  0.5270
  913MOL0     C23131  10.392  10.508   6.155 -0.6044  0.7227  0.2370
  913MOL0     C23132  10.534  10.479   6.094  0.7541 -0.0936 -0.0119
  913MOL0     C23133  10.660  10.539   6.163  0.4104 -0.2435 -1.2064
  913MOL0     C23134  10.672  10.499   6.312 -0.0519  0.6543 -0.0382
  913MOL0     C23135  10.680  10.345   6.331  0.0067 -0.2489  0.7140
  913MOL0     C23136  10.722  10.308   6.478  0.0382  0.0065 -0.2873
  913MOL0     N23137  10.651  10.370   6.590  0.3032 -0.5149 -1.0911
  913MOL0     C23138  10.530  10.326   6.632  0.4343 -0.7329 -0.0831
  913MOL0     C23139  10.504  10.403   6.743  0.3913 -1.0546 -0.4465
  913MOL0     C23140  10.377  10.416   6.819  0.2101 -0.5287 -0.9670
  913MOL0     C23141  10.392  10.353   6.958  0.3560  0.9594 -0.5453
  913MOL0     C23142  10.279  10.399   7.051  0.2030 -0.2027  0.6109
  913MOL0     C23143  10.274  10.317   7.177 -0.0557  0.5897  0.7947
  913MOL0     O23144  10.406  10.297   7.235 -0.2514 -0.2375  0.3983
  913MOL0     C23145  10.429  10.203   7.332  0.0752 -0.3617  1.1732
  913MOL0     C23146  10.542  10.216   7.408  0.1860  0.1996 -0.8663
  913MOL0     C23147  10.562  10.131   7.516 -0.7297 -0.6104 -0.3051
  913MOL0     C23148  10.683  10.161   7.608 -0.0727 -0.2964 -0.1164
  913MOL0     C23149  10.472  10.022   7.546  0.6299 -0.2155 -0.0040
  913MOL0     C23150  10.491   9.923   7.643 -1.1172 -0.1768 -0.7797
  913MOL0     O23151  10.393   9.906   7.734 -0.7834  0.1131 -0.4635
  913MOL0     C23152  10.425   9.813   7.837  0.6245 -0.3028  0.0599
  913MOL0     C23153  10.441   9.870   7.969 -1.7054  0.3352  0.3427
  913MOL0     C23154  10.497   9.777   8.068  0.7042 -0.1814  0.8839
  913MOL0     C23155  10.493   9.641   8.055  0.1001 -0.7705  0.0100
  913MOL0     O23156  10.545   9.566   8.160 -0.1253 -0.2503  0.4207
  913MOL0     C23157  10.592   9.427   8.149 -0.0046 -0.1353  1.0029
  913MOL0     C23158  10.708   9.404   8.252  0.0329  0.2969 -0.2767
  913MOL0     C23159  10.659   9.402   8.390  0.0264  0.3505  0.2085
  913MOL0     C23160  10.576   9.288   8.427 -0.1647 -0.4650 -0.3541
  913MOL0     C23161  10.548   9.264   8.579 -0.5035  0.2924 -0.1395
  913MOL0     C23162  10.469   9.143   8.606 -0.1724 -0.0918 -0.3036
  913MOL0     C23163  10.422   9.135   8.763 -0.5359  0.4531 -0.9108
  913MOL0     C23164  10.393   8.986   8.794 -0.6761  0.2037  0.5791
  913MOL0    Cl23165  10.252   8.921   8.704 -0.3115  0.3653 -0.2923
  913MOL0     C23166  10.468   9.588   7.935  0.1779 -0.1526  0.6995
  913MOL0     C23167  10.439   9.674   7.823  0.1823  0.7026 -0.2402
  913MOL0     O23168  10.591   9.857   7.634 -0.9625 -0.0020  0.1831
  913MOL0     C23169  10.358  10.008   7.464  0.4166  0.3473 -0.0914
  913MOL0     C23170  10.329  10.097   7.361  0.1600 -0.2372 -1.3218
  913MOL0     N23171  10.614  10.484   6.760  0.0436 -0.1589  0.6801
  913MOL0     N23172  10.702  10.465   6.666  0.0076  1.2851 -0.0890
  913MOL0     C23173   9.888  10.625   6.245 -0.0586 -0.6497  0.4994
  913MOL0     C23174   9.770  10.617   6.318 -0.4962 -0.2711  0.0892
  913MOL0     C23175   9.503  10.527   6.705  0.2102 -0.1025 -1.1070
  913MOL0     C23176   9.394  10.593   6.782 -0.0964  0.2532  0.2332
  913MOL0     C23177   9.306  10.512   6.842 -0.0402  1.6590 -0.4598
  913MOL0     C23178   9.319  10.371   6.847  0.4044  1.3318  0.1989
  913MOL0     O23179   9.217  10.304   6.918  0.3369  0.0978 -0.0465
  913MOL0     C23180   9.137  10.217   6.842  0.8661 -0.0516  0.1761
  913MOL0     C23181   8.989  10.226   6.887 -0.9171  0.0431 -0.2557
  913MOL0     C23182   8.945  10.378   6.889 -0.0982 -0.3451  0.3000
  913MOL0     C23183   8.798  10.394   6.859  0.5472  0.3575 -0.0261
  913MOL0     C23184   8.711  10.313   6.947  0.0418 -0.5062 -0.2603
  913MOL0     C23185   8.631  10.255   7.015  0.3101  0.7879 -0.5598
  913MOL0     C23186   9.432  10.312   6.792  0.2268 -0.3785 -0.0630
  913MOL0     C23187   9.518  10.386   6.716  0.1048  1.0276  1.2079
  913MOL0     H23188   9.884  10.624   6.631 -1.6774  1.7507 -0.4520
  913MOL0     H23189  10.095  10.687   6.509 -1.9193  2.8131  0.6912
  913MOL0     H23190  10.268  10.786   6.314 -0.4601  1.4649 -0.6633
  913MOL0     H23191  10.265  10.615   6.359  0.9362  1.7788  1.2457
  913MOL0     H23192  10.320  10.702   6.071 -1.2211  1.6685  1.4037
  913MOL0     H23193  10.446  10.699   6.199  0.0605 -2.6769  1.8381
  913MOL0     H23194  10.376  10.460   6.252  4.9561 -1.5969  0.4018
  913MOL0     H23195  10.318  10.458   6.092  1.9824  0.1180 -2.6058
  913MOL0     H23196  10.546  10.371   6.105 -0.0938 -0.2581 -0.6243
  913MOL0     H23197  10.543  10.509   5.989  2.1172  2.8052  0.8245
  913MOL0     H23198  10.755  10.509   6.117  3.1461  0.3351  3.3916
  913MOL0     H23199  10.663  10.648   6.171  2.7230 -0.4027  2.9142
  913MOL0     H23200  10.773  10.528   6.345  1.3493 -1.3880 -2.1661
  913MOL0     H23201  10.600  10.550   6.376  0.5133  3.9941 -1.8455
  913MOL0     H23202  10.579  10.313   6.306 -1.4675  4.9288 -1.3541
  913MOL0     H23203  10.751  10.306   6.258 -1.0202 -0.8202 -0.0139
  913MOL0     H23204  10.826  10.339   6.482  0.6366 -1.9708  0.7110
  913MOL0     H23205  10.718  10.199   6.491  0.2379  0.0874  0.5136
  913MOL0     H23206  10.480  10.237   6.597  2.0553 -1.3894 -0.8112
  913MOL0     H23207  10.343  10.519   6.835  0.6764 -0.7721  2.1767
  913MOL0     H23208  10.295  10.362   6.771 -1.3064  1.3665 -0.6357
  913MOL0     H23209  10.491  10.376   6.999 -0.5559  0.6321  2.0175
  913MOL0     H23210  10.381  10.246   6.939 -2.9569  1.2873 -1.0984
  913MOL0     H23211  10.184  10.398   6.997  0.2846  2.1737  0.3349
  913MOL0     H23212  10.306  10.503   7.074 -0.3560  1.0502 -3.5879
  913MOL0     H23213  10.247  10.215   7.150  0.3846  0.0665  2.2428
  913MOL0     H23214  10.204  10.355   7.252  0.6795  0.5578  1.5092
  913MOL0     H23215  10.599  10.308   7.401 -1.9136  1.6141 -0.5501
  913MOL0     H23216  10.775  10.112   7.575 -0.0793 -0.8973  0.7359
  913MOL0     H23217  10.704  10.268   7.619  0.3411 -0.3784 -0.1215
  913MOL0     H23218  10.653  10.127   7.708 -1.3701 -2.8942 -1.2832
  913MOL0     H23219  10.431   9.977   7.987 -0.3509  0.0055  3.7844
  913MOL0     H23220  10.517   9.818   8.166  1.7263 -1.3320  1.1709
  913MOL0     H23221  10.507   9.359   8.160 -4.3557  4.1454 -1.6879
  913MOL0     H23222  10.642   9.413   8.053  2.2568 -1.0451  2.2286
  913MOL0     H23223  10.760   9.311   8.226 -3.0765 -2.0895  1.3245
  913MOL0     H23224  10.785   9.481   8.244  1.0355 -0.7325 -1.0279
  913MOL0     H23225  10.616   9.500   8.415 -0.5313  0.2499 -0.3232
  913MOL0     H23226  10.749   9.391   8.452 -1.2337  0.3094  2.1176
  913MOL0     H23227  10.483   9.293   8.369  1.3289  4.1178 -2.8532
  913MOL0     H23228  10.629   9.202   8.384  0.7903  0.3148 -0.7649
  913MOL0     H23229  10.501   9.354   8.621  1.3425  2.0496 -1.6856
  913MOL0     H23230  10.639   9.253   8.638 -0.0940 -0.2193 -0.8595
  913MOL0     H23231  10.379   9.127   8.546  1.1221 -1.6097 -1.9345
  913MOL0     H23232  10.531   9.062   8.568  1.6433  2.7764 -4.1954
  913MOL0     H23233  10.332   9.194   8.779 -0.3881  1.7078 -3.9987
  913MOL0     H23234  10.507   9.177   8.818 -0.8844 -1.2174  1.0122
  913MOL0     H23235  10.374   8.969   8.901 -1.7594  0.7807  0.5011
  913MOL0     H23236  10.478   8.932   8.752 -0.1525  2.3700 -1.3140
  913MOL0     H23237  10.472   9.481   7.917  0.0468 -0.0091 -0.2400
  913MOL0     H23238  10.417   9.627   7.728 -0.9083  0.2941  0.1986
  913MOL0     H23239  10.288   9.928   7.484 -1.0386  0.1733 -4.6968
  913MOL0     H23240  10.241  10.079   7.300 -1.8358 -0.2889  1.3779
  913MOL0     H23241   9.893  10.612   6.138  2.4358 -0.2773  0.5128
  913MOL0     H23242   9.675  10.600   6.267 -0.7898 -0.6084  0.7305
  913MOL0     H23243   9.380  10.701   6.785  2.9493  0.7299  2.4206
  913MOL0     H23244   9.216  10.553   6.886 -2.7780 -1.2458 -2.8843
  913MOL0     H23245   9.145  10.251   6.738  3.1062  1.9363  0.8977
  913MOL0     H23246   9.172  10.116   6.866 -0.0151 -0.4172 -0.0504
  913MOL0     H23247   8.968  10.183   6.985 -0.5464  3.2101  1.3546
  913MOL0     H23248   8.931  10.173   6.811  3.4769 -2.5005 -2.1896
  913MOL0     H23249   9.011  10.431   6.819  0.9132  0.1086  1.5559
  913MOL0     H23250   8.967  10.422   6.987  2.3470 -1.4729  0.3398
  913MOL0     H23251   8.781  10.364   6.756  0.9362  1.4922 -0.4429
  913MOL0     H23252   8.758  10.495   6.877  1.0065  0.8051 -1.4199
  913MOL0     H23253   8.557  10.197   7.066 -0.0139  0.9685 -0.8175
  913MOL0     H23254   9.434  10.205   6.809 -0.4615 -0.1620  1.6109
  913MOL0     H23255   9.592  10.336   6.654 -0.5366  2.3937 -0.7507
  914MOL0     O23256   2.540   7.892   6.035 -0.0481 -0.5034 -0.3539
  914MOL0     C23257   2.504   8.000   6.075  0.1525 -0.1490 -0.9590
  914MOL0     O23258   2.424   8.017   6.180  0.3536 -0.1654 -0.0088
  914MOL0     C23259   2.378   7.909   6.254  0.0288  0.0376  0.4401
  914MOL0     C23260   2.467   7.824   6.319  0.2397  0.1010  0.1255
  914MOL0     C23261   2.421   7.697   6.358 -0.0246 -0.0051  0.1516
  914MOL0     C23262   2.290   7.658   6.346 -0.4591 -0.0058  0.0547
  914MOL0     O23263   2.251   7.541   6.412 -0.1761 -0.0414 -0.0078
  914MOL0     C23264   2.243   7.416   6.335  0.0267 -0.4937 -0.0514
  914MOL0     C23265   2.102   7.405   6.273  0.1695  0.2900  0.3014
  914MOL0     C23266   1.991   7.397   6.384 -0.2605  0.4185  0.3295
  914MOL0     C23267   1.855   7.411   6.323  0.2401 -0.4018  0.2982
  914MOL0     C23268   1.822   7.294   6.222 -0.0811 -0.3500  0.2938
  914MOL0     C23269   1.683   7.324   6.162  0.5072 -0.0423  1.3846
  914MOL0     C23270   1.560   7.291   6.252 -0.9001 -0.4350  0.4299
  914MOL0     C23271   1.431   7.301   6.166 -1.5911  0.3101  0.7177
  914MOL0     N23272   1.308   7.275   6.236 -0.3917  0.5332  0.2305
  914MOL0     C23273   1.233   7.153   6.240 -0.4338 -0.8777  0.4315
  914MOL0     C23274   1.147   7.170   6.337  0.1325 -0.4486 -0.2973
  914MOL0     C23275   1.042   7.071   6.382 -0.2045 -0.2967  0.5895
  914MOL0     C23276   1.018   7.076   6.531 -0.8006 -0.1628 -0.1971
  914MOL0     C23277   0.912   6.965   6.571  0.0535  0.6110 -0.8115
  914MOL0     C23278   0.912   6.944   6.720  0.4994 -0.1238  0.3613
  914MOL0     O23279   0.859   6.820   6.753  0.4643 -0.6510  0.4534
  914MOL0     C23280   0.720   6.799   6.748 -0.6665  0.4721 -0.1624
  914MOL0     C23281   0.623   6.891   6.780 -0.3557 -0.0944  0.0117
  914MOL0     C23282   0.490   6.855   6.789  0.3923  0.5557 -0.1763
  914MOL0     C23283   0.403   6.969   6.816  0.0903 -0.6810  0.1455
  914MOL0     C23284   0.449   6.723   6.766  0.8746 -0.2388 -0.1958
  914MOL0     C23285   0.308   6.673   6.783  0.3884  0.3522  0.3882
  914MOL0     O23286   0.256   6.697   6.913 -0.6232 -0.2400  0.4020
  914MOL0     C23287   0.122   6.672   6.941 -0.6802  0.3140 -0.4589
  914MOL0     C23288   0.039   6.573   6.883 -0.8846  0.2733  0.3771
  914MOL0     C23289  -0.092   6.565   6.921 -0.0831  0.4614  0.6804
  914MOL0     C23290  -0.152   6.638   7.027 -0.4721 -0.3809 -0.0451
  914MOL0     O23291  -0.283   6.640   7.064  0.0720  0.0433 -1.3715
  914MOL0     C23292  -0.370   6.585   6.963  0.6595 -0.3940  0.3966
  914MOL0     C23293  -0.519   6.630   6.986  0.4553  0.5490 -0.0009
  914MOL0     C23294  -0.609   6.609   6.858 -0.2929 -0.2253  0.4661
  914MOL0     C23295  -0.755   6.623   6.905 -0.2335  0.1041 -0.9742
  914MOL0     C23296  -0.854   6.621   6.791  0.9461 -0.2292 -0.9822
  914MOL0     C23297  -0.823   6.727   6.689 -1.2124 -0.1685 -0.3816
  914MOL0     C23298  -0.938   6.732   6.595 -0.6260 -0.5151  0.5583
  914MOL0     C23299  -0.929   6.834   6.479  0.0776 -0.3782 -0.2288
  914MOL0    Cl23300  -1.055   6.781   6.369 -0.7055  0.1811 -0.0723
  914MOL0     C23301  -0.060   6.726   7.085  1.0956  0.1570  0.4357
  914MOL0     C23302   0.070   6.745   7.048  0.7483 -0.3365  0.0957
  914MOL0     O23303   0.246   6.621   6.687  0.3986  0.7597  0.3781
  914MOL0     C23304   0.542   6.635   6.706  0.9264 -1.0573 -0.1275
  914MOL0     C23305   0.678   6.675   6.701  0.1299 -0.3257 -0.1874
  914MOL0     N23306   1.165   7.301   6.391  0.0728  0.1100 -0.4742
  914MOL0     N23307   1.255   7.360   6.327 -1.1748 -0.6028  0.3431
  914MOL0     C23308   2.201   7.757   6.306 -0.7439 -0.4197  1.1073
  914MOL0     C23309   2.241   7.885   6.250  0.3901 -0.7577 -0.7680
  914MOL0     C23310   2.548   8.128   6.008 -0.4338 -0.3604  0.2967
  914MOL0     C23311   2.541   8.256   6.068  0.6935 -0.5760  0.2838
  914MOL0     C23312   2.582   8.371   6.005 -0.5183  1.0133  0.5811
  914MOL0     C23313   2.638   8.368   5.872  0.1982  0.5790  0.1736
  914MOL0     O23314   2.710   8.468   5.806 -0.8543  0.3726  0.1832
  914MOL0     C23315   2.726   8.596   5.863 -0.4147 -0.8752  0.8727
  914MOL0     C23316   2.819   8.681   5.780  0.4327  0.0434  0.7907
  914MOL0     C23317   2.769   8.698   5.641 -0.3120  0.7833  0.8094
  914MOL0     C23318   2.868   8.777   5.551  1.0199 -0.8293 -0.8857
  914MOL0     C23319   2.846   8.742   5.417  0.0274  0.9619  0.5004
  914MOL0     C23320   2.830   8.716   5.292  0.7587 -0.5652 -1.2803
  914MOL0     C23321   2.631   8.242   5.813  0.4835  0.2126 -0.6465
  914MOL0     C23322   2.592   8.127   5.882 -0.0273  0.5667  0.4703
  914MOL0     H23323   2.568   7.864   6.330 -0.0378  0.4426  1.6843
  914MOL0     H23324   2.499   7.632   6.397 -1.0675 -1.5276 -0.2242
  914MOL0     H23325   2.318   7.403   6.257  0.2307  0.6004 -0.0500
  914MOL0     H23326   2.270   7.331   6.399 -0.0337  1.5044  2.8399
  914MOL0     H23327   2.082   7.494   6.213  0.8485  1.2474  1.4570
  914MOL0     H23328   2.103   7.323   6.200 -0.2263 -0.0869  0.7117
  914MOL0     H23329   1.994   7.299   6.432  2.9299  0.3665  0.2706
  914MOL0     H23330   2.006   7.471   6.463 -1.8610  0.9966  0.1115
  914MOL0     H23331   1.780   7.407   6.403  0.7148  2.5601  0.9941
  914MOL0     H23332   1.844   7.505   6.268  1.0872  0.6402  1.8667
  914MOL0     H23333   1.898   7.286   6.144 -1.5525  0.5276 -1.3095
  914MOL0     H23334   1.823   7.194   6.266 -0.0383 -0.1956  0.6473
  914MOL0     H23335   1.681   7.425   6.121  2.7516 -0.2322  0.7042
  914MOL0     H23336   1.672   7.252   6.080  1.7545 -0.5074  1.6117
  914MOL0     H23337   1.571   7.195   6.303 -1.2258 -0.3290  0.7032
  914MOL0     H23338   1.552   7.362   6.334  0.2542 -1.3185  1.3511
  914MOL0     H23339   1.427   7.246   6.072  1.0236 -0.6573  1.1091
  914MOL0     H23340   1.433   7.404   6.128 -3.0583 -0.6049 -2.1071
  914MOL0     H23341   1.235   7.063   6.180  1.2966  0.0216 -0.9503
  914MOL0     H23342   0.951   7.067   6.322  0.0125 -3.7384  0.3310
  914MOL0     H23343   1.081   6.972   6.359  3.0135  0.6243  1.5575
  914MOL0     H23344   0.982   7.177   6.554 -1.3206 -0.4119  0.1001
  914MOL0     H23345   1.104   7.065   6.598 -1.3227 -0.7149  0.3946
  914MOL0     H23346   0.941   6.866   6.535  3.2712  0.9133  0.5761
  914MOL0     H23347   0.822   6.995   6.516 -1.2561 -1.5448  0.0494
  914MOL0     H23348   0.877   7.032   6.775  1.2731  0.6109 -0.2856
  914MOL0     H23349   1.016   6.942   6.755  1.6109  1.8238 -2.4183
  914MOL0     H23350   0.647   6.994   6.803 -3.3907  0.4486  1.2562
  914MOL0     H23351   0.464   7.041   6.872  2.2404 -0.9150 -1.7429
  914MOL0     H23352   0.361   7.022   6.731 -0.8212  2.0258  2.1656
  914MOL0     H23353   0.322   6.945   6.885 -0.2979  3.7624  1.5270
  914MOL0     H23354   0.076   6.509   6.804  0.8197  1.4017  0.1937
  914MOL0     H23355  -0.149   6.489   6.869 -0.7506  0.8941  0.7560
  914MOL0     H23356  -0.343   6.615   6.862 -2.4772 -1.5734 -0.9210
  914MOL0     H23357  -0.359   6.476   6.968  1.3464 -0.4878 -2.0788
  914MOL0     H23358  -0.560   6.585   7.077  0.7576  1.6387  0.6997
  914MOL0     H23359  -0.529   6.739   6.999 -1.6394  0.2140  1.6487
  914MOL0     H23360  -0.597   6.513   6.807  0.6889  0.1443 -0.0209
  914MOL0     H23361  -0.594   6.694   6.791 -2.2203 -0.9944 -1.0502
  914MOL0     H23362  -0.789   6.552   6.982  1.2441 -0.3713 -0.7278
  914MOL0     H23363  -0.762   6.716   6.963  2.5909  0.5874 -1.2414
  914MOL0     H23364  -0.949   6.657   6.831  0.6655 -0.1391 -1.7105
  914MOL0     H23365  -0.884   6.523   6.752 -0.9166  0.1818 -0.7096
  914MOL0     H23366  -0.826   6.827   6.733  0.7352 -0.0355 -0.4888
  914MOL0     H23367  -0.727   6.720   6.636 -0.6008  2.5780  0.1642
  914MOL0     H23368  -1.026   6.754   6.657  0.8765  1.4489  2.1312
  914MOL0     H23369  -0.941   6.633   6.548 -0.9866 -0.5917  0.7331
  914MOL0     H23370  -0.837   6.838   6.420  1.7171  2.7540  2.2905
  914MOL0     H23371  -0.962   6.933   6.508  1.2264 -0.2907  0.8570
  914MOL0     H23372  -0.099   6.777   7.173 -0.6413 -0.3469 -0.0038
  914MOL0     H23373   0.128   6.822   7.096  2.1322 -0.6580 -0.9736
  914MOL0     H23374   0.510   6.545   6.655 -0.1437 -1.0124  0.4174
  914MOL0     H23375   0.749   6.602   6.666  0.5433 -0.5428  1.0494
  914MOL0     H23376   2.095   7.737   6.315 -0.7471 -1.2527 -0.4191
  914MOL0     H23377   2.172   7.954   6.202  2.2741  2.5033  0.8200
  914MOL0     H23378   2.500   8.255   6.169  1.2750  1.8744  0.6078
  914MOL0     H23379   2.586   8.466   6.057 -3.6645  0.3175  2.3077
  914MOL0     H23380   2.628   8.644   5.869 -0.3278 -0.8135  1.9751
  914MOL0     H23381   2.777   8.591   5.960  1.3428  3.0939  0.3573
  914MOL0     H23382   2.922   8.642   5.775  0.2962 -0.1743 -1.5155
  914MOL0     H23383   2.831   8.786   5.807  2.7150  0.7279 -2.2464
  914MOL0     H23384   2.669   8.741   5.632  0.3661  2.2409 -0.2278
  914MOL0     H23385   2.765   8.598   5.596 -3.1814  0.3456  1.7880
  914MOL0     H23386   2.975   8.767   5.571  1.2394 -0.0797 -1.6320
  914MOL0     H23387   2.853   8.884   5.566 -2.8825 -1.3815  0.2942
  914MOL0     H23388   2.815   8.702   5.187  0.4249  0.4426 -1.3762
  914MOL0     H23389   2.686   8.219   5.722  3.9035 -1.2541  1.5704
  914MOL0     H23390   2.598   8.029   5.836  0.3361  1.4734 -1.5379
  915MOL0     O23391   4.436   5.316   4.998 -0.0404 -0.4633 -0.0056
  915MOL0     C23392   4.506   5.406   5.043 -0.4170 -0.0001  0.0135
  915MOL0     O23393   4.462   5.517   5.104 -0.0276  0.0559 -0.3431
  915MOL0     C23394   4.328   5.545   5.109  0.3320  0.3479 -0.0728
  915MOL0     C23395   4.261   5.612   5.002  0.5637 -0.6146 -0.1460
  915MOL0     C23396   4.127   5.623   5.004  0.5923 -0.6975 -0.8126
  915MOL0     C23397   4.048   5.559   5.109  0.7447 -0.4043  0.3936
  915MOL0     O23398   3.913   5.567   5.120  0.6473 -0.4718 -0.5293
  915MOL0     C23399   3.872   5.698   5.103 -1.6359 -0.5436 -0.0941
  915MOL0     C23400   3.723   5.707   5.161  0.2391  0.0303 -0.3820
  915MOL0     C23401   3.718   5.725   5.316 -0.2794  0.1436  0.2446
  915MOL0     C23402   3.582   5.682   5.370 -0.9472  0.3584 -1.1445
  915MOL0     C23403   3.570   5.670   5.525  0.4455  0.3456 -0.0070
  915MOL0     C23404   3.439   5.600   5.575  0.0049  0.0877  0.6891
  915MOL0     C23405   3.433   5.606   5.728 -0.0484 -0.5403 -0.5947
  915MOL0     C23406   3.327   5.514   5.798 -0.3767  0.0526  0.1011
  915MOL0     N23407   3.210   5.541   5.727  0.0917  0.3677  0.4617
  915MOL0     C23408   3.140   5.450   5.650 -0.5204 -0.4483  0.8361
  915MOL0     C23409   3.044   5.531   5.597 -0.2489 -0.5790 -0.3599
  915MOL0     C23410   2.941   5.483   5.505  0.0207  0.0789  0.4086
  915MOL0     C23411   2.803   5.500   5.560  0.0820  0.1381 -0.6763
  915MOL0     C23412   2.698   5.432   5.473 -0.0010 -0.0669 -0.7549
  915MOL0     C23413   2.562   5.479   5.527  0.7064  0.0191  0.9677
  915MOL0     O23414   2.536   5.413   5.651  0.6894 -0.3234 -0.1125
  915MOL0     C23415   2.412   5.371   5.689  0.2408 -1.2608 -1.1000
  915MOL0     C23416   2.415   5.305   5.811 -0.0380  0.2699  0.3438
  915MOL0     C23417   2.299   5.270   5.880 -0.7056  0.7343 -0.7538
  915MOL0     C23418   2.317   5.226   6.018  0.2972  0.3366 -0.2660
  915MOL0     C23419   2.179   5.292   5.813  0.7065 -0.0222 -0.2351
  915MOL0     C23420   2.047   5.252   5.864  0.1174 -0.4447  0.9198
  915MOL0     O23421   1.948   5.327   5.811  0.0445 -0.0202 -0.5033
  915MOL0     C23422   1.813   5.305   5.847 -0.2266  0.4150  1.4038
  915MOL0     C23423   1.749   5.190   5.805  0.6155 -0.3721  0.5873
  915MOL0     C23424   1.615   5.183   5.826  0.1766  0.4814 -1.3551
  915MOL0     C23425   1.544   5.281   5.889 -0.2000 -0.0082  0.5090
  915MOL0     O23426   1.403   5.268   5.888 -0.2419  0.0854  0.3974
  915MOL0     C23427   1.336   5.338   5.994 -0.8124 -0.5316  0.8144
  915MOL0     C23428   1.189   5.292   5.996 -0.7564  0.2348 -0.2592
  915MOL0     C23429   1.091   5.398   6.050  0.4993  1.1195 -0.0968
  915MOL0     C23430   1.098   5.410   6.196 -0.8880 -0.0537 -0.9621
  915MOL0     C23431   1.003   5.521   6.254 -0.7137 -0.4108  0.1125
  915MOL0     C23432   1.088   5.655   6.281  0.4634 -0.6031 -0.0931
  915MOL0     C23433   0.992   5.754   6.356  0.0718 -0.4950 -0.1881
  915MOL0     C23434   1.064   5.885   6.417  0.6019 -0.1998 -0.1808
  915MOL0    Cl23435   0.948   5.995   6.491 -0.5595  0.2990 -0.2356
  915MOL0     C23436   1.618   5.394   5.940  0.9120  0.0811  0.1822
  915MOL0     C23437   1.746   5.405   5.913  0.7359 -0.3050  0.1104
  915MOL0     O23438   2.035   5.159   5.945  0.1589  0.6387  0.1917
  915MOL0     C23439   2.178   5.357   5.689 -0.2969  1.1676  0.8277
  915MOL0     C23440   2.296   5.405   5.626 -0.6778  0.0785 -0.1132
  915MOL0     N23441   3.070   5.664   5.629 -0.0076 -0.2453 -0.4799
  915MOL0     N23442   3.168   5.669   5.702  0.8051 -0.0589 -0.2309
  915MOL0     C23443   4.116   5.499   5.212  0.9400  0.4869 -0.5318
  915MOL0     C23444   4.255   5.505   5.219  0.3168  0.0557  0.3086
  915MOL0     C23445   4.652   5.400   5.031  0.5742 -0.3892  0.5834
  915MOL0     C23446   4.728   5.515   5.016 -0.2066  0.7028  0.4597
  915MOL0     C23447   4.862   5.507   4.992  0.6567 -0.4408  1.2546
  915MOL0     C23448   4.923   5.384   4.991 -0.3837 -0.2017  0.1184
  915MOL0     O23449   5.069   5.368   4.998  0.0653 -0.2174  0.4880
  915MOL0     C23450   5.154   5.489   4.969 -0.0638 -0.8536 -0.5515
  915MOL0     C23451   5.288   5.448   4.912 -0.2660 -0.8348 -0.1100
  915MOL0     C23452   5.371   5.382   5.015  0.5235 -0.0497 -0.4395
  915MOL0     C23453   5.524   5.392   5.005  1.0162 -0.7925 -0.8166
  915MOL0     C23454   5.570   5.377   4.866 -0.2507  0.0551 -0.9115
  915MOL0     C23455   5.598   5.356   4.752 -0.0595 -0.0214  0.1199
  915MOL0     C23456   4.849   5.271   5.009  0.3741  0.1558 -0.4737
  915MOL0     C23457   4.711   5.274   5.023  0.8112 -0.6125 -1.0720
  915MOL0     H23458   4.329   5.638   4.922  1.3323 -1.2330  0.2956
  915MOL0     H23459   4.084   5.668   4.915 -1.0623 -0.8788 -0.1356
  915MOL0     H23460   3.941   5.766   5.153 -0.5043 -0.8652 -1.1939
  915MOL0     H23461   3.886   5.721   4.997 -1.0870  1.1179  0.3030
  915MOL0     H23462   3.685   5.802   5.122  1.3276  2.2109  3.3764
  915MOL0     H23463   3.677   5.616   5.122 -2.0929  0.6240  0.7411
  915MOL0     H23464   3.809   5.685   5.363  1.2371 -0.4301 -2.8475
  915MOL0     H23465   3.725   5.833   5.330 -1.6473  0.7212 -2.6334
  915MOL0     H23466   3.497   5.745   5.342 -1.2874 -0.7495 -2.6995
  915MOL0     H23467   3.557   5.582   5.334 -2.1083 -0.5701  1.8923
  915MOL0     H23468   3.653   5.614   5.569 -0.3286  0.2886  1.4063
  915MOL0     H23469   3.554   5.771   5.564  0.7898 -0.1855  1.5485
  915MOL0     H23470   3.351   5.655   5.539 -0.7228 -1.3961  0.0769
  915MOL0     H23471   3.441   5.502   5.526 -0.3002  3.0177 -6.3195
  915MOL0     H23472   3.530   5.585   5.774 -0.7276  0.3253  1.3223
  915MOL0     H23473   3.417   5.711   5.751 -0.7465 -0.4843 -1.3194
  915MOL0     H23474   3.327   5.534   5.906 -1.2712  0.3603  0.0517
  915MOL0     H23475   3.361   5.412   5.782  1.4247  0.6981 -0.4221
  915MOL0     H23476   3.148   5.343   5.640  0.0322 -0.4030  0.7776
  915MOL0     H23477   2.930   5.537   5.410 -0.5308 -0.8826 -0.0874
  915MOL0     H23478   2.961   5.376   5.498 -1.4237 -0.2409  0.7513
  915MOL0     H23479   2.790   5.608   5.573 -2.3332 -0.3861  2.5911
  915MOL0     H23480   2.791   5.463   5.662  0.9727  2.0983  0.1952
  915MOL0     H23481   2.720   5.325   5.474  1.2619  0.1748  0.2115
  915MOL0     H23482   2.706   5.467   5.370 -1.2229  3.0755  0.0980
  915MOL0     H23483   2.495   5.445   5.447 -0.3845 -1.0710  2.2752
  915MOL0     H23484   2.548   5.587   5.532 -0.1893  0.1420 -2.3732
  915MOL0     H23485   2.511   5.283   5.858 -0.0435  1.3634  0.9148
  915MOL0     H23486   2.416   5.254   6.055  0.7292 -1.0713 -0.3128
  915MOL0     H23487   2.239   5.274   6.078  0.8508  2.0001 -0.8030
  915MOL0     H23488   2.316   5.117   6.020 -1.0395  0.3478  1.1066
  915MOL0     H23489   1.815   5.134   5.739  2.6193  2.7570 -0.2809
  915MOL0     H23490   1.565   5.098   5.781  0.0767  0.9792 -2.2144
  915MOL0     H23491   1.386   5.317   6.089  0.0669  0.7492  0.6630
  915MOL0     H23492   1.335   5.447   5.989 -2.9107 -0.5257  0.1832
  915MOL0     H23493   1.172   5.277   5.889  2.1470 -1.4169 -0.5923
  915MOL0     H23494   1.176   5.206   6.062 -0.0953  1.3723  1.4063
  915MOL0     H23495   0.990   5.369   6.019  2.5257 -4.5049 -2.8106
  915MOL0     H23496   1.106   5.498   6.008  0.4957  1.2883  0.2950
  915MOL0     H23497   1.077   5.321   6.256  2.8610  0.3808  1.3363
  915MOL0     H23498   1.199   5.427   6.233 -0.6215 -3.0161 -0.0900
  915MOL0     H23499   0.962   5.482   6.347  1.1711 -1.0955  0.7142
  915MOL0     H23500   0.923   5.543   6.183 -1.1374 -2.8568 -0.2569
  915MOL0     H23501   1.168   5.630   6.351 -0.1018 -1.6818  0.1943
  915MOL0     H23502   1.127   5.695   6.187  1.1907  0.0841  0.4840
  915MOL0     H23503   0.935   5.699   6.431  0.1008  2.0435  1.8292
  915MOL0     H23504   0.914   5.789   6.287 -1.0585  2.7549  2.4983
  915MOL0     H23505   1.107   5.949   6.339  2.5197  0.9330  1.6932
  915MOL0     H23506   1.139   5.852   6.489 -1.5511 -1.2707  1.7292
  915MOL0     H23507   1.582   5.480   5.994 -0.0881 -0.2316  0.0362
  915MOL0     H23508   1.814   5.487   5.934  1.5731  0.3225 -4.1358
  915MOL0     H23509   2.088   5.372   5.631 -1.2549  0.8388  2.1923
  915MOL0     H23510   2.297   5.471   5.539 -0.0842 -0.4517 -0.5255
  915MOL0     H23511   4.057   5.452   5.290  2.8968  0.7004  1.1503
  915MOL0     H23512   4.310   5.461   5.301  2.6995  1.5910 -0.3591
  915MOL0     H23513   4.682   5.613   5.018  0.4788  1.0232  0.8134
  915MOL0     H23514   4.915   5.600   4.982  0.5627 -0.4081  1.0341
  915MOL0     H23515   5.113   5.552   4.890  2.1523 -2.2930 -3.0273
  915MOL0     H23516   5.160   5.552   5.058 -0.6018 -1.0070 -0.4041
  915MOL0     H23517   5.328   5.536   4.862 -3.5561 -0.1473 -1.7817
  915MOL0     H23518   5.278   5.377   4.829 -1.0505 -1.4279  0.4638
  915MOL0     H23519   5.353   5.275   5.012  1.4358 -0.2298  0.1259
  915MOL0     H23520   5.340   5.413   5.115 -4.1703 -0.4733 -1.5636
  915MOL0     H23521   5.582   5.322   5.066 -1.2726 -1.2677  0.9459
  915MOL0     H23522   5.544   5.486   5.057  2.1013 -3.5438  4.4603
  915MOL0     H23523   5.635   5.321   4.658  1.8264 -0.9502  1.1521
  915MOL0     H23524   4.883   5.168   5.013 -1.7827 -0.5819  0.1255
  915MOL0     H23525   4.653   5.184   5.042  0.7541 -0.3801 -0.0765
  916MOL0     O23526  11.033   8.770   5.163  0.0695  0.0546  0.9711
  916MOL0     C23527  11.068   8.757   5.275 -1.1165 -0.4754  0.6506
  916MOL0     O23528  10.999   8.771   5.377  0.0233  0.1196 -0.3151
  916MOL0     C23529  10.862   8.789   5.363 -1.3699 -0.2264 -0.0270
  916MOL0     C23530  10.777   8.694   5.315 -0.0321 -0.8209  0.8509
  916MOL0     C23531  10.640   8.712   5.326 -0.4635 -0.6548  0.1817
  916MOL0     C23532  10.587   8.828   5.388  0.0149 -0.1882 -0.3932
  916MOL0     O23533  10.462   8.848   5.428 -0.2310  0.7730  0.1339
  916MOL0     C23534  10.356   8.817   5.336  0.0314 -0.0038  0.6629
  916MOL0     C23535  10.253   8.705   5.375 -1.4037 -0.2155  0.5784
  916MOL0     C23536  10.254   8.664   5.525  0.2857  0.9424 -0.9586
  916MOL0     C23537  10.147   8.558   5.561 -0.0380  0.3348 -0.7317
  916MOL0     C23538  10.003   8.605   5.554  0.1460  0.2371  0.1194
  916MOL0     C23539   9.901   8.493   5.592 -0.2315  0.3305 -0.0518
  916MOL0     C23540   9.767   8.554   5.631  0.4702  0.0165 -0.1503
  916MOL0     C23541   9.696   8.435   5.703  0.7871 -0.5124  1.4296
  916MOL0     N23542   9.553   8.469   5.713  0.4390  0.3763 -0.9451
  916MOL0     C23543   9.491   8.554   5.801 -0.0880  0.0176 -0.6210
  916MOL0     C23544   9.364   8.533   5.766 -0.3213 -0.2804 -0.2223
  916MOL0     C23545   9.263   8.610   5.836  0.0433  0.5076  0.0491
  916MOL0     C23546   9.172   8.523   5.923 -0.8201  0.6841 -1.0520
  916MOL0     C23547   9.085   8.603   6.020  0.4902 -0.3812 -0.0490
  916MOL0     C23548   9.013   8.508   6.115 -0.5145 -0.3684 -0.1241
  916MOL0     O23549   8.909   8.578   6.186 -0.4438 -0.5128  0.3084
  916MOL0     C23550   8.798   8.508   6.225  0.8573 -0.9481 -0.7440
  916MOL0     C23551   8.791   8.372   6.259 -0.2294  0.2757  0.2485
  916MOL0     C23552   8.680   8.304   6.290 -0.0840  0.5562 -0.7336
  916MOL0     C23553   8.711   8.151   6.321  0.0595 -0.6260 -0.0506
  916MOL0     C23554   8.565   8.379   6.307  0.1894  1.0744 -0.9769
  916MOL0     C23555   8.439   8.321   6.361  0.0275 -0.3197 -0.3982
  916MOL0     O23556   8.329   8.399   6.353 -0.3150  0.1177  0.8034
  916MOL0     C23557   8.216   8.324   6.345 -0.0821 -0.0295  0.2235
  916MOL0     C23558   8.160   8.289   6.214  0.2903  0.3409  0.0078
  916MOL0     C23559   8.048   8.202   6.210 -0.1160  0.3574 -0.3858
  916MOL0     C23560   7.985   8.148   6.319 -0.4703 -0.6410 -0.2906
  916MOL0     O23561   7.869   8.081   6.298  0.8623 -0.8949  0.2823
  916MOL0     C23562   7.802   8.018   6.405 -1.0382  0.0434  0.4964
  916MOL0     C23563   7.653   8.014   6.356  0.3371 -0.1090  0.3486
  916MOL0     C23564   7.594   8.139   6.301 -0.1660 -1.4466 -0.2731
  916MOL0     C23565   7.442   8.148   6.332 -0.4308  0.1131 -0.1217
  916MOL0     C23566   7.368   8.062   6.240 -0.0535 -0.2519  0.3906
  916MOL0     C23567   7.213   8.082   6.245  0.2730  0.7209  0.6287
  916MOL0     C23568   7.155   8.001   6.364 -0.2042  0.1603  0.4574
  916MOL0     C23569   7.000   8.004   6.355 -0.0885 -0.0875  0.0407
  916MOL0    Cl23570   6.942   8.157   6.440  0.1115 -0.1375  0.2404
  916MOL0     C23571   8.037   8.188   6.447 -0.6395 -0.2188  0.2937
  916MOL0     C23572   8.150   8.274   6.464 -0.9254 -0.2385 -0.1805
  916MOL0     O23573   8.442   8.205   6.420  0.3481 -0.1489 -0.1041
  916MOL0     C23574   8.556   8.515   6.275  0.0686 -0.4312 -0.2337
  916MOL0     C23575   8.672   8.579   6.229 -0.5900  0.4893  0.3344
  916MOL0     N23576   9.345   8.446   5.670 -0.2351  0.4199  0.3265
  916MOL0     N23577   9.466   8.408   5.637  0.4300  0.2245  0.2852
  916MOL0     C23578  10.676   8.927   5.422 -0.3774 -0.6461  0.2035
  916MOL0     C23579  10.814   8.914   5.406 -0.2883 -1.3204  0.5344
  916MOL0     C23580  11.210   8.719   5.291  0.4205 -0.3512  0.0239
  916MOL0     C23581  11.262   8.679   5.411  0.8173  1.0416  0.0273
  916MOL0     C23582  11.390   8.620   5.415  0.2969  0.5779  0.1075
  916MOL0     C23583  11.478   8.614   5.306  0.6553 -0.4385 -0.4292
  916MOL0     O23584  11.608   8.567   5.303 -0.0611 -0.7589 -0.9196
  916MOL0     C23585  11.673   8.533   5.424 -0.1439  0.5903  0.1258
  916MOL0     C23586  11.820   8.519   5.416 -0.4334 -1.4146 -0.4124
  916MOL0     C23587  11.874   8.386   5.459 -0.2884 -0.5377  0.9525
  916MOL0     C23588  11.992   8.336   5.370  0.0901 -0.0138 -1.0216
  916MOL0     C23589  12.113   8.410   5.394  0.6662 -0.2510  0.2512
  916MOL0     C23590  12.228   8.447   5.418  0.0811  0.2018 -0.4707
  916MOL0     C23591  11.423   8.654   5.186 -0.1492  0.1716  0.5226
  916MOL0     C23592  11.292   8.701   5.177 -0.2535  0.1396 -0.8113
  916MOL0     H23593  10.809   8.611   5.254  0.9998 -1.5094  2.2773
  916MOL0     H23594  10.579   8.628   5.294  1.4342 -1.3953 -1.6813
  916MOL0     H23595  10.309   8.907   5.295  2.0268  0.5358 -0.6489
  916MOL0     H23596  10.401   8.787   5.240 -4.0225  1.9928 -2.1472
  916MOL0     H23597  10.152   8.731   5.342 -0.1165  1.8175 -2.1353
  916MOL0     H23598  10.275   8.618   5.313  0.9637  1.1884 -0.7246
  916MOL0     H23599  10.350   8.627   5.564 -1.2842 -0.1912  2.1741
  916MOL0     H23600  10.231   8.759   5.575 -1.3045  0.4115 -0.6449
  916MOL0     H23601  10.160   8.471   5.496  1.8892  0.2057 -0.2360
  916MOL0     H23602  10.172   8.529   5.664 -1.5741 -0.9457 -0.6887
  916MOL0     H23603  10.000   8.689   5.625  2.9041  1.8232 -1.4758
  916MOL0     H23604   9.967   8.627   5.454  0.9643  0.1101 -0.2108
  916MOL0     H23605   9.890   8.415   5.515 -4.2086 -0.5860  1.1763
  916MOL0     H23606   9.945   8.443   5.679  1.1709 -0.2011 -1.0307
  916MOL0     H23607   9.776   8.646   5.690  0.0072 -1.0295  1.6481
  916MOL0     H23608   9.713   8.593   5.544  0.1678  2.4125  1.0282
  916MOL0     H23609   9.731   8.390   5.796 -1.0664 -0.8384  2.0237
  916MOL0     H23610   9.699   8.369   5.617  0.0383  1.5883 -0.3053
  916MOL0     H23611   9.529   8.610   5.886  1.1721  1.7829 -2.2585
  916MOL0     H23612   9.315   8.689   5.891 -1.2034  0.1360  1.8522
  916MOL0     H23613   9.199   8.660   5.762  1.6399 -0.3231 -1.9640
  916MOL0     H23614   9.236   8.447   5.969  1.2655  2.0378 -1.5812
  916MOL0     H23615   9.100   8.465   5.864  0.2140 -1.3815 -0.3696
  916MOL0     H23616   9.012   8.659   5.962  2.4935  1.5783 -0.8231
  916MOL0     H23617   9.146   8.678   6.071 -2.5653  2.1491  0.1698
  916MOL0     H23618   9.086   8.455   6.175 -1.6758 -2.1079 -0.1619
  916MOL0     H23619   8.966   8.424   6.063 -0.5476  0.0777 -0.8289
  916MOL0     H23620   8.880   8.312   6.243 -0.9870 -0.8663  0.2506
  916MOL0     H23621   8.641   8.077   6.283  0.6240  0.2529 -3.0516
  916MOL0     H23622   8.807   8.113   6.286  1.4111  1.4651  1.1757
  916MOL0     H23623   8.725   8.143   6.429 -1.0564 -0.0531  0.1511
  916MOL0     H23624   8.209   8.325   6.124 -0.4799  0.6960 -0.2791
  916MOL0     H23625   8.001   8.184   6.114 -0.4984  1.0347 -0.3248
  916MOL0     H23626   7.842   7.917   6.418 -2.3780 -0.6097 -0.2341
  916MOL0     H23627   7.796   8.075   6.498 -0.9572  0.4734  0.2416
  916MOL0     H23628   7.656   7.946   6.270  2.8232 -0.6404  0.7654
  916MOL0     H23629   7.589   7.975   6.435  2.0015 -0.2803  1.6607
  916MOL0     H23630   7.613   8.158   6.195  2.4098 -1.4350  0.1145
  916MOL0     H23631   7.646   8.218   6.355 -1.3775 -0.5593 -0.3772
  916MOL0     H23632   7.416   8.129   6.436 -0.8329  4.3828  0.7467
  916MOL0     H23633   7.418   8.254   6.321 -1.1463  0.4993  3.7419
  916MOL0     H23634   7.391   7.957   6.262 -1.6559 -0.0289  3.7896
  916MOL0     H23635   7.383   8.087   6.134  2.4110 -0.7184  0.5751
  916MOL0     H23636   7.178   8.185   6.254 -1.0959  0.4485 -1.0793
  916MOL0     H23637   7.161   8.038   6.160 -0.4258 -0.1593  1.4840
  916MOL0     H23638   7.182   8.039   6.462  0.1025 -1.6969  1.1289
  916MOL0     H23639   7.202   7.903   6.366  0.1719  0.3342  2.6848
  916MOL0     H23640   6.958   7.912   6.397  0.6995 -0.1701  0.6581
  916MOL0     H23641   6.960   8.012   6.254 -1.7774 -0.9669  0.6008
  916MOL0     H23642   7.983   8.171   6.540  0.8717  1.4871  1.5494
  916MOL0     H23643   8.182   8.304   6.563 -0.2714 -0.0382 -0.4431
  916MOL0     H23644   8.463   8.571   6.275 -0.5697 -1.4602  0.0356
  916MOL0     H23645   8.662   8.681   6.192 -1.7065  0.8745  1.6397
  916MOL0     H23646  10.633   9.022   5.450  0.3029  0.2371 -1.5976
  916MOL0     H23647  10.878   8.994   5.441  1.7090 -1.9069 -1.5258
  916MOL0     H23648  11.196   8.671   5.497 -1.3030  1.8111 -1.4548
  916MOL0     H23649  11.419   8.587   5.514  1.4866  0.3540 -0.2920
  916MOL0     H23650  11.628   8.600   5.498  0.8451 -0.1543  1.4554
  916MOL0     H23651  11.636   8.435   5.454  1.2299  0.5082  1.7286
  916MOL0     H23652  11.873   8.594   5.475  0.2337 -2.4584  0.3338
  916MOL0     H23653  11.836   8.540   5.309  0.9727  0.3133  0.0858
  916MOL0     H23654  11.798   8.310   5.438 -1.5929  0.5230  1.6574
  916MOL0     H23655  11.896   8.394   5.566  1.9661  0.7025  0.4395
  916MOL0     H23656  11.961   8.349   5.266 -0.9547  2.2821 -0.5007
  916MOL0     H23657  12.017   8.230   5.383  2.9835  0.3666 -2.6070
  916MOL0     H23658  12.326   8.490   5.422 -0.0698  0.4309  1.6986
  916MOL0     H23659  11.495   8.644   5.105 -0.0577 -1.8044  0.7971
  916MOL0     H23660  11.269   8.733   5.076  1.4732  1.7138 -0.7621
  917MOL0     O23661   5.364   7.153   2.310  0.1836 -0.2516 -0.5285
  917MOL0     C23662   5.406   7.086   2.212 -0.9175  0.9130 -0.0570
  917MOL0     O23663   5.337   7.048   2.107  1.0091  0.1137  0.4064
  917MOL0     C23664   5.198   7.065   2.110 -0.9737 -1.2904  1.8152
  917MOL0     C23665   5.125   6.956   2.071 -0.0067  0.5488 -0.3350
  917MOL0     C23666   4.991   6.973   2.041  0.8301 -0.6957 -0.0052
  917MOL0     C23667   4.920   7.103   2.073  0.5038 -1.0806  0.1801
  917MOL0     O23668   4.790   7.138   2.055  0.1484 -0.1096  0.0256
  917MOL0     C23669   4.721   7.072   1.948 -0.2404 -0.2931 -0.0703
  917MOL0     C23670   4.575   7.098   1.950 -0.0344  0.3339 -0.7323
  917MOL0     C23671   4.526   7.242   1.953  1.1050 -1.7676  0.1207
  917MOL0     C23672   4.369   7.246   1.936 -1.0151 -0.1667  0.2583
  917MOL0     C23673   4.315   7.390   1.952 -0.2977  0.3055 -0.0605
  917MOL0     C23674   4.161   7.390   1.919 -0.2604 -0.0752 -1.1494
  917MOL0     C23675   4.089   7.516   1.975 -0.2775  0.1569 -0.0925
  917MOL0     C23676   3.946   7.498   1.951 -0.5298  0.4328 -0.3069
  917MOL0     N23677   3.912   7.499   1.804 -0.6866 -0.1974 -0.2048
  917MOL0     C23678   3.915   7.608   1.724 -0.1510 -0.0393  1.1217
  917MOL0     C23679   3.835   7.574   1.617 -0.9151 -0.7660 -0.3124
  917MOL0     C23680   3.821   7.655   1.499 -0.1676  0.1964 -0.1030
  917MOL0     C23681   3.681   7.720   1.504 -0.4217  0.6929 -0.7364
  917MOL0     C23682   3.681   7.832   1.614  0.3071 -0.6511  0.6421
  917MOL0     C23683   3.772   7.946   1.583 -0.1256  0.0431 -0.7103
  917MOL0     O23684   3.757   8.021   1.462 -0.2350  0.9869 -0.0110
  917MOL0     C23685   3.631   8.059   1.427 -0.5555 -0.0328 -0.0063
  917MOL0     C23686   3.578   8.024   1.300  0.2289  0.2468 -0.5797
  917MOL0     C23687   3.449   8.064   1.256 -0.1292  0.7681  0.1998
  917MOL0     C23688   3.399   8.021   1.121  0.2115  0.1307  0.9691
  917MOL0     C23689   3.383   8.162   1.335  0.1653  0.1149  0.0725
  917MOL0     C23690   3.267   8.223   1.289  1.4637  0.2315  0.2922
  917MOL0     O23691   3.151   8.149   1.312  0.2269 -0.2184 -0.4842
  917MOL0     C23692   3.037   8.212   1.279  0.0217 -0.0969  0.0781
  917MOL0     C23693   3.009   8.270   1.153 -0.1812  0.2004 -0.6862
  917MOL0     C23694   2.887   8.346   1.140 -1.0047 -0.0844 -0.3508
  917MOL0     C23695   2.786   8.355   1.251 -0.4083 -0.7494  0.9583
  917MOL0     O23696   2.672   8.432   1.229  0.6216 -0.0869  0.4465
  917MOL0     C23697   2.568   8.416   1.319 -0.8133 -1.1544  0.9110
  917MOL0     C23698   2.452   8.492   1.248 -1.5690  0.7027 -0.4599
  917MOL0     C23699   2.426   8.432   1.099  0.2260 -0.0992 -0.2842
  917MOL0     C23700   2.338   8.295   1.100 -0.2639 -0.0061 -0.4641
  917MOL0     C23701   2.277   8.272   0.962 -0.0992 -0.0741 -0.2014
  917MOL0     C23702   2.378   8.238   0.849  0.3397 -0.1755 -0.4955
  917MOL0     C23703   2.466   8.113   0.872  0.1125  0.5779  0.2803
  917MOL0     C23704   2.516   8.050   0.745 -0.5291 -0.5478  0.4391
  917MOL0    Cl23705   2.604   7.896   0.806 -0.0020 -0.0376  0.3677
  917MOL0     C23706   2.824   8.288   1.367 -1.0487  0.6785 -0.1503
  917MOL0     C23707   2.944   8.229   1.385 -1.1074  0.2844  0.7588
  917MOL0     O23708   3.283   8.325   1.225 -0.5443 -0.0698 -0.1408
  917MOL0     C23709   3.439   8.201   1.459 -0.9181 -1.0254  0.9959
  917MOL0     C23710   3.558   8.142   1.513 -0.1035 -0.4902 -0.5757
  917MOL0     N23711   3.776   7.460   1.639 -0.3582  0.2853  0.1492
  917MOL0     N23712   3.817   7.416   1.753 -0.7386  0.3066 -0.4786
  917MOL0     C23713   5.002   7.209   2.115 -0.7615  0.1588  0.5718
  917MOL0     C23714   5.143   7.198   2.128 -1.1185  0.6147 -0.4737
  917MOL0     C23715   5.550   7.027   2.217 -0.7999  0.2808 -0.4555
  917MOL0     C23716   5.575   6.900   2.181 -0.8213 -0.2582 -0.2736
  917MOL0     C23717   5.699   6.854   2.183  0.0833  0.6905  1.1307
  917MOL0     C23718   5.811   6.925   2.224  0.3168  0.0234 -0.1127
  917MOL0     O23719   5.939   6.865   2.238 -0.2622 -0.6479  0.5635
  917MOL0     C23720   5.986   6.743   2.186  0.4023  0.7278  0.8091
  917MOL0     C23721   6.139   6.723   2.209  0.5971  1.0581 -0.1521
  917MOL0     C23722   6.167   6.730   2.360 -1.4351  0.4509  1.1481
  917MOL0     C23723   6.309   6.676   2.371 -0.2595 -1.0584 -0.7001
  917MOL0     C23724   6.373   6.736   2.485  0.1720 -0.3207  0.2829
  917MOL0     C23725   6.425   6.745   2.592  0.2790 -0.3204  0.1350
  917MOL0     C23726   5.786   7.057   2.259  0.0947 -0.6341  0.7649
  917MOL0     C23727   5.660   7.117   2.244  0.1132  0.1552 -0.7143
  917MOL0     H23728   5.176   6.860   2.061  3.1613  1.9818  0.7528
  917MOL0     H23729   4.924   6.894   2.009 -0.9901  0.8462 -0.2324
  917MOL0     H23730   4.760   7.122   1.859  0.4661  3.7136  2.2308
  917MOL0     H23731   4.736   6.964   1.954  0.5183 -0.1580  0.7407
  917MOL0     H23732   4.538   7.044   1.862  0.8163 -3.0839  0.8335
  917MOL0     H23733   4.529   7.040   2.030 -0.9840  0.7779 -0.9411
  917MOL0     H23734   4.539   7.283   2.054 -0.8239 -1.8312  0.4394
  917MOL0     H23735   4.584   7.304   1.884 -1.3804 -0.1692 -0.6731
  917MOL0     H23736   4.353   7.216   1.832 -0.6458 -2.5205  0.8340
  917MOL0     H23737   4.321   7.172   2.001  0.6216 -2.7324 -1.3043
  917MOL0     H23738   4.333   7.436   2.049 -0.5984  1.2817 -0.4519
  917MOL0     H23739   4.347   7.460   1.875  0.6567 -0.9877 -0.8824
  917MOL0     H23740   4.158   7.384   1.810  1.5363 -0.5294 -1.2180
  917MOL0     H23741   4.113   7.305   1.967  2.1108 -0.0695  1.5736
  917MOL0     H23742   4.104   7.527   2.082 -0.5760  2.2773 -0.2083
  917MOL0     H23743   4.135   7.603   1.926 -0.3331 -0.5009 -1.3551
  917MOL0     H23744   3.897   7.578   2.007  2.8572  1.3776  1.6102
  917MOL0     H23745   3.916   7.406   2.001  1.0243  0.9689  1.7586
  917MOL0     H23746   3.969   7.702   1.726 -1.8183  0.9610  0.7762
  917MOL0     H23747   3.902   7.728   1.496 -0.2117  0.2506  0.0640
  917MOL0     H23748   3.825   7.603   1.402  3.7769  1.5475 -0.8460
  917MOL0     H23749   3.602   7.647   1.523  1.3471 -0.8968  0.9867
  917MOL0     H23750   3.658   7.758   1.404 -0.9272  0.1546 -0.8281
  917MOL0     H23751   3.702   7.787   1.712 -3.2731 -2.1981  0.8165
  917MOL0     H23752   3.582   7.877   1.626  0.5276  0.8282 -2.2471
  917MOL0     H23753   3.877   7.916   1.589 -1.4563 -5.4277  0.5995
  917MOL0     H23754   3.752   8.010   1.670 -0.8043 -0.4808 -0.4682
  917MOL0     H23755   3.635   7.949   1.245  0.2357 -0.3199  0.1889
  917MOL0     H23756   3.467   7.951   1.071 -0.5821 -0.8802  1.2479
  917MOL0     H23757   3.307   7.962   1.126  0.8625 -0.8560  1.7571
  917MOL0     H23758   3.392   8.105   1.052 -0.1495 -0.5523  0.1431
  917MOL0     H23759   3.080   8.260   1.072  2.1517  2.7323  0.8774
  917MOL0     H23760   2.862   8.399   1.048 -3.2770  1.2832  0.9489
  917MOL0     H23761   2.550   8.308   1.325 -2.1566 -1.2650 -2.6808
  917MOL0     H23762   2.592   8.469   1.412 -1.6954 -0.6028  0.8371
  917MOL0     H23763   2.358   8.491   1.304 -1.5135  0.3972 -0.3689
  917MOL0     H23764   2.481   8.597   1.245  0.4490  0.1615 -2.3416
  917MOL0     H23765   2.514   8.404   1.041 -0.8556 -0.0021 -2.0514
  917MOL0     H23766   2.374   8.513   1.048  1.2770  1.3843  0.9081
  917MOL0     H23767   2.398   8.208   1.128  0.9608  0.9773  0.0565
  917MOL0     H23768   2.251   8.287   1.166 -1.5306 -4.6424 -2.2678
  917MOL0     H23769   2.215   8.358   0.936  1.7300  1.0934 -0.9704
  917MOL0     H23770   2.215   8.182   0.965  1.1985 -1.1512 -2.5934
  917MOL0     H23771   2.325   8.222   0.754 -0.3620  1.5725 -0.4259
  917MOL0     H23772   2.439   8.324   0.821 -0.3117  0.7991  0.9916
  917MOL0     H23773   2.403   8.037   0.920  0.3616  0.8319  1.0201
  917MOL0     H23774   2.552   8.134   0.936 -0.2905 -1.1175  1.4464
  917MOL0     H23775   2.589   8.117   0.699  0.7279 -2.2231 -0.0813
  917MOL0     H23776   2.439   8.008   0.680  0.9920 -4.9262  1.1442
  917MOL0     H23777   2.757   8.307   1.450 -1.2269  2.3669 -0.6257
  917MOL0     H23778   2.984   8.188   1.478 -1.7996 -0.1750  0.8636
  917MOL0     H23779   3.377   8.269   1.517 -0.5278  0.3213 -0.1037
  917MOL0     H23780   3.595   8.173   1.610 -0.7776 -3.1682  0.6353
  917MOL0     H23781   4.951   7.305   2.120  0.4705  0.7997  1.1525
  917MOL0     H23782   5.194   7.291   2.153 -0.9651  0.2971  0.4218
  917MOL0     H23783   5.494   6.833   2.153 -0.8782  1.0171 -3.7338
  917MOL0     H23784   5.717   6.748   2.164  1.2281  0.3945  3.5077
  917MOL0     H23785   5.933   6.666   2.241  1.2119 -0.4373  0.0104
  917MOL0     H23786   5.972   6.731   2.078 -1.2018  1.2769  0.9372
  917MOL0     H23787   6.199   6.789   2.145  1.9518  0.1560  0.1559
  917MOL0     H23788   6.154   6.621   2.173 -0.1812  0.3622  1.3756
  917MOL0     H23789   6.090   6.677   2.416 -0.6800  0.2415  2.0035
  917MOL0     H23790   6.164   6.838   2.379  0.9908  1.3901 -2.6201
  917MOL0     H23791   6.371   6.702   2.285 -3.2452 -0.7259 -2.8938
  917MOL0     H23792   6.306   6.567   2.376 -1.7744 -1.0193 -0.0207
  917MOL0     H23793   6.471   6.731   2.688 -1.8754 -0.2931  1.2269
  917MOL0     H23794   5.870   7.113   2.300 -0.5800  1.3861 -0.5111
  917MOL0     H23795   5.637   7.220   2.270 -1.7553 -1.0981  3.3691
  918MOL0     O23796   3.347  10.365  10.753 -0.5378  0.9090  0.5638
  918MOL0     C23797   3.434  10.415  10.683  0.7507  0.0888 -0.6480
  918MOL0     O23798   3.452  10.398  10.550  0.3273 -0.4048 -0.4686
  918MOL0     C23799   3.368  10.322  10.471  0.2925 -0.2785 -0.5289
  918MOL0     C23800   3.336  10.193  10.501 -0.1572  0.0967  0.4062
  918MOL0     C23801   3.255  10.113  10.414  0.5189 -0.2456  0.4180
  918MOL0     C23802   3.215  10.162  10.290  0.3023 -0.5461  0.1963
  918MOL0     O23803   3.155  10.088  10.192 -0.0875 -0.5982  0.1521
  918MOL0     C23804   3.119   9.957  10.222 -1.7409  0.6972  0.0828
  918MOL0     C23805   3.032   9.911  10.102  0.1454  0.0047 -0.9872
  918MOL0     C23806   3.010   9.759  10.100  0.0120  0.8784  1.0742
  918MOL0     C23807   2.946   9.724   9.964 -0.6855  1.0038 -1.0821
  918MOL0     C23808   2.918   9.578   9.960 -1.0980  0.3536  0.8052
  918MOL0     C23809   2.862   9.522   9.834  0.3897 -0.8511 -1.1249
  918MOL0     C23810   2.820   9.369   9.855 -0.1045  0.4033  0.7491
  918MOL0     C23811   2.819   9.296   9.717  0.1799  0.0297 -0.8822
  918MOL0     N23812   2.685   9.252   9.688 -0.1045 -0.5265  0.6495
  918MOL0     C23813   2.628   9.135   9.725 -0.0277 -0.1865  0.1008
  918MOL0     C23814   2.512   9.130   9.657 -0.2001  0.9454  0.2889
  918MOL0     C23815   2.414   9.012   9.669  0.5110  0.7868  0.7379
  918MOL0     C23816   2.285   9.033   9.746 -0.3298 -0.7624  0.3332
  918MOL0     C23817   2.197   8.905   9.751  0.2458  0.0425 -0.7929
  918MOL0     C23818   2.046   8.929   9.778 -0.4586  0.7243  0.1691
  918MOL0     O23819   1.983   8.959   9.657 -0.5872 -0.0846 -0.4138
  918MOL0     C23820   1.850   8.974   9.649  0.4546  0.4858  0.2661
  918MOL0     C23821   1.757   8.976   9.758 -1.0974  0.4010 -0.9618
  918MOL0     C23822   1.618   9.006   9.736 -0.5710  0.4381  0.1733
  918MOL0     C23823   1.534   8.999   9.859 -0.8314  0.3148  0.2268
  918MOL0     C23824   1.573   9.025   9.603 -0.7247 -0.2432  0.0764
  918MOL0     C23825   1.423   9.042   9.575 -0.3331  0.4108  0.3422
  918MOL0     O23826   1.384   9.070   9.450  0.5959 -0.2671  0.6480
  918MOL0     C23827   1.252   9.072   9.420  0.0735  0.4781  1.4110
  918MOL0     C23828   1.150   8.983   9.458 -0.4110  0.5553 -0.8923
  918MOL0     C23829   1.013   8.993   9.426  0.9500  0.0875  0.2596
  918MOL0     C23830   0.979   9.097   9.342  0.7192  0.9053  1.4970
  918MOL0     O23831   0.853   9.123   9.299  0.2234 -0.2814  0.0833
  918MOL0     C23832   0.744   9.054   9.354  0.0068  1.0218 -0.2600
  918MOL0     C23833   0.610   9.077   9.292  0.7622 -0.4647  0.5941
  918MOL0     C23834   0.612   9.029   9.148  0.0029 -0.4153  0.7189
  918MOL0     C23835   0.491   9.087   9.066 -0.5729  0.4549  0.0847
  918MOL0     C23836   0.353   9.024   9.104 -0.3785 -0.3527 -0.4912
  918MOL0     C23837   0.240   9.122   9.115 -0.6543 -0.1248 -0.3526
  918MOL0     C23838   0.106   9.062   9.161 -0.7270  0.7764 -0.7076
  918MOL0     C23839  -0.020   9.152   9.157 -0.4435  0.5717 -0.1673
  918MOL0    Cl23840  -0.160   9.054   9.207 -0.0567  0.0906  0.2334
  918MOL0     C23841   1.081   9.194   9.303 -0.4399  0.5125 -0.6630
  918MOL0     C23842   1.215   9.175   9.337 -0.0060 -0.0541 -0.1442
  918MOL0     O23843   1.343   9.031   9.671 -0.7647 -0.0556 -0.0233
  918MOL0     C23844   1.667   9.037   9.496  0.2079 -0.1478 -0.5885
  918MOL0     C23845   1.800   9.012   9.523 -0.1878 -0.2085 -0.1723
  918MOL0     N23846   2.494   9.251   9.585  0.3396  0.5929 -0.4741
  918MOL0     N23847   2.602   9.318   9.599 -0.0680  0.1838  0.5004
  918MOL0     C23848   3.237  10.301  10.267 -0.9925  0.0007 -0.2440
  918MOL0     C23849   3.318  10.375  10.352 -0.4437  0.5246 -0.9508
  918MOL0     C23850   3.523  10.519  10.750  0.7562  0.7521  0.6062
  918MOL0     C23851   3.623  10.578  10.680 -0.4302  0.0064  0.9225
  918MOL0     C23852   3.718  10.651  10.745 -0.5522  0.2763 -0.1330
  918MOL0     C23853   3.712  10.672  10.882  0.1107 -0.1665 -0.0187
  918MOL0     O23854   3.807  10.749  10.944  0.4179  0.4810 -0.0121
  918MOL0     C23855   3.933  10.779  10.890  0.8041 -0.6542 -0.9132
  918MOL0     C23856   4.032  10.670  10.866  0.7024 -0.5681  0.8951
  918MOL0     C23857   4.160  10.743  10.842 -1.4758  0.0036  0.1965
  918MOL0     C23858   4.272  10.651  10.790 -0.2417  0.0056  0.0940
  918MOL0     C23859   4.236  10.616  10.652  0.4031  0.6731 -0.7199
  918MOL0     C23860   4.205  10.556  10.547 -0.4537 -0.1606  0.6786
  918MOL0     C23861   3.610  10.625  10.956  0.5005  0.0388 -0.2057
  918MOL0     C23862   3.518  10.541  10.890  1.0844 -0.1027 -0.0274
  918MOL0     H23863   3.356  10.156  10.601 -2.2392  2.1786  1.6833
  918MOL0     H23864   3.235  10.009  10.438  0.5142  0.0665  1.8704
  918MOL0     H23865   3.205   9.891  10.226 -3.1792 -1.2095  1.3725
  918MOL0     H23866   3.063   9.950  10.316  1.3088  0.8175  2.0462
  918MOL0     H23867   2.942   9.973  10.101  1.1563  1.6199  0.8822
  918MOL0     H23868   3.090   9.943  10.015  0.2134  0.4427 -0.7859
  918MOL0     H23869   3.107   9.712  10.117 -0.4822  0.0421  1.6468
  918MOL0     H23870   2.952   9.725  10.187 -0.0526 -0.5869  0.4871
  918MOL0     H23871   2.853   9.781   9.951 -1.2932 -0.0182 -1.2631
  918MOL0     H23872   3.018   9.758   9.889  2.5150 -1.6357  0.5392
  918MOL0     H23873   3.014   9.531   9.984  1.1018  3.3575 -1.4518
  918MOL0     H23874   2.850   9.552  10.042  1.8326 -1.0251  3.0072
  918MOL0     H23875   2.776   9.580   9.799  1.1269  0.5746 -0.6503
  918MOL0     H23876   2.936   9.539   9.755  0.5907  0.2922 -0.7128
  918MOL0     H23877   2.908   9.329   9.907  1.5063  1.2404 -1.1837
  918MOL0     H23878   2.735   9.344   9.919 -0.3839 -0.7652 -0.0425
  918MOL0     H23879   2.889   9.214   9.734  1.5457  1.4803  1.0892
  918MOL0     H23880   2.859   9.363   9.640 -0.2416  1.4417  0.0753
  918MOL0     H23881   2.665   9.058   9.791 -2.3143 -0.2833  1.3720
  918MOL0     H23882   2.376   8.986   9.570 -0.3950  1.1983  0.9608
  918MOL0     H23883   2.460   8.925   9.717  0.7496 -0.0526 -0.9559
  918MOL0     H23884   2.241   9.111   9.684  3.0306  0.6364 -0.4928
  918MOL0     H23885   2.304   9.068   9.848  3.1231  2.3590 -1.1592
  918MOL0     H23886   2.235   8.838   9.829  1.8471  0.2780 -1.3453
  918MOL0     H23887   2.213   8.854   9.655  1.8995 -0.9086 -0.0473
  918MOL0     H23888   2.040   9.004   9.858  1.4570  0.7699  0.3249
  918MOL0     H23889   2.000   8.837   9.817  2.6335  0.3108  3.3793
  918MOL0     H23890   1.795   8.948   9.855 -1.7827  0.7429 -0.5820
  918MOL0     H23891   1.468   8.912   9.863  0.8230 -0.9586  2.4450
  918MOL0     H23892   1.597   9.002   9.949  0.7515  2.5869 -0.8589
  918MOL0     H23893   1.480   9.093   9.868 -1.0438  0.1110  1.3041
  918MOL0     H23894   1.180   8.910   9.533 -0.0598  0.1252 -1.4395
  918MOL0     H23895   0.937   8.925   9.463  2.3985 -3.0764 -2.1056
  918MOL0     H23896   0.768   8.951   9.324  1.5818  1.4845 -0.6618
  918MOL0     H23897   0.732   9.073   9.461 -1.3336  5.1846 -0.9596
  918MOL0     H23898   0.521   9.047   9.348 -0.5282 -1.2239 -1.7133
  918MOL0     H23899   0.593   9.185   9.296 -1.8528 -0.6635 -1.6517
  918MOL0     H23900   0.611   8.920   9.157  0.8283 -0.3489  1.8964
  918MOL0     H23901   0.703   9.062   9.096 -0.4807  2.4692  1.5476
  918MOL0     H23902   0.481   9.196   9.074 -4.3821  0.2481 -0.1194
  918MOL0     H23903   0.508   9.070   8.959 -3.8262  2.3704 -0.8749
  918MOL0     H23904   0.351   8.962   9.194  0.1093  0.6580  0.2392
  918MOL0     H23905   0.327   8.960   9.019  0.6216  0.0847 -1.1449
  918MOL0     H23906   0.263   9.198   9.190 -1.0329 -1.3922  1.0917
  918MOL0     H23907   0.226   9.176   9.021 -0.5493 -2.2492 -1.6586
  918MOL0     H23908   0.112   9.019   9.262 -4.5108 -0.4854 -0.8324
  918MOL0     H23909   0.089   8.969   9.105  2.2121 -1.0259  1.1341
  918MOL0     H23910  -0.042   9.160   9.050 -2.3369 -0.6599  0.0723
  918MOL0     H23911  -0.008   9.248   9.208  1.3489  1.5948 -2.3238
  918MOL0     H23912   1.058   9.277   9.237  0.0411  0.0060 -1.4836
  918MOL0     H23913   1.297   9.234   9.299  0.0684 -0.0471  0.0236
  918MOL0     H23914   1.645   9.055   9.392  1.8242 -1.8652 -1.2790
  918MOL0     H23915   1.878   9.001   9.448 -0.3409 -0.3985 -0.3041
  918MOL0     H23916   3.200  10.344  10.174 -0.9851 -0.7601 -0.6069
  918MOL0     H23917   3.333  10.481  10.333  1.5777  0.1777 -1.5440
  918MOL0     H23918   3.637  10.553  10.575 -0.9846 -2.0964  1.2956
  918MOL0     H23919   3.798  10.688  10.682 -1.2385 -1.4557 -2.1495
  918MOL0     H23920   3.914  10.826  10.793 -2.2352  2.9101  1.1211
  918MOL0     H23921   3.976  10.849  10.962  1.1603 -2.3495  0.6148
  918MOL0     H23922   3.998  10.622  10.774  0.2255 -5.0043  3.1277
  918MOL0     H23923   4.034  10.591  10.941 -2.2807 -0.7208  0.9177
  918MOL0     H23924   4.193  10.810  10.922 -2.7347 -0.4615  1.1273
  918MOL0     H23925   4.147  10.827  10.772 -0.4014  1.0793  1.2230
  918MOL0     H23926   4.265  10.569  10.861  0.9694  1.5542  2.0818
  918MOL0     H23927   4.371  10.697  10.797 -0.1660 -0.3898  2.1325
  918MOL0     H23928   4.166  10.502  10.463  1.9999  0.4182 -0.9299
  918MOL0     H23929   3.592  10.633  11.063 -2.7137 -0.0476 -0.6517
  918MOL0     H23930   3.443  10.497  10.955  0.8872  0.1719 -0.0726
  919MOL0     O23931  11.332   4.973   9.847  0.0560  0.1171  0.2294
  919MOL0     C23932  11.359   4.986   9.728 -0.8749  0.9424  0.0284
  919MOL0     O23933  11.285   5.053   9.636  0.6536  0.3643 -0.2659
  919MOL0     C23934  11.163   5.108   9.662 -0.2150  0.3649 -0.6330
  919MOL0     C23935  11.131   5.213   9.589  0.7695 -0.4434 -0.1170
  919MOL0     C23936  11.004   5.268   9.599 -0.2154  0.0747  0.8003
  919MOL0     C23937  10.909   5.213   9.686  0.5994  0.2896 -0.7245
  919MOL0     O23938  10.783   5.274   9.686  0.1741 -0.3157 -0.0434
  919MOL0     C23939  10.680   5.209   9.763  0.0543  0.1599  0.3659
  919MOL0     C23940  10.551   5.286   9.738 -0.5370 -0.7036 -0.6328
  919MOL0     C23941  10.446   5.225   9.832  0.0399 -0.4232 -0.3280
  919MOL0     C23942  10.308   5.297   9.817 -0.3443  0.1854 -0.0783
  919MOL0     C23943  10.194   5.238   9.902  0.2586 -0.5524 -0.1723
  919MOL0     C23944  10.084   5.341   9.930  0.1812  0.4426  0.6174
  919MOL0     C23945   9.973   5.280  10.006 -0.4622  0.6202 -0.5221
  919MOL0     C23946   9.864   5.215   9.921 -1.0990 -0.7371  0.1232
  919MOL0     N23947   9.749   5.164  10.001  0.1041 -0.2469  0.2317
  919MOL0     C23948   9.627   5.137   9.937 -0.5843 -0.0189 -0.2427
  919MOL0     C23949   9.543   5.091  10.036 -0.9882 -0.2449  0.1901
  919MOL0     C23950   9.409   5.027  10.017  0.7555  0.6959  0.2819
  919MOL0     C23951   9.413   4.902   9.930  0.7860 -0.5113 -0.4430
  919MOL0     C23952   9.508   4.797   9.991 -0.0121 -0.6651  0.1186
  919MOL0     C23953   9.479   4.648   9.960 -1.1573  0.3457 -0.3218
  919MOL0     O23954   9.534   4.603   9.833  0.7055 -0.2543 -0.3955
  919MOL0     C23955   9.640   4.523   9.828 -0.1042  0.0008 -0.3488
  919MOL0     C23956   9.659   4.450   9.715 -0.7224  0.1900  1.0965
  919MOL0     C23957   9.775   4.369   9.693  0.4627 -0.3495  0.0310
  919MOL0     C23958   9.798   4.302   9.558  0.5110  0.2150 -0.5816
  919MOL0     C23959   9.866   4.358   9.805  0.5001 -0.3532 -0.1387
  919MOL0     C23960   9.991   4.279   9.805 -0.8568 -0.5171 -0.4237
  919MOL0     O23961  10.097   4.320   9.892  0.3956 -0.6068 -0.2349
  919MOL0     C23962  10.217   4.267   9.860  0.3439 -0.0051  0.1953
  919MOL0     C23963  10.298   4.339   9.767 -1.4014  0.5432 -0.2703
  919MOL0     C23964  10.424   4.288   9.738  0.2980 -0.1461  0.5879
  919MOL0     C23965  10.461   4.161   9.789  0.0790 -0.6396 -0.2354
  919MOL0     O23966  10.585   4.117   9.753  0.0369  0.4333  0.1735
  919MOL0     C23967  10.684   4.169   9.843 -0.0552  0.3458  1.2005
  919MOL0     C23968  10.814   4.144   9.758 -0.1661 -0.2234  0.0549
  919MOL0     C23969  10.936   4.200   9.837  1.3718  0.7571  0.1791
  919MOL0     C23970  11.065   4.145   9.776  0.0389 -0.1117 -0.6430
  919MOL0     C23971  11.192   4.177   9.860  0.6833 -0.0841 -0.8539
  919MOL0     C23972  11.206   4.124  10.007  0.1851 -0.0216 -0.2805
  919MOL0     C23973  11.331   4.161  10.064  0.6409  0.5804  0.1410
  919MOL0     C23974  11.350   4.100  10.199 -0.2103 -0.5911  0.3134
  919MOL0    Cl23975  11.507   4.151  10.250 -0.6525 -0.0116 -0.5283
  919MOL0     C23976  10.375   4.084   9.865  0.4890  0.5953 -0.7056
  919MOL0     C23977  10.253   4.142   9.907 -0.4554  0.0871 -0.7388
  919MOL0     O23978  10.002   4.185   9.727 -0.4785  0.2067 -0.3593
  919MOL0     C23979   9.845   4.439   9.912 -0.3669  0.6541 -0.5725
  919MOL0     C23980   9.731   4.521   9.936  0.7395  0.1355  0.3956
  919MOL0     N23981   9.619   5.086  10.159  0.3977 -0.1244  0.7430
  919MOL0     N23982   9.738   5.130  10.131  0.8288 -0.5503  0.0485
  919MOL0     C23983  10.947   5.102   9.769 -0.4184  1.0217  0.5082
  919MOL0     C23984  11.074   5.053   9.753  0.1637  0.2331 -0.5187
  919MOL0     C23985  11.472   4.900   9.678  0.3051 -0.1029  0.2478
  919MOL0     C23986  11.572   4.856   9.765 -0.2614  0.0759  1.0104
  919MOL0     C23987  11.678   4.777   9.721  0.3425 -0.5046  0.0377
  919MOL0     C23988  11.684   4.752   9.589  0.5923  0.1976  0.0260
  919MOL0     O23989  11.775   4.665   9.535  0.1480 -0.7693  0.0756
  919MOL0     C23990  11.914   4.680   9.579  0.1465  0.1062  0.1878
  919MOL0     C23991  11.963   4.833   9.563 -0.2178  1.0164  0.0177
  919MOL0     C23992  11.945   4.876   9.412  0.3549 -0.3986  0.2459
  919MOL0     C23993  11.999   5.021   9.394  0.1501  0.2544 -1.0215
  919MOL0     C23994  12.144   5.017   9.411 -0.4096  0.3072  0.1717
  919MOL0     C23995  12.265   5.000   9.421  0.4609 -0.0494  0.2924
  919MOL0     C23996  11.592   4.795   9.499  0.0207 -0.0963 -0.2625
  919MOL0     C23997  11.484   4.871   9.542  0.3931  0.0264 -1.1406
  919MOL0     H23998  11.188   5.257   9.508 -0.6737  1.4647 -0.1879
  919MOL0     H23999  10.968   5.350   9.539  1.1271  1.2172  1.4813
  919MOL0     H24000  10.668   5.101   9.749 -2.0909  0.4313 -0.3337
  919MOL0     H24001  10.712   5.216   9.868  0.7221  1.3738  0.1035
  919MOL0     H24002  10.567   5.391   9.763 -0.4650 -0.8592 -0.0010
  919MOL0     H24003  10.524   5.275   9.633 -1.1916  0.9477 -0.6597
  919MOL0     H24004  10.445   5.116   9.827  0.1186 -0.4501  0.1694
  919MOL0     H24005  10.478   5.259   9.932  0.6940  0.9557 -0.9677
  919MOL0     H24006  10.322   5.402   9.843 -1.6397  0.4695 -0.4622
  919MOL0     H24007  10.266   5.300   9.716  0.4805 -0.4542 -0.4500
  919MOL0     H24008  10.136   5.163   9.848  0.9049 -0.7978 -0.5304
  919MOL0     H24009  10.229   5.207  10.001 -0.6320  1.7237  0.9390
  919MOL0     H24010  10.129   5.426   9.981  0.0778 -0.3378  2.0770
  919MOL0     H24011  10.042   5.384   9.839 -1.2108 -3.3031 -0.7038
  919MOL0     H24012  10.009   5.208  10.081 -0.8038  0.4683 -0.4965
  919MOL0     H24013   9.929   5.362  10.064 -0.3577 -0.8972  1.8774
  919MOL0     H24014   9.918   5.131   9.877 -0.2109  0.5232 -1.2981
  919MOL0     H24015   9.844   5.292   9.846  5.3100 -0.4009 -1.8786
  919MOL0     H24016   9.603   5.146   9.831  1.4930  0.3883 -0.7344
  919MOL0     H24017   9.379   5.003  10.120 -1.6124  1.4614 -0.1532
  919MOL0     H24018   9.335   5.096   9.977 -1.1757 -0.2602  1.9832
  919MOL0     H24019   9.435   4.919   9.825 -0.4108 -4.1798 -1.4308
  919MOL0     H24020   9.310   4.868   9.942  0.9490 -1.8422 -2.4310
  919MOL0     H24021   9.512   4.807  10.100  0.6165  3.7684 -0.1292
  919MOL0     H24022   9.610   4.817   9.957 -0.4009  0.3320 -0.4885
  919MOL0     H24023   9.370   4.640   9.958 -1.2669  1.0215  1.2640
  919MOL0     H24024   9.503   4.581  10.044  0.3327 -2.1475 -2.5826
  919MOL0     H24025   9.593   4.458   9.629 -2.7882  1.1311  2.6813
  919MOL0     H24026   9.760   4.200   9.554  0.2368  0.0667  2.6396
  919MOL0     H24027   9.740   4.362   9.487 -0.6700 -0.8528 -0.5622
  919MOL0     H24028   9.904   4.297   9.535  0.6631 -1.7402  0.3786
  919MOL0     H24029  10.264   4.437   9.737  3.5019  4.0532  3.7870
  919MOL0     H24030  10.491   4.338   9.668  1.0493 -1.2815  0.4691
  919MOL0     H24031  10.680   4.275   9.869 -0.3012  0.5023  0.5482
  919MOL0     H24032  10.685   4.112   9.936  0.4719  0.1170  1.0584
  919MOL0     H24033  10.826   4.040   9.728 -0.1551  0.5637 -3.0062
  919MOL0     H24034  10.805   4.192   9.660  1.2033 -1.0357 -0.5128
  919MOL0     H24035  10.925   4.166   9.941  1.1268  1.1731  0.2910
  919MOL0     H24036  10.942   4.309   9.844  2.2885  0.6347  2.3072
  919MOL0     H24037  11.057   4.037   9.759 -3.5902  0.0366 -0.6233
  919MOL0     H24038  11.073   4.207   9.687  2.2965  1.5520  0.6081
  919MOL0     H24039  11.183   4.286   9.866  0.5168 -0.0051 -2.1704
  919MOL0     H24040  11.279   4.140   9.805  2.1530  3.4325 -1.1801
  919MOL0     H24041  11.119   4.151  10.068  0.4696 -0.2407  0.2367
  919MOL0     H24042  11.207   4.014  10.001 -1.1539 -0.1323  1.0629
  919MOL0     H24043  11.341   4.270  10.071  0.2829  0.5515  1.1977
  919MOL0     H24044  11.409   4.118  10.000 -1.3354 -0.5804 -1.5942
  919MOL0     H24045  11.333   3.992  10.201 -0.1182 -0.8021 -3.0990
  919MOL0     H24046  11.276   4.142  10.268 -1.5316  1.3392 -2.0911
  919MOL0     H24047  10.393   3.990   9.916 -0.6308 -0.6584 -2.5145
  919MOL0     H24048  10.178   4.084   9.960 -1.0775  0.0037 -1.6794
  919MOL0     H24049   9.910   4.436   9.999  2.8403 -1.5600 -2.8319
  919MOL0     H24050   9.719   4.589  10.019 -0.4219 -1.6083  1.7134
  919MOL0     H24051  10.882   5.049   9.838  0.0632  0.0467  0.2272
  919MOL0     H24052  11.096   4.968   9.817 -0.2140 -0.5241 -1.3923
  919MOL0     H24053  11.585   4.880   9.870  0.9204  3.6657  0.1929
  919MOL0     H24054  11.743   4.734   9.796  1.1814 -0.1215 -0.4651
  919MOL0     H24055  11.919   4.641   9.681  1.8251  0.2049  0.1706
  919MOL0     H24056  11.971   4.632   9.499  0.3727 -0.5739  0.7547
  919MOL0     H24057  12.062   4.853   9.605  0.6403  0.7556 -1.7812
  919MOL0     H24058  11.907   4.907   9.622  0.0323  1.8344 -0.7416
  919MOL0     H24059  11.840   4.884   9.381  0.5645  0.0484 -0.3730
  919MOL0     H24060  11.989   4.801   9.346  2.9108  2.3049 -1.3932
  919MOL0     H24061  11.955   5.084   9.472 -0.1814 -1.0980 -0.0751
  919MOL0     H24062  11.964   5.056   9.296 -0.4731 -0.2054 -0.9693
  919MOL0     H24063  12.371   4.984   9.420  0.2533 -1.5666 -0.1022
  919MOL0     H24064  11.620   4.783   9.395  0.9219  1.0335 -0.1692
  919MOL0     H24065  11.426   4.920   9.465  2.3476  0.2915 -2.5371
  920MOL0     O24066   8.204   9.866   6.845  0.0872  0.2887 -0.6068
  920MOL0     C24067   8.317   9.884   6.885 -0.4552  0.3296  0.3543
  920MOL0     O24068   8.378  10.001   6.929  0.1486 -0.0007 -0.5360
  920MOL0     C24069   8.308  10.115   6.962 -0.3283  0.2490  0.1357
  920MOL0     C24070   8.268  10.214   6.872 -0.3720  0.3615 -0.0362
  920MOL0     C24071   8.176  10.308   6.914  0.1428  0.5772  1.1058
  920MOL0     C24072   8.143  10.314   7.050 -0.5359 -0.8732 -0.3964
  920MOL0     O24073   8.076  10.426   7.093  0.7062  0.6487  0.2722
  920MOL0     C24074   8.018  10.433   7.217  0.3142 -0.4718  0.1346
  920MOL0     C24075   7.964  10.577   7.248  0.1815  0.5567 -0.0722
  920MOL0     C24076   7.974  10.616   7.397  0.0039 -0.0697 -0.2420
  920MOL0     C24077   7.867  10.552   7.492  0.3394  0.5803  0.1191
  920MOL0     C24078   7.904  10.580   7.634  0.4266 -0.3573 -0.2863
  920MOL0     C24079   7.827  10.485   7.730  0.4193 -0.4143  0.2748
  920MOL0     C24080   7.872  10.452   7.875 -0.6398  0.2178 -0.3115
  920MOL0     C24081   7.923  10.576   7.963  0.4663 -0.0034  0.5691
  920MOL0     N24082   8.073  10.585   7.944 -0.6269 -0.2424 -0.6538
  920MOL0     C24083   8.135  10.706   7.921  0.1171  0.2504 -0.0992
  920MOL0     C24084   8.267  10.668   7.914  0.4111 -0.6682  0.5139
  920MOL0     C24085   8.381  10.761   7.893 -0.4386  0.3126 -0.7476
  920MOL0     C24086   8.385  10.809   7.746  0.1310 -0.8477  0.5672
  920MOL0     C24087   8.438  10.713   7.641  0.1548  0.0119 -0.0528
  920MOL0     C24088   8.338  10.595   7.614 -0.4028  0.6131 -0.9001
  920MOL0     O24089   8.384  10.501   7.511 -0.3120  0.8098  0.4704
  920MOL0     C24090   8.329  10.373   7.503 -0.4857  0.5766  0.1839
  920MOL0     C24091   8.205  10.340   7.561 -0.0359  0.3796  0.0401
  920MOL0     C24092   8.170  10.197   7.572 -0.8729 -0.6023 -0.0578
  920MOL0     C24093   8.049  10.171   7.658  0.2479  0.2324 -0.4011
  920MOL0     C24094   8.232  10.101   7.490 -1.1892 -0.2201  0.4088
  920MOL0     C24095   8.199   9.959   7.472 -0.2966  0.5616 -0.1223
  920MOL0     O24096   8.252   9.896   7.362  0.0606 -0.0127 -0.6277
  920MOL0     C24097   8.283   9.760   7.356  0.0159 -0.9071  1.3364
  920MOL0     C24098   8.324   9.692   7.472  0.9005  0.0242  0.0437
  920MOL0     C24099   8.377   9.559   7.460 -0.8635 -1.3377  0.4986
  920MOL0     C24100   8.384   9.495   7.334 -0.5447  0.1401 -0.3363
  920MOL0     O24101   8.462   9.382   7.308  1.1089 -0.9281 -0.3074
  920MOL0     C24102   8.556   9.328   7.413  0.3559 -0.0959 -0.6451
  920MOL0     C24103   8.686   9.416   7.442 -0.3727 -0.2971  0.0351
  920MOL0     C24104   8.773   9.426   7.315  1.0012 -0.1308 -0.1296
  920MOL0     C24105   8.904   9.497   7.344  0.3998 -0.2351  0.4267
  920MOL0     C24106   8.928   9.623   7.256  0.1982  0.3896 -0.1286
  920MOL0     C24107   8.840   9.741   7.302  0.4642  0.2851  0.2164
  920MOL0     C24108   8.865   9.860   7.217  0.3295  0.1727  0.2654
  920MOL0     C24109   8.792   9.981   7.254  0.9629 -0.3627  0.0644
  920MOL0    Cl24110   8.616   9.972   7.231 -0.5748 -0.2641  0.4001
  920MOL0     C24111   8.327   9.557   7.222 -0.7396  0.5147  0.3225
  920MOL0     C24112   8.289   9.689   7.231 -0.5091 -0.0335  0.1331
  920MOL0     O24113   8.130   9.912   7.558  0.1882  0.0167 -0.5594
  920MOL0     C24114   8.356  10.149   7.431 -0.2085  0.1179  0.2259
  920MOL0     C24115   8.404  10.273   7.433  0.1440  0.3200 -0.5204
  920MOL0     N24116   8.274  10.536   7.943 -1.3645 -0.0254 -0.2765
  920MOL0     N24117   8.164  10.487   7.974 -0.1710 -0.0650 -0.0039
  920MOL0     C24118   8.200  10.222   7.142  0.5686 -0.2168  0.6632
  920MOL0     C24119   8.273  10.115   7.095 -0.2283 -0.3097  0.4330
  920MOL0     C24120   8.406   9.770   6.897 -0.1323  0.3211 -0.2957
  920MOL0     C24121   8.524   9.765   6.973 -0.1503  0.3145  0.2478
  920MOL0     C24122   8.596   9.636   6.986  0.2276 -0.8027 -1.4296
  920MOL0     C24123   8.545   9.527   6.924  0.1252 -0.7327  0.3500
  920MOL0     O24124   8.603   9.406   6.943 -0.6700  0.1435  1.6188
  920MOL0     C24125   8.737   9.402   6.888  0.3061 -0.4069  0.1279
  920MOL0     C24126   8.747   9.275   6.810 -0.9763  0.0421  0.7001
  920MOL0     C24127   8.743   9.142   6.896  0.8051  0.2347 -0.4076
  920MOL0     C24128   8.777   9.029   6.803 -0.2565 -0.2742  0.3096
  920MOL0     C24129   8.766   8.904   6.880  0.8378 -0.3967 -0.2321
  920MOL0     C24130   8.768   8.810   6.953  0.4621 -0.8413 -0.4481
  920MOL0     C24131   8.434   9.538   6.847  0.1446  0.3414 -1.0347
  920MOL0     C24132   8.367   9.656   6.835  0.4597 -0.0726  0.7774
  920MOL0     H24133   8.296  10.218   6.767 -1.3987  0.8779 -0.3023
  920MOL0     H24134   8.130  10.382   6.849 -1.0129 -1.1266 -0.1117
  920MOL0     H24135   7.942  10.354   7.220  0.0348 -0.2802 -1.3306
  920MOL0     H24136   8.090  10.411   7.297 -0.1864  3.9263  2.0873
  920MOL0     H24137   8.028  10.650   7.198  1.6381  1.2634  2.6639
  920MOL0     H24138   7.863  10.586   7.208  0.4410 -0.6351 -1.0759
  920MOL0     H24139   8.076  10.586   7.423 -0.5373 -1.2781  0.5348
  920MOL0     H24140   7.952  10.723   7.385 -1.5269 -0.5986 -3.1440
  920MOL0     H24141   7.774  10.606   7.468  0.5678  1.0936  0.3768
  920MOL0     H24142   7.865  10.444   7.475  2.9583  0.2873  1.2220
  920MOL0     H24143   8.011  10.564   7.646  0.6305  1.8470  1.5232
  920MOL0     H24144   7.873  10.683   7.655  0.0186  0.0438 -2.5673
  920MOL0     H24145   7.724  10.521   7.739 -0.1364 -2.4113  3.3487
  920MOL0     H24146   7.817  10.387   7.683 -0.5662  0.1367 -0.7134
  920MOL0     H24147   7.792  10.399   7.929  0.6323  0.3000  1.7746
  920MOL0     H24148   7.957  10.384   7.881 -0.0894  0.9737  0.7900
  920MOL0     H24149   7.909  10.564   8.071  0.0889 -1.6620  0.3586
  920MOL0     H24150   7.874  10.666   7.924  1.6774 -0.4917 -2.3241
  920MOL0     H24151   8.079  10.798   7.909 -1.7378 -0.8826 -0.6058
  920MOL0     H24152   8.362  10.849   7.954 -1.5610 -1.5094  1.6956
  920MOL0     H24153   8.469  10.703   7.923 -1.9404 -1.4667  0.4577
  920MOL0     H24154   8.461  10.887   7.754 -2.0349  1.7602 -2.0018
  920MOL0     H24155   8.286  10.845   7.717  0.6389  1.3255  1.3296
  920MOL0     H24156   8.536  10.681   7.677  0.1672 -1.3370 -1.2056
  920MOL0     H24157   8.461  10.774   7.553 -1.8027  0.6096 -0.1965
  920MOL0     H24158   8.241  10.644   7.607 -0.7106  0.7437  2.5657
  920MOL0     H24159   8.335  10.533   7.704  0.9645  1.6576 -0.0792
  920MOL0     H24160   8.148  10.411   7.620 -1.7675  0.9313 -2.1520
  920MOL0     H24161   8.068  10.097   7.736  0.8361  2.0172  1.2301
  920MOL0     H24162   8.022  10.265   7.706 -1.7275 -0.0793 -0.8078
  920MOL0     H24163   7.960  10.147   7.598 -1.0396  1.4541  0.9366
  920MOL0     H24164   8.333   9.743   7.567  0.6660 -2.9768  1.8030
  920MOL0     H24165   8.418   9.519   7.551  0.3645 -2.2429 -0.4152
  920MOL0     H24166   8.496   9.301   7.499 -0.8385  1.9601 -0.7688
  920MOL0     H24167   8.590   9.231   7.376 -1.2275 -0.2662 -1.7489
  920MOL0     H24168   8.656   9.517   7.469 -1.4418 -0.6747  0.3092
  920MOL0     H24169   8.735   9.377   7.532 -0.3506 -1.7699 -0.5931
  920MOL0     H24170   8.709   9.470   7.238 -1.6987 -2.0678  0.8367
  920MOL0     H24171   8.805   9.331   7.269 -1.8444  0.6360 -4.3320
  920MOL0     H24172   8.912   9.520   7.451 -0.1772  3.3014 -0.1723
  920MOL0     H24173   8.985   9.429   7.315 -1.2752 -1.0483 -2.7086
  920MOL0     H24174   8.910   9.605   7.149  3.7238  0.3651 -0.8420
  920MOL0     H24175   9.032   9.655   7.267  0.4584 -0.8160  1.2238
  920MOL0     H24176   8.734   9.713   7.295  0.3928  0.7665 -0.8598
  920MOL0     H24177   8.867   9.767   7.405 -0.7661 -0.7414  0.8276
  920MOL0     H24178   8.852   9.840   7.110  2.1328  0.2502 -0.0100
  920MOL0     H24179   8.972   9.882   7.232  0.1517  1.0210  0.3399
  920MOL0     H24180   8.836  10.068   7.204 -0.9094  0.9200  0.5333
  920MOL0     H24181   8.808   9.998   7.361 -1.2418 -0.2853  0.4280
  920MOL0     H24182   8.325   9.504   7.127 -2.7291 -2.4976  1.8691
  920MOL0     H24183   8.265   9.742   7.140 -0.0950  3.1776  1.7583
  920MOL0     H24184   8.412  10.088   7.360  1.7473  2.0014  0.0420
  920MOL0     H24185   8.499  10.297   7.388 -0.4839  0.5742 -1.7658
  920MOL0     H24186   8.191  10.249   7.247  0.3578  3.3323 -0.1600
  920MOL0     H24187   8.296  10.022   7.146 -1.5336 -2.0914 -2.0288
  920MOL0     H24188   8.565   9.855   7.016  1.4173 -0.9775  1.5919
  920MOL0     H24189   8.692   9.646   7.037 -0.8153 -4.3788  1.6608
  920MOL0     H24190   8.758   9.491   6.829 -0.7221 -0.4769 -0.3630
  920MOL0     H24191   8.811   9.407   6.968 -0.2848 -1.1316  0.7398
  920MOL0     H24192   8.848   9.278   6.768 -0.7027  2.0014  1.4116
  920MOL0     H24193   8.681   9.274   6.724  1.0317  1.6212 -0.9725
  920MOL0     H24194   8.643   9.142   6.941  0.1805  0.2755 -1.7516
  920MOL0     H24195   8.822   9.143   6.972  1.2655 -0.4159 -0.8681
  920MOL0     H24196   8.871   9.029   6.748  1.5299 -1.8445  3.1144
  920MOL0     H24197   8.699   9.024   6.726 -2.5381 -3.2269  2.5523
  920MOL0     H24198   8.752   8.736   7.030 -4.0010 -0.3794 -0.6801
  920MOL0     H24199   8.402   9.456   6.783  2.5075 -0.3387 -1.4292
  920MOL0     H24200   8.279   9.653   6.771  0.4601  2.0853  0.6141
  921MOL0     O24201   2.076  11.232   1.550 -0.4687 -0.2998  0.1384
  921MOL0     C24202   2.091  11.308   1.644 -0.7980  0.2689  0.1257
  921MOL0     O24203   1.999  11.379   1.711  0.2046 -0.1922  0.0592
  921MOL0     C24204   1.869  11.364   1.670  0.0744  0.2550 -0.4190
  921MOL0     C24205   1.814  11.432   1.561  0.3944 -0.2417  0.6408
  921MOL0     C24206   1.683  11.412   1.527  0.9510  0.0414 -0.1207
  921MOL0     C24207   1.596  11.327   1.597 -0.0836 -0.3791  0.0611
  921MOL0     O24208   1.462  11.331   1.564 -0.0796 -0.0787  0.0071
  921MOL0     C24209   1.410  11.202   1.524  0.3937  0.7885  0.3133
  921MOL0     C24210   1.321  11.188   1.393 -0.7236 -0.1068 -0.0550
  921MOL0     C24211   1.243  11.053   1.392  0.6774 -0.5199  0.3773
  921MOL0     C24212   1.232  10.990   1.256  0.0511  0.3224  0.3885
  921MOL0     C24213   1.135  10.868   1.268  0.9143 -0.1244  0.5221
  921MOL0     C24214   0.998  10.889   1.332 -0.6986  0.5682  0.1901
  921MOL0     C24215   0.911  10.772   1.327 -0.2047 -0.2563  0.7608
  921MOL0     C24216   0.838  10.769   1.202  0.1408 -0.6354 -0.9233
  921MOL0     N24217   0.763  10.638   1.196  0.2824 -0.4559  0.4777
  921MOL0     C24218   0.813  10.533   1.113  0.2409  1.1269 -0.5152
  921MOL0     C24219   0.712  10.446   1.115  0.1208  0.1079  0.0066
  921MOL0     C24220   0.721  10.308   1.058  0.0331  0.0958  0.2614
  921MOL0     C24221   0.594  10.229   1.099  0.1381 -1.0502  0.4871
  921MOL0     C24222   0.610  10.078   1.089 -0.5086  0.1012  0.4551
  921MOL0     C24223   0.488  10.010   1.143 -0.8016  0.5674 -0.6834
  921MOL0     O24224   0.381  10.020   1.047 -0.6709  0.4113 -0.1091
  921MOL0     C24225   0.256   9.977   1.077  0.0548  0.4748 -0.7495
  921MOL0     C24226   0.170   9.991   0.978  0.2642  0.5384 -0.2265
  921MOL0     C24227   0.036   9.951   0.989 -0.0089 -0.0388 -0.9646
  921MOL0     C24228  -0.047   9.995   0.880  0.9180 -0.1592  0.5092
  921MOL0     C24229  -0.000   9.875   1.108 -0.8174 -0.5451 -0.2378
  921MOL0     C24230  -0.133   9.808   1.124 -0.5997  0.0325  0.6910
  921MOL0     O24231  -0.153   9.745   1.236  0.0080  0.1987 -0.2368
  921MOL0     C24232  -0.267   9.695   1.288  0.2364 -0.6372  0.5471
  921MOL0     C24233  -0.276   9.558   1.328  0.7920  0.2642 -0.0148
  921MOL0     C24234  -0.389   9.497   1.373  0.0327 -0.3026 -0.8245
  921MOL0     C24235  -0.490   9.585   1.409  0.1433  0.5284  1.4933
  921MOL0     O24236  -0.601   9.523   1.470 -0.1751  0.1983 -0.6141
  921MOL0     C24237  -0.672   9.610   1.564  1.1259  0.0291 -0.5596
  921MOL0     C24238  -0.789   9.537   1.636 -0.1504 -0.0644 -0.3495
  921MOL0     C24239  -0.847   9.607   1.766  0.4132 -0.1618 -0.6936
  921MOL0     C24240  -0.959   9.514   1.819 -0.0922  0.8657  0.5689
  921MOL0     C24241  -1.033   9.578   1.932 -0.9650  0.6713 -0.0233
  921MOL0     C24242  -1.126   9.683   1.885  0.3149 -0.5795  0.0451
  921MOL0     C24243  -1.196   9.768   2.004 -1.1801 -0.0031 -0.0185
  921MOL0     C24244  -1.345   9.773   1.992 -0.0457 -0.7142  0.8409
  921MOL0    Cl24245  -1.410   9.659   2.103  0.2270 -0.4083  0.2504
  921MOL0     C24246  -0.486   9.724   1.384  0.1010 -0.0338  0.7245
  921MOL0     C24247  -0.375   9.779   1.320  0.1633  0.9845  0.4776
  921MOL0     O24248  -0.208   9.813   1.029 -0.2779 -0.0036 -0.3733
  921MOL0     C24249   0.095   9.865   1.211 -1.1472 -0.3237 -0.4146
  921MOL0     C24250   0.229   9.900   1.188  1.3978 -0.4964  1.1453
  921MOL0     N24251   0.604  10.504   1.177 -0.4587  0.3883  0.2905
  921MOL0     N24252   0.640  10.618   1.233 -0.2306  0.1286 -0.0253
  921MOL0     C24253   1.647  11.268   1.711  0.4563  0.6199 -0.5860
  921MOL0     C24254   1.780  11.283   1.748 -0.2487 -0.1981  0.3718
  921MOL0     C24255   2.229  11.310   1.715 -0.1308 -0.1337  0.3010
  921MOL0     C24256   2.350  11.296   1.635 -0.3303 -0.6946  0.7925
  921MOL0     C24257   2.477  11.309   1.698 -0.5457  0.1662 -0.5883
  921MOL0     C24258   2.484  11.319   1.838 -0.1312 -0.6044  0.7972
  921MOL0     O24259   2.607  11.320   1.897  0.0216  0.1357  0.7453
  921MOL0     C24260   2.630  11.350   2.038  0.8461 -0.0552  0.1592
  921MOL0     C24261   2.776  11.308   2.057  0.0609 -0.3964  0.1084
  921MOL0     C24262   2.879  11.350   1.954 -0.8629  0.4892  0.2964
  921MOL0     C24263   3.017  11.298   1.992  0.0089 -0.1750 -0.5671
  921MOL0     C24264   3.027  11.150   1.980 -0.5141 -0.2759 -0.4928
  921MOL0     C24265   3.048  11.029   1.968 -0.0722  0.0513 -0.3089
  921MOL0     C24266   2.367  11.340   1.917  0.3223  0.7498  0.9068
  921MOL0     C24267   2.239  11.342   1.853  0.4003  0.0666  0.5898
  921MOL0     H24268   1.861  11.513   1.506  2.5200 -3.3085 -2.4655
  921MOL0     H24269   1.647  11.476   1.448 -2.0864  1.1841  2.0095
  921MOL0     H24270   1.488  11.126   1.513 -0.8965 -0.4340 -0.9534
  921MOL0     H24271   1.340  11.181   1.606 -0.2424  0.0910 -0.3865
  921MOL0     H24272   1.252  11.273   1.389  0.6290  1.1301  1.2927
  921MOL0     H24273   1.387  11.198   1.306  2.5351 -3.1440  1.8415
  921MOL0     H24274   1.307  10.982   1.446 -0.2351 -3.1407 -1.7588
  921MOL0     H24275   1.154  11.082   1.449  1.2836  1.6021  0.3226
  921MOL0     H24276   1.195  11.064   1.185  2.3593 -0.6648 -2.0187
  921MOL0     H24277   1.331  10.955   1.224 -1.4332 -2.0940 -2.0357
  921MOL0     H24278   1.136  10.815   1.172  2.0594 -3.0581  2.0233
  921MOL0     H24279   1.189  10.796   1.331 -1.1116 -2.1920  0.0162
  921MOL0     H24280   1.011  10.918   1.437  1.8346 -1.1549  0.4459
  921MOL0     H24281   0.961  10.973   1.273  2.1099  1.5810 -0.3319
  921MOL0     H24282   0.971  10.681   1.340  2.1249  0.2661 -4.1885
  921MOL0     H24283   0.842  10.785   1.410 -0.0944 -0.0725  0.8256
  921MOL0     H24284   0.896  10.783   1.110 -1.7755  1.7970 -1.8976
  921MOL0     H24285   0.757  10.842   1.211 -0.4662 -1.5791  4.6331
  921MOL0     H24286   0.914  10.516   1.076  0.4486 -0.6597  0.7411
  921MOL0     H24287   0.729  10.313   0.949  0.8687 -0.0635  0.3098
  921MOL0     H24288   0.816  10.258   1.076  0.3013 -0.0256 -1.2994
  921MOL0     H24289   0.503  10.268   1.051  1.0327 -2.0556 -2.1807
  921MOL0     H24290   0.574  10.246   1.205  1.2714 -0.9222  0.6936
  921MOL0     H24291   0.698  10.047   1.146 -1.4728 -0.1173  1.8557
  921MOL0     H24292   0.613  10.056   0.982  1.0115  0.3215  0.4176
  921MOL0     H24293   0.470  10.051   1.243  0.4964 -3.2953  1.3390
  921MOL0     H24294   0.517   9.905   1.155  1.4282  1.3509  1.8386
  921MOL0     H24295   0.221  10.029   0.890  4.0602 -2.5210  0.3623
  921MOL0     H24296  -0.079   9.920   0.807 -3.2613  0.5674  1.3098
  921MOL0     H24297  -0.140  10.045   0.911  1.4358  0.6113  0.8542
  921MOL0     H24298  -0.005  10.073   0.816  0.2503 -0.8158 -0.7843
  921MOL0     H24299  -0.198   9.485   1.310  2.0213  0.6960  2.9171
  921MOL0     H24300  -0.394   9.393   1.404  0.1342  0.0960  0.5767
  921MOL0     H24301  -0.605   9.651   1.639  1.5718  0.9375 -1.4257
  921MOL0     H24302  -0.714   9.700   1.517 -1.8151  0.0241  1.7635
  921MOL0     H24303  -0.873   9.522   1.568 -0.8653 -0.5042  0.6096
  921MOL0     H24304  -0.758   9.437   1.667 -0.6050  0.5840  2.4996
  921MOL0     H24305  -0.880   9.704   1.727 -0.4229 -0.3605 -0.5137
  921MOL0     H24306  -0.769   9.613   1.842 -2.2071  2.1286  2.1046
  921MOL0     H24307  -1.025   9.476   1.740 -0.6327  1.4326  0.7444
  921MOL0     H24308  -0.915   9.423   1.860  0.1913  0.2152 -1.0887
  921MOL0     H24309  -0.952   9.629   1.986 -1.3663 -0.6237  1.8692
  921MOL0     H24310  -1.087   9.510   1.998 -2.4947  1.0395 -0.8479
  921MOL0     H24311  -1.077   9.758   1.822  0.7879 -0.9501 -0.0332
  921MOL0     H24312  -1.204   9.633   1.827  1.2717 -2.2429  0.1169
  921MOL0     H24313  -1.149   9.866   1.994  1.0528 -0.8968  1.1275
  921MOL0     H24314  -1.165   9.725   2.100 -0.7231 -1.7230 -0.9039
  921MOL0     H24315  -1.392   9.758   1.894  1.5995 -0.9446  0.0624
  921MOL0     H24316  -1.372   9.871   2.031  2.8238  0.8341 -0.7637
  921MOL0     H24317  -0.568   9.791   1.405 -0.6681  0.2946 -2.6584
  921MOL0     H24318  -0.367   9.883   1.292  2.9195  0.3414 -1.5819
  921MOL0     H24319   0.081   9.816   1.307  1.1092  2.4513  1.5217
  921MOL0     H24320   0.305   9.862   1.256  1.5730 -1.2578  0.5470
  921MOL0     H24321   1.585  11.209   1.778  2.0441 -0.0330  0.3570
  921MOL0     H24322   1.819  11.212   1.820 -0.1126 -3.2684 -2.5120
  921MOL0     H24323   2.335  11.294   1.528 -0.3519 -2.2200  0.8081
  921MOL0     H24324   2.572  11.295   1.648 -1.2500 -0.3505 -1.8387
  921MOL0     H24325   2.615  11.453   2.070  0.2743  0.0223 -0.3401
  921MOL0     H24326   2.561  11.290   2.098 -0.6355 -0.2825 -1.6741
  921MOL0     H24327   2.779  11.199   2.067 -0.3882 -0.5542 -1.2787
  921MOL0     H24328   2.807  11.360   2.148  1.4191  0.5215 -0.8331
  921MOL0     H24329   2.892  11.458   1.942  3.8272  0.0522 -0.7320
  921MOL0     H24330   2.854  11.305   1.857  1.4166  0.5191 -0.3576
  921MOL0     H24331   3.049  11.332   2.091  0.3351  0.7235 -0.9674
  921MOL0     H24332   3.086  11.342   1.920  0.4667  1.0593  0.5753
  921MOL0     H24333   3.047  10.922   1.960  0.7746 -0.0015  0.2104
  921MOL0     H24334   2.381  11.356   2.024  3.6674 -0.0211  0.7068
  921MOL0     H24335   2.150  11.369   1.908  0.4797 -0.8524  1.1943
  922MOL0     O24336   0.108   1.637   2.198  0.3602 -0.0440 -0.0201
  922MOL0     C24337   0.218   1.595   2.179 -0.4259 -1.2170 -0.4029
  922MOL0     O24338   0.276   1.577   2.063  0.2222  0.0877  0.1324
  922MOL0     C24339   0.218   1.599   1.943  0.4983  0.4099 -0.2079
  922MOL0     C24340   0.275   1.533   1.832  0.5530 -0.0334 -0.4133
  922MOL0     C24341   0.218   1.531   1.703  0.5026  0.0716  0.5921
  922MOL0     C24342   0.119   1.633   1.676 -0.1241 -0.4673  0.6517
  922MOL0     O24343   0.075   1.642   1.545 -0.1477 -0.1879  0.3322
  922MOL0     C24344  -0.067   1.608   1.535  0.0736  0.0564 -1.0657
  922MOL0     C24345  -0.106   1.588   1.390 -0.6591 -0.2792 -0.0533
  922MOL0     C24346  -0.254   1.574   1.371 -0.3169  0.8220  0.5123
  922MOL0     C24347  -0.301   1.570   1.218  0.6836  0.2517  0.2382
  922MOL0     C24348  -0.448   1.522   1.215 -0.4713 -0.4169  0.2986
  922MOL0     C24349  -0.500   1.529   1.073 -0.1236  0.1579 -0.5764
  922MOL0     C24350  -0.458   1.404   0.989  0.0177 -0.2735  0.2747
  922MOL0     C24351  -0.458   1.444   0.836 -0.1543 -0.7040 -0.2610
  922MOL0     N24352  -0.592   1.463   0.783  0.1330 -0.3270 -0.6348
  922MOL0     C24353  -0.658   1.584   0.790  0.6423 -0.3013  1.3384
  922MOL0     C24354  -0.778   1.553   0.727  0.7351 -0.8919  0.2609
  922MOL0     C24355  -0.892   1.647   0.698 -0.0157 -0.6920 -0.0212
  922MOL0     C24356  -1.018   1.621   0.793 -0.1209 -0.3678  1.2330
  922MOL0     C24357  -1.092   1.488   0.748  0.4437  0.1475  1.7116
  922MOL0     C24358  -1.215   1.462   0.846  0.2420 -0.0515  0.1011
  922MOL0     O24359  -1.313   1.572   0.850 -0.0053 -0.6015  0.0689
  922MOL0     C24360  -1.431   1.534   0.912  0.0924 -0.2332  1.3001
  922MOL0     C24361  -1.541   1.613   0.877 -0.2256  0.4158  0.2686
  922MOL0     C24362  -1.671   1.593   0.929  0.0448  0.2372 -0.7311
  922MOL0     C24363  -1.773   1.697   0.904  0.5651 -0.2756 -0.6615
  922MOL0     C24364  -1.689   1.486   1.024 -0.9273 -0.6523  0.4986
  922MOL0     C24365  -1.816   1.461   1.103 -0.4443 -0.0885 -0.6052
  922MOL0     O24366  -1.803   1.384   1.218 -0.0455 -0.0190  0.3202
  922MOL0     C24367  -1.910   1.324   1.287 -0.5650 -0.8058  0.0421
  922MOL0     C24368  -2.026   1.407   1.312 -0.0774  0.0148  0.9274
  922MOL0     C24369  -2.133   1.351   1.390  0.3671 -0.2299  0.5443
  922MOL0     C24370  -2.118   1.229   1.455  0.6894  0.9169  0.5745
  922MOL0     O24371  -2.215   1.183   1.538  0.1101 -0.6296  0.1303
  922MOL0     C24372  -2.223   1.269   1.653  0.3572  0.2193  0.1414
  922MOL0     C24373  -2.343   1.224   1.742  0.4802  0.0359 -0.3979
  922MOL0     C24374  -2.474   1.267   1.687  0.6045  0.6566  1.0331
  922MOL0     C24375  -2.581   1.285   1.786 -0.2358 -0.0747  0.7734
  922MOL0     C24376  -2.714   1.304   1.716  0.2475 -0.5345  0.1155
  922MOL0     C24377  -2.829   1.304   1.804  0.1233  0.7928  0.3706
  922MOL0     C24378  -2.837   1.446   1.879  0.1893 -0.2171  0.6597
  922MOL0     C24379  -2.952   1.456   1.973 -0.2390  0.1338  0.5733
  922MOL0    Cl24380  -2.933   1.620   2.034 -0.0857 -0.0233 -0.1480
  922MOL0     C24381  -2.011   1.150   1.418  0.2649 -0.0283 -0.2015
  922MOL0     C24382  -1.905   1.194   1.337 -0.2255  0.3664 -0.7406
  922MOL0     O24383  -1.924   1.496   1.059  0.2691  0.1267  0.4224
  922MOL0     C24384  -1.578   1.402   1.052  0.5172  0.0971 -0.3077
  922MOL0     C24385  -1.451   1.433   1.009 -0.2090  0.2554  0.5252
  922MOL0     N24386  -0.778   1.417   0.695  0.1036 -0.4481  0.2349
  922MOL0     N24387  -0.664   1.368   0.727  0.3286 -0.3190  0.2311
  922MOL0     C24388   0.078   1.719   1.777 -0.2600  0.4656  0.3509
  922MOL0     C24389   0.122   1.694   1.909  0.1305 -0.8931  0.5544
  922MOL0     C24390   0.291   1.571   2.300  0.3333  0.0876 -0.1632
  922MOL0     C24391   0.417   1.507   2.287 -0.5597  0.2125  0.9434
  922MOL0     C24392   0.492   1.460   2.400  0.1417  0.1681 -0.0630
  922MOL0     C24393   0.446   1.489   2.526  0.4765 -0.2176  0.4427
  922MOL0     O24394   0.526   1.442   2.629 -0.0913  0.0686  0.0682
  922MOL0     C24395   0.512   1.497   2.761 -0.0738  0.9520 -0.4348
  922MOL0     C24396   0.564   1.644   2.763  0.2702 -0.5672 -0.8206
  922MOL0     C24397   0.556   1.709   2.904  0.0789 -0.0580  0.5660
  922MOL0     C24398   0.654   1.642   2.999  0.3870 -0.2227 -0.4398
  922MOL0     C24399   0.795   1.684   2.983  0.9236 -0.4454 -0.0164
  922MOL0     C24400   0.905   1.724   2.975  0.1560 -0.3838  0.0474
  922MOL0     C24401   0.327   1.560   2.542 -0.1892 -0.5702 -1.1533
  922MOL0     C24402   0.250   1.601   2.434  0.2473  0.1646 -0.0545
  922MOL0     H24403   0.362   1.473   1.855  1.3854  0.9412 -0.9375
  922MOL0     H24404   0.243   1.467   1.619 -4.4453 -1.3498 -0.1255
  922MOL0     H24405  -0.086   1.516   1.590  3.2794 -0.3935 -0.5651
  922MOL0     H24406  -0.116   1.689   1.589  3.3968  0.7360  1.2231
  922MOL0     H24407  -0.077   1.683   1.343  0.2379 -0.2777  0.4986
  922MOL0     H24408  -0.056   1.496   1.358 -3.0476 -0.7586 -2.9161
  922MOL0     H24409  -0.277   1.481   1.425  0.8433 -0.3554 -0.9349
  922MOL0     H24410  -0.310   1.655   1.418 -1.1599  0.5889 -0.0732
  922MOL0     H24411  -0.284   1.666   1.168  0.9472 -0.2987 -0.7510
  922MOL0     H24412  -0.246   1.490   1.168 -1.9308 -2.5604  1.5341
  922MOL0     H24413  -0.475   1.433   1.274  1.5988  0.5719  2.9423
  922MOL0     H24414  -0.506   1.603   1.260  1.3095  1.1931 -0.2010
  922MOL0     H24415  -0.609   1.527   1.067 -0.2280 -0.4533  0.8444
  922MOL0     H24416  -0.463   1.620   1.026  0.7776 -1.5230 -3.3506
  922MOL0     H24417  -0.354   1.378   1.009  0.8905  3.3553  1.2718
  922MOL0     H24418  -0.524   1.320   1.009 -0.1443  0.4727  3.4157
  922MOL0     H24419  -0.401   1.367   0.782 -0.8248  1.2468 -4.1186
  922MOL0     H24420  -0.400   1.535   0.821 -2.4687  0.9084  0.0488
  922MOL0     H24421  -0.614   1.677   0.824  0.9023 -0.3930  1.2536
  922MOL0     H24422  -0.864   1.752   0.707 -0.6177 -0.1329 -3.3403
  922MOL0     H24423  -0.928   1.634   0.595 -0.9553 -0.9579  0.3233
  922MOL0     H24424  -1.095   1.695   0.773  0.7163 -0.0942 -1.3655
  922MOL0     H24425  -0.988   1.620   0.898 -2.0390  2.8223  1.9208
  922MOL0     H24426  -1.023   1.403   0.744 -1.7005 -1.6684 -1.4852
  922MOL0     H24427  -1.121   1.500   0.643  3.5400 -0.1621  0.7185
  922MOL0     H24428  -1.174   1.456   0.947  1.6552 -3.3428 -0.5165
  922MOL0     H24429  -1.263   1.367   0.818 -0.3237  0.0697  0.6377
  922MOL0     H24430  -1.525   1.701   0.815  1.1579 -0.2021 -0.2907
  922MOL0     H24431  -1.798   1.728   1.006  1.1211  0.6709 -0.8065
  922MOL0     H24432  -1.743   1.785   0.847 -3.2149  0.6203 -1.5369
  922MOL0     H24433  -1.873   1.669   0.868  0.5375  0.6158 -1.3082
  922MOL0     H24434  -2.039   1.511   1.281  1.3564 -0.1216 -0.2317
  922MOL0     H24435  -2.214   1.416   1.419  1.9522  1.3119  1.7623
  922MOL0     H24436  -2.131   1.259   1.710  0.2220  2.2539  0.7690
  922MOL0     H24437  -2.237   1.374   1.625 -0.4649  0.3308  0.9203
  922MOL0     H24438  -2.333   1.117   1.761 -2.3696 -0.1382  0.7057
  922MOL0     H24439  -2.325   1.259   1.844  0.9988 -5.3603  1.6859
  922MOL0     H24440  -2.501   1.207   1.600 -0.2383  3.4048 -0.7511
  922MOL0     H24441  -2.461   1.371   1.654  0.9668  0.8940  1.8936
  922MOL0     H24442  -2.578   1.196   1.849 -3.6215 -0.3752  0.6459
  922MOL0     H24443  -2.567   1.378   1.842 -1.5166 -0.2003  1.3349
  922MOL0     H24444  -2.726   1.216   1.653 -0.0484 -1.5756  1.5829
  922MOL0     H24445  -2.702   1.402   1.669 -2.7120  1.3413  2.8226
  922MOL0     H24446  -2.923   1.280   1.754  0.8420  1.3135 -1.3057
  922MOL0     H24447  -2.808   1.227   1.879  0.8093  1.0310  0.4281
  922MOL0     H24448  -2.846   1.524   1.803  0.3596  1.1745  2.0150
  922MOL0     H24449  -2.746   1.464   1.938  0.8509 -2.0252  0.2718
  922MOL0     H24450  -2.954   1.386   2.057  0.8382 -0.5179  0.0848
  922MOL0     H24451  -3.049   1.449   1.923 -0.2985 -1.2832  0.8311
  922MOL0     H24452  -2.013   1.047   1.450 -2.1138 -0.5518 -1.7599
  922MOL0     H24453  -1.825   1.127   1.307 -1.1087  0.1250 -2.6681
  922MOL0     H24454  -1.585   1.328   1.131  4.6756  0.7979  0.9772
  922MOL0     H24455  -1.370   1.379   1.056 -0.7554  0.1508  1.3758
  922MOL0     H24456   0.009   1.801   1.764 -0.6894 -0.2490 -2.6290
  922MOL0     H24457   0.075   1.761   1.980 -0.7280 -0.7029 -0.1794
  922MOL0     H24458   0.458   1.482   2.190 -2.7525  0.2911 -0.0740
  922MOL0     H24459   0.586   1.405   2.399 -0.2499 -0.6885 -3.4815
  922MOL0     H24460   0.407   1.494   2.793  0.0300  1.3376 -0.0518
  922MOL0     H24461   0.567   1.438   2.835  0.2413  0.2037 -1.2434
  922MOL0     H24462   0.511   1.714   2.697 -0.1688  1.1863  1.2563
  922MOL0     H24463   0.666   1.652   2.727  0.5076  1.0887  0.1091
  922MOL0     H24464   0.453   1.700   2.942  1.0077  1.6724  3.9233
  922MOL0     H24465   0.585   1.813   2.890 -1.4995  0.4035  0.4758
  922MOL0     H24466   0.652   1.533   2.984  0.1575 -0.6198  1.9941
  922MOL0     H24467   0.619   1.659   3.102  0.4146 -2.3039 -0.0329
  922MOL0     H24468   1.002   1.767   2.963 -0.4383  0.6997 -1.1656
  922MOL0     H24469   0.292   1.609   2.633 -1.0593 -1.4796 -0.9834
  922MOL0     H24470   0.174   1.677   2.446 -0.2332 -0.3596  0.2564
  923MOL0     O24471   1.639   8.913  10.805 -0.0828 -0.0674 -0.1629
  923MOL0     C24472   1.624   9.028  10.837 -0.0755  0.0128 -0.1186
  923MOL0     O24473   1.522   9.108  10.785  0.2144 -0.1160 -0.2900
  923MOL0     C24474   1.452   9.082  10.661 -0.0499  0.4351 -0.3468
  923MOL0     C24475   1.509   9.014  10.552  0.4835  0.2825  0.0061
  923MOL0     C24476   1.417   8.987  10.441 -0.4099  0.3327  0.1847
  923MOL0     C24477   1.287   9.021  10.440  0.1711 -0.5837  0.0609
  923MOL0     O24478   1.192   8.991  10.352  0.3487 -0.4262  0.4328
  923MOL0     C24479   1.213   8.903  10.242  0.0047 -0.9737 -0.0029
  923MOL0     C24480   1.102   8.890  10.132 -0.3904  0.1615  0.2386
  923MOL0     C24481   0.959   8.896  10.211  1.0964  0.2330  0.2967
  923MOL0     C24482   0.901   9.050  10.229 -0.1274 -0.1085 -1.1853
  923MOL0     C24483   0.764   9.055  10.283  0.8515 -0.4699  0.0762
  923MOL0     C24484   0.685   9.190  10.251 -0.4881 -0.1317 -0.3097
  923MOL0     C24485   0.545   9.183  10.308  0.0784  0.1726  0.1561
  923MOL0     C24486   0.485   9.310  10.361  0.3522 -0.3081 -0.1609
  923MOL0     N24487   0.439   9.413  10.267 -0.2361  0.2333  0.0242
  923MOL0     C24488   0.523   9.507  10.201  0.1877 -0.6212  0.1560
  923MOL0     C24489   0.444   9.557  10.101  0.1156  0.2765 -0.2162
  923MOL0     C24490   0.480   9.680  10.022  0.7423 -0.8669  0.2985
  923MOL0     C24491   0.615   9.663   9.937  0.0364  0.4924 -0.0011
  923MOL0     C24492   0.652   9.797   9.865  0.4136  1.0429 -0.4107
  923MOL0     C24493   0.755   9.872   9.937 -0.6285 -0.1175 -0.3639
  923MOL0     O24494   0.881   9.803   9.907  0.2158 -0.1916 -0.2236
  923MOL0     C24495   0.990   9.838   9.964 -0.1070 -1.4548 -1.2262
  923MOL0     C24496   1.103   9.770   9.925  0.2590  0.0819 -0.9004
  923MOL0     C24497   1.229   9.794   9.993 -0.6389 -0.1417  0.6554
  923MOL0     C24498   1.357   9.734   9.924  0.0351  0.1076 -0.4668
  923MOL0     C24499   1.239   9.887  10.100  0.5695 -0.2015  0.2068
  923MOL0     C24500   1.366   9.932  10.180  0.2974  0.4776  0.4050
  923MOL0     O24501   1.357  10.038  10.267  0.1549 -0.4371 -0.3490
  923MOL0     C24502   1.468  10.090  10.331  0.1842  1.0553  0.1896
  923MOL0     C24503   1.580  10.126  10.260  0.3901 -0.6256 -0.3439
  923MOL0     C24504   1.701  10.157  10.325 -0.2577  0.7717 -0.2009
  923MOL0     C24505   1.707  10.180  10.464 -0.7932  0.0164  0.9266
  923MOL0     O24506   1.823  10.209  10.536 -0.1358  0.4512 -0.0455
  923MOL0     C24507   1.899  10.313  10.472 -0.1221  0.2288  0.2337
  923MOL0     C24508   2.023  10.341  10.556 -0.2277  0.3132 -0.0596
  923MOL0     C24509   2.133  10.235  10.543  0.0925 -0.0554 -0.3800
  923MOL0     C24510   2.221  10.220  10.669 -0.3054  0.4888 -0.1747
  923MOL0     C24511   2.335  10.107  10.657  0.7112 -0.5126 -0.1296
  923MOL0     C24512   2.412  10.095  10.790 -0.6596 -0.0676  0.7109
  923MOL0     C24513   2.536  10.189  10.788  0.4632 -0.1272  0.5321
  923MOL0     C24514   2.639  10.161  10.898  0.0767  1.2677  0.1185
  923MOL0    Cl24515   2.708   9.995  10.858  0.2049 -0.4642 -0.2421
  923MOL0     C24516   1.586  10.152  10.527 -0.1773  0.5734 -0.1133
  923MOL0     C24517   1.465  10.110  10.463  0.0319  0.5100  0.3907
  923MOL0     O24518   1.468   9.860  10.170  0.2081 -0.4196  0.6489
  923MOL0     C24519   1.121   9.948  10.142 -0.3695  0.0358  0.3266
  923MOL0     C24520   1.003   9.931  10.069 -0.5402  0.5613  0.3257
  923MOL0     N24521   0.316   9.506  10.112 -0.3204  0.1469  0.8610
  923MOL0     N24522   0.318   9.419  10.213  0.6281  0.0353 -0.3494
  923MOL0     C24523   1.237   9.075  10.551 -0.1061 -0.4863 -0.4634
  923MOL0     C24524   1.316   9.111  10.654 -0.0951 -0.0504 -0.7031
  923MOL0     C24525   1.712   9.084  10.940 -0.2190  0.4188 -0.7434
  923MOL0     C24526   1.761   9.216  10.932 -0.1532  0.2310 -0.2692
  923MOL0     C24527   1.851   9.259  11.036 -0.1363 -0.7012  0.5459
  923MOL0     C24528   1.886   9.174  11.141 -0.9880  0.2923 -0.3059
  923MOL0     O24529   1.979   9.222  11.227 -0.8522 -0.5674 -0.0307
  923MOL0     C24530   2.055   9.138  11.311 -0.0107 -0.0441  0.3236
  923MOL0     C24531   2.151   9.225  11.389  0.0472  0.3454 -0.3697
  923MOL0     C24532   2.281   9.256  11.303  0.0524 -0.7017  0.1186
  923MOL0     C24533   2.408   9.206  11.363 -0.9908 -0.1421  0.1536
  923MOL0     C24534   2.414   9.066  11.353 -0.1953 -0.3902  0.2371
  923MOL0     C24535   2.426   8.950  11.349 -0.2993  0.7883  0.0310
  923MOL0     C24536   1.831   9.044  11.144  0.4328 -0.1185  0.1505
  923MOL0     C24537   1.751   8.997  11.046  0.7761 -0.0707  0.2513
  923MOL0     H24538   1.602   8.959  10.555 -0.6146 -1.6485  0.0945
  923MOL0     H24539   1.442   8.936  10.348 -2.4313  1.4330 -1.0253
  923MOL0     H24540   1.297   8.943  10.184 -0.5271  2.3188  1.2916
  923MOL0     H24541   1.231   8.803  10.283 -1.6238 -0.7373  1.3722
  923MOL0     H24542   1.113   8.972  10.061  1.8804  0.5026  0.8832
  923MOL0     H24543   1.112   8.790  10.088 -1.4795 -0.4490  1.3205
  923MOL0     H24544   0.891   8.847  10.140  2.0113 -1.9379  0.8485
  923MOL0     H24545   0.977   8.833  10.298  0.8664  0.4248  0.4812
  923MOL0     H24546   0.967   9.120  10.281 -0.4050 -0.2706 -0.6149
  923MOL0     H24547   0.901   9.100  10.131 -1.9365 -1.2438 -1.8209
  923MOL0     H24548   0.713   8.978  10.224 -0.8671 -0.8747  1.9501
  923MOL0     H24549   0.769   9.033  10.390  0.7236 -0.0762  0.1662
  923MOL0     H24550   0.744   9.275  10.285 -0.3444 -0.2768 -0.1932
  923MOL0     H24551   0.682   9.199  10.142  1.4084  0.9180 -0.3146
  923MOL0     H24552   0.481   9.146  10.227  0.1681 -0.7312  0.4851
  923MOL0     H24553   0.552   9.114  10.392 -0.8552  0.7045  0.6910
  923MOL0     H24554   0.552   9.369  10.425 -1.2543  0.3644  0.9792
  923MOL0     H24555   0.393   9.276  10.408 -1.5136  0.3391 -3.1391
  923MOL0     H24556   0.627   9.535  10.217  0.1193  0.5762 -1.3355
  923MOL0     H24557   0.394   9.692   9.955  1.1963 -0.7332 -0.2661
  923MOL0     H24558   0.482   9.763  10.094 -0.4745 -0.0820 -0.5307
  923MOL0     H24559   0.600   9.582   9.865  2.5379  1.7138 -2.0559
  923MOL0     H24560   0.700   9.641  10.002  1.4645 -0.4004 -2.0506
  923MOL0     H24561   0.557   9.849   9.848  1.4582  3.2497  0.0780
  923MOL0     H24562   0.699   9.778   9.768  0.2519 -1.4618 -0.0567
  923MOL0     H24563   0.732   9.863  10.044 -1.0207 -0.7521 -0.5015
  923MOL0     H24564   0.759   9.975   9.899  2.4602 -0.8689 -2.5365
  923MOL0     H24565   1.107   9.702   9.840  1.2293 -2.7315  1.2648
  923MOL0     H24566   1.389   9.646   9.979  0.6563 -0.5202 -1.7865
  923MOL0     H24567   1.336   9.703   9.821 -0.5580 -2.1350  0.2824
  923MOL0     H24568   1.439   9.807   9.927 -0.6293  0.8450  1.6960
  923MOL0     H24569   1.571  10.110  10.153  0.1678 -0.8708 -0.2895
  923MOL0     H24570   1.797  10.160  10.274 -1.3442  2.5184 -2.3136
  923MOL0     H24571   1.934  10.286  10.372 -0.1381 -1.5657  0.6694
  923MOL0     H24572   1.836  10.401  10.460  1.4653  1.6757  1.9590
  923MOL0     H24573   2.064  10.441  10.542 -3.0459  1.5808  0.1414
  923MOL0     H24574   1.996  10.328  10.661 -3.0453 -2.2951 -0.9562
  923MOL0     H24575   2.193  10.265  10.456  2.5317  0.8878  1.4918
  923MOL0     H24576   2.093  10.138  10.513 -0.5891  0.4484 -1.1262
  923MOL0     H24577   2.269  10.314  10.697  0.9889 -0.2266  0.0769
  923MOL0     H24578   2.156  10.190  10.751 -0.9220  3.9546  0.7220
  923MOL0     H24579   2.402  10.127  10.573 -0.6218 -2.2598 -1.6999
  923MOL0     H24580   2.289  10.012  10.629 -1.9818  0.9072 -0.8526
  923MOL0     H24581   2.349  10.101  10.880  0.0776 -1.4733  1.3608
  923MOL0     H24582   2.452   9.994  10.780 -0.9816 -0.1850  0.5848
  923MOL0     H24583   2.505  10.292  10.806  2.1114  1.1546 -3.0812
  923MOL0     H24584   2.590  10.186  10.693  1.6622 -0.8293  1.2135
  923MOL0     H24585   2.600  10.162  11.000  2.9134  3.3667  1.3375
  923MOL0     H24586   2.715  10.238  10.878  1.6766 -0.0362  0.9502
  923MOL0     H24587   1.587  10.160  10.635 -0.0229 -0.2534 -0.0447
  923MOL0     H24588   1.378  10.084  10.523  1.0168  4.1877  3.8412
  923MOL0     H24589   1.113  10.022  10.222  1.3373  0.2008  0.3705
  923MOL0     H24590   0.918   9.989  10.102 -1.1064 -0.2082  0.2353
  923MOL0     H24591   1.129   9.091  10.554 -0.2161 -1.2101 -0.2362
  923MOL0     H24592   1.268   9.162  10.737  1.3984  2.5959 -1.3276
  923MOL0     H24593   1.729   9.292  10.862  0.2565 -1.0198 -1.8576
  923MOL0     H24594   1.895   9.358  11.032 -1.3120 -0.1669 -2.6948
  923MOL0     H24595   2.000   9.082  11.387  1.4424  0.3035  1.6862
  923MOL0     H24596   2.103   9.057  11.255  0.9700  0.7141  0.0346
  923MOL0     H24597   2.179   9.168  11.478  1.8785 -3.0465 -2.8964
  923MOL0     H24598   2.121   9.321  11.433  0.2006  0.0419  0.4226
  923MOL0     H24599   2.294   9.364  11.310 -0.4009 -0.3289 -3.2909
  923MOL0     H24600   2.279   9.229  11.197 -2.2721  1.0371 -0.3798
  923MOL0     H24601   2.416   9.249  11.464 -0.1741 -2.6527  1.2493
  923MOL0     H24602   2.494   9.246  11.308 -0.7287 -0.4687  0.3128
  923MOL0     H24603   2.435   8.844  11.363  3.1215  0.9041 -0.3540
  923MOL0     H24604   1.857   8.965  11.214  2.2547  1.9351  1.9317
  923MOL0     H24605   1.715   8.895  11.040  1.6717 -0.4271  0.7775
  924MOL0     O24606   1.592   7.634   3.239 -0.4981 -0.4893 -0.3400
  924MOL0     C24607   1.629   7.747   3.215  0.4710  0.0081 -0.2743
  924MOL0     O24608   1.553   7.847   3.161 -0.2794  0.0623  0.1841
  924MOL0     C24609   1.441   7.799   3.101  0.6733  0.0195  0.3522
  924MOL0     C24610   1.452   7.732   2.981  0.2451  1.1448  0.1890
  924MOL0     C24611   1.345   7.693   2.902  0.5376 -0.6119  0.0863
  924MOL0     C24612   1.214   7.725   2.941 -0.2874  0.4768 -0.5879
  924MOL0     O24613   1.103   7.687   2.876  0.5584  0.6143  0.0268
  924MOL0     C24614   1.110   7.696   2.734  0.6504  0.3389  0.0643
  924MOL0     C24615   0.964   7.681   2.686 -0.0007 -0.0389  0.8823
  924MOL0     C24616   0.879   7.801   2.717  0.5915 -0.6530 -0.0018
  924MOL0     C24617   0.825   7.867   2.592  0.2767  0.0237  0.3320
  924MOL0     C24618   0.709   7.961   2.617  0.4864  0.1681  0.4657
  924MOL0     C24619   0.578   7.886   2.651  0.2573  0.4964  0.4064
  924MOL0     C24620   0.456   7.976   2.636 -0.7699  0.0551  0.3833
  924MOL0     C24621   0.330   7.896   2.674  0.4024  0.1130  1.3347
  924MOL0     N24622   0.219   7.988   2.660  0.5002  0.7869  0.4568
  924MOL0     C24623   0.175   8.081   2.752 -0.1163 -0.4661 -0.3318
  924MOL0     C24624   0.074   8.151   2.704 -0.5678 -0.2725  0.8880
  924MOL0     C24625  -0.013   8.239   2.783 -0.1884  0.1941 -0.5673
  924MOL0     C24626  -0.075   8.171   2.909  0.0159  0.5532 -0.3675
  924MOL0     C24627  -0.149   8.033   2.873  0.9898 -0.7534  0.1530
  924MOL0     C24628  -0.211   7.972   3.001 -0.1404 -0.8995 -0.0388
  924MOL0     O24629  -0.324   8.030   3.050  0.6815 -0.8620  0.3016
  924MOL0     C24630  -0.456   8.028   3.001 -0.1725  0.9327  0.4527
  924MOL0     C24631  -0.497   7.999   2.878  0.1408  0.4530  1.2877
  924MOL0     C24632  -0.629   8.006   2.830 -0.5862  0.5010  0.1605
  924MOL0     C24633  -0.655   7.948   2.685 -0.4802 -0.5808  0.6807
  924MOL0     C24634  -0.728   8.054   2.915  0.0587 -0.3800  0.1138
  924MOL0     C24635  -0.865   8.065   2.869  0.3643 -0.6157  0.9015
  924MOL0     O24636  -0.904   8.006   2.756  0.0913  0.3127  0.6107
  924MOL0     C24637  -1.033   8.015   2.713 -0.3369  0.6559  0.1673
  924MOL0     C24638  -1.089   8.138   2.670 -0.8703  0.1935 -0.6280
  924MOL0     C24639  -1.225   8.153   2.628 -0.2530 -0.0188  0.2091
  924MOL0     C24640  -1.298   8.036   2.628  0.1041  0.3252  0.2591
  924MOL0     O24641  -1.430   8.023   2.591 -0.4841  0.5139 -0.1930
  924MOL0     C24642  -1.501   8.141   2.570  0.3909  0.1563  0.5990
  924MOL0     C24643  -1.650   8.131   2.520 -0.0340 -0.4458  0.0405
  924MOL0     C24644  -1.730   8.057   2.621 -0.2479  0.2285  0.0807
  924MOL0     C24645  -1.874   8.100   2.601  0.6280  0.3417 -0.4874
  924MOL0     C24646  -1.965   7.980   2.654 -0.8041  0.1817  0.5305
  924MOL0     C24647  -2.115   7.985   2.631  0.6444 -0.3186  0.6545
  924MOL0     C24648  -2.169   7.847   2.666 -0.5927  0.2786  0.3795
  924MOL0     C24649  -2.307   7.810   2.610  0.0215 -0.4260 -0.3341
  924MOL0    Cl24650  -2.436   7.915   2.674 -0.0646 -0.3086 -0.2718
  924MOL0     C24651  -1.240   7.908   2.660  0.2754  0.1381 -0.4588
  924MOL0     C24652  -1.105   7.897   2.696 -0.6405 -0.3070  0.7039
  924MOL0     O24653  -0.937   8.132   2.944  0.7623 -0.8804 -0.3033
  924MOL0     C24654  -0.692   8.090   3.041  0.0472  0.1034 -0.4730
  924MOL0     C24655  -0.554   8.077   3.088  0.5932  0.4449 -1.3007
  924MOL0     N24656   0.061   8.107   2.574 -0.0946 -0.3636  0.3771
  924MOL0     N24657   0.143   8.012   2.550 -0.0790  0.0197 -0.1943
  924MOL0     C24658   1.200   7.803   3.061 -0.8149 -0.3611 -0.0607
  924MOL0     C24659   1.312   7.844   3.131 -1.1751  1.0786  0.6070
  924MOL0     C24660   1.769   7.784   3.257  0.1448  0.3501  0.2320
  924MOL0     C24661   1.868   7.691   3.277  0.7585  0.6415  0.7186
  924MOL0     C24662   2.000   7.711   3.323  0.0234  0.4098  0.9546
  924MOL0     C24663   2.037   7.842   3.356  0.5496  0.1135 -1.0612
  924MOL0     O24664   2.161   7.875   3.403 -0.4448 -0.3159 -0.2987
  924MOL0     C24665   2.238   7.770   3.459  0.4183 -0.3006 -0.1174
  924MOL0     C24666   2.377   7.813   3.516 -0.5124  0.0883  0.1216
  924MOL0     C24667   2.467   7.867   3.408 -0.2525 -0.1222 -1.0259
  924MOL0     C24668   2.585   7.941   3.466  0.0483  0.6586 -0.6374
  924MOL0     C24669   2.672   7.988   3.356  1.0110  0.1194 -0.8871
  924MOL0     C24670   2.732   8.029   3.264 -0.0216  0.2114 -0.3220
  924MOL0     C24671   1.933   7.942   3.351 -0.0397  0.0657 -0.1434
  924MOL0     C24672   1.803   7.917   3.288 -0.4464  0.1146 -0.4600
  924MOL0     H24673   1.551   7.689   2.964 -1.4295 -2.8789 -0.6563
  924MOL0     H24674   1.365   7.626   2.819 -0.9754 -0.2040 -0.6500
  924MOL0     H24675   1.151   7.787   2.689  0.1009 -0.6021 -2.5393
  924MOL0     H24676   1.160   7.607   2.694 -1.9102 -1.7082  1.1431
  924MOL0     H24677   0.968   7.659   2.579 -2.4418  4.0414 -0.2691
  924MOL0     H24678   0.916   7.593   2.730 -1.6460  0.2018 -0.3471
  924MOL0     H24679   0.797   7.751   2.769  1.0899 -2.8945 -1.2607
  924MOL0     H24680   0.929   7.887   2.764 -1.8739  2.7186 -2.9782
  924MOL0     H24681   0.907   7.924   2.547  0.0810 -1.0903 -1.5163
  924MOL0     H24682   0.806   7.796   2.511  2.3740 -1.5303  1.0883
  924MOL0     H24683   0.742   8.035   2.690 -2.8990 -0.6625  3.1100
  924MOL0     H24684   0.688   8.020   2.528  4.8551  0.8770 -0.3108
  924MOL0     H24685   0.572   7.808   2.573  2.1241  0.1287  0.5756
  924MOL0     H24686   0.580   7.829   2.744 -0.5450 -1.5422 -0.7479
  924MOL0     H24687   0.474   8.061   2.702 -1.0107  1.1676 -0.9343
  924MOL0     H24688   0.443   8.013   2.533 -1.5589 -2.2865 -0.4308
  924MOL0     H24689   0.356   7.870   2.777  2.7782  0.6197  0.9271
  924MOL0     H24690   0.310   7.802   2.621  4.6975  0.1226 -0.7552
  924MOL0     H24691   0.217   8.086   2.852  1.0275  0.1271 -0.8246
  924MOL0     H24692   0.044   8.325   2.818  1.8471 -0.7268 -1.4618
  924MOL0     H24693  -0.088   8.269   2.709  1.5327  0.4865 -2.2750
  924MOL0     H24694  -0.145   8.231   2.968  0.3333  0.3882  0.1939
  924MOL0     H24695   0.009   8.148   2.976  0.1979  0.8252 -0.4987
  924MOL0     H24696  -0.081   7.964   2.823 -0.3643 -1.5477 -0.6665
  924MOL0     H24697  -0.233   8.043   2.803  1.5138 -1.5852 -0.6177
  924MOL0     H24698  -0.129   7.964   3.072  0.6007 -1.2541 -0.9238
  924MOL0     H24699  -0.233   7.868   2.973  1.7515 -0.8488 -1.9579
  924MOL0     H24700  -0.426   7.950   2.811 -1.0835 -1.6995  1.4723
  924MOL0     H24701  -0.552   7.927   2.654 -0.4577 -1.1394  1.1205
  924MOL0     H24702  -0.716   7.858   2.682 -2.1359  0.4899 -2.5304
  924MOL0     H24703  -0.698   8.026   2.621  0.6501  0.2013  0.8395
  924MOL0     H24704  -1.021   8.222   2.674 -0.0982 -0.4792  1.4232
  924MOL0     H24705  -1.261   8.250   2.595  2.9604  0.8594 -1.0358
  924MOL0     H24706  -1.496   8.208   2.656 -0.0255  0.6786  0.2246
  924MOL0     H24707  -1.446   8.188   2.488  2.7654 -0.3609  1.8364
  924MOL0     H24708  -1.694   8.231   2.517  0.0741 -0.0338  4.5994
  924MOL0     H24709  -1.650   8.088   2.420 -2.5431  1.1010 -0.7195
  924MOL0     H24710  -1.700   8.075   2.725  0.9890  0.6873 -0.3326
  924MOL0     H24711  -1.721   7.949   2.605 -2.0099  0.1856 -0.8029
  924MOL0     H24712  -1.902   8.195   2.647  0.8138 -0.1597  0.7035
  924MOL0     H24713  -1.896   8.116   2.495  2.3730  0.1793 -0.8950
  924MOL0     H24714  -1.953   7.965   2.762  3.7732 -2.0002 -0.0294
  924MOL0     H24715  -1.926   7.891   2.605  1.4172  1.4545 -0.1405
  924MOL0     H24716  -2.160   8.062   2.694 -0.7564 -0.0667 -0.5982
  924MOL0     H24717  -2.150   8.011   2.531 -1.6097 -1.6091  1.0408
  924MOL0     H24718  -2.170   7.846   2.775  3.1666 -0.9862  0.5251
  924MOL0     H24719  -2.092   7.773   2.646 -0.3554  0.8537 -1.0167
  924MOL0     H24720  -2.325   7.705   2.635 -0.7770  0.1525  1.7447
  924MOL0     H24721  -2.303   7.812   2.501  0.6793 -0.6694 -0.3199
  924MOL0     H24722  -1.301   7.819   2.650  1.2721 -0.5669 -0.2878
  924MOL0     H24723  -1.066   7.800   2.727 -0.1529 -0.3768 -0.0901
  924MOL0     H24724  -0.769   8.144   3.096 -0.6546  0.6716 -1.9374
  924MOL0     H24725  -0.532   8.111   3.188 -4.0373  1.3662 -0.3297
  924MOL0     H24726   1.101   7.836   3.091 -0.2683 -1.3108  3.1837
  924MOL0     H24727   1.303   7.893   3.227 -0.5733 -0.7137  1.6405
  924MOL0     H24728   1.838   7.589   3.257 -0.2183  1.1852 -0.7032
  924MOL0     H24729   2.073   7.630   3.326 -0.9872 -0.5019  1.8703
  924MOL0     H24730   2.176   7.726   3.537 -2.2085  2.5352 -0.4104
  924MOL0     H24731   2.251   7.688   3.388 -4.0858 -0.9294 -0.4807
  924MOL0     H24732   2.419   7.718   3.549 -0.1638  1.2040  3.1455
  924MOL0     H24733   2.356   7.883   3.597  2.2169 -1.6783  2.5464
  924MOL0     H24734   2.409   7.938   3.348 -0.9330  0.2676  0.0614
  924MOL0     H24735   2.508   7.783   3.351  1.2353 -1.8899  2.4104
  924MOL0     H24736   2.646   7.887   3.540  0.3281  3.0094  0.9517
  924MOL0     H24737   2.550   8.027   3.522  1.1070 -0.2728  1.5687
  924MOL0     H24738   2.795   8.064   3.184  0.9192 -2.0249 -0.6426
  924MOL0     H24739   1.965   8.044   3.371 -0.5703  0.1870  0.1103
  924MOL0     H24740   1.735   8.000   3.277 -0.2757  0.2491 -0.4987
  925MOL0     O24741   8.730   9.995   3.528  0.3246 -0.6097  0.3767
  925MOL0     C24742   8.626  10.058   3.505 -1.3787 -0.1674 -0.1619
  925MOL0     O24743   8.618  10.184   3.469  0.4778 -0.5007  0.3448
  925MOL0     C24744   8.733  10.258   3.486 -0.2425  0.6307 -0.0740
  925MOL0     C24745   8.849  10.225   3.411  0.0495 -0.4652 -0.4396
  925MOL0     C24746   8.971  10.294   3.435 -0.8728  0.6919 -0.3054
  925MOL0     C24747   8.978  10.400   3.535  0.6629  0.4854  0.2683
  925MOL0     O24748   9.077  10.485   3.560 -0.0322 -0.2716  0.5782
  925MOL0     C24749   9.147  10.536   3.443 -0.6318 -0.1520 -0.5144
  925MOL0     C24750   9.250  10.632   3.496 -0.2225 -0.7146 -0.3747
  925MOL0     C24751   9.186  10.774   3.528 -0.4692 -0.6935  0.7396
  925MOL0     C24752   9.264  10.829   3.657 -0.3676 -0.1046  0.0182
  925MOL0     C24753   9.215  10.977   3.694 -0.3561 -0.1288 -0.8346
  925MOL0     C24754   9.267  10.998   3.840  0.2822 -0.4892  0.0355
  925MOL0     C24755   9.270  11.135   3.900  0.0654 -0.3991 -0.1965
  925MOL0     C24756   9.388  11.212   3.838  0.1816 -1.1926  0.8621
  925MOL0     N24757   9.378  11.351   3.891 -0.8151  0.5097  0.0918
  925MOL0     C24758   9.392  11.384   4.020 -0.6600 -0.8801 -0.7463
  925MOL0     C24759   9.369  11.516   4.028 -0.8476  0.0335 -0.4428
  925MOL0     C24760   9.367  11.601   4.156  0.1404  0.0553 -0.1557
  925MOL0     C24761   9.281  11.728   4.149  1.1313 -0.0093 -0.3909
  925MOL0     C24762   9.281  11.793   4.290 -0.0253  0.3642 -0.5065
  925MOL0     C24763   9.228  11.936   4.289 -0.1066  0.9997  0.1038
  925MOL0     O24764   9.096  11.924   4.252  0.2512  0.2147 -0.5271
  925MOL0     C24765   9.034  12.043   4.231 -0.5159 -0.1598 -0.8937
  925MOL0     C24766   8.902  12.038   4.198  0.0141  0.7855  0.6811
  925MOL0     C24767   8.821  12.152   4.201  0.2683  0.1407  0.6070
  925MOL0     C24768   8.671  12.137   4.177 -0.3883 -0.0777  0.4234
  925MOL0     C24769   8.879  12.279   4.231  0.4582 -0.2288  0.6590
  925MOL0     C24770   8.812  12.409   4.263  0.0504  0.6838  0.2517
  925MOL0     O24771   8.677  12.400   4.297 -0.7588 -0.1996 -0.2398
  925MOL0     C24772   8.612  12.507   4.356 -0.0226  0.6478  0.9114
  925MOL0     C24773   8.623  12.536   4.494  0.9099 -1.2419  0.1404
  925MOL0     C24774   8.542  12.631   4.536 -0.2441 -0.3147 -0.9644
  925MOL0     C24775   8.462  12.720   4.455  0.0754  0.1275 -1.0919
  925MOL0     O24776   8.395  12.827   4.499  0.1918  0.0161  0.7023
  925MOL0     C24777   8.326  12.818   4.625  0.0759 -0.3573  0.1880
  925MOL0     C24778   8.200  12.900   4.630  0.4358 -0.1129  0.6245
  925MOL0     C24779   8.111  12.857   4.500 -0.3638  0.2183 -0.6084
  925MOL0     C24780   7.972  12.902   4.526 -0.2391  0.6522  1.2922
  925MOL0     C24781   7.888  12.882   4.408 -0.6798  0.3652  0.6137
  925MOL0     C24782   7.773  12.980   4.412 -0.6113  0.7439 -0.3674
  925MOL0     C24783   7.654  12.941   4.504  0.0907  0.0717 -0.7657
  925MOL0     C24784   7.524  13.030   4.503 -0.4388 -0.2751  0.1792
  925MOL0    Cl24785   7.431  13.015   4.344  0.7762 -0.0733 -0.5336
  925MOL0     C24786   8.463  12.692   4.317  0.3545 -0.3495  0.5943
  925MOL0     C24787   8.536  12.579   4.267 -0.6179 -0.1689 -0.7111
  925MOL0     O24788   8.872  12.512   4.237  1.1105  0.3038 -0.4006
  925MOL0     C24789   9.019  12.278   4.235 -0.0225  0.2883  0.7642
  925MOL0     C24790   9.102  12.166   4.227  0.4244  0.2041 -0.0080
  925MOL0     N24791   9.322  11.550   3.908  0.0197 -1.1524 -0.3600
  925MOL0     N24792   9.332  11.456   3.826 -0.0058  0.6599  0.5980
  925MOL0     C24793   8.861  10.437   3.597 -0.3521 -0.0402 -0.4077
  925MOL0     C24794   8.733  10.375   3.565 -0.3243  0.8737 -0.3664
  925MOL0     C24795   8.501   9.980   3.507 -1.6317  0.5301  0.1742
  925MOL0     C24796   8.506   9.841   3.495 -0.0598 -0.1313 -0.1544
  925MOL0     C24797   8.388   9.769   3.494  0.2122  0.6872  0.1457
  925MOL0     C24798   8.264   9.831   3.505  0.1471  0.2264 -0.0285
  925MOL0     O24799   8.150   9.746   3.499  0.1425 -0.5872  0.6954
  925MOL0     C24800   8.021   9.808   3.521  0.4034 -0.4718  0.0253
  925MOL0     C24801   7.894   9.728   3.524 -0.4415 -0.5712  0.6774
  925MOL0     C24802   7.761   9.811   3.530  0.6923 -0.6502  0.2449
  925MOL0     C24803   7.646   9.715   3.517  0.4518 -0.2266 -0.2403
  925MOL0     C24804   7.536   9.788   3.463  0.0098 -0.0033 -0.5328
  925MOL0     C24805   7.442   9.849   3.417 -0.1854  0.2705 -0.2575
  925MOL0     C24806   8.261   9.969   3.517  0.0388  0.0873 -0.1190
  925MOL0     C24807   8.377  10.047   3.512 -0.4286  0.7724  0.1523
  925MOL0     H24808   8.844  10.144   3.339 -1.2989  1.3962 -2.5846
  925MOL0     H24809   9.063  10.262   3.387 -0.1736 -0.9544  1.9589
  925MOL0     H24810   9.192  10.451   3.391  1.3123 -0.7990  2.0389
  925MOL0     H24811   9.081  10.583   3.369 -1.1904 -1.7058 -1.0449
  925MOL0     H24812   9.292  10.581   3.583 -2.2105 -2.7305 -0.4866
  925MOL0     H24813   9.334  10.651   3.429 -0.9173  0.6739 -0.8903
  925MOL0     H24814   9.205  10.845   3.447  0.9924 -0.2590  1.4343
  925MOL0     H24815   9.079  10.771   3.553 -1.0136 -2.2503 -1.4478
  925MOL0     H24816   9.259  10.761   3.742  2.5719 -1.1866 -0.5546
  925MOL0     H24817   9.369  10.821   3.626 -0.0785 -0.6592  1.0991
  925MOL0     H24818   9.269  11.042   3.625  2.4341 -1.0209  0.3445
  925MOL0     H24819   9.107  10.990   3.700 -0.2362  1.7219 -2.0353
  925MOL0     H24820   9.223  10.930   3.913  1.3929 -1.8514 -0.5407
  925MOL0     H24821   9.369  10.959   3.840  0.2174 -0.6583  0.5185
  925MOL0     H24822   9.182  11.197   3.882  1.1395  1.0340 -0.6454
  925MOL0     H24823   9.294  11.126   4.007 -0.1971 -0.2338 -0.1234
  925MOL0     H24824   9.379  11.214   3.729  2.5117 -2.7213  0.5643
  925MOL0     H24825   9.482  11.164   3.868 -0.2636 -1.6143  1.6084
  925MOL0     H24826   9.431  11.330   4.105 -1.7845 -1.4302 -0.5611
  925MOL0     H24827   9.318  11.542   4.234 -1.1753  0.3662 -0.7125
  925MOL0     H24828   9.466  11.634   4.187 -0.7304  0.0287  3.0221
  925MOL0     H24829   9.178  11.704   4.121  0.4905  2.3853 -0.3102
  925MOL0     H24830   9.316  11.797   4.071 -0.9378  0.4793 -0.9566
  925MOL0     H24831   9.384  11.796   4.328  0.1953 -2.5160 -0.6292
  925MOL0     H24832   9.223  11.732   4.359  0.8984  2.2568  2.0957
  925MOL0     H24833   9.289  11.994   4.219  0.5967  1.1518  0.8285
  925MOL0     H24834   9.233  11.982   4.388  1.4580 -1.2063  1.1270
  925MOL0     H24835   8.854  11.945   4.168  0.3794  1.4595 -2.3503
  925MOL0     H24836   8.633  12.223   4.120  0.4634  0.5165  0.7201
  925MOL0     H24837   8.647  12.047   4.119  3.5111 -0.7840 -0.3845
  925MOL0     H24838   8.613  12.141   4.269 -3.9564  1.1796 -1.6628
  925MOL0     H24839   8.684  12.484   4.568  1.2100  0.3965  1.0921
  925MOL0     H24840   8.551  12.633   4.644 -2.1220 -0.0523 -0.7754
  925MOL0     H24841   8.299  12.713   4.642 -1.5166  0.2280  1.6504
  925MOL0     H24842   8.389  12.846   4.710 -0.3316 -0.3117  0.4780
  925MOL0     H24843   8.151  12.883   4.726 -2.2149  2.4228 -0.1096
  925MOL0     H24844   8.231  13.005   4.626  1.7381 -0.2489  3.8412
  925MOL0     H24845   8.114  12.749   4.482  1.8562  0.2577 -0.8075
  925MOL0     H24846   8.147  12.898   4.405 -0.8696  2.1174 -0.0093
  925MOL0     H24847   7.920  12.848   4.606  2.4222 -4.5514 -0.0331
  925MOL0     H24848   7.969  13.008   4.550 -2.3503  0.8212  0.4598
  925MOL0     H24849   7.848  12.781   4.398  2.4127 -0.8776 -0.7386
  925MOL0     H24850   7.941  12.902   4.314  2.1152  0.4444  2.0878
  925MOL0     H24851   7.811  13.081   4.432  2.6812 -0.3727 -0.4023
  925MOL0     H24852   7.726  12.988   4.313 -2.6495  2.6474  0.6451
  925MOL0     H24853   7.677  12.922   4.609 -0.8679  1.4959 -0.2645
  925MOL0     H24854   7.616  12.846   4.466 -0.6049  0.1384 -0.2533
  925MOL0     H24855   7.555  13.135   4.499  2.4464 -0.9505  1.9656
  925MOL0     H24856   7.455  13.007   4.584 -1.5052  4.0198  0.7635
  925MOL0     H24857   8.422  12.768   4.251 -1.5498  0.0238  2.1222
  925MOL0     H24858   8.544  12.540   4.166  0.7905  0.6380 -0.9347
  925MOL0     H24859   9.076  12.370   4.244  3.5504 -1.5842 -0.5941
  925MOL0     H24860   9.210  12.179   4.233  0.5184 -0.9332  1.6542
  925MOL0     H24861   8.864  10.515   3.672 -1.1116  0.5861 -1.0149
  925MOL0     H24862   8.642  10.413   3.611 -0.2672 -0.7921  1.2239
  925MOL0     H24863   8.604   9.795   3.485  1.2112  1.5060  3.0893
  925MOL0     H24864   8.393   9.661   3.494  0.2527  0.6294  2.6199
  925MOL0     H24865   8.019   9.880   3.604 -0.1428 -0.7230  0.2423
  925MOL0     H24866   7.998   9.885   3.447  0.8999  3.6550  3.6949
  925MOL0     H24867   7.890   9.661   3.610  1.2307 -1.8381 -0.1544
  925MOL0     H24868   7.893   9.659   3.438  0.3829  0.2666 -0.0255
  925MOL0     H24869   7.744   9.887   3.453 -3.5409 -1.7246 -0.1153
  925MOL0     H24870   7.754   9.850   3.631 -0.7685 -2.2765  0.8200
  925MOL0     H24871   7.624   9.674   3.616 -0.2941 -1.1605 -0.7823
  925MOL0     H24872   7.669   9.629   3.453  0.1699 -1.0160  0.7007
  925MOL0     H24873   7.354   9.898   3.381 -0.1706  1.4279  1.1544
  925MOL0     H24874   8.171  10.030   3.521 -0.4507 -0.6721  1.3772
  925MOL0     H24875   8.361  10.153   3.529  0.7703  0.7555  1.5723
  926MOL0     O24876   1.991   5.124   5.041  0.1415  0.4575 -0.6535
  926MOL0     C24877   1.902   5.072   4.963 -0.0952 -0.2840 -1.3331
  926MOL0     O24878   1.924   5.026   4.836  0.0553 -0.3359  0.0867
  926MOL0     C24879   2.039   5.067   4.771 -0.5495  0.0602 -0.0324
  926MOL0     C24880   2.147   4.981   4.748  0.5707  0.2150 -0.2533
  926MOL0     C24881   2.263   5.028   4.695  1.4884 -0.2466  0.9011
  926MOL0     C24882   2.277   5.163   4.668 -1.7716  0.4214 -0.2464
  926MOL0     O24883   2.394   5.207   4.594 -0.3280  0.5723  0.7374
  926MOL0     C24884   2.369   5.318   4.509 -0.6292  0.6292 -0.1004
  926MOL0     C24885   2.496   5.338   4.434  0.4154 -0.5017  0.1088
  926MOL0     C24886   2.616   5.385   4.506 -0.0829 -0.3628 -0.0577
  926MOL0     C24887   2.595   5.519   4.580 -0.3402 -0.3098  0.1796
  926MOL0     C24888   2.724   5.580   4.601  0.2258 -0.4602 -0.2658
  926MOL0     C24889   2.833   5.489   4.672 -1.2255 -0.7329 -0.2984
  926MOL0     C24890   2.789   5.441   4.821  0.0021  0.0932  0.7653
  926MOL0     C24891   2.778   5.556   4.929 -0.6467 -0.8937 -0.9610
  926MOL0     N24892   2.912   5.617   4.974 -0.3738  0.6037  0.1941
  926MOL0     C24893   2.977   5.634   5.096  0.3078  0.1207  0.1672
  926MOL0     C24894   3.094   5.693   5.068 -0.5738 -0.8391  1.1148
  926MOL0     C24895   3.224   5.715   5.152  0.2376  0.7892  0.3634
  926MOL0     C24896   3.253   5.601   5.251  0.0191  0.0985 -0.7809
  926MOL0     C24897   3.326   5.492   5.179  0.3527 -0.0085  0.0064
  926MOL0     C24898   3.324   5.358   5.257  0.2329 -1.0183  0.8265
  926MOL0     O24899   3.186   5.317   5.269 -1.0807  0.0966 -0.7006
  926MOL0     C24900   3.128   5.199   5.233  0.2274  0.2921 -1.0709
  926MOL0     C24901   3.190   5.110   5.145 -0.8921 -0.2942  1.0545
  926MOL0     C24902   3.130   4.981   5.123 -0.7295 -0.7404  0.3481
  926MOL0     C24903   3.206   4.895   5.027 -0.0467  0.2313  0.0610
  926MOL0     C24904   3.005   4.945   5.184 -0.5334 -0.1998  1.0141
  926MOL0     C24905   2.932   4.818   5.153 -0.9534  0.2572 -0.0433
  926MOL0     O24906   2.830   4.783   5.225  0.1307  0.2470  0.4078
  926MOL0     C24907   2.770   4.662   5.208  0.4970  0.5937  0.0739
  926MOL0     C24908   2.848   4.550   5.240 -0.3522 -0.9635 -0.6971
  926MOL0     C24909   2.790   4.427   5.224  0.3365 -0.8370  0.2079
  926MOL0     C24910   2.659   4.407   5.184  0.5349 -0.0569  0.0072
  926MOL0     O24911   2.608   4.273   5.166 -0.4252 -0.1060 -0.4109
  926MOL0     C24912   2.611   4.239   5.035  0.4126  0.8945  0.9213
  926MOL0     C24913   2.622   4.091   5.019 -0.9365 -0.1129  0.2608
  926MOL0     C24914   2.490   4.019   4.992 -0.7493 -1.0769 -0.3852
  926MOL0     C24915   2.510   3.896   4.910  0.2794  0.7224 -0.2621
  926MOL0     C24916   2.596   3.800   4.977 -0.2721 -0.8130 -0.2470
  926MOL0     C24917   2.657   3.703   4.878 -0.2049  0.3180 -0.4504
  926MOL0     C24918   2.778   3.630   4.937  0.4099  0.6346  0.6241
  926MOL0     C24919   2.738   3.553   5.067  0.5868  0.6743 -0.1844
  926MOL0    Cl24920   2.581   3.453   5.059  0.1436  0.3801  0.2924
  926MOL0     C24921   2.579   4.521   5.163 -0.1948 -0.2176 -0.1740
  926MOL0     C24922   2.635   4.649   5.172  0.2733 -0.4935 -1.2836
  926MOL0     O24923   2.975   4.760   5.050  0.2924  0.0857  0.0130
  926MOL0     C24924   2.951   5.040   5.274 -0.2817 -0.2211  0.0373
  926MOL0     C24925   3.007   5.161   5.290 -0.8198 -0.4549  0.0688
  926MOL0     N24926   3.095   5.721   4.934 -0.0093  0.1297 -0.1961
  926MOL0     N24927   2.992   5.672   4.881  0.0202  0.7206 -0.4025
  926MOL0     C24928   2.173   5.254   4.692 -0.1814  0.4281 -0.1299
  926MOL0     C24929   2.049   5.198   4.736 -0.1571  1.2144 -0.1076
  926MOL0     C24930   1.762   5.062   5.010 -0.4229  0.7423 -0.0436
  926MOL0     C24931   1.669   4.960   4.967  0.1873 -0.3184  0.4324
  926MOL0     C24932   1.538   4.957   5.014 -0.9194 -0.3382 -1.0587
  926MOL0     C24933   1.491   5.058   5.096  1.2486 -0.4524  0.8931
  926MOL0     O24934   1.357   5.059   5.130  0.4265  0.5931  0.2555
  926MOL0     C24935   1.274   5.124   5.030  0.4961  1.0631 -0.6420
  926MOL0     C24936   1.133   5.057   5.045  0.5545 -0.5097  0.8272
  926MOL0     C24937   1.032   5.106   4.945 -1.1448 -0.0094 -0.3516
  926MOL0     C24938   0.977   5.249   4.971 -0.2484  1.0010  0.7018
  926MOL0     C24939   0.839   5.262   4.937  0.5987  0.1385 -0.2908
  926MOL0     C24940   0.723   5.286   4.922  0.3135 -0.1503 -0.5609
  926MOL0     C24941   1.587   5.147   5.154  0.1869 -0.0123 -0.6138
  926MOL0     C24942   1.715   5.148   5.104  0.3511  0.0525  0.3653
  926MOL0     H24943   2.133   4.875   4.762  0.4217  0.5171  2.3841
  926MOL0     H24944   2.337   4.957   4.657  1.8747  0.1729  0.8521
  926MOL0     H24945   2.289   5.305   4.436 -0.5794  0.7270 -0.1731
  926MOL0     H24946   2.334   5.411   4.555 -0.5244  1.0268 -0.8265
  926MOL0     H24947   2.513   5.242   4.384 -2.2175  0.5645 -3.2176
  926MOL0     H24948   2.476   5.411   4.355 -0.2909 -0.9853 -0.1705
  926MOL0     H24949   2.653   5.313   4.579 -1.5410  2.0481  3.3373
  926MOL0     H24950   2.698   5.385   4.433 -0.3341  0.6538 -0.3596
  926MOL0     H24951   2.530   5.579   4.515  0.3276 -2.6920 -2.9745
  926MOL0     H24952   2.539   5.499   4.671 -1.2828  0.1009 -0.2904
  926MOL0     H24953   2.770   5.616   4.509  1.7955 -0.1136  0.6201
  926MOL0     H24954   2.710   5.674   4.657  0.8826 -1.1319  1.0617
  926MOL0     H24955   2.853   5.400   4.611 -2.4227 -0.4361 -1.1511
  926MOL0     H24956   2.931   5.538   4.681 -0.8883 -1.6644  1.6933
  926MOL0     H24957   2.696   5.385   4.811 -0.3436  0.7955 -0.0763
  926MOL0     H24958   2.871   5.380   4.859  1.3021 -0.1270 -2.1521
  926MOL0     H24959   2.745   5.520   5.026  1.6955  0.5925  0.4750
  926MOL0     H24960   2.711   5.638   4.900 -0.7965 -0.2686  1.0341
  926MOL0     H24961   2.934   5.596   5.188  0.4974  0.8050  0.5407
  926MOL0     H24962   3.307   5.728   5.082  2.4328  4.0694  3.2025
  926MOL0     H24963   3.209   5.799   5.222 -1.3992  1.7684 -1.0884
  926MOL0     H24964   3.159   5.562   5.293  0.3522 -0.5190 -0.6107
  926MOL0     H24965   3.307   5.639   5.339  0.0619 -3.5438  0.9388
  926MOL0     H24966   3.431   5.515   5.160 -0.0985  4.3332  1.5816
  926MOL0     H24967   3.274   5.476   5.083 -1.9293  0.2769  1.1089
  926MOL0     H24968   3.364   5.380   5.357 -2.7171  0.9354  1.7124
  926MOL0     H24969   3.377   5.280   5.201 -1.5866 -0.1539 -2.3329
  926MOL0     H24970   3.277   5.147   5.093 -0.9945  2.4897  2.6714
  926MOL0     H24971   3.196   4.787   5.040  0.9284  0.3172  1.8129
  926MOL0     H24972   3.167   4.925   4.929 -3.5494 -0.5384  1.0972
  926MOL0     H24973   3.312   4.920   5.036 -0.4594  1.2145  3.7749
  926MOL0     H24974   2.954   4.572   5.246 -0.4342  0.4360 -2.9954
  926MOL0     H24975   2.846   4.339   5.254  0.0483 -0.8007  0.8664
  926MOL0     H24976   2.512   4.275   5.004 -0.0351  0.0296  1.3061
  926MOL0     H24977   2.689   4.294   4.982 -0.9200  1.3194 -0.6965
  926MOL0     H24978   2.677   4.085   4.925 -0.2766  6.3433 -0.1587
  926MOL0     H24979   2.683   4.043   5.097 -4.0262 -0.8338  2.4622
  926MOL0     H24980   2.422   4.084   4.936  0.2502  0.2908 -0.0537
  926MOL0     H24981   2.450   4.006   5.092  1.0550 -1.9426  0.2684
  926MOL0     H24982   2.412   3.854   4.886  0.7928  0.3554 -1.8871
  926MOL0     H24983   2.558   3.932   4.818  1.5703  0.5355  0.3169
  926MOL0     H24984   2.537   3.739   5.047  0.9127 -0.9977  0.6281
  926MOL0     H24985   2.674   3.845   5.039  1.0514 -3.8399  0.4662
  926MOL0     H24986   2.582   3.629   4.849  1.3310 -0.3395 -2.9674
  926MOL0     H24987   2.695   3.767   4.798  1.4702  2.1321  1.6533
  926MOL0     H24988   2.873   3.683   4.948  0.4908  0.8911 -0.9902
  926MOL0     H24989   2.806   3.552   4.865  0.5096  1.5583 -0.3601
  926MOL0     H24990   2.725   3.626   5.147  2.2356  1.9229 -1.0131
  926MOL0     H24991   2.819   3.496   5.113  1.6015  2.3864  0.2315
  926MOL0     H24992   2.476   4.510   5.133 -1.3946  3.4888  1.8905
  926MOL0     H24993   2.573   4.737   5.157  3.5400  1.8706 -2.0783
  926MOL0     H24994   2.855   5.035   5.325  0.2284 -2.1121  0.9145
  926MOL0     H24995   2.950   5.228   5.354  2.8735  1.3732  1.7371
  926MOL0     H24996   2.177   5.361   4.678 -0.5984  0.4690  0.0347
  926MOL0     H24997   1.963   5.262   4.755 -2.3233 -1.5360 -0.1258
  926MOL0     H24998   1.681   4.889   4.885 -2.6473  0.2826 -0.5949
  926MOL0     H24999   1.466   4.887   4.972 -2.8355  0.5505  0.5919
  926MOL0     H25000   1.263   5.230   5.053 -2.4050  0.6923  0.0661
  926MOL0     H25001   1.313   5.118   4.928  0.6040  3.5731 -0.8022
  926MOL0     H25002   1.082   5.053   5.142 -0.8840  1.4563  0.2267
  926MOL0     H25003   1.154   4.952   5.026  3.4355  0.4345 -1.9586
  926MOL0     H25004   0.946   5.038   4.951 -0.2287 -1.5979 -3.0868
  926MOL0     H25005   1.069   5.095   4.842  1.2285 -0.7702  0.5329
  926MOL0     H25006   1.039   5.318   4.913  1.0164 -1.5074 -1.1338
  926MOL0     H25007   0.987   5.257   5.080  1.2386 -0.4223  0.7036
  926MOL0     H25008   0.622   5.319   4.912  0.4887  1.1348  1.3170
  926MOL0     H25009   1.547   5.219   5.225 -0.5071 -1.4220  0.4692
  926MOL0     H25010   1.774   5.235   5.133  1.5093 -0.1349 -1.3289
  927MOL0     O25011   9.588  10.823   1.885 -0.4962  0.7673  0.5372
  927MOL0     C25012   9.571  10.706   1.921 -0.1317  0.0661  0.8227
  927MOL0     O25013   9.670  10.619   1.974 -0.7927 -0.3203 -0.2779
  927MOL0     C25014   9.794  10.677   2.002 -0.4380  0.6713 -0.9796
  927MOL0     C25015   9.870  10.763   1.919 -0.4237  0.1876  0.5440
  927MOL0     C25016  10.008  10.788   1.949  0.5645  0.2765  1.2647
  927MOL0     C25017  10.079  10.721   2.054  0.1649 -0.2026 -0.0550
  927MOL0     O25018  10.208  10.723   2.097 -0.3686  0.5792  0.2518
  927MOL0     C25019  10.279  10.836   2.054 -0.8360 -0.0960 -0.1098
  927MOL0     C25020  10.427  10.812   2.094 -0.0871  0.1315  0.7693
  927MOL0     C25021  10.504  10.944   2.074 -0.0018  0.1826  0.0772
  927MOL0     C25022  10.654  10.934   2.069 -0.2787  0.3649 -0.5209
  927MOL0     C25023  10.714  10.902   2.211  1.5663  0.2293 -0.1930
  927MOL0     C25024  10.857  10.867   2.203  0.4825  0.1744 -0.0596
  927MOL0     C25025  10.915  10.828   2.336 -0.3876  0.1867 -0.0102
  927MOL0     C25026  10.861  10.693   2.383  0.0458 -0.6463 -0.3195
  927MOL0     N25027  10.930  10.645   2.509 -0.5273 -0.0240 -0.7673
  927MOL0     C25028  11.067  10.650   2.531 -0.3257 -0.1704 -0.9415
  927MOL0     C25029  11.083  10.605   2.657 -0.0345  0.1907  0.5913
  927MOL0     C25030  11.208  10.606   2.738  0.1843 -0.2849  0.0767
  927MOL0     C25031  11.341  10.610   2.660  0.1947 -0.3735 -0.2405
  927MOL0     C25032  11.464  10.597   2.756  0.4766 -0.3840 -0.0933
  927MOL0     C25033  11.467  10.487   2.866  0.6274 -0.2905 -0.3622
  927MOL0     O25034  11.597  10.446   2.910 -0.0236  0.1795 -1.5165
  927MOL0     C25035  11.677  10.526   2.982  0.5195 -0.4474  0.8627
  927MOL0     C25036  11.638  10.641   3.054  0.1771  0.1997 -1.0451
  927MOL0     C25037  11.730  10.735   3.101 -0.2165  0.4022 -0.8324
  927MOL0     C25038  11.672  10.856   3.169 -0.3111  0.0171 -0.1023
  927MOL0     C25039  11.868  10.710   3.092 -0.3378 -0.3861 -0.1806
  927MOL0     C25040  11.957  10.814   3.141 -0.5042 -0.5608  0.1825
  927MOL0     O25041  12.083  10.763   3.184 -0.5857 -0.2083  0.3088
  927MOL0     C25042  12.181  10.850   3.228 -0.1519  0.4749  0.6653
  927MOL0     C25043  12.318  10.813   3.206  0.1646  0.8830 -0.4740
  927MOL0     C25044  12.422  10.893   3.252  0.2774 -0.0035  0.4802
  927MOL0     C25045  12.391  11.022   3.301  0.7523  0.0791 -0.3763
  927MOL0     O25046  12.486  11.111   3.330  0.0958  0.5427  0.1960
  927MOL0     C25047  12.453  11.243   3.321 -0.8009  0.1915 -0.5635
  927MOL0     C25048  12.587  11.331   3.301  0.9811  0.6465  0.1705
  927MOL0     C25049  12.681  11.318   3.422 -0.5694  0.8899 -0.1514
  927MOL0     C25050  12.820  11.379   3.395  0.5286  0.0583  0.2482
  927MOL0     C25051  12.903  11.365   3.518  0.5380 -0.3505  0.0716
  927MOL0     C25052  13.046  11.419   3.495 -0.3739 -0.0843  0.6882
  927MOL0     C25053  13.136  11.407   3.621  0.5959  0.3756  0.8369
  927MOL0     C25054  13.247  11.500   3.606 -0.2541 -0.3186 -0.0553
  927MOL0    Cl25055  13.218  11.659   3.692  0.2221 -0.2478  0.4190
  927MOL0     C25056  12.253  11.065   3.322 -1.2369  0.3077 -0.8309
  927MOL0     C25057  12.154  10.983   3.280  0.3277  0.9115 -0.1178
  927MOL0     O25058  11.939  10.933   3.103 -0.5436  0.0661 -0.1070
  927MOL0     C25059  11.904  10.583   3.053  0.0663  0.7896 -0.1904
  927MOL0     C25060  11.816  10.492   2.996  0.1145 -0.1719  1.0195
  927MOL0     N25061  10.958  10.569   2.703 -0.0433  0.1802 -0.1249
  927MOL0     N25062  10.864  10.593   2.616 -0.4425 -0.1057 -0.0922
  927MOL0     C25063  10.005  10.632   2.128  0.4616 -0.7817 -0.3102
  927MOL0     C25064   9.866  10.613   2.106  0.2395 -0.3601 -0.0677
  927MOL0     C25065   9.436  10.655   1.919 -0.0920 -0.7077  0.2284
  927MOL0     C25066   9.323  10.733   1.890  0.4199 -0.4612  0.5097
  927MOL0     C25067   9.193  10.690   1.912 -0.5311 -0.3212  0.9176
  927MOL0     C25068   9.165  10.558   1.951 -0.7299  0.2033  1.0519
  927MOL0     O25069   9.040  10.517   1.971  0.0063 -0.0656  0.5627
  927MOL0     C25070   8.941  10.606   2.027  0.2342  0.0739  0.0528
  927MOL0     C25071   8.807  10.518   2.037 -0.0232 -0.0172 -0.2564
  927MOL0     C25072   8.705  10.585   2.130  0.0227 -0.1521  1.0087
  927MOL0     C25073   8.583  10.489   2.119 -0.7185  0.4657 -0.8655
  927MOL0     C25074   8.475  10.544   2.206  0.1744 -0.0900 -0.0665
  927MOL0     C25075   8.391  10.603   2.272  0.9448  0.2120 -0.2930
  927MOL0     C25076   9.283  10.474   1.956  1.3111 -1.3507  0.5406
  927MOL0     C25077   9.412  10.522   1.939 -0.2105  0.9546 -1.2207
  927MOL0     H25078   9.821  10.802   1.830  0.4184 -1.7169 -0.8053
  927MOL0     H25079  10.071  10.845   1.882  0.1160 -0.6491  0.0067
  927MOL0     H25080  10.258  10.859   1.949 -2.9666  2.5304  0.7739
  927MOL0     H25081  10.238  10.915   2.117 -2.4858  0.9884 -2.3986
  927MOL0     H25082  10.433  10.766   2.193 -0.1824 -1.4354  0.0838
  927MOL0     H25083  10.480  10.739   2.032  1.3488  1.9630 -0.2792
  927MOL0     H25084  10.476  10.989   1.978  1.7752 -1.3672 -1.2541
  927MOL0     H25085  10.480  11.012   2.156  2.6274  3.1394 -1.3663
  927MOL0     H25086  10.676  10.853   1.998 -0.3679 -2.3675  2.3725
  927MOL0     H25087  10.700  11.026   2.031  0.4620 -0.2805 -1.2301
  927MOL0     H25088  10.708  10.988   2.278  1.9968  0.6294 -0.6595
  927MOL0     H25089  10.657  10.819   2.254  2.3529  1.1740  2.8762
  927MOL0     H25090  10.884  10.788   2.132  3.8718  1.0395  0.1157
  927MOL0     H25091  10.912  10.950   2.158  1.6780  0.4396  1.7853
  927MOL0     H25092  11.023  10.813   2.327 -0.4765  0.0287 -1.0027
  927MOL0     H25093  10.881  10.903   2.407 -3.4477  1.7155 -2.8270
  927MOL0     H25094  10.864  10.621   2.301  1.5504 -2.3271  1.1529
  927MOL0     H25095  10.758  10.705   2.418 -1.0450  0.3750 -3.4981
  927MOL0     H25096  11.145  10.676   2.460  0.1032 -1.1491 -0.8504
  927MOL0     H25097  11.219  10.699   2.795  3.3470  0.0841 -0.9501
  927MOL0     H25098  11.201  10.517   2.801 -1.0911 -2.2628 -2.6777
  927MOL0     H25099  11.351  10.697   2.594 -1.8986 -1.9893 -2.9221
  927MOL0     H25100  11.348  10.517   2.603 -0.0131  0.0955 -1.0592
  927MOL0     H25101  11.461  10.697   2.801 -1.7684 -0.5936  0.3472
  927MOL0     H25102  11.555  10.588   2.696  0.0205 -1.1347 -0.6857
  927MOL0     H25103  11.405  10.408   2.823 -4.4776  2.8175  0.3933
  927MOL0     H25104  11.408  10.532   2.947 -0.2361 -1.5049 -0.2987
  927MOL0     H25105  11.536  10.678   3.051  0.9637  2.5263 -1.1922
  927MOL0     H25106  11.563  10.856   3.168 -0.3217 -0.9387 -0.4310
  927MOL0     H25107  11.711  10.875   3.270 -0.9694 -2.0704  0.6011
  927MOL0     H25108  11.693  10.942   3.105  2.4746 -0.5356 -0.0541
  927MOL0     H25109  12.342  10.717   3.162  2.1961  0.6635  0.9589
  927MOL0     H25110  12.524  10.857   3.246  0.6380  0.1002  4.1072
  927MOL0     H25111  12.375  11.258   3.247 -1.2466 -0.1909 -0.1779
  927MOL0     H25112  12.406  11.263   3.418 -2.0140 -2.1358 -0.5781
  927MOL0     H25113  12.625  11.310   3.200  0.4896  0.1889  0.0756
  927MOL0     H25114  12.555  11.436   3.304 -2.6705 -0.2330 -1.6432
  927MOL0     H25115  12.696  11.216   3.456 -0.1274  0.6088 -1.1440
  927MOL0     H25116  12.628  11.364   3.506  1.8411  0.2230  1.8553
  927MOL0     H25117  12.856  11.349   3.296 -3.4832  3.5198 -2.6196
  927MOL0     H25118  12.797  11.485   3.384  1.4540  0.2749  0.3421
  927MOL0     H25119  12.912  11.258   3.536  1.0925 -1.1348 -3.8941
  927MOL0     H25120  12.860  11.419   3.602  0.6853 -2.3038  1.4567
  927MOL0     H25121  13.089  11.349   3.422  1.1146  1.1443  0.3272
  927MOL0     H25122  13.058  11.521   3.459  1.9649 -0.2915  0.6789
  927MOL0     H25123  13.171  11.303   3.620 -0.8308 -0.2290 -3.1167
  927MOL0     H25124  13.081  11.432   3.712  0.1067  3.2167 -0.1583
  927MOL0     H25125  13.259  11.508   3.497  0.3939 -1.3329 -0.0651
  927MOL0     H25126  13.342  11.461   3.642 -0.5310 -1.6338 -0.7052
  927MOL0     H25127  12.227  11.163   3.363  0.5755  0.1432  0.8170
  927MOL0     H25128  12.054  11.021   3.296  1.8937  4.5796  2.1421
  927MOL0     H25129  12.009  10.557   3.062  0.2942  1.6475 -0.2675
  927MOL0     H25130  11.843  10.402   2.941 -4.5033 -0.0780 -1.9335
  927MOL0     H25131  10.055  10.578   2.208  1.2214 -1.0449 -0.9506
  927MOL0     H25132   9.816  10.541   2.170 -4.0529  1.1839 -1.2936
  927MOL0     H25133   9.342  10.830   1.846 -0.6807 -0.7432 -0.6461
  927MOL0     H25134   9.107  10.755   1.903 -1.0925 -0.8024  2.5486
  927MOL0     H25135   8.979  10.629   2.127 -1.6100  0.5773  0.6895
  927MOL0     H25136   8.917  10.691   1.963 -2.0000 -0.5591 -0.0557
  927MOL0     H25137   8.827  10.423   2.087 -2.0193  0.0473  0.7549
  927MOL0     H25138   8.769  10.496   1.937 -0.9760  2.8807 -0.6328
  927MOL0     H25139   8.682  10.677   2.076 -1.6141 -1.4173 -0.5708
  927MOL0     H25140   8.727  10.606   2.235 -0.0510  2.4943  0.5659
  927MOL0     H25141   8.606  10.385   2.143 -2.3269  0.0955 -0.8526
  927MOL0     H25142   8.542  10.490   2.018 -0.9604 -2.0325 -0.8414
  927MOL0     H25143   8.319  10.625   2.348 -0.1834 -2.4924 -0.4669
  927MOL0     H25144   9.260  10.369   1.974  1.5052 -1.5862 -0.4999
  927MOL0     H25145   9.498  10.458   1.957  0.2986  2.0117  0.3220
  928MOL0     O25146   1.350   1.297   3.112 -0.4413 -0.0499  1.2251
  928MOL0     C25147   1.328   1.205   3.180  0.2060 -0.1723 -0.7412
  928MOL0     O25148   1.207   1.145   3.185  0.5118  0.3464  0.0099
  928MOL0     C25149   1.088   1.174   3.115 -0.1812 -0.2364 -0.4637
  928MOL0     C25150   1.055   1.302   3.058 -0.5228 -0.2768  0.2346
  928MOL0     C25151   0.934   1.313   2.990 -0.1460 -0.4573 -0.2567
  928MOL0     C25152   0.842   1.212   2.971  0.1216  0.0402 -0.4630
  928MOL0     O25153   0.731   1.236   2.899  0.2551  0.0796 -0.3484
  928MOL0     C25154   0.649   1.129   2.854  0.4764 -0.5031 -0.1473
  928MOL0     C25155   0.507   1.163   2.888  0.4056  0.2513  0.2479
  928MOL0     C25156   0.408   1.128   2.767  0.1376 -0.0278 -0.3340
  928MOL0     C25157   0.268   1.185   2.791  0.7703 -0.2551 -0.6946
  928MOL0     C25158   0.163   1.151   2.688  1.0440  0.1463 -0.1518
  928MOL0     C25159   0.187   1.182   2.536 -0.1796  0.9331 -0.2282
  928MOL0     C25160   0.063   1.130   2.458 -1.4620 -0.4469 -1.0108
  928MOL0     C25161   0.060   0.978   2.436  0.3194 -0.0343  0.2194
  928MOL0     N25162  -0.066   0.931   2.368  0.5572  1.2985 -0.4358
  928MOL0     C25163  -0.102   0.961   2.240  0.0885  0.3631  0.1567
  928MOL0     C25164  -0.218   0.896   2.225 -0.1805 -0.0737  1.0882
  928MOL0     C25165  -0.308   0.920   2.111  0.9225 -0.1946  0.0903
  928MOL0     C25166  -0.456   0.918   2.154 -0.8777  0.4710  0.1089
  928MOL0     C25167  -0.496   1.023   2.271  0.4925 -0.7659  0.2283
  928MOL0     C25168  -0.646   1.013   2.267 -0.0667  0.0598 -0.0614
  928MOL0     O25169  -0.709   1.054   2.389 -0.1229  0.1252 -0.4526
  928MOL0     C25170  -0.746   1.181   2.416  0.0674 -0.4535 -1.0159
  928MOL0     C25171  -0.720   1.290   2.326 -1.1032  0.3733  0.7249
  928MOL0     C25172  -0.759   1.423   2.360  0.2199 -0.2612  0.1932
  928MOL0     C25173  -0.710   1.529   2.262  0.0836  0.8534 -0.3604
  928MOL0     C25174  -0.828   1.446   2.482 -0.1793 -0.2184  0.4748
  928MOL0     C25175  -0.860   1.581   2.536  0.8354  0.3782 -0.0120
  928MOL0     O25176  -0.875   1.599   2.673  0.7152  0.2186 -0.2959
  928MOL0     C25177  -0.937   1.711   2.739  0.1944  0.2583  0.2223
  928MOL0     C25178  -1.027   1.792   2.673 -0.2806  0.0651  0.4770
  928MOL0     C25179  -1.097   1.890   2.743  0.5383 -0.1899 -0.5883
  928MOL0     C25180  -1.076   1.909   2.881 -0.4448 -0.7923  0.1872
  928MOL0     O25181  -1.146   1.998   2.962  0.1686  1.0598  0.4058
  928MOL0     C25182  -1.165   2.126   2.909  0.2698  0.0055  0.1610
  928MOL0     C25183  -1.223   2.213   3.014  0.6908  1.0126 -0.3170
  928MOL0     C25184  -1.211   2.359   2.967 -0.2944  0.3761  0.1447
  928MOL0     C25185  -1.284   2.450   3.057  0.6372  0.8449  0.1525
  928MOL0     C25186  -1.303   2.589   2.994 -0.6181 -0.3690 -0.8425
  928MOL0     C25187  -1.418   2.569   2.898  0.5347  0.0271  0.0250
  928MOL0     C25188  -1.478   2.706   2.867  0.4432 -0.9338 -0.4642
  928MOL0     C25189  -1.624   2.690   2.826 -0.3444  0.1847 -0.6482
  928MOL0    Cl25190  -1.664   2.626   2.654  0.2933  0.2894  0.0910
  928MOL0     C25191  -0.981   1.829   2.950  1.1253  0.5773  0.6351
  928MOL0     C25192  -0.916   1.734   2.876  0.0608 -1.0129 -0.5430
  928MOL0     O25193  -0.873   1.669   2.453 -1.0229 -0.1956 -0.5294
  928MOL0     C25194  -0.859   1.341   2.563 -0.2647  1.1196 -0.0387
  928MOL0     C25195  -0.812   1.211   2.536 -0.2291 -0.5096  0.4582
  928MOL0     N25196  -0.255   0.832   2.350  0.1773 -0.5989 -0.9350
  928MOL0     N25197  -0.155   0.839   2.424  0.4179  0.6035  0.4223
  928MOL0     C25198   0.866   1.092   3.046 -0.3965  0.1620 -0.2278
  928MOL0     C25199   0.989   1.071   3.108  0.6271  0.2585  0.4292
  928MOL0     C25200   1.446   1.160   3.260  0.6781  0.1008 -0.3014
  928MOL0     C25201   1.565   1.234   3.280 -0.1307 -0.1196  0.8648
  928MOL0     C25202   1.669   1.184   3.362 -0.0934 -0.0054  0.4198
  928MOL0     C25203   1.658   1.056   3.421 -0.1384  0.1202  0.5553
  928MOL0     O25204   1.739   0.999   3.512 -0.4192 -0.2196 -0.3678
  928MOL0     C25205   1.857   1.063   3.560  0.1695  0.0159 -0.3853
  928MOL0     C25206   1.961   1.061   3.457 -0.4557  0.8567 -0.6928
  928MOL0     C25207   2.091   1.102   3.522  0.6438  0.2557 -0.2479
  928MOL0     C25208   2.196   1.166   3.426 -0.4201  0.2164 -0.3585
  928MOL0     C25209   2.238   1.077   3.318 -0.1421  0.1733  0.3140
  928MOL0     C25210   2.255   0.998   3.227  0.0913 -0.7324 -0.0628
  928MOL0     C25211   1.542   0.982   3.392  0.0660  0.0880  0.0598
  928MOL0     C25212   1.441   1.030   3.308 -0.2181 -0.0687 -0.0903
  928MOL0     H25213   1.113   1.393   3.069  0.8551 -0.8460 -1.7526
  928MOL0     H25214   0.923   1.408   2.938 -0.8009 -0.7497 -0.6651
  928MOL0     H25215   0.668   1.122   2.747 -1.6300 -1.6455 -0.4894
  928MOL0     H25216   0.663   1.031   2.901 -2.7532 -0.4712  1.0866
  928MOL0     H25217   0.485   1.121   2.987  1.5205 -1.2854 -0.1170
  928MOL0     H25218   0.496   1.270   2.904 -0.0434  0.8905 -3.5690
  928MOL0     H25219   0.451   1.164   2.673  1.7096 -1.6536 -0.2912
  928MOL0     H25220   0.405   1.019   2.762 -0.9079 -0.5830  5.3633
  928MOL0     H25221   0.237   1.140   2.886 -1.3456 -1.0421 -1.7024
  928MOL0     H25222   0.281   1.293   2.807 -1.1392 -0.1933  0.8343
  928MOL0     H25223   0.137   1.046   2.702  0.4415 -0.2253 -3.3119
  928MOL0     H25224   0.065   1.194   2.711  1.6996  1.4724  0.3043
  928MOL0     H25225   0.203   1.288   2.515 -2.9490  1.1313 -1.8474
  928MOL0     H25226   0.279   1.129   2.509 -0.2481  0.3405  0.6865
  928MOL0     H25227  -0.026   1.168   2.508 -1.1820 -2.7681  1.5226
  928MOL0     H25228   0.065   1.158   2.353 -2.2095 -2.5016 -1.6262
  928MOL0     H25229   0.074   0.916   2.525  2.6726  1.0077  0.6566
  928MOL0     H25230   0.147   0.942   2.381 -0.2305 -0.7451 -0.1948
  928MOL0     H25231  -0.059   1.032   2.170 -1.1274 -1.7136 -2.8777
  928MOL0     H25232  -0.293   1.025   2.082 -1.3183  1.8033  5.0615
  928MOL0     H25233  -0.285   0.862   2.021 -0.8453  0.0401 -0.5439
  928MOL0     H25234  -0.476   0.811   2.169 -0.8786 -0.0150 -2.9060
  928MOL0     H25235  -0.520   0.939   2.068 -3.4146 -2.9753  0.9600
  928MOL0     H25236  -0.457   1.120   2.240 -0.3317 -1.0297 -1.8386
  928MOL0     H25237  -0.450   0.997   2.366 -0.2926  0.1869  0.8835
  928MOL0     H25238  -0.670   0.906   2.262 -0.9245  0.2956 -2.3634
  928MOL0     H25239  -0.696   1.060   2.181 -0.9224 -0.8307 -0.0720
  928MOL0     H25240  -0.674   1.275   2.229 -1.3042 -1.3114  0.8589
  928MOL0     H25241  -0.780   1.611   2.247 -0.6217  0.1272 -1.1724
  928MOL0     H25242  -0.612   1.567   2.293  0.0796 -1.1118  2.4892
  928MOL0     H25243  -0.700   1.476   2.167  0.6410 -0.5840  0.4749
  928MOL0     H25244  -1.051   1.768   2.570  2.4916 -1.1564  0.0238
  928MOL0     H25245  -1.156   1.959   2.683 -0.4262 -0.0524  0.4733
  928MOL0     H25246  -1.077   2.167   2.859 -0.0469 -0.3980 -0.7560
  928MOL0     H25247  -1.243   2.114   2.833  1.9286 -3.3289 -1.2337
  928MOL0     H25248  -1.331   2.193   3.012  0.7818  0.5631 -0.5896
  928MOL0     H25249  -1.171   2.198   3.109  2.5394  2.6896 -0.9770
  928MOL0     H25250  -1.248   2.358   2.864 -0.2287 -0.2308  0.1255
  928MOL0     H25251  -1.104   2.380   2.964  0.3819 -2.2624  1.8156
  928MOL0     H25252  -1.380   2.409   3.089  0.9310  1.3161  1.7867
  928MOL0     H25253  -1.247   2.463   3.159 -1.7543  0.7290  1.1092
  928MOL0     H25254  -1.219   2.630   2.938 -2.5568  4.1174 -0.9028
  928MOL0     H25255  -1.325   2.656   3.078  2.8305 -1.7214  1.3744
  928MOL0     H25256  -1.393   2.518   2.805 -0.3150  1.2450 -0.9001
  928MOL0     H25257  -1.498   2.510   2.945 -1.9254  2.7067 -0.5308
  928MOL0     H25258  -1.421   2.756   2.788 -0.8099  0.1941 -0.6855
  928MOL0     H25259  -1.477   2.761   2.962 -1.2645 -2.8944  0.7797
  928MOL0     H25260  -1.659   2.794   2.821  2.2762  1.2285  0.7222
  928MOL0     H25261  -1.682   2.639   2.904  1.0521  1.8553  1.6297
  928MOL0     H25262  -0.955   1.832   3.055  0.4351  0.3728  0.8106
  928MOL0     H25263  -0.860   1.666   2.940 -0.9925 -1.2310  0.1906
  928MOL0     H25264  -0.910   1.350   2.659 -2.2496  0.5194 -0.9969
  928MOL0     H25265  -0.831   1.137   2.614 -0.4985  0.9433  1.8363
  928MOL0     H25266   0.800   1.006   3.050 -1.5697  1.0833  1.6977
  928MOL0     H25267   1.015   0.976   3.155  1.7699 -0.2594 -1.1583
  928MOL0     H25268   1.582   1.326   3.225  2.5289 -0.2235  1.3951
  928MOL0     H25269   1.762   1.239   3.375 -0.5215  0.1506  3.2946
  928MOL0     H25270   1.836   1.167   3.587 -2.0656 -0.6833  0.8023
  928MOL0     H25271   1.888   1.015   3.654  0.8860 -0.5718 -0.9075
  928MOL0     H25272   1.942   1.136   3.379 -0.2031  0.5871 -1.0203
  928MOL0     H25273   1.967   0.968   3.400 -3.5722  1.6190 -2.5246
  928MOL0     H25274   2.131   1.018   3.580  0.7043  1.8108  2.0798
  928MOL0     H25275   2.059   1.170   3.602  0.5324 -1.2281  1.0288
  928MOL0     H25276   2.278   1.201   3.490 -0.8408 -1.1194  0.9559
  928MOL0     H25277   2.158   1.263   3.392  2.0897  2.0498  1.6471
  928MOL0     H25278   2.281   0.946   3.137  1.4872 -0.6755  0.2722
  928MOL0     H25279   1.520   0.893   3.449 -1.2765  0.3711  0.0057
  928MOL0     H25280   1.358   0.967   3.277 -0.5512 -0.0756  0.7688
  929MOL0     O25281   3.311   8.280   5.144 -0.8124 -0.0198  0.6231
  929MOL0     C25282   3.357   8.163   5.116  0.3002 -0.1513 -0.2893
  929MOL0     O25283   3.285   8.048   5.107  0.3732 -0.1414 -0.3109
  929MOL0     C25284   3.151   8.049   5.117  0.0625  0.7634  0.2038
  929MOL0     C25285   3.076   8.135   5.053  0.8067  0.1344 -0.2292
  929MOL0     C25286   2.929   8.131   5.071 -0.6780  0.3872  0.3128
  929MOL0     C25287   2.870   8.031   5.144  0.2534  0.4787 -0.5068
  929MOL0     O25288   2.734   8.034   5.148 -0.4613  0.4393  0.3136
  929MOL0     C25289   2.676   7.959   5.258  0.2855  0.1574 -0.2255
  929MOL0     C25290   2.537   8.023   5.299  0.4279  0.2886  0.6164
  929MOL0     C25291   2.425   8.004   5.196  0.2722  0.9678 -0.2628
  929MOL0     C25292   2.296   8.051   5.267  0.9316  0.9667 -0.7247
  929MOL0     C25293   2.172   7.986   5.203  0.7070  0.4353 -0.0940
  929MOL0     C25294   2.035   8.044   5.228 -0.4255  0.3685 -0.2489
  929MOL0     C25295   1.969   8.020   5.367 -0.5968 -0.2248  0.5027
  929MOL0     C25296   1.833   8.077   5.376  0.0312 -0.5768 -0.0695
  929MOL0     N25297   1.730   8.011   5.297 -0.2461  0.4773 -0.0412
  929MOL0     C25298   1.726   7.874   5.271 -0.4956  0.0901 -0.3588
  929MOL0     C25299   1.603   7.855   5.220  0.4214  0.2588 -0.1802
  929MOL0     C25300   1.541   7.718   5.194  0.0698 -0.4122  0.9551
  929MOL0     C25301   1.397   7.693   5.200 -0.8141 -0.8168 -0.9067
  929MOL0     C25302   1.345   7.666   5.057 -0.1049  0.3384  0.0784
  929MOL0     C25303   1.185   7.648   5.048 -0.5324  0.4081 -0.3023
  929MOL0     O25304   1.123   7.524   5.075 -0.0514  0.1800  0.4855
  929MOL0     C25305   0.982   7.514   5.080 -0.2999 -0.0007  1.5656
  929MOL0     C25306   0.954   7.378   5.075  0.2366  0.6607 -0.3538
  929MOL0     C25307   0.820   7.327   5.095  1.4596 -0.1016  0.1912
  929MOL0     C25308   0.803   7.173   5.099  0.5265 -1.3382 -0.2527
  929MOL0     C25309   0.714   7.422   5.117 -0.1766  0.5779 -0.1851
  929MOL0     C25310   0.585   7.386   5.167 -0.2943 -0.1363 -0.9184
  929MOL0     O25311   0.482   7.470   5.133 -1.0081 -0.2081 -0.1516
  929MOL0     C25312   0.353   7.455   5.164 -0.2656 -0.4057  0.2392
  929MOL0     C25313   0.291   7.580   5.174 -0.0944  0.5358 -0.3998
  929MOL0     C25314   0.151   7.591   5.202 -1.1518  0.1221 -0.4442
  929MOL0     C25315   0.076   7.482   5.225 -0.0477 -0.0102 -0.7854
  929MOL0     O25316  -0.061   7.494   5.249  0.5034 -0.5389  0.7462
  929MOL0     C25317  -0.127   7.384   5.324  0.1970 -0.3037 -0.7278
  929MOL0     C25318  -0.258   7.450   5.375  0.0216 -0.3579 -1.0742
  929MOL0     C25319  -0.346   7.352   5.445 -0.0134 -0.2344 -1.1166
  929MOL0     C25320  -0.497   7.381   5.430 -0.0776 -0.3172 -0.2073
  929MOL0     C25321  -0.591   7.257   5.470 -1.0463 -1.5695  0.7924
  929MOL0     C25322  -0.725   7.254   5.403  0.6057  0.7585 -0.3491
  929MOL0     C25323  -0.831   7.142   5.459 -1.3946  0.1689  0.0070
  929MOL0     C25324  -0.946   7.124   5.369  0.0736  0.0336 -0.1789
  929MOL0    Cl25325  -0.882   7.028   5.230  0.4143  0.1534  0.0075
  929MOL0     C25326   0.149   7.358   5.220  0.4913 -0.0028 -0.6828
  929MOL0     C25327   0.275   7.338   5.184 -0.0649 -0.9616 -0.6277
  929MOL0     O25328   0.583   7.304   5.257  0.0480 -0.4401  0.7920
  929MOL0     C25329   0.745   7.557   5.107 -0.2929 -0.3871 -0.2603
  929MOL0     C25330   0.874   7.605   5.092 -0.1446 -0.2955 -0.0155
  929MOL0     N25331   1.540   7.974   5.213  0.3818  0.1369  0.0056
  929MOL0     N25332   1.617   8.065   5.260  0.4875 -0.1326 -0.0030
  929MOL0     C25333   2.957   7.933   5.213  0.0099  0.5712  1.0918
  929MOL0     C25334   3.093   7.944   5.192  0.0495 -0.8336  0.0816
  929MOL0     C25335   3.501   8.154   5.093  0.6505 -0.4605  0.0841
  929MOL0     C25336   3.556   8.030   5.073  0.1454 -0.4051  0.6882
  929MOL0     C25337   3.694   8.025   5.043  0.9761  1.9009 -1.3677
  929MOL0     C25338   3.778   8.132   5.046 -0.2516 -0.8654 -0.2483
  929MOL0     O25339   3.917   8.122   5.052  0.4730 -0.3542 -0.3906
  929MOL0     C25340   4.001   8.161   4.936  0.3950  0.1935  0.4625
  929MOL0     C25341   3.989   8.082   4.804 -0.8837 -0.1127 -0.3774
  929MOL0     C25342   4.056   8.151   4.691  0.6763 -0.3624  1.0327
  929MOL0     C25343   4.207   8.104   4.681  0.5821 -0.4308  0.3016
  929MOL0     C25344   4.264   8.160   4.562  1.2558  1.1912  0.4151
  929MOL0     C25345   4.306   8.206   4.461 -0.5027 -0.5486 -0.0782
  929MOL0     C25346   3.723   8.265   5.066 -1.0148  0.5736 -0.1548
  929MOL0     C25347   3.583   8.266   5.090  0.4260 -0.8222 -0.3836
  929MOL0     H25348   3.119   8.213   4.992  1.6203 -0.8805 -1.0049
  929MOL0     H25349   2.866   8.197   5.012 -1.0396 -0.2106  0.0341
  929MOL0     H25350   2.661   7.857   5.221 -2.2990  0.5116 -0.3451
  929MOL0     H25351   2.737   7.957   5.348  1.0100 -2.4659 -0.7067
  929MOL0     H25352   2.515   7.969   5.392  1.0333 -0.9288  0.0781
  929MOL0     H25353   2.556   8.128   5.322  0.6741  0.4214 -0.1667
  929MOL0     H25354   2.449   8.058   5.103 -1.0700  3.1679  0.5980
  929MOL0     H25355   2.413   7.897   5.177 -2.2634  1.2404 -0.5684
  929MOL0     H25356   2.289   8.014   5.370 -0.8577  0.6160 -0.9409
  929MOL0     H25357   2.299   8.160   5.263 -0.0269  0.9606 -2.8066
  929MOL0     H25358   2.185   7.981   5.095  1.8609 -2.3504  0.0762
  929MOL0     H25359   2.175   7.883   5.240 -1.5268  0.8159  1.3656
  929MOL0     H25360   2.044   8.151   5.205  2.8204  0.2230 -0.0553
  929MOL0     H25361   1.963   7.999   5.159 -1.3981  0.2872  0.7894
  929MOL0     H25362   1.972   7.912   5.386 -0.9856 -0.4152 -0.4632
  929MOL0     H25363   2.020   8.077   5.445 -1.1716 -0.9242  1.4130
  929MOL0     H25364   1.831   8.179   5.336  2.4095 -0.2715  0.4271
  929MOL0     H25365   1.802   8.082   5.480  0.3301 -1.0134  0.0429
  929MOL0     H25366   1.813   7.815   5.297  2.2938  3.9288 -0.1653
  929MOL0     H25367   1.583   7.678   5.101 -0.4729  0.5300  0.2828
  929MOL0     H25368   1.585   7.655   5.272  2.0801 -0.8817 -0.4599
  929MOL0     H25369   1.366   7.786   5.249  4.2184  0.0656  1.2083
  929MOL0     H25370   1.374   7.612   5.269 -0.6073  0.6582  0.9882
  929MOL0     H25371   1.400   7.579   5.020  2.9417  0.9437  2.7969
  929MOL0     H25372   1.370   7.756   4.999 -1.7114  2.5668  2.5880
  929MOL0     H25373   1.137   7.685   4.957 -3.7581  1.9475  1.8236
  929MOL0     H25374   1.141   7.713   5.125 -1.1313  0.6993 -0.8778
  929MOL0     H25375   1.033   7.305   5.061 -2.0707 -1.5664 -3.1724
  929MOL0     H25376   0.699   7.145   5.113 -0.4332  2.0889  0.3496
  929MOL0     H25377   0.845   7.122   5.012 -0.0571 -1.5296 -0.4243
  929MOL0     H25378   0.856   7.133   5.186 -1.0891 -2.0725  0.4315
  929MOL0     H25379   0.354   7.667   5.157  2.0460 -1.1549 -1.6090
  929MOL0     H25380   0.110   7.691   5.197 -1.6367  0.4197  4.6078
  929MOL0     H25381  -0.140   7.303   5.252  2.6720 -0.6207 -0.8907
  929MOL0     H25382  -0.063   7.356   5.408  1.6694  0.2355 -1.6355
  929MOL0     H25383  -0.246   7.542   5.434 -1.1245 -2.5975  2.9950
  929MOL0     H25384  -0.312   7.489   5.287  2.1288 -0.9729 -2.7167
  929MOL0     H25385  -0.326   7.355   5.552  1.8275 -0.1047 -1.4237
  929MOL0     H25386  -0.316   7.253   5.409  0.5161 -0.7943  0.7305
  929MOL0     H25387  -0.520   7.466   5.493 -1.2661 -0.8089  0.0496
  929MOL0     H25388  -0.507   7.409   5.325  3.4690 -0.7345 -0.7756
  929MOL0     H25389  -0.606   7.249   5.578  0.2502  3.7989  1.6314
  929MOL0     H25390  -0.528   7.178   5.427 -0.5393  1.1227 -4.0957
  929MOL0     H25391  -0.770   7.353   5.407 -1.8371 -0.3222  1.0804
  929MOL0     H25392  -0.704   7.231   5.298 -0.0236  0.1246 -0.3454
  929MOL0     H25393  -0.859   7.174   5.559  0.4927 -2.2002  1.4152
  929MOL0     H25394  -0.780   7.046   5.469 -1.2407 -0.1654 -2.9993
  929MOL0     H25395  -0.985   7.223   5.344  1.1838  1.0652  1.9201
  929MOL0     H25396  -1.024   7.057   5.409 -0.5332 -0.4240 -2.0239
  929MOL0     H25397   0.099   7.261   5.220 -1.3565  0.9035 -0.7620
  929MOL0     H25398   0.302   7.233   5.173 -0.0203 -1.0532  0.3043
  929MOL0     H25399   0.663   7.626   5.126 -0.7722 -1.4296  1.7420
  929MOL0     H25400   0.895   7.709   5.116 -0.8075 -0.2048  0.1848
  929MOL0     H25401   2.917   7.846   5.264  3.1588 -1.7844 -0.1342
  929MOL0     H25402   3.163   7.881   5.246  1.9004  1.2541  0.2670
  929MOL0     H25403   3.498   7.939   5.066  0.5263 -0.7831  2.0865
  929MOL0     H25404   3.738   7.930   5.014 -1.4287  0.1031  0.4744
  929MOL0     H25405   3.960   8.260   4.913 -0.6519 -0.6147 -1.3356
  929MOL0     H25406   4.105   8.179   4.968  1.2245  1.0638 -2.3973
  929MOL0     H25407   3.880   8.073   4.796 -1.1567  0.1282  2.1915
  929MOL0     H25408   4.033   7.984   4.826  1.2766  1.3873  2.7764
  929MOL0     H25409   4.049   8.260   4.699 -5.2499 -0.5490  3.9200
  929MOL0     H25410   3.997   8.136   4.600  0.7858  2.1336  0.4601
  929MOL0     H25411   4.203   7.995   4.672 -0.3757 -0.4497  0.8359
  929MOL0     H25412   4.274   8.136   4.762 -0.1392  0.2592  0.6378
  929MOL0     H25413   4.336   8.248   4.368 -1.1400  0.2908  0.0884
  929MOL0     H25414   3.788   8.351   5.052 -2.1936  1.4076 -0.6663
  929MOL0     H25415   3.534   8.360   5.113 -3.6819 -2.7823 -0.1783
  930MOL0     O25416  10.091   9.329  10.865  0.7009  0.6546  0.6342
  930MOL0     C25417  10.125   9.349  10.982 -0.3466  0.2607 -0.0448
  930MOL0     O25418  10.033   9.351  11.093  0.8270 -0.5348  0.1487
  930MOL0     C25419   9.900   9.322  11.072 -0.6769  0.5065  0.0601
  930MOL0     C25420   9.826   9.359  10.958 -0.2943  0.0741  0.5536
  930MOL0     C25421   9.693   9.329  10.952 -0.2634 -0.3677  0.0299
  930MOL0     C25422   9.629   9.269  11.065  0.3542 -0.2766  0.6181
  930MOL0     O25423   9.499   9.246  11.072 -0.6129 -0.3266 -0.2978
  930MOL0     C25424   9.429   9.316  11.169 -0.0635  0.7541  0.4040
  930MOL0     C25425   9.280   9.267  11.198 -0.3998  0.7872  0.0761
  930MOL0     C25426   9.201   9.238  11.075  0.1170 -0.1483  0.0718
  930MOL0     C25427   9.053   9.194  11.105 -0.1885  0.0653  0.6363
  930MOL0     C25428   8.964   9.302  11.164 -0.0847 -0.3986 -0.8409
  930MOL0     C25429   8.826   9.254  11.214  0.0413  0.2187 -0.2230
  930MOL0     C25430   8.833   9.135  11.314  0.7867  0.3917  0.4046
  930MOL0     C25431   8.701   9.107  11.374  0.2382 -0.1698  0.5212
  930MOL0     N25432   8.614   9.036  11.288  0.2297 -0.4941 -0.3365
  930MOL0     C25433   8.549   9.089  11.183  1.0991 -0.2064  0.2988
  930MOL0     C25434   8.473   8.989  11.137  0.9921 -1.3970  0.1053
  930MOL0     C25435   8.375   9.014  11.026 -0.1129  0.3260 -0.4997
  930MOL0     C25436   8.436   9.009  10.894  0.1807 -0.8736 -0.2671
  930MOL0     C25437   8.365   9.091  10.783  0.2979 -0.3755 -0.0967
  930MOL0     C25438   8.222   9.030  10.758  0.8263 -0.7864  0.5906
  930MOL0     O25439   8.223   8.911  10.680  0.1977  0.9930  0.9192
  930MOL0     C25440   8.105   8.867  10.637 -0.5081 -0.0675  1.5278
  930MOL0     C25441   8.017   8.946  10.552 -0.6200 -0.3220  0.0653
  930MOL0     C25442   7.901   8.898  10.495  0.8560  0.2248  0.4488
  930MOL0     C25443   7.823   9.012  10.427 -0.2992 -0.0977  0.5740
  930MOL0     C25444   7.865   8.753  10.504  0.1430 -0.9637  0.0995
  930MOL0     C25445   7.730   8.692  10.467  0.0890  0.1773  0.4051
  930MOL0     O25446   7.637   8.774  10.403 -0.0556  0.4244  0.2277
  930MOL0     C25447   7.526   8.718  10.348  0.1807 -0.6317  0.0296
  930MOL0     C25448   7.496   8.746  10.218 -0.1682 -0.0718  0.6983
  930MOL0     C25449   7.377   8.699  10.163  0.0086  0.6753 -0.0753
  930MOL0     C25450   7.289   8.610  10.233  0.2887 -0.2674  0.6821
  930MOL0     O25451   7.180   8.566  10.163  0.2478  0.4929  0.1383
  930MOL0     C25452   7.068   8.504  10.227 -0.4673 -0.9542 -0.0800
  930MOL0     C25453   6.986   8.424  10.127  0.1073  0.5678  0.1981
  930MOL0     C25454   6.879   8.338  10.190 -0.5087 -0.3318  0.5646
  930MOL0     C25455   6.750   8.411  10.232 -0.2168  0.7280 -0.6169
  930MOL0     C25456   6.658   8.465  10.122 -0.6747  0.6571 -0.6640
  930MOL0     C25457   6.565   8.346  10.070  0.1246  0.6306  1.3759
  930MOL0     C25458   6.514   8.378   9.929 -0.8969  0.0640  0.3291
  930MOL0     C25459   6.448   8.263   9.860  0.4862 -0.4460  0.3170
  930MOL0    Cl25460   6.537   8.114   9.828  0.4303  0.1268 -0.2086
  930MOL0     C25461   7.315   8.598  10.369 -0.2241 -0.0315  1.1383
  930MOL0     C25462   7.435   8.645  10.420  0.1745 -0.3811 -0.3112
  930MOL0     O25463   7.720   8.571  10.482 -0.0049  0.6770  0.0125
  930MOL0     C25464   7.957   8.683  10.581  0.2917 -0.1941 -1.1707
  930MOL0     C25465   8.074   8.732  10.650  0.3049 -0.2971 -0.1494
  930MOL0     N25466   8.484   8.884  11.216  1.1579  0.1886 -0.0813
  930MOL0     N25467   8.563   8.916  11.314 -1.1222 -0.6929 -0.1128
  930MOL0     C25468   9.706   9.239  11.181  1.0676  0.4086 -0.6494
  930MOL0     C25469   9.836   9.265  11.179 -0.1008 -0.4176  0.0508
  930MOL0     C25470  10.265   9.375  11.007  0.4296  0.1002  0.6845
  930MOL0     C25471  10.310   9.350  11.138 -0.1213  0.3873  0.2506
  930MOL0     C25472  10.447   9.374  11.167  0.9027 -0.0795 -0.1463
  930MOL0     C25473  10.535   9.422  11.071  0.1071 -0.5238 -0.1469
  930MOL0     O25474  10.662   9.453  11.110 -0.4747  0.1123  0.5761
  930MOL0     C25475  10.739   9.546  11.021 -0.1275 -0.3175 -0.7280
  930MOL0     C25476  10.834   9.640  11.095  0.7921  0.4843 -0.6751
  930MOL0     C25477  10.955   9.574  11.157  0.1769 -0.1022  0.1108
  930MOL0     C25478  11.056   9.672  11.206  0.0465 -0.5614 -0.5495
  930MOL0     C25479  11.130   9.617  11.321  0.1779 -0.4470  0.7301
  930MOL0     C25480  11.200   9.604  11.415 -1.1976 -0.8334  0.2607
  930MOL0     C25481  10.487   9.443  10.944  0.3025  0.4601  0.0602
  930MOL0     C25482  10.352   9.429  10.910 -0.5716  0.0359  0.4663
  930MOL0     H25483   9.883   9.408  10.879 -1.6843 -0.7643 -1.0132
  930MOL0     H25484   9.635   9.356  10.864  1.2092 -0.8622 -1.1406
  930MOL0     H25485   9.481   9.323  11.265  2.1623  2.1976 -0.8052
  930MOL0     H25486   9.438   9.423  11.151 -1.0151  1.0856  1.8026
  930MOL0     H25487   9.276   9.174  11.255 -0.0968  0.4871 -0.3926
  930MOL0     H25488   9.241   9.339  11.271  1.6260  3.1609 -1.0255
  930MOL0     H25489   9.189   9.320  11.005 -0.3517 -1.2869 -1.2236
  930MOL0     H25490   9.249   9.151  11.028 -0.1854 -0.1407 -0.2531
  930MOL0     H25491   9.001   9.151  11.019 -1.6656 -2.6481  2.7053
  930MOL0     H25492   9.058   9.115  11.181  2.3315  0.5673  1.0745
  930MOL0     H25493   9.013   9.354  11.248 -0.7671 -0.5095 -0.3694
  930MOL0     H25494   8.951   9.370  11.079  3.7656  1.2154 -0.3645
  930MOL0     H25495   8.782   9.341  11.263  1.9832  0.6641  0.8431
  930MOL0     H25496   8.773   9.233  11.120  0.9805  3.0807 -1.5082
  930MOL0     H25497   8.885   9.048  11.273 -2.1805 -2.0179  1.3801
  930MOL0     H25498   8.894   9.175  11.396 -0.3318  1.6186  0.6769
  930MOL0     H25499   8.651   9.201  11.403 -1.1036 -1.1022  1.3344
  930MOL0     H25500   8.727   9.055  11.467  2.6924  3.3705  2.0704
  930MOL0     H25501   8.549   9.187  11.137  2.4061 -0.4079 -0.1985
  930MOL0     H25502   8.305   8.930  11.028  1.9294 -1.4444  0.3781
  930MOL0     H25503   8.322   9.109  11.042  0.2942  0.8774 -2.1701
  930MOL0     H25504   8.443   8.904  10.864 -1.5149 -1.3074  0.7270
  930MOL0     H25505   8.535   9.056  10.900 -0.6113  0.7058  1.3759
  930MOL0     H25506   8.433   9.081  10.697 -0.4252  1.0058 -0.8595
  930MOL0     H25507   8.362   9.198  10.806  0.8559 -0.7177  1.7126
  930MOL0     H25508   8.169   9.107  10.700  1.3881 -0.6947  0.1971
  930MOL0     H25509   8.170   9.006  10.851 -0.1510  2.0535  0.8678
  930MOL0     H25510   8.050   9.050  10.543  0.8475 -0.6371  1.4713
  930MOL0     H25511   7.829   9.002  10.318  1.6568  0.3623  0.6004
  930MOL0     H25512   7.716   9.004  10.449 -0.9094  2.0742 -1.2412
  930MOL0     H25513   7.854   9.113  10.455  0.1580 -0.1492  0.2687
  930MOL0     H25514   7.563   8.817  10.170  0.0102 -1.3855 -1.1238
  930MOL0     H25515   7.355   8.731  10.062  0.3804 -0.6316 -0.5971
  930MOL0     H25516   7.111   8.435  10.300  0.0058 -0.1973  0.3717
  930MOL0     H25517   7.013   8.578  10.287 -1.3013 -1.5462 -0.0885
  930MOL0     H25518   6.946   8.500  10.059  0.0503 -0.9770 -1.5658
  930MOL0     H25519   7.051   8.365  10.063  0.5424  1.4502 -0.1943
  930MOL0     H25520   6.918   8.291  10.281 -1.8753 -0.0308  1.3456
  930MOL0     H25521   6.849   8.255  10.125 -1.1264 -0.0131  0.4313
  930MOL0     H25522   6.684   8.341  10.286  0.5408  0.1516 -0.4218
  930MOL0     H25523   6.784   8.488  10.301 -1.7052  2.0505 -1.2921
  930MOL0     H25524   6.715   8.525  10.051  0.9365  1.6172  1.3484
  930MOL0     H25525   6.601   8.538  10.180  2.1095  1.0831  1.7422
  930MOL0     H25526   6.622   8.253  10.066  0.9654  1.1386 -3.0714
  930MOL0     H25527   6.490   8.337  10.149 -0.7276  2.6237  0.8769
  930MOL0     H25528   6.599   8.412   9.868 -1.0015  0.9980  0.6765
  930MOL0     H25529   6.450   8.466   9.937  0.7318  1.5502 -1.8727
  930MOL0     H25530   6.402   8.295   9.766  0.2946  0.8886  0.8474
  930MOL0     H25531   6.366   8.228   9.924 -1.2313 -0.7864 -1.9522
  930MOL0     H25532   7.245   8.547  10.434  0.0794 -1.4443  0.3946
  930MOL0     H25533   7.449   8.631  10.527 -1.1271 -0.4828 -0.1327
  930MOL0     H25534   7.947   8.577  10.601 -0.3688  0.1984  0.7925
  930MOL0     H25535   8.133   8.662  10.707 -2.0794 -3.8586 -1.6935
  930MOL0     H25536   9.664   9.187  11.267  0.9764  0.5866 -0.5847
  930MOL0     H25537   9.903   9.245  11.262  0.1858  0.8760  0.1537
  930MOL0     H25538  10.241   9.331  11.219 -0.8216  0.2276 -0.3678
  930MOL0     H25539  10.475   9.363  11.272 -1.5016  1.0817  0.6948
  930MOL0     H25540  10.798   9.475  10.962  2.7474  0.5873  0.8883
  930MOL0     H25541  10.670   9.603  10.957  0.3907 -0.9854 -1.9279
  930MOL0     H25542  10.779   9.686  11.178 -0.9319  0.6292 -1.8300
  930MOL0     H25543  10.858   9.722  11.027  1.8987  2.4305  1.9067
  930MOL0     H25544  10.995   9.511  11.076  1.1589 -0.0535  0.5411
  930MOL0     H25545  10.908   9.514  11.235 -2.7342 -0.2415 -1.5986
  930MOL0     H25546  11.012   9.766  11.242  2.5748 -0.0378  1.5241
  930MOL0     H25547  11.134   9.696  11.133  3.4111 -1.3114  2.4664
  930MOL0     H25548  11.255   9.606  11.507 -0.5163 -0.4287 -0.1471
  930MOL0     H25549  10.556   9.460  10.863 -0.1396 -2.0605 -0.9354
  930MOL0     H25550  10.327   9.450  10.806 -2.0363 -0.5568  0.6901
  931MOL0     O25551   8.411   5.247   2.272  0.7150  0.2779  0.0180
  931MOL0     C25552   8.448   5.324   2.181  0.3167  0.2180  0.2587
  931MOL0     O25553   8.393   5.441   2.152 -0.4968 -0.3344  0.3487
  931MOL0     C25554   8.269   5.483   2.211 -0.1800 -0.3155 -0.3746
  931MOL0     C25555   8.166   5.545   2.130 -0.3722  0.2159 -0.2384
  931MOL0     C25556   8.037   5.559   2.175 -0.0383  0.8329 -0.3409
  931MOL0     C25557   8.008   5.543   2.309 -0.0023 -0.0664 -0.2621
  931MOL0     O25558   7.882   5.552   2.341 -0.5008 -0.2949 -0.5939
  931MOL0     C25559   7.847   5.444   2.425  0.5532  0.2999 -0.8082
  931MOL0     C25560   7.700   5.412   2.453  0.3643 -0.2322 -0.3442
  931MOL0     C25561   7.624   5.534   2.476  0.6928 -0.6185 -0.1527
  931MOL0     C25562   7.574   5.588   2.340  0.4202 -0.2404  0.5485
  931MOL0     C25563   7.468   5.705   2.363 -0.7751 -0.1702 -0.2607
  931MOL0     C25564   7.415   5.757   2.228 -0.6066 -0.4050  0.3568
  931MOL0     C25565   7.311   5.866   2.251 -0.2011 -0.0410  0.2509
  931MOL0     C25566   7.267   5.943   2.124  1.2411  0.7375 -0.2182
  931MOL0     N25567   7.366   6.029   2.072 -0.1813  0.5472  0.4182
  931MOL0     C25568   7.396   6.034   1.939 -0.5942  0.2167  0.4171
  931MOL0     C25569   7.493   6.125   1.934 -0.0312 -0.1266  0.5152
  931MOL0     C25570   7.542   6.215   1.822 -0.3532 -0.1010  0.5474
  931MOL0     C25571   7.547   6.359   1.865 -0.9054  0.1090  0.2083
  931MOL0     C25572   7.622   6.450   1.763  0.1912 -0.1158 -0.0715
  931MOL0     C25573   7.767   6.452   1.781  0.0423  0.1299 -0.3536
  931MOL0     O25574   7.821   6.520   1.664 -0.4937 -0.1698 -0.7295
  931MOL0     C25575   7.959   6.544   1.654  0.4325  0.2578  0.2152
  931MOL0     C25576   8.008   6.638   1.563  0.1794  0.3117 -0.6541
  931MOL0     C25577   8.138   6.693   1.565  0.1586  0.6697  0.9802
  931MOL0     C25578   8.155   6.818   1.472 -0.0923  0.3526 -0.3388
  931MOL0     C25579   8.225   6.646   1.661 -0.0309  1.0463  0.5591
  931MOL0     C25580   8.366   6.689   1.667 -0.3846 -0.4551 -0.7864
  931MOL0     O25581   8.433   6.642   1.774 -0.6773 -0.2755 -0.4831
  931MOL0     C25582   8.567   6.668   1.779  0.1357 -0.5383 -0.4487
  931MOL0     C25583   8.642   6.784   1.787  0.1908 -0.2813 -0.1600
  931MOL0     C25584   8.779   6.780   1.804 -0.4588 -0.0259  0.4261
  931MOL0     C25585   8.851   6.666   1.806  0.2497  0.5720 -0.7488
  931MOL0     O25586   8.985   6.684   1.838  0.0324 -0.4303 -0.1852
  931MOL0     C25587   9.062   6.572   1.842  0.4600 -0.4275 -0.1672
  931MOL0     C25588   9.200   6.601   1.896 -0.1320 -0.1541 -0.5947
  931MOL0     C25589   9.296   6.481   1.879  0.2593  0.3653  0.5140
  931MOL0     C25590   9.445   6.524   1.916  0.1377 -0.6213 -0.1409
  931MOL0     C25591   9.553   6.415   1.881  0.1181 -0.3546  0.4775
  931MOL0     C25592   9.700   6.437   1.929 -0.0059  0.3284  0.2765
  931MOL0     C25593   9.738   6.395   2.067  1.2115  0.5197 -0.9656
  931MOL0     C25594   9.681   6.472   2.194 -0.1257  0.2401  0.4024
  931MOL0    Cl25595   9.763   6.405   2.349 -0.2914  0.0897 -0.2332
  931MOL0     C25596   8.781   6.546   1.803  0.3055  0.6163 -0.0985
  931MOL0     C25597   8.640   6.550   1.792  0.4048 -1.0518  0.5850
  931MOL0     O25598   8.412   6.767   1.584  0.1774 -0.1850  0.4683
  931MOL0     C25599   8.183   6.544   1.752 -0.8031 -0.1923 -0.6899
  931MOL0     C25600   8.050   6.506   1.756 -0.3523 -0.3251 -0.4933
  931MOL0     N25601   7.530   6.162   2.066  0.8812  0.7353  0.8057
  931MOL0     N25602   7.453   6.102   2.147  0.4267 -0.3545  0.3011
  931MOL0     C25603   8.110   5.500   2.399 -0.7019 -0.3443  0.0057
  931MOL0     C25604   8.228   5.465   2.347 -0.6345 -0.4410  0.6288
  931MOL0     C25605   8.572   5.273   2.111 -0.2922 -0.9949 -0.0441
  931MOL0     C25606   8.614   5.138   2.123  0.0708  0.4025 -0.0139
  931MOL0     C25607   8.716   5.082   2.051  1.7003  0.1387  0.6895
  931MOL0     C25608   8.788   5.159   1.962 -0.3272  0.7346 -0.0673
  931MOL0     O25609   8.883   5.102   1.882 -0.2946 -0.6933 -0.3351
  931MOL0     C25610   8.839   5.093   1.751  0.1249  0.1939 -0.3858
  931MOL0     C25611   8.854   4.953   1.677 -0.5381  0.4300 -1.4228
  931MOL0     C25612   8.985   4.946   1.583 -0.4027 -0.5177 -0.6938
  931MOL0     C25613   9.007   4.804   1.535  0.1670  0.9863 -0.1427
  931MOL0     C25614   9.069   4.716   1.641  0.3011  0.8559  0.3363
  931MOL0     C25615   9.141   4.657   1.713  1.1543  0.8377 -0.1562
  931MOL0     C25616   8.758   5.297   1.957 -0.0073 -0.6286  0.1990
  931MOL0     C25617   8.651   5.350   2.028  0.4355  0.4698  0.6057
  931MOL0     H25618   8.176   5.568   2.024 -2.4724  2.0410 -0.1190
  931MOL0     H25619   7.965   5.589   2.100 -0.8149 -0.7404 -0.2763
  931MOL0     H25620   7.885   5.358   2.369  1.1234  1.0333 -1.5953
  931MOL0     H25621   7.892   5.446   2.525 -1.5686 -2.9454  0.3423
  931MOL0     H25622   7.658   5.358   2.367  0.2475  0.7172 -0.9017
  931MOL0     H25623   7.691   5.342   2.537 -0.2033 -2.1970 -1.9656
  931MOL0     H25624   7.530   5.512   2.527  0.9501  2.3500  1.8858
  931MOL0     H25625   7.675   5.608   2.539 -0.6050  0.1812 -0.0110
  931MOL0     H25626   7.652   5.614   2.267  0.1303  0.1803  0.3836
  931MOL0     H25627   7.518   5.503   2.301 -2.4727  0.9046  1.9126
  931MOL0     H25628   7.382   5.671   2.423 -1.7207 -0.5803 -1.8060
  931MOL0     H25629   7.526   5.787   2.407 -0.3150 -1.1192  0.9542
  931MOL0     H25630   7.502   5.791   2.171  2.4285 -3.9265  2.4127
  931MOL0     H25631   7.371   5.671   2.178  2.2131 -4.9445  4.7364
  931MOL0     H25632   7.222   5.816   2.292 -1.2534 -1.2326 -3.1540
  931MOL0     H25633   7.350   5.938   2.324 -1.8638 -0.3305  1.4702
  931MOL0     H25634   7.177   6.003   2.139 -0.9560 -1.5493 -3.2044
  931MOL0     H25635   7.243   5.862   2.055  0.5951 -0.1049  0.9654
  931MOL0     H25636   7.353   5.988   1.850 -1.5400  0.6750  0.6231
  931MOL0     H25637   7.642   6.188   1.786  0.3009  1.8006  0.8496
  931MOL0     H25638   7.482   6.206   1.731  1.4843  1.5711 -0.9314
  931MOL0     H25639   7.618   6.362   1.948  2.2588 -0.1528 -2.3008
  931MOL0     H25640   7.448   6.404   1.879 -0.8740  0.7916 -1.4794
  931MOL0     H25641   7.592   6.554   1.782 -0.4564 -0.2614 -0.2743
  931MOL0     H25642   7.601   6.418   1.661  0.2397 -1.2897  0.2774
  931MOL0     H25643   7.809   6.351   1.783 -1.7012 -0.6287  1.5524
  931MOL0     H25644   7.783   6.498   1.879 -1.7700 -1.5782  0.8145
  931MOL0     H25645   7.926   6.681   1.507  0.3604  1.3258 -0.1621
  931MOL0     H25646   8.212   6.901   1.512  0.9553 -0.5265  0.0424
  931MOL0     H25647   8.185   6.787   1.371 -0.6176  1.0871 -0.7290
  931MOL0     H25648   8.061   6.872   1.456 -0.6560 -0.9211 -1.6164
  931MOL0     H25649   8.592   6.879   1.778  1.1823  0.1439 -1.4545
  931MOL0     H25650   8.839   6.867   1.830  0.9599 -0.7856 -0.1421
  931MOL0     H25651   9.018   6.501   1.912 -0.1564  0.8974  0.8346
  931MOL0     H25652   9.070   6.535   1.740  0.5370  0.4800 -0.5023
  931MOL0     H25653   9.242   6.681   1.835 -1.2309  1.4740  0.7104
  931MOL0     H25654   9.192   6.626   2.002 -2.3483 -1.7368 -0.2984
  931MOL0     H25655   9.291   6.447   1.776 -1.0771 -2.8879  1.5292
  931MOL0     H25656   9.279   6.399   1.949 -0.4179 -0.0627 -0.1381
  931MOL0     H25657   9.465   6.619   1.867  0.8159  0.1073  1.4595
  931MOL0     H25658   9.443   6.552   2.022 -0.9522 -0.9507 -0.0576
  931MOL0     H25659   9.567   6.409   1.773  0.8379 -0.9065  0.5897
  931MOL0     H25660   9.518   6.314   1.906  1.9720 -1.6975 -1.9584
  931MOL0     H25661   9.758   6.387   1.852 -1.7528  2.1255 -2.3536
  931MOL0     H25662   9.733   6.541   1.924 -1.2139  0.9179  2.6709
  931MOL0     H25663   9.847   6.393   2.074  1.3694  4.6952  0.7219
  931MOL0     H25664   9.710   6.292   2.090  1.4546  0.9001  1.2930
  931MOL0     H25665   9.572   6.476   2.187 -0.0146  0.9887 -1.3425
  931MOL0     H25666   9.711   6.577   2.198  1.5280 -0.1903  0.0167
  931MOL0     H25667   8.829   6.449   1.809 -0.0868  0.3605 -0.9381
  931MOL0     H25668   8.585   6.459   1.770 -1.2082  0.3205 -1.4698
  931MOL0     H25669   8.249   6.483   1.813 -0.4215 -0.6831 -1.5708
  931MOL0     H25670   8.017   6.434   1.830  0.2724 -1.0697 -0.9288
  931MOL0     H25671   8.091   5.480   2.504 -2.1324 -2.1187 -0.5482
  931MOL0     H25672   8.311   5.427   2.407 -0.0592 -0.4524 -0.1570
  931MOL0     H25673   8.566   5.082   2.203  3.9103 -1.4994  1.1694
  931MOL0     H25674   8.755   4.982   2.065 -0.7317 -0.8489  0.8751
  931MOL0     H25675   8.735   5.124   1.740 -0.6578 -1.8853  0.6660
  931MOL0     H25676   8.898   5.163   1.692 -0.6447 -0.9642 -2.6324
  931MOL0     H25677   8.764   4.929   1.620 -0.8335 -0.2831 -0.6716
  931MOL0     H25678   8.864   4.880   1.758  1.9989  3.0580  0.8785
  931MOL0     H25679   9.077   4.971   1.638 -0.7016 -0.9414  0.0150
  931MOL0     H25680   8.964   5.015   1.501 -2.3593 -0.4468 -0.1811
  931MOL0     H25681   9.083   4.803   1.457 -0.6652 -0.7736 -0.9873
  931MOL0     H25682   8.917   4.753   1.499 -0.6007  0.5799  2.1783
  931MOL0     H25683   9.200   4.599   1.781 -2.1151  0.1693  2.3587
  931MOL0     H25684   8.822   5.364   1.900 -1.1680  2.5559  2.3954
  931MOL0     H25685   8.624   5.453   2.009  0.8861  0.1114 -2.5324
  932MOL0     O25686   0.980   8.847   3.153  0.7917  0.7561  0.1388
  932MOL0     C25687   1.031   8.913   3.239 -0.5039  0.4869  0.4275
  932MOL0     O25688   0.967   8.948   3.359 -0.3396 -0.1425 -0.2107
  932MOL0     C25689   0.832   8.919   3.383  0.3533 -0.1571  0.7493
  932MOL0     C25690   0.731   8.920   3.284  0.6401 -0.0850 -0.0633
  932MOL0     C25691   0.601   8.897   3.323 -0.6070 -0.8024  0.7405
  932MOL0     C25692   0.560   8.871   3.450 -0.1599  0.0513 -1.0046
  932MOL0     O25693   0.428   8.866   3.481  0.0810  0.1535  0.4267
  932MOL0     C25694   0.375   8.730   3.500 -1.1365 -0.6307  0.0474
  932MOL0     C25695   0.304   8.698   3.635 -0.3162  0.3846 -0.3826
  932MOL0     C25696   0.204   8.579   3.623  0.3357 -0.0981 -0.5540
  932MOL0     C25697   0.143   8.529   3.751  0.2455  0.0746 -0.5565
  932MOL0     C25698   0.026   8.424   3.727  0.0603 -1.0097  0.1908
  932MOL0     C25699  -0.031   8.376   3.864 -0.5970  0.0867  0.1761
  932MOL0     C25700  -0.173   8.311   3.857  0.0822 -0.3183  0.5886
  932MOL0     C25701  -0.180   8.174   3.783 -0.2841  0.1171 -0.4459
  932MOL0     N25702  -0.317   8.120   3.792  0.5284  0.1384 -0.7446
  932MOL0     C25703  -0.385   8.106   3.913  0.1532  0.1609 -1.0130
  932MOL0     C25704  -0.474   8.006   3.886  0.0868 -0.3180  0.7357
  932MOL0     C25705  -0.578   7.944   3.987 -0.0602 -0.6961  0.3664
  932MOL0     C25706  -0.681   8.061   4.015 -0.6335  0.3936 -0.2566
  932MOL0     C25707  -0.775   8.020   4.130  0.1044  0.1793  0.0334
  932MOL0     C25708  -0.898   8.103   4.108 -0.3444 -0.2723 -0.5428
  932MOL0     O25709  -0.990   8.063   4.208 -0.1122 -0.4183 -0.1995
  932MOL0     C25710  -1.119   8.052   4.180 -0.6571 -0.2401  0.4348
  932MOL0     C25711  -1.212   8.093   4.275 -1.0896 -0.4943 -0.3946
  932MOL0     C25712  -1.348   8.124   4.251 -0.2634  0.3452  0.6007
  932MOL0     C25713  -1.429   8.199   4.358  0.4590 -0.1036 -0.1195
  932MOL0     C25714  -1.401   8.056   4.140  0.0413  0.0996 -0.4191
  932MOL0     C25715  -1.548   8.044   4.116  0.2955 -0.4511 -0.4518
  932MOL0     O25716  -1.640   8.085   4.213  0.0708 -0.4082  0.5524
  932MOL0     C25717  -1.769   8.099   4.184  0.2205  0.4084  0.3911
  932MOL0     C25718  -1.825   8.185   4.084  0.0178  0.8738 -0.1347
  932MOL0     C25719  -1.964   8.191   4.069  0.8974  1.0346  0.2181
  932MOL0     C25720  -2.052   8.118   4.152 -0.3022  0.3516  0.8329
  932MOL0     O25721  -2.191   8.118   4.135 -0.4231 -0.0249  0.5302
  932MOL0     C25722  -2.258   8.247   4.129  0.4912 -0.1187  0.1435
  932MOL0     C25723  -2.400   8.248   4.180 -0.6591  0.1229  0.1229
  932MOL0     C25724  -2.482   8.369   4.147 -0.8288 -0.1587  0.1576
  932MOL0     C25725  -2.538   8.362   4.001  0.1129  0.8860  0.4759
  932MOL0     C25726  -2.666   8.440   3.964  0.7325 -0.2356  0.2464
  932MOL0     C25727  -2.708   8.424   3.823  0.5033 -0.3622  0.1401
  932MOL0     C25728  -2.851   8.478   3.818 -0.1147  0.1666  0.5057
  932MOL0     C25729  -2.917   8.453   3.679  0.4172 -0.3235  0.1691
  932MOL0    Cl25730  -2.960   8.285   3.676 -0.5238  0.0192  0.2563
  932MOL0     C25731  -2.001   8.023   4.247  0.0910 -0.4274 -0.4026
  932MOL0     C25732  -1.860   8.023   4.267  0.3474  0.2390 -0.3690
  932MOL0     O25733  -1.590   8.002   4.001 -0.0902 -0.2933 -0.0325
  932MOL0     C25734  -1.314   7.992   4.046  0.0125 -0.0160  0.4375
  932MOL0     C25735  -1.179   7.999   4.065 -1.2163  0.6295 -0.0635
  932MOL0     N25736  -0.474   7.982   3.749  0.5693  0.7295 -0.4235
  932MOL0     N25737  -0.374   8.041   3.696 -0.4997 -0.0457 -1.0070
  932MOL0     C25738   0.668   8.870   3.549  1.4767  0.1494 -0.0476
  932MOL0     C25739   0.799   8.895   3.512  0.1671 -0.7651  0.6628
  932MOL0     C25740   1.171   8.943   3.220  0.6093 -0.8113  0.5220
  932MOL0     C25741   1.238   9.007   3.327  0.1708 -1.3693 -0.5534
  932MOL0     C25742   1.367   9.062   3.300  0.1207  0.2604 -0.6214
  932MOL0     C25743   1.435   9.052   3.175  0.1183  0.2256 -0.5257
  932MOL0     O25744   1.565   9.077   3.149 -0.4027  0.4883  0.3433
  932MOL0     C25745   1.647   9.149   3.240  1.0082 -0.2716 -0.7385
  932MOL0     C25746   1.601   9.303   3.260 -0.5463 -0.2459  0.3212
  932MOL0     C25747   1.714   9.393   3.232 -0.7800  1.3588  0.3015
  932MOL0     C25748   1.682   9.533   3.292  1.3680 -0.7817  0.2902
  932MOL0     C25749   1.804   9.613   3.310  0.6447  0.1540 -0.2658
  932MOL0     C25750   1.903   9.681   3.330 -0.4317 -0.1241 -0.2874
  932MOL0     C25751   1.363   8.981   3.080  0.6630 -1.2739  0.3178
  932MOL0     C25752   1.238   8.926   3.098  0.1319  0.1025  0.3779
  932MOL0     H25753   0.752   8.945   3.180  2.5194  0.9885  0.5253
  932MOL0     H25754   0.523   8.914   3.250  0.7082  2.4442 -0.0909
  932MOL0     H25755   0.305   8.711   3.418  1.5175 -0.5371 -2.4070
  932MOL0     H25756   0.444   8.649   3.475 -1.7522 -1.3061  0.4963
  932MOL0     H25757   0.385   8.676   3.705  0.2547 -1.4054 -1.5561
  932MOL0     H25758   0.240   8.783   3.659  1.2866  1.2904  0.9548
  932MOL0     H25759   0.125   8.612   3.556 -0.2599 -1.4076 -0.5145
  932MOL0     H25760   0.256   8.498   3.571  0.6583  1.2166 -2.3730
  932MOL0     H25761   0.226   8.495   3.813  0.6784  0.1429 -1.0939
  932MOL0     H25762   0.092   8.614   3.797 -1.3094  0.2271 -2.4301
  932MOL0     H25763  -0.052   8.468   3.664 -0.6460 -1.9917  0.3502
  932MOL0     H25764   0.083   8.347   3.675  0.9536  0.3741 -0.9462
  932MOL0     H25765   0.040   8.308   3.912  1.0950 -1.6060 -4.2484
  932MOL0     H25766  -0.049   8.467   3.922 -0.3356 -0.0930  0.5425
  932MOL0     H25767  -0.197   8.312   3.964 -0.7145  3.0551  0.4948
  932MOL0     H25768  -0.242   8.375   3.802  0.8198 -1.6596 -2.0910
  932MOL0     H25769  -0.117   8.106   3.840 -1.2898 -1.9973 -1.7234
  932MOL0     H25770  -0.156   8.172   3.676  0.1764  1.3854 -0.3841
  932MOL0     H25771  -0.365   8.162   4.004  1.8596 -0.8563 -0.7096
  932MOL0     H25772  -0.621   7.855   3.941 -0.6973 -0.8989  1.3304
  932MOL0     H25773  -0.529   7.919   4.081  1.8808 -0.4048 -0.5127
  932MOL0     H25774  -0.731   8.069   3.918 -0.2099  1.6986 -0.3796
  932MOL0     H25775  -0.622   8.151   4.034  1.1121 -0.5293 -1.0051
  932MOL0     H25776  -0.733   8.043   4.228  1.5668 -1.4193 -0.1686
  932MOL0     H25777  -0.792   7.912   4.129  1.8548 -0.1248 -1.5389
  932MOL0     H25778  -0.940   8.085   4.008  1.4144  0.9469 -1.5563
  932MOL0     H25779  -0.874   8.210   4.115  1.0262 -0.6137  0.4030
  932MOL0     H25780  -1.168   8.151   4.356  0.6688 -0.5053 -1.3048
  932MOL0     H25781  -1.489   8.132   4.420  0.0455  2.2287  2.1677
  932MOL0     H25782  -1.361   8.249   4.427  1.3683 -2.7759  1.0415
  932MOL0     H25783  -1.494   8.274   4.311  1.1041  0.9376  0.5948
  932MOL0     H25784  -1.748   8.241   4.031  0.6329 -0.5844 -0.8388
  932MOL0     H25785  -2.013   8.237   3.984 -0.8927  1.4239  1.4082
  932MOL0     H25786  -2.197   8.323   4.178 -0.1385  0.4820  0.0149
  932MOL0     H25787  -2.257   8.266   4.021 -0.2425 -0.1112  0.1327
  932MOL0     H25788  -2.450   8.169   4.124  0.2333 -1.0201  0.8897
  932MOL0     H25789  -2.398   8.240   4.289 -4.2455  0.4821  0.3220
  932MOL0     H25790  -2.411   8.452   4.161  1.0491 -1.8105  1.0169
  932MOL0     H25791  -2.569   8.370   4.214 -1.0690  1.3691 -0.1550
  932MOL0     H25792  -2.463   8.400   3.931 -0.8617  0.0133 -1.0970
  932MOL0     H25793  -2.556   8.256   3.981  0.8833  0.5238  1.5731
  932MOL0     H25794  -2.655   8.545   3.990 -0.7061 -0.5741  2.5420
  932MOL0     H25795  -2.740   8.391   4.029 -0.9311  1.5691 -0.2189
  932MOL0     H25796  -2.647   8.483   3.753 -1.5062 -0.5309 -1.8842
  932MOL0     H25797  -2.708   8.325   3.776 -3.5546 -0.8088  0.6762
  932MOL0     H25798  -2.838   8.586   3.830 -1.4898  0.6205 -1.6452
  932MOL0     H25799  -2.919   8.442   3.896 -1.9154  0.0921 -1.0411
  932MOL0     H25800  -2.853   8.472   3.593 -1.1509  1.1081 -0.7464
  932MOL0     H25801  -3.011   8.508   3.671  2.3200  3.2055  0.2341
  932MOL0     H25802  -2.060   7.972   4.322  1.3108 -1.7004 -0.2543
  932MOL0     H25803  -1.816   7.945   4.328  1.8005  0.9768 -0.4289
  932MOL0     H25804  -1.361   7.956   3.955 -0.5389  0.7983  0.3879
  932MOL0     H25805  -1.107   7.958   3.995 -0.1098  3.8326 -0.9792
  932MOL0     H25806   0.626   8.850   3.647 -1.9899 -1.3753 -1.6609
  932MOL0     H25807   0.876   8.908   3.588 -2.7381  3.5137  3.3574
  932MOL0     H25808   1.190   9.024   3.422 -0.2824 -0.2673 -0.9668
  932MOL0     H25809   1.416   9.115   3.381  3.4801  0.1741 -2.4157
  932MOL0     H25810   1.632   9.100   3.337 -0.4161  1.5839  0.0467
  932MOL0     H25811   1.755   9.145   3.225  1.3308  4.3413 -1.0646
  932MOL0     H25812   1.575   9.307   3.366  3.3384 -0.5876  1.4599
  932MOL0     H25813   1.511   9.335   3.206  0.1693  1.0903 -0.1244
  932MOL0     H25814   1.734   9.385   3.124 -1.1206 -1.5799  0.3682
  932MOL0     H25815   1.801   9.351   3.283 -0.4581  0.4001 -0.9855
  932MOL0     H25816   1.622   9.535   3.383  0.5594 -0.8864 -0.2347
  932MOL0     H25817   1.625   9.591   3.219  1.6774 -0.8751 -0.0278
  932MOL0     H25818   1.995   9.735   3.342 -0.2660 -0.3798 -0.3960
  932MOL0     H25819   1.411   8.948   2.988 -1.1785  0.4199 -1.3491
  932MOL0     H25820   1.196   8.868   3.017 -0.4327 -0.4806  1.0686
  933MOL0     O25821   3.834   2.133   4.952  0.6615 -0.0285 -0.1567
  933MOL0     C25822   3.827   2.106   5.072 -0.9107 -0.3846  0.0143
  933MOL0     O25823   3.709   2.080   5.141 -0.7004 -0.1533  1.1356
  933MOL0     C25824   3.583   2.093   5.081 -0.1968  0.6357  0.0080
  933MOL0     C25825   3.551   2.191   4.995 -0.4589  1.0138  0.3267
  933MOL0     C25826   3.415   2.194   4.948 -1.1874  0.8786 -0.1758
  933MOL0     C25827   3.328   2.088   4.970  0.4981 -0.4240 -0.1066
  933MOL0     O25828   3.202   2.092   4.925 -0.5569  0.2160  0.2976
  933MOL0     C25829   3.137   1.975   4.888  1.7257  0.6483  0.7400
  933MOL0     C25830   3.022   2.020   4.799 -0.6770 -0.4625  0.8059
  933MOL0     C25831   2.947   1.908   4.724 -0.1235 -0.5380 -0.0751
  933MOL0     C25832   3.024   1.858   4.602 -0.2616  0.5223  0.5522
  933MOL0     C25833   2.938   1.753   4.528 -0.2287  0.6998  0.1492
  933MOL0     C25834   3.013   1.692   4.409  0.6157 -0.6754 -0.0531
  933MOL0     C25835   2.920   1.606   4.323  0.2969 -0.0350  0.1346
  933MOL0     C25836   2.872   1.468   4.394 -0.3600 -0.4908 -0.2945
  933MOL0     N25837   2.750   1.433   4.331  0.2377  0.3586  0.1724
  933MOL0     C25838   2.641   1.518   4.346  0.3944 -0.5548  0.1835
  933MOL0     C25839   2.553   1.453   4.271 -0.0467 -0.9361  1.0001
  933MOL0     C25840   2.410   1.504   4.254  0.2380 -0.0551  0.2176
  933MOL0     C25841   2.340   1.548   4.388 -0.5819  0.1391  0.1142
  933MOL0     C25842   2.199   1.590   4.382  1.1930 -0.3897  0.7169
  933MOL0     C25843   2.172   1.718   4.299  0.8467 -1.1340 -0.4215
  933MOL0     O25844   2.032   1.751   4.322 -0.2142  0.4691  0.3519
  933MOL0     C25845   1.983   1.878   4.283 -0.4458 -0.1337  0.6829
  933MOL0     C25846   2.054   1.982   4.219 -0.2993 -0.3510  0.5834
  933MOL0     C25847   2.000   2.101   4.163 -0.2163 -0.5311  0.2666
  933MOL0     C25848   2.092   2.207   4.109  0.0479  0.2409 -0.3104
  933MOL0     C25849   1.863   2.125   4.182 -0.6594  0.6177  0.0113
  933MOL0     C25850   1.786   2.234   4.123  0.5286 -0.0092 -0.0948
  933MOL0     O25851   1.644   2.225   4.139 -0.1102  0.0807 -0.3305
  933MOL0     C25852   1.554   2.313   4.087 -0.2442 -0.0765 -0.5377
  933MOL0     C25853   1.494   2.397   4.183 -0.4456 -0.0793 -0.0294
  933MOL0     C25854   1.401   2.487   4.138 -0.1006  0.3286 -0.9471
  933MOL0     C25855   1.350   2.487   4.006 -0.1611 -0.3678 -0.1314
  933MOL0     O25856   1.228   2.555   3.981 -1.0970  0.0806 -0.8850
  933MOL0     C25857   1.146   2.531   3.865  0.0500  0.6380  0.2402
  933MOL0     C25858   1.196   2.589   3.736 -0.4445  0.0981 -0.1874
  933MOL0     C25859   1.084   2.556   3.634  0.1600 -0.1001 -0.0392
  933MOL0     C25860   1.150   2.591   3.504  0.0348  0.6437  0.1201
  933MOL0     C25861   1.055   2.562   3.377  0.4848  0.3035 -0.7111
  933MOL0     C25862   1.123   2.590   3.233  0.5486  0.3789 -0.2489
  933MOL0     C25863   1.018   2.558   3.124  0.0959  0.0197  0.2755
  933MOL0     C25864   1.065   2.637   2.996 -0.3560  1.3649 -0.2640
  933MOL0    Cl25865   0.953   2.617   2.863 -0.0885  0.7807 -0.4036
  933MOL0     C25866   1.408   2.397   3.919 -0.3827  0.4026  0.4438
  933MOL0     C25867   1.513   2.315   3.955  0.0256  0.6679 -0.5592
  933MOL0     O25868   1.844   2.331   4.074 -0.6242 -0.7034 -0.1546
  933MOL0     C25869   1.787   2.015   4.236 -1.2796 -0.6741 -0.3043
  933MOL0     C25870   1.853   1.908   4.307 -0.3225 -0.4675 -1.0044
  933MOL0     N25871   2.600   1.344   4.210 -0.7856  0.5549  0.4673
  933MOL0     N25872   2.723   1.343   4.227  0.3403  0.2047  0.0813
  933MOL0     C25873   3.367   1.998   5.064  0.4656 -0.2940 -0.3994
  933MOL0     C25874   3.498   1.992   5.111 -0.0944 -0.4809 -0.0202
  933MOL0     C25875   3.953   2.096   5.150  0.0408 -0.6395 -0.4901
  933MOL0     C25876   3.939   2.100   5.296 -0.0998  0.0277  0.2937
  933MOL0     C25877   4.057   2.112   5.366 -0.0898  1.1877  0.3274
  933MOL0     C25878   4.183   2.119   5.308  0.1752 -0.2324 -0.2283
  933MOL0     O25879   4.297   2.130   5.384  0.4115  0.5071 -0.3408
  933MOL0     C25880   4.323   2.251   5.447  0.1721 -0.2202 -0.2398
  933MOL0     C25881   4.428   2.316   5.359  0.4096 -0.3338 -0.4401
  933MOL0     C25882   4.461   2.463   5.408  0.1351 -0.3044 -0.7993
  933MOL0     C25883   4.578   2.524   5.323 -0.2295  0.9818  0.1824
  933MOL0     C25884   4.708   2.479   5.363 -0.8944 -0.1485 -0.4057
  933MOL0     C25885   4.800   2.419   5.416 -0.7873  0.6305  1.0102
  933MOL0     C25886   4.193   2.092   5.170  0.2305  0.0154  0.0085
  933MOL0     C25887   4.080   2.086   5.091  0.4156  0.2699 -0.2282
  933MOL0     H25888   3.625   2.269   4.977 -1.4537  2.3392  1.7053
  933MOL0     H25889   3.385   2.283   4.894  0.2012  1.6922  0.3377
  933MOL0     H25890   3.197   1.918   4.817 -1.2041 -1.8365  0.0102
  933MOL0     H25891   3.115   1.901   4.966  2.9452 -0.3776  0.1517
  933MOL0     H25892   2.954   2.076   4.864  1.5056  3.9333 -0.3024
  933MOL0     H25893   3.060   2.093   4.726  0.8513 -3.1945 -1.3297
  933MOL0     H25894   2.920   1.823   4.788 -1.3564  0.9398  1.4663
  933MOL0     H25895   2.852   1.944   4.684 -0.7832 -2.2753 -0.1792
  933MOL0     H25896   3.056   1.941   4.537  0.8885  0.6142  1.2044
  933MOL0     H25897   3.124   1.821   4.629  1.3726  2.3090 -2.4415
  933MOL0     H25898   2.901   1.673   4.592 -2.1045  1.3556 -0.0527
  933MOL0     H25899   2.860   1.812   4.479  1.2607  1.9574 -0.8189
  933MOL0     H25900   3.054   1.771   4.346  1.1533 -3.8061 -3.9857
  933MOL0     H25901   3.097   1.630   4.442  0.6360 -1.7599 -2.0329
  933MOL0     H25902   2.832   1.665   4.295 -1.0151 -2.7954 -2.1112
  933MOL0     H25903   2.955   1.585   4.221 -2.8538 -1.2626 -0.8431
  933MOL0     H25904   2.856   1.478   4.502 -0.5556  1.5341 -0.4626
  933MOL0     H25905   2.951   1.397   4.370 -1.8856 -2.1650 -0.5772
  933MOL0     H25906   2.621   1.606   4.407  1.2226 -0.1224 -0.1554
  933MOL0     H25907   2.423   1.594   4.194  1.3876 -1.7729 -2.2918
  933MOL0     H25908   2.345   1.440   4.194 -1.3625  1.5266  0.2161
  933MOL0     H25909   2.395   1.630   4.436 -0.1347  0.6580 -1.2388
  933MOL0     H25910   2.335   1.456   4.446  1.9999  1.4922  2.7903
  933MOL0     H25911   2.145   1.600   4.477  0.1511  1.4730 -0.0074
  933MOL0     H25912   2.147   1.513   4.325  1.8853  0.2365 -0.8216
  933MOL0     H25913   2.201   1.708   4.194  2.2228 -3.7649  0.0915
  933MOL0     H25914   2.233   1.802   4.334 -1.0917 -0.3760  1.3764
  933MOL0     H25915   2.159   1.962   4.201 -0.3816 -0.9979  0.7797
  933MOL0     H25916   2.073   2.234   4.004 -1.5618 -2.1265 -0.7060
  933MOL0     H25917   2.088   2.285   4.185 -0.1132 -1.1340  1.1360
  933MOL0     H25918   2.192   2.163   4.112  0.4778  1.2224  0.2763
  933MOL0     H25919   1.534   2.388   4.283 -2.3118  2.2550  1.0108
  933MOL0     H25920   1.354   2.550   4.214  0.5620  1.1790 -1.2292
  933MOL0     H25921   1.120   2.425   3.856  2.5822  0.1482 -3.4341
  933MOL0     H25922   1.050   2.582   3.876 -1.3612 -1.5971 -0.9297
  933MOL0     H25923   1.209   2.697   3.755  1.4558 -0.3011  1.1727
  933MOL0     H25924   1.289   2.546   3.698 -0.1157  1.0689 -0.5341
  933MOL0     H25925   0.991   2.607   3.659 -0.0804  0.9756 -2.7966
  933MOL0     H25926   1.057   2.450   3.622 -1.6602  0.3356 -0.0227
  933MOL0     H25927   1.182   2.696   3.499  0.1494  0.5927 -0.3394
  933MOL0     H25928   1.245   2.540   3.488  1.0450  1.7807  2.1042
  933MOL0     H25929   0.963   2.621   3.388 -0.5648 -1.2380 -0.7677
  933MOL0     H25930   1.016   2.459   3.378  1.1523 -0.0212  2.1821
  933MOL0     H25931   1.151   2.695   3.229 -0.0533  0.5178 -1.1120
  933MOL0     H25932   1.213   2.528   3.234 -0.5995 -1.4022  1.5145
  933MOL0     H25933   0.923   2.595   3.166  0.4637  4.7730 -2.3182
  933MOL0     H25934   1.015   2.450   3.108 -1.0091 -0.2133  1.8145
  933MOL0     H25935   1.165   2.601   2.972  0.7588  2.7171  2.0245
  933MOL0     H25936   1.093   2.738   3.027  2.5343  0.2724  0.9942
  933MOL0     H25937   1.376   2.386   3.816 -0.1429 -1.5686  0.5284
  933MOL0     H25938   1.566   2.248   3.888 -2.5571 -2.2370  0.0763
  933MOL0     H25939   1.678   2.016   4.232 -1.2542  0.4480 -2.1891
  933MOL0     H25940   1.799   1.825   4.351 -0.7629 -1.6267 -3.5031
  933MOL0     H25941   3.300   1.922   5.102 -0.1426 -0.4017 -1.6678
  933MOL0     H25942   3.539   1.912   5.172  2.4320  2.6566  2.8062
  933MOL0     H25943   3.841   2.106   5.341 -0.6241 -3.0252 -0.2283
  933MOL0     H25944   4.049   2.111   5.475 -2.0915 -1.5472  0.2792
  933MOL0     H25945   4.229   2.307   5.458 -1.2587 -2.7098  1.0594
  933MOL0     H25946   4.370   2.249   5.546  0.6894  0.9210 -0.4531
  933MOL0     H25947   4.385   2.317   5.259  1.7485  0.4052 -1.0253
  933MOL0     H25948   4.510   2.244   5.364 -1.0359 -2.0021  2.3139
  933MOL0     H25949   4.485   2.465   5.515  2.2289  3.5885 -1.1497
  933MOL0     H25950   4.378   2.533   5.398 -0.2809 -0.6839 -0.1226
  933MOL0     H25951   4.583   2.633   5.329  1.9691  0.8753  1.0159
  933MOL0     H25952   4.566   2.482   5.223  0.0480 -0.6747  0.7987
  933MOL0     H25953   4.882   2.358   5.448  0.4254 -0.6685 -3.7804
  933MOL0     H25954   4.294   2.081   5.131  0.6040  1.1533  0.6179
  933MOL0     H25955   4.097   2.088   4.983 -0.3413  3.6686 -0.4045
  934MOL0     O25956   9.514   2.482   3.342 -0.5229  0.5362 -0.2860
  934MOL0     C25957   9.551   2.444   3.230  0.5333 -0.0008 -0.4340
  934MOL0     O25958   9.509   2.485   3.109  0.2640 -0.0540 -0.6403
  934MOL0     C25959   9.406   2.580   3.103  0.1492  0.6346 -0.8469
  934MOL0     C25960   9.290   2.571   3.189 -0.2087 -0.5123  0.6161
  934MOL0     C25961   9.192   2.669   3.165  0.7971  0.4394  0.8241
  934MOL0     C25962   9.192   2.760   3.053 -0.0071  0.6126  0.0057
  934MOL0     O25963   9.083   2.833   3.026  0.4926  0.8492 -0.3459
  934MOL0     C25964   8.973   2.752   2.970 -0.6260 -0.4933 -0.5376
  934MOL0     C25965   8.937   2.825   2.839  0.3944 -1.2636  0.6859
  934MOL0     C25966   8.818   2.757   2.773 -0.9688 -0.7331 -0.5399
  934MOL0     C25967   8.773   2.840   2.649  0.5076  0.0005 -0.4842
  934MOL0     C25968   8.655   2.770   2.564 -0.3258 -0.2745  0.0500
  934MOL0     C25969   8.515   2.785   2.624 -0.1144  0.3085  0.6955
  934MOL0     C25970   8.416   2.706   2.533 -0.5061  0.2744 -0.4672
  934MOL0     C25971   8.273   2.703   2.591  0.4305  0.3238 -0.2025
  934MOL0     N25972   8.191   2.613   2.508  0.8578  0.1992 -0.4760
  934MOL0     C25973   8.121   2.656   2.394 -0.0586  0.1560  0.6331
  934MOL0     C25974   8.043   2.546   2.360  0.2317  0.4546 -0.3274
  934MOL0     C25975   7.942   2.537   2.247  0.7017 -0.6334  0.3586
  934MOL0     C25976   7.821   2.451   2.281  0.9825  1.2083 -1.3040
  934MOL0     C25977   7.745   2.437   2.156 -0.0293  0.3330 -0.0101
  934MOL0     C25978   7.617   2.372   2.183  0.3585 -0.0209  0.0665
  934MOL0     O25979   7.523   2.392   2.069 -0.0641  0.8479  0.3878
  934MOL0     C25980   7.387   2.388   2.086  0.1428  1.2088  0.5580
  934MOL0     C25981   7.333   2.323   2.199  0.7550 -0.5151  0.2288
  934MOL0     C25982   7.195   2.317   2.219 -0.3500  0.1137  0.2893
  934MOL0     C25983   7.148   2.222   2.328  0.1027  0.4102 -0.1774
  934MOL0     C25984   7.110   2.386   2.132  0.1478 -0.9738  0.0442
  934MOL0     C25985   6.969   2.418   2.166 -0.0155  0.1386  0.1265
  934MOL0     O25986   6.879   2.439   2.059 -0.0102  0.2811 -0.7510
  934MOL0     C25987   6.747   2.477   2.080  0.5562  0.2260  0.3490
  934MOL0     C25988   6.651   2.406   1.997  0.6041  0.1411 -0.3456
  934MOL0     C25989   6.513   2.445   2.003  0.1496 -0.5350  0.4614
  934MOL0     C25990   6.476   2.556   2.075 -0.5898 -0.4676 -1.3238
  934MOL0     O25991   6.343   2.587   2.080 -0.4949 -0.7300 -0.0963
  934MOL0     C25992   6.298   2.649   2.195 -0.0356 -0.5143 -0.5983
  934MOL0     C25993   6.143   2.693   2.180 -0.4087 -0.2989  0.3552
  934MOL0     C25994   6.071   2.740   2.309 -0.2375 -0.7192 -0.7772
  934MOL0     C25995   5.950   2.828   2.261 -0.1340  0.2443 -0.3313
  934MOL0     C25996   5.856   2.855   2.374 -0.1950 -1.0657  0.0464
  934MOL0     C25997   5.786   2.734   2.427 -0.1120 -0.5858 -0.6990
  934MOL0     C25998   5.703   2.778   2.540 -1.1971  0.2039  0.1931
  934MOL0     C25999   5.634   2.657   2.608  1.0514 -0.8491 -0.6827
  934MOL0    Cl26000   5.756   2.553   2.693  0.0522  0.0808 -0.3359
  934MOL0     C26001   6.579   2.634   2.150 -0.5842  0.2607  0.7811
  934MOL0     C26002   6.709   2.593   2.146  0.8722 -0.1346  0.0073
  934MOL0     O26003   6.941   2.435   2.281  1.1703  0.0069 -0.8179
  934MOL0     C26004   7.163   2.440   2.009 -0.4668 -0.5425  0.4857
  934MOL0     C26005   7.304   2.441   1.991  0.1895  0.0461  0.5562
  934MOL0     N26006   8.067   2.450   2.450  0.1049  0.3956 -0.6693
  934MOL0     N26007   8.155   2.488   2.538 -1.4852 -0.5591  0.6347
  934MOL0     C26008   9.303   2.761   2.973  0.5072 -0.0890  0.4203
  934MOL0     C26009   9.403   2.665   2.997  0.0955 -0.5737  0.0915
  934MOL0     C26010   9.653   2.328   3.234 -1.0868  0.3144  0.3664
  934MOL0     C26011   9.715   2.293   3.112  0.0267  1.1627 -0.1982
  934MOL0     C26012   9.795   2.174   3.105  0.6979  0.2159 -0.1965
  934MOL0     C26013   9.832   2.109   3.222  0.8275  0.4895  0.0362
  934MOL0     O26014   9.906   1.995   3.207 -0.0528 -0.7727  0.3568
  934MOL0     C26015  10.022   1.974   3.298 -0.1219  0.2618  0.6958
  934MOL0     C26016  10.100   1.857   3.251 -0.1627  0.2037 -0.1294
  934MOL0     C26017  10.195   1.814   3.361 -0.1116  0.0920 -0.0844
  934MOL0     C26018  10.279   1.690   3.325  0.3735  0.1842  0.6310
  934MOL0     C26019  10.175   1.586   3.332  0.1615  0.7768  0.3888
  934MOL0     C26020  10.082   1.510   3.323 -0.3928 -0.0140  0.1835
  934MOL0     C26021   9.767   2.149   3.341 -0.1015 -0.0142  0.2239
  934MOL0     C26022   9.677   2.252   3.350 -0.1459 -0.0237 -0.0810
  934MOL0     H26023   9.278   2.512   3.280 -1.1551  0.5570  1.2000
  934MOL0     H26024   9.101   2.684   3.223  1.0202  2.3900  0.7151
  934MOL0     H26025   8.999   2.647   2.956  1.8612 -0.0320  0.1482
  934MOL0     H26026   8.882   2.760   3.030 -0.5456 -1.0251 -0.3403
  934MOL0     H26027   8.921   2.930   2.861 -0.4992 -1.2455 -0.0027
  934MOL0     H26028   9.012   2.817   2.759 -0.9732 -0.2467 -0.7651
  934MOL0     H26029   8.849   2.654   2.753  1.2549  0.4046 -3.7399
  934MOL0     H26030   8.735   2.745   2.843 -2.2218  0.2175 -1.8040
  934MOL0     H26031   8.748   2.944   2.673  0.2616 -0.4522  1.4087
  934MOL0     H26032   8.858   2.852   2.582  1.3937 -0.3438  0.5479
  934MOL0     H26033   8.657   2.828   2.471 -0.2871  0.7469  0.6820
  934MOL0     H26034   8.677   2.664   2.549 -1.5952 -0.6523  0.7811
  934MOL0     H26035   8.507   2.745   2.726 -1.5597 -0.6209  0.2522
  934MOL0     H26036   8.487   2.891   2.622 -0.6839  0.1844  1.5169
  934MOL0     H26037   8.409   2.759   2.438 -2.1744 -1.0469 -1.1323
  934MOL0     H26038   8.448   2.604   2.509  1.3220  0.7889 -0.4042
  934MOL0     H26039   8.222   2.800   2.587 -1.7230 -0.7853 -3.2147
  934MOL0     H26040   8.272   2.673   2.696 -2.5517  0.1150 -0.2031
  934MOL0     H26041   8.114   2.751   2.341  3.5180 -1.0441 -2.5394
  934MOL0     H26042   7.907   2.635   2.213  0.5103 -0.6279  0.5680
  934MOL0     H26043   8.001   2.496   2.165  1.9521  2.2278 -0.2974
  934MOL0     H26044   7.769   2.515   2.354  1.1352  1.3100 -1.2832
  934MOL0     H26045   7.837   2.349   2.316  2.1023  1.5593 -0.7644
  934MOL0     H26046   7.805   2.368   2.095 -2.2174 -0.4890 -1.3620
  934MOL0     H26047   7.747   2.526   2.093  1.8582  0.8603  0.7222
  934MOL0     H26048   7.576   2.412   2.276  0.2152 -1.2405  0.5498
  934MOL0     H26049   7.637   2.270   2.216  0.9589  0.9358  2.9420
  934MOL0     H26050   7.389   2.272   2.277  0.8109  0.7332  1.0206
  934MOL0     H26051   7.109   2.275   2.415 -1.4297 -2.5654  1.0608
  934MOL0     H26052   7.065   2.163   2.291 -2.2105  2.4122  1.5174
  934MOL0     H26053   7.216   2.146   2.367 -2.3802 -2.1340 -0.5309
  934MOL0     H26054   6.689   2.323   1.940  1.6789  1.1748 -1.1768
  934MOL0     H26055   6.437   2.378   1.966  2.5760 -3.2680  0.0888
  934MOL0     H26056   6.299   2.581   2.281  0.3934 -0.4501 -0.5505
  934MOL0     H26057   6.360   2.735   2.220 -2.7216  1.7094 -1.0701
  934MOL0     H26058   6.153   2.780   2.114 -0.7202  0.6632  1.5278
  934MOL0     H26059   6.080   2.615   2.136 -1.2647  1.7859 -2.3804
  934MOL0     H26060   6.139   2.810   2.360 -0.5906 -0.0593 -1.1971
  934MOL0     H26061   6.043   2.650   2.364 -4.5543 -1.6628 -4.0237
  934MOL0     H26062   5.989   2.922   2.220  3.4313 -1.9935 -2.6879
  934MOL0     H26063   5.883   2.779   2.190  2.7848  0.3941 -3.4699
  934MOL0     H26064   5.785   2.916   2.317  1.9262 -0.4113 -2.0536
  934MOL0     H26065   5.910   2.905   2.455 -0.3872  0.9474 -0.9993
  934MOL0     H26066   5.721   2.695   2.349  2.5976 -0.8032 -3.0138
  934MOL0     H26067   5.852   2.652   2.457  0.9213  1.1609  2.2098
  934MOL0     H26068   5.619   2.831   2.494  0.4175  0.9816 -2.0763
  934MOL0     H26069   5.758   2.850   2.601 -0.2761 -1.4056  1.3486
  934MOL0     H26070   5.571   2.615   2.528 -0.9882  0.5009  0.1346
  934MOL0     H26071   5.565   2.717   2.668  0.7442  0.5594 -2.3409
  934MOL0     H26072   6.563   2.717   2.218 -1.6577 -1.4981  2.8133
  934MOL0     H26073   6.778   2.651   2.206 -0.1103  0.0915  0.9655
  934MOL0     H26074   7.102   2.490   1.934  2.4802 -1.1894 -2.5873
  934MOL0     H26075   7.362   2.479   1.908  0.0659 -1.2323 -0.1483
  934MOL0     H26076   9.318   2.831   2.892  0.0508  1.2262  1.4486
  934MOL0     H26077   9.492   2.662   2.933 -1.7515  1.2542 -2.7897
  934MOL0     H26078   9.695   2.357   3.026  1.5308 -1.1062 -2.3721
  934MOL0     H26079   9.850   2.150   3.015  0.4222  3.6485 -1.4530
  934MOL0     H26080  10.080   2.067   3.297 -1.7214  1.3162  0.8451
  934MOL0     H26081   9.982   1.962   3.399  1.3560 -0.1554  1.2516
  934MOL0     H26082  10.168   1.873   3.168  0.0536  2.6277  0.4569
  934MOL0     H26083  10.018   1.790   3.225 -1.9193  1.8745  0.9019
  934MOL0     H26084  10.138   1.789   3.451  1.8682  2.7725  2.0623
  934MOL0     H26085  10.261   1.896   3.389 -2.1101  1.1991  1.6368
  934MOL0     H26086  10.357   1.664   3.398  1.0757 -3.8732 -1.3087
  934MOL0     H26087  10.321   1.696   3.224  1.2826  2.1031  1.0736
  934MOL0     H26088   9.996   1.446   3.319 -0.9090  0.5132  1.9127
  934MOL0     H26089   9.792   2.086   3.426 -0.2611 -0.8918 -0.3745
  934MOL0     H26090   9.614   2.277   3.435  0.9475 -0.0102  0.7596
  935MOL0     O26091   3.914  10.440   9.702 -0.6041 -0.2905  0.4953
  935MOL0     C26092   3.879  10.507   9.803 -0.1105  0.5954  0.2769
  935MOL0     O26093   3.754  10.527   9.855  0.2075 -0.8175  0.0373
  935MOL0     C26094   3.650  10.459   9.786  1.0142 -0.0295  0.4141
  935MOL0     C26095   3.560  10.407   9.878 -0.0731 -0.0597  0.2424
  935MOL0     C26096   3.452  10.334   9.829 -0.3072  0.4257 -0.5671
  935MOL0     C26097   3.427  10.322   9.696  1.0625  0.2145  0.4544
  935MOL0     O26098   3.337  10.225   9.662 -0.6956  0.0621  0.1809
  935MOL0     C26099   3.258  10.256   9.545  0.0969  0.7166  0.2427
  935MOL0     C26100   3.145  10.146   9.533  0.4181  0.1902  0.6977
  935MOL0     C26101   3.046  10.180   9.417 -0.1591 -0.4067  0.1034
  935MOL0     C26102   2.923  10.086   9.388  0.2990  0.0743 -0.4948
  935MOL0     C26103   2.837  10.132   9.266 -0.2803  0.3011  0.1276
  935MOL0     C26104   2.757  10.264   9.296 -1.7491  1.2558 -0.2729
  935MOL0     C26105   2.692  10.314   9.166 -0.1721  0.1085  0.3307
  935MOL0     C26106   2.589  10.427   9.193  0.2322  0.6851 -0.6987
  935MOL0     N26107   2.535  10.490   9.074 -0.2829 -0.4229  0.7378
  935MOL0     C26108   2.616  10.532   8.963  0.6558  0.6791 -0.7901
  935MOL0     C26109   2.522  10.594   8.879  0.2369 -0.4976 -0.7696
  935MOL0     C26110   2.553  10.652   8.745  0.0909 -0.2382 -0.3497
  935MOL0     C26111   2.683  10.599   8.683  0.1728  0.1086 -0.1210
  935MOL0     C26112   2.690  10.644   8.531 -0.3030  0.1322 -0.6758
  935MOL0     C26113   2.836  10.675   8.475 -0.2769  0.7488 -0.1862
  935MOL0     O26114   2.903  10.548   8.466  0.1242 -0.1759  0.4722
  935MOL0     C26115   3.024  10.564   8.520  0.0991  0.8201  0.0188
  935MOL0     C26116   3.045  10.537   8.652  0.0339 -0.9334 -0.5085
  935MOL0     C26117   3.169  10.567   8.722 -1.0375  0.1831 -0.5418
  935MOL0     C26118   3.157  10.518   8.869 -0.0711  0.3759  0.4360
  935MOL0     C26119   3.274  10.614   8.643 -0.3825 -0.6602  0.7825
  935MOL0     C26120   3.408  10.632   8.701  0.2153  0.0507 -0.3240
  935MOL0     O26121   3.498  10.689   8.618 -0.2099 -0.2024  0.5567
  935MOL0     C26122   3.615  10.727   8.673 -0.0345  0.1619  0.4170
  935MOL0     C26123   3.640  10.851   8.726  0.4622  0.5254 -0.0910
  935MOL0     C26124   3.758  10.880   8.802  0.0856 -0.1212 -0.2800
  935MOL0     C26125   3.863  10.782   8.812  0.2058  0.6366 -0.1503
  935MOL0     O26126   3.970  10.811   8.885  0.2616  0.7324 -1.1056
  935MOL0     C26127   4.075  10.713   8.882 -0.4104 -0.9678 -0.3824
  935MOL0     C26128   4.191  10.790   8.944  0.5559  0.1531  0.8402
  935MOL0     C26129   4.307  10.685   8.957  0.3023 -0.3489  0.2077
  935MOL0     C26130   4.432  10.764   9.012  0.0942 -0.7445  0.5105
  935MOL0     C26131   4.557  10.686   9.032  0.1615 -0.3540 -0.6706
  935MOL0     C26132   4.535  10.597   9.152 -0.5890 -0.0979  0.3512
  935MOL0     C26133   4.664  10.522   9.167 -0.3730 -0.3722 -0.2956
  935MOL0     C26134   4.650  10.452   9.298  0.0095  0.6022 -0.7033
  935MOL0    Cl26135   4.810  10.381   9.349 -0.2061 -0.2532 -0.4287
  935MOL0     C26136   3.833  10.657   8.755 -0.6977  0.3072  0.1413
  935MOL0     C26137   3.716  10.634   8.689  0.0578 -0.3480  0.4256
  935MOL0     O26138   3.431  10.601   8.822  0.0745  0.1665  1.1517
  935MOL0     C26139   3.255  10.633   8.508 -0.1491  0.0591  0.6294
  935MOL0     C26140   3.131  10.608   8.448 -1.0076  1.0598 -0.4317
  935MOL0     N26141   2.395  10.588   8.939  0.3258 -0.6403  0.3518
  935MOL0     N26142   2.407  10.524   9.052 -0.1714  0.0228 -0.5754
  935MOL0     C26143   3.503  10.397   9.604 -0.3413  0.2390  0.5614
  935MOL0     C26144   3.619  10.457   9.646  0.5587 -0.0739 -0.6038
  935MOL0     C26145   3.983  10.551   9.892  1.0042  0.2875  0.3897
  935MOL0     C26146   3.949  10.606  10.020 -0.4284  0.6197 -0.0242
  935MOL0     C26147   4.043  10.644  10.115 -0.0402  0.3608 -0.3108
  935MOL0     C26148   4.178  10.633  10.080  0.3596  0.2729  0.8307
  935MOL0     O26149   4.269  10.682  10.175  1.1548  0.3284  0.2353
  935MOL0     C26150   4.392  10.607  10.218  1.8936 -0.5658  0.3175
  935MOL0     C26151   4.477  10.703  10.280  0.0352  0.1055  1.2986
  935MOL0     C26152   4.603  10.611  10.307 -0.0750 -0.0669  0.0352
  935MOL0     C26153   4.698  10.688  10.392 -0.6896 -0.5727  0.1460
  935MOL0     C26154   4.746  10.799  10.314 -0.3451  0.1299 -1.4509
  935MOL0     C26155   4.763  10.891  10.236 -0.3738  0.4097  0.2058
  935MOL0     C26156   4.216  10.590   9.948 -0.1777 -0.4328  1.0627
  935MOL0     C26157   4.117  10.550   9.857 -0.4638 -0.4837  0.2229
  935MOL0     H26158   3.582  10.401   9.985  0.8899 -0.7220  0.0250
  935MOL0     H26159   3.381  10.279   9.889  1.4151 -0.7138  0.5358
  935MOL0     H26160   3.215  10.355   9.563  0.9931  0.8776  1.7204
  935MOL0     H26161   3.321  10.270   9.458  1.0509  0.4850  0.8778
  935MOL0     H26162   3.197  10.060   9.489 -2.4496 -0.8503 -0.9707
  935MOL0     H26163   3.092  10.116   9.624 -2.9226  0.2632 -1.0690
  935MOL0     H26164   3.004  10.280   9.434  1.7461  0.4828 -0.1593
  935MOL0     H26165   3.107  10.189   9.328  0.7430  0.8337  0.8150
  935MOL0     H26166   2.968   9.989   9.364  1.1305  0.2110  0.4661
  935MOL0     H26167   2.858  10.075   9.475  3.0229  2.7729  2.0827
  935MOL0     H26168   2.904  10.138   9.180 -0.1406  2.3731  0.3233
  935MOL0     H26169   2.767  10.051   9.243 -1.0222  1.7179 -3.1601
  935MOL0     H26170   2.682  10.248   9.374 -0.1791 -0.1043  1.0424
  935MOL0     H26171   2.829  10.339   9.329  0.6108 -0.7164 -0.6386
  935MOL0     H26172   2.769  10.348   9.096 -2.4545 -1.5348 -3.3006
  935MOL0     H26173   2.645  10.230   9.114  0.2462 -0.0138  0.1491
  935MOL0     H26174   2.635  10.506   9.254 -1.1460  1.9307 -1.1984
  935MOL0     H26175   2.501  10.397   9.251 -0.9110  2.9105 -1.1754
  935MOL0     H26176   2.724  10.526   8.950  0.7284 -0.7291  0.3004
  935MOL0     H26177   2.473  10.622   8.676  0.7169 -2.3566 -0.2161
  935MOL0     H26178   2.563  10.761   8.757  0.9700 -0.1182 -1.8547
  935MOL0     H26179   2.684  10.489   8.685 -0.9927  0.0617  2.7375
  935MOL0     H26180   2.764  10.639   8.746 -0.7610  0.5944  0.7997
  935MOL0     H26181   2.632  10.734   8.511 -3.3451 -1.5829 -0.1256
  935MOL0     H26182   2.649  10.559   8.474  0.8572 -1.2572  0.4778
  935MOL0     H26183   2.890  10.752   8.530  1.7761 -0.2099 -0.7544
  935MOL0     H26184   2.818  10.716   8.376  0.6638  4.6403  1.0704
  935MOL0     H26185   2.956  10.510   8.709 -0.6184  3.3326  0.8315
  935MOL0     H26186   3.064  10.469   8.898  0.1620 -0.2161  0.1892
  935MOL0     H26187   3.240  10.450   8.887  2.1323  3.2123  1.8103
  935MOL0     H26188   3.162  10.598   8.944 -1.8662  0.7310  0.2297
  935MOL0     H26189   3.559  10.923   8.720  0.4391  0.6133  1.0476
  935MOL0     H26190   3.773  10.981   8.837 -0.0189 -0.3586  0.4687
  935MOL0     H26191   4.047  10.624   8.938 -0.4480 -0.9624 -0.3951
  935MOL0     H26192   4.099  10.689   8.778  1.0314  0.0664 -0.3285
  935MOL0     H26193   4.227  10.868   8.877 -1.3963  0.2433 -0.1820
  935MOL0     H26194   4.166  10.824   9.045  1.1507 -0.0249  1.0507
  935MOL0     H26195   4.317  10.632   8.862 -2.9567  0.7765 -0.9131
  935MOL0     H26196   4.283  10.600   9.021 -2.0066 -1.2272 -1.6849
  935MOL0     H26197   4.453  10.835   8.931 -2.0612  0.2813  0.7812
  935MOL0     H26198   4.403  10.815   9.104 -0.1486 -1.2127  0.6979
  935MOL0     H26199   4.649  10.745   9.040  0.7762 -1.5030  1.5886
  935MOL0     H26200   4.565  10.621   8.944 -2.0986 -2.0233  0.2650
  935MOL0     H26201   4.507  10.652   9.242  1.5617  0.6513  0.6351
  935MOL0     H26202   4.470  10.509   9.140 -0.0428 -0.2224 -2.3366
  935MOL0     H26203   4.748  10.591   9.181 -0.3025 -0.6589  0.8080
  935MOL0     H26204   4.682  10.453   9.084 -2.3476 -3.5541  1.7241
  935MOL0     H26205   4.590  10.367   9.265  2.8086 -0.8300 -2.4780
  935MOL0     H26206   4.606  10.509   9.380  1.3123  1.2840 -0.4564
  935MOL0     H26207   3.892  10.567   8.771 -1.8668 -0.3001  1.3362
  935MOL0     H26208   3.686  10.533   8.661 -2.5520 -0.3881  2.9120
  935MOL0     H26209   3.343  10.662   8.451  1.7550 -0.8561  2.9145
  935MOL0     H26210   3.124  10.617   8.341 -1.7525  0.5348 -0.4308
  935MOL0     H26211   3.486  10.385   9.498 -1.1390 -0.7405  0.7844
  935MOL0     H26212   3.687  10.494   9.571  0.2799  0.3684 -0.6479
  935MOL0     H26213   3.850  10.617  10.062 -0.3198  3.3846 -0.3057
  935MOL0     H26214   4.026  10.669  10.219  1.5536  1.5647 -0.2882
  935MOL0     H26215   4.362  10.534  10.294  0.1612  0.0684  0.3065
  935MOL0     H26216   4.439  10.560  10.130  2.6269  2.2136 -0.8772
  935MOL0     H26217   4.432  10.737  10.374 -2.0824  0.3964  0.2309
  935MOL0     H26218   4.496  10.784  10.209  1.0828  0.6633  2.1834
  935MOL0     H26219   4.649  10.590  10.210  0.4379  1.5955 -0.1135
  935MOL0     H26220   4.575  10.517  10.356  1.4666 -1.2122 -1.1713
  935MOL0     H26221   4.777  10.620  10.426  1.8841  1.6536 -1.0391
  935MOL0     H26222   4.636  10.726  10.474 -0.8073  0.7892 -0.5584
  935MOL0     H26223   4.779  10.973  10.169  2.0129 -0.2976 -0.1731
  935MOL0     H26224   4.321  10.603   9.924 -0.0974  1.1642  2.1559
  935MOL0     H26225   4.145  10.508   9.761  0.2272 -1.9914  1.0501
  936MOL0     O26226   0.942   7.062   7.472 -0.6490  0.0935 -0.4265
  936MOL0     C26227   1.041   7.125   7.419  0.8148 -0.3227 -0.1659
  936MOL0     O26228   1.065   7.261   7.426  0.2838 -0.1361 -0.0633
  936MOL0     C26229   1.008   7.326   7.537 -0.6486  0.4483 -0.8125
  936MOL0     C26230   1.054   7.316   7.676 -0.3522 -0.6032  0.2440
  936MOL0     C26231   1.009   7.413   7.770  1.4562  0.4466  1.1899
  936MOL0     C26232   0.904   7.497   7.734  0.4636  0.4036  0.8820
  936MOL0     O26233   0.856   7.571   7.835 -0.9991  0.7666 -0.1160
  936MOL0     C26234   0.763   7.678   7.811  0.3987 -0.3185 -0.0239
  936MOL0     C26235   0.719   7.738   7.944  0.8710 -0.4305  0.1765
  936MOL0     C26236   0.833   7.839   7.983 -0.1870  0.5655  0.1023
  936MOL0     C26237   0.946   7.782   8.062  0.6352  0.4006  0.0109
  936MOL0     C26238   0.946   7.814   8.216  0.0003  0.2931  0.0846
  936MOL0     C26239   1.087   7.784   8.277 -0.2978  0.1646 -0.3194
  936MOL0     C26240   1.095   7.818   8.424  0.7780 -0.4504 -0.0832
  936MOL0     C26241   1.138   7.961   8.441  0.0588 -0.1912  0.2565
  936MOL0     N26242   1.149   7.992   8.579  0.0566 -0.2723 -0.6839
  936MOL0     C26243   1.048   8.012   8.670  0.8006 -0.9014  1.1619
  936MOL0     C26244   1.110   8.045   8.784  1.2506  0.6050 -0.0959
  936MOL0     C26245   1.042   8.070   8.913  0.0349  0.1343 -0.1465
  936MOL0     C26246   1.083   7.955   9.013  1.1676 -0.6022  0.4902
  936MOL0     C26247   1.046   8.004   9.157  0.1660  0.5595  0.5945
  936MOL0     C26248   1.081   7.898   9.259 -0.5350  1.0127  0.0629
  936MOL0     O26249   0.968   7.807   9.277 -0.1518  0.1542 -0.4899
  936MOL0     C26250   0.891   7.844   9.385  0.0654  1.0108  1.6724
  936MOL0     C26251   0.764   7.779   9.394  0.0665 -1.0660 -0.7353
  936MOL0     C26252   0.674   7.811   9.493 -0.2652 -0.2264  0.0731
  936MOL0     C26253   0.560   7.715   9.506 -0.5109 -0.1207  0.8511
  936MOL0     C26254   0.705   7.910   9.593  0.1691  0.8733  0.3727
  936MOL0     C26255   0.609   7.948   9.709 -0.3985 -0.3747  0.3077
  936MOL0     O26256   0.510   7.866   9.753  0.1268  0.1324 -0.2729
  936MOL0     C26257   0.413   7.914   9.827  0.1548  0.1644  0.5171
  936MOL0     C26258   0.361   7.835   9.924  0.2523  0.4456  0.1944
  936MOL0     C26259   0.242   7.865   9.996 -0.6152  0.2188 -0.1994
  936MOL0     C26260   0.168   7.978   9.967 -1.3139 -0.0565  0.9240
  936MOL0     O26261   0.061   7.996  10.035  0.0703 -0.3219  0.9223
  936MOL0     C26262  -0.010   8.110  10.011 -0.3594  0.2903 -0.6089
  936MOL0     C26263  -0.152   8.094  10.076  0.2283 -0.3386  0.5269
  936MOL0     C26264  -0.148   8.031  10.213  0.3572  0.3717 -0.1822
  936MOL0     C26265  -0.283   7.996  10.265  0.3979  0.1834 -0.7109
  936MOL0     C26266  -0.282   7.924  10.398  0.2508  0.6897  0.4019
  936MOL0     C26267  -0.418   7.910  10.475  0.6678 -0.1593  0.7894
  936MOL0     C26268  -0.536   7.882  10.381  0.7799  0.2141  0.8919
  936MOL0     C26269  -0.667   7.824  10.446  0.6532 -0.5812  0.1397
  936MOL0    Cl26270  -0.783   7.947  10.526  0.0358  0.1337  0.0273
  936MOL0     C26271   0.228   8.072   9.876 -0.1134 -0.1937  0.6881
  936MOL0     C26272   0.346   8.040   9.811  0.4484 -0.4542 -0.0588
  936MOL0     O26273   0.645   8.051   9.772  0.4981  0.7488  0.1784
  936MOL0     C26274   0.818   7.978   9.574 -0.1511  0.4887 -0.7656
  936MOL0     C26275   0.909   7.941   9.477  0.1165  0.3957  0.9943
  936MOL0     N26276   1.248   8.031   8.770  0.6290  0.5963 -0.2194
  936MOL0     N26277   1.270   7.999   8.642  0.4671 -0.2164 -0.2291
  936MOL0     C26278   0.860   7.502   7.602  0.2936 -0.2534 -0.7692
  936MOL0     C26279   0.909   7.418   7.505  0.5442  0.1559  0.1503
  936MOL0     C26280   1.098   7.049   7.307 -0.0222  0.3795 -0.1457
  936MOL0     C26281   1.227   7.086   7.265  0.2870  0.1143 -0.1061
  936MOL0     C26282   1.293   7.001   7.178 -0.5665  0.7122 -0.3174
  936MOL0     C26283   1.231   6.888   7.125 -0.4954  1.0214 -0.1723
  936MOL0     O26284   1.311   6.807   7.040  0.0161 -0.2930 -0.1937
  936MOL0     C26285   1.221   6.736   6.951  0.3947  0.4150 -0.0449
  936MOL0     C26286   1.279   6.705   6.817  0.4017 -0.6300 -0.7198
  936MOL0     C26287   1.389   6.599   6.821 -0.9354 -0.3176 -0.4806
  936MOL0     C26288   1.329   6.464   6.803 -0.3626 -0.1572 -0.1175
  936MOL0     C26289   1.424   6.354   6.825  0.3910 -0.5115  0.8352
  936MOL0     C26290   1.491   6.253   6.831  0.5959 -0.0587  0.1403
  936MOL0     C26291   1.101   6.853   7.170 -0.4302 -0.0023  0.3439
  936MOL0     C26292   1.028   6.932   7.258  0.3540 -0.4932 -0.7064
  936MOL0     H26293   1.129   7.244   7.706 -0.5617 -1.4114 -1.0959
  936MOL0     H26294   1.035   7.423   7.874 -2.6549  1.2534  2.3409
  936MOL0     H26295   0.802   7.750   7.738 -0.5757 -0.8610 -1.1003
  936MOL0     H26296   0.676   7.635   7.762  1.1036 -2.4168  0.4780
  936MOL0     H26297   0.624   7.791   7.938  0.1211 -1.6768  0.6775
  936MOL0     H26298   0.713   7.655   8.015  1.0132  0.3421  1.1030
  936MOL0     H26299   0.872   7.887   7.893  0.4498  0.3919  0.2751
  936MOL0     H26300   0.792   7.916   8.048  1.0459 -1.7113  3.8949
  936MOL0     H26301   0.957   7.675   8.046 -1.1229  0.5313 -2.6969
  936MOL0     H26302   1.036   7.833   8.026  0.9652 -0.9445 -1.1370
  936MOL0     H26303   0.921   7.918   8.238 -1.2758  0.0551 -0.2037
  936MOL0     H26304   0.874   7.744   8.260 -0.6956  1.1100  0.2718
  936MOL0     H26305   1.112   7.678   8.263 -0.7643  0.0899 -0.6247
  936MOL0     H26306   1.153   7.848   8.218 -0.9369  0.2746 -0.9302
  936MOL0     H26307   0.993   7.796   8.456 -0.1582  0.9047 -2.0052
  936MOL0     H26308   1.167   7.756   8.478  1.8142 -0.6720 -1.6499
  936MOL0     H26309   1.066   8.028   8.392 -0.1611 -1.1367 -0.7640
  936MOL0     H26310   1.231   7.991   8.390 -1.3213 -0.9430 -2.9815
  936MOL0     H26311   0.941   8.022   8.653  0.8371  1.6100  1.9732
  936MOL0     H26312   1.070   8.171   8.945 -2.3169 -0.3957  4.6178
  936MOL0     H26313   0.938   8.059   8.880  0.5943  1.1447 -2.4153
  936MOL0     H26314   1.192   7.943   9.011  1.2997  0.4205 -1.8616
  936MOL0     H26315   1.030   7.863   8.990  0.1476 -0.1287  0.8791
  936MOL0     H26316   0.940   8.031   9.166 -0.2162 -0.3169 -0.9137
  936MOL0     H26317   1.097   8.100   9.171 -1.1820  1.9226 -2.7266
  936MOL0     H26318   1.125   7.943   9.348 -1.1043  2.7883 -0.4987
  936MOL0     H26319   1.159   7.836   9.213  0.4224  0.7319  1.9817
  936MOL0     H26320   0.738   7.702   9.322  1.7445 -0.7631 -1.7279
  936MOL0     H26321   0.471   7.775   9.525 -0.5552 -0.6525  2.4435
  936MOL0     H26322   0.548   7.656   9.414 -0.6640  0.7503  0.2999
  936MOL0     H26323   0.577   7.653   9.594 -0.6432  2.0631  2.4828
  936MOL0     H26324   0.404   7.740   9.954 -0.6730 -1.1214 -3.0336
  936MOL0     H26325   0.205   7.799  10.074  1.1927  0.8037  1.2273
  936MOL0     H26326   0.040   8.190  10.065 -1.0305 -1.5535  3.1368
  936MOL0     H26327  -0.019   8.133   9.905  1.8761  2.0321 -0.5032
  936MOL0     H26328  -0.216   8.183  10.089  0.6505  0.0034  0.2905
  936MOL0     H26329  -0.214   8.026  10.016 -1.0598  1.4595 -0.2936
  936MOL0     H26330  -0.092   8.095  10.282  0.9093 -0.4572  0.1518
  936MOL0     H26331  -0.088   7.940  10.209 -2.9199 -2.0082  1.0760
  936MOL0     H26332  -0.343   8.086  10.284  0.7035  0.1265  0.5488
  936MOL0     H26333  -0.325   7.930  10.188  2.0543  0.9971 -2.3884
  936MOL0     H26334  -0.220   7.971  10.475 -0.8410 -2.0609  3.1770
  936MOL0     H26335  -0.240   7.829  10.364 -2.1235 -0.4722  0.4718
  936MOL0     H26336  -0.425   7.852  10.567 -3.3104  0.1955  0.9001
  936MOL0     H26337  -0.449   8.011  10.502  3.9582  1.3269 -0.5005
  936MOL0     H26338  -0.497   7.798  10.322  0.9368 -0.3891  1.8326
  936MOL0     H26339  -0.544   7.967  10.313  5.0338 -0.0026 -0.1243
  936MOL0     H26340  -0.637   7.751  10.522 -2.1013 -0.6574  1.2900
  936MOL0     H26341  -0.728   7.771  10.372 -2.0941  2.6349 -0.1578
  936MOL0     H26342   0.174   8.160   9.842 -3.1862 -1.6092  1.5584
  936MOL0     H26343   0.383   8.114   9.741  1.3680  2.1291  2.9069
  936MOL0     H26344   0.847   8.055   9.644 -1.6296  2.4264 -2.1854
  936MOL0     H26345   0.998   8.004   9.474  0.2958  0.1287 -1.9015
  936MOL0     H26346   0.788   7.574   7.565  1.0100  1.4194  0.9238
  936MOL0     H26347   0.869   7.441   7.406  0.7334  3.1436  0.6697
  936MOL0     H26348   1.274   7.178   7.299  3.1533 -1.0661 -0.6186
  936MOL0     H26349   1.383   7.032   7.127 -1.0198  0.6616 -1.1810
  936MOL0     H26350   1.181   6.643   6.994  0.5289  0.6427  0.5863
  936MOL0     H26351   1.133   6.796   6.928 -2.3361 -3.0041  0.5947
  936MOL0     H26352   1.316   6.796   6.768  1.1567 -0.2088  0.5955
  936MOL0     H26353   1.211   6.665   6.741 -1.0536  1.8273 -0.8081
  936MOL0     H26354   1.450   6.616   6.911 -1.7758 -1.1171  0.2620
  936MOL0     H26355   1.461   6.615   6.741 -0.8272  3.3259  0.1577
  936MOL0     H26356   1.290   6.451   6.702 -2.3037 -1.9604  0.7822
  936MOL0     H26357   1.242   6.447   6.868 -2.2255  0.8317 -2.2059
  936MOL0     H26358   1.547   6.162   6.836 -0.2859 -0.8038 -2.0812
  936MOL0     H26359   1.058   6.756   7.148  1.0241 -0.6252  0.1085
  936MOL0     H26360   0.930   6.905   7.297  1.6882  1.3784  4.7251
  937MOL0     O26361   2.822   7.698   4.559 -0.3482  0.7313  0.1145
  937MOL0     C26362   2.870   7.663   4.454 -0.2973  0.7975  0.3986
  937MOL0     O26363   2.807   7.573   4.360 -0.6614 -0.9100  0.3431
  937MOL0     C26364   2.672   7.553   4.351 -0.3508 -0.1683 -1.0852
  937MOL0     C26365   2.626   7.493   4.236  0.0662 -0.2924 -0.4305
  937MOL0     C26366   2.500   7.446   4.220  0.0261  0.0811  0.0205
  937MOL0     C26367   2.403   7.472   4.316  0.2012 -0.0180 -0.7766
  937MOL0     O26368   2.271   7.450   4.302  0.0888 -0.4707  0.2361
  937MOL0     C26369   2.219   7.414   4.178  0.1983 -0.5772 -0.5059
  937MOL0     C26370   2.077   7.387   4.194  0.0149  0.3235 -0.4941
  937MOL0     C26371   2.033   7.239   4.171  0.0880 -1.0030 -0.6252
  937MOL0     C26372   1.881   7.225   4.145 -0.0033  0.2202  0.0749
  937MOL0     C26373   1.837   7.079   4.131 -0.2539  0.0956 -0.5401
  937MOL0     C26374   1.683   7.066   4.153  0.2592 -0.5888  0.4193
  937MOL0     C26375   1.596   7.124   4.042  0.4536  0.2212  0.3797
  937MOL0     C26376   1.643   7.071   3.897 -0.8145 -1.0355  0.7103
  937MOL0     N26377   1.522   7.095   3.810 -0.9860  0.7953  1.1745
  937MOL0     C26378   1.458   7.206   3.787 -0.6663 -0.7315 -0.3682
  937MOL0     C26379   1.346   7.168   3.721  0.4252 -0.2831 -0.5160
  937MOL0     C26380   1.238   7.262   3.683  0.3567 -0.4569  0.1987
  937MOL0     C26381   1.122   7.250   3.778  0.3141 -0.8732 -0.3591
  937MOL0     C26382   1.129   7.310   3.918 -0.4783 -0.0755 -0.0114
  937MOL0     C26383   0.994   7.276   3.996 -1.3929 -0.9986  0.0770
  937MOL0     O26384   1.009   7.316   4.136  0.4670  0.6365  0.2647
  937MOL0     C26385   0.911   7.291   4.226  0.7024  0.1209 -0.3614
  937MOL0     C26386   0.778   7.255   4.193  0.2806 -0.0511 -0.6662
  937MOL0     C26387   0.679   7.243   4.293 -0.4853  0.4660 -0.1617
  937MOL0     C26388   0.538   7.217   4.249 -0.1465 -0.0313 -0.3187
  937MOL0     C26389   0.721   7.250   4.430 -0.9824  0.1765 -0.3200
  937MOL0     C26390   0.623   7.245   4.536 -0.0093  0.2527  0.1802
  937MOL0     O26391   0.669   7.196   4.655 -0.0883 -0.1088 -0.5118
  937MOL0     C26392   0.576   7.133   4.725 -0.8335  0.1205  0.3352
  937MOL0     C26393   0.578   7.158   4.863 -0.5355 -0.0823 -0.8761
  937MOL0     C26394   0.492   7.097   4.940 -0.6829  0.6109 -0.5550
  937MOL0     C26395   0.386   7.026   4.891  0.4288 -0.9902 -0.1449
  937MOL0     O26396   0.286   6.981   4.979 -0.1601  0.4862 -0.2719
  937MOL0     C26397   0.151   6.999   4.952 -0.6259  0.3721  0.0886
  937MOL0     C26398   0.077   6.971   5.080 -0.6474 -0.5119 -0.6874
  937MOL0     C26399  -0.060   7.028   5.067 -0.4978 -0.1459  0.1377
  937MOL0     C26400  -0.163   6.938   4.995 -0.7985 -0.2144  0.0801
  937MOL0     C26401  -0.305   6.980   5.034 -0.2048  0.6743  0.3927
  937MOL0     C26402  -0.346   6.912   5.168  0.1337  0.0935 -0.3965
  937MOL0     C26403  -0.498   6.901   5.202 -0.8723 -1.2188 -0.1549
  937MOL0     C26404  -0.504   6.836   5.346  0.1617  1.0563 -0.5181
  937MOL0    Cl26405  -0.662   6.801   5.415 -0.1528  0.4812 -0.1108
  937MOL0     C26406   0.381   6.994   4.754 -0.0251 -0.0525 -0.3003
  937MOL0     C26407   0.481   7.044   4.675  0.7094  1.3955  0.4097
  937MOL0     O26408   0.514   7.297   4.512  0.5842  0.3444  0.0572
  937MOL0     C26409   0.861   7.271   4.459 -0.1091  0.2454 -0.2455
  937MOL0     C26410   0.951   7.291   4.358  0.9860 -0.0725  0.1296
  937MOL0     N26411   1.361   7.031   3.704  0.5469 -0.2053 -0.0444
  937MOL0     N26412   1.472   6.985   3.756  0.4169  0.3058  0.0721
  937MOL0     C26413   2.443   7.526   4.441 -0.2697  0.0706 -0.1824
  937MOL0     C26414   2.578   7.566   4.455 -0.3428 -0.2017 -0.1092
  937MOL0     C26415   3.011   7.700   4.424  0.5639 -0.3587 -0.6304
  937MOL0     C26416   3.087   7.639   4.329  0.2506  0.0093  0.8219
  937MOL0     C26417   3.218   7.669   4.306  0.1575  0.4506 -0.6140
  937MOL0     C26418   3.285   7.768   4.383  0.6617  0.6060 -0.1861
  937MOL0     O26419   3.422   7.800   4.356  0.4442  0.1219  0.2780
  937MOL0     C26420   3.489   7.876   4.453  0.2912 -0.9371  0.0232
  937MOL0     C26421   3.640   7.832   4.459 -0.1287 -0.2403  0.0394
  937MOL0     C26422   3.725   7.907   4.571 -0.2795 -1.0692  0.7410
  937MOL0     C26423   3.678   7.870   4.713 -0.4287 -0.4109  0.3379
  937MOL0     C26424   3.661   7.726   4.736 -0.5676 -0.3370 -0.1439
  937MOL0     C26425   3.637   7.607   4.739  0.1746  0.5055 -0.1330
  937MOL0     C26426   3.203   7.849   4.471 -0.1771 -0.2987  0.3266
  937MOL0     C26427   3.073   7.806   4.499  0.1528 -0.3143  0.0550
  937MOL0     H26428   2.705   7.465   4.166 -0.8348 -0.6358 -1.3354
  937MOL0     H26429   2.474   7.393   4.129 -3.2114  3.0290 -1.0110
  937MOL0     H26430   2.233   7.506   4.120  1.1054  0.8647  1.8294
  937MOL0     H26431   2.279   7.328   4.148  1.5631 -0.7651  2.3488
  937MOL0     H26432   2.040   7.428   4.288 -0.1316  2.8924 -1.5917
  937MOL0     H26433   2.023   7.448   4.121 -0.3604  0.1597 -0.3593
  937MOL0     H26434   2.092   7.200   4.088 -0.5134 -0.1025 -1.4931
  937MOL0     H26435   2.058   7.183   4.262 -0.1830 -1.6084 -0.9147
  937MOL0     H26436   1.826   7.267   4.229 -0.8183 -0.0133 -0.3304
  937MOL0     H26437   1.853   7.284   4.057  1.8985 -1.2061 -1.5955
  937MOL0     H26438   1.866   7.041   4.033 -1.7841  1.8728 -1.7640
  937MOL0     H26439   1.886   7.015   4.205 -1.3464  0.2525  0.3414
  937MOL0     H26440   1.649   6.963   4.172  2.2673 -1.4299 -0.2926
  937MOL0     H26441   1.647   7.118   4.243  1.0398 -0.4851  0.6751
  937MOL0     H26442   1.492   7.093   4.058  1.2243 -1.8989  1.7828
  937MOL0     H26443   1.588   7.233   4.041 -5.3608  0.1074 -0.7661
  937MOL0     H26444   1.664   6.964   3.894 -1.0782 -1.0821 -2.1422
  937MOL0     H26445   1.733   7.129   3.874 -1.5364  0.5981  1.7881
  937MOL0     H26446   1.497   7.300   3.823 -2.5491  0.3944 -1.1336
  937MOL0     H26447   1.279   7.363   3.680  0.0364 -0.3078  0.6717
  937MOL0     H26448   1.205   7.239   3.582  0.0913 -2.3036  0.6516
  937MOL0     H26449   1.096   7.144   3.777  0.1888 -0.8422 -0.3802
  937MOL0     H26450   1.047   7.310   3.726  1.1481  0.6753  0.1185
  937MOL0     H26451   1.154   7.415   3.928 -1.4925  0.1111  0.7306
  937MOL0     H26452   1.214   7.258   3.962 -1.8468 -3.8385 -1.3670
  937MOL0     H26453   0.969   7.170   3.985  0.4646 -1.5134  0.5084
  937MOL0     H26454   0.920   7.338   3.946  1.8747  1.0935 -2.5862
  937MOL0     H26455   0.751   7.251   4.088  0.4094 -4.3816 -0.7213
  937MOL0     H26456   0.472   7.304   4.249  0.8011  0.8450  3.0759
  937MOL0     H26457   0.538   7.191   4.143  0.1135  0.7413 -0.5065
  937MOL0     H26458   0.483   7.134   4.294 -0.9997  0.0601 -1.1681
  937MOL0     H26459   0.636   7.239   4.905  1.2210 -1.6883 -0.0286
  937MOL0     H26460   0.482   7.117   5.046 -1.7250 -0.0691 -0.5054
  937MOL0     H26461   0.131   7.103   4.925  0.1491  0.8510  1.2695
  937MOL0     H26462   0.124   6.931   4.872 -1.5816 -0.5514  1.1585
  937MOL0     H26463   0.069   6.865   5.105  0.6111  0.2160  3.5057
  937MOL0     H26464   0.125   7.017   5.166 -0.4477 -1.8484 -0.0574
  937MOL0     H26465  -0.054   7.119   5.006  0.0600 -0.9779 -1.1048
  937MOL0     H26466  -0.102   7.062   5.162 -1.6382 -1.4857  0.1392
  937MOL0     H26467  -0.147   6.957   4.888 -0.9584 -1.0123 -0.0885
  937MOL0     H26468  -0.144   6.833   5.017  0.7057 -0.4427 -2.0249
  937MOL0     H26469  -0.367   6.932   4.957 -0.9420  1.3596  0.5416
  937MOL0     H26470  -0.320   7.088   5.037 -3.5389  0.4797 -2.3660
  937MOL0     H26471  -0.314   6.808   5.167 -0.9400 -0.4168  3.2799
  937MOL0     H26472  -0.286   6.955   5.249  0.8402  0.9861 -1.3551
  937MOL0     H26473  -0.548   6.842   5.125 -1.5236 -2.6584  1.2937
  937MOL0     H26474  -0.544   7.000   5.207  1.0090 -0.3574  2.1858
  937MOL0     H26475  -0.448   6.897   5.418 -0.9668 -1.1561  2.4099
  937MOL0     H26476  -0.443   6.747   5.328 -1.3723  0.1037 -1.1557
  937MOL0     H26477   0.300   6.935   4.712 -0.4266 -0.3811  0.9050
  937MOL0     H26478   0.481   7.011   4.572 -0.7016 -0.9898  1.0733
  937MOL0     H26479   0.898   7.271   4.561 -0.1359 -0.4642 -0.2336
  937MOL0     H26480   1.056   7.310   4.375  1.9385  0.3302 -4.8885
  937MOL0     H26481   2.387   7.533   4.533 -2.8103  2.4400 -1.7401
  937MOL0     H26482   2.597   7.631   4.539 -2.0963  2.4385 -1.6037
  937MOL0     H26483   3.033   7.569   4.265 -0.0057  2.2324 -1.5597
  937MOL0     H26484   3.255   7.613   4.220 -0.3470 -1.8560  0.6020
  937MOL0     H26485   3.487   7.984   4.441 -0.6445 -0.8114  1.1456
  937MOL0     H26486   3.442   7.862   4.550 -3.7152 -1.6708 -1.8153
  937MOL0     H26487   3.683   7.847   4.359  0.0933  0.6514  0.2544
  937MOL0     H26488   3.647   7.724   4.470 -2.3265 -0.7299 -2.3870
  937MOL0     H26489   3.722   8.015   4.555 -0.8813 -1.3078 -0.9237
  937MOL0     H26490   3.832   7.887   4.558  0.1029  0.5442  1.0816
  937MOL0     H26491   3.585   7.920   4.742 -1.4397 -1.7387 -0.4928
  937MOL0     H26492   3.749   7.903   4.790 -1.0890 -2.3932  1.8967
  937MOL0     H26493   3.619   7.501   4.739  3.1351 -0.1445  2.3536
  937MOL0     H26494   3.239   7.932   4.531 -3.1660  0.5931  1.0379
  937MOL0     H26495   3.024   7.853   4.583  0.0029  0.6683 -0.5726
  938MOL0     O26496   5.335   0.562   2.308  0.2699  0.2150 -1.2020
  938MOL0     C26497   5.348   0.437   2.310  0.7783  0.8639 -0.4596
  938MOL0     O26498   5.469   0.372   2.327  1.3520 -0.3964 -0.1207
  938MOL0     C26499   5.582   0.433   2.271  0.4395 -1.1605 -0.6959
  938MOL0     C26500   5.700   0.376   2.308 -0.3710 -0.0875  0.0742
  938MOL0     C26501   5.818   0.424   2.259 -0.0995  0.1577 -0.0456
  938MOL0     C26502   5.820   0.528   2.164  0.2046 -0.9290  0.3626
  938MOL0     O26503   5.949   0.559   2.116  0.6474 -0.2671 -0.0626
  938MOL0     C26504   5.967   0.627   1.989 -0.5864  0.4786 -0.3094
  938MOL0     C26505   6.113   0.654   1.962 -1.4444  0.4558  1.0296
  938MOL0     C26506   6.175   0.750   2.062 -0.5764 -0.4692 -0.3144
  938MOL0     C26507   6.327   0.771   2.056  0.0506  0.5489 -0.6760
  938MOL0     C26508   6.356   0.914   2.110 -0.5783  0.6267  0.3724
  938MOL0     C26509   6.499   0.939   2.108 -1.1634 -0.2135 -0.5968
  938MOL0     C26510   6.588   0.924   1.984 -0.0732  0.2677 -0.0409
  938MOL0     C26511   6.565   1.036   1.883  0.4043  0.9964  0.6296
  938MOL0     N26512   6.620   1.161   1.932 -0.7264  0.5570  0.1787
  938MOL0     C26513   6.561   1.267   1.984  0.1456 -0.7726 -0.4635
  938MOL0     C26514   6.663   1.350   2.010  0.1172 -0.9547 -0.1759
  938MOL0     C26515   6.644   1.488   2.081 -0.7072 -0.1616 -0.2407
  938MOL0     C26516   6.772   1.542   2.141 -0.2665  0.0975  0.7678
  938MOL0     C26517   6.759   1.675   2.219  0.4891  0.9901 -0.4643
  938MOL0     C26518   6.895   1.716   2.294  0.2633 -0.1058  0.7335
  938MOL0     O26519   6.985   1.752   2.193 -0.2513 -0.1148  0.6249
  938MOL0     C26520   7.101   1.817   2.227  0.5847 -0.5609  0.2313
  938MOL0     C26521   7.140   1.854   2.357 -0.8967 -0.0670  0.0925
  938MOL0     C26522   7.267   1.908   2.386 -0.2166 -0.2628 -0.1694
  938MOL0     C26523   7.302   1.945   2.526  0.4909  0.4463 -0.0024
  938MOL0     C26524   7.360   1.932   2.282  0.8775  0.4131 -0.1997
  938MOL0     C26525   7.497   1.976   2.297  0.5408 -0.2715 -0.2743
  938MOL0     O26526   7.526   2.042   2.417 -0.3704  0.4096 -0.2444
  938MOL0     C26527   7.654   2.044   2.468  0.4192 -0.5201  0.3781
  938MOL0     C26528   7.710   2.163   2.508 -0.7579 -0.3502  0.4379
  938MOL0     C26529   7.846   2.165   2.545 -0.0866  0.3526 -0.6813
  938MOL0     C26530   7.929   2.048   2.525 -0.5482 -0.0439  0.3360
  938MOL0     O26531   8.071   2.043   2.529  0.0480 -0.2816 -0.2158
  938MOL0     C26532   8.145   2.161   2.507  0.1767 -0.3801  0.8485
  938MOL0     C26533   8.297   2.132   2.501 -0.2824 -0.0016 -0.1977
  938MOL0     C26534   8.388   2.258   2.486  0.1185 -0.2787 -0.0300
  938MOL0     C26535   8.539   2.224   2.506 -0.6337  0.2048 -0.1482
  938MOL0     C26536   8.611   2.154   2.389 -0.9295 -1.1562 -0.2699
  938MOL0     C26537   8.769   2.178   2.416  0.1485 -0.3751  0.6579
  938MOL0     C26538   8.853   2.076   2.335  1.7098  0.0092  0.1597
  938MOL0     C26539   8.993   2.119   2.300  1.3302  0.2461 -0.7932
  938MOL0    Cl26540   9.075   2.146   2.461  0.0110  0.3088 -0.6046
  938MOL0     C26541   7.866   1.932   2.486 -0.4881  0.0128 -0.0499
  938MOL0     C26542   7.726   1.924   2.461  0.0259 -0.5300  0.6403
  938MOL0     O26543   7.578   1.963   2.210 -0.4898  1.0539 -0.2316
  938MOL0     C26544   7.304   1.913   2.157  0.6032 -0.6342  1.2140
  938MOL0     C26545   7.190   1.841   2.126  0.3422  0.9653 -1.2149
  938MOL0     N26546   6.786   1.291   1.970 -0.2895  0.3811 -0.4233
  938MOL0     N26547   6.759   1.173   1.927  0.6598 -0.0227 -0.1736
  938MOL0     C26548   5.699   0.590   2.120  0.1298 -0.7348 -0.9499
  938MOL0     C26549   5.578   0.533   2.168 -0.5681 -0.3907 -0.4837
  938MOL0     C26550   5.221   0.363   2.328 -0.1022 -0.8140 -0.3023
  938MOL0     C26551   5.233   0.235   2.385  1.4103  0.2327  0.2996
  938MOL0     C26552   5.113   0.161   2.410 -0.1632  0.1664  0.2804
  938MOL0     C26553   4.993   0.210   2.374 -0.0308 -1.2236 -0.3191
  938MOL0     O26554   4.882   0.134   2.403 -0.4536  0.0556  0.1856
  938MOL0     C26555   4.761   0.141   2.327 -0.8270  0.5370  0.7096
  938MOL0     C26556   4.682   0.009   2.332  0.2019  0.7681  0.2687
  938MOL0     C26557   4.652  -0.030   2.476  0.2174 -0.1036  0.1296
  938MOL0     C26558   4.556  -0.147   2.492  0.5791 -0.3493  0.0295
  938MOL0     C26559   4.418  -0.116   2.454 -0.2012 -0.0532 -0.1371
  938MOL0     C26560   4.308  -0.085   2.421 -0.0467  0.4429 -0.1736
  938MOL0     C26561   4.981   0.331   2.315 -0.6252 -0.1990 -0.8316
  938MOL0     C26562   5.093   0.407   2.285 -0.0788  0.3867  0.9379
  938MOL0     H26563   5.709   0.288   2.372  0.6938 -0.8859 -1.1354
  938MOL0     H26564   5.916   0.387   2.290  1.6014  0.8335 -3.9509
  938MOL0     H26565   5.938   0.552   1.914  1.5247 -0.9294  0.1798
  938MOL0     H26566   5.905   0.715   1.967  1.2181  1.5261 -1.4567
  938MOL0     H26567   6.158   0.554   1.961  0.9478  1.4166 -1.4545
  938MOL0     H26568   6.141   0.692   1.863  0.0457  1.2348  1.7096
  938MOL0     H26569   6.132   0.850   2.050  0.2221 -0.1058 -0.2319
  938MOL0     H26570   6.147   0.717   2.162 -1.1808  0.4024 -0.1770
  938MOL0     H26571   6.380   0.695   2.113  0.8761  0.7494 -1.1569
  938MOL0     H26572   6.359   0.777   1.951 -1.4960 -0.2422 -1.2357
  938MOL0     H26573   6.308   1.001   2.064 -0.6112 -0.3051 -1.4676
  938MOL0     H26574   6.321   0.922   2.213 -2.0542  2.6668 -0.2325
  938MOL0     H26575   6.500   1.042   2.145 -1.1401 -0.8609  1.3002
  938MOL0     H26576   6.542   0.871   2.181 -0.3603 -1.5141 -2.2306
  938MOL0     H26577   6.694   0.924   2.009  0.1394 -1.2811 -0.8317
  938MOL0     H26578   6.584   0.827   1.933 -0.2345  0.7503 -0.9820
  938MOL0     H26579   6.458   1.051   1.865  0.7220  2.8432 -0.0218
  938MOL0     H26580   6.617   1.013   1.790  1.3123  2.6324  0.7037
  938MOL0     H26581   6.456   1.274   2.010  0.4334  0.0804  0.5493
  938MOL0     H26582   6.626   1.570   2.011  2.8092  5.3468  4.3573
  938MOL0     H26583   6.562   1.478   2.153 -1.2631  1.9783 -0.4938
  938MOL0     H26584   6.849   1.545   2.063 -0.5264  1.1413  0.5317
  938MOL0     H26585   6.809   1.466   2.211  0.8022  0.3519  0.4998
  938MOL0     H26586   6.676   1.652   2.286  2.4154 -2.0352  1.0922
  938MOL0     H26587   6.734   1.756   2.149 -3.7949 -0.6543 -1.1731
  938MOL0     H26588   6.935   1.635   2.356 -1.7737  0.8655  3.5647
  938MOL0     H26589   6.870   1.801   2.359 -2.4651 -0.3032  0.0835
  938MOL0     H26590   7.083   1.837   2.447  0.7098  0.6222  1.2812
  938MOL0     H26591   7.221   1.918   2.594  3.7601  1.2332  4.6641
  938MOL0     H26592   7.387   1.885   2.561 -0.6337 -0.1359  1.8364
  938MOL0     H26593   7.331   2.049   2.548  1.4713  0.1770  0.0643
  938MOL0     H26594   7.651   2.254   2.515 -0.0506  0.0042  2.4622
  938MOL0     H26595   7.886   2.256   2.590  0.4959 -0.4236  0.4059
  938MOL0     H26596   8.125   2.213   2.412  1.8527  1.6651  1.5388
  938MOL0     H26597   8.134   2.229   2.592 -0.8163 -1.5024  1.6433
  938MOL0     H26598   8.339   2.074   2.582  0.7870 -0.4360 -1.0433
  938MOL0     H26599   8.306   2.076   2.407 -2.2443 -0.8710  0.0617
  938MOL0     H26600   8.351   2.328   2.562 -0.2400 -2.6280  2.1108
  938MOL0     H26601   8.384   2.301   2.386  0.2008  1.1677  0.5610
  938MOL0     H26602   8.588   2.321   2.514 -1.3125  0.5018  0.4454
  938MOL0     H26603   8.546   2.166   2.598 -0.6563 -0.7391 -0.7250
  938MOL0     H26604   8.580   2.194   2.292  2.2584  1.0490 -0.5344
  938MOL0     H26605   8.594   2.046   2.392 -0.7059 -1.1905 -0.2654
  938MOL0     H26606   8.799   2.280   2.394  2.0613 -0.9522  0.4243
  938MOL0     H26607   8.782   2.167   2.524  1.0675  0.2163  0.6086
  938MOL0     H26608   8.792   2.059   2.246 -0.0037  1.9516  0.8697
  938MOL0     H26609   8.840   1.976   2.378 -2.8580  1.0586  1.7851
  938MOL0     H26610   8.978   2.216   2.252  1.6418  2.0057  2.4249
  938MOL0     H26611   9.041   2.041   2.240 -2.4868 -3.5957  0.6643
  938MOL0     H26612   7.937   1.854   2.460  0.3589  0.9257 -0.5953
  938MOL0     H26613   7.679   1.832   2.427 -1.4075  0.5963 -0.5526
  938MOL0     H26614   7.354   1.953   2.069 -2.8012 -0.2744 -0.7364
  938MOL0     H26615   7.179   1.816   2.021 -2.4535  1.8261 -1.2063
  938MOL0     H26616   5.698   0.668   2.045 -3.2444 -0.3015 -0.5805
  938MOL0     H26617   5.486   0.580   2.133 -1.0314 -0.0164  1.1467
  938MOL0     H26618   5.329   0.196   2.417  0.4011 -3.6483 -0.8846
  938MOL0     H26619   5.123   0.059   2.447  2.4270  0.2926  0.1061
  938MOL0     H26620   4.696   0.212   2.379  0.2310  1.3053  1.0281
  938MOL0     H26621   4.771   0.169   2.222 -2.3179  0.1960  0.4569
  938MOL0     H26622   4.720  -0.080   2.282 -1.7369 -1.6313  2.7384
  938MOL0     H26623   4.590   0.036   2.280 -0.0380 -1.5682 -0.6244
  938MOL0     H26624   4.605   0.058   2.522  1.7988  0.6177  0.4576
  938MOL0     H26625   4.747  -0.051   2.527  0.7679  2.8530  0.5282
  938MOL0     H26626   4.552  -0.180   2.596 -0.7970 -0.8979 -0.1816
  938MOL0     H26627   4.590  -0.239   2.444  0.5124 -1.7328  2.4657
  938MOL0     H26628   4.203  -0.070   2.402 -0.3465  0.8111  1.6245
  938MOL0     H26629   4.880   0.359   2.288 -0.2475  2.2386  0.0329
  938MOL0     H26630   5.093   0.508   2.244 -0.0216  0.2674  0.6488
  939MOL0     O26631   7.132   1.001   6.364  0.0100  0.2030 -0.0939
  939MOL0     C26632   7.199   1.105   6.394  0.5564 -0.1206 -0.4187
  939MOL0     O26633   7.145   1.228   6.419  0.6027 -0.2609  0.0555
  939MOL0     C26634   7.011   1.233   6.419  0.0227 -0.0874  0.0318
  939MOL0     C26635   6.934   1.196   6.526 -0.2179  0.5206  0.3448
  939MOL0     C26636   6.791   1.192   6.508  0.2078 -0.2636  1.1395
  939MOL0     C26637   6.726   1.227   6.387 -0.1995 -0.9920  0.5227
  939MOL0     O26638   6.587   1.243   6.386 -0.2164  0.0363  0.6226
  939MOL0     C26639   6.528   1.232   6.257 -0.1502  0.7169 -0.8109
  939MOL0     C26640   6.370   1.225   6.268  0.1003 -0.6337  0.2183
  939MOL0     C26641   6.310   1.140   6.152  0.2523  0.0143  0.5843
  939MOL0     C26642   6.165   1.200   6.113  0.0890  0.1314 -0.7531
  939MOL0     C26643   6.070   1.214   6.232  0.1823  0.2077 -0.1282
  939MOL0     C26644   5.934   1.243   6.163  0.2871 -0.3235 -0.1214
  939MOL0     C26645   5.843   1.294   6.265  0.0788 -1.0220 -0.5780
  939MOL0     C26646   5.871   1.444   6.310 -0.1814 -0.0997  0.6841
  939MOL0     N26647   5.904   1.540   6.206 -0.2371  0.4778 -0.4714
  939MOL0     C26648   6.024   1.599   6.179 -0.6051 -0.5160  0.0611
  939MOL0     C26649   5.994   1.682   6.077 -0.9589 -0.0610  0.8900
  939MOL0     C26650   6.087   1.784   6.023  1.1226 -0.9447  0.1862
  939MOL0     C26651   6.042   1.935   6.037  0.2293  0.3040  0.0528
  939MOL0     C26652   5.995   1.977   6.177 -0.5273  0.1507  0.4082
  939MOL0     C26653   6.023   2.126   6.185 -0.5346 -0.0682 -0.3446
  939MOL0     O26654   5.953   2.202   6.284 -0.5813  0.7886 -0.1220
  939MOL0     C26655   5.956   2.167   6.417  0.1233  1.0071 -0.2305
  939MOL0     C26656   5.844   2.197   6.495 -0.7520 -0.9472  0.2525
  939MOL0     C26657   5.851   2.168   6.633  0.5119 -0.0134  0.2499
  939MOL0     C26658   5.729   2.209   6.704  0.0699  0.5049  0.3623
  939MOL0     C26659   5.960   2.107   6.699 -1.0917  0.2538  0.0194
  939MOL0     C26660   5.967   2.066   6.839  1.0730  0.8031  0.2415
  939MOL0     O26661   6.055   1.969   6.879  0.3584 -0.2907  0.1854
  939MOL0     C26662   6.040   1.905   6.999  0.0402  0.6268  0.3222
  939MOL0     C26663   6.154   1.856   7.067 -0.0975  0.3052 -0.5591
  939MOL0     C26664   6.139   1.773   7.188 -1.2640 -0.5710  0.0332
  939MOL0     C26665   6.014   1.750   7.243 -0.4519 -0.3361  0.0896
  939MOL0     O26666   5.989   1.688   7.360 -0.4331 -0.3698  0.0445
  939MOL0     C26667   6.090   1.620   7.430 -0.5495  0.0105 -0.4671
  939MOL0     C26668   6.031   1.541   7.541 -0.1640 -0.0909 -0.7368
  939MOL0     C26669   6.128   1.452   7.619  0.1586  0.2901  0.2232
  939MOL0     C26670   6.218   1.544   7.706 -0.6408  0.6607  1.3924
  939MOL0     C26671   6.299   1.472   7.816  1.4466  0.2488  0.1650
  939MOL0     C26672   6.362   1.334   7.784  0.2525  0.1543 -0.9226
  939MOL0     C26673   6.454   1.304   7.910  1.2349  1.5515  0.2984
  939MOL0     C26674   6.582   1.378   7.937  0.1858 -1.0556  0.2214
  939MOL0    Cl26675   6.696   1.327   7.813  0.0194 -0.1804  0.1968
  939MOL0     C26676   5.909   1.790   7.167  0.5400 -0.1644 -0.5900
  939MOL0     C26677   5.909   1.867   7.048 -1.1174  0.6306  0.7774
  939MOL0     O26678   5.890   2.125   6.915 -0.4231  0.3241  0.2326
  939MOL0     C26679   6.068   2.076   6.615 -0.5302  0.5988 -0.1576
  939MOL0     C26680   6.064   2.101   6.472 -0.2112 -0.1964  0.1586
  939MOL0     N26681   5.865   1.664   6.039  0.9041  1.0075  0.0722
  939MOL0     N26682   5.802   1.593   6.127  0.3935 -0.0729 -0.3294
  939MOL0     C26683   6.808   1.274   6.284  0.3725  0.4501  0.0433
  939MOL0     C26684   6.946   1.276   6.301 -0.4110 -0.4241 -0.0164
  939MOL0     C26685   7.342   1.096   6.407  0.6343 -0.6521 -0.5952
  939MOL0     C26686   7.416   0.996   6.343  0.0545 -0.6530  0.9993
  939MOL0     C26687   7.552   0.978   6.354 -0.9394  0.4410 -0.0504
  939MOL0     C26688   7.632   1.072   6.423 -0.7184  1.2392 -1.0494
  939MOL0     O26689   7.767   1.054   6.446  0.7718 -0.1830  0.3741
  939MOL0     C26690   7.816   0.925   6.496 -0.3470  0.5524  0.0965
  939MOL0     C26691   7.941   0.949   6.573 -0.0914  0.0582  0.2480
  939MOL0     C26692   7.993   0.838   6.667  0.9411 -0.3091  0.0439
  939MOL0     C26693   8.000   0.701   6.611 -0.5295 -0.2792  0.0530
  939MOL0     C26694   8.070   0.713   6.484  0.9466 -0.1664 -0.3926
  939MOL0     C26695   8.140   0.742   6.393 -0.3720 -0.9265  1.0574
  939MOL0     C26696   7.566   1.175   6.490 -0.3197 -0.3528  0.3576
  939MOL0     C26697   7.420   1.187   6.483  0.5352  0.2452 -0.8890
  939MOL0     H26698   6.981   1.171   6.621  2.6109  0.6649 -0.9186
  939MOL0     H26699   6.735   1.164   6.596  1.2260  1.2008  2.3136
  939MOL0     H26700   6.543   1.317   6.190  0.9702 -0.6900 -2.4393
  939MOL0     H26701   6.569   1.146   6.203 -0.3626 -0.5384  0.9243
  939MOL0     H26702   6.354   1.167   6.359 -0.0364 -0.5095  0.2730
  939MOL0     H26703   6.329   1.324   6.289 -1.2294 -1.4650  1.7450
  939MOL0     H26704   6.380   1.162   6.070 -0.8281  2.5399  0.2540
  939MOL0     H26705   6.313   1.032   6.170 -1.3021 -0.6530 -2.4217
  939MOL0     H26706   6.182   1.303   6.079 -0.1938  0.2984 -0.3976
  939MOL0     H26707   6.118   1.156   6.025 -2.6649  2.9368 -0.8523
  939MOL0     H26708   6.072   1.123   6.292  0.3152 -2.3197 -3.6390
  939MOL0     H26709   6.097   1.296   6.299  0.9952 -1.0564  1.1574
  939MOL0     H26710   5.947   1.315   6.082  0.0875  3.1074  2.6475
  939MOL0     H26711   5.898   1.152   6.114  1.3784 -0.1917 -1.2216
  939MOL0     H26712   5.740   1.309   6.232 -0.3072  1.9444  1.5945
  939MOL0     H26713   5.848   1.228   6.352 -1.5101 -0.9034 -0.3641
  939MOL0     H26714   5.954   1.432   6.381 -0.9214 -1.2051  1.3888
  939MOL0     H26715   5.786   1.479   6.369  0.7325  0.5572  1.6575
  939MOL0     H26716   6.119   1.593   6.231  0.4563  1.2941 -1.5176
  939MOL0     H26717   6.186   1.768   6.066  1.6554 -1.9439 -1.3084
  939MOL0     H26718   6.105   1.759   5.917  3.7548 -4.3889  1.2441
  939MOL0     H26719   5.957   1.959   5.973  0.9730  0.0918 -1.0448
  939MOL0     H26720   6.121   1.998   5.994 -2.5130  1.3449 -4.0484
  939MOL0     H26721   6.056   1.920   6.248 -2.6620 -0.3392  1.9445
  939MOL0     H26722   5.889   1.962   6.202 -0.4690  0.7193  1.0261
  939MOL0     H26723   5.993   2.164   6.087 -2.1514  1.1191  0.5613
  939MOL0     H26724   6.131   2.133   6.199 -0.7423 -0.2217  1.5995
  939MOL0     H26725   5.758   2.228   6.436 -0.9875 -0.9494  0.5944
  939MOL0     H26726   5.689   2.127   6.765  1.0049 -0.2782 -0.0609
  939MOL0     H26727   5.757   2.284   6.779 -0.7240  0.2556  0.9252
  939MOL0     H26728   5.650   2.240   6.635 -0.7320 -3.3869 -0.7174
  939MOL0     H26729   6.259   1.874   7.046 -0.2767 -1.7441 -3.8697
  939MOL0     H26730   6.220   1.740   7.253  0.1925  0.0416 -1.4078
  939MOL0     H26731   6.144   1.539   7.379  0.7152 -0.8351  2.0380
  939MOL0     H26732   6.164   1.695   7.459  0.5185 -0.1601 -2.5245
  939MOL0     H26733   5.968   1.604   7.605  1.0884 -0.5018  0.9860
  939MOL0     H26734   5.973   1.474   7.477 -0.2084 -2.3031  1.4527
  939MOL0     H26735   6.183   1.385   7.553 -0.0838 -0.8937  1.1926
  939MOL0     H26736   6.068   1.383   7.678  0.6715  0.0139  0.4262
  939MOL0     H26737   6.280   1.594   7.630 -0.6189 -0.7425  0.4389
  939MOL0     H26738   6.145   1.614   7.749 -0.4505  3.4915 -2.3375
  939MOL0     H26739   6.232   1.462   7.902 -0.0361 -0.3757 -1.0160
  939MOL0     H26740   6.384   1.539   7.832  2.1741  0.4593 -3.6152
  939MOL0     H26741   6.279   1.262   7.787 -0.6224  1.1681  0.1550
  939MOL0     H26742   6.421   1.328   7.692 -0.3879 -0.8623 -1.2913
  939MOL0     H26743   6.472   1.196   7.897 -0.1804  1.3544 -0.1934
  939MOL0     H26744   6.388   1.310   7.997  0.8046  0.7142  0.0460
  939MOL0     H26745   6.608   1.356   8.041  2.6963  2.7988  0.6360
  939MOL0     H26746   6.579   1.488   7.937 -0.7977 -0.9907  3.0937
  939MOL0     H26747   5.814   1.777   7.219  1.1236 -2.1406  0.0699
  939MOL0     H26748   5.815   1.889   6.998 -0.1182 -1.0498 -2.0487
  939MOL0     H26749   6.161   2.036   6.655  0.6284  3.2662  0.0318
  939MOL0     H26750   6.147   2.064   6.413 -0.3805 -4.1135  2.0963
  939MOL0     H26751   6.760   1.309   6.192 -2.8230 -0.2366  1.3347
  939MOL0     H26752   6.998   1.303   6.209  0.0357  1.3564  0.7143
  939MOL0     H26753   7.360   0.920   6.289  0.5802  0.5102 -1.3132
  939MOL0     H26754   7.593   0.887   6.310 -0.6610 -0.2616  1.5799
  939MOL0     H26755   7.742   0.878   6.563  3.6571 -5.3269  1.1309
  939MOL0     H26756   7.840   0.852   6.419  0.9588  3.0178 -1.9915
  939MOL0     H26757   7.901   1.034   6.629  0.3989  1.2130 -1.0697
  939MOL0     H26758   8.023   0.995   6.516 -0.8828  1.5201  0.2381
  939MOL0     H26759   7.937   0.844   6.761  1.7001  2.7288  0.4144
  939MOL0     H26760   8.099   0.861   6.681  1.2305 -1.2014 -0.6256
  939MOL0     H26761   7.898   0.662   6.600 -0.4261 -1.0680  1.6412
  939MOL0     H26762   8.054   0.634   6.678  1.3523  0.3494 -0.7578
  939MOL0     H26763   8.196   0.779   6.309  0.7655 -1.7222  1.4427
  939MOL0     H26764   7.622   1.246   6.550 -0.6175  0.8686 -0.7742
  939MOL0     H26765   7.382   1.272   6.538 -1.9155 -0.7366 -0.9746
  940MOL0     O26766   7.867   4.184   9.538  0.0882  0.5472 -0.3173
  940MOL0     C26767   7.867   4.267   9.633 -0.8322  0.2317 -0.1262
  940MOL0     O26768   7.750   4.312   9.700 -0.4497 -0.9852 -0.5247
  940MOL0     C26769   7.632   4.308   9.630  0.2313 -0.0461 -0.0407
  940MOL0     C26770   7.542   4.419   9.632 -0.3218  0.1855 -0.2622
  940MOL0     C26771   7.416   4.417   9.577  0.0137 -1.2708  0.0177
  940MOL0     C26772   7.372   4.306   9.506 -0.2583  0.0925 -0.7965
  940MOL0     O26773   7.270   4.307   9.419 -0.3188  1.0277 -0.3743
  940MOL0     C26774   7.144   4.309   9.480 -0.0706 -0.8652 -0.0729
  940MOL0     C26775   7.035   4.324   9.368  0.2023  0.3468  0.5504
  940MOL0     C26776   6.887   4.307   9.417 -0.6435  0.3677 -0.6205
  940MOL0     C26777   6.790   4.324   9.302  0.0722 -0.7510  0.3325
  940MOL0     C26778   6.657   4.251   9.329 -0.1220  0.3054  0.1497
  940MOL0     C26779   6.583   4.272   9.464  0.3242  0.2844 -0.1870
  940MOL0     C26780   6.438   4.210   9.474 -0.5687 -0.2414  0.2385
  940MOL0     C26781   6.431   4.054   9.479 -0.8373  0.0387 -0.0936
  940MOL0     N26782   6.293   4.011   9.492  0.6639 -0.0381 -0.1376
  940MOL0     C26783   6.181   4.090   9.463  0.7361 -0.6837 -0.9445
  940MOL0     C26784   6.080   3.999   9.488 -0.0178 -0.3616 -0.5681
  940MOL0     C26785   5.931   4.025   9.495  0.6901  0.2526 -0.3723
  940MOL0     C26786   5.847   3.919   9.421 -0.0199 -0.3406 -0.1083
  940MOL0     C26787   5.706   3.956   9.411  0.2145  0.4605 -0.1310
  940MOL0     C26788   5.621   3.983   9.538 -0.4073  0.2074 -0.2371
  940MOL0     O26789   5.487   4.005   9.509 -0.7743 -0.1485 -0.0239
  940MOL0     C26790   5.394   3.912   9.499 -0.0121 -0.0896 -0.1605
  940MOL0     C26791   5.414   3.775   9.495  0.3180 -0.3362  0.1010
  940MOL0     C26792   5.312   3.687   9.477  0.3603 -0.3038  0.4099
  940MOL0     C26793   5.336   3.537   9.454 -0.3498 -0.3688 -0.5482
  940MOL0     C26794   5.177   3.729   9.475 -0.6157 -0.2446 -0.3365
  940MOL0     C26795   5.056   3.641   9.467  1.2870 -0.1019 -0.5678
  940MOL0     O26796   4.934   3.721   9.483 -1.0068 -0.0023 -0.0655
  940MOL0     C26797   4.811   3.662   9.480  1.6907  0.5072  0.2748
  940MOL0     C26798   4.771   3.548   9.394  0.1399  0.1190 -0.2362
  940MOL0     C26799   4.631   3.517   9.382 -0.0444 -0.4027 -0.2096
  940MOL0     C26800   4.533   3.591   9.449  0.2893 -0.5579  0.4549
  940MOL0     O26801   4.403   3.569   9.419 -0.2620 -0.8301  1.0092
  940MOL0     C26802   4.313   3.679   9.427  0.7895 -0.7147  0.8815
  940MOL0     C26803   4.175   3.642   9.382  0.2987  0.5712  0.4244
  940MOL0     C26804   4.109   3.529   9.472 -0.1437  0.1992 -0.9451
  940MOL0     C26805   3.979   3.484   9.417  0.4657 -0.2982  0.0017
  940MOL0     C26806   3.960   3.331   9.451 -0.2205  0.1185 -0.1425
  940MOL0     C26807   4.046   3.234   9.361 -0.6617  0.6682  0.0444
  940MOL0     C26808   3.999   3.083   9.373 -0.1823 -0.6543  0.3318
  940MOL0     C26809   3.870   3.052   9.301 -1.3994 -0.4040  0.4796
  940MOL0    Cl26810   3.840   2.875   9.326 -0.3348  0.2846  0.3094
  940MOL0     C26811   4.572   3.696   9.539 -0.0756  0.4666  0.0872
  940MOL0     C26812   4.705   3.729   9.553 -0.1125 -0.4125  0.7294
  940MOL0     O26813   5.057   3.518   9.460  0.8768  0.2593 -0.5974
  940MOL0     C26814   5.156   3.867   9.504  0.0872  0.0747 -0.2508
  940MOL0     C26815   5.260   3.960   9.502  0.9543 -0.0002  0.7700
  940MOL0     N26816   6.138   3.887   9.541  0.2770 -0.1962  0.2516
  940MOL0     N26817   6.260   3.890   9.536 -0.0935 -0.2631  0.3008
  940MOL0     C26818   7.454   4.195   9.503 -0.5901  0.9564 -0.6752
  940MOL0     C26819   7.579   4.191   9.569  0.4104 -0.2782  0.1527
  940MOL0     C26820   8.003   4.281   9.710  0.2471 -0.1657 -0.4440
  940MOL0     C26821   8.117   4.216   9.666 -0.1396  0.0340  0.6418
  940MOL0     C26822   8.239   4.230   9.738 -0.4691 -0.0809 -0.3697
  940MOL0     C26823   8.256   4.304   9.851 -0.5280 -0.3671  0.8163
  940MOL0     O26824   8.370   4.305   9.918  0.0669  0.1959 -0.0649
  940MOL0     C26825   8.388   4.397  10.034  0.5711  0.3086  1.1581
  940MOL0     C26826   8.534   4.441  10.052 -0.1585  0.1841  0.2283
  940MOL0     C26827   8.528   4.535  10.178 -0.4008 -0.1507 -0.3838
  940MOL0     C26828   8.651   4.623  10.202  0.1476  0.3115 -0.3239
  940MOL0     C26829   8.766   4.542  10.249  0.2117  0.6609 -0.3202
  940MOL0     C26830   8.854   4.469  10.287  0.6821  0.4704 -0.2835
  940MOL0     C26831   8.139   4.367   9.899 -0.6675 -0.0950  0.2251
  940MOL0     C26832   8.025   4.356   9.833  0.4766 -0.3711 -0.3549
  940MOL0     H26833   7.590   4.509   9.670 -1.4565  1.4943 -1.7858
  940MOL0     H26834   7.351   4.504   9.573 -0.0775 -1.3642 -0.6603
  940MOL0     H26835   7.118   4.216   9.532 -0.4096 -2.0367 -2.2295
  940MOL0     H26836   7.144   4.391   9.552 -1.5746  0.0156 -1.0383
  940MOL0     H26837   7.045   4.423   9.322 -0.5210 -0.5933 -1.7393
  940MOL0     H26838   7.057   4.254   9.288 -2.4106 -0.8217  0.7668
  940MOL0     H26839   6.873   4.203   9.448  0.4124 -0.2772 -2.1855
  940MOL0     H26840   6.858   4.379   9.494 -0.5580 -1.3367  1.0827
  940MOL0     H26841   6.769   4.431   9.300  0.6405 -0.6311 -2.5851
  940MOL0     H26842   6.834   4.294   9.207  2.2777  0.5690  0.8609
  940MOL0     H26843   6.602   4.274   9.237  1.7895 -1.5037 -1.5304
  940MOL0     H26844   6.685   4.146   9.318 -1.0387 -0.4773  3.9312
  940MOL0     H26845   6.659   4.245   9.538  2.1473  0.7674 -1.8051
  940MOL0     H26846   6.568   4.380   9.471 -1.4881  0.2777 -2.5688
  940MOL0     H26847   6.379   4.259   9.552  0.3732  0.5946  0.4493
  940MOL0     H26848   6.395   4.232   9.375 -1.0125 -1.1882  0.2145
  940MOL0     H26849   6.492   4.016   9.561 -0.3690 -5.2544 -2.4708
  940MOL0     H26850   6.470   3.994   9.396  0.6051 -0.1955  0.7317
  940MOL0     H26851   6.165   4.195   9.443 -0.3357 -0.2834  1.6047
  940MOL0     H26852   5.896   4.027   9.599 -0.1659  0.0837 -0.6514
  940MOL0     H26853   5.905   4.123   9.454  3.3637 -0.1278 -3.4217
  940MOL0     H26854   5.863   3.823   9.471  1.6389 -0.3347 -0.5745
  940MOL0     H26855   5.884   3.912   9.318  1.2159 -0.6703  0.3475
  940MOL0     H26856   5.643   3.880   9.362  0.4652  0.1324  0.0501
  940MOL0     H26857   5.690   4.042   9.345 -1.9609  1.2596  1.3347
  940MOL0     H26858   5.660   4.079   9.572  1.8109 -0.6062 -0.2935
  940MOL0     H26859   5.627   3.908   9.618 -0.5348  0.4549  0.0066
  940MOL0     H26860   5.519   3.748   9.491  0.2707 -0.9593  1.9696
  940MOL0     H26861   5.444   3.531   9.444 -0.0527 -1.2428  2.2673
  940MOL0     H26862   5.304   3.470   9.534  0.3052 -0.5604 -0.4421
  940MOL0     H26863   5.291   3.503   9.360 -0.3485 -1.7831 -0.0560
  940MOL0     H26864   4.837   3.481   9.341 -0.2434 -0.4289 -0.0304
  940MOL0     H26865   4.594   3.437   9.320 -0.3703  0.5783 -1.3147
  940MOL0     H26866   4.307   3.706   9.533 -0.1651  0.7237  0.4865
  940MOL0     H26867   4.336   3.771   9.372  1.9859  0.0188  2.5170
  940MOL0     H26868   4.111   3.731   9.383 -1.5980 -0.6333  3.4426
  940MOL0     H26869   4.188   3.599   9.282  1.6259  0.8794  0.4503
  940MOL0     H26870   4.085   3.573   9.570  0.7897 -1.3444  0.0077
  940MOL0     H26871   4.187   3.454   9.478  1.8640  2.2358 -0.0173
  940MOL0     H26872   3.900   3.552   9.451  0.1212 -0.6210 -0.1432
  940MOL0     H26873   3.973   3.483   9.308  0.7508 -2.2574 -0.0299
  940MOL0     H26874   3.855   3.302   9.461  0.2934 -1.3195  1.5196
  940MOL0     H26875   3.995   3.314   9.553  0.5971 -2.1299 -0.7346
  940MOL0     H26876   4.026   3.268   9.259 -3.4889 -1.0807 -0.1100
  940MOL0     H26877   4.150   3.233   9.395 -0.3754 -3.1135 -0.5089
  940MOL0     H26878   3.986   3.066   9.480  2.7398  1.1082  1.0523
  940MOL0     H26879   4.080   3.022   9.332  0.1827 -0.0894  0.2105
  940MOL0     H26880   3.867   3.077   9.195 -3.2861 -2.2104  0.0332
  940MOL0     H26881   3.790   3.108   9.350 -0.0808  1.6167  0.4445
  940MOL0     H26882   4.506   3.764   9.592  1.2220  3.4484 -1.8376
  940MOL0     H26883   4.727   3.818   9.612  2.4870  0.8902 -1.9342
  940MOL0     H26884   5.058   3.912   9.514 -0.9609 -2.4464  2.0732
  940MOL0     H26885   5.249   4.068   9.497 -1.2584 -0.2010  0.6205
  940MOL0     H26886   7.403   4.114   9.451 -1.0546  0.2242  0.8541
  940MOL0     H26887   7.632   4.096   9.571  0.4061 -0.2846  2.0338
  940MOL0     H26888   8.125   4.156   9.576  3.5353  0.0208  0.7976
  940MOL0     H26889   8.335   4.186   9.711 -0.5163 -0.2158 -0.3211
  940MOL0     H26890   8.324   4.486  10.027  1.3204  0.7735 -0.2521
  940MOL0     H26891   8.342   4.339  10.115 -1.0296  0.9012  0.7054
  940MOL0     H26892   8.559   4.480   9.953 -0.4089 -0.9035 -0.2735
  940MOL0     H26893   8.586   4.346  10.065 -0.9052 -0.3554 -0.5866
  940MOL0     H26894   8.521   4.474  10.268  2.8972 -0.6714 -0.3510
  940MOL0     H26895   8.447   4.607  10.164  1.6271  3.0632  2.6286
  940MOL0     H26896   8.617   4.706  10.264 -0.3170  0.5221 -0.8510
  940MOL0     H26897   8.681   4.672  10.109  2.3622  1.3738  0.8665
  940MOL0     H26898   8.949   4.422  10.307  1.9519  2.9582 -0.0715
  940MOL0     H26899   8.136   4.413   9.998 -0.2182  1.6078 -0.5154
  940MOL0     H26900   7.944   4.409   9.882  2.7161  0.4778  2.6853
  941MOL0     O26901   1.699   1.740   5.861 -0.1477 -0.8397  0.3104
  941MOL0     C26902   1.641   1.729   5.963  0.4600 -0.5836 -0.3437
  941MOL0     O26903   1.505   1.725   5.978 -0.1481  0.4291 -0.1540
  941MOL0     C26904   1.418   1.775   5.882  0.3031  0.0784 -0.4862
  941MOL0     C26905   1.434   1.902   5.826  0.3235 -0.0694  0.1925
  941MOL0     C26906   1.349   1.952   5.725 -0.8790 -0.5332 -0.5129
  941MOL0     C26907   1.232   1.882   5.688  0.4799 -0.2546 -0.2983
  941MOL0     O26908   1.138   1.925   5.596 -0.7350 -0.2009  0.5726
  941MOL0     C26909   1.202   1.974   5.471  0.3066  0.8819  0.4305
  941MOL0     C26910   1.108   1.940   5.352 -0.1175 -0.0083  0.5651
  941MOL0     C26911   1.188   1.940   5.221 -0.1792  0.5582  0.6234
  941MOL0     C26912   1.099   1.964   5.094  0.7822  0.2946 -0.1063
  941MOL0     C26913   1.166   1.916   4.971 -0.4965 -0.5468  0.2445
  941MOL0     C26914   1.320   1.945   4.958  0.2321  0.5453 -0.1018
  941MOL0     C26915   1.371   1.957   4.820 -1.2306  0.0344 -0.0046
  941MOL0     C26916   1.519   2.006   4.836 -0.0788  0.8963 -0.0765
  941MOL0     N26917   1.605   1.933   4.928 -0.3136  0.1775  0.7258
  941MOL0     C26918   1.607   1.939   5.066 -0.1654  0.0188  1.3659
  941MOL0     C26919   1.666   1.819   5.101  0.3623 -0.7273  0.4405
  941MOL0     C26920   1.704   1.766   5.235 -0.6431 -0.8336  0.0693
  941MOL0     C26921   1.572   1.747   5.318  0.5379 -0.8038 -0.3732
  941MOL0     C26922   1.612   1.688   5.455 -0.0378 -0.1984 -0.3206
  941MOL0     C26923   1.708   1.775   5.532  1.1508 -1.4039 -0.8404
  941MOL0     O26924   1.632   1.895   5.563  0.1395 -0.0129 -0.3474
  941MOL0     C26925   1.691   2.006   5.620 -0.8920 -0.0467  0.5209
  941MOL0     C26926   1.800   2.014   5.704 -0.8112  0.0197  0.8565
  941MOL0     C26927   1.877   2.134   5.720  0.4909 -0.1330 -0.4505
  941MOL0     C26928   2.011   2.126   5.778  0.5753 -0.5392 -1.1868
  941MOL0     C26929   1.830   2.257   5.675  0.7647  0.7681  0.4268
  941MOL0     C26930   1.896   2.386   5.678 -0.8178  1.0697 -0.7452
  941MOL0     O26931   1.930   2.422   5.548 -0.1459 -0.3331  0.2992
  941MOL0     C26932   2.013   2.540   5.542 -0.1303  0.4024 -1.0595
  941MOL0     C26933   1.970   2.656   5.485  0.4525  0.1584 -0.1525
  941MOL0     C26934   2.052   2.772   5.470 -0.5544  0.2752 -0.2629
  941MOL0     C26935   2.181   2.770   5.526 -0.5628  0.3407 -0.2466
  941MOL0     O26936   2.257   2.879   5.553 -0.3099  0.4726 -0.6527
  941MOL0     C26937   2.205   2.963   5.658  0.0671 -0.3941  0.7175
  941MOL0     C26938   2.313   3.029   5.741  1.1772  0.2249  0.6794
  941MOL0     C26939   2.397   2.930   5.824  0.7691  1.3031  0.3125
  941MOL0     C26940   2.509   2.996   5.887  0.0679 -0.4859 -0.7242
  941MOL0     C26941   2.594   2.912   5.985  0.6295  0.2056  0.2088
  941MOL0     C26942   2.663   2.987   6.093 -0.6188 -0.5060  0.6498
  941MOL0     C26943   2.769   2.901   6.156 -0.5826 -0.4371 -1.3468
  941MOL0     C26944   2.839   2.991   6.258 -0.4380 -0.1262  0.2761
  941MOL0    Cl26945   2.744   3.044   6.380 -0.2061  0.1287  0.7348
  941MOL0     C26946   2.230   2.649   5.583  0.7158  1.5691  0.4852
  941MOL0     C26947   2.150   2.531   5.589  0.1694 -0.6745  0.2881
  941MOL0     O26948   1.927   2.449   5.780  0.0976  0.4464 -0.7599
  941MOL0     C26949   1.704   2.246   5.602 -0.5322 -0.5284 -0.6219
  941MOL0     C26950   1.637   2.129   5.571  0.3835  0.2469 -0.0946
  941MOL0     N26951   1.706   1.753   4.985 -0.0597  0.1666  0.6290
  941MOL0     N26952   1.669   1.822   4.882 -0.2598  1.0736 -0.4859
  941MOL0     C26953   1.210   1.756   5.759  0.2300 -0.9734  0.4344
  941MOL0     C26954   1.299   1.708   5.856  0.4116 -0.3654  0.7289
  941MOL0     C26955   1.716   1.682   6.085  0.1110  0.5178  0.5422
  941MOL0     C26956   1.853   1.708   6.090  0.5263 -0.0095  0.0071
  941MOL0     C26957   1.930   1.660   6.192 -0.7733  0.5898  0.5315
  941MOL0     C26958   1.873   1.601   6.303  0.0165 -0.4131 -0.4751
  941MOL0     O26959   1.965   1.562   6.402  0.2209 -0.2784  0.7453
  941MOL0     C26960   1.916   1.471   6.498 -0.5892  0.4397 -0.2823
  941MOL0     C26961   2.025   1.462   6.608  0.8576 -0.6579  0.7015
  941MOL0     C26962   2.007   1.328   6.686 -0.2327  0.2150 -0.6055
  941MOL0     C26963   2.060   1.351   6.836  0.3780  0.7620  0.1682
  941MOL0     C26964   2.211   1.375   6.843  0.0060  0.2985 -0.2896
  941MOL0     C26965   2.327   1.410   6.843  0.8848  0.3078 -0.4698
  941MOL0     C26966   1.736   1.581   6.305  0.1378  0.5769  0.7722
  941MOL0     C26967   1.660   1.619   6.198 -0.3434 -0.4639  0.1521
  941MOL0     H26968   1.516   1.965   5.858  1.5378 -0.6791 -1.5401
  941MOL0     H26969   1.372   2.045   5.675 -0.1745 -1.2517 -1.5793
  941MOL0     H26970   1.216   2.082   5.477 -0.8706  1.1068 -0.4769
  941MOL0     H26971   1.296   1.923   5.453 -0.9761 -1.0145 -1.3169
  941MOL0     H26972   1.048   1.849   5.366 -1.3477  0.9676  1.9916
  941MOL0     H26973   1.019   2.002   5.337 -1.0960 -1.3964  0.3758
  941MOL0     H26974   1.270   2.013   5.219 -1.5208  2.1363  0.1632
  941MOL0     H26975   1.238   1.843   5.214  1.7638  1.5113  0.3997
  941MOL0     H26976   1.010   1.904   5.112  0.7963  0.6651  1.3882
  941MOL0     H26977   1.074   2.070   5.095  4.6817  1.4400  2.4481
  941MOL0     H26978   1.158   1.807   4.963  0.3076 -0.6465  0.6478
  941MOL0     H26979   1.118   1.962   4.884  2.8234  1.4961 -0.6890
  941MOL0     H26980   1.344   2.032   5.019  0.3226 -0.2227  0.9849
  941MOL0     H26981   1.370   1.868   5.016  2.2762  2.9447  1.5375
  941MOL0     H26982   1.379   1.866   4.760 -2.3144  0.3818 -0.7062
  941MOL0     H26983   1.320   2.028   4.754  0.1234  0.2967 -0.8251
  941MOL0     H26984   1.518   2.105   4.882  2.7416  1.5186 -1.1607
  941MOL0     H26985   1.564   2.007   4.737 -3.0525  0.6928 -1.5497
  941MOL0     H26986   1.558   2.018   5.123 -0.8637 -0.1900  1.0694
  941MOL0     H26987   1.763   1.675   5.217 -0.8503 -0.7547 -1.0700
  941MOL0     H26988   1.779   1.836   5.273  2.0801 -2.1637 -2.3675
  941MOL0     H26989   1.506   1.670   5.277 -1.9548  0.8216  0.3615
  941MOL0     H26990   1.517   1.842   5.322  4.5310  1.7369  0.2711
  941MOL0     H26991   1.668   1.594   5.451  2.2296  0.9252  1.7678
  941MOL0     H26992   1.526   1.663   5.518  0.5339 -2.6185 -0.4186
  941MOL0     H26993   1.805   1.792   5.486  0.9142 -1.0336 -1.2121
  941MOL0     H26994   1.724   1.726   5.629  2.7401  1.4450  0.4832
  941MOL0     H26995   1.840   1.920   5.740 -0.6339  0.4050  1.6859
  941MOL0     H26996   2.015   2.128   5.887 -1.8866  2.0661 -1.0351
  941MOL0     H26997   2.037   2.021   5.759 -2.1990 -1.4904 -0.3333
  941MOL0     H26998   2.084   2.200   5.744 -0.4137  0.2422 -1.6623
  941MOL0     H26999   1.865   2.666   5.463  0.1418 -0.2452  1.0541
  941MOL0     H27000   2.014   2.869   5.440 -2.9283  0.5246  3.0229
  941MOL0     H27001   2.135   3.033   5.611 -0.3993 -1.9227 -0.9890
  941MOL0     H27002   2.160   2.891   5.726  1.0777 -0.4455  1.3489
  941MOL0     H27003   2.379   3.079   5.669 -1.6229  1.0226 -1.4737
  941MOL0     H27004   2.263   3.099   5.808  0.3793 -1.7879  2.2916
  941MOL0     H27005   2.437   2.865   5.746 -4.4701 -3.3285  0.8528
  941MOL0     H27006   2.320   2.880   5.882  0.0953 -1.0063 -2.3663
  941MOL0     H27007   2.578   3.046   5.819  1.5590 -0.0481  1.0249
  941MOL0     H27008   2.473   3.081   5.946  0.8740  0.0565 -0.9874
  941MOL0     H27009   2.678   2.873   5.926  0.4936  0.6123 -0.2629
  941MOL0     H27010   2.542   2.824   6.023  1.5354  0.4442  2.0739
  941MOL0     H27011   2.717   3.067   6.041  0.5993 -1.0861  0.9775
  941MOL0     H27012   2.605   3.038   6.170  4.4588  0.0705  4.5747
  941MOL0     H27013   2.847   2.871   6.086 -2.3258  0.2078 -3.6750
  941MOL0     H27014   2.731   2.810   6.204 -1.3226  1.2856  1.5539
  941MOL0     H27015   2.883   3.080   6.212  2.8110 -2.0379 -0.6661
  941MOL0     H27016   2.924   2.935   6.297  0.8925 -0.1157 -2.3819
  941MOL0     H27017   2.328   2.646   5.630  1.0910 -1.9614 -0.2376
  941MOL0     H27018   2.170   2.448   5.656  0.8004  0.4628  1.5408
  941MOL0     H27019   1.669   2.343   5.568  2.5810  0.6906 -0.6584
  941MOL0     H27020   1.558   2.122   5.497  1.5037 -1.8974 -1.1949
  941MOL0     H27021   1.112   1.716   5.737  0.2208 -1.2616  0.9981
  941MOL0     H27022   1.270   1.619   5.911  0.0911  0.1289  1.3753
  941MOL0     H27023   1.910   1.770   6.022  3.0759 -1.3201  0.8110
  941MOL0     H27024   2.034   1.692   6.192  0.1830 -1.9205 -2.8146
  941MOL0     H27025   1.831   1.515   6.552 -1.6067  0.2966 -1.6911
  941MOL0     H27026   1.884   1.376   6.454 -0.2833  0.5752 -0.8086
  941MOL0     H27027   2.015   1.548   6.675 -0.9182 -0.1205 -0.1931
  941MOL0     H27028   2.123   1.460   6.559  0.9413 -3.0072  0.8337
  941MOL0     H27029   2.061   1.241   6.647  1.5953 -0.0507  2.2418
  941MOL0     H27030   1.903   1.297   6.672  0.2918 -0.7747 -2.7693
  941MOL0     H27031   2.029   1.266   6.898 -0.6288  1.7277  1.0277
  941MOL0     H27032   1.998   1.430   6.879 -0.9222 -0.3763  0.4553
  941MOL0     H27033   2.431   1.438   6.846  1.5413 -1.8918 -0.6859
  941MOL0     H27034   1.676   1.537   6.384 -1.7458  0.2245 -0.7677
  941MOL0     H27035   1.554   1.600   6.181 -0.3034  1.2636 -2.5958
  942MOL0     O27036   8.095   6.890   7.133 -0.1088  0.1506 -0.2451
  942MOL0     C27037   8.169   6.830   7.199  0.2909  0.3964 -0.5731
  942MOL0     O27038   8.141   6.764   7.313  0.1384 -0.0043 -0.0626
  942MOL0     C27039   8.012   6.754   7.368  0.2213  0.0758  0.2099
  942MOL0     C27040   8.005   6.716   7.495  0.7661 -1.1627 -1.0517
  942MOL0     C27041   7.882   6.711   7.566 -0.1704 -0.0745  1.2069
  942MOL0     C27042   7.758   6.727   7.497  0.1325 -0.1470  0.1837
  942MOL0     O27043   7.637   6.715   7.558  0.8292 -0.1987 -0.3879
  942MOL0     C27044   7.620   6.732   7.697 -0.0356 -0.8223  0.2308
  942MOL0     C27045   7.484   6.711   7.744 -0.2774  0.7304  0.0198
  942MOL0     C27046   7.386   6.825   7.721 -0.5478 -0.6679 -0.3361
  942MOL0     C27047   7.303   6.801   7.591  0.3847  0.4392 -0.1405
  942MOL0     C27048   7.209   6.924   7.552  0.4992  1.0879  0.4344
  942MOL0     C27049   7.098   6.957   7.644  0.9595  0.3196 -0.2791
  942MOL0     C27050   6.983   6.853   7.634 -0.1231 -0.8384  0.1296
  942MOL0     C27051   6.856   6.902   7.571 -0.9903  0.0744 -0.3548
  942MOL0     N27052   6.762   6.791   7.560  0.1738  0.5242  0.1425
  942MOL0     C27053   6.698   6.727   7.659  0.4464  0.1599 -0.9736
  942MOL0     C27054   6.616   6.638   7.601 -0.1136  0.8087 -0.2337
  942MOL0     C27055   6.520   6.538   7.670  0.3935 -0.0573 -0.1171
  942MOL0     C27056   6.377   6.590   7.688 -0.2008 -0.5192  0.9281
  942MOL0     C27057   6.277   6.563   7.583 -0.1476  0.0759  0.4004
  942MOL0     C27058   6.140   6.577   7.639  0.1665 -0.3703 -0.8725
  942MOL0     O27059   6.030   6.537   7.550 -0.7166 -1.1376  0.2624
  942MOL0     C27060   5.901   6.507   7.595 -0.3158 -0.5166 -0.9705
  942MOL0     C27061   5.844   6.547   7.719  0.1805  0.7322 -0.1716
  942MOL0     C27062   5.717   6.507   7.753  0.0732 -0.5693  0.3421
  942MOL0     C27063   5.678   6.513   7.900  0.1636 -0.2402 -0.4168
  942MOL0     C27064   5.630   6.446   7.657  0.2806 -0.2478 -1.1714
  942MOL0     C27065   5.489   6.397   7.672 -0.0162  0.1641 -0.1194
  942MOL0     O27066   5.449   6.278   7.614 -0.1552 -0.1754 -0.1345
  942MOL0     C27067   5.318   6.237   7.613 -1.3107  0.2830  1.1973
  942MOL0     C27068   5.297   6.098   7.633 -0.9670 -0.6124 -0.2095
  942MOL0     C27069   5.170   6.057   7.616 -0.2662  0.2836 -0.6036
  942MOL0     C27070   5.059   6.134   7.599  0.2688  0.7192  0.4170
  942MOL0     O27071   4.933   6.083   7.595  0.6367 -0.1108 -0.1011
  942MOL0     C27072   4.873   6.076   7.458  0.7961  0.4586  0.2835
  942MOL0     C27073   4.747   5.996   7.465 -0.0706 -0.1237  1.1794
  942MOL0     C27074   4.633   6.076   7.545 -0.4550 -0.6971  0.2182
  942MOL0     C27075   4.500   6.002   7.561  0.2357  0.1690 -0.2972
  942MOL0     C27076   4.473   5.881   7.465 -0.8056 -0.8356 -0.4275
  942MOL0     C27077   4.336   5.826   7.506 -0.1738  0.8933  0.4671
  942MOL0     C27078   4.252   5.754   7.397 -0.5967 -0.0502  0.3297
  942MOL0     C27079   4.308   5.611   7.357  0.5522  0.2821 -0.5436
  942MOL0    Cl27080   4.242   5.564   7.202 -0.1867  0.4604 -0.1753
  942MOL0     C27081   5.088   6.268   7.578 -0.6615 -0.2155  0.4071
  942MOL0     C27082   5.216   6.321   7.599  0.0142 -0.4765  0.6342
  942MOL0     O27083   5.413   6.479   7.723  0.2341  0.2909 -0.4358
  942MOL0     C27084   5.684   6.411   7.529  0.0518 -0.5942 -0.9095
  942MOL0     C27085   5.815   6.449   7.500  0.0825 -0.5677  0.1248
  942MOL0     N27086   6.630   6.658   7.461 -0.5914  0.1512  0.3194
  942MOL0     N27087   6.720   6.742   7.441  0.6575  0.3372  0.2833
  942MOL0     C27088   7.763   6.771   7.362 -0.3122 -0.4590 -0.3740
  942MOL0     C27089   7.889   6.775   7.298  0.4838  0.1422 -0.2685
  942MOL0     C27090   8.312   6.819   7.154 -0.3492  0.2010 -0.3525
  942MOL0     C27091   8.348   6.856   7.022  0.0712 -0.2903 -0.5324
  942MOL0     C27092   8.479   6.845   6.967 -1.0955 -0.0015 -0.3399
  942MOL0     C27093   8.574   6.774   7.047 -0.1841 -0.5374 -0.0569
  942MOL0     O27094   8.704   6.754   6.998  0.4962  0.9437 -0.2344
  942MOL0     C27095   8.761   6.846   6.907 -0.3754 -0.2927  0.2824
  942MOL0     C27096   8.791   6.788   6.776  1.0520  0.7327  0.5689
  942MOL0     C27097   8.937   6.823   6.726  0.3332  0.9442 -0.0906
  942MOL0     C27098   8.970   6.776   6.581 -0.8332 -0.2054  0.8249
  942MOL0     C27099   8.939   6.635   6.540 -0.2664 -0.5970  0.1132
  942MOL0     C27100   8.916   6.520   6.513 -0.4183  0.7011 -0.1771
  942MOL0     C27101   8.540   6.740   7.179 -0.8407 -0.2757  0.1702
  942MOL0     C27102   8.414   6.760   7.235  0.2845 -0.2132  0.4692
  942MOL0     H27103   8.099   6.698   7.545  0.3158  4.1408  2.5457
  942MOL0     H27104   7.883   6.671   7.667 -0.3470 -3.7239 -0.0771
  942MOL0     H27105   7.685   6.659   7.748 -0.7198 -2.0034 -0.5328
  942MOL0     H27106   7.649   6.832   7.731 -3.3040 -0.3014  1.9124
  942MOL0     H27107   7.442   6.628   7.687  0.7214  0.2463 -0.0393
  942MOL0     H27108   7.486   6.687   7.851  1.3440  2.0295  0.3308
  942MOL0     H27109   7.322   6.830   7.809  0.2874 -0.5244  0.2743
  942MOL0     H27110   7.446   6.917   7.721  0.2536 -1.1476  1.7570
  942MOL0     H27111   7.366   6.788   7.503  2.3546  0.4851  1.2188
  942MOL0     H27112   7.247   6.707   7.599  0.7575  0.1328 -0.9845
  942MOL0     H27113   7.269   7.015   7.547  0.0951  1.4399  1.6816
  942MOL0     H27114   7.179   6.907   7.448  4.2738 -0.0978 -0.6437
  942MOL0     H27115   7.138   6.939   7.744 -0.9225 -1.0630  0.2576
  942MOL0     H27116   7.059   7.059   7.635  1.0257  0.1836 -3.3689
  942MOL0     H27117   7.019   6.768   7.576  2.6475 -0.7864  1.5878
  942MOL0     H27118   6.954   6.826   7.736 -1.6050 -0.2391 -0.1050
  942MOL0     H27119   6.878   6.940   7.471  1.1403 -1.5244 -0.5610
  942MOL0     H27120   6.827   6.984   7.638  1.5346 -0.6171  1.7468
  942MOL0     H27121   6.706   6.743   7.766  0.0307  3.3947 -1.3462
  942MOL0     H27122   6.518   6.452   7.603  1.0539  1.3472 -2.0257
  942MOL0     H27123   6.567   6.503   7.763  1.3180  0.1404 -0.5006
  942MOL0     H27124   6.399   6.696   7.703 -0.3261 -0.7072  2.5774
  942MOL0     H27125   6.349   6.539   7.781 -0.7254  0.5454  1.3711
  942MOL0     H27126   6.296   6.458   7.559 -0.8764  0.6541 -3.4454
  942MOL0     H27127   6.299   6.626   7.496  1.8350 -1.7850 -0.5561
  942MOL0     H27128   6.138   6.680   7.677  0.9772 -1.1089  1.3383
  942MOL0     H27129   6.135   6.520   7.733  1.5450  0.7729 -0.0638
  942MOL0     H27130   5.899   6.596   7.798  1.1246 -0.7884  0.1514
  942MOL0     H27131   5.581   6.467   7.918  0.0724  0.4394  0.9286
  942MOL0     H27132   5.747   6.463   7.969  0.4584 -1.0779 -1.2929
  942MOL0     H27133   5.668   6.618   7.927 -1.3484  0.0299 -1.8754
  942MOL0     H27134   5.379   6.033   7.664 -0.6428 -0.4230 -0.6669
  942MOL0     H27135   5.153   5.950   7.618  2.0942 -0.1625 -1.4891
  942MOL0     H27136   4.856   6.175   7.415  2.1273  0.1813 -0.9608
  942MOL0     H27137   4.936   6.023   7.386 -1.2661 -1.3114 -0.3384
  942MOL0     H27138   4.715   5.971   7.363 -0.7595  1.0919  1.0727
  942MOL0     H27139   4.770   5.901   7.514  2.2364 -0.3830 -0.3007
  942MOL0     H27140   4.603   6.169   7.495  2.4522  1.1988  1.6720
  942MOL0     H27141   4.668   6.113   7.642  1.3917 -0.2180 -0.5679
  942MOL0     H27142   4.505   5.955   7.659 -0.9906  1.7342  0.5718
  942MOL0     H27143   4.416   6.072   7.561 -0.2858 -0.4544 -0.2411
  942MOL0     H27144   4.543   5.801   7.488 -1.4170 -0.9521  1.1457
  942MOL0     H27145   4.474   5.910   7.359  3.6673 -4.1207 -1.6014
  942MOL0     H27146   4.358   5.764   7.593 -0.3806  0.3738  0.1492
  942MOL0     H27147   4.279   5.916   7.532  0.5501  1.7922 -0.8734
  942MOL0     H27148   4.245   5.813   7.305 -0.0824 -0.0382  0.2944
  942MOL0     H27149   4.147   5.741   7.423 -1.2625  2.0738 -1.0693
  942MOL0     H27150   4.294   5.537   7.435 -1.3893 -1.1108 -2.1105
  942MOL0     H27151   4.415   5.615   7.336  0.6541 -2.7469 -0.9614
  942MOL0     H27152   5.009   6.339   7.556 -1.2969 -0.1714  2.5992
  942MOL0     H27153   5.235   6.422   7.566 -0.2028 -1.0790 -1.4888
  942MOL0     H27154   5.625   6.366   7.449  0.3786 -1.5586 -0.6288
  942MOL0     H27155   5.853   6.411   7.405  1.1102 -1.2667  0.8038
  942MOL0     H27156   7.677   6.789   7.300  1.1967  1.8142 -1.9819
  942MOL0     H27157   7.881   6.800   7.192 -0.0500  2.7961  0.3165
  942MOL0     H27158   8.266   6.898   6.965 -0.9294 -0.8722  0.4276
  942MOL0     H27159   8.503   6.894   6.873  0.9403  1.8939  1.0868
  942MOL0     H27160   8.709   6.942   6.897 -1.3559 -0.9770 -1.6510
  942MOL0     H27161   8.856   6.867   6.957  0.9784  0.3120 -2.3603
  942MOL0     H27162   8.713   6.831   6.713 -0.0033 -0.7294  0.8147
  942MOL0     H27163   8.777   6.679   6.769 -1.1082  1.0561 -2.2362
  942MOL0     H27164   8.999   6.771   6.800  1.1837 -0.4353 -1.6993
  942MOL0     H27165   8.955   6.931   6.723 -0.1553  1.0583  0.7986
  942MOL0     H27166   9.075   6.802   6.568 -0.3772 -0.8066  2.8910
  942MOL0     H27167   8.912   6.853   6.529 -0.2129  0.5180  1.1749
  942MOL0     H27168   8.914   6.420   6.475  1.9099  0.3732  0.3815
  942MOL0     H27169   8.605   6.671   7.233 -0.0890 -1.2887 -1.9374
  942MOL0     H27170   8.389   6.735   7.337 -0.8240 -2.1602 -0.2096
  943MOL0     O27171   4.871  11.276   5.702  0.3351 -0.1383 -1.5000
  943MOL0     C27172   4.907  11.304   5.817 -0.4914 -0.1566  0.1537
  943MOL0     O27173   5.039  11.317   5.851  0.1600  0.0326  0.1925
  943MOL0     C27174   5.140  11.288   5.764  0.5403  0.4070  0.0295
  943MOL0     C27175   5.142  11.340   5.633 -0.7075 -0.2849  0.3740
  943MOL0     C27176   5.264  11.323   5.556  0.2685  0.1281  0.0670
  943MOL0     C27177   5.378  11.246   5.610  0.6710 -0.3405 -0.1742
  943MOL0     O27178   5.481  11.207   5.529 -0.1861 -0.1570  0.8016
  943MOL0     C27179   5.597  11.159   5.591  0.5002 -0.8429 -0.0794
  943MOL0     C27180   5.710  11.161   5.487  0.2409 -0.2387  0.2760
  943MOL0     C27181   5.821  11.069   5.531 -0.4929  0.8436  0.0940
  943MOL0     C27182   5.853  11.086   5.681  0.5180 -0.8053 -0.3267
  943MOL0     C27183   5.960  10.993   5.724  0.8900  0.3445  0.6406
  943MOL0     C27184   6.005  11.024   5.872 -0.5685 -0.3225 -0.0698
  943MOL0     C27185   5.901  11.048   5.974 -0.1480 -0.0543 -0.0078
  943MOL0     C27186   5.791  10.934   5.985 -0.8192  0.6664  0.0799
  943MOL0     N27187   5.674  10.964   6.071  0.5914  0.8996  0.5340
  943MOL0     C27188   5.680  10.987   6.208 -0.0345  1.2918  0.2141
  943MOL0     C27189   5.558  11.035   6.241  0.0140 -0.2653  0.4976
  943MOL0     C27190   5.528  11.086   6.385  0.6105 -0.2476 -0.9788
  943MOL0     C27191   5.466  10.973   6.469  0.1114  0.4227  0.6698
  943MOL0     C27192   5.448  11.022   6.614  0.3593 -0.1075  0.0554
  943MOL0     C27193   5.404  10.915   6.703 -0.1433  0.5929 -0.0186
  943MOL0     O27194   5.358  10.972   6.834 -0.4560  0.7950 -0.7551
  943MOL0     C27195   5.329  10.865   6.922 -0.3492  0.0006 -0.2159
  943MOL0     C27196   5.213  10.898   7.000  0.5067 -0.6078  0.1470
  943MOL0     C27197   5.171  10.813   7.100  0.0473  0.1662 -0.5381
  943MOL0     C27198   5.049  10.847   7.191 -0.6232 -0.3554  0.2722
  943MOL0     C27199   5.245  10.690   7.122  0.3477  0.0360 -0.0097
  943MOL0     C27200   5.207  10.594   7.238  0.1515  0.0325  0.8242
  943MOL0     O27201   5.305  10.503   7.268  0.0283  1.1911 -0.0087
  943MOL0     C27202   5.267  10.378   7.317 -0.0604 -0.9247 -0.0881
  943MOL0     C27203   5.139  10.329   7.350 -0.0659 -0.4277  0.8423
  943MOL0     C27204   5.122  10.206   7.408 -0.0815 -0.1257  0.6374
  943MOL0     C27205   5.231  10.117   7.424 -0.1814 -0.0503 -0.4603
  943MOL0     O27206   5.203   9.996   7.488  0.2287  0.0560  0.2526
  943MOL0     C27207   5.112   9.916   7.415 -0.6355 -0.8546 -0.4195
  943MOL0     C27208   5.108   9.775   7.471 -0.7723  0.2219  1.0762
  943MOL0     C27209   5.025   9.667   7.391  0.2544  0.4310  0.6998
  943MOL0     C27210   4.882   9.672   7.428 -0.3401  0.1375  0.1853
  943MOL0     C27211   4.800   9.551   7.388  0.1845  0.1419  0.0682
  943MOL0     C27212   4.668   9.542   7.469  0.3246  0.2577 -0.1920
  943MOL0     C27213   4.579   9.416   7.440 -0.0940  0.0719 -0.4319
  943MOL0     C27214   4.466   9.447   7.343 -0.2581 -0.2718  0.3278
  943MOL0    Cl27215   4.363   9.576   7.401  0.1744 -0.5627 -0.7368
  943MOL0     C27216   5.357  10.166   7.398 -0.4819  0.3713 -0.1289
  943MOL0     C27217   5.372  10.297   7.342  0.1976 -0.0508 -0.1520
  943MOL0     O27218   5.110  10.615   7.307 -0.8237 -0.1040 -0.6359
  943MOL0     C27219   5.363  10.664   7.051  1.4034 -0.1888  0.7704
  943MOL0     C27220   5.413  10.754   6.961  0.3410 -0.2118 -0.0236
  943MOL0     N27221   5.488  11.054   6.125  0.5284 -1.2831 -0.2686
  943MOL0     N27222   5.554  11.007   6.027  0.0993  0.5258  0.6192
  943MOL0     C27223   5.367  11.207   5.747 -0.9382 -0.6008 -0.4708
  943MOL0     C27224   5.252  11.231   5.822  0.2202  0.4871 -0.3202
  943MOL0     C27225   4.811  11.314   5.929  0.0686  1.4567 -0.0535
  943MOL0     C27226   4.675  11.289   5.912  0.5536 -0.3095 -0.7065
  943MOL0     C27227   4.582  11.341   6.010  0.5345  0.1962 -0.8946
  943MOL0     C27228   4.630  11.376   6.138 -0.2515 -0.1047  0.9798
  943MOL0     O27229   4.554  11.403   6.245 -0.7979 -0.3738  0.1504
  943MOL0     C27230   4.555  11.286   6.328 -0.8624 -0.5761  0.6521
  943MOL0     C27231   4.412  11.253   6.370  0.1921 -0.0728  0.0379
  943MOL0     C27232   4.325  11.236   6.246 -0.2523  0.7048  0.5614
  943MOL0     C27233   4.174  11.227   6.262  0.4406  0.1903 -0.1376
  943MOL0     C27234   4.125  11.099   6.328 -0.2548 -0.1204 -0.3613
  943MOL0     C27235   4.093  11.000   6.386  0.6188 -1.3434  0.5303
  943MOL0     C27236   4.770  11.379   6.157  0.4799 -0.2165 -0.9843
  943MOL0     C27237   4.857  11.340   6.059  0.2905  0.3022 -0.0243
  943MOL0     H27238   5.061  11.402   5.598 -0.4940  1.5658  2.9169
  943MOL0     H27239   5.267  11.347   5.450  2.1623  1.5816  0.4075
  943MOL0     H27240   5.630  11.227   5.670  1.5411 -0.4205 -0.8377
  943MOL0     H27241   5.573  11.057   5.619 -1.6971 -1.0225 -2.3133
  943MOL0     H27242   5.681  11.127   5.387 -2.8785 -1.4608  1.4623
  943MOL0     H27243   5.757  11.259   5.479  1.1533 -0.6223  0.7129
  943MOL0     H27244   5.795  10.966   5.504  3.2538 -0.2991  0.3111
  943MOL0     H27245   5.912  11.076   5.470  0.1059 -0.4759  0.7900
  943MOL0     H27246   5.887  11.189   5.695  2.7473 -1.5070 -0.2014
  943MOL0     H27247   5.764  11.077   5.745  1.4913  0.1659  1.2226
  943MOL0     H27248   5.918  10.895   5.699 -1.2097  1.5199 -0.6301
  943MOL0     H27249   6.043  11.005   5.653 -0.3908 -0.5088 -1.0781
  943MOL0     H27250   6.067  10.939   5.902  0.4012  0.3932 -0.0317
  943MOL0     H27251   6.067  11.113   5.865  1.4137 -1.5322  1.1899
  943MOL0     H27252   5.945  11.070   6.071 -1.2712  0.4562  0.4025
  943MOL0     H27253   5.843  11.138   5.950 -0.5220 -0.5129 -0.8773
  943MOL0     H27254   5.844  10.846   6.022  2.7253  3.0306  1.2271
  943MOL0     H27255   5.765  10.904   5.883 -0.7140  0.1816  0.1933
  943MOL0     H27256   5.770  10.999   6.267 -0.3048  1.5239  0.5814
  943MOL0     H27257   5.624  11.111   6.430  0.0500 -1.3444  0.9263
  943MOL0     H27258   5.466  11.175   6.372  2.4103  0.8972 -2.3161
  943MOL0     H27259   5.540  10.892   6.480 -1.1043 -1.0059 -1.0756
  943MOL0     H27260   5.375  10.936   6.423  1.1370  0.7191 -1.7447
  943MOL0     H27261   5.369  11.097   6.611  0.8612  0.4124 -0.4291
  943MOL0     H27262   5.531  11.083   6.650  1.2208  0.0425 -2.0217
  943MOL0     H27263   5.490  10.849   6.715 -1.5828 -1.2440  0.7635
  943MOL0     H27264   5.328  10.851   6.657  1.0606  0.3830 -1.8391
  943MOL0     H27265   5.161  10.991   6.981 -3.3351 -2.3776  0.9739
  943MOL0     H27266   5.018  10.948   7.161 -1.2704 -0.4455  0.6282
  943MOL0     H27267   4.963  10.782   7.173 -0.4833 -0.5070  0.1425
  943MOL0     H27268   5.090  10.848   7.292  1.0038  0.5139 -0.3574
  943MOL0     H27269   5.049  10.387   7.331  0.1583 -0.4272 -0.3157
  943MOL0     H27270   5.023  10.178   7.441 -0.1787 -0.9342 -0.2784
  943MOL0     H27271   5.010   9.954   7.424 -0.4497 -0.2485 -0.8402
  943MOL0     H27272   5.138   9.913   7.308  0.6702 -0.5211 -0.1308
  943MOL0     H27273   5.212   9.739   7.472 -1.8646 -3.6022 -0.9870
  943MOL0     H27274   5.084   9.771   7.577  3.1792 -2.0433  2.0775
  943MOL0     H27275   5.064   9.569   7.421  1.5860  1.6710  3.3571
  943MOL0     H27276   5.033   9.685   7.283  0.7994  0.1371  0.6832
  943MOL0     H27277   4.880   9.685   7.536 -2.7174 -0.1557  0.2259
  943MOL0     H27278   4.823   9.749   7.377 -0.5039 -1.6029 -2.4687
  943MOL0     H27279   4.847   9.456   7.417  0.1278 -0.3777 -1.4506
  943MOL0     H27280   4.779   9.551   7.280  1.5298  3.2125 -0.2863
  943MOL0     H27281   4.690   9.542   7.576 -0.3513 -1.6101 -0.0028
  943MOL0     H27282   4.631   9.643   7.449  2.4829  1.2402  0.5967
  943MOL0     H27283   4.545   9.388   7.540 -2.5890  0.0764 -1.2021
  943MOL0     H27284   4.639   9.338   7.391  1.4912  0.2085  1.1648
  943MOL0     H27285   4.400   9.360   7.334 -2.8380  1.6813 -0.7764
  943MOL0     H27286   4.512   9.472   7.247  2.7878 -1.3218  1.3945
  943MOL0     H27287   5.451  10.113   7.405  1.6016  3.5208 -1.6126
  943MOL0     H27288   5.471  10.315   7.303 -0.7773 -0.1957 -2.9664
  943MOL0     H27289   5.420  10.575   7.077  1.0844 -0.8782 -0.7175
  943MOL0     H27290   5.508  10.737   6.912 -0.2062  0.1780 -1.2724
  943MOL0     H27291   5.442  11.149   5.800  0.2031  0.0256 -1.3553
  943MOL0     H27292   5.242  11.197   5.924 -2.3287  1.0379 -0.3123
  943MOL0     H27293   4.629  11.259   5.818 -1.7571 -1.4002  0.6876
  943MOL0     H27294   4.478  11.323   5.985 -0.1191 -1.6157  2.4842
  943MOL0     H27295   4.609  11.204   6.281 -0.3092 -0.0140  0.2748
  943MOL0     H27296   4.611  11.306   6.419  0.4138 -1.6866  0.1344
  943MOL0     H27297   4.366  11.335   6.425 -0.3082  0.0065 -0.4847
  943MOL0     H27298   4.402  11.160   6.427  0.5454 -0.7722 -1.0150
  943MOL0     H27299   4.368  11.147   6.200  1.1027  0.6122  1.9510
  943MOL0     H27300   4.347  11.317   6.175  0.5486 -0.0376 -0.0666
  943MOL0     H27301   4.133  11.227   6.160 -1.0339 -0.4565  0.4386
  943MOL0     H27302   4.150  11.318   6.316  2.2197 -1.0664  3.0085
  943MOL0     H27303   4.047  10.921   6.441  0.9423 -0.2536  2.4289
  943MOL0     H27304   4.817  11.413   6.248 -1.4315  1.0987 -0.4385
  943MOL0     H27305   4.960  11.374   6.067  0.0661  1.2515 -0.9051
  944MOL0     O27306   7.796   0.098   0.414  0.3970  0.0405  0.4708
  944MOL0     C27307   7.847  -0.012   0.400  0.0434 -1.1199  0.1200
  944MOL0     O27308   7.804  -0.112   0.317 -0.4319  0.1117 -0.8163
  944MOL0     C27309   7.678  -0.122   0.270 -0.3345 -0.9308  0.7499
  944MOL0     C27310   7.667  -0.210   0.166 -0.1229  0.0814 -0.2303
  944MOL0     C27311   7.550  -0.227   0.102  0.2105  1.0255 -0.0514
  944MOL0     C27312   7.432  -0.165   0.140 -0.0988  1.1394 -0.5573
  944MOL0     O27313   7.312  -0.170   0.079  0.4828 -0.4846 -0.3069
  944MOL0     C27314   7.291  -0.280  -0.014  0.4197  0.1224  0.2270
  944MOL0     C27315   7.142  -0.270  -0.053 -0.1195 -0.3967  0.0933
  944MOL0     C27316   7.056  -0.290   0.074  0.5199  0.0525  0.3074
  944MOL0     C27317   6.908  -0.301   0.057  0.2921  0.7534  0.6189
  944MOL0     C27318   6.843  -0.200  -0.038  0.2890 -0.0984  0.0075
  944MOL0     C27319   6.877  -0.054  -0.013 -0.1361  0.2889 -0.1450
  944MOL0     C27320   6.825   0.032  -0.129  0.5657 -0.1619  0.3522
  944MOL0     C27321   6.716   0.123  -0.085 -0.0005 -0.7894  1.4143
  944MOL0     N27322   6.648   0.171  -0.209  0.0023 -0.2645  0.6896
  944MOL0     C27323   6.511   0.164  -0.213 -0.0528  0.4207  0.6584
  944MOL0     C27324   6.485   0.158  -0.347  0.2963  0.0789  0.3107
  944MOL0     C27325   6.351   0.131  -0.410 -0.0713 -0.1098  0.6220
  944MOL0     C27326   6.319   0.249  -0.509 -0.3952  0.0715  1.1989
  944MOL0     C27327   6.371   0.225  -0.656 -1.1064  0.1679 -0.7606
  944MOL0     C27328   6.398   0.364  -0.715  0.5747 -0.1250 -0.6266
  944MOL0     O27329   6.427   0.357  -0.855 -0.0851 -0.4596  0.2181
  944MOL0     C27330   6.565   0.343  -0.871 -0.5368  0.2227  0.6119
  944MOL0     C27331   6.665   0.301  -0.778  0.2492 -0.2030 -0.0650
  944MOL0     C27332   6.798   0.291  -0.814 -0.4093  0.2850  0.5441
  944MOL0     C27333   6.897   0.235  -0.714 -0.1512 -0.2921  0.7061
  944MOL0     C27334   6.842   0.330  -0.939  0.0218  0.8799 -0.4147
  944MOL0     C27335   6.986   0.339  -0.984  0.9878  0.4036  0.6478
  944MOL0     O27336   7.023   0.434  -1.064  0.3265 -0.3455 -0.0693
  944MOL0     C27337   7.123   0.408  -1.162 -0.4744 -0.3376 -0.4088
  944MOL0     C27338   7.247   0.346  -1.132  0.6423 -0.2956 -1.1570
  944MOL0     C27339   7.327   0.300  -1.235 -0.6266 -0.7200  0.2442
  944MOL0     C27340   7.296   0.325  -1.366  0.8287  0.7342 -1.0745
  944MOL0     O27341   7.399   0.274  -1.451  0.3927 -0.0587 -0.4665
  944MOL0     C27342   7.355   0.232  -1.581 -0.4222  1.3580 -0.3410
  944MOL0     C27343   7.485   0.203  -1.653 -0.0328 -0.7061 -0.4033
  944MOL0     C27344   7.540   0.317  -1.740 -0.1234 -0.4207  0.4868
  944MOL0     C27345   7.562   0.444  -1.664 -0.0012 -0.8195 -0.9834
  944MOL0     C27346   7.604   0.555  -1.761 -0.2483 -0.2248  0.7494
  944MOL0     C27347   7.627   0.691  -1.691  0.1996 -0.3181  0.1257
  944MOL0     C27348   7.497   0.760  -1.640  0.4309 -0.1878  0.3686
  944MOL0     C27349   7.529   0.855  -1.530  0.7232 -0.6090 -0.1584
  944MOL0    Cl27350   7.635   0.981  -1.583 -0.0575  0.1751  0.1172
  944MOL0     C27351   7.168   0.390  -1.400  0.7199 -0.5266 -0.0190
  944MOL0     C27352   7.078   0.432  -1.295 -0.5506 -0.2661 -0.6439
  944MOL0     O27353   7.055   0.240  -0.953 -0.0806 -0.3445  0.3097
  944MOL0     C27354   6.746   0.386  -1.032  0.7395  0.0424  0.1305
  944MOL0     C27355   6.608   0.380  -1.001 -0.8510  0.8680  0.0534
  944MOL0     N27356   6.599   0.182  -0.419  0.6022  0.7298  1.1460
  944MOL0     N27357   6.691   0.189  -0.338  0.2016 -0.5038 -0.2696
  944MOL0     C27358   7.447  -0.073   0.249  0.1488  0.0852 -0.0623
  944MOL0     C27359   7.565  -0.052   0.318 -0.5556  0.2081  0.4602
  944MOL0     C27360   7.979  -0.030   0.473  0.5811  0.8272 -0.7415
  944MOL0     C27361   8.034   0.076   0.538 -1.0696 -0.1220  0.6087
  944MOL0     C27362   8.150   0.057   0.615 -0.4213 -0.0955  0.3497
  944MOL0     C27363   8.228  -0.069   0.596 -0.2098 -0.0187 -0.7755
  944MOL0     O27364   8.352  -0.080   0.661  0.1436  0.2148 -0.9257
  944MOL0     C27365   8.405   0.027   0.747  0.3655  0.0350  0.4707
  944MOL0     C27366   8.537   0.002   0.804  0.4981  0.4892  0.3580
  944MOL0     C27367   8.541  -0.090   0.932  0.0474 -0.1972  0.3366
  944MOL0     C27368   8.674  -0.128   0.984  0.8147  0.3090  0.2706
  944MOL0     C27369   8.778  -0.027   0.981 -0.5382  0.2116 -0.4403
  944MOL0     C27370   8.867   0.050   0.969 -0.2479 -0.3829 -0.7859
  944MOL0     C27371   8.176  -0.165   0.518 -0.1266 -0.3570  0.0909
  944MOL0     C27372   8.049  -0.154   0.460 -0.2524 -0.0718 -0.3137
  944MOL0     H27373   7.749  -0.267   0.124 -0.3539  1.0146 -2.0746
  944MOL0     H27374   7.555  -0.299   0.021  2.8862  0.0533  0.8726
  944MOL0     H27375   7.360  -0.273  -0.098  0.0736 -0.4201 -0.1084
  944MOL0     H27376   7.316  -0.374   0.036  1.9562  0.6523  0.4996
  944MOL0     H27377   7.132  -0.170  -0.096  2.0619 -0.4198 -0.5995
  944MOL0     H27378   7.108  -0.347  -0.123  1.6844 -1.5015  0.3757
  944MOL0     H27379   7.083  -0.383   0.124 -1.8439 -0.9126 -0.0831
  944MOL0     H27380   7.071  -0.206   0.143  0.1687  0.2708  0.1199
  944MOL0     H27381   6.892  -0.393   0.000  1.1593  0.1588  1.3093
  944MOL0     H27382   6.862  -0.296   0.156 -3.0583  1.4465 -0.8314
  944MOL0     H27383   6.868  -0.225  -0.142  2.7906  0.8506  0.3187
  944MOL0     H27384   6.734  -0.213  -0.030  0.4166 -1.7314 -0.4333
  944MOL0     H27385   6.837  -0.037   0.087  0.0070 -0.5814  0.0662
  944MOL0     H27386   6.985  -0.040  -0.010 -0.2933  1.5143  0.3198
  944MOL0     H27387   6.906   0.084  -0.181  1.0220 -2.9347 -1.9007
  944MOL0     H27388   6.786  -0.034  -0.207  1.4462  1.2095 -1.3162
  944MOL0     H27389   6.733   0.196  -0.005 -1.1833 -0.7384  1.6367
  944MOL0     H27390   6.639   0.059  -0.041 -1.2117 -0.3176  0.0489
  944MOL0     H27391   6.441   0.145  -0.132 -1.8225 -2.3927 -1.3414
  944MOL0     H27392   6.343   0.036  -0.463  2.4672 -1.5853  2.6615
  944MOL0     H27393   6.282   0.128  -0.325 -0.4143 -0.2098  0.3424
  944MOL0     H27394   6.351   0.342  -0.460  1.9234  0.5753 -1.0304
  944MOL0     H27395   6.213   0.263  -0.530 -0.9734  1.4965  4.5114
  944MOL0     H27396   6.299   0.172  -0.719  0.2392 -0.9963 -1.3445
  944MOL0     H27397   6.457   0.160  -0.671 -2.2684 -1.3773 -1.0354
  944MOL0     H27398   6.469   0.423  -0.656 -2.2057  2.4077  0.4606
  944MOL0     H27399   6.307   0.419  -0.692  0.5901 -1.4851  3.5627
  944MOL0     H27400   6.647   0.268  -0.676 -0.4455 -5.2120 -1.5546
  944MOL0     H27401   6.842   0.214  -0.623 -0.8169 -2.0562 -0.0560
  944MOL0     H27402   6.946   0.145  -0.754  0.8170  0.9102 -0.9415
  944MOL0     H27403   6.972   0.312  -0.692  1.0112 -1.2275  0.1335
  944MOL0     H27404   7.273   0.346  -1.026  3.1091 -1.3682 -1.6852
  944MOL0     H27405   7.419   0.246  -1.213  0.6908  0.1689 -2.5516
  944MOL0     H27406   7.288   0.145  -1.572  0.9993  0.2140 -0.5295
  944MOL0     H27407   7.311   0.315  -1.637  0.7948  0.4060 -2.8192
  944MOL0     H27408   7.555   0.162  -1.579  1.9860 -0.4623 -2.0967
  944MOL0     H27409   7.470   0.120  -1.722  3.6579 -0.0350 -2.2440
  944MOL0     H27410   7.466   0.331  -1.820 -2.8489 -1.4419  2.6406
  944MOL0     H27411   7.640   0.292  -1.774  0.3278 -0.6405  1.9058
  944MOL0     H27412   7.479   0.464  -1.595 -0.5663 -0.5437 -1.7310
  944MOL0     H27413   7.645   0.426  -1.595 -1.9634 -1.7003  1.3150
  944MOL0     H27414   7.529   0.573  -1.839  0.4035 -0.1294  0.1364
  944MOL0     H27415   7.697   0.529  -1.811 -0.4873  2.1653 -1.1379
  944MOL0     H27416   7.697   0.671  -1.610 -0.3130 -0.2007  0.6036
  944MOL0     H27417   7.685   0.751  -1.762  1.2502 -1.2874  0.1344
  944MOL0     H27418   7.424   0.683  -1.612 -0.5851  0.5107 -0.3089
  944MOL0     H27419   7.451   0.799  -1.731  3.0980  1.7321 -0.2866
  944MOL0     H27420   7.572   0.814  -1.437 -0.9495 -0.9046  0.5196
  944MOL0     H27421   7.437   0.907  -1.503  1.1598  0.7739 -1.2491
  944MOL0     H27422   7.141   0.430  -1.497  0.6957 -0.6827 -0.0766
  944MOL0     H27423   6.986   0.485  -1.316  1.4904  2.6870 -2.9810
  944MOL0     H27424   6.767   0.430  -1.129 -2.5860 -1.3363 -1.3986
  944MOL0     H27425   6.542   0.414  -1.080  1.3036  0.3419 -2.1124
  944MOL0     H27426   7.354  -0.035   0.291  0.4794 -1.3519  2.1333
  944MOL0     H27427   7.570   0.018   0.400 -0.9373  0.1141  0.5644
  944MOL0     H27428   7.988   0.174   0.545 -1.3206 -0.1777 -0.1917
  944MOL0     H27429   8.185   0.136   0.680  0.4254 -1.2982  1.4299
  944MOL0     H27430   8.401   0.121   0.690 -1.8106  0.9936  2.0976
  944MOL0     H27431   8.337   0.030   0.832  0.3673  0.7878  0.4497
  944MOL0     H27432   8.569   0.101   0.836 -1.5608  1.5741 -0.7597
  944MOL0     H27433   8.602  -0.037   0.726  0.3211 -0.5988  0.7302
  944MOL0     H27434   8.498  -0.185   0.898  2.1145 -0.5115 -1.6649
  944MOL0     H27435   8.477  -0.053   1.012  1.3266 -2.2089  2.4070
  944MOL0     H27436   8.715  -0.214   0.930 -0.1753 -0.7681  1.1834
  944MOL0     H27437   8.644  -0.153   1.087  0.8835  2.9216  0.9768
  944MOL0     H27438   8.940   0.126   0.948  0.3873 -0.0365  2.2652
  944MOL0     H27439   8.232  -0.257   0.502 -1.0624 -0.6165 -2.1046
  944MOL0     H27440   8.020  -0.247   0.412  2.1428 -2.0255  1.7150
  945MOL0     O27441   2.639   5.540   4.127 -0.0021 -0.5777 -0.2510
  945MOL0     C27442   2.653   5.424   4.105 -0.3309  0.6217 -0.3262
  945MOL0     O27443   2.563   5.334   4.059  0.5438  0.7236  0.3214
  945MOL0     C27444   2.447   5.393   4.015 -0.3214  0.3605 -0.1347
  945MOL0     C27445   2.332   5.369   4.081 -0.3913 -0.6505 -0.5216
  945MOL0     C27446   2.203   5.412   4.033  0.6467 -0.8664  0.3603
  945MOL0     C27447   2.193   5.493   3.920  0.6665  0.1411 -0.1590
  945MOL0     O27448   2.072   5.559   3.871 -0.1306  0.0111 -0.0590
  945MOL0     C27449   1.942   5.506   3.882 -0.4174  0.0047  0.9220
  945MOL0     C27450   1.862   5.621   3.822  0.5152 -0.4875 -0.1043
  945MOL0     C27451   1.705   5.583   3.812 -0.6295 -0.0701 -0.4892
  945MOL0     C27452   1.644   5.609   3.958  0.5024  0.1166  0.0726
  945MOL0     C27453   1.490   5.592   3.935  0.4740 -0.3620  0.2071
  945MOL0     C27454   1.421   5.725   3.972  1.2467  0.1340  0.7563
  945MOL0     C27455   1.282   5.743   3.925  0.1021  0.0062  0.5947
  945MOL0     C27456   1.241   5.773   3.777 -0.3047 -0.0103  0.9063
  945MOL0     N27457   1.098   5.778   3.735  0.2871 -0.4604 -0.6653
  945MOL0     C27458   1.011   5.675   3.754 -0.1214 -0.3047  0.0837
  945MOL0     C27459   0.901   5.719   3.688 -0.8343 -0.0003 -0.2060
  945MOL0     C27460   0.771   5.650   3.663 -0.1360  0.0739 -0.3859
  945MOL0     C27461   0.706   5.646   3.796 -0.8164  0.9607  0.0900
  945MOL0     C27462   0.587   5.553   3.806 -0.0031 -0.2529 -0.1363
  945MOL0     C27463   0.485   5.561   3.689  0.1363  0.2407  0.4081
  945MOL0     O27464   0.412   5.440   3.664  0.5006  0.0951  0.0309
  945MOL0     C27465   0.308   5.410   3.751  0.1478 -0.3837 -0.8006
  945MOL0     C27466   0.246   5.289   3.740  0.0188 -0.0987  0.1428
  945MOL0     C27467   0.143   5.244   3.828 -0.8379 -0.1900 -0.0803
  945MOL0     C27468   0.061   5.118   3.790 -0.2932 -0.3148  0.5796
  945MOL0     C27469   0.102   5.325   3.937  0.3131 -0.2447 -0.4813
  945MOL0     C27470   0.013   5.274   4.043 -0.0442  0.0861 -0.5026
  945MOL0     O27471  -0.092   5.355   4.087  0.3222 -0.1174  0.8029
  945MOL0     C27472  -0.146   5.327   4.206  0.0350  0.6323 -0.7357
  945MOL0     C27473  -0.248   5.228   4.220 -0.5794 -1.1866  0.4411
  945MOL0     C27474  -0.310   5.214   4.340  0.0117  0.7356  0.8983
  945MOL0     C27475  -0.277   5.285   4.446  0.6008 -1.0067  0.5413
  945MOL0     O27476  -0.320   5.268   4.577 -0.9886 -0.4037  0.1315
  945MOL0     C27477  -0.419   5.177   4.617 -0.9313 -0.6583  0.0730
  945MOL0     C27478  -0.444   5.166   4.764 -0.6282 -0.3307  0.7107
  945MOL0     C27479  -0.493   5.301   4.815 -0.0360  0.2700 -0.8701
  945MOL0     C27480  -0.386   5.406   4.827 -0.1467 -0.3418  0.0754
  945MOL0     C27481  -0.412   5.511   4.931 -0.2735 -0.0090 -0.0628
  945MOL0     C27482  -0.285   5.602   4.951 -0.1658 -0.0500  0.2466
  945MOL0     C27483  -0.303   5.694   5.066 -0.7031  0.0527  0.7224
  945MOL0     C27484  -0.176   5.784   5.089 -0.1606 -0.0854 -0.5217
  945MOL0    Cl27485  -0.147   5.892   4.944 -0.6718  0.5200  0.0330
  945MOL0     C27486  -0.193   5.399   4.437 -0.1030  0.4137  0.4453
  945MOL0     C27487  -0.126   5.420   4.315  0.3320  0.3742  0.1184
  945MOL0     O27488   0.047   5.174   4.105  0.6493 -0.2273 -0.7728
  945MOL0     C27489   0.156   5.457   3.938  1.2786 -0.6422 -0.4024
  945MOL0     C27490   0.244   5.498   3.843 -1.5538  0.3766 -0.0714
  945MOL0     N27491   0.919   5.848   3.650  0.0117 -0.4121 -0.2609
  945MOL0     N27492   1.032   5.884   3.683  0.3537  0.4867 -0.4826
  945MOL0     C27493   2.313   5.524   3.861 -0.4103  0.3053 -0.4591
  945MOL0     C27494   2.438   5.468   3.901 -0.2138  0.1470  0.1459
  945MOL0     C27495   2.765   5.358   4.160  0.3601 -0.0414  0.1911
  945MOL0     C27496   2.790   5.220   4.136  0.3772  0.3451 -0.1528
  945MOL0     C27497   2.891   5.163   4.209  0.3119  0.7151 -0.6149
  945MOL0     C27498   2.981   5.225   4.291 -0.9508 -0.0735  0.6337
  945MOL0     O27499   3.073   5.165   4.369 -0.1714 -0.3193 -0.0984
  945MOL0     C27500   3.118   5.036   4.336  0.9266 -0.3735  0.3459
  945MOL0     C27501   3.209   4.983   4.445  0.6788 -0.4548 -1.2733
  945MOL0     C27502   3.355   5.048   4.438 -0.2800 -0.0412  0.2643
  945MOL0     C27503   3.452   4.964   4.355  0.0425  0.4325 -0.0756
  945MOL0     C27504   3.589   4.982   4.413 -0.1205 -0.6197  0.2093
  945MOL0     C27505   3.689   4.975   4.477  0.1658  0.0229  0.1312
  945MOL0     C27506   2.965   5.368   4.306  0.6612  0.1263 -0.4516
  945MOL0     C27507   2.855   5.433   4.233 -0.7361  0.5116 -0.3117
  945MOL0     H27508   2.338   5.316   4.175 -1.3596  0.5093  0.2235
  945MOL0     H27509   2.123   5.399   4.105 -1.6687 -2.3067 -2.2489
  945MOL0     H27510   1.939   5.422   3.812 -1.4584  0.0238  0.9311
  945MOL0     H27511   1.915   5.470   3.981 -0.4780 -1.6994  0.3180
  945MOL0     H27512   1.879   5.706   3.889 -2.0090  0.5092 -0.5718
  945MOL0     H27513   1.890   5.651   3.720  3.1945  0.5653  0.8526
  945MOL0     H27514   1.656   5.646   3.738  1.1378  1.2808 -0.5674
  945MOL0     H27515   1.692   5.479   3.780  1.5661 -1.1795  1.8384
  945MOL0     H27516   1.676   5.537   4.034 -0.1684  0.0896  0.3339
  945MOL0     H27517   1.668   5.709   3.995  0.6701  0.5068 -1.0652
  945MOL0     H27518   1.480   5.568   3.828  1.4552 -0.5125  0.1430
  945MOL0     H27519   1.456   5.504   3.990  0.2676 -1.7416 -2.0048
  945MOL0     H27520   1.417   5.733   4.081  1.6817  0.6393  0.7411
  945MOL0     H27521   1.476   5.805   3.922  1.6958 -1.0945 -0.7992
  945MOL0     H27522   1.229   5.654   3.959  2.3623 -0.2266  4.0070
  945MOL0     H27523   1.245   5.834   3.973  1.3655  1.5273 -1.1483
  945MOL0     H27524   1.294   5.702   3.712 -1.3008 -1.1762  1.3256
  945MOL0     H27525   1.279   5.874   3.761 -0.3969 -0.4773 -3.5423
  945MOL0     H27526   1.030   5.580   3.802  2.7681 -1.4910 -3.0075
  945MOL0     H27527   0.708   5.708   3.595  1.3512  1.4859 -0.6218
  945MOL0     H27528   0.796   5.547   3.636  2.5120 -0.2727  2.7665
  945MOL0     H27529   0.673   5.749   3.815 -1.1922  0.4177  2.6441
  945MOL0     H27530   0.780   5.625   3.874  1.0359 -0.8506 -2.0188
  945MOL0     H27531   0.544   5.590   3.899  2.7805 -0.2747  1.2571
  945MOL0     H27532   0.625   5.451   3.812 -2.0664 -0.9816  2.0475
  945MOL0     H27533   0.535   5.587   3.595 -1.9800 -0.3116 -0.9180
  945MOL0     H27534   0.425   5.652   3.699  0.3242  0.3077  0.9633
  945MOL0     H27535   0.264   5.232   3.649 -0.9081  1.9265 -1.3900
  945MOL0     H27536   0.074   5.104   3.682 -2.3086 -1.7861  0.4691
  945MOL0     H27537   0.105   5.027   3.833  0.2889  0.3326  1.3928
  945MOL0     H27538  -0.047   5.123   3.807 -0.7199 -1.7785 -1.4146
  945MOL0     H27539  -0.264   5.161   4.136  2.8140 -0.8815 -0.5941
  945MOL0     H27540  -0.372   5.125   4.351 -0.8814  1.6543  4.4093
  945MOL0     H27541  -0.509   5.207   4.563  0.6692  3.5580 -0.5726
  945MOL0     H27542  -0.378   5.077   4.598  0.3644  0.0460 -0.9089
  945MOL0     H27543  -0.517   5.088   4.785 -1.3371  0.3515  0.8374
  945MOL0     H27544  -0.346   5.142   4.807  0.2147  0.5856 -0.5914
  945MOL0     H27545  -0.534   5.267   4.911 -0.6249 -4.8771 -2.6702
  945MOL0     H27546  -0.580   5.341   4.761 -0.6510 -0.2992 -0.3259
  945MOL0     H27547  -0.291   5.360   4.857 -0.6181 -2.6549 -1.7092
  945MOL0     H27548  -0.364   5.454   4.731  0.6590 -2.4347 -0.8537
  945MOL0     H27549  -0.414   5.454   5.025  0.5048 -0.1318 -0.1136
  945MOL0     H27550  -0.502   5.571   4.914  0.3059  1.3878  1.4733
  945MOL0     H27551  -0.199   5.541   4.979  1.5605  2.4065  0.6352
  945MOL0     H27552  -0.261   5.660   4.861 -2.5436 -0.1771 -0.5401
  945MOL0     H27553  -0.322   5.634   5.156 -2.7582 -1.2840 -0.5468
  945MOL0     H27554  -0.394   5.752   5.052  0.1465  1.7416  1.8507
  945MOL0     H27555  -0.092   5.715   5.098  1.1472  1.5797  0.6526
  945MOL0     H27556  -0.180   5.848   5.178 -1.4062  0.2506 -0.8048
  945MOL0     H27557  -0.184   5.461   4.525 -2.3777  1.3813  0.0493
  945MOL0     H27558  -0.071   5.512   4.300 -0.5141  1.2106  1.8716
  945MOL0     H27559   0.117   5.526   4.011  1.2853 -0.9111 -0.1440
  945MOL0     H27560   0.281   5.598   3.862  0.8944 -0.9380  3.1535
  945MOL0     H27561   2.300   5.594   3.779 -2.1368  3.1034  1.9948
  945MOL0     H27562   2.521   5.476   3.833 -1.1486 -0.9368 -1.1739
  945MOL0     H27563   2.743   5.159   4.060 -1.0741  0.5322  0.5710
  945MOL0     H27564   2.898   5.056   4.191  1.7728  0.3931  1.4139
  945MOL0     H27565   3.032   4.968   4.333  1.0948 -0.5614 -0.6456
  945MOL0     H27566   3.178   5.043   4.245  3.3934 -4.2415  1.4614
  945MOL0     H27567   3.216   4.874   4.435 -1.6223 -0.6129 -1.6900
  945MOL0     H27568   3.168   5.007   4.543  1.2762 -1.7054 -0.6869
  945MOL0     H27569   3.395   5.055   4.539 -1.1376 -0.3238  0.6308
  945MOL0     H27570   3.354   5.151   4.399 -0.0960  0.3640  1.2942
  945MOL0     H27571   3.439   4.968   4.246 -4.2891 -2.7204  0.0667
  945MOL0     H27572   3.422   4.861   4.376 -0.8527  0.6984 -0.0402
  945MOL0     H27573   3.785   4.961   4.521 -0.7145  0.5348  2.3410
  945MOL0     H27574   3.028   5.418   4.380 -0.4218  1.1540 -0.1880
  945MOL0     H27575   2.847   5.541   4.245  1.5177  0.5291  1.9458
  946MOL0     O27576   8.043   3.331  11.056  0.7556 -0.0260 -0.6431
  946MOL0     C27577   7.955   3.265  11.004 -0.1451  0.6489  0.4077
  946MOL0     O27578   7.964   3.185  10.882  0.2507 -0.4011 -0.6325
  946MOL0     C27579   8.094   3.189  10.836 -0.4808  0.5148  0.6673
  946MOL0     C27580   8.113   3.229  10.698 -0.1447  0.3649  0.1355
  946MOL0     C27581   8.245   3.214  10.641  0.6925  0.0478 -0.1478
  946MOL0     C27582   8.350   3.160  10.711 -0.1707 -0.5113  0.2469
  946MOL0     O27583   8.463   3.166  10.644  0.3932  0.6797  0.4323
  946MOL0     C27584   8.591   3.176  10.718 -1.2279  1.4269 -0.0188
  946MOL0     C27585   8.701   3.219  10.618 -0.1728 -0.3239 -1.0858
  946MOL0     C27586   8.824   3.259  10.707  0.2971  0.2566  0.3689
  946MOL0     C27587   8.949   3.296  10.636 -0.3557  0.6670 -0.8050
  946MOL0     C27588   9.067   3.277  10.738 -0.3555 -0.3745  0.4292
  946MOL0     C27589   9.199   3.337  10.676 -0.2067 -0.7179 -0.0044
  946MOL0     C27590   9.319   3.299  10.766  0.3603  0.7617 -0.0481
  946MOL0     C27591   9.455   3.362  10.726  0.2768 -0.0393 -0.5812
  946MOL0     N27592   9.558   3.292  10.790  0.4238 -0.4041 -0.0546
  946MOL0     C27593   9.663   3.204  10.750  0.2485  0.3229 -0.4475
  946MOL0     C27594   9.737   3.174  10.858 -0.5532 -0.2018  0.6421
  946MOL0     C27595   9.859   3.091  10.849  0.2788 -0.8005  0.4245
  946MOL0     C27596   9.993   3.154  10.906 -0.1343  0.0118 -0.1384
  946MOL0     C27597   9.992   3.149  11.063  0.5340 -0.2311 -0.5860
  946MOL0     C27598  10.015   3.009  11.120  0.2178 -0.2307 -1.1883
  946MOL0     O27599  10.152   3.003  11.165 -0.6435 -0.2398 -0.4013
  946MOL0     C27600  10.181   2.908  11.257  0.2713 -0.5100 -0.1139
  946MOL0     C27601  10.125   2.786  11.269  0.1559  0.0653 -0.1972
  946MOL0     C27602  10.183   2.681  11.347 -0.0015  0.2066 -0.5249
  946MOL0     C27603  10.117   2.549  11.327 -0.0136  0.0666 -0.5006
  946MOL0     C27604  10.299   2.714  11.413 -1.0116 -0.1329 -0.4038
  946MOL0     C27605  10.371   2.623  11.514  0.1521  0.5380 -0.4426
  946MOL0     O27606  10.451   2.682  11.603 -0.0768 -0.0962  0.3806
  946MOL0     C27607  10.564   2.619  11.642 -0.3424 -0.5269 -1.0001
  946MOL0     C27608  10.568   2.537  11.755 -1.2673  0.8089  0.6275
  946MOL0     C27609  10.690   2.482  11.804  0.0193 -0.4974  0.4760
  946MOL0     C27610  10.808   2.521  11.742 -0.5791  0.8199  0.3091
  946MOL0     O27611  10.923   2.478  11.796 -0.2924  0.2854  0.2507
  946MOL0     C27612  10.961   2.544  11.919  0.5964 -0.2950 -0.5595
  946MOL0     C27613  11.105   2.592  11.915  0.6114  0.5926 -0.1999
  946MOL0     C27614  11.198   2.481  11.856 -0.3353 -0.1321  0.2471
  946MOL0     C27615  11.350   2.503  11.891  0.7663  0.3273 -0.7785
  946MOL0     C27616  11.437   2.382  11.853 -0.4785  0.1635  0.6297
  946MOL0     C27617  11.415   2.255  11.938  0.0387 -0.2483  0.9296
  946MOL0     C27618  11.516   2.154  11.878  0.0167  0.9011 -0.1397
  946MOL0     C27619  11.504   2.019  11.944  0.6789  0.3557 -0.4343
  946MOL0    Cl27620  11.574   2.032  12.111 -0.4674 -0.1810 -0.3406
  946MOL0     C27621  10.803   2.602  11.631 -0.4963 -0.3141 -0.0586
  946MOL0     C27622  10.680   2.653  11.578  0.2548 -0.5490 -0.7468
  946MOL0     O27623  10.340   2.504  11.529  0.7463  0.2880 -0.0584
  946MOL0     C27624  10.350   2.844  11.413  0.2739 -0.5794 -0.4935
  946MOL0     C27625  10.287   2.940  11.338 -0.1818  0.1766 -0.0485
  946MOL0     N27626   9.694   3.253  10.960 -0.5687 -0.3277  0.0662
  946MOL0     N27627   9.587   3.320  10.927 -0.0368 -0.3475 -0.2696
  946MOL0     C27628   8.326   3.124  10.845  0.0927  0.6475  0.1349
  946MOL0     C27629   8.201   3.129  10.900 -0.6680 -0.0330  0.7692
  946MOL0     C27630   7.816   3.260  11.065  0.1961 -0.3984 -0.2656
  946MOL0     C27631   7.797   3.279  11.211  0.9395 -0.2328 -0.2573
  946MOL0     C27632   7.665   3.283  11.254 -0.3132 -0.1625 -0.2121
  946MOL0     C27633   7.554   3.253  11.167 -0.4774  0.4260 -0.3080
  946MOL0     O27634   7.436   3.229  11.230  0.9242  0.7351  0.4681
  946MOL0     C27635   7.316   3.239  11.153  0.4194 -0.3926 -0.1570
  946MOL0     C27636   7.199   3.208  11.256  0.0311  0.6369 -0.2387
  946MOL0     C27637   7.069   3.202  11.168  0.6828  0.0446 -0.2206
  946MOL0     C27638   7.007   3.332  11.135  0.2752 -0.7592  0.4692
  946MOL0     C27639   6.892   3.338  11.037  0.6349  0.0981  0.0883
  946MOL0     C27640   6.821   3.327  10.942 -0.7820 -0.6442  0.1599
  946MOL0     C27641   7.578   3.227  11.035  0.6241 -0.1099  0.6738
  946MOL0     C27642   7.709   3.229  10.986 -0.6969  0.6798 -0.4340
  946MOL0     H27643   8.037   3.289  10.649  1.8242  3.5677  0.7029
  946MOL0     H27644   8.250   3.242  10.536  1.3472 -1.2250 -0.4792
  946MOL0     H27645   8.585   3.249  10.800  0.1064 -2.9583  4.4376
  946MOL0     H27646   8.611   3.081  10.768 -0.8726  0.4025 -2.0025
  946MOL0     H27647   8.734   3.132  10.560 -1.8232 -2.2858  0.7173
  946MOL0     H27648   8.666   3.299  10.552 -2.8020  0.8134  1.4917
  946MOL0     H27649   8.784   3.334  10.776  0.7404  0.3601  0.5187
  946MOL0     H27650   8.848   3.169  10.765  2.0999  1.2932  1.3276
  946MOL0     H27651   8.973   3.240  10.545  2.6337 -0.9212  0.7850
  946MOL0     H27652   8.929   3.399  10.608 -3.2793  0.1672 -0.7854
  946MOL0     H27653   9.042   3.332  10.828 -1.5054 -2.9984  1.8165
  946MOL0     H27654   9.069   3.170  10.761  1.3532 -0.3799  0.3827
  946MOL0     H27655   9.218   3.292  10.578  0.3997 -1.1034  0.2833
  946MOL0     H27656   9.201   3.444  10.653 -1.8034 -0.4698  0.8509
  946MOL0     H27657   9.293   3.317  10.871 -1.1655 -0.2017 -0.2378
  946MOL0     H27658   9.326   3.190  10.759  0.4297  0.6630  1.3133
  946MOL0     H27659   9.462   3.469  10.749 -1.7809 -0.0421  0.2715
  946MOL0     H27660   9.463   3.349  10.618 -3.7325  1.1197 -1.2014
  946MOL0     H27661   9.692   3.172  10.650  1.1699 -2.8905  0.7367
  946MOL0     H27662   9.843   3.000  10.908 -0.4405  2.0547  5.1773
  946MOL0     H27663   9.873   3.064  10.744 -1.7279 -1.2396  0.2256
  946MOL0     H27664  10.010   3.254  10.865  0.0464 -0.3425 -0.9486
  946MOL0     H27665  10.082   3.095  10.884  0.8837  1.4893 -0.1623
  946MOL0     H27666   9.888   3.168  11.093  0.8842  0.4794  0.2156
  946MOL0     H27667  10.060   3.227  11.098  1.5439 -0.4825 -1.9320
  946MOL0     H27668   9.993   2.943  11.036 -2.3421 -0.1466 -0.6469
  946MOL0     H27669   9.947   2.990  11.203  2.4011 -0.2707  0.6848
  946MOL0     H27670  10.047   2.761  11.198 -1.9907 -0.1138  2.0754
  946MOL0     H27671  10.055   2.524  11.413 -5.0388  0.5497 -3.5371
  946MOL0     H27672  10.053   2.543  11.238 -2.0987 -0.9503  0.9641
  946MOL0     H27673  10.197   2.475  11.319 -1.6419 -2.4116  3.2769
  946MOL0     H27674  10.481   2.491  11.802  0.3260 -1.8133  1.2112
  946MOL0     H27675  10.679   2.404  11.879 -3.2991 -0.2856  0.3428
  946MOL0     H27676  10.894   2.625  11.947  0.9664 -0.4956  1.0130
  946MOL0     H27677  10.958   2.463  11.993 -1.0728  0.7423  0.5626
  946MOL0     H27678  11.113   2.678  11.848  1.8599  0.3285 -0.4174
  946MOL0     H27679  11.145   2.619  12.014 -0.6420 -1.1164  0.8200
  946MOL0     H27680  11.191   2.472  11.747 -1.3012  0.0724  0.2852
  946MOL0     H27681  11.171   2.385  11.902  3.1940 -1.4639 -0.0962
  946MOL0     H27682  11.384   2.596  11.844  2.8479  0.5925  1.0741
  946MOL0     H27683  11.362   2.524  11.998 -2.7143 -3.7050  0.6787
  946MOL0     H27684  11.541   2.414  11.865 -0.4755  1.2558 -1.6947
  946MOL0     H27685  11.425   2.357  11.747  0.4950 -0.9781  0.7658
  946MOL0     H27686  11.447   2.282  12.039  0.8431  2.5624  0.0101
  946MOL0     H27687  11.313   2.219  11.926 -1.8978  4.4083  1.4982
  946MOL0     H27688  11.619   2.190  11.886 -0.2004  1.1400  2.8910
  946MOL0     H27689  11.482   2.133  11.776  0.5825  1.2792 -0.4167
  946MOL0     H27690  11.556   1.940  11.887 -1.0691 -1.0256 -0.1902
  946MOL0     H27691  11.402   1.981  11.955  0.0651  1.9199 -0.5462
  946MOL0     H27692  10.893   2.625  11.575 -2.2325  0.1807 -2.8452
  946MOL0     H27693  10.694   2.728  11.501  2.2646  0.9934  1.0086
  946MOL0     H27694  10.440   2.869  11.468  1.4103 -3.0459 -1.0892
  946MOL0     H27695  10.320   3.043  11.349 -2.7331  0.8447  2.8672
  946MOL0     H27696   8.407   3.094  10.911 -0.6657 -1.9323 -0.0332
  946MOL0     H27697   8.184   3.099  11.003 -1.2864 -1.9510  0.1526
  946MOL0     H27698   7.883   3.303  11.271  0.1581 -1.7593  1.5869
  946MOL0     H27699   7.655   3.283  11.362  0.7216 -0.2374 -0.1036
  946MOL0     H27700   7.302   3.339  11.110 -4.1408 -0.8365 -0.1857
  946MOL0     H27701   7.310   3.171  11.068 -1.4876  0.6900 -0.9346
  946MOL0     H27702   7.197   3.288  11.331  0.8403  0.1484  0.3163
  946MOL0     H27703   7.214   3.108  11.297 -2.3873  0.3080  0.0061
  946MOL0     H27704   6.997   3.148  11.230 -0.6091  0.4249 -1.3367
  946MOL0     H27705   7.081   3.146  11.075 -2.0145  1.6746 -1.6509
  946MOL0     H27706   7.090   3.388  11.091 -2.7145  2.2249 -1.7899
  946MOL0     H27707   6.970   3.376  11.228 -1.1042 -1.1202  0.1034
  946MOL0     H27708   6.765   3.324  10.851 -3.3103 -2.0963  1.6564
  946MOL0     H27709   7.503   3.196  10.962  1.1878  0.4075 -0.1485
  946MOL0     H27710   7.716   3.193  10.884 -2.9399  0.2456 -0.4704
  947MOL0     O27711   5.281   0.338   4.088 -0.0909 -0.5512  0.0242
  947MOL0     C27712   5.387   0.310   4.031  0.4228  0.0762 -0.0667
  947MOL0     O27713   5.423   0.197   3.956 -0.1723  0.0917  0.0006
  947MOL0     C27714   5.338   0.087   3.946  1.3860  1.2495 -0.6440
  947MOL0     C27715   5.373  -0.035   4.014  0.2123 -0.0679  0.0062
  947MOL0     C27716   5.285  -0.144   4.005 -0.4199  0.2082 -0.1008
  947MOL0     C27717   5.184  -0.147   3.910 -0.7363 -0.1395  0.2458
  947MOL0     O27718   5.109  -0.255   3.874  0.1147  0.7651 -0.7450
  947MOL0     C27719   5.098  -0.356   3.977 -0.0284 -0.2161  0.6302
  947MOL0     C27720   5.018  -0.475   3.914 -0.1107  0.1715  0.6258
  947MOL0     C27721   4.962  -0.575   4.017 -0.5292  1.0247  0.3753
  947MOL0     C27722   4.822  -0.634   3.976 -0.0346 -0.6583  0.0103
  947MOL0     C27723   4.842  -0.730   3.859  0.3261  0.7187 -0.0317
  947MOL0     C27724   4.711  -0.813   3.842  1.1627 -0.5379 -0.1637
  947MOL0     C27725   4.695  -0.871   3.698  0.7893 -0.4782 -0.0154
  947MOL0     C27726   4.811  -0.962   3.666 -0.7963 -0.5156 -1.2880
  947MOL0     N27727   4.929  -0.887   3.621  0.1280 -1.1769 -0.3513
  947MOL0     C27728   4.915  -0.784   3.534  0.5230  0.1895 -0.1395
  947MOL0     C27729   5.032  -0.716   3.559  0.4550 -0.4148 -0.1809
  947MOL0     C27730   5.070  -0.587   3.494  0.7692  0.3327 -0.0988
  947MOL0     C27731   5.152  -0.604   3.375  0.1532  0.0167 -0.3099
  947MOL0     C27732   5.204  -0.463   3.340 -1.3964 -0.7469  0.3029
  947MOL0     C27733   5.334  -0.462   3.236  0.6214  0.7862 -0.3401
  947MOL0     O27734   5.398  -0.335   3.249  0.3278 -0.1860 -0.8914
  947MOL0     C27735   5.507  -0.308   3.176 -0.0039  0.1003  0.3269
  947MOL0     C27736   5.553  -0.178   3.164 -0.1506  0.3557 -0.4992
  947MOL0     C27737   5.674  -0.144   3.103  0.3842  0.3448  1.2577
  947MOL0     C27738   5.703  -0.001   3.077  0.2893 -0.6796  1.0324
  947MOL0     C27739   5.766  -0.244   3.070 -0.4748 -0.0489  1.0665
  947MOL0     C27740   5.895  -0.218   3.006  0.0867 -0.8425 -0.1931
  947MOL0     O27741   5.967  -0.113   3.041  0.6823 -0.3578 -0.3128
  947MOL0     C27742   6.086  -0.094   2.973 -0.2428 -0.4672 -0.6506
  947MOL0     C27743   6.091  -0.042   2.844  0.3872  0.3846 -0.0676
  947MOL0     C27744   6.213  -0.029   2.779  1.2645  0.2338  0.0454
  947MOL0     C27745   6.326  -0.079   2.832 -0.9088  0.2486 -1.2873
  947MOL0     O27746   6.444  -0.076   2.769 -0.2691 -0.0319  0.4436
  947MOL0     C27747   6.500  -0.198   2.710  0.5477 -0.0442 -0.0618
  947MOL0     C27748   6.591  -0.157   2.596  0.8428  0.2898  0.5831
  947MOL0     C27749   6.529  -0.092   2.472  0.6766 -0.0202  1.2709
  947MOL0     C27750   6.421  -0.165   2.403 -1.0664 -0.6555 -0.7632
  947MOL0     C27751   6.341  -0.076   2.290  0.6757  0.2527 -0.1634
  947MOL0     C27752   6.199  -0.133   2.261  0.0976 -0.5463 -0.1818
  947MOL0     C27753   6.111  -0.135   2.395 -0.3962  0.1545  0.3413
  947MOL0     C27754   5.968  -0.173   2.360 -0.5970  0.2083 -0.0526
  947MOL0    Cl27755   5.857  -0.165   2.506  0.0535 -0.5536 -0.2826
  947MOL0     C27756   6.326  -0.129   2.965 -0.0810  0.1329  0.6243
  947MOL0     C27757   6.208  -0.131   3.033  0.4582  0.0098 -0.8240
  947MOL0     O27758   5.933  -0.299   2.922  0.4275  0.0021 -0.5342
  947MOL0     C27759   5.711  -0.372   3.073  0.0649  0.4210  0.3514
  947MOL0     C27760   5.590  -0.409   3.118  0.0817 -0.3402  0.4261
  947MOL0     N27761   5.121  -0.787   3.646  0.9599 -0.3621  0.1653
  947MOL0     N27762   5.055  -0.898   3.672 -0.5491 -0.7482 -0.6073
  947MOL0     C27763   5.155  -0.026   3.840 -0.5753  0.5417  0.2720
  947MOL0     C27764   5.226   0.088   3.863  0.1069  0.0621  0.5532
  947MOL0     C27765   5.503   0.395   4.071 -0.4057 -0.3709  0.1721
  947MOL0     C27766   5.629   0.377   4.018 -0.2748  0.9441  0.6895
  947MOL0     C27767   5.738   0.468   4.035 -0.0427 -0.2087 -0.9869
  947MOL0     C27768   5.715   0.589   4.106 -0.2746  1.0400 -0.2478
  947MOL0     O27769   5.819   0.678   4.104  0.0160 -0.2689 -0.1421
  947MOL0     C27770   5.798   0.800   4.178  1.0055  0.3730  0.4168
  947MOL0     C27771   5.809   0.771   4.322 -0.5529 -0.0627  0.2165
  947MOL0     C27772   5.961   0.765   4.355  0.5850 -0.3463 -0.2907
  947MOL0     C27773   5.979   0.758   4.508 -0.5831  0.7352 -0.2891
  947MOL0     C27774   5.975   0.893   4.564  0.3776  0.0547 -0.1562
  947MOL0     C27775   5.964   1.005   4.600  1.3284 -0.1240  0.3031
  947MOL0     C27776   5.593   0.599   4.169 -0.0171  0.7800  0.0558
  947MOL0     C27777   5.488   0.504   4.146  0.5163  0.3779 -0.0603
  947MOL0     H27778   5.467  -0.025   4.068 -0.2804  1.9335  0.5861
  947MOL0     H27779   5.319  -0.231   4.061  2.6449  1.1289 -0.3815
  947MOL0     H27780   5.196  -0.396   4.004  0.1926  0.9069  1.5475
  947MOL0     H27781   5.050  -0.322   4.070  1.8604  0.0082  1.5578
  947MOL0     H27782   4.939  -0.421   3.861  1.2093 -0.3105 -1.9655
  947MOL0     H27783   5.076  -0.535   3.843 -2.8516 -1.0607 -0.7477
  947MOL0     H27784   5.040  -0.642   4.052  0.9059  0.8626 -2.7964
  947MOL0     H27785   4.932  -0.506   4.097 -4.1159 -0.1908  0.2912
  947MOL0     H27786   4.788  -0.688   4.065 -1.9774 -0.1188 -0.3621
  947MOL0     H27787   4.751  -0.552   3.966  2.6851  2.2267  2.2514
  947MOL0     H27788   4.854  -0.666   3.771  2.7961 -1.4070 -1.3440
  947MOL0     H27789   4.928  -0.796   3.869  0.3904  1.0726  2.4766
  947MOL0     H27790   4.711  -0.898   3.912 -1.4125  0.4993  1.2433
  947MOL0     H27791   4.621  -0.756   3.866  0.7350 -1.4534  0.4744
  947MOL0     H27792   4.599  -0.923   3.699 -0.3644  1.5517  0.2464
  947MOL0     H27793   4.673  -0.809   3.610 -3.5094 -2.6497 -0.7405
  947MOL0     H27794   4.793  -1.032   3.584  0.7197  3.1986 -5.1467
  947MOL0     H27795   4.834  -1.019   3.757  3.5582  0.4917 -1.5320
  947MOL0     H27796   4.837  -0.756   3.464  1.5300  0.5527 -1.1425
  947MOL0     H27797   4.981  -0.530   3.466  0.1034  0.5875  2.3403
  947MOL0     H27798   5.131  -0.539   3.571 -0.5736  1.4583  0.3038
  947MOL0     H27799   5.093  -0.628   3.286 -0.6231  2.4720 -0.5590
  947MOL0     H27800   5.227  -0.683   3.383 -0.3515 -0.4127  0.2137
  947MOL0     H27801   5.234  -0.407   3.429  0.2398 -3.5944  1.7049
  947MOL0     H27802   5.117  -0.419   3.291 -2.9146 -3.0209  0.7801
  947MOL0     H27803   5.299  -0.484   3.135  1.5823 -0.1359 -0.4845
  947MOL0     H27804   5.398  -0.546   3.263  0.1365 -0.1071 -1.8689
  947MOL0     H27805   5.481  -0.099   3.185 -1.0816 -1.1266  2.3019
  947MOL0     H27806   5.605   0.047   3.072  0.1601 -1.0009  0.3755
  947MOL0     H27807   5.763   0.052   3.152  0.7262  0.6946 -0.2506
  947MOL0     H27808   5.747   0.007   2.977  1.3225 -4.2740  1.0690
  947MOL0     H27809   6.005  -0.024   2.780  0.4404 -1.5899 -0.7882
  947MOL0     H27810   6.194   0.021   2.685  0.2804 -0.5485 -0.1926
  947MOL0     H27811   6.557  -0.257   2.782  0.4304  1.4712  1.3230
  947MOL0     H27812   6.419  -0.257   2.666  2.7141 -1.0290 -3.0809
  947MOL0     H27813   6.659  -0.084   2.640  0.0076 -0.0612  2.5880
  947MOL0     H27814   6.665  -0.235   2.576  0.6250  0.7214 -2.3767
  947MOL0     H27815   6.609  -0.055   2.407  0.6453  0.3418  1.4357
  947MOL0     H27816   6.492   0.003   2.511  0.9233 -0.5287  2.8237
  947MOL0     H27817   6.452  -0.263   2.364 -3.2929 -0.6894 -2.6770
  947MOL0     H27818   6.352  -0.182   2.486  0.1242 -0.8986  0.2170
  947MOL0     H27819   6.400  -0.092   2.199  0.3971 -2.3720  0.0269
  947MOL0     H27820   6.335   0.030   2.315 -2.2386 -0.3611  2.3544
  947MOL0     H27821   6.147  -0.059   2.200 -0.6438 -0.4855  0.5063
  947MOL0     H27822   6.198  -0.235   2.223  0.1554 -0.6294  0.0400
  947MOL0     H27823   6.111  -0.045   2.457 -0.2006  0.4254 -0.0495
  947MOL0     H27824   6.142  -0.217   2.460 -0.9713 -0.2821  0.0761
  947MOL0     H27825   5.974  -0.278   2.327 -0.9214  0.1649  0.0274
  947MOL0     H27826   5.920  -0.115   2.280 -2.6570 -1.1005  0.1638
  947MOL0     H27827   6.419  -0.173   2.997  1.5817  2.4532 -0.7521
  947MOL0     H27828   6.193  -0.175   3.132 -1.6886  0.9689 -0.6580
  947MOL0     H27829   5.781  -0.450   3.047 -1.4599  0.0045 -3.0661
  947MOL0     H27830   5.576  -0.516   3.134  1.2072 -0.5395  0.1879
  947MOL0     H27831   5.079  -0.034   3.763 -1.2701 -2.5014  1.1303
  947MOL0     H27832   5.206   0.172   3.797 -1.6058 -1.5790 -1.1780
  947MOL0     H27833   5.649   0.293   3.951 -2.4792  1.8482 -1.2416
  947MOL0     H27834   5.827   0.472   3.973  0.1160  0.2928 -0.7227
  947MOL0     H27835   5.864   0.879   4.144  0.4416  1.5385  1.9532
  947MOL0     H27836   5.697   0.836   4.156  0.5588 -2.3001 -2.8225
  947MOL0     H27837   5.757   0.679   4.351 -1.2961 -1.2094 -3.9793
  947MOL0     H27838   5.771   0.859   4.375 -0.5309 -0.0426  0.1988
  947MOL0     H27839   6.005   0.863   4.336 -1.6203  0.9615  0.9082
  947MOL0     H27840   6.002   0.684   4.294 -0.5964  0.6251 -2.4941
  947MOL0     H27841   6.066   0.703   4.544 -0.1141  0.4484 -1.8080
  947MOL0     H27842   5.894   0.702   4.547  0.8630 -0.0941  1.8370
  947MOL0     H27843   5.941   1.109   4.616  2.6055 -0.2062  3.3794
  947MOL0     H27844   5.563   0.686   4.226 -1.9975 -2.0984  3.8279
  947MOL0     H27845   5.392   0.535   4.186 -0.8478 -1.8397 -1.4392
  948MOL0     O27846   6.054   2.425   7.672 -0.5480  0.1990  0.2167
  948MOL0     C27847   6.136   2.455   7.585  0.7109 -0.2213 -0.3913
  948MOL0     O27848   6.126   2.566   7.506  0.8295  0.3141  0.1315
  948MOL0     C27849   6.031   2.663   7.533  0.7684 -0.1924  0.7152
  948MOL0     C27850   5.910   2.645   7.481  0.4792 -0.3818  1.1542
  948MOL0     C27851   5.807   2.733   7.502  0.0977 -0.4739  0.7461
  948MOL0     C27852   5.825   2.847   7.584 -0.2887  0.2139 -0.5051
  948MOL0     O27853   5.715   2.925   7.593 -0.2152  0.7670 -0.5398
  948MOL0     C27854   5.717   3.008   7.711  0.3620  0.2748 -0.6177
  948MOL0     C27855   5.580   3.064   7.739 -0.9172  0.3724  0.4475
  948MOL0     C27856   5.518   3.157   7.636 -0.5398 -0.4085  0.0017
  948MOL0     C27857   5.372   3.201   7.673  0.7527 -0.4543 -0.0985
  948MOL0     C27858   5.308   3.304   7.583  0.2346 -0.1491  0.9817
  948MOL0     C27859   5.304   3.263   7.434  0.4648 -1.0440 -0.3515
  948MOL0     C27860   5.226   3.356   7.345  0.6655 -0.6936 -0.1469
  948MOL0     C27861   5.103   3.416   7.407 -0.4258 -0.2563  0.2717
  948MOL0     N27862   5.038   3.515   7.315 -0.1502  0.6982  0.1190
  948MOL0     C27863   5.084   3.638   7.292 -0.3067  0.4474  0.5031
  948MOL0     C27864   5.002   3.693   7.203 -0.4657 -0.3578  0.1070
  948MOL0     C27865   5.003   3.841   7.143  0.1073  0.1768 -0.8680
  948MOL0     C27866   5.033   3.855   6.997 -0.8839 -0.2153  0.2800
  948MOL0     C27867   5.163   3.772   6.967 -0.0103 -0.6820  0.9727
  948MOL0     C27868   5.181   3.752   6.812 -0.6911  0.2837  0.1397
  948MOL0     O27869   5.229   3.869   6.750 -0.2997 -0.0728  0.7061
  948MOL0     C27870   5.153   3.945   6.663  0.6168 -0.9831  0.3184
  948MOL0     C27871   5.214   4.044   6.587 -0.1946  0.1466 -0.1358
  948MOL0     C27872   5.148   4.126   6.490 -0.4519  0.0639  0.4217
  948MOL0     C27873   5.227   4.242   6.432  0.2421 -0.7507  0.4045
  948MOL0     C27874   5.005   4.117   6.483 -0.1722 -0.4848  0.4391
  948MOL0     C27875   4.920   4.213   6.396 -0.2008  0.9305 -0.5496
  948MOL0     O27876   4.966   4.248   6.271 -0.5677 -0.0228  0.0381
  948MOL0     C27877   4.894   4.316   6.174  0.1866 -0.1399 -0.0077
  948MOL0     C27878   4.966   4.390   6.078  0.0896 -0.3712 -0.3229
  948MOL0     C27879   4.909   4.469   5.978  0.3252  0.5680 -0.0492
  948MOL0     C27880   4.769   4.473   5.980  0.1086 -0.6417  0.1224
  948MOL0     O27881   4.691   4.546   5.898 -0.4161  0.4344 -0.7817
  948MOL0     C27882   4.748   4.594   5.783 -0.0287 -0.2448  1.2646
  948MOL0     C27883   4.636   4.624   5.682 -0.0494  0.2079 -0.5417
  948MOL0     C27884   4.521   4.701   5.739 -0.5640 -0.2549  0.5840
  948MOL0     C27885   4.513   4.842   5.671  0.2126 -1.8971 -0.0581
  948MOL0     C27886   4.402   4.929   5.728  0.3234 -0.4543 -0.1891
  948MOL0     C27887   4.275   4.874   5.677  1.2595 -0.7626  0.6596
  948MOL0     C27888   4.161   4.933   5.767  0.0566  0.2032 -0.1991
  948MOL0     C27889   4.023   4.878   5.738  0.0520  0.5557 -0.5693
  948MOL0    Cl27890   3.902   4.946   5.841 -0.0514 -0.4463 -0.0094
  948MOL0     C27891   4.692   4.399   6.068  0.2475  0.2183 -0.5369
  948MOL0     C27892   4.756   4.307   6.160  1.0970  0.0804 -0.2222
  948MOL0     O27893   4.811   4.245   6.449 -0.3831 -0.8206  0.1464
  948MOL0     C27894   4.938   4.028   6.569 -0.5287  0.6766  0.8189
  948MOL0     C27895   5.014   3.942   6.658  0.2661  0.3366 -0.4623
  948MOL0     N27896   4.908   3.592   7.163 -0.1587  0.1261 -0.0085
  948MOL0     N27897   4.937   3.491   7.219  0.0679 -0.1479  0.3675
  948MOL0     C27898   5.954   2.872   7.622  0.4176  0.4018  0.2203
  948MOL0     C27899   6.065   2.777   7.604  0.6720 -0.7682 -0.2754
  948MOL0     C27900   6.260   2.365   7.573 -0.1779 -0.1678 -0.7520
  948MOL0     C27901   6.373   2.409   7.500  0.1362  0.1453  0.0615
  948MOL0     C27902   6.480   2.318   7.484 -0.0882  0.1411 -0.0754
  948MOL0     C27903   6.482   2.199   7.558  0.7461  0.4616 -0.6588
  948MOL0     O27904   6.593   2.110   7.558  0.6034  0.5294 -0.2490
  948MOL0     C27905   6.622   2.063   7.427 -0.0280 -0.7989  0.0785
  948MOL0     C27906   6.646   1.916   7.430  0.2342 -0.1617  0.1001
  948MOL0     C27907   6.505   1.851   7.428  0.2067  0.2172  0.2313
  948MOL0     C27908   6.503   1.697   7.419 -0.0135 -0.0517 -0.4718
  948MOL0     C27909   6.575   1.648   7.539  0.9292 -0.1725 -1.1066
  948MOL0     C27910   6.633   1.629   7.639  0.0168  0.0023  0.1016
  948MOL0     C27911   6.373   2.158   7.628 -0.0138 -0.3853 -1.2361
  948MOL0     C27912   6.257   2.240   7.636 -0.1421  0.4629 -1.3649
  948MOL0     H27913   5.886   2.552   7.430 -1.3696  0.6461  0.0394
  948MOL0     H27914   5.715   2.705   7.453  1.4974 -3.2076 -0.5405
  948MOL0     H27915   5.739   2.952   7.802 -1.3112 -0.0846 -0.4104
  948MOL0     H27916   5.787   3.092   7.710  0.6995  0.0026 -1.3546
  948MOL0     H27917   5.506   2.984   7.749 -0.8936  0.2105 -0.5759
  948MOL0     H27918   5.588   3.117   7.835 -0.1162 -0.4793  0.8671
  948MOL0     H27919   5.581   3.246   7.634 -2.8710  1.4364  2.4511
  948MOL0     H27920   5.513   3.109   7.538  1.7206  0.8153 -0.7731
  948MOL0     H27921   5.309   3.111   7.670 -0.4056  0.2868  0.8919
  948MOL0     H27922   5.362   3.245   7.773 -1.8803 -0.8111 -0.1146
  948MOL0     H27923   5.207   3.312   7.625 -0.9477 -0.3502 -1.6652
  948MOL0     H27924   5.357   3.401   7.579 -0.5431  0.1999 -1.3189
  948MOL0     H27925   5.404   3.253   7.390 -0.4549 -0.4605 -2.7271
  948MOL0     H27926   5.269   3.160   7.420 -0.5171 -0.3785 -3.4988
  948MOL0     H27927   5.294   3.438   7.321  1.7329 -1.4185  0.3101
  948MOL0     H27928   5.196   3.298   7.258  1.7534  1.9256 -2.4134
  948MOL0     H27929   5.127   3.473   7.497 -1.0387  0.7881 -0.2061
  948MOL0     H27930   5.036   3.336   7.439  0.9522 -1.1370  1.0580
  948MOL0     H27931   5.167   3.682   7.347 -0.9021 -2.6065  4.3550
  948MOL0     H27932   4.909   3.889   7.173  0.7921 -0.3209  2.4409
  948MOL0     H27933   5.078   3.899   7.197  0.1364  3.3436 -3.9729
  948MOL0     H27934   5.035   3.960   6.968 -2.8888 -0.1957  0.0426
  948MOL0     H27935   4.946   3.804   6.954 -1.1139 -0.4350  0.9812
  948MOL0     H27936   5.178   3.675   7.015  0.3674 -1.5529 -0.8355
  948MOL0     H27937   5.244   3.838   6.999 -0.5568  0.4315  0.1323
  948MOL0     H27938   5.091   3.709   6.767 -0.9572  1.5009 -0.5464
  948MOL0     H27939   5.261   3.684   6.782  0.3364  0.9316  1.3249
  948MOL0     H27940   5.321   4.055   6.605  0.2985 -1.9031 -1.4643
  948MOL0     H27941   5.332   4.209   6.428  1.1013  1.8214 -1.9670
  948MOL0     H27942   5.205   4.251   6.325 -2.0959 -1.1913  0.8142
  948MOL0     H27943   5.210   4.340   6.477 -0.4577  0.6277 -2.5753
  948MOL0     H27944   5.071   4.371   6.097  0.2666 -0.5213 -1.4258
  948MOL0     H27945   4.966   4.521   5.903  1.1640 -0.2859 -0.0097
  948MOL0     H27946   4.802   4.685   5.812  1.5396 -1.1945  1.4389
  948MOL0     H27947   4.819   4.522   5.741  0.4640 -0.5201  2.5292
  948MOL0     H27948   4.688   4.672   5.598  0.2263 -0.1744 -0.5881
  948MOL0     H27949   4.598   4.526   5.652  2.1366 -0.9691  0.3370
  948MOL0     H27950   4.530   4.704   5.848 -0.7376 -2.3611  0.7007
  948MOL0     H27951   4.428   4.644   5.731 -1.7137  1.6865 -0.9611
  948MOL0     H27952   4.611   4.888   5.689 -1.1312  1.3322 -0.4569
  948MOL0     H27953   4.497   4.823   5.565  1.0793 -2.2341 -0.1376
  948MOL0     H27954   4.404   5.034   5.697 -1.2358 -1.0311 -2.5871
  948MOL0     H27955   4.407   4.918   5.836  1.8395  0.9901 -0.0748
  948MOL0     H27956   4.254   4.907   5.575 -1.3602  1.5741  1.8421
  948MOL0     H27957   4.266   4.765   5.678  4.3716 -1.1320 -0.5507
  948MOL0     H27958   4.159   5.040   5.748  0.0495 -0.1569 -2.5730
  948MOL0     H27959   4.178   4.917   5.874 -0.2874 -0.6554 -0.2650
  948MOL0     H27960   4.027   4.771   5.758 -1.3574  0.3981 -0.9874
  948MOL0     H27961   4.005   4.888   5.630  0.6388  0.3737 -0.6867
  948MOL0     H27962   4.587   4.421   6.080 -0.0065 -0.3945 -1.5082
  948MOL0     H27963   4.689   4.255   6.228  1.1352  0.3693  0.0364
  948MOL0     H27964   4.829   4.025   6.568 -0.6256  2.4995 -1.1258
  948MOL0     H27965   4.963   3.869   6.720  0.9631 -0.7043 -1.0878
  948MOL0     H27966   5.977   2.963   7.676  0.8650 -2.0158  4.5953
  948MOL0     H27967   6.166   2.794   7.640  1.0090 -1.2378 -0.9725
  948MOL0     H27968   6.387   2.502   7.444  1.3355 -0.1496 -0.1751
  948MOL0     H27969   6.568   2.343   7.426 -0.3604  0.0189 -0.5574
  948MOL0     H27970   6.545   2.085   7.352  0.9584  1.2447 -0.4019
  948MOL0     H27971   6.714   2.115   7.397 -0.4443  1.4258  2.3570
  948MOL0     H27972   6.708   1.887   7.515 -1.1309  0.5266  1.3856
  948MOL0     H27973   6.705   1.890   7.342 -0.2685 -2.3615  0.3345
  948MOL0     H27974   6.444   1.893   7.348 -1.0484  0.6849  1.3901
  948MOL0     H27975   6.457   1.874   7.524  0.5833 -0.2961  0.5526
  948MOL0     H27976   6.551   1.665   7.326 -0.4517  0.9618 -1.0628
  948MOL0     H27977   6.401   1.656   7.425 -0.1040 -0.0596 -1.7099
  948MOL0     H27978   6.688   1.606   7.727 -2.3256 -0.5937  1.5093
  948MOL0     H27979   6.388   2.061   7.674 -3.0495 -0.7276 -0.7533
  948MOL0     H27980   6.182   2.202   7.705  1.8564 -2.1612 -0.4629
  949MOL0     O27981   2.948   5.962  10.506 -0.4440  0.5527  0.0263
  949MOL0     C27982   3.015   6.051  10.454 -0.1061 -0.3958 -0.7993
  949MOL0     O27983   2.951   6.160  10.389 -0.1740 -0.3291 -0.3470
  949MOL0     C27984   2.840   6.221  10.449 -0.9293 -0.3078 -0.6913
  949MOL0     C27985   2.825   6.212  10.592 -0.6198 -0.5762  0.5176
  949MOL0     C27986   2.703   6.269  10.642 -0.3650  0.6206 -0.2179
  949MOL0     C27987   2.606   6.331  10.560 -0.3438  0.1312 -0.2868
  949MOL0     O27988   2.488   6.377  10.624 -0.6008 -0.0908  0.1998
  949MOL0     C27989   2.394   6.455  10.542 -0.5132 -0.5416  0.0817
  949MOL0     C27990   2.267   6.461  10.638  0.4043  0.4026  0.0769
  949MOL0     C27991   2.152   6.548  10.577 -0.3074  0.8856  0.3413
  949MOL0     C27992   2.034   6.543  10.672 -0.0260 -0.5362  0.3834
  949MOL0     C27993   1.903   6.556  10.600  0.8223  1.2259  0.1217
  949MOL0     C27994   1.783   6.532  10.691  1.2082 -0.1345  0.3245
  949MOL0     C27995   1.645   6.566  10.634 -0.4121 -0.2858 -0.1044
  949MOL0     C27996   1.541   6.552  10.742 -0.5660 -0.5500 -0.0503
  949MOL0     N27997   1.409   6.592  10.696  0.1088 -0.8696 -1.3380
  949MOL0     C27998   1.333   6.696  10.749 -0.7707  0.8472  0.4961
  949MOL0     C27999   1.230   6.707  10.668  0.9855  0.6797 -0.1142
  949MOL0     C28000   1.120   6.812  10.664  0.2031  1.5255 -0.0015
  949MOL0     C28001   1.002   6.763  10.747  0.3625  1.0143 -0.4869
  949MOL0     C28002   0.919   6.882  10.800 -0.2729 -0.0190 -0.2779
  949MOL0     C28003   0.862   6.967  10.684 -0.0245  0.4082  0.5158
  949MOL0     O28004   0.842   7.109  10.725  0.0903  0.2318 -0.0305
  949MOL0     C28005   0.721   7.158  10.737  0.5125 -0.0539  1.2254
  949MOL0     C28006   0.603   7.081  10.714  0.0062 -0.0169  0.1329
  949MOL0     C28007   0.476   7.131  10.718 -1.0971 -0.4792 -0.0838
  949MOL0     C28008   0.362   7.039  10.677 -0.0800  0.1989  0.4224
  949MOL0     C28009   0.465   7.269  10.757  0.2443 -0.4352  0.0235
  949MOL0     C28010   0.335   7.341  10.761 -0.7628 -0.2169 -0.2338
  949MOL0     O28011   0.315   7.437  10.859 -0.0308  0.3165  0.3883
  949MOL0     C28012   0.185   7.482  10.878  0.3635  0.5826 -0.0964
  949MOL0     C28013   0.069   7.405  10.851 -0.4352 -0.2138  0.6543
  949MOL0     C28014  -0.054   7.470  10.866 -0.7575  1.1039  0.0036
  949MOL0     C28015  -0.062   7.602  10.914 -0.7741  0.2262  0.9028
  949MOL0     O28016  -0.194   7.651  10.908 -0.2123 -0.2422  0.0439
  949MOL0     C28017  -0.204   7.787  10.883 -0.1562  0.6993 -0.1768
  949MOL0     C28018  -0.344   7.846  10.916  0.4846  0.4355 -0.7447
  949MOL0     C28019  -0.360   7.983  10.841 -1.0154 -0.5084  0.0029
  949MOL0     C28020  -0.502   8.028  10.868 -0.0021  0.4975 -0.4435
  949MOL0     C28021  -0.516   8.173  10.829 -0.3089  0.8235 -0.6189
  949MOL0     C28022  -0.660   8.223  10.856 -0.5273  0.5705 -0.5650
  949MOL0     C28023  -0.712   8.330  10.766  0.6783  0.4743  0.4720
  949MOL0     C28024  -0.628   8.460  10.771 -0.5172  0.8192  0.3593
  949MOL0    Cl28025  -0.629   8.526  10.947 -0.7372 -0.1020  0.5640
  949MOL0     C28026   0.059   7.667  10.960  0.2102  0.6090 -0.4529
  949MOL0     C28027   0.186   7.604  10.944  0.1685  0.5281  0.3457
  949MOL0     O28028   0.258   7.307  10.668 -0.6804 -0.2499 -0.3133
  949MOL0     C28029   0.583   7.338  10.802 -0.6386 -0.7952  0.3256
  949MOL0     C28030   0.709   7.284  10.790 -0.9181  0.3828  0.4528
  949MOL0     N28031   1.240   6.610  10.569 -0.3944 -0.0994  0.2390
  949MOL0     N28032   1.344   6.544  10.590  0.4505 -0.3976 -1.0360
  949MOL0     C28033   2.639   6.351  10.428  0.4040 -0.3622  0.4109
  949MOL0     C28034   2.754   6.299  10.374 -1.2808  1.2800  0.2505
  949MOL0     C28035   3.150   6.021  10.438  0.1497 -0.1464  0.6004
  949MOL0     C28036   3.213   5.914  10.506 -1.0007 -0.6985 -0.1622
  949MOL0     C28037   3.342   5.887  10.483 -0.5975  0.2443 -0.8071
  949MOL0     C28038   3.424   5.956  10.396  0.1998 -0.2242  0.1388
  949MOL0     O28039   3.560   5.930  10.377  0.3141 -0.2057 -0.3310
  949MOL0     C28040   3.620   5.879  10.487  0.3485  0.0835 -0.0402
  949MOL0     C28041   3.768   5.883  10.482 -0.6949 -0.2708 -0.0755
  949MOL0     C28042   3.816   5.786  10.369  0.4960 -0.3987 -1.1550
  949MOL0     C28043   3.929   5.700  10.419  0.8171  0.8551  0.0133
  949MOL0     C28044   4.057   5.778  10.431 -0.5419  1.1525  0.8189
  949MOL0     C28045   4.141   5.861  10.434  0.1688 -0.0107  0.4161
  949MOL0     C28046   3.375   6.065  10.330 -0.1042 -0.8474 -0.3182
  949MOL0     C28047   3.235   6.101  10.349 -0.4713  0.0672 -0.1052
  949MOL0     H28048   2.896   6.159  10.655  0.3415 -0.1900 -0.2189
  949MOL0     H28049   2.678   6.279  10.747 -1.0805  1.6962 -0.4765
  949MOL0     H28050   2.445   6.549  10.519 -0.4191 -0.5311  0.3411
  949MOL0     H28051   2.361   6.393  10.458 -3.4813 -1.9583  2.1268
  949MOL0     H28052   2.227   6.362  10.664 -2.3692  1.4982  0.3242
  949MOL0     H28053   2.289   6.510  10.733 -0.7006 -0.2480  0.6877
  949MOL0     H28054   2.181   6.652  10.559  0.7887  0.4404 -0.5959
  949MOL0     H28055   2.129   6.506  10.479 -0.3302  1.7994 -0.0517
  949MOL0     H28056   2.032   6.444  10.720  0.1996 -0.0211  1.4867
  949MOL0     H28057   2.034   6.619  10.750 -2.1605 -0.4223  0.3476
  949MOL0     H28058   1.897   6.657  10.558  1.9391  0.9195 -0.8222
  949MOL0     H28059   1.907   6.481  10.521  0.1395 -1.7930  2.7170
  949MOL0     H28060   1.774   6.430  10.729 -0.5589 -0.6059 -1.1712
  949MOL0     H28061   1.781   6.597  10.779 -1.0112 -0.4405  0.5750
  949MOL0     H28062   1.639   6.663  10.584  0.4817 -0.0083  0.3027
  949MOL0     H28063   1.625   6.482  10.567 -0.5075 -1.9260  1.8717
  949MOL0     H28064   1.578   6.616  10.822  1.3080 -1.5842 -0.0263
  949MOL0     H28065   1.533   6.454  10.792 -0.1036  0.7678  2.8055
  949MOL0     H28066   1.361   6.758  10.834  1.4374  1.6888 -0.7712
  949MOL0     H28067   1.157   6.896  10.724 -3.8911  2.8353  1.0068
  949MOL0     H28068   1.100   6.842  10.561 -2.8361  0.4544  0.1824
  949MOL0     H28069   1.038   6.703  10.832 -0.5403  2.5814  1.0755
  949MOL0     H28070   0.943   6.697  10.683 -1.3870  1.9674  0.0727
  949MOL0     H28071   0.987   6.939  10.864  0.6853  1.4523 -2.4968
  949MOL0     H28072   0.825   6.847  10.845 -0.0093 -1.1057 -0.5519
  949MOL0     H28073   0.778   6.910  10.644  1.0104  0.7820 -2.4060
  949MOL0     H28074   0.932   6.971  10.600  1.7354 -2.2911  1.6804
  949MOL0     H28075   0.613   6.975  10.694  0.4997  0.0038  0.2638
  949MOL0     H28076   0.391   6.933  10.672 -1.9231 -0.2965 -0.6676
  949MOL0     H28077   0.284   7.036  10.754  0.8020  5.1480  1.8095
  949MOL0     H28078   0.318   7.078  10.585 -0.2506 -0.7762  0.0694
  949MOL0     H28079   0.059   7.304  10.812  0.1655 -0.2065  0.4599
  949MOL0     H28080  -0.143   7.416  10.836  1.5333 -3.0179 -0.0844
  949MOL0     H28081  -0.130   7.841  10.943  0.7668 -1.4122  0.6828
  949MOL0     H28082  -0.177   7.805  10.779 -3.1181 -3.0835 -1.8889
  949MOL0     H28083  -0.426   7.775  10.902 -1.0590  1.3763  2.6117
  949MOL0     H28084  -0.335   7.878  11.020 -2.7893 -1.6829  0.3470
  949MOL0     H28085  -0.344   7.982  10.732 -2.9581 -0.4895 -0.3256
  949MOL0     H28086  -0.288   8.055  10.881  0.1214  0.4642 -3.3605
  949MOL0     H28087  -0.582   7.978  10.812 -0.1752  1.2886 -0.9088
  949MOL0     H28088  -0.505   8.019  10.977  0.7440  0.3432 -0.4313
  949MOL0     H28089  -0.485   8.179  10.725 -1.2506  0.7091 -0.9170
  949MOL0     H28090  -0.446   8.236  10.886 -0.1711 -0.0741  0.2218
  949MOL0     H28091  -0.723   8.134  10.845  2.9546 -2.0922 -0.9738
  949MOL0     H28092  -0.673   8.254  10.960 -2.8968  0.2812 -0.7138
  949MOL0     H28093  -0.811   8.351  10.807  1.6048 -0.2441  3.3896
  949MOL0     H28094  -0.724   8.293  10.664 -3.0555 -0.5476  1.1437
  949MOL0     H28095  -0.667   8.537  10.703 -1.4843  0.0795  0.0512
  949MOL0     H28096  -0.526   8.444  10.734 -0.6521 -0.8986  0.6850
  949MOL0     H28097   0.037   7.751  11.025  3.6032 -0.5912  2.6170
  949MOL0     H28098   0.279   7.648  10.980 -0.3512  0.4558  1.8740
  949MOL0     H28099   0.571   7.443  10.827 -2.5052 -1.1104  0.8747
  949MOL0     H28100   0.794   7.345  10.816 -0.7934 -0.9384  3.6482
  949MOL0     H28101   2.569   6.404  10.364  1.7284 -0.1317 -0.9136
  949MOL0     H28102   2.785   6.297  10.270  2.7612  2.7579  1.2135
  949MOL0     H28103   3.154   5.854  10.575 -1.4999 -0.5673 -0.4703
  949MOL0     H28104   3.376   5.800  10.537 -0.7034  0.1667 -0.8648
  949MOL0     H28105   3.597   5.943  10.573  3.0006 -1.2017  1.7612
  949MOL0     H28106   3.590   5.776  10.505  1.5402 -0.7039 -2.2307
  949MOL0     H28107   3.812   5.855  10.578 -1.7644 -1.1070  0.1892
  949MOL0     H28108   3.811   5.983  10.483 -1.3651  0.0240  0.9388
  949MOL0     H28109   3.847   5.853  10.289  2.0421 -0.4391 -0.6128
  949MOL0     H28110   3.733   5.723  10.335 -0.3176  1.4367 -2.7456
  949MOL0     H28111   3.947   5.609  10.362  1.0794  1.0357 -0.1977
  949MOL0     H28112   3.916   5.664  10.521 -0.7207 -0.8819 -0.7411
  949MOL0     H28113   4.212   5.941  10.444  1.2241 -0.8304 -0.3007
  949MOL0     H28114   3.453   6.114  10.272  2.0783 -2.7625  0.8149
  949MOL0     H28115   3.203   6.191  10.297 -0.7063 -0.7469 -1.4331
  950MOL0     O28116   4.543   9.064   2.740  0.3992  0.2185  0.7516
  950MOL0     C28117   4.656   9.064   2.698  0.3761 -0.0617 -0.0344
  950MOL0     O28118   4.761   9.147   2.744  0.4692  1.0101 -0.0822
  950MOL0     C28119   4.753   9.237   2.851  0.1933 -0.2544  0.6126
  950MOL0     C28120   4.637   9.262   2.924 -0.3674 -1.1990 -0.0229
  950MOL0     C28121   4.643   9.349   3.031 -0.6696  0.0742 -0.1039
  950MOL0     C28122   4.763   9.399   3.083  0.6217 -0.6633  0.2248
  950MOL0     O28123   4.759   9.479   3.198 -0.4320 -0.2267 -1.0629
  950MOL0     C28124   4.890   9.536   3.234  0.1804 -0.6877 -0.6398
  950MOL0     C28125   4.875   9.626   3.363  0.0714  0.1746  0.0678
  950MOL0     C28126   4.835   9.538   3.482  0.2143 -0.1343 -0.5067
  950MOL0     C28127   4.836   9.638   3.601 -0.3692 -0.7290 -0.6260
  950MOL0     C28128   4.767   9.584   3.726  0.0636 -0.3881 -1.0117
  950MOL0     C28129   4.627   9.616   3.737 -0.6559 -0.1500  0.9041
  950MOL0     C28130   4.552   9.578   3.868  0.3678  0.0894 -0.2014
  950MOL0     C28131   4.545   9.420   3.900  0.4007 -0.1871  0.5999
  950MOL0     N28132   4.489   9.376   4.037 -0.4145 -0.1855  1.2021
  950MOL0     C28133   4.367   9.419   4.085 -0.0680 -0.0100  0.4607
  950MOL0     C28134   4.354   9.360   4.207 -0.1991 -0.3611 -0.2399
  950MOL0     C28135   4.248   9.390   4.306 -0.0765 -0.7786 -0.3823
  950MOL0     C28136   4.299   9.455   4.431 -0.1877  0.5469 -0.5760
  950MOL0     C28137   4.340   9.349   4.535 -0.2560  0.4556  1.0274
  950MOL0     C28138   4.404   9.412   4.657 -0.2348  0.2564  0.0778
  950MOL0     O28139   4.378   9.327   4.771 -0.5080 -0.4173  0.5678
  950MOL0     C28140   4.269   9.335   4.857 -0.2436  0.3979  0.4782
  950MOL0     C28141   4.252   9.220   4.932 -0.0274  0.4658 -0.3571
  950MOL0     C28142   4.171   9.217   5.043 -0.2501 -0.5422 -0.4218
  950MOL0     C28143   4.159   9.076   5.095 -0.6959  0.3037 -0.5616
  950MOL0     C28144   4.106   9.345   5.080 -0.2937  0.5993  0.2610
  950MOL0     C28145   4.031   9.360   5.205  0.3778  0.0442 -0.0997
  950MOL0     O28146   4.028   9.255   5.290  0.1187  0.5853  0.2481
  950MOL0     C28147   3.951   9.283   5.398  1.0638  0.5001  0.4497
  950MOL0     C28148   3.990   9.356   5.512  0.4002 -0.8451  1.0775
  950MOL0     C28149   3.912   9.371   5.627  0.5328 -0.4505  0.1666
  950MOL0     C28150   3.789   9.307   5.630  0.4703  0.7694 -0.1791
  950MOL0     O28151   3.706   9.320   5.733 -0.1419 -0.1362 -0.2698
  950MOL0     C28152   3.760   9.351   5.865  1.1632  1.0177  0.5004
  950MOL0     C28153   3.669   9.292   5.976  0.7106 -0.1424  0.2081
  950MOL0     C28154   3.532   9.365   5.990  0.3793  0.1604  0.7045
  950MOL0     C28155   3.422   9.294   6.065 -0.1574  0.0690 -0.2817
  950MOL0     C28156   3.299   9.377   6.103  0.4154  0.2572 -0.5197
  950MOL0     C28157   3.217   9.308   6.212  1.1821 -0.0102 -0.2008
  950MOL0     C28158   3.084   9.388   6.250 -0.3708  0.3765  0.2291
  950MOL0     C28159   3.018   9.323   6.362  1.4137 -0.1677 -0.4104
  950MOL0    Cl28160   2.977   9.151   6.333  0.6857 -0.0324  0.0909
  950MOL0     C28161   3.739   9.238   5.524 -0.1594  1.4577 -0.6411
  950MOL0     C28162   3.820   9.218   5.410  0.1985 -0.7267  0.3145
  950MOL0     O28163   3.979   9.471   5.218  0.1230  0.1681 -0.4246
  950MOL0     C28164   4.114   9.451   4.991 -0.1362 -0.0800  0.3582
  950MOL0     C28165   4.201   9.451   4.887  0.2254  0.8700 -0.2897
  950MOL0     N28166   4.466   9.291   4.230 -0.3669  0.1163 -0.2075
  950MOL0     N28167   4.549   9.302   4.132  0.9121 -0.0871  0.2921
  950MOL0     C28168   4.871   9.373   3.005  0.0471 -0.2415 -0.2586
  950MOL0     C28169   4.866   9.295   2.894  0.2787 -0.4367 -0.3181
  950MOL0     C28170   4.691   8.987   2.578 -0.0558  0.2800  0.3005
  950MOL0     C28171   4.829   8.944   2.548  0.8341  0.2475 -0.2937
  950MOL0     C28172   4.850   8.877   2.430  0.4636 -0.7512 -0.3038
  950MOL0     C28173   4.746   8.844   2.334 -0.2281  0.1179 -1.4928
  950MOL0     O28174   4.761   8.758   2.228 -0.3451  0.5493 -0.4385
  950MOL0     C28175   4.886   8.676   2.222  0.6470  0.4732  0.7958
  950MOL0     C28176   4.902   8.600   2.088 -0.2802 -0.1683 -0.1931
  950MOL0     C28177   4.825   8.467   2.081  0.3809 -0.3598  0.0845
  950MOL0     C28178   4.820   8.418   1.934 -0.7792  0.3873 -0.4330
  950MOL0     C28179   4.711   8.491   1.875 -0.4361 -0.1933  0.2169
  950MOL0     C28180   4.636   8.566   1.825  0.5298 -0.5656 -0.1608
  950MOL0     C28181   4.621   8.903   2.358  0.2618  0.4959  0.5883
  950MOL0     C28182   4.593   8.962   2.477  0.2513  0.1075  0.5017
  950MOL0     H28183   4.540   9.227   2.890 -1.2210  2.2006 -1.5401
  950MOL0     H28184   4.550   9.374   3.080 -0.7104  0.1342 -0.2119
  950MOL0     H28185   4.960   9.456   3.262  1.2056  0.9163  1.6747
  950MOL0     H28186   4.930   9.596   3.152  0.5500  1.3399  0.9236
  950MOL0     H28187   4.971   9.674   3.384  0.7546 -1.1687  0.1139
  950MOL0     H28188   4.798   9.701   3.341 -0.5812 -0.8117 -1.0983
  950MOL0     H28189   4.735   9.493   3.471  1.7396 -4.1746  0.5863
  950MOL0     H28190   4.901   9.452   3.490  1.9953  1.3790  2.4156
  950MOL0     H28191   4.941   9.657   3.628 -0.9695  1.0561  0.6394
  950MOL0     H28192   4.796   9.735   3.572 -2.0999 -1.7431 -1.7955
  950MOL0     H28193   4.783   9.476   3.724  1.1706 -0.4978  3.4077
  950MOL0     H28194   4.816   9.632   3.811  0.4316 -1.9642 -0.2928
  950MOL0     H28195   4.615   9.723   3.714  1.0421 -0.0582  0.3214
  950MOL0     H28196   4.581   9.567   3.651 -0.0728  1.9931 -0.7173
  950MOL0     H28197   4.616   9.622   3.945  0.5093 -0.8884  0.2547
  950MOL0     H28198   4.455   9.627   3.858 -0.5267 -1.7751 -1.1920
  950MOL0     H28199   4.645   9.376   3.910 -0.2989 -1.7026  1.2932
  950MOL0     H28200   4.488   9.364   3.824  0.9732  1.1353 -0.8687
  950MOL0     H28201   4.303   9.492   4.037 -0.1398  0.1236  0.7575
  950MOL0     H28202   4.177   9.467   4.272 -0.9732 -0.0274  2.8252
  950MOL0     H28203   4.182   9.306   4.329  0.9982 -1.6117 -0.3011
  950MOL0     H28204   4.218   9.517   4.472 -1.4688  0.3529 -2.6652
  950MOL0     H28205   4.382   9.517   4.397 -0.7583  0.2393 -2.6492
  950MOL0     H28206   4.418   9.290   4.485  2.9456  4.0964  1.2512
  950MOL0     H28207   4.255   9.284   4.559 -1.0770  1.8693  2.0991
  950MOL0     H28208   4.377   9.514   4.683 -2.0702 -0.2660  0.3299
  950MOL0     H28209   4.513   9.411   4.648 -0.0779 -2.2845  1.2919
  950MOL0     H28210   4.295   9.125   4.902 -0.4317  0.1578  0.0180
  950MOL0     H28211   4.160   9.001   5.016 -0.1492 -1.2625  0.8729
  950MOL0     H28212   4.237   9.054   5.168 -1.2610 -0.4192 -0.1614
  950MOL0     H28213   4.067   9.053   5.151  1.6997 -3.4956  2.3685
  950MOL0     H28214   4.079   9.418   5.504  0.5513 -1.3023 -1.7930
  950MOL0     H28215   3.939   9.440   5.706 -3.6220  2.1142 -0.3505
  950MOL0     H28216   3.863   9.318   5.883  0.9982  0.1417 -0.0766
  950MOL0     H28217   3.763   9.460   5.866  2.3584  1.0127 -0.0373
  950MOL0     H28218   3.650   9.188   5.949 -0.8358  0.4302 -1.0804
  950MOL0     H28219   3.727   9.280   6.068  1.9373  1.4927 -0.2883
  950MOL0     H28220   3.502   9.363   5.885  1.9509 -1.9625  0.2352
  950MOL0     H28221   3.532   9.471   6.019 -0.9531 -0.3970  2.9300
  950MOL0     H28222   3.388   9.213   6.000 -1.6472  0.7460 -0.4037
  950MOL0     H28223   3.464   9.255   6.158  0.9519  3.4878  0.8199
  950MOL0     H28224   3.247   9.420   6.017  1.3799  4.2603  0.6788
  950MOL0     H28225   3.333   9.470   6.149  1.2575 -0.7229  0.9152
  950MOL0     H28226   3.177   9.212   6.176 -1.0230  0.6505  0.3222
  950MOL0     H28227   3.283   9.294   6.298  2.5847  0.4517 -1.1826
  950MOL0     H28228   3.034   9.383   6.153  0.2433  0.2262 -0.0828
  950MOL0     H28229   3.106   9.489   6.284  1.4253 -0.0099  0.2946
  950MOL0     H28230   2.921   9.368   6.382  0.8102 -1.0562 -1.2713
  950MOL0     H28231   3.070   9.327   6.459 -2.1704  0.3491  1.6385
  950MOL0     H28232   3.645   9.189   5.545  0.0579  0.6631 -1.4121
  950MOL0     H28233   3.780   9.153   5.333 -0.6844 -2.6290  2.2757
  950MOL0     H28234   4.067   9.544   5.019 -0.1466 -0.3641  1.3243
  950MOL0     H28235   4.211   9.544   4.831 -2.4386  0.9649 -0.7719
  950MOL0     H28236   4.974   9.398   3.030  0.0802 -2.4813  2.1924
  950MOL0     H28237   4.958   9.268   2.843  3.0083  1.7927  3.0360
  950MOL0     H28238   4.913   8.948   2.615  1.8027 -3.1839 -1.1080
  950MOL0     H28239   4.951   8.838   2.423  0.8487 -0.2798  1.7753
  950MOL0     H28240   4.965   8.750   2.239  3.0880 -1.3679 -1.6538
  950MOL0     H28241   4.877   8.606   2.305 -1.6610  1.3610  1.3611
  950MOL0     H28242   5.006   8.574   2.066 -0.6653  0.0205 -2.4416
  950MOL0     H28243   4.874   8.671   2.010  5.8922  2.2328 -0.8185
  950MOL0     H28244   4.726   8.469   2.128  1.1422 -0.9338  1.8161
  950MOL0     H28245   4.884   8.406   2.150  0.9597  0.1855  0.0804
  950MOL0     H28246   4.793   8.312   1.930  0.1613  0.0934  0.5780
  950MOL0     H28247   4.921   8.429   1.895  0.1172 -0.2578  1.5544
  950MOL0     H28248   4.554   8.618   1.778  1.0006 -2.1050 -2.9232
  950MOL0     H28249   4.533   8.880   2.299 -0.3418 -1.0340  1.9859
  950MOL0     H28250   4.492   8.999   2.493 -1.2604 -2.4565 -2.0720
  951MOL0     O28251   9.503   3.753   8.407 -0.1523  0.2703 -0.1362
  951MOL0     C28252   9.508   3.866   8.372  0.7011 -0.7192  1.2261
  951MOL0     O28253   9.611   3.928   8.309  0.3645  0.1660  0.1713
  951MOL0     C28254   9.742   3.869   8.316 -0.3453 -0.7172  0.2863
  951MOL0     C28255   9.844   3.914   8.224 -1.2227  0.7213  0.0454
  951MOL0     C28256   9.969   3.846   8.221  0.7340 -0.1723 -0.0608
  951MOL0     C28257  10.003   3.758   8.333  0.3466 -0.6715 -0.6574
  951MOL0     O28258  10.131   3.714   8.339 -0.2746 -0.0268  0.4974
  951MOL0     C28259  10.191   3.654   8.458  0.0217  0.1330 -0.1416
  951MOL0     C28260  10.217   3.751   8.578  0.8416  0.0848 -0.0863
  951MOL0     C28261  10.290   3.877   8.523 -0.0884 -1.0358  0.3826
  951MOL0     C28262  10.421   3.838   8.469 -0.1254  0.3245  0.3821
  951MOL0     C28263  10.512   3.953   8.416 -0.1542 -0.1259  0.1813
  951MOL0     C28264  10.641   3.893   8.375 -0.5953  0.5088  0.2658
  951MOL0     C28265  10.733   4.001   8.313 -0.7789  0.3099  0.3253
  951MOL0     C28266  10.850   3.935   8.235  0.3238 -0.9625  0.0185
  951MOL0     N28267  10.812   3.901   8.097 -0.2146 -0.3114  0.5211
  951MOL0     C28268  10.843   3.976   7.990 -0.2962 -0.2736 -0.9888
  951MOL0     C28269  10.817   3.903   7.885 -0.4951  0.3274 -0.1878
  951MOL0     C28270  10.841   3.935   7.742 -0.3321 -0.2364  0.1457
  951MOL0     C28271  10.762   4.060   7.692 -0.4048 -0.7404  0.1062
  951MOL0     C28272  10.613   4.028   7.663 -0.0263 -0.2179 -0.6752
  951MOL0     C28273  10.528   4.043   7.783  0.0033 -0.3220 -0.1479
  951MOL0     O28274  10.511   4.177   7.819 -0.1681 -0.7161 -0.7741
  951MOL0     C28275  10.407   4.257   7.774  0.0571 -0.7550 -0.4405
  951MOL0     C28276  10.385   4.376   7.845 -0.7995  0.9304 -0.2613
  951MOL0     C28277  10.288   4.472   7.815 -1.1151 -0.0739 -1.0166
  951MOL0     C28278  10.290   4.599   7.897  0.8354 -0.0664  0.0497
  951MOL0     C28279  10.214   4.458   7.695 -0.5545 -0.0606 -0.1621
  951MOL0     C28280  10.114   4.552   7.634  0.0528  0.7569  0.1070
  951MOL0     O28281  10.097   4.674   7.689 -0.2560 -0.1873 -1.3290
  951MOL0     C28282  10.022   4.765   7.611 -0.6273  0.5746  0.2028
  951MOL0     C28283  10.002   4.764   7.464 -0.7761 -0.7482 -0.1736
  951MOL0     C28284   9.922   4.866   7.408  0.8671  0.6800  0.9132
  951MOL0     C28285   9.852   4.961   7.486 -1.2159 -0.2549  0.6477
  951MOL0     O28286   9.748   5.034   7.448  0.5959  0.3757  0.0456
  951MOL0     C28287   9.723   5.066   7.309  0.5309 -0.8931 -0.0413
  951MOL0     C28288   9.682   5.212   7.302 -0.4283 -0.6309  0.2751
  951MOL0     C28289   9.528   5.233   7.322  0.5286  0.2062 -0.6345
  951MOL0     C28290   9.456   5.255   7.193  0.0943 -0.0859  0.0934
  951MOL0     C28291   9.300   5.229   7.215 -0.6776 -0.4368  0.1408
  951MOL0     C28292   9.222   5.277   7.096 -0.3670  0.7723 -0.3917
  951MOL0     C28293   9.241   5.175   6.976  0.4587 -0.2258  0.1354
  951MOL0     C28294   9.179   5.255   6.862 -0.2041 -0.7544 -0.4620
  951MOL0    Cl28295   9.001   5.232   6.870 -0.0924  0.0337 -0.5229
  951MOL0     C28296   9.885   4.965   7.620  0.6575 -0.3188  1.2500
  951MOL0     C28297   9.960   4.869   7.686 -1.2500  0.6521 -0.1144
  951MOL0     O28298  10.050   4.511   7.544  0.1831  0.2237  0.0702
  951MOL0     C28299  10.241   4.340   7.613 -0.6650 -0.0763 -0.8467
  951MOL0     C28300  10.337   4.244   7.653  0.5718 -1.6102 -0.2203
  951MOL0     N28301  10.762   3.789   7.925 -0.4781  0.3349  0.1893
  951MOL0     N28302  10.755   3.792   8.052  0.0223 -0.3274 -0.2600
  951MOL0     C28303   9.914   3.737   8.440  0.0550  0.8471  0.0002
  951MOL0     C28304   9.788   3.783   8.424  0.1601 -0.0867  0.3254
  951MOL0     C28305   9.378   3.941   8.384  0.3045 -0.2955 -0.3590
  951MOL0     C28306   9.368   4.073   8.348  0.5092 -0.4605 -0.9736
  951MOL0     C28307   9.249   4.143   8.357 -0.3224  0.2237 -0.8776
  951MOL0     C28308   9.126   4.083   8.407 -0.0156 -0.2713 -0.1175
  951MOL0     O28309   8.999   4.140   8.426  0.1858 -0.0080 -0.2034
  951MOL0     C28310   8.980   4.256   8.343 -0.3602 -0.3863  0.0765
  951MOL0     C28311   8.847   4.308   8.389  0.3438 -0.7626  0.0543
  951MOL0     C28312   8.728   4.213   8.367  0.0054  0.7617  0.6271
  951MOL0     C28313   8.713   4.140   8.239  0.2509  0.1694  0.5713
  951MOL0     C28314   8.706   4.235   8.128 -1.2148  0.1023  0.7454
  951MOL0     C28315   8.713   4.317   8.041 -0.7747  0.4698  0.4556
  951MOL0     C28316   9.137   3.950   8.458 -0.5905 -0.6102  0.1355
  951MOL0     C28317   9.262   3.884   8.450  0.2213  0.1383  0.0875
  951MOL0     H28318   9.817   3.995   8.156 -1.6130 -0.6132 -1.4627
  951MOL0     H28319  10.043   3.856   8.142  0.5719  2.9632  0.0493
  951MOL0     H28320  10.116   3.585   8.497 -2.4836  2.1869 -1.0098
  951MOL0     H28321  10.281   3.596   8.437 -1.6019 -3.8227  2.6321
  951MOL0     H28322  10.128   3.780   8.634  1.0159 -0.6677  0.5996
  951MOL0     H28323  10.279   3.699   8.652  1.0427  1.1973  0.5388
  951MOL0     H28324  10.229   3.927   8.446  0.1515 -2.2736 -0.6477
  951MOL0     H28325  10.302   3.951   8.602  1.1995 -1.9371  1.0615
  951MOL0     H28326  10.466   3.777   8.547 -3.0695 -3.5671 -0.6218
  951MOL0     H28327  10.416   3.770   8.383 -1.8808  0.5430  0.2718
  951MOL0     H28328  10.463   3.988   8.325 -1.9889 -1.4704  0.6035
  951MOL0     H28329  10.531   4.032   8.490 -1.4198 -1.4416  2.0074
  951MOL0     H28330  10.692   3.849   8.461 -0.4010  1.7386  0.8102
  951MOL0     H28331  10.628   3.804   8.312 -0.6010 -0.5335  1.6975
  951MOL0     H28332  10.670   4.051   8.239 -2.7594 -2.4990 -0.0476
  951MOL0     H28333  10.759   4.068   8.395 -1.0904  1.2291 -0.3090
  951MOL0     H28334  10.878   3.847   8.294  0.9150 -0.9699 -0.2559
  951MOL0     H28335  10.935   4.004   8.242 -2.3316  2.8541 -2.1270
  951MOL0     H28336  10.887   4.075   7.985 -0.0367 -0.2057  1.4704
  951MOL0     H28337  10.946   3.965   7.738 -0.7037  1.3711  1.1069
  951MOL0     H28338  10.827   3.856   7.668  1.4623  0.2284 -0.7440
  951MOL0     H28339  10.803   4.086   7.594  0.2496  0.3332  0.6452
  951MOL0     H28340  10.800   4.141   7.756 -0.0774 -1.1149  0.3989
  951MOL0     H28341  10.598   3.926   7.624 -0.1433 -0.1962 -0.6878
  951MOL0     H28342  10.582   4.102   7.589  4.7577  3.2269  0.3212
  951MOL0     H28343  10.577   3.986   7.862  2.3154  1.4707 -0.1726
  951MOL0     H28344  10.430   4.005   7.753  1.7299 -4.3955 -1.3855
  951MOL0     H28345  10.460   4.380   7.922 -0.8535  1.3529 -0.2278
  951MOL0     H28346  10.190   4.642   7.901  1.7497  2.2868 -0.6443
  951MOL0     H28347  10.321   4.588   8.002  0.3214 -2.6267 -0.0014
  951MOL0     H28348  10.365   4.667   7.857 -0.1917  1.5742  0.8133
  951MOL0     H28349  10.050   4.693   7.398  0.4879 -0.9584  0.9123
  951MOL0     H28350   9.910   4.861   7.300  3.7548 -0.9326  0.5698
  951MOL0     H28351   9.809   5.045   7.245  0.4395 -2.7922  0.3974
  951MOL0     H28352   9.640   5.001   7.279 -1.8093  0.5452  2.7646
  951MOL0     H28353   9.735   5.270   7.378  0.5546 -0.5270 -0.4705
  951MOL0     H28354   9.715   5.258   7.208  3.2432 -0.3026  1.5496
  951MOL0     H28355   9.507   5.314   7.392 -2.7871  1.4195 -2.7994
  951MOL0     H28356   9.479   5.147   7.371  0.4393  1.0184  0.7529
  951MOL0     H28357   9.472   5.356   7.152 -1.2508  0.5159  0.9778
  951MOL0     H28358   9.495   5.180   7.124  0.9869  0.8683 -0.4932
  951MOL0     H28359   9.271   5.288   7.303 -0.9087  1.2037 -0.9961
  951MOL0     H28360   9.291   5.120   7.228  1.2246 -0.4397  1.9961
  951MOL0     H28361   9.117   5.275   7.125  0.1803 -1.9669  1.8505
  951MOL0     H28362   9.259   5.378   7.076 -0.1702  0.5132 -1.3804
  951MOL0     H28363   9.180   5.086   6.990  2.5004 -2.2907 -2.8823
  951MOL0     H28364   9.347   5.154   6.956 -0.1597 -1.3001 -2.4138
  951MOL0     H28365   9.221   5.225   6.766 -0.1204  2.1480 -1.4485
  951MOL0     H28366   9.210   5.360   6.871  2.1542 -0.8969 -4.4967
  951MOL0     H28367   9.843   5.034   7.693  0.6683 -1.6460  2.5351
  951MOL0     H28368   9.965   4.858   7.793  1.6518 -1.1106 -0.3149
  951MOL0     H28369  10.178   4.322   7.527 -2.7536 -0.5872  0.7062
  951MOL0     H28370  10.362   4.157   7.594 -0.0860 -0.5413 -2.1764
  951MOL0     H28371   9.935   3.663   8.516  1.1299 -1.0851 -2.0527
  951MOL0     H28372   9.724   3.749   8.504  2.6144 -1.9461  1.6176
  951MOL0     H28373   9.459   4.129   8.327 -0.1766  1.1772  0.2477
  951MOL0     H28374   9.261   4.247   8.329  6.2757  0.3726  0.8773
  951MOL0     H28375   9.060   4.329   8.360 -1.5564  1.3362 -1.3907
  951MOL0     H28376   8.983   4.229   8.237 -0.0154 -0.9172  0.2204
  951MOL0     H28377   8.823   4.405   8.346  0.9971 -1.7299 -2.6526
  951MOL0     H28378   8.857   4.338   8.494  6.2059  1.7792 -0.8370
  951MOL0     H28379   8.636   4.265   8.395 -2.4863 -3.2833  0.6000
  951MOL0     H28380   8.729   4.135   8.443  1.4655  0.4193  0.2813
  951MOL0     H28381   8.624   4.077   8.231 -1.8211  2.8193  1.3047
  951MOL0     H28382   8.796   4.071   8.221 -0.4743 -0.5802  0.0254
  951MOL0     H28383   8.713   4.390   7.963  0.3959 -2.7591 -2.8597
  951MOL0     H28384   9.050   3.898   8.499 -0.9404 -2.0318 -2.2285
  951MOL0     H28385   9.265   3.784   8.494 -1.4680 -0.6857 -1.5482
  952MOL0     O28386   6.715  10.305   2.096 -0.3673 -0.4406  1.0295
  952MOL0     C28387   6.740  10.190   2.138 -0.1404  0.1264  0.0674
  952MOL0     O28388   6.643  10.092   2.165  0.0567  0.4224 -0.4071
  952MOL0     C28389   6.517  10.114   2.119 -0.4279 -0.1888 -0.1035
  952MOL0     C28390   6.431  10.205   2.183 -0.3724 -1.3716 -0.5513
  952MOL0     C28391   6.295  10.222   2.147  0.2818 -0.7092 -0.6400
  952MOL0     C28392   6.238  10.139   2.053  0.0841 -0.5639  0.6800
  952MOL0     O28393   6.107  10.145   2.007 -0.6916 -0.1007 -0.6957
  952MOL0     C28394   6.020  10.244   2.065  0.3673  0.8586  0.1652
  952MOL0     C28395   5.880  10.236   2.019  0.2842 -0.0743  0.4107
  952MOL0     C28396   5.781  10.325   2.093 -0.3358 -0.0604 -0.0307
  952MOL0     C28397   5.669  10.384   2.001 -0.3724  0.4458  1.0032
  952MOL0     C28398   5.570  10.472   2.078  0.1851  0.1241  0.3732
  952MOL0     C28399   5.460  10.531   1.993 -0.1237  0.4400  0.5154
  952MOL0     C28400   5.506  10.610   1.868 -0.0366  0.0095  0.1670
  952MOL0     C28401   5.394  10.702   1.812  0.4218 -0.2974 -0.3048
  952MOL0     N28402   5.438  10.764   1.686  0.6802 -0.1065 -0.3164
  952MOL0     C28403   5.373  10.748   1.567  0.0337  0.2092  0.3393
  952MOL0     C28404   5.467  10.783   1.480  0.1765 -0.2669  0.0542
  952MOL0     C28405   5.444  10.806   1.333 -0.1255  0.3966 -0.7103
  952MOL0     C28406   5.343  10.917   1.300 -0.5113 -0.7038 -0.0153
  952MOL0     C28407   5.309  10.935   1.145 -0.0333  0.4102 -0.1229
  952MOL0     C28408   5.220  11.058   1.115  0.2497  0.0821  0.0338
  952MOL0     O28409   5.117  11.050   1.216 -0.3591  0.2494  0.1239
  952MOL0     C28410   5.022  11.147   1.219 -1.4484  0.3331 -0.1548
  952MOL0     C28411   4.909  11.122   1.289 -0.5017 -0.5118 -0.6357
  952MOL0     C28412   4.803  11.214   1.294 -0.1482  0.6399  0.5580
  952MOL0     C28413   4.681  11.199   1.380  1.4417 -0.1353  0.1129
  952MOL0     C28414   4.814  11.328   1.209 -0.8372 -0.0261 -0.4849
  952MOL0     C28415   4.712  11.438   1.212  1.0497  0.8594 -0.2584
  952MOL0     O28416   4.693  11.508   1.334  0.3445  0.3558  0.2841
  952MOL0     C28417   4.599  11.614   1.334 -0.3010  0.1106 -0.3302
  952MOL0     C28418   4.656  11.747   1.370  0.2068  0.8287 -0.2802
  952MOL0     C28419   4.568  11.855   1.392 -0.0110 -0.9225  0.3561
  952MOL0     C28420   4.430  11.838   1.393 -1.2267 -0.8090  0.2878
  952MOL0     O28421   4.353  11.941   1.448  0.7541  0.6554 -0.2405
  952MOL0     C28422   4.271  12.007   1.349 -0.3770  0.3991  0.6861
  952MOL0     C28423   4.195  12.132   1.413  0.0980  0.3778  0.0821
  952MOL0     C28424   4.113  12.097   1.532  0.7036  0.7041  0.5597
  952MOL0     C28425   4.173  12.126   1.662 -0.2054  0.0397 -0.0962
  952MOL0     C28426   4.087  12.066   1.784 -0.1259 -0.5090 -0.4897
  952MOL0     C28427   4.148  12.109   1.920  0.7802  0.4255 -0.0625
  952MOL0     C28428   4.063  12.032   2.023  0.5744  0.2757 -0.4651
  952MOL0     C28429   4.104  12.050   2.168  0.0358 -0.2860  0.5975
  952MOL0    Cl28430   4.070  12.218   2.217 -0.0175  0.0164  0.6535
  952MOL0     C28431   4.376  11.710   1.359 -0.9170 -0.6006  0.3796
  952MOL0     C28432   4.465  11.602   1.332 -0.2670  0.7055 -0.6050
  952MOL0     O28433   4.652  11.463   1.104 -0.3646  0.1047 -0.6258
  952MOL0     C28434   4.924  11.353   1.128 -0.3641 -0.0445 -0.4196
  952MOL0     C28435   5.030  11.259   1.140  0.1139  0.5066  0.9511
  952MOL0     N28436   5.579  10.829   1.542  0.2327  0.8249  0.5695
  952MOL0     N28437   5.554  10.826   1.666 -0.5854  0.2108  0.2194
  952MOL0     C28438   6.326  10.054   1.979  0.3026 -0.0689 -0.6325
  952MOL0     C28439   6.467  10.033   2.013 -0.0527 -0.7576  0.1434
  952MOL0     C28440   6.881  10.173   2.190  0.9207  0.2345  0.5320
  952MOL0     C28441   6.927  10.038   2.194 -0.2488 -0.1857 -0.3636
  952MOL0     C28442   7.058  10.009   2.254  0.6362  0.2923 -0.0574
  952MOL0     C28443   7.142  10.119   2.299 -0.9856  0.4270 -0.0171
  952MOL0     O28444   7.275  10.115   2.335 -0.2096 -0.6670  0.2289
  952MOL0     C28445   7.334   9.981   2.344  0.2049  0.3031  0.5518
  952MOL0     C28446   7.460   9.971   2.421 -0.3471  0.2325 -0.1858
  952MOL0     C28447   7.585  10.049   2.370 -0.0147  0.3544 -0.0306
  952MOL0     C28448   7.624   9.983   2.240  0.3223  0.0332  0.6602
  952MOL0     C28449   7.770  10.010   2.209  0.8065 -0.2759  0.7824
  952MOL0     C28450   7.880  10.053   2.204  0.0424  0.0031  0.1641
  952MOL0     C28451   7.089  10.247   2.292 -0.1229  0.0368 -0.3284
  952MOL0     C28452   6.962  10.272   2.246  0.7547  0.2135 -0.9293
  952MOL0     H28453   6.471  10.279   2.253 -0.2099 -4.2534  2.6856
  952MOL0     H28454   6.238  10.304   2.188  0.5964 -0.3293 -0.9520
  952MOL0     H28455   6.037  10.228   2.172  2.0348 -0.4952 -0.2593
  952MOL0     H28456   6.060  10.343   2.040  0.8751  0.7608  0.5748
  952MOL0     H28457   5.865  10.253   1.912  1.8586 -3.7561 -0.5457
  952MOL0     H28458   5.848  10.134   2.043 -0.8879  0.7340  2.6140
  952MOL0     H28459   5.743  10.255   2.168  1.2246  0.5009  1.3427
  952MOL0     H28460   5.830  10.408   2.146 -0.6690  0.9991 -1.3464
  952MOL0     H28461   5.713  10.451   1.927  2.1577  1.8592  3.5532
  952MOL0     H28462   5.621  10.302   1.947  1.5815 -2.1581  2.8952
  952MOL0     H28463   5.507  10.413   2.145 -1.9059 -0.3983 -1.9189
  952MOL0     H28464   5.630  10.540   2.140  0.2879 -1.1700  1.7574
  952MOL0     H28465   5.390  10.452   1.966 -0.2563  0.5808  0.4433
  952MOL0     H28466   5.402  10.603   2.052 -0.9575  2.1187 -2.1633
  952MOL0     H28467   5.603  10.659   1.884 -0.0458  0.7405 -1.7570
  952MOL0     H28468   5.520  10.538   1.787 -0.3598 -1.8144  1.6890
  952MOL0     H28469   5.377  10.779   1.888 -3.5672 -2.0020  0.7729
  952MOL0     H28470   5.297  10.658   1.790 -0.0732  1.6947 -2.5335
  952MOL0     H28471   5.278  10.703   1.542  1.1748 -1.1732 -1.7212
  952MOL0     H28472   5.542  10.835   1.294 -0.6241 -0.6473 -2.8786
  952MOL0     H28473   5.409  10.721   1.275 -2.6388 -0.3796  1.7297
  952MOL0     H28474   5.381  11.015   1.333  1.0144 -0.6525 -1.7745
  952MOL0     H28475   5.257  10.890   1.362 -0.0360  1.4378  1.7240
  952MOL0     H28476   5.261  10.847   1.102  1.0649  0.0358 -0.6196
  952MOL0     H28477   5.407  10.950   1.097 -1.1270  3.4286 -1.7292
  952MOL0     H28478   5.175  11.043   1.017 -0.0310 -3.6324  0.5733
  952MOL0     H28479   5.279  11.149   1.108  2.7937 -1.4994 -0.1900
  952MOL0     H28480   4.913  11.039   1.359 -1.4010 -1.4679 -1.6713
  952MOL0     H28481   4.681  11.276   1.459  0.1513 -0.7615  0.7618
  952MOL0     H28482   4.588  11.191   1.324 -0.3330 -2.4470  3.0630
  952MOL0     H28483   4.692  11.106   1.436 -0.0674 -0.1747  0.3837
  952MOL0     H28484   4.763  11.763   1.379  0.0546  1.5530  0.3554
  952MOL0     H28485   4.601  11.956   1.416 -0.8624 -0.3438 -0.8077
  952MOL0     H28486   4.336  12.020   1.263 -1.0735 -3.8276 -0.7289
  952MOL0     H28487   4.201  11.927   1.322 -0.0034 -0.0148  0.9316
  952MOL0     H28488   4.282  12.196   1.434  1.4695 -1.7169  1.1710
  952MOL0     H28489   4.123  12.176   1.344 -0.3056 -0.7057 -0.2027
  952MOL0     H28490   4.099  11.988   1.527  3.2373  0.2865  1.1712
  952MOL0     H28491   4.014  12.141   1.519  0.7028  0.0000 -2.3805
  952MOL0     H28492   4.278  12.095   1.661 -1.2950 -4.2751 -0.6281
  952MOL0     H28493   4.182  12.233   1.682 -1.5625 -0.4082  3.9480
  952MOL0     H28494   4.080  11.958   1.769  0.1979 -0.3121 -2.2806
  952MOL0     H28495   3.988  12.113   1.771 -1.0837 -2.9607 -3.2704
  952MOL0     H28496   4.253  12.081   1.924  0.8348 -0.0225 -2.6898
  952MOL0     H28497   4.135  12.217   1.932 -0.8932  0.1152  1.4542
  952MOL0     H28498   4.095  11.929   2.005  2.6696  0.9459 -0.9176
  952MOL0     H28499   3.955  12.046   2.017  0.3097 -0.2176  2.1019
  952MOL0     H28500   4.209  12.019   2.172 -0.1064 -1.7808 -2.8465
  952MOL0     H28501   4.050  11.982   2.234  2.2243 -3.4166 -0.5587
  952MOL0     H28502   4.269  11.696   1.360 -0.9294 -0.6879 -0.7377
  952MOL0     H28503   4.433  11.498   1.327 -4.4563  1.8046  0.0651
  952MOL0     H28504   4.927  11.441   1.065 -1.1832  0.3615  0.0875
  952MOL0     H28505   5.114  11.284   1.076 -2.6603  1.4547 -2.6127
  952MOL0     H28506   6.294   9.992   1.895 -2.2429  0.8152 -0.4087
  952MOL0     H28507   6.537   9.969   1.959 -1.1271  0.4036 -2.8006
  952MOL0     H28508   6.861   9.957   2.164  2.7725 -1.6404 -3.7566
  952MOL0     H28509   7.092   9.907   2.245 -1.2157 -0.6460  2.4515
  952MOL0     H28510   7.258   9.914   2.387 -0.9591  1.6966  0.7717
  952MOL0     H28511   7.364   9.934   2.250 -2.0126  1.1455 -0.6543
  952MOL0     H28512   7.477   9.864   2.440 -2.5998  0.1709  1.8511
  952MOL0     H28513   7.434  10.013   2.518  2.2838  3.5557 -0.7475
  952MOL0     H28514   7.657  10.050   2.453 -0.6978 -1.7522  0.6590
  952MOL0     H28515   7.566  10.155   2.353 -3.2888 -0.1604 -0.2018
  952MOL0     H28516   7.569  10.020   2.153  1.4489  0.6464  0.1966
  952MOL0     H28517   7.611   9.874   2.243  0.0014  0.0936  3.3008
  952MOL0     H28518   7.986  10.066   2.195 -0.0816 -0.3178 -2.2815
  952MOL0     H28519   7.149  10.330   2.329 -1.1095  1.3538 -1.5908
  952MOL0     H28520   6.923  10.373   2.258  1.5853  0.4109  0.2820
  953MOL0     O28521   6.798   5.486  10.242  0.1306  0.6637 -0.0603
  953MOL0     C28522   6.873   5.414  10.175 -0.1391 -0.4879 -0.7829
  953MOL0     O28523   6.826   5.323  10.079 -0.4659 -0.5328 -0.0715
  953MOL0     C28524   6.698   5.314  10.050  0.2486  0.1046 -0.0221
  953MOL0     C28525   6.651   5.182  10.047  0.0807 -0.1122 -0.1526
  953MOL0     C28526   6.514   5.148  10.016  0.7817 -0.0534  0.0007
  953MOL0     C28527   6.430   5.247   9.970  0.6133  0.1439  0.0052
  953MOL0     O28528   6.303   5.200   9.928  0.4559  0.1352  1.0518
  953MOL0     C28529   6.223   5.306   9.890 -0.5126 -0.7921 -0.2543
  953MOL0     C28530   6.087   5.254   9.827 -0.3686 -0.5111  0.3356
  953MOL0     C28531   5.971   5.275   9.933 -0.7821  0.0861  1.6740
  953MOL0     C28532   5.851   5.209   9.866 -0.3939  0.0134  0.7948
  953MOL0     C28533   5.728   5.235   9.953 -0.0015  0.4218  0.2922
  953MOL0     C28534   5.606   5.168   9.882  0.1031 -0.3566  0.0776
  953MOL0     C28535   5.482   5.187   9.964  0.2137  0.1146  0.0552
  953MOL0     C28536   5.473   5.090  10.087 -0.6722 -0.3041  0.5941
  953MOL0     N28537   5.346   5.091  10.158 -0.2351  0.7753 -0.4414
  953MOL0     C28538   5.220   5.066  10.106 -0.1407  0.1254  0.4413
  953MOL0     C28539   5.139   5.057  10.213  0.4039 -0.2877  0.1302
  953MOL0     C28540   4.993   5.026  10.203  0.0460  1.5149 -0.0100
  953MOL0     C28541   4.915   5.146  10.239 -0.4517  0.6731  0.3176
  953MOL0     C28542   4.943   5.256  10.144  0.1199 -1.2121 -0.1891
  953MOL0     C28543   4.874   5.386  10.168  0.5991 -0.0202  0.2010
  953MOL0     O28544   4.734   5.364  10.153 -0.3231 -0.3822  0.2244
  953MOL0     C28545   4.664   5.485  10.146 -1.4108 -0.9735  0.8498
  953MOL0     C28546   4.726   5.618  10.150 -0.8180 -0.1478 -0.1878
  953MOL0     C28547   4.648   5.736  10.160 -0.9573 -0.2673  0.1007
  953MOL0     C28548   4.715   5.875  10.155 -0.7354 -0.7433 -0.7835
  953MOL0     C28549   4.510   5.720  10.170 -0.7072  0.0792  0.3973
  953MOL0     C28550   4.418   5.841  10.182  0.1423 -0.1612 -0.0843
  953MOL0     O28551   4.319   5.866  10.090 -0.1246  0.8883  0.7480
  953MOL0     C28552   4.250   5.980  10.101 -0.4328 -0.8548 -0.1039
  953MOL0     C28553   4.106   5.987  10.118  0.0851  0.9355  0.2711
  953MOL0     C28554   4.037   6.101  10.117  0.9443 -0.0544 -0.7710
  953MOL0     C28555   4.098   6.225  10.124 -0.2254 -0.0413  0.3488
  953MOL0     O28556   4.029   6.340  10.154  0.4169 -0.7070 -0.2920
  953MOL0     C28557   4.058   6.396  10.287  0.4332 -0.6850 -1.0242
  953MOL0     C28558   3.991   6.328  10.404 -0.0117 -0.0714  0.4823
  953MOL0     C28559   3.842   6.352  10.396 -0.5198  0.5420 -0.8091
  953MOL0     C28560   3.778   6.319  10.537  0.3285 -0.3735 -0.6210
  953MOL0     C28561   3.631   6.357  10.542 -0.0796 -1.0903  0.3322
  953MOL0     C28562   3.554   6.283  10.648 -0.7702  0.2212 -0.6109
  953MOL0     C28563   3.401   6.299  10.645  0.0262 -0.5907  0.1983
  953MOL0     C28564   3.344   6.212  10.761  0.3361 -0.1162 -0.2373
  953MOL0    Cl28565   3.164   6.177  10.731 -0.1773 -0.4034  0.2615
  953MOL0     C28566   4.241   6.222  10.105 -0.6135  0.3368 -0.5071
  953MOL0     C28567   4.313   6.102  10.103  0.1708 -0.1640  0.0417
  953MOL0     O28568   4.437   5.913  10.281 -0.0091 -0.5680 -0.4406
  953MOL0     C28569   4.452   5.596  10.148  0.0448 -0.6152  0.4932
  953MOL0     C28570   4.522   5.485  10.147 -0.1711  0.7567  0.3776
  953MOL0     N28571   5.208   5.077  10.329 -0.3030 -0.2461 -0.3955
  953MOL0     N28572   5.332   5.096  10.293  0.3853 -0.8247 -0.4858
  953MOL0     C28573   6.476   5.379   9.982 -0.6396 -0.5325  0.0693
  953MOL0     C28574   6.610   5.416  10.018  1.1390  0.8524 -0.6390
  953MOL0     C28575   7.014   5.415  10.208  0.7398  0.3181 -0.1648
  953MOL0     C28576   7.089   5.303  10.177 -0.2712  0.1388  0.5010
  953MOL0     C28577   7.228   5.306  10.210 -0.1832  0.1124 -0.1564
  953MOL0     C28578   7.289   5.414  10.276 -0.2979 -0.3813  0.0022
  953MOL0     O28579   7.423   5.393  10.309 -0.4696 -0.1733  0.0343
  953MOL0     C28580   7.494   5.497  10.385 -0.0328 -0.1022  1.0381
  953MOL0     C28581   7.565   5.593  10.281  0.7373  0.4461  0.6469
  953MOL0     C28582   7.628   5.707  10.346  0.2251 -0.1582 -0.0240
  953MOL0     C28583   7.762   5.679  10.418  0.3661 -0.2474  0.0750
  953MOL0     C28584   7.875   5.646  10.327 -0.1573 -0.4049 -0.2578
  953MOL0     C28585   7.959   5.622  10.246 -0.4460 -0.0021 -0.3638
  953MOL0     C28586   7.214   5.525  10.302 -0.0825 -0.9817 -0.0867
  953MOL0     C28587   7.081   5.522  10.262  0.0955 -0.4133 -0.5119
  953MOL0     H28588   6.718   5.106  10.087 -1.0749  0.2652  2.7535
  953MOL0     H28589   6.484   5.044  10.009  2.5061 -0.8224  2.5766
  953MOL0     H28590   6.208   5.362   9.982 -1.8054 -2.5701  0.6777
  953MOL0     H28591   6.274   5.369   9.816  4.4782  0.5914  3.8215
  953MOL0     H28592   6.066   5.303   9.732  5.4730  0.0383 -1.0177
  953MOL0     H28593   6.107   5.149   9.803 -1.5548 -0.1863 -2.4242
  953MOL0     H28594   5.985   5.215  10.024 -1.2763  0.3692  1.9446
  953MOL0     H28595   5.949   5.379   9.960 -2.9562  0.0631  0.2817
  953MOL0     H28596   5.831   5.256   9.769 -0.4241  2.0435  1.7348
  953MOL0     H28597   5.868   5.103   9.848  1.4545  0.1515  1.5618
  953MOL0     H28598   5.738   5.182  10.048 -2.9720  0.6306  0.8047
  953MOL0     H28599   5.710   5.340   9.974 -0.1538  1.1176 -2.7633
  953MOL0     H28600   5.604   5.215   9.783  1.0793  2.9904  1.5117
  953MOL0     H28601   5.622   5.060   9.877 -2.0116 -0.8405  2.0475
  953MOL0     H28602   5.481   5.291   9.999  1.4180 -0.1348  0.9070
  953MOL0     H28603   5.394   5.165   9.903  0.9262 -0.6037 -0.7374
  953MOL0     H28604   5.552   5.123  10.156 -0.7797 -2.2704  1.7311
  953MOL0     H28605   5.487   4.993  10.040  0.7149  0.2232 -0.1494
  953MOL0     H28606   5.202   5.064   9.999  6.0680  1.4859 -1.0137
  953MOL0     H28607   4.960   4.993  10.104  1.0316 -0.6541  0.3354
  953MOL0     H28608   4.961   4.943  10.267 -0.8803  1.5468 -0.4110
  953MOL0     H28609   4.942   5.179  10.339 -0.9298 -0.2119  0.7518
  953MOL0     H28610   4.808   5.123  10.243 -0.5430  0.9674 -0.2817
  953MOL0     H28611   4.908   5.237  10.043 -0.0103 -1.3495 -0.1173
  953MOL0     H28612   5.048   5.287  10.137 -0.7711  1.7230 -3.7440
  953MOL0     H28613   4.910   5.458  10.094  2.1864 -1.0563 -0.1046
  953MOL0     H28614   4.902   5.418  10.268 -1.5086 -1.5389  1.3437
  953MOL0     H28615   4.832   5.641  10.154 -1.2371  1.7648  2.7571
  953MOL0     H28616   4.812   5.862  10.106  0.8093  1.3670  1.4664
  953MOL0     H28617   4.668   5.946  10.087  1.4676  1.3728 -0.1925
  953MOL0     H28618   4.732   5.918  10.254  0.7491 -4.3617  0.7090
  953MOL0     H28619   4.050   5.894  10.110  0.7632  0.5089  0.4011
  953MOL0     H28620   3.929   6.093  10.116  0.9486 -0.5367  0.4664
  953MOL0     H28621   4.166   6.401  10.301  0.4802 -2.3685 -0.4805
  953MOL0     H28622   4.034   6.502  10.279 -0.2663 -0.7437  0.0781
  953MOL0     H28623   4.028   6.225  10.403 -1.2908 -0.5458  0.0767
  953MOL0     H28624   4.033   6.394  10.481  0.6220  0.4399 -0.2818
  953MOL0     H28625   3.790   6.292  10.321  0.6324 -0.1112 -1.0966
  953MOL0     H28626   3.820   6.457  10.374 -2.6513 -0.0354 -1.6400
  953MOL0     H28627   3.794   6.213  10.558  1.2080 -0.2252 -0.5102
  953MOL0     H28628   3.834   6.380  10.609 -0.5551 -0.2312 -0.0336
  953MOL0     H28629   3.573   6.342  10.450 -4.3492 -0.1357  2.6128
  953MOL0     H28630   3.633   6.465  10.555 -1.4729 -0.8412 -1.0544
  953MOL0     H28631   3.586   6.179  10.633  3.0655  0.8909  1.4879
  953MOL0     H28632   3.597   6.298  10.748  0.3343 -0.5823 -0.9366
  953MOL0     H28633   3.369   6.276  10.543 -0.2099  0.1856  0.0901
  953MOL0     H28634   3.367   6.401  10.665 -2.9751 -1.4804  0.1271
  953MOL0     H28635   3.365   6.265  10.854 -2.5886  1.2479 -0.2436
  953MOL0     H28636   3.396   6.116  10.757 -0.1996 -0.3780 -2.7159
  953MOL0     H28637   4.284   6.320  10.092 -2.2399  0.9609 -1.5162
  953MOL0     H28638   4.418   6.105  10.075  0.1654  0.9342  0.0966
  953MOL0     H28639   4.346   5.587  10.131 -0.4756  3.9168  0.0363
  953MOL0     H28640   4.469   5.391  10.146  0.9939  0.0620 -2.1011
  953MOL0     H28641   6.417   5.469   9.969 -3.8721 -2.2344  1.7373
  953MOL0     H28642   6.634   5.520   9.997  1.6990  0.3793 -2.5950
  953MOL0     H28643   7.053   5.210  10.134 -4.4817  2.3709 -1.4162
  953MOL0     H28644   7.302   5.228  10.195  0.1949  0.4829 -0.2116
  953MOL0     H28645   7.427   5.548  10.454  0.6174  0.4629  1.2582
  953MOL0     H28646   7.568   5.446  10.447  2.5217  0.8252 -1.0583
  953MOL0     H28647   7.495   5.618  10.202  0.1620 -4.4912 -0.7548
  953MOL0     H28648   7.642   5.543  10.220 -0.9285 -1.6072  0.1023
  953MOL0     H28649   7.557   5.739  10.423 -0.9867  0.3104 -1.2877
  953MOL0     H28650   7.637   5.793  10.279  0.3776 -0.8405 -0.8951
  953MOL0     H28651   7.750   5.592  10.483  2.2328  0.0238  0.8514
  953MOL0     H28652   7.785   5.761  10.486 -1.0445  0.7859 -0.6465
  953MOL0     H28653   8.046   5.592  10.191  0.4654 -1.2725  1.6527
  953MOL0     H28654   7.260   5.613  10.347 -1.2656 -1.8235  3.0556
  953MOL0     H28655   7.017   5.609  10.273  0.1825 -0.3303 -0.6620
  954MOL0     O28656   6.929   4.169   8.207 -0.0039  0.3313  0.2358
  954MOL0     C28657   6.902   4.112   8.316 -0.3642 -0.1725  0.0410
  954MOL0     O28658   6.778   4.122   8.376  0.7213  0.5034 -0.5219
  954MOL0     C28659   6.679   4.181   8.304 -0.2117 -0.0739  0.7325
  954MOL0     C28660   6.649   4.310   8.308 -1.0321 -0.0878 -0.7053
  954MOL0     C28661   6.557   4.364   8.221  0.3669  0.3605  0.0403
  954MOL0     C28662   6.475   4.280   8.129 -0.5522 -0.4730 -0.9317
  954MOL0     O28663   6.380   4.328   8.044 -0.2080  0.7274 -0.1776
  954MOL0     C28664   6.313   4.443   8.089 -0.7512  0.3193  0.2143
  954MOL0     C28665   6.197   4.460   7.991 -0.3683 -0.4391 -0.5628
  954MOL0     C28666   6.103   4.335   8.006  0.0044 -0.4649  0.5322
  954MOL0     C28667   5.976   4.328   7.912  0.3411  0.0566  0.4033
  954MOL0     C28668   5.875   4.439   7.935 -1.0502  0.9172  0.1735
  954MOL0     C28669   5.737   4.416   7.876 -0.0912  0.5582 -0.5869
  954MOL0     C28670   5.643   4.541   7.901  0.1623  0.1274  1.1775
  954MOL0     C28671   5.679   4.663   7.802  0.5839  0.0028 -0.5550
  954MOL0     N28672   5.578   4.770   7.818  0.1741 -0.3451  0.3542
  954MOL0     C28673   5.455   4.777   7.754 -0.0005 -0.8537 -0.7580
  954MOL0     C28674   5.378   4.855   7.835  0.3765  0.6798 -0.5331
  954MOL0     C28675   5.234   4.887   7.814  0.9558  0.1445 -0.1692
  954MOL0     C28676   5.230   4.976   7.686 -0.0022  0.0017 -0.2094
  954MOL0     C28677   5.099   5.021   7.632  0.4445  0.0445 -0.7498
  954MOL0     C28678   5.005   5.063   7.739 -0.9208  0.9162  0.6282
  954MOL0     O28679   4.930   4.954   7.791 -0.1669 -0.7125  1.0485
  954MOL0     C28680   4.848   4.977   7.892  0.4241 -0.3175  0.2992
  954MOL0     C28681   4.837   5.104   7.952  0.7719 -1.7887 -0.1018
  954MOL0     C28682   4.736   5.133   8.049 -0.5052  0.3347  0.5209
  954MOL0     C28683   4.724   5.269   8.105 -0.5232 -1.1255 -0.1228
  954MOL0     C28684   4.658   5.020   8.097 -0.4945  0.0904 -0.8302
  954MOL0     C28685   4.555   5.029   8.201  0.5196 -0.0253 -0.0565
  954MOL0     O28686   4.560   4.949   8.309  0.0561 -0.0068  0.0198
  954MOL0     C28687   4.465   4.945   8.409 -0.8092 -1.1876  0.8600
  954MOL0     C28688   4.326   4.973   8.392 -0.1334  0.4659 -0.4008
  954MOL0     C28689   4.235   4.968   8.496  0.1428  0.3879  0.2670
  954MOL0     C28690   4.277   4.941   8.624  0.0570  0.5700  0.3142
  954MOL0     O28691   4.197   4.909   8.733 -0.0282  0.4892  0.5965
  954MOL0     C28692   4.058   4.920   8.729  0.1459  0.0932  0.9962
  954MOL0     C28693   4.003   4.908   8.874  0.0729  0.2527  0.2878
  954MOL0     C28694   4.023   5.042   8.948 -0.2467 -0.1325 -0.4011
  954MOL0     C28695   3.928   5.060   9.079 -0.5269 -0.3266 -0.8615
  954MOL0     C28696   3.914   5.204   9.119 -1.1629 -0.3765  0.5861
  954MOL0     C28697   3.839   5.220   9.249  0.0051 -0.7538 -0.6428
  954MOL0     C28698   3.696   5.164   9.262 -0.7747  0.3749 -0.4224
  954MOL0     C28699   3.614   5.229   9.379 -0.3408 -0.0326 -0.3186
  954MOL0    Cl28700   3.451   5.167   9.357  0.4979 -0.1020  0.2912
  954MOL0     C28701   4.414   4.927   8.643 -1.0931 -0.0334  0.1832
  954MOL0     C28702   4.514   4.920   8.534 -0.2545  0.9297  0.0680
  954MOL0     O28703   4.474   5.117   8.183  0.3568 -0.2421 -0.4608
  954MOL0     C28704   4.677   4.889   8.043 -0.7283  0.1393 -0.0892
  954MOL0     C28705   4.765   4.872   7.939  0.2435 -0.5044 -0.7180
  954MOL0     N28706   5.444   4.882   7.952 -0.4397  0.5198 -0.3866
  954MOL0     N28707   5.564   4.843   7.931 -0.4880 -0.3318 -0.4295
  954MOL0     C28708   6.512   4.149   8.128  0.0316 -0.1911 -0.4324
  954MOL0     C28709   6.611   4.096   8.218  0.5614 -0.3728 -0.1888
  954MOL0     C28710   7.005   4.025   8.387  1.3309 -0.2903 -0.9363
  954MOL0     C28711   7.139   4.036   8.364  0.4671  0.3306  0.3552
  954MOL0     C28712   7.232   3.958   8.427 -0.0270  0.4910  0.7920
  954MOL0     C28713   7.190   3.855   8.520  0.7911  0.0523 -0.4777
  954MOL0     O28714   7.277   3.763   8.573 -0.4989  0.2403 -0.1390
  954MOL0     C28715   7.417   3.789   8.555  0.4226  0.4828 -0.4559
  954MOL0     C28716   7.512   3.695   8.636  0.1297 -0.4896 -0.0111
  954MOL0     C28717   7.471   3.709   8.780  0.4813 -0.0825 -0.0571
  954MOL0     C28718   7.552   3.808   8.867 -0.4117  0.0184 -0.5268
  954MOL0     C28719   7.691   3.777   8.876 -0.7010  0.1228 -0.4462
  954MOL0     C28720   7.814   3.763   8.884  0.4632  0.4140  0.0001
  954MOL0     C28721   7.049   3.842   8.551 -0.1727  0.1077  1.3913
  954MOL0     C28722   6.959   3.931   8.485 -0.0569  0.1382 -0.4804
  954MOL0     H28723   6.707   4.366   8.380 -0.4880 -0.8332 -0.5591
  954MOL0     H28724   6.534   4.471   8.217 -0.2665  0.2079 -2.3437
  954MOL0     H28725   6.277   4.439   8.192  0.8961 -1.9711  0.7663
  954MOL0     H28726   6.376   4.531   8.079 -2.0337  1.2987  0.5283
  954MOL0     H28727   6.142   4.552   8.013  3.8053  3.3276 -3.8486
  954MOL0     H28728   6.238   4.474   7.891  2.3673 -2.3382  0.1592
  954MOL0     H28729   6.177   4.257   7.984  0.4772 -0.0678  0.6897
  954MOL0     H28730   6.076   4.310   8.109  0.6471  1.3964  1.1925
  954MOL0     H28731   6.004   4.327   7.806  0.6045  0.1117  0.4717
  954MOL0     H28732   5.916   4.240   7.937  0.0535  1.1228  4.0298
  954MOL0     H28733   5.866   4.461   8.042  1.8051 -1.2950  0.9773
  954MOL0     H28734   5.911   4.522   7.874  0.2609  0.9255  0.9356
  954MOL0     H28735   5.742   4.393   7.770 -0.4338 -1.2358 -0.2521
  954MOL0     H28736   5.677   4.338   7.924  1.1764 -1.7170 -2.4822
  954MOL0     H28737   5.546   4.501   7.871  0.6572  0.0493 -0.4738
  954MOL0     H28738   5.644   4.577   8.004  1.0776  1.5262  0.7041
  954MOL0     H28739   5.681   4.621   7.701 -0.0733 -0.0540 -0.5443
  954MOL0     H28740   5.781   4.696   7.825  1.2972 -1.6585 -1.1510
  954MOL0     H28741   5.435   4.719   7.664  0.6436 -3.1031  0.4735
  954MOL0     H28742   5.172   4.798   7.802  0.8900  0.2114 -0.3309
  954MOL0     H28743   5.199   4.936   7.906  2.5607  0.8177  0.1229
  954MOL0     H28744   5.282   4.921   7.607  0.5594 -0.0753  0.2082
  954MOL0     H28745   5.288   5.064   7.717  0.6917 -0.0697 -1.2424
  954MOL0     H28746   5.058   4.934   7.580  3.3871 -1.0065 -1.5251
  954MOL0     H28747   5.128   5.102   7.564  0.6529 -0.3028 -1.0762
  954MOL0     H28748   4.929   5.127   7.692 -1.8012 -1.8492 -2.0200
  954MOL0     H28749   5.062   5.116   7.816 -0.8976 -1.3217  2.2474
  954MOL0     H28750   4.898   5.188   7.923 -2.2843  0.9279  0.7191
  954MOL0     H28751   4.634   5.281   8.167 -0.5767  0.0949 -0.4180
  954MOL0     H28752   4.815   5.295   8.159  0.5025 -2.4441 -1.1408
  954MOL0     H28753   4.703   5.336   8.021 -2.6342 -2.0226 -0.3815
  954MOL0     H28754   4.295   4.986   8.289 -1.7754 -0.8231 -0.1081
  954MOL0     H28755   4.130   4.981   8.474  0.3026 -0.8751 -1.4476
  954MOL0     H28756   4.029   5.018   8.690 -1.7489  0.0174  2.1304
  954MOL0     H28757   4.018   4.838   8.668  1.4521 -1.3860  2.0648
  954MOL0     H28758   3.900   4.876   8.854 -0.7283  1.4049  2.3149
  954MOL0     H28759   4.054   4.823   8.920  2.7515  1.6776  0.1511
  954MOL0     H28760   3.997   5.120   8.876 -1.0519  0.3332  0.3718
  954MOL0     H28761   4.121   5.082   8.974 -0.1747 -0.5819  0.0335
  954MOL0     H28762   3.824   5.029   9.074 -1.5270  2.7178 -1.1822
  954MOL0     H28763   3.979   5.012   9.163  1.8333  0.8786 -1.4922
  954MOL0     H28764   3.864   5.259   9.039 -0.6403  0.0014  0.5123
  954MOL0     H28765   4.016   5.242   9.129 -0.4688 -0.9263 -3.0448
  954MOL0     H28766   3.901   5.195   9.336  0.7637 -2.1949 -1.5471
  954MOL0     H28767   3.828   5.327   9.266 -1.3676 -0.6913 -1.7568
  954MOL0     H28768   3.688   5.056   9.278 -0.0124  0.5510  1.4178
  954MOL0     H28769   3.639   5.180   9.171 -0.4911 -0.3368 -0.7377
  954MOL0     H28770   3.632   5.337   9.368  0.4551 -0.1090  0.2222
  954MOL0     H28771   3.660   5.209   9.475 -1.1097 -1.1001 -0.1521
  954MOL0     H28772   4.457   4.914   8.742 -0.3386  0.2916 -0.0919
  954MOL0     H28773   4.616   4.891   8.558 -1.0373 -0.7524  1.5108
  954MOL0     H28774   4.614   4.810   8.083  0.1635 -0.2277  0.6072
  954MOL0     H28775   4.773   4.769   7.904 -2.1250 -0.7467 -0.7284
  954MOL0     H28776   6.458   4.083   8.062 -2.3818 -0.0872  1.3212
  954MOL0     H28777   6.629   3.989   8.218  0.6051 -0.4013  2.0563
  954MOL0     H28778   7.165   4.126   8.309 -1.3979  1.3295  1.0039
  954MOL0     H28779   7.338   3.963   8.403 -0.1349 -0.1570  0.1414
  954MOL0     H28780   7.432   3.787   8.447  0.3383  0.7502 -0.4739
  954MOL0     H28781   7.433   3.892   8.590 -0.3986 -0.1082  1.8394
  954MOL0     H28782   7.617   3.719   8.618  0.6547  0.1018  3.2121
  954MOL0     H28783   7.477   3.595   8.608  0.0541 -1.5120  3.2923
  954MOL0     H28784   7.499   3.614   8.828  1.6984  1.6894  3.0825
  954MOL0     H28785   7.366   3.740   8.784  1.0740  2.3929 -1.6013
  954MOL0     H28786   7.514   3.814   8.969  2.1976 -0.5569  0.5565
  954MOL0     H28787   7.548   3.905   8.816  3.2423  0.2825 -0.5966
  954MOL0     H28788   7.919   3.769   8.903  0.1499  2.6893  1.4738
  954MOL0     H28789   7.001   3.773   8.619 -0.3617 -2.2777 -0.9943
  954MOL0     H28790   6.859   3.926   8.527  0.7203 -3.0218  1.3019
  955MOL0     O28791   2.456   8.246   0.390 -0.4153 -0.3942 -0.1871
  955MOL0     C28792   2.350   8.245   0.323  0.0343  0.3683  0.2329
  955MOL0     O28793   2.261   8.133   0.320 -0.5146  0.3077 -0.4614
  955MOL0     C28794   2.315   8.015   0.368  0.6485 -0.2306  0.0909
  955MOL0     C28795   2.444   7.967   0.343  0.4871 -0.4733 -0.8578
  955MOL0     C28796   2.500   7.842   0.391  0.3539  0.3621 -0.3561
  955MOL0     C28797   2.419   7.762   0.477  0.1787  0.4291  0.5023
  955MOL0     O28798   2.458   7.646   0.539 -0.1350 -0.1809 -0.2696
  955MOL0     C28799   2.580   7.585   0.497 -0.1741  0.1413 -0.9610
  955MOL0     C28800   2.563   7.512   0.361 -0.1783  0.7749 -0.7021
  955MOL0     C28801   2.455   7.404   0.364 -0.4864  1.2971 -0.5381
  955MOL0     C28802   2.384   7.396   0.228 -0.4113  0.6276  0.5460
  955MOL0     C28803   2.281   7.281   0.210 -0.2367  0.1745  0.6011
  955MOL0     C28804   2.333   7.143   0.177  1.1443  0.9518 -0.2244
  955MOL0     C28805   2.216   7.047   0.139 -0.6109 -0.6180 -0.4350
  955MOL0     C28806   2.133   7.007   0.268  0.2421 -0.0320  0.4094
  955MOL0     N28807   2.045   6.897   0.232 -0.5434  0.5605  0.4095
  955MOL0     C28808   2.079   6.768   0.193 -0.7009  0.5107 -0.4179
  955MOL0     C28809   1.962   6.712   0.165 -0.7620  0.4978  0.6771
  955MOL0     C28810   1.923   6.573   0.102 -0.3614  0.4181  0.5725
  955MOL0     C28811   1.776   6.538   0.114 -0.1138  0.0735 -0.3911
  955MOL0     C28812   1.676   6.632   0.037 -0.8544  0.7180 -0.3055
  955MOL0     C28813   1.538   6.655   0.098  0.3824  0.5077 -0.4335
  955MOL0     O28814   1.490   6.525   0.116  0.2962 -0.6082 -0.4874
  955MOL0     C28815   1.365   6.512   0.173  0.4927  0.5861 -0.4693
  955MOL0     C28816   1.303   6.392   0.154 -1.0995 -0.8048 -0.2119
  955MOL0     C28817   1.167   6.369   0.172 -0.6380  0.4175 -0.4475
  955MOL0     C28818   1.111   6.229   0.141 -0.9805 -0.4226  0.0610
  955MOL0     C28819   1.087   6.481   0.205  0.8558  0.3277  0.2245
  955MOL0     C28820   0.941   6.485   0.197 -0.0887  0.6589 -0.2874
  955MOL0     O28821   0.878   6.370   0.152  0.4164 -0.9460  0.3324
  955MOL0     C28822   0.744   6.386   0.123 -0.2157  1.2916  0.0040
  955MOL0     C28823   0.701   6.456   0.015  1.2371 -0.4434  0.2209
  955MOL0     C28824   0.564   6.462  -0.022  0.6596 -0.3831  0.3067
  955MOL0     C28825   0.471   6.384   0.054  0.0872 -0.5457  0.3566
  955MOL0     O28826   0.343   6.385   0.002 -0.2740 -0.1302  0.4704
  955MOL0     C28827   0.246   6.288   0.057 -0.6398 -0.6677 -0.8055
  955MOL0     C28828   0.267   6.135   0.022  0.6545  0.1314  0.2534
  955MOL0     C28829   0.143   6.080  -0.055  1.1327  0.2235  0.0972
  955MOL0     C28830   0.157   5.939  -0.113 -0.3204 -0.1283  0.2916
  955MOL0     C28831   0.043   5.849  -0.066 -0.2062  0.0358  0.0952
  955MOL0     C28832  -0.089   5.908  -0.117 -0.6944  0.1242  0.0683
  955MOL0     C28833  -0.193   5.785  -0.155 -0.1351 -0.1518 -0.2909
  955MOL0     C28834  -0.255   5.713  -0.033 -0.2232 -0.1472  0.5712
  955MOL0    Cl28835  -0.301   5.833   0.095 -0.3953  0.7072  0.1682
  955MOL0     C28836   0.512   6.319   0.169  0.3071 -0.1415  0.0090
  955MOL0     C28837   0.648   6.323   0.203  0.1216 -0.7077 -0.3140
  955MOL0     O28838   0.887   6.587   0.239  0.1622  0.4874 -0.4063
  955MOL0     C28839   1.150   6.599   0.226 -0.6252  0.0600 -0.7573
  955MOL0     C28840   1.285   6.618   0.217  0.1852 -0.4412  0.1315
  955MOL0     N28841   1.863   6.801   0.204 -0.8541  1.1681 -0.2940
  955MOL0     N28842   1.913   6.917   0.243  0.2678 -0.1167 -0.3926
  955MOL0     C28843   2.288   7.807   0.497  0.0168  0.3788  0.4458
  955MOL0     C28844   2.237   7.928   0.444  0.4772  0.4233 -0.3204
  955MOL0     C28845   2.315   8.358   0.242  0.2445  0.3110 -0.1613
  955MOL0     C28846   2.207   8.353   0.156 -0.8030 -0.2139  1.0228
  955MOL0     C28847   2.175   8.468   0.081 -0.9721 -0.8313 -0.1350
  955MOL0     C28848   2.259   8.580   0.065 -0.3119 -0.5649 -0.4087
  955MOL0     O28849   2.238   8.685  -0.022  0.3814  0.2411 -0.0780
  955MOL0     C28850   2.158   8.668  -0.141  0.5326  0.2791 -0.8038
  955MOL0     C28851   2.251   8.697  -0.260 -1.0233  0.1633 -0.2964
  955MOL0     C28852   2.192   8.710  -0.395  0.6416 -0.3575 -0.3604
  955MOL0     C28853   2.075   8.816  -0.417  0.5306  0.3311  0.4711
  955MOL0     C28854   2.125   8.937  -0.479 -0.1191 -1.4835  0.3063
  955MOL0     C28855   2.157   9.047  -0.518 -0.2309  0.1311 -0.4363
  955MOL0     C28856   2.356   8.582   0.163  0.3842 -0.0918  0.4985
  955MOL0     C28857   2.385   8.479   0.245 -0.1629 -0.3026 -0.9661
  955MOL0     H28858   2.514   8.021   0.279  2.0040 -0.2069  0.9230
  955MOL0     H28859   2.607   7.824   0.398  0.0918 -1.3728 -0.2766
  955MOL0     H28860   2.667   7.651   0.501 -0.4054  0.4051  0.0518
  955MOL0     H28861   2.613   7.505   0.564  1.3982 -1.6222 -3.6385
  955MOL0     H28862   2.535   7.592   0.291 -0.8983  2.1500  1.0902
  955MOL0     H28863   2.656   7.463   0.331 -1.0223 -0.5933 -1.1696
  955MOL0     H28864   2.508   7.310   0.381 -0.3248  1.0972 -2.0096
  955MOL0     H28865   2.380   7.422   0.441  1.0173  3.2720  0.5703
  955MOL0     H28866   2.334   7.490   0.204  0.5465  0.9769 -0.1703
  955MOL0     H28867   2.462   7.381   0.152  1.2662  0.7098  2.1965
  955MOL0     H28868   2.226   7.290   0.304  0.0173  2.8580  0.5882
  955MOL0     H28869   2.212   7.307   0.128  1.0926 -0.0636 -0.6364
  955MOL0     H28870   2.403   7.140   0.094  0.7684 -2.1309 -0.5162
  955MOL0     H28871   2.407   7.104   0.247  2.2293 -0.3609 -2.0328
  955MOL0     H28872   2.154   7.094   0.063  2.2038  0.2759 -2.3427
  955MOL0     H28873   2.255   6.958   0.089 -1.5170 -0.0913 -2.1717
  955MOL0     H28874   2.064   7.083   0.306 -1.1256 -0.9694 -0.0790
  955MOL0     H28875   2.213   6.976   0.335  1.1719 -2.3524 -1.5992
  955MOL0     H28876   2.178   6.733   0.168 -0.5261 -1.6838  2.8285
  955MOL0     H28877   1.953   6.579  -0.003 -2.1944  0.0979  0.0042
  955MOL0     H28878   1.984   6.493   0.146  0.0011  3.1730  5.8925
  955MOL0     H28879   1.758   6.530   0.222  0.8936 -0.4553 -0.2453
  955MOL0     H28880   1.767   6.439   0.070  1.9479  1.2509 -3.8410
  955MOL0     H28881   1.651   6.587  -0.060 -1.4525 -1.9011  0.9553
  955MOL0     H28882   1.714   6.732   0.016 -0.9307  0.4470 -1.8313
  955MOL0     H28883   1.472   6.720   0.040 -1.7082  0.6025  1.8709
  955MOL0     H28884   1.544   6.706   0.194 -1.8412 -0.0326  0.0437
  955MOL0     H28885   1.362   6.313   0.108 -1.1345  0.6358 -2.9480
  955MOL0     H28886   1.058   6.229   0.046 -0.9702  3.4262 -0.1327
  955MOL0     H28887   1.187   6.155   0.116 -2.0516 -0.9731 -1.6917
  955MOL0     H28888   1.055   6.191   0.227  2.0260 -3.8964  0.7187
  955MOL0     H28889   0.772   6.511  -0.046  1.2443  2.8125  2.8764
  955MOL0     H28890   0.529   6.534  -0.096 -2.1477 -0.0955  1.7791
  955MOL0     H28891   0.231   6.290   0.166 -5.5175  0.1665 -1.2641
  955MOL0     H28892   0.151   6.318   0.014 -0.8201 -1.6433 -1.1150
  955MOL0     H28893   0.354   6.134  -0.045 -0.1200  1.5600 -0.8221
  955MOL0     H28894   0.288   6.071   0.108 -1.5944 -1.8737 -0.5781
  955MOL0     H28895   0.122   6.154  -0.132  1.7438  0.9731  0.6276
  955MOL0     H28896   0.066   6.086   0.022 -0.8066 -3.2479 -1.3458
  955MOL0     H28897   0.187   5.933  -0.218 -0.2390 -1.8282  0.3874
  955MOL0     H28898   0.239   5.893  -0.056 -1.9058 -1.1541  1.8430
  955MOL0     H28899   0.043   5.824   0.041 -4.3854  1.0011  0.4963
  955MOL0     H28900   0.061   5.753  -0.115 -1.1797  0.0031 -0.2028
  955MOL0     H28901  -0.133   5.975  -0.043 -3.0261 -0.4004 -0.7433
  955MOL0     H28902  -0.071   5.960  -0.211  2.3001  1.9908  1.5405
  955MOL0     H28903  -0.149   5.702  -0.211 -0.1099 -2.9539  3.4840
  955MOL0     H28904  -0.271   5.840  -0.208  1.6023  2.2635 -0.5493
  955MOL0     H28905  -0.189   5.632  -0.002  0.9280  1.1412  1.6466
  955MOL0     H28906  -0.343   5.660  -0.069  0.1244 -0.7814  0.6390
  955MOL0     H28907   0.445   6.262   0.232 -1.3248 -0.6943 -2.1178
  955MOL0     H28908   0.672   6.268   0.293 -0.5814  0.9983  0.9815
  955MOL0     H28909   1.094   6.687   0.256  0.2963 -0.1009  1.6373
  955MOL0     H28910   1.317   6.722   0.225  3.6763 -1.2245 -1.5669
  955MOL0     H28911   2.221   7.753   0.563  1.2092 -0.5980  0.8889
  955MOL0     H28912   2.135   7.957   0.471  0.5587  0.1489  0.3114
  955MOL0     H28913   2.152   8.259   0.158  0.4628 -1.1009 -1.2842
  955MOL0     H28914   2.075   8.476   0.038 -0.7298 -2.5551 -1.1030
  955MOL0     H28915   2.121   8.567  -0.158 -1.6086  0.7766  0.4536
  955MOL0     H28916   2.079   8.744  -0.142 -0.9245 -1.1957 -1.9362
  955MOL0     H28917   2.324   8.616  -0.260  0.7682  1.5989  2.3935
  955MOL0     H28918   2.305   8.790  -0.240 -3.2886  0.8479  3.7543
  955MOL0     H28919   2.151   8.616  -0.433 -0.8484 -0.8814  2.2989
  955MOL0     H28920   2.274   8.752  -0.455  0.4604  1.5156  0.6426
  955MOL0     H28921   2.032   8.849  -0.322 -0.6742  1.4525 -0.4311
  955MOL0     H28922   1.993   8.774  -0.475 -0.0965  1.2038  0.7194
  955MOL0     H28923   2.162   9.153  -0.536 -2.0155  0.3195 -0.0608
  955MOL0     H28924   2.413   8.674   0.172 -0.7381  0.5795  0.9760
  955MOL0     H28925   2.472   8.485   0.310  0.5480 -0.8631 -1.8413
  956MOL0     O28926   5.503   9.438   0.515  0.2350  0.5368  0.1475
  956MOL0     C28927   5.615   9.472   0.549 -0.1664 -0.4657  0.1895
  956MOL0     O28928   5.652   9.528   0.663  0.3620  0.1343 -0.0097
  956MOL0     C28929   5.562   9.598   0.736  0.6756  0.0833 -0.4835
  956MOL0     C28930   5.435   9.654   0.694  0.3396 -0.3328 -0.2304
  956MOL0     C28931   5.348   9.730   0.776  0.0649 -0.3550 -0.5430
  956MOL0     C28932   5.393   9.735   0.914  0.2860 -1.1882  0.8893
  956MOL0     O28933   5.325   9.796   1.011  0.5404 -0.5461 -0.3929
  956MOL0     C28934   5.192   9.842   0.983 -0.7726 -0.7467  0.5319
  956MOL0     C28935   5.163   9.940   1.092 -0.6031 -0.0252 -0.0807
  956MOL0     C28936   5.030  10.016   1.063 -0.4349 -0.2003  0.0896
  956MOL0     C28937   4.987  10.084   1.186 -0.4089  0.0023 -0.1119
  956MOL0     C28938   4.842  10.130   1.177  0.2138 -0.2021 -0.1574
  956MOL0     C28939   4.799  10.227   1.286  0.0812 -0.4055 -0.6675
  956MOL0     C28940   4.647  10.256   1.285  0.3562 -1.1471  0.5678
  956MOL0     C28941   4.620  10.368   1.394  0.1611 -0.0240  0.6438
  956MOL0     N28942   4.483  10.440   1.384  0.6513 -0.7346 -0.5190
  956MOL0     C28943   4.451  10.529   1.292  0.4382  0.0850 -0.0033
  956MOL0     C28944   4.316  10.548   1.293 -1.0303  0.2503 -0.2597
  956MOL0     C28945   4.244  10.630   1.199 -0.0757 -0.3499  0.0127
  956MOL0     C28946   4.093  10.659   1.236  0.1866  0.0935 -0.5864
  956MOL0     C28947   4.045  10.795   1.192 -0.5534 -0.4436  0.0919
  956MOL0     C28948   3.890  10.809   1.221  0.4693 -0.4895 -0.8226
  956MOL0     O28949   3.864  10.949   1.203  0.6448 -0.6377  0.3588
  956MOL0     C28950   3.773  10.992   1.109  0.0204 -0.3734  0.6493
  956MOL0     C28951   3.774  10.938   0.977  0.8011  1.2692  0.5132
  956MOL0     C28952   3.687  10.982   0.877  0.5173  0.6433 -0.1377
  956MOL0     C28953   3.701  10.917   0.745  0.9347 -0.5744  0.2980
  956MOL0     C28954   3.589  11.085   0.908  0.1375  0.6420 -0.2097
  956MOL0     C28955   3.473  11.119   0.819  0.3809  0.3712  0.1375
  956MOL0     O28956   3.364  11.169   0.883  0.0030 -0.2463  0.0333
  956MOL0     C28957   3.269  11.215   0.802  0.2382 -0.5278 -0.0235
  956MOL0     C28958   3.273  11.350   0.764  0.2137 -0.6413 -0.4419
  956MOL0     C28959   3.167  11.409   0.698  0.0198 -0.0055  0.2275
  956MOL0     C28960   3.044  11.331   0.689 -0.4026 -0.8312 -0.0676
  956MOL0     O28961   2.925  11.386   0.649 -0.3200 -0.6541  0.7061
  956MOL0     C28962   2.920  11.520   0.592 -0.5836 -0.2578 -0.0899
  956MOL0     C28963   2.776  11.550   0.543  0.5098 -0.8610 -0.3334
  956MOL0     C28964   2.728  11.474   0.421  0.2474 -0.0476  0.3218
  956MOL0     C28965   2.581  11.489   0.376  0.2001 -0.2099  0.6417
  956MOL0     C28966   2.562  11.426   0.240  0.7546  0.8590 -0.0609
  956MOL0     C28967   2.627  11.489   0.115 -0.4036 -0.2049 -0.1391
  956MOL0     C28968   2.600  11.392  -0.001 -0.5768 -0.0708  0.0350
  956MOL0     C28969   2.536  11.458  -0.119 -0.6731 -0.1047 -0.9051
  956MOL0    Cl28970   2.652  11.578  -0.180 -0.3757 -0.0892  0.0871
  956MOL0     C28971   3.033  11.204   0.737 -0.6898 -0.3925 -0.1883
  956MOL0     C28972   3.144  11.144   0.794  0.0520  0.5765  0.2259
  956MOL0     O28973   3.472  11.089   0.700  0.5598 -0.4059 -0.1101
  956MOL0     C28974   3.596  11.148   1.034  0.4435 -0.3331  0.3546
  956MOL0     C28975   3.694  11.101   1.129  0.3891 -0.0007 -0.1224
  956MOL0     N28976   4.276  10.490   1.410  0.0519 -0.2753  0.6881
  956MOL0     N28977   4.369  10.421   1.453 -0.5326 -0.1332  0.4196
  956MOL0     C28978   5.511   9.688   0.952  0.6205  0.2725 -0.7289
  956MOL0     C28979   5.599   9.614   0.871  0.9395 -0.5244  0.0376
  956MOL0     C28980   5.721   9.438   0.458  0.2200  0.2140 -0.6689
  956MOL0     C28981   5.705   9.325   0.370  0.9656 -0.4374  0.2343
  956MOL0     C28982   5.806   9.294   0.286 -1.0254 -0.2128 -0.0574
  956MOL0     C28983   5.910   9.387   0.260  0.5313 -0.5712  0.0983
  956MOL0     O28984   5.984   9.354   0.150  0.4024 -0.1772 -0.3301
  956MOL0     C28985   6.097   9.443   0.118  0.8936 -0.4483 -0.9124
  956MOL0     C28986   6.201   9.396   0.033 -0.4233  0.8031 -0.1003
  956MOL0     C28987   6.318   9.490   0.008  0.1775 -0.3630 -0.0034
  956MOL0     C28988   6.397   9.516   0.132 -0.1920  0.7435  0.9962
  956MOL0     C28989   6.533   9.575   0.110  0.1408 -0.1657  0.6030
  956MOL0     C28990   6.640   9.619   0.075 -0.3629  0.4399 -0.2955
  956MOL0     C28991   5.917   9.500   0.332 -0.4834  0.0249 -0.0225
  956MOL0     C28992   5.835   9.520   0.440  0.5164 -0.0520  0.8235
  956MOL0     H28993   5.401   9.639   0.592  0.7515 -1.7898 -0.1703
  956MOL0     H28994   5.257   9.760   0.726 -0.1768 -4.4703 -3.0922
  956MOL0     H28995   5.178   9.901   0.892 -2.3511 -0.3562  0.9965
  956MOL0     H28996   5.121   9.758   0.987 -0.7086 -0.8588 -0.4286
  956MOL0     H28997   5.153   9.878   1.182 -1.3084 -0.1376 -0.2263
  956MOL0     H28998   5.241  10.015   1.107 -1.4692  1.5026 -2.5270
  956MOL0     H28999   5.045  10.094   0.988 -0.3879  1.3012  1.5886
  956MOL0     H29000   4.958   9.940   1.031  1.8611 -2.8127  0.7083
  956MOL0     H29001   4.975  10.013   1.269 -2.6117 -0.0170 -0.3884
  956MOL0     H29002   5.055  10.166   1.211 -0.1848 -0.9501  2.7773
  956MOL0     H29003   4.828  10.196   1.091 -1.3432  1.8457  1.5574
  956MOL0     H29004   4.765  10.052   1.177 -1.2797  1.2322  0.0314
  956MOL0     H29005   4.830  10.180   1.380  0.9629  1.1564 -0.1405
  956MOL0     H29006   4.852  10.320   1.267 -1.7559  0.7152 -0.5571
  956MOL0     H29007   4.623  10.282   1.182  1.1869 -2.6839 -0.0510
  956MOL0     H29008   4.583  10.174   1.319 -2.1634  0.8900  1.0505
  956MOL0     H29009   4.693  10.448   1.376  1.1163 -1.1718 -0.8976
  956MOL0     H29010   4.627  10.329   1.495  2.1650 -1.2944  0.0781
  956MOL0     H29011   4.514  10.572   1.214 -0.6456  0.1103 -0.8943
  956MOL0     H29012   4.297  10.725   1.205  0.6879 -0.8508  3.9300
  956MOL0     H29013   4.263  10.571   1.109  3.3706 -0.5198  0.7022
  956MOL0     H29014   4.076  10.652   1.343  0.3163  1.4409 -0.4615
  956MOL0     H29015   4.029  10.587   1.184 -1.6527  1.4500 -0.3037
  956MOL0     H29016   4.059  10.809   1.085 -0.0951 -0.1132  0.1948
  956MOL0     H29017   4.091  10.870   1.257 -2.3666  0.7167  0.1054
  956MOL0     H29018   3.859  10.781   1.322 -1.7622  3.0887 -0.3409
  956MOL0     H29019   3.829  10.752   1.150 -1.1322  1.4448 -1.0660
  956MOL0     H29020   3.839  10.855   0.951  1.6934  2.7022 -2.2177
  956MOL0     H29021   3.772  10.836   0.726  0.9972 -0.3687 -0.3819
  956MOL0     H29022   3.604  10.873   0.719  1.0063 -0.6500  0.1553
  956MOL0     H29023   3.731  11.005   0.687  1.2009 -0.0259  1.2439
  956MOL0     H29024   3.367  11.397   0.791 -1.2823  0.8187  2.7512
  956MOL0     H29025   3.163  11.513   0.668 -2.8851 -0.1453 -0.1199
  956MOL0     H29026   2.929  11.580   0.683 -2.6070 -0.0771  0.0519
  956MOL0     H29027   2.986  11.532   0.506  0.3567 -1.6592  0.4094
  956MOL0     H29028   2.714  11.519   0.627 -1.3970 -0.4735 -1.5342
  956MOL0     H29029   2.768  11.659   0.534  0.9634 -0.4968  2.7452
  956MOL0     H29030   2.755  11.368   0.417  0.5827  0.0321  0.4578
  956MOL0     H29031   2.774  11.532   0.341 -0.8598  0.6310  0.1621
  956MOL0     H29032   2.515  11.452   0.455 -2.6256  5.0433  1.1847
  956MOL0     H29033   2.557  11.595   0.365 -0.4686 -0.0662  2.9406
  956MOL0     H29034   2.454  11.422   0.223  1.1504 -0.3873 -2.9684
  956MOL0     H29035   2.598  11.322   0.238  1.7163  1.1837 -0.3759
  956MOL0     H29036   2.586  11.589   0.100  3.5391  1.3907 -1.7597
  956MOL0     H29037   2.734  11.509   0.130 -0.8075  3.5397 -1.3014
  956MOL0     H29038   2.527  11.318   0.034 -0.2767 -1.4515 -2.0639
  956MOL0     H29039   2.694  11.344  -0.029 -0.7129 -0.8893  0.9390
  956MOL0     H29040   2.440  11.510  -0.108 -2.2765 -2.6639 -1.7871
  956MOL0     H29041   2.525  11.383  -0.198  0.2402  0.8218 -1.9485
  956MOL0     H29042   2.934  11.161   0.749  0.0061 -2.3474 -0.9979
  956MOL0     H29043   3.126  11.058   0.857  3.6236  1.2670  2.4903
  956MOL0     H29044   3.520  11.216   1.071  0.1469  0.7740 -2.0831
  956MOL0     H29045   3.703  11.141   1.229 -0.1676 -0.0551 -0.0496
  956MOL0     H29046   5.552   9.710   1.050 -0.0168  2.1082 -0.8353
  956MOL0     H29047   5.697   9.593   0.913  0.2279  0.1485  2.1921
  956MOL0     H29048   5.629   9.248   0.367 -1.1069  1.4766 -3.3340
  956MOL0     H29049   5.798   9.206   0.224  0.8759  0.7328 -1.7599
  956MOL0     H29050   6.057   9.537   0.078  0.6260  0.1054  0.5840
  956MOL0     H29051   6.142   9.460   0.216 -0.5770  1.1180 -0.4625
  956MOL0     H29052   6.156   9.385  -0.066  1.7934  0.0115 -1.0717
  956MOL0     H29053   6.246   9.301   0.062  1.5194  1.8620  0.5163
  956MOL0     H29054   6.275   9.584  -0.028  1.2981  0.0888 -0.1878
  956MOL0     H29055   6.390   9.450  -0.064  0.9463  0.0717  0.5129
  956MOL0     H29056   6.417   9.416   0.172 -0.6020  0.2237 -0.0424
  956MOL0     H29057   6.357   9.585   0.206  0.0227 -0.3483  2.1656
  956MOL0     H29058   6.717   9.676   0.026 -0.7907  0.3152 -1.1355
  956MOL0     H29059   5.996   9.573   0.320 -0.0515  0.4669  4.1443
  956MOL0     H29060   5.837   9.599   0.513 -1.6511 -1.7529  2.8947
  957MOL0     O29061   0.502   1.291   1.136 -0.6232  0.2947 -0.3784
  957MOL0     C29062   0.441   1.352   1.217  0.0590  0.4652  0.1288
  957MOL0     O29063   0.303   1.364   1.216 -0.7620 -0.2760  0.4749
  957MOL0     C29064   0.223   1.308   1.120 -0.0751  0.5293 -0.2570
  957MOL0     C29065   0.104   1.371   1.094  0.6670 -0.6510  0.5153
  957MOL0     C29066   0.012   1.321   1.001 -0.4206  0.0061 -0.3138
  957MOL0     C29067   0.039   1.195   0.945 -0.5024 -0.9322  0.6015
  957MOL0     O29068  -0.053   1.140   0.859  0.1907  0.1620  0.6249
  957MOL0     C29069  -0.107   1.018   0.907 -0.0428 -0.0133  0.3680
  957MOL0     C29070  -0.262   1.021   0.884  1.1677 -0.2747  0.7439
  957MOL0     C29071  -0.312   1.061   0.737 -0.0836  0.1494  0.5004
  957MOL0     C29072  -0.466   1.046   0.718  0.6497  0.3618  0.1162
  957MOL0     C29073  -0.504   1.069   0.570 -0.4869  0.6513 -0.5384
  957MOL0     C29074  -0.641   1.004   0.548  0.0273  0.6243  0.7034
  957MOL0     C29075  -0.739   1.079   0.451 -0.5326  0.0951  0.1732
  957MOL0     C29076  -0.849   0.988   0.407  0.0782  0.3323  0.2830
  957MOL0     N29077  -0.955   0.962   0.504  0.5629  0.1202 -0.7417
  957MOL0     C29078  -1.017   1.068   0.567 -0.0305 -0.4597 -0.0145
  957MOL0     C29079  -1.120   1.014   0.634  0.1973  1.0956 -0.1207
  957MOL0     C29080  -1.210   1.082   0.728 -0.9337  0.2617 -1.3507
  957MOL0     C29081  -1.350   1.023   0.731  1.2691 -0.2644  0.0626
  957MOL0     C29082  -1.433   1.103   0.837 -0.2057 -0.9105 -1.0029
  957MOL0     C29083  -1.556   1.020   0.871 -0.3678  0.4824  0.5430
  957MOL0     O29084  -1.645   1.091   0.959  0.2961 -0.0140 -0.5246
  957MOL0     C29085  -1.737   0.999   1.013 -0.3875  0.1063  0.0001
  957MOL0     C29086  -1.870   1.051   1.009  0.1335 -0.5760 -0.9103
  957MOL0     C29087  -1.984   0.989   1.061 -0.9453 -0.6148 -0.4242
  957MOL0     C29088  -2.122   1.056   1.041  0.1153 -0.5565 -0.3088
  957MOL0     C29089  -1.962   0.853   1.111  0.9574  0.0962 -0.7399
  957MOL0     C29090  -2.072   0.754   1.134  0.2737  0.0327  0.5463
  957MOL0     O29091  -2.063   0.637   1.215 -0.6794 -0.2405  0.4720
  957MOL0     C29092  -2.176   0.562   1.231 -0.8942  1.4938 -0.0309
  957MOL0     C29093  -2.275   0.536   1.141 -0.0608 -0.1223  0.3766
  957MOL0     C29094  -2.362   0.440   1.169  0.0861  0.9641  0.1593
  957MOL0     C29095  -2.360   0.363   1.285 -0.7093 -1.1553  0.1125
  957MOL0     O29096  -2.459   0.272   1.281  0.3417  0.3674 -0.9709
  957MOL0     C29097  -2.467   0.191   1.399 -0.2793  0.1480  0.1975
  957MOL0     C29098  -2.548   0.066   1.386  0.8402  0.2878  0.9523
  957MOL0     C29099  -2.690   0.103   1.330  0.7435  0.9172 -0.2223
  957MOL0     C29100  -2.788   0.003   1.392  0.2057 -0.1995  0.5301
  957MOL0     C29101  -2.938   0.045   1.368  0.1434 -0.1833 -0.2895
  957MOL0     C29102  -3.052  -0.042   1.439 -0.1790  0.0894 -0.6388
  957MOL0     C29103  -3.192  -0.002   1.385 -0.5563  0.6631 -0.5096
  957MOL0     C29104  -3.308  -0.061   1.461  0.4904  0.6068 -1.1124
  957MOL0    Cl29105  -3.323   0.036   1.619 -0.0442  0.1270  0.0951
  957MOL0     C29106  -2.266   0.391   1.382  0.9557 -0.1983 -0.1040
  957MOL0     C29107  -2.166   0.483   1.351  0.7994 -0.1659  0.1815
  957MOL0     O29108  -2.161   0.775   1.052 -0.4166 -0.2042  0.3841
  957MOL0     C29109  -1.834   0.807   1.129 -0.4092 -0.4588 -0.7734
  957MOL0     C29110  -1.720   0.876   1.077 -0.0617  0.8786  0.2062
  957MOL0     N29111  -1.122   0.884   0.602  0.3650  0.3325  0.2980
  957MOL0     N29112  -1.022   0.845   0.525 -0.1013  0.3275 -0.7753
  957MOL0     C29113   0.154   1.131   0.976 -0.8133  0.3602  0.9078
  957MOL0     C29114   0.243   1.178   1.066 -0.5808  0.4311 -0.6021
  957MOL0     C29115   0.516   1.426   1.315 -0.6112 -0.0724  0.2674
  957MOL0     C29116   0.444   1.509   1.405 -0.4861  0.1511  0.4254
  957MOL0     C29117   0.503   1.583   1.498 -1.0858 -0.0640 -0.1044
  957MOL0     C29118   0.644   1.570   1.510  0.4229 -1.4724 -0.8541
  957MOL0     O29119   0.689   1.639   1.619 -0.0835  0.6828  0.3480
  957MOL0     C29120   0.820   1.612   1.659 -0.4698 -0.5910 -0.2985
  957MOL0     C29121   0.843   1.730   1.758  0.6553 -1.0437 -0.1263
  957MOL0     C29122   0.974   1.699   1.829 -0.1887 -0.2300  0.4610
  957MOL0     C29123   1.007   1.817   1.928 -0.1161 -0.5300 -0.8845
  957MOL0     C29124   1.109   1.794   2.023 -0.5352  0.7480 -0.0553
  957MOL0     C29125   1.173   1.785   2.130 -0.7063  0.3688  0.1506
  957MOL0     C29126   0.720   1.497   1.425 -0.0787 -0.4650 -0.2201
  957MOL0     C29127   0.652   1.427   1.324 -0.4931 -0.9181 -0.6593
  957MOL0     H29128   0.092   1.472   1.130  3.3336 -1.2707  3.6449
  957MOL0     H29129  -0.068   1.388   0.970 -0.6242 -0.6347 -1.2078
  957MOL0     H29130  -0.069   0.936   0.845  0.1013 -0.5438  1.1418
  957MOL0     H29131  -0.082   0.993   1.011 -0.2410  1.4548  0.7909
  957MOL0     H29132  -0.298   0.922   0.913  3.9632 -1.3781  0.6967
  957MOL0     H29133  -0.305   1.090   0.958 -4.4074  1.4777 -3.4169
  957MOL0     H29134  -0.291   1.167   0.720 -1.5993  0.9300  2.9091
  957MOL0     H29135  -0.259   1.005   0.659 -2.2743 -0.7597 -0.4227
  957MOL0     H29136  -0.498   0.948   0.755  2.1247  0.3214  1.4096
  957MOL0     H29137  -0.526   1.113   0.780 -2.1196 -0.8664 -1.1142
  957MOL0     H29138  -0.503   1.178   0.555  2.3410  0.8099  0.3142
  957MOL0     H29139  -0.430   1.025   0.503  1.1490 -0.0688  1.6349
  957MOL0     H29140  -0.634   0.903   0.506 -0.6552  1.1121 -0.6457
  957MOL0     H29141  -0.699   1.008   0.640 -1.3488 -0.8572 -0.0479
  957MOL0     H29142  -0.771   1.172   0.498  0.2961  0.1701  0.6088
  957MOL0     H29143  -0.689   1.105   0.357 -1.1462 -1.7887 -0.7272
  957MOL0     H29144  -0.819   0.892   0.364  0.3126  1.0267 -1.1357
  957MOL0     H29145  -0.899   1.046   0.329  2.1794 -1.0588 -2.2523
  957MOL0     H29146  -0.986   1.172   0.578  0.1237 -0.5600  0.5481
  957MOL0     H29147  -1.167   1.069   0.827 -0.4726  3.8611 -0.9277
  957MOL0     H29148  -1.219   1.190   0.712  2.2569  1.1362  1.6498
  957MOL0     H29149  -1.342   0.916   0.751  1.1848 -0.7027 -2.0692
  957MOL0     H29150  -1.399   1.041   0.635 -1.7838 -0.4559  1.4548
  957MOL0     H29151  -1.470   1.200   0.802  1.8449  0.3722  0.1648
  957MOL0     H29152  -1.373   1.107   0.928 -0.6128 -2.2476 -0.6488
  957MOL0     H29153  -1.532   0.924   0.917 -0.2690  0.7546  1.0591
  957MOL0     H29154  -1.616   0.984   0.786  3.1233 -0.2241 -1.8483
  957MOL0     H29155  -1.873   1.153   0.971 -2.3420 -0.7372 -1.3048
  957MOL0     H29156  -2.169   1.009   0.954 -1.8380  2.5688 -1.1383
  957MOL0     H29157  -2.185   1.035   1.128  1.0648 -0.0966  0.5107
  957MOL0     H29158  -2.123   1.161   1.009  4.1128 -0.9988 -2.4392
  957MOL0     H29159  -2.292   0.599   1.054 -1.5163 -1.6992 -0.5351
  957MOL0     H29160  -2.436   0.408   1.096 -1.0177 -1.5743  2.2284
  957MOL0     H29161  -2.365   0.162   1.426  1.3851  2.8248 -2.5902
  957MOL0     H29162  -2.512   0.252   1.478 -2.5874 -1.4340  0.2062
  957MOL0     H29163  -2.507  -0.003   1.312 -3.0014  1.3230 -2.5044
  957MOL0     H29164  -2.537   0.025   1.486 -1.2313  2.3149  2.1254
  957MOL0     H29165  -2.707   0.109   1.222  1.1576 -3.3318 -0.7070
  957MOL0     H29166  -2.724   0.204   1.354 -1.1302  0.0099  1.2581
  957MOL0     H29167  -2.782  -0.090   1.334  3.8459  1.8079 -2.7519
  957MOL0     H29168  -2.766  -0.010   1.499  0.5421  1.8381  0.7542
  957MOL0     H29169  -2.953   0.037   1.260 -1.2353  1.1428 -0.2420
  957MOL0     H29170  -2.952   0.153   1.383  0.1903 -0.1973 -0.1482
  957MOL0     H29171  -3.032  -0.148   1.427 -1.9040 -0.4710  0.9003
  957MOL0     H29172  -3.043  -0.028   1.547  4.7926 -2.0596 -0.4982
  957MOL0     H29173  -3.202  -0.022   1.278  1.8146  0.3770 -0.7486
  957MOL0     H29174  -3.196   0.106   1.397  3.8705  0.9113  0.8524
  957MOL0     H29175  -3.294  -0.169   1.473 -0.1822  0.3687 -2.2986
  957MOL0     H29176  -3.395  -0.054   1.395 -0.6675 -0.7491  0.2206
  957MOL0     H29177  -2.256   0.344   1.480  0.9094 -1.0129 -0.4772
  957MOL0     H29178  -2.087   0.503   1.423  1.0230  0.9843 -0.3609
  957MOL0     H29179  -1.812   0.717   1.186  3.0613  1.3867  1.1437
  957MOL0     H29180  -1.617   0.844   1.088 -0.2263  0.0676 -0.5395
  957MOL0     H29181   0.176   1.041   0.921 -0.8226  1.2106 -0.5261
  957MOL0     H29182   0.330   1.117   1.088 -2.3943 -1.5160  1.4905
  957MOL0     H29183   0.336   1.502   1.404 -0.4416 -0.6348  0.3326
  957MOL0     H29184   0.445   1.654   1.556  1.0837  1.2236  0.6112
  957MOL0     H29185   0.819   1.510   1.696 -3.4111 -0.5664 -0.0520
  957MOL0     H29186   0.892   1.621   1.578  1.2713 -1.2137  1.1168
  957MOL0     H29187   0.771   1.737   1.840  0.0704  0.0899 -0.7147
  957MOL0     H29188   0.844   1.823   1.701  1.6661 -0.6221  0.5481
  957MOL0     H29189   1.061   1.688   1.763  0.1408  3.3428  0.1098
  957MOL0     H29190   0.956   1.602   1.877 -0.1957 -0.0281  0.8768
  957MOL0     H29191   0.923   1.841   1.994  0.2873 -1.1493 -0.1322
  957MOL0     H29192   1.038   1.910   1.879 -0.1945 -0.6818 -1.2227
  957MOL0     H29193   1.211   1.783   2.230  0.9645 -0.2349 -0.4706
  957MOL0     H29194   0.825   1.479   1.442 -0.0404  1.6140  2.4731
  957MOL0     H29195   0.711   1.358   1.264 -0.3376 -1.3502 -0.0277
  958MOL0     O29196   2.422   6.833   0.217 -0.8187  0.2734  0.3669
  958MOL0     C29197   2.530   6.787   0.246  0.0248 -0.2027  0.3145
  958MOL0     O29198   2.548   6.691   0.341 -0.2885  0.5219  0.2203
  958MOL0     C29199   2.428   6.653   0.394  0.5571  0.5749  1.0722
  958MOL0     C29200   2.377   6.528   0.351 -0.3399  0.4079 -0.5394
  958MOL0     C29201   2.253   6.477   0.392 -0.1476  0.1621  0.0348
  958MOL0     C29202   2.180   6.549   0.481 -0.5044 -0.3528 -0.1470
  958MOL0     O29203   2.058   6.512   0.526  0.5220 -0.9684 -0.3749
  958MOL0     C29204   1.985   6.410   0.455 -0.3929  0.1354  0.4641
  958MOL0     C29205   1.835   6.414   0.499  1.1111 -0.4724  0.5932
  958MOL0     C29206   1.780   6.552   0.509  0.8386  0.0849  0.1979
  958MOL0     C29207   1.629   6.557   0.489 -0.0415 -0.1621 -0.4808
  958MOL0     C29208   1.561   6.700   0.524  0.5122  0.8106  0.0454
  958MOL0     C29209   1.588   6.743   0.677  0.1053  0.0105 -0.0481
  958MOL0     C29210   1.546   6.640   0.783  0.6245 -0.0185 -0.8325
  958MOL0     C29211   1.542   6.695   0.917  0.0231  0.5748 -0.3908
  958MOL0     N29212   1.487   6.586   1.014 -0.1824 -0.0126  0.3035
  958MOL0     C29213   1.354   6.595   1.056  0.6142 -0.0464 -0.6220
  958MOL0     C29214   1.326   6.485   1.128 -0.0290 -0.0805  0.6070
  958MOL0     C29215   1.202   6.448   1.210  0.0463  0.1398 -0.3048
  958MOL0     C29216   1.091   6.464   1.114  0.3668  0.0998 -0.8358
  958MOL0     C29217   0.958   6.410   1.180 -0.5550  0.1994  0.2566
  958MOL0     C29218   0.835   6.419   1.086  1.2702 -0.0026  0.4606
  958MOL0     O29219   0.720   6.339   1.132  0.7064  0.1999  0.1982
  958MOL0     C29220   0.609   6.315   1.052  1.1037 -0.3103  0.3408
  958MOL0     C29221   0.531   6.200   1.077  0.8140 -1.0246  0.5547
  958MOL0     C29222   0.418   6.166   0.998  0.2630 -0.0363 -0.3511
  958MOL0     C29223   0.346   6.044   1.039  0.4955  0.0865  0.1240
  958MOL0     C29224   0.391   6.244   0.880 -0.1625  0.1020 -0.3398
  958MOL0     C29225   0.282   6.221   0.786 -0.9074  0.0549 -0.1519
  958MOL0     O29226   0.280   6.293   0.671  0.0380  0.1941 -0.1896
  958MOL0     C29227   0.172   6.298   0.589  0.0309 -0.0785  0.1755
  958MOL0     C29228   0.111   6.425   0.548 -0.0053  0.5022 -0.4390
  958MOL0     C29229   0.003   6.431   0.457  0.1978  0.3496  0.0355
  958MOL0     C29230  -0.052   6.314   0.405  0.3201 -0.3595  0.2983
  958MOL0     O29231  -0.166   6.339   0.330 -0.7334 -0.2404 -0.4195
  958MOL0     C29232  -0.215   6.254   0.223 -0.0671 -0.5007 -0.4168
  958MOL0     C29233  -0.363   6.299   0.199  0.1011 -0.2753  0.0847
  958MOL0     C29234  -0.448   6.199   0.125  0.8298 -0.5569  0.2012
  958MOL0     C29235  -0.529   6.117   0.233 -0.7470  0.1885  0.9135
  958MOL0     C29236  -0.625   6.008   0.167 -1.4862 -0.3782  0.6244
  958MOL0     C29237  -0.691   5.923   0.278 -0.9630 -0.0463  0.5233
  958MOL0     C29238  -0.800   5.840   0.226  0.0068 -0.4742 -0.5388
  958MOL0     C29239  -0.758   5.744   0.124  0.3473 -0.9757  0.5754
  958MOL0    Cl29240  -0.868   5.608   0.095 -0.2476  0.4650 -0.0298
  958MOL0     C29241   0.006   6.189   0.430 -0.1777 -0.2445  0.0715
  958MOL0     C29242   0.118   6.192   0.519 -0.3644  0.3787  0.3462
  958MOL0     O29243   0.191   6.154   0.829  1.2474 -0.2432 -0.0120
  958MOL0     C29244   0.477   6.358   0.855  0.0337 -0.0926  0.3174
  958MOL0     C29245   0.584   6.390   0.929 -0.9815 -0.2638  0.1831
  958MOL0     N29246   1.433   6.401   1.108 -0.0453 -0.4012 -0.4984
  958MOL0     N29247   1.531   6.459   1.044 -0.5778 -0.1849 -0.9826
  958MOL0     C29248   2.231   6.665   0.541 -0.3635  0.4284  0.1053
  958MOL0     C29249   2.353   6.718   0.497  0.1977 -0.0148 -0.1179
  958MOL0     C29250   2.647   6.847   0.182 -0.4837 -1.3357  0.3336
  958MOL0     C29251   2.637   6.904   0.052  0.2331  0.1543 -0.0519
  958MOL0     C29252   2.758   6.954  -0.007  0.6833 -0.3307 -0.3467
  958MOL0     C29253   2.877   6.950   0.060  0.1763  0.1934 -0.6915
  958MOL0     O29254   3.003   6.987   0.014  0.0765 -0.5177  0.6508
  958MOL0     C29255   3.029   7.045  -0.115  0.1768  0.1254  0.3120
  958MOL0     C29256   3.182   7.056  -0.134 -0.9149  0.3044  0.4445
  958MOL0     C29257   3.207   7.117  -0.271  0.1379 -0.4013  0.5215
  958MOL0     C29258   3.147   7.049  -0.397 -0.7723  0.7671 -0.2411
  958MOL0     C29259   3.186   6.910  -0.391 -1.0703  1.0438  0.1566
  958MOL0     C29260   3.208   6.790  -0.385  0.3289 -0.4782 -0.7691
  958MOL0     C29261   2.884   6.893   0.186  0.9057 -0.4217  0.0751
  958MOL0     C29262   2.771   6.840   0.251 -0.1606  0.1148  0.6559
  958MOL0     H29263   2.428   6.462   0.281 -0.8491 -1.7350  1.0144
  958MOL0     H29264   2.210   6.397   0.333 -0.3211 -1.7588  2.5960
  958MOL0     H29265   1.979   6.425   0.347  0.4977  0.8694  0.4999
  958MOL0     H29266   2.027   6.313   0.482 -1.9667 -0.8135 -0.4101
  958MOL0     H29267   1.777   6.364   0.421 -0.6212  2.1041  0.0849
  958MOL0     H29268   1.816   6.357   0.591  0.8080  0.0579  0.8662
  958MOL0     H29269   1.800   6.581   0.613  0.6703  0.3790  0.1487
  958MOL0     H29270   1.825   6.623   0.439  2.1873 -2.7617 -2.0401
  958MOL0     H29271   1.610   6.544   0.382  2.5726  2.2648 -1.3684
  958MOL0     H29272   1.588   6.473   0.545 -0.9223  0.7088  0.2126
  958MOL0     H29273   1.593   6.777   0.454  2.7900 -1.8755 -2.1180
  958MOL0     H29274   1.453   6.688   0.513  0.7158 -0.0369 -1.2142
  958MOL0     H29275   1.697   6.749   0.685  0.4270 -3.3103 -0.2683
  958MOL0     H29276   1.545   6.842   0.694  1.0803  0.5153 -0.4490
  958MOL0     H29277   1.448   6.593   0.772 -0.0070  1.0824 -0.0303
  958MOL0     H29278   1.623   6.562   0.780 -0.3027 -1.0241  0.5987
  958MOL0     H29279   1.482   6.786   0.930  0.9715  1.0636  0.7353
  958MOL0     H29280   1.646   6.720   0.940  0.3818  0.1174 -1.4370
  958MOL0     H29281   1.287   6.680   1.063 -1.2674 -1.2185 -2.8310
  958MOL0     H29282   1.211   6.354   1.266  0.8875  1.9721  2.9186
  958MOL0     H29283   1.197   6.529   1.284  0.3727 -2.2303  2.5348
  958MOL0     H29284   1.113   6.420   1.016 -4.4403 -1.5694 -1.4286
  958MOL0     H29285   1.082   6.571   1.098  0.3686  0.0968 -0.8575
  958MOL0     H29286   0.940   6.464   1.273  1.0970 -0.2649  0.8824
  958MOL0     H29287   0.972   6.304   1.205 -1.9317 -0.1333 -0.2965
  958MOL0     H29288   0.854   6.401   0.980  1.3460 -1.2520  0.6739
  958MOL0     H29289   0.803   6.523   1.097 -1.2883 -0.6700 -0.2040
  958MOL0     H29290   0.561   6.141   1.163 -2.0813 -0.4651  2.0810
  958MOL0     H29291   0.406   5.977   1.102  0.6673  0.9149  0.8702
  958MOL0     H29292   0.263   6.077   1.103  0.9046  0.0579  0.6750
  958MOL0     H29293   0.322   5.984   0.951  2.3909 -0.2349 -0.2159
  958MOL0     H29294   0.162   6.505   0.603  0.4698  0.2687 -0.5318
  958MOL0     H29295  -0.036   6.531   0.439 -2.6552 -0.2892  2.1198
  958MOL0     H29296  -0.164   6.279   0.129  0.9743  0.7172  0.4342
  958MOL0     H29297  -0.199   6.149   0.249  1.9048 -0.1228  0.0561
  958MOL0     H29298  -0.409   6.318   0.296 -0.3823 -2.4387  0.3358
  958MOL0     H29299  -0.356   6.393   0.144  0.3171 -0.9213 -1.0446
  958MOL0     H29300  -0.374   6.134   0.076  1.0910 -1.1054  1.2800
  958MOL0     H29301  -0.521   6.244   0.057  5.0377  0.9608 -3.8406
  958MOL0     H29302  -0.455   6.079   0.304 -0.0177  2.8719  1.7195
  958MOL0     H29303  -0.584   6.190   0.294  1.2502  1.7864  0.9373
  958MOL0     H29304  -0.564   5.958   0.091 -0.1319  0.0958  1.3611
  958MOL0     H29305  -0.697   6.060   0.104 -1.4777 -0.0923  0.8467
  958MOL0     H29306  -0.619   5.854   0.324 -1.0953 -1.0461 -0.7340
  958MOL0     H29307  -0.725   5.988   0.359  0.1643  1.7851 -0.3917
  958MOL0     H29308  -0.887   5.900   0.196 -0.9997 -2.0448 -0.8587
  958MOL0     H29309  -0.825   5.774   0.309  0.0498 -0.3896 -0.4579
  958MOL0     H29310  -0.662   5.702   0.156  1.7502  2.0568  0.6648
  958MOL0     H29311  -0.736   5.799   0.032  0.1953 -0.5222  0.8108
  958MOL0     H29312  -0.027   6.096   0.384 -1.2212  0.3889 -0.4900
  958MOL0     H29313   0.150   6.100   0.567 -3.1179 -0.0499  1.5257
  958MOL0     H29314   0.458   6.428   0.775  2.1074 -1.4158 -1.4441
  958MOL0     H29315   0.642   6.474   0.892 -0.3146 -0.0753  1.5934
  958MOL0     H29316   2.170   6.713   0.616  0.0028  0.0157  0.6812
  958MOL0     H29317   2.374   6.816   0.540 -2.1392  1.2896 -1.7594
  958MOL0     H29318   2.546   6.906  -0.007 -1.3151 -2.6959  1.9412
  958MOL0     H29319   2.760   6.991  -0.109  0.2422 -0.0082 -0.2427
  958MOL0     H29320   2.989   6.975  -0.189  1.4741 -3.5751  2.8079
  958MOL0     H29321   2.973   7.138  -0.131  1.0599  0.9300  1.6955
  958MOL0     H29322   3.234   6.961  -0.119 -1.5156 -0.2983 -1.1362
  958MOL0     H29323   3.231   7.110  -0.052  0.4829  0.5967 -0.5558
  958MOL0     H29324   3.312   7.141  -0.289 -0.6299  3.7362  0.5627
  958MOL0     H29325   3.156   7.213  -0.276 -0.5073 -0.6294  2.1851
  958MOL0     H29326   3.189   7.095  -0.487 -0.7270  1.5268  0.1621
  958MOL0     H29327   3.039   7.040  -0.407 -0.7363 -2.3500  0.8862
  958MOL0     H29328   3.231   6.686  -0.394  0.2443 -0.7694  1.8314
  958MOL0     H29329   2.986   6.881   0.220  1.1926 -0.6452 -0.8483
  958MOL0     H29330   2.762   6.790   0.347 -2.4420  1.7520  1.3988
  959MOL0     O29331   8.136   7.735   7.460 -0.3029 -0.0780  0.3099
  959MOL0     C29332   8.108   7.719   7.342 -0.3354 -1.3932  0.8806
  959MOL0     O29333   7.984   7.754   7.282 -0.0217  0.0625 -0.4140
  959MOL0     C29334   7.878   7.807   7.359  0.4489  0.7747  0.1452
  959MOL0     C29335   7.744   7.761   7.344 -0.1948  0.6907 -0.3830
  959MOL0     C29336   7.637   7.822   7.411  0.3031 -0.2464 -0.0486
  959MOL0     C29337   7.658   7.935   7.489  1.5251 -0.0026  1.1360
  959MOL0     O29338   7.541   7.985   7.550 -0.4527  0.2886 -0.7227
  959MOL0     C29339   7.555   8.085   7.653  0.1210  0.0018  0.5556
  959MOL0     C29340   7.428   8.089   7.741 -1.1019 -0.0433 -0.4846
  959MOL0     C29341   7.375   7.952   7.793 -0.3693 -0.4556 -0.2811
  959MOL0     C29342   7.237   7.963   7.863  0.1930 -0.2215  0.3736
  959MOL0     C29343   7.211   7.849   7.962 -0.6877  0.8639 -0.9875
  959MOL0     C29344   7.074   7.870   8.021 -0.0122 -0.1004 -0.2887
  959MOL0     C29345   7.053   7.774   8.137  0.4533  0.2350  0.3868
  959MOL0     C29346   6.914   7.812   8.200 -0.2629  0.4527  0.1528
  959MOL0     N29347   6.804   7.756   8.124 -0.7951  0.1439 -0.2784
  959MOL0     C29348   6.765   7.627   8.140  0.2125 -0.3515 -1.1291
  959MOL0     C29349   6.680   7.601   8.036 -0.5897 -0.5093 -0.3111
  959MOL0     C29350   6.618   7.468   7.987 -0.4733 -0.1494  0.2407
  959MOL0     C29351   6.467   7.452   7.986 -0.4399 -0.4349 -0.7167
  959MOL0     C29352   6.416   7.435   8.142 -0.7818 -0.0079 -0.1574
  959MOL0     C29353   6.414   7.289   8.185  1.1806  0.2935 -0.2451
  959MOL0     O29354   6.302   7.240   8.123  0.4207  0.4114 -0.5567
  959MOL0     C29355   6.210   7.160   8.178  0.6133 -0.0213 -1.3641
  959MOL0     C29356   6.244   7.057   8.264  0.2916 -0.4355  0.2115
  959MOL0     C29357   6.160   6.955   8.297  0.4177  0.5426  0.5280
  959MOL0     C29358   6.199   6.855   8.408 -0.4722  0.5690  0.6033
  959MOL0     C29359   6.023   6.959   8.255  0.8957  0.3534 -0.0786
  959MOL0     C29360   5.909   6.863   8.295 -0.0932 -0.8060 -0.7001
  959MOL0     O29361   5.788   6.889   8.242  0.3730 -0.2434 -0.0189
  959MOL0     C29362   5.676   6.833   8.306  0.1626  0.1212  0.4235
  959MOL0     C29363   5.619   6.714   8.255 -0.3184  0.4338 -0.6529
  959MOL0     C29364   5.509   6.659   8.316  0.2312 -0.5146 -0.6444
  959MOL0     C29365   5.457   6.713   8.434 -0.0470  0.3155  0.2775
  959MOL0     O29366   5.361   6.648   8.496  0.6688 -0.2037  0.3100
  959MOL0     C29367   5.225   6.674   8.457 -0.1062  0.0803  0.1370
  959MOL0     C29368   5.172   6.598   8.333  0.4676 -1.0668 -0.7277
  959MOL0     C29369   5.161   6.445   8.353  0.1693  0.6730 -0.6971
  959MOL0     C29370   5.080   6.389   8.237 -0.6166  0.5025 -0.1470
  959MOL0     C29371   5.160   6.368   8.104  0.5875  0.3232  0.0953
  959MOL0     C29372   5.079   6.318   7.984 -0.1015  1.5893  0.2648
  959MOL0     C29373   5.023   6.176   7.984  0.3082 -0.2317  0.4533
  959MOL0     C29374   5.130   6.064   7.989  0.0493 -0.7186 -0.3465
  959MOL0    Cl29375   5.212   6.038   8.145 -0.0275 -0.3205  0.2928
  959MOL0     C29376   5.530   6.823   8.500 -0.1472  0.4315  0.2194
  959MOL0     C29377   5.634   6.884   8.433  0.7202  0.1419  0.5906
  959MOL0     O29378   5.935   6.774   8.379 -0.2610  0.3219 -0.0354
  959MOL0     C29379   5.983   7.062   8.161 -0.2902 -0.4885  0.7371
  959MOL0     C29380   6.080   7.154   8.123 -1.1500  0.9801 -0.1628
  959MOL0     N29381   6.678   7.713   7.959 -0.5051  0.3151  0.4147
  959MOL0     N29382   6.744   7.812   8.018 -0.1304  0.7201  0.3883
  959MOL0     C29383   7.789   7.981   7.512 -1.3373  0.0977 -0.7092
  959MOL0     C29384   7.899   7.913   7.451 -0.2651  0.0992  0.0033
  959MOL0     C29385   8.212   7.655   7.249 -0.6917  0.5631  0.4516
  959MOL0     C29386   8.194   7.646   7.110 -0.1688  0.6119 -0.1378
  959MOL0     C29387   8.298   7.607   7.020 -0.0398  0.0868  0.1670
  959MOL0     C29388   8.421   7.551   7.074  0.4874 -0.1726 -0.2805
  959MOL0     O29389   8.525   7.505   6.984  0.5141 -0.0678  0.3432
  959MOL0     C29390   8.549   7.590   6.868 -1.9077 -0.6855  0.7386
  959MOL0     C29391   8.702   7.596   6.846 -0.1150  0.8637 -0.5707
  959MOL0     C29392   8.788   7.480   6.906 -0.4152 -0.2135  0.1603
  959MOL0     C29393   8.935   7.481   6.883 -0.5554 -0.4686 -0.0581
  959MOL0     C29394   8.996   7.613   6.910 -0.4859 -0.4915  0.5307
  959MOL0     C29395   9.028   7.730   6.919  0.2414  0.0195  0.7849
  959MOL0     C29396   8.440   7.555   7.215  0.1549  0.3678  0.5686
  959MOL0     C29397   8.336   7.604   7.304 -0.8514 -1.3221  0.4730
  959MOL0     H29398   7.742   7.683   7.269 -0.3406  0.2778  0.0425
  959MOL0     H29399   7.535   7.788   7.392  1.0174 -2.9539  0.5392
  959MOL0     H29400   7.635   8.049   7.718  0.3590 -1.3070 -0.4131
  959MOL0     H29401   7.579   8.187   7.623 -0.0770  0.0221  0.4615
  959MOL0     H29402   7.446   8.157   7.825 -0.6977 -0.7962  0.0549
  959MOL0     H29403   7.348   8.128   7.677  0.9365  1.4829 -2.2536
  959MOL0     H29404   7.366   7.884   7.707  0.0480 -2.1887  0.9802
  959MOL0     H29405   7.447   7.909   7.863 -2.1731 -3.3082  0.0249
  959MOL0     H29406   7.219   8.064   7.899 -0.7668 -0.4941  0.6760
  959MOL0     H29407   7.169   7.952   7.778 -1.8733 -1.4632  2.1138
  959MOL0     H29408   7.216   7.747   7.925  1.7178  0.6656 -0.2645
  959MOL0     H29409   7.287   7.857   8.041 -2.1777 -0.0381  0.6200
  959MOL0     H29410   7.064   7.975   8.052 -2.0270 -0.1664 -0.5379
  959MOL0     H29411   6.991   7.853   7.952 -0.8912 -2.5540  1.2576
  959MOL0     H29412   7.051   7.666   8.120 -2.6552  0.3516 -0.4360
  959MOL0     H29413   7.128   7.789   8.216  1.2423 -0.7985 -0.1518
  959MOL0     H29414   6.910   7.921   8.213 -0.8225  0.4057  0.3902
  959MOL0     H29415   6.902   7.760   8.296 -2.7059 -0.3639 -0.5289
  959MOL0     H29416   6.787   7.558   8.221 -1.2431 -0.3039 -0.6683
  959MOL0     H29417   6.652   7.472   7.883  0.4065 -1.9798  0.4121
  959MOL0     H29418   6.670   7.382   8.029  1.6031  1.4188  1.0736
  959MOL0     H29419   6.447   7.364   7.925 -0.3294 -1.0730  0.1577
  959MOL0     H29420   6.425   7.537   7.932  0.8604 -0.4361 -1.7865
  959MOL0     H29421   6.315   7.471   8.165 -0.2705  0.0723  2.1525
  959MOL0     H29422   6.480   7.494   8.208 -0.1728 -0.6282 -0.1866
  959MOL0     H29423   6.403   7.294   8.294 -0.7478 -2.3594 -0.2248
  959MOL0     H29424   6.503   7.232   8.154  2.9884  0.9455  3.2232
  959MOL0     H29425   6.346   7.044   8.300  0.6460 -1.6353 -1.1343
  959MOL0     H29426   6.119   6.844   8.482 -0.0889  0.5916  1.0252
  959MOL0     H29427   6.204   6.753   8.368 -0.8361  0.0219  1.8828
  959MOL0     H29428   6.293   6.875   8.459 -1.3718  0.9666  2.1834
  959MOL0     H29429   5.665   6.652   8.179 -0.3548  0.8089 -0.9847
  959MOL0     H29430   5.467   6.578   8.257 -0.2281  0.2638 -1.3995
  959MOL0     H29431   5.158   6.646   8.539 -1.4106  1.2681 -0.4794
  959MOL0     H29432   5.207   6.781   8.444 -3.1883 -0.4569 -0.6733
  959MOL0     H29433   5.077   6.637   8.295  1.5782 -0.2613 -2.8345
  959MOL0     H29434   5.242   6.624   8.253  0.7331  1.9464  0.3447
  959MOL0     H29435   5.100   6.432   8.443  1.3133  2.4967  0.4113
  959MOL0     H29436   5.250   6.387   8.375 -1.7184 -3.0717 -2.1205
  959MOL0     H29437   5.046   6.291   8.273  0.6557  0.2333  0.3737
  959MOL0     H29438   4.988   6.446   8.223 -1.4572 -0.9935 -0.9412
  959MOL0     H29439   5.242   6.297   8.117 -0.7780 -1.2552  0.4968
  959MOL0     H29440   5.193   6.467   8.073 -1.0365  1.3273  1.3750
  959MOL0     H29441   4.990   6.379   7.972 -2.1085 -0.9282  1.4485
  959MOL0     H29442   5.136   6.330   7.891  0.5994 -2.6924 -0.0633
  959MOL0     H29443   4.966   6.171   7.890  1.6026 -1.1427 -0.3218
  959MOL0     H29444   4.952   6.157   8.065  0.7839  0.6190  1.0861
  959MOL0     H29445   5.214   6.089   7.924  0.5868 -0.9997  0.2340
  959MOL0     H29446   5.079   5.973   7.955  0.0100 -1.1458  0.8209
  959MOL0     H29447   5.502   6.860   8.597 -0.3809  3.5075 -0.9207
  959MOL0     H29448   5.691   6.968   8.471  2.4591 -0.3616 -0.8106
  959MOL0     H29449   5.884   7.059   8.117 -0.1556  1.4804  0.1796
  959MOL0     H29450   6.070   7.240   8.057  2.6164  0.4665 -1.6897
  959MOL0     H29451   7.805   8.070   7.571  0.1532  0.3109 -1.4133
  959MOL0     H29452   8.005   7.937   7.456 -0.0472 -0.4885 -1.3515
  959MOL0     H29453   8.104   7.687   7.064 -0.6490 -3.0039 -2.8599
  959MOL0     H29454   8.275   7.619   6.915 -0.3897 -2.0693 -0.0480
  959MOL0     H29455   8.498   7.532   6.790 -0.3309 -1.6107  0.3521
  959MOL0     H29456   8.500   7.687   6.872 -0.4872  0.1416 -0.8728
  959MOL0     H29457   8.731   7.692   6.891 -1.1423  1.5142 -1.2512
  959MOL0     H29458   8.727   7.605   6.740  2.1036  0.5686 -0.1106
  959MOL0     H29459   8.750   7.381   6.877 -0.9177  0.0059  0.0623
  959MOL0     H29460   8.781   7.487   7.014  1.3578  5.3944  0.1968
  959MOL0     H29461   8.942   7.451   6.778 -3.4433  0.4855 -0.6187
  959MOL0     H29462   8.975   7.401   6.945 -2.8117 -1.3775  0.3163
  959MOL0     H29463   9.062   7.831   6.906  1.3223 -0.5450 -1.1461
  959MOL0     H29464   8.532   7.512   7.253  0.5842  1.0891  0.3599
  959MOL0     H29465   8.350   7.617   7.411  0.4208  0.4008  0.1441
  960MOL0     O29466   7.912   0.764   3.699 -0.0410 -0.8389 -0.3914
  960MOL0     C29467   7.836   0.716   3.615  0.5480 -0.2917 -0.3881
  960MOL0     O29468   7.865   0.665   3.484 -0.1817 -0.1986 -0.1577
  960MOL0     C29469   7.992   0.692   3.443  0.0110 -0.0757 -0.0345
  960MOL0     C29470   8.072   0.596   3.381  0.6291 -0.2166 -0.2193
  960MOL0     C29471   8.199   0.634   3.339  0.7025 -0.0087  0.1030
  960MOL0     C29472   8.248   0.759   3.355 -0.1373  0.1445 -0.7309
  960MOL0     O29473   8.386   0.768   3.330  0.2252 -0.4839 -0.6557
  960MOL0     C29474   8.475   0.684   3.396  0.2755  0.0671 -0.7293
  960MOL0     C29475   8.620   0.731   3.384  0.3439 -1.0159  0.7511
  960MOL0     C29476   8.653   0.868   3.422 -0.4260  0.6696  0.7263
  960MOL0     C29477   8.801   0.890   3.453 -0.5450  0.2297 -0.0879
  960MOL0     C29478   8.819   1.036   3.446 -0.9100 -0.0243  0.0143
  960MOL0     C29479   8.972   1.081   3.459 -0.5094  0.8170 -0.4817
  960MOL0     C29480   8.967   1.229   3.433  0.0178  0.6551  0.3742
  960MOL0     C29481   9.090   1.288   3.491 -0.9872 -0.4306  0.1140
  960MOL0     N29482   9.213   1.220   3.457 -0.2240  0.1274 -0.6179
  960MOL0     C29483   9.265   1.208   3.330 -0.3678 -0.1462 -0.0326
  960MOL0     C29484   9.373   1.127   3.343  0.1690 -0.5787 -0.7521
  960MOL0     C29485   9.470   1.080   3.232 -0.9784 -1.2821 -0.0896
  960MOL0     C29486   9.525   0.940   3.253 -0.4475 -0.1320 -0.8178
  960MOL0     C29487   9.410   0.832   3.246  0.7002 -0.1899 -0.3113
  960MOL0     C29488   9.468   0.707   3.317 -0.8015  0.0973 -0.2238
  960MOL0     O29489   9.479   0.720   3.459 -0.6357 -0.4985  0.0937
  960MOL0     C29490   9.607   0.744   3.512  1.2172  0.0189  0.3316
  960MOL0     C29491   9.705   0.643   3.504  0.6432 -0.0623  0.1834
  960MOL0     C29492   9.820   0.647   3.574 -0.0990  0.0511 -0.2892
  960MOL0     C29493   9.908   0.526   3.558 -0.1378 -0.2775 -0.7299
  960MOL0     C29494   9.854   0.762   3.644 -0.7624  0.3512 -0.3565
  960MOL0     C29495   9.975   0.770   3.730 -0.2817 -0.0484  0.5950
  960MOL0     O29496  10.000   0.892   3.790  0.0655  0.0381  0.3862
  960MOL0     C29497  10.066   0.887   3.912 -0.4278  0.5016  0.3228
  960MOL0     C29498  10.200   0.924   3.912  0.1962 -0.5980  0.2995
  960MOL0     C29499  10.283   0.947   4.024 -0.1045  0.8840  0.4293
  960MOL0     C29500  10.216   0.901   4.145  0.8419 -0.7722 -0.2531
  960MOL0     O29501  10.273   0.901   4.269  0.3309  0.4360  0.4075
  960MOL0     C29502  10.324   0.779   4.321  0.5292 -0.3202 -0.7598
  960MOL0     C29503  10.242   0.738   4.446  0.5749 -0.1890 -0.5649
  960MOL0     C29504  10.198   0.866   4.535  0.2051  0.3554  0.9383
  960MOL0     C29505  10.321   0.944   4.585  0.0099 -0.1523 -0.5350
  960MOL0     C29506  10.292   1.070   4.673  0.1144 -0.3297  0.2260
  960MOL0     C29507  10.262   0.995   4.812 -0.6054  0.1387 -0.4625
  960MOL0     C29508  10.323   1.082   4.923 -1.3878 -0.8716 -0.1617
  960MOL0     C29509  10.275   1.226   4.910 -0.6715  0.4762 -0.7106
  960MOL0    Cl29510  10.094   1.242   4.886  0.0963  0.0253 -0.2688
  960MOL0     C29511  10.078   0.862   4.140  0.1689 -0.2223 -0.0010
  960MOL0     C29512  10.000   0.840   4.026  0.0972 -0.3425 -0.9048
  960MOL0     O29513  10.031   0.659   3.759  0.0745 -0.7871  0.6489
  960MOL0     C29514   9.757   0.866   3.647 -0.0937  0.4825 -0.0786
  960MOL0     C29515   9.631   0.853   3.586 -0.0048 -1.1278 -0.0500
  960MOL0     N29516   9.396   1.104   3.478 -0.0809 -0.4485  0.8714
  960MOL0     N29517   9.293   1.160   3.548  0.3363  0.0804  0.6405
  960MOL0     C29518   8.167   0.859   3.397  0.5009 -0.3267  0.4965
  960MOL0     C29519   8.038   0.825   3.436  0.4376 -0.4852 -0.5974
  960MOL0     C29520   7.704   0.683   3.670 -0.6985  0.3736 -0.4745
  960MOL0     C29521   7.644   0.764   3.773 -0.1310  0.6929  0.7937
  960MOL0     C29522   7.530   0.719   3.841  0.3829 -0.4008 -0.5556
  960MOL0     C29523   7.454   0.614   3.797  0.6671  0.7935  0.4497
  960MOL0     O29524   7.342   0.562   3.858  0.6704  0.3487  0.4346
  960MOL0     C29525   7.280   0.624   3.964  0.8349 -0.2659 -0.1348
  960MOL0     C29526   7.150   0.552   3.973 -0.4969 -0.3767  0.1856
  960MOL0     C29527   7.065   0.627   4.072 -0.3171 -0.2843  0.6960
  960MOL0     C29528   6.952   0.534   4.119 -0.1434 -0.8262  1.0686
  960MOL0     C29529   6.870   0.580   4.233 -0.2014 -0.5516 -0.2625
  960MOL0     C29530   6.800   0.622   4.333 -0.6382  0.1979 -0.4217
  960MOL0     C29531   7.503   0.543   3.678 -0.1009  0.0360 -0.0561
  960MOL0     C29532   7.630   0.572   3.622  0.2147  0.4230  0.5693
  960MOL0     H29533   8.033   0.496   3.362  1.0508 -0.8783  2.1631
  960MOL0     H29534   8.254   0.565   3.275 -2.0484 -1.8912 -0.4170
  960MOL0     H29535   8.435   0.679   3.498 -1.3716 -0.5766 -1.3718
  960MOL0     H29536   8.468   0.583   3.354 -1.2414 -0.3616  0.4585
  960MOL0     H29537   8.685   0.671   3.448  1.1752  0.8664  1.7553
  960MOL0     H29538   8.653   0.716   3.281  1.3307  1.0085  0.7221
  960MOL0     H29539   8.614   0.938   3.347  0.9997  2.6427  1.7472
  960MOL0     H29540   8.590   0.893   3.508 -3.1333 -1.1718 -0.5596
  960MOL0     H29541   8.827   0.856   3.554 -0.9625  1.7954  0.5634
  960MOL0     H29542   8.860   0.854   3.368  0.6708  4.0919 -1.0559
  960MOL0     H29543   8.781   1.068   3.348 -1.1603  1.7407  0.6541
  960MOL0     H29544   8.756   1.091   3.516 -1.3062 -0.0788 -0.2972
  960MOL0     H29545   8.998   1.040   3.557 -3.6413 -1.7853 -0.5488
  960MOL0     H29546   9.034   1.032   3.383  1.9603  2.7512  0.1738
  960MOL0     H29547   8.955   1.254   3.328  0.0283 -0.2460  0.1514
  960MOL0     H29548   8.882   1.282   3.479 -0.9747  1.8149 -2.5983
  960MOL0     H29549   9.074   1.306   3.597  0.1266  1.4637 -0.0058
  960MOL0     H29550   9.110   1.385   3.445 -1.8521 -0.5238 -0.4858
  960MOL0     H29551   9.223   1.242   3.236  1.0221 -0.3073 -0.7498
  960MOL0     H29552   9.421   1.088   3.134 -2.9316  2.5878  0.9802
  960MOL0     H29553   9.549   1.156   3.234 -2.3055  0.1272  1.7414
  960MOL0     H29554   9.573   0.937   3.351  1.1283  3.3254 -1.3492
  960MOL0     H29555   9.589   0.922   3.166  0.7857  1.0018 -0.1810
  960MOL0     H29556   9.377   0.807   3.144  1.8338 -0.1873 -0.6920
  960MOL0     H29557   9.321   0.854   3.305  0.0467 -4.4615  0.6818
  960MOL0     H29558   9.559   0.669   3.270  0.4303  0.2500  1.8877
  960MOL0     H29559   9.394   0.628   3.308 -0.9710  0.0563  1.2666
  960MOL0     H29560   9.685   0.549   3.454  5.2921 -0.7428 -0.8842
  960MOL0     H29561  10.008   0.563   3.535  0.5121 -0.4057  1.6174
  960MOL0     H29562   9.900   0.477   3.656 -2.2718  2.0085  0.3365
  960MOL0     H29563   9.877   0.444   3.491 -0.3359 -3.5822  3.0145
  960MOL0     H29564  10.258   0.955   3.826 -1.0849  0.3385 -0.2486
  960MOL0     H29565  10.380   0.993   4.007  0.0572 -0.0246 -1.3357
  960MOL0     H29566  10.327   0.697   4.249  1.9608 -0.8174 -0.1744
  960MOL0     H29567  10.428   0.801   4.350 -0.0460 -0.2506  1.4080
  960MOL0     H29568  10.153   0.683   4.415  0.0567  0.1433  0.3079
  960MOL0     H29569  10.292   0.665   4.511  3.0505  1.3532 -0.6062
  960MOL0     H29570  10.142   0.828   4.621 -0.3438  2.2109  1.4516
  960MOL0     H29571  10.141   0.927   4.464  2.5520  1.7791  0.1597
  960MOL0     H29572  10.398   0.888   4.638  0.3509  1.4712  0.7864
  960MOL0     H29573  10.375   0.993   4.504 -0.1537 -0.5793 -0.9039
  960MOL0     H29574  10.218   1.138   4.630  0.2219 -1.1874 -1.4081
  960MOL0     H29575  10.383   1.130   4.681 -1.2128  1.5743  2.4397
  960MOL0     H29576  10.155   0.981   4.828 -0.3400 -0.5296  0.8607
  960MOL0     H29577  10.309   0.897   4.831 -0.8179  0.3376  1.1768
  960MOL0     H29578  10.432   1.076   4.921 -0.7064  4.9508  1.9415
  960MOL0     H29579  10.290   1.056   5.024 -0.7129  3.2456  1.2943
  960MOL0     H29580  10.327   1.283   4.832  1.4946  0.4796  0.6472
  960MOL0     H29581  10.302   1.274   5.005 -2.0518 -0.4148  0.1691
  960MOL0     H29582  10.030   0.841   4.235 -3.0074 -1.2318 -1.6804
  960MOL0     H29583   9.895   0.815   4.031 -0.0249  0.4550  1.6261
  960MOL0     H29584   9.782   0.959   3.697 -0.1227  1.1860 -1.3267
  960MOL0     H29585   9.551   0.926   3.600  2.4552  1.7363  0.0332
  960MOL0     H29586   8.210   0.957   3.410 -1.5192  0.9277 -1.5746
  960MOL0     H29587   7.975   0.908   3.463  0.3962 -0.9242  0.7393
  960MOL0     H29588   7.693   0.859   3.792  0.8499  0.6275 -1.1809
  960MOL0     H29589   7.501   0.776   3.929  2.6683 -1.7362  1.1823
  960MOL0     H29590   7.347   0.633   4.050  3.7164  2.7179 -2.4121
  960MOL0     H29591   7.275   0.732   3.946 -1.8112 -0.3302 -0.1973
  960MOL0     H29592   7.163   0.447   4.002  0.9248 -0.6623 -1.4027
  960MOL0     H29593   7.105   0.546   3.874 -0.6940 -0.2079  0.2620
  960MOL0     H29594   7.025   0.714   4.018 -1.3260 -0.3624  1.2910
  960MOL0     H29595   7.115   0.666   4.161  0.7155  2.2534 -0.8751
  960MOL0     H29596   6.989   0.438   4.155  0.5624 -2.1003 -2.6161
  960MOL0     H29597   6.887   0.514   4.034 -0.4227 -1.8538  1.5125
  960MOL0     H29598   6.743   0.672   4.409  1.7378  0.2552  1.4279
  960MOL0     H29599   7.445   0.462   3.635 -2.6339  2.1214 -0.8005
  960MOL0     H29600   7.659   0.502   3.544 -1.6978  0.0753  0.1184
  961MOL0     O29601   1.804   0.764   7.314  0.4783 -0.0681  0.1604
  961MOL0     C29602   1.748   0.747   7.421 -0.3216  0.8496  0.4923
  961MOL0     O29603   1.624   0.711   7.430 -0.1724 -0.3651  0.0598
  961MOL0     C29604   1.535   0.723   7.326  0.4837 -0.1871  0.6091
  961MOL0     C29605   1.451   0.832   7.339  0.8948  0.9351  0.9488
  961MOL0     C29606   1.349   0.852   7.236 -0.3919  0.0765 -0.8927
  961MOL0     C29607   1.335   0.766   7.132  1.0532 -0.2573  0.1004
  961MOL0     O29608   1.230   0.797   7.051 -0.0397 -0.9392 -0.2971
  961MOL0     C29609   1.223   0.740   6.925  0.1254  0.2914 -0.5880
  961MOL0     C29610   1.082   0.769   6.873  0.1755 -0.0084  0.2701
  961MOL0     C29611   1.047   0.705   6.735  0.7669  0.8600  0.5041
  961MOL0     C29612   0.926   0.778   6.666 -0.3220  0.4996 -0.0961
  961MOL0     C29613   0.796   0.712   6.725  0.0416  0.1368 -0.6349
  961MOL0     C29614   0.666   0.739   6.653  0.2963 -0.0097  0.3771
  961MOL0     C29615   0.682   0.703   6.510  0.1852  0.3617  0.6463
  961MOL0     C29616   0.547   0.676   6.438  0.9386 -0.3214  0.3606
  961MOL0     N29617   0.566   0.663   6.290 -0.3282  0.2698 -0.1064
  961MOL0     C29618   0.577   0.534   6.246  0.1442 -0.4996 -0.4613
  961MOL0     C29619   0.612   0.549   6.113  0.3527  0.0778  0.2472
  961MOL0     C29620   0.649   0.443   6.011  0.6342 -0.5258  0.4670
  961MOL0     C29621   0.532   0.380   5.937  0.6884  0.5214  0.0305
  961MOL0     C29622   0.598   0.287   5.834  0.6420 -0.7701  0.3868
  961MOL0     C29623   0.499   0.244   5.720  0.7244  0.3568  0.6588
  961MOL0     O29624   0.581   0.191   5.613  0.3539  0.0629 -0.3012
  961MOL0     C29625   0.525   0.133   5.497 -0.6629 -0.2164  0.6346
  961MOL0     C29626   0.607   0.076   5.399 -0.5060 -0.2707  0.3112
  961MOL0     C29627   0.554   0.040   5.273 -0.0297  0.2176 -0.4862
  961MOL0     C29628   0.640  -0.048   5.181 -0.4127 -0.2894  0.0999
  961MOL0     C29629   0.417   0.064   5.238 -0.6630 -0.1438 -0.4615
  961MOL0     C29630   0.353   0.022   5.117  0.4842  0.2101  1.0005
  961MOL0     O29631   0.263   0.101   5.059  0.5375 -0.1260 -0.1149
  961MOL0     C29632   0.186   0.070   4.952  0.4908 -1.0289  0.0279
  961MOL0     C29633   0.219  -0.011   4.845 -0.1245  0.1648 -0.6358
  961MOL0     C29634   0.125  -0.048   4.751  0.5077  0.5943 -0.0513
  961MOL0     C29635   0.001   0.008   4.758  0.9164  0.3527  0.8520
  961MOL0     O29636  -0.090  -0.022   4.666  1.0933  0.2519 -0.2060
  961MOL0     C29637  -0.058  -0.063   4.533 -0.5697 -0.4028 -0.9097
  961MOL0     C29638  -0.169  -0.044   4.435  0.7418  0.0249  0.1703
  961MOL0     C29639  -0.132  -0.092   4.297 -0.6586 -0.0100  0.2504
  961MOL0     C29640  -0.111  -0.244   4.278  0.3800 -0.5163  0.1506
  961MOL0     C29641  -0.082  -0.270   4.136  0.1666  0.0546  0.6181
  961MOL0     C29642  -0.032  -0.406   4.095  0.4966  0.6067 -0.2832
  961MOL0     C29643   0.117  -0.420   4.120 -0.1862  0.3805  0.0799
  961MOL0     C29644   0.172  -0.557   4.086  1.2327  0.1905 -0.8258
  961MOL0    Cl29645   0.105  -0.688   4.188 -0.0635  0.2701 -0.0181
  961MOL0     C29646  -0.038   0.087   4.860 -0.2473 -0.0149 -0.0159
  961MOL0     C29647   0.058   0.113   4.958  1.0199 -0.5884 -0.1400
  961MOL0     O29648   0.369  -0.097   5.087 -0.3341 -0.4354 -0.3950
  961MOL0     C29649   0.341   0.131   5.336  0.7116  0.7523 -0.6045
  961MOL0     C29650   0.390   0.157   5.458 -0.8233 -0.8891 -0.1424
  961MOL0     N29651   0.628   0.690   6.084 -0.5227  0.2625  0.0299
  961MOL0     N29652   0.590   0.756   6.191 -0.6247  0.5114 -0.6820
  961MOL0     C29653   1.425   0.663   7.121 -0.4853 -0.8455 -0.2235
  961MOL0     C29654   1.526   0.637   7.219  0.4887  0.5915  0.3701
  961MOL0     C29655   1.811   0.773   7.555 -0.6222 -0.3881 -1.0568
  961MOL0     C29656   1.935   0.828   7.561  0.4367  0.9240 -0.6624
  961MOL0     C29657   1.993   0.852   7.688 -0.4284 -0.2902 -1.1431
  961MOL0     C29658   1.924   0.839   7.807 -0.5985  0.0946 -0.3614
  961MOL0     O29659   1.984   0.897   7.918  0.1445  1.1260  0.0523
  961MOL0     C29660   1.923   0.876   8.050 -0.2973 -1.8350 -0.3838
  961MOL0     C29661   1.960   0.746   8.120  1.3188  0.2292 -0.4044
  961MOL0     C29662   2.117   0.723   8.161  0.8927 -0.0942  0.4488
  961MOL0     C29663   2.139   0.641   8.288  0.3341  0.0248 -0.2879
  961MOL0     C29664   2.091   0.505   8.256  0.6617 -1.1005 -0.1818
  961MOL0     C29665   2.046   0.413   8.200  1.4121  0.2327 -0.2620
  961MOL0     C29666   1.791   0.785   7.804 -0.6447 -0.4210 -0.1466
  961MOL0     C29667   1.742   0.751   7.678 -0.0749  0.6218  0.7824
  961MOL0     H29668   1.446   0.892   7.429  0.0155 -1.2386  2.4399
  961MOL0     H29669   1.273   0.928   7.250  1.2663  1.4748  1.1178
  961MOL0     H29670   1.301   0.783   6.861  0.5460 -0.5573 -0.6595
  961MOL0     H29671   1.233   0.631   6.928 -0.8115  0.2278  1.3111
  961MOL0     H29672   0.998   0.745   6.938  0.1857 -0.7529  0.0202
  961MOL0     H29673   1.090   0.877   6.859  2.6323 -0.1610 -0.0430
  961MOL0     H29674   1.133   0.720   6.670 -1.8975  0.2535 -3.4751
  961MOL0     H29675   1.034   0.597   6.745  0.7131  0.5903 -1.9841
  961MOL0     H29676   0.921   0.885   6.686  0.5469  0.1019  2.6969
  961MOL0     H29677   0.929   0.763   6.558 -0.0592 -1.0836  0.1077
  961MOL0     H29678   0.807   0.603   6.722 -0.2350 -0.4295  5.4736
  961MOL0     H29679   0.784   0.733   6.832  2.1018  3.8871 -0.9788
  961MOL0     H29680   0.578   0.692   6.697 -0.4381  2.2837  1.4863
  961MOL0     H29681   0.649   0.847   6.653  1.8408  0.2663 -0.8420
  961MOL0     H29682   0.743   0.778   6.459 -2.4343  1.6463 -0.8421
  961MOL0     H29683   0.742   0.612   6.501  0.4775  0.6495 -0.4319
  961MOL0     H29684   0.486   0.764   6.458  0.9270 -0.4714  1.0352
  961MOL0     H29685   0.493   0.592   6.482 -3.1256  1.3599 -0.9874
  961MOL0     H29686   0.561   0.446   6.307  0.9044 -0.1881  0.2091
  961MOL0     H29687   0.718   0.497   5.945 -0.1187 -1.5120 -1.2071
  961MOL0     H29688   0.706   0.364   6.062  0.8398 -0.4891  0.3004
  961MOL0     H29689   0.455   0.445   5.894  0.0262 -1.1441 -1.3806
  961MOL0     H29690   0.472   0.327   6.011 -1.7104  3.0353  0.0729
  961MOL0     H29691   0.614   0.191   5.885 -1.7998 -0.8983  1.0534
  961MOL0     H29692   0.686   0.327   5.784  2.8308 -1.9872  3.0195
  961MOL0     H29693   0.443   0.332   5.689 -0.1012 -0.1993  0.5489
  961MOL0     H29694   0.426   0.176   5.765 -1.7932  0.2335 -3.1555
  961MOL0     H29695   0.710   0.060   5.429 -1.2370 -0.5397  2.8892
  961MOL0     H29696   0.638  -0.019   5.075  1.6902 -0.6414 -0.0832
  961MOL0     H29697   0.744  -0.056   5.215 -0.1223 -0.3333 -0.7791
  961MOL0     H29698   0.596  -0.148   5.186 -3.1099  0.7778 -0.3310
  961MOL0     H29699   0.316  -0.058   4.856 -0.3040  0.3586  2.8253
  961MOL0     H29700   0.158  -0.125   4.682 -1.5430  0.0306 -0.4842
  961MOL0     H29701   0.029  -0.002   4.508 -0.6910 -0.8163 -2.4412
  961MOL0     H29702  -0.040  -0.171   4.536 -0.1473 -0.3244  0.7096
  961MOL0     H29703  -0.249  -0.099   4.485  1.8270 -3.2057 -1.3787
  961MOL0     H29704  -0.193   0.062   4.436  1.5152  0.2291  2.0294
  961MOL0     H29705  -0.040  -0.048   4.256 -1.5088  0.8225 -0.8146
  961MOL0     H29706  -0.211  -0.061   4.228 -1.6566 -3.4823 -0.3916
  961MOL0     H29707  -0.026  -0.276   4.339  0.5459 -3.8275 -1.5329
  961MOL0     H29708  -0.198  -0.296   4.318  0.7954 -0.9313  0.5292
  961MOL0     H29709  -0.012  -0.196   4.096 -0.8677  1.4596  1.3405
  961MOL0     H29710  -0.176  -0.237   4.092 -1.0606 -1.2036  2.1831
  961MOL0     H29711  -0.081  -0.487   4.151 -0.7463 -0.0226 -2.1821
  961MOL0     H29712  -0.057  -0.411   3.989 -0.7991  2.6050 -0.1202
  961MOL0     H29713   0.139  -0.399   4.225 -1.6944 -4.0694  1.5236
  961MOL0     H29714   0.178  -0.350   4.062 -2.0808  1.1116 -1.1465
  961MOL0     H29715   0.280  -0.553   4.099  1.0216 -0.4664  1.8631
  961MOL0     H29716   0.148  -0.572   3.980 -0.3315 -1.9348 -0.2532
  961MOL0     H29717  -0.139   0.125   4.864  0.5531  2.5947 -1.8525
  961MOL0     H29718   0.024   0.166   5.046 -1.0517  0.2507 -1.3853
  961MOL0     H29719   0.235   0.148   5.325 -0.7197 -0.7926  6.1948
  961MOL0     H29720   0.325   0.203   5.533  1.2393 -2.5385  2.8887
  961MOL0     H29721   1.411   0.590   7.042 -2.4823  0.1517 -0.8473
  961MOL0     H29722   1.588   0.548   7.207  0.5433  0.3764  1.9423
  961MOL0     H29723   1.997   0.846   7.474 -0.0619  2.4540 -0.7238
  961MOL0     H29724   2.097   0.882   7.696 -0.8504  0.9831 -0.1182
  961MOL0     H29725   1.966   0.949   8.119 -0.5359 -2.4558  0.4372
  961MOL0     H29726   1.816   0.899   8.046  0.5502  2.8503 -1.0908
  961MOL0     H29727   1.919   0.662   8.063 -2.1385  0.9087  0.8086
  961MOL0     H29728   1.894   0.755   8.207 -0.0405 -0.2110 -1.3481
  961MOL0     H29729   2.163   0.822   8.170  2.7239 -0.5819 -2.4378
  961MOL0     H29730   2.161   0.687   8.068  2.0145 -1.1532  1.3605
  961MOL0     H29731   2.069   0.671   8.366  0.5070  1.6241 -0.7010
  961MOL0     H29732   2.241   0.633   8.327  0.5981 -1.6746 -1.2243
  961MOL0     H29733   2.007   0.321   8.159  1.1254  0.5863 -0.7906
  961MOL0     H29734   1.730   0.767   7.892  0.5163 -0.7619  0.6013
  961MOL0     H29735   1.642   0.710   7.674 -0.4309  1.5271  0.1055
  962MOL0     O29736   1.871   5.389   8.670 -1.0392  0.1791  0.2569
  962MOL0     C29737   1.845   5.474   8.748  0.8582 -0.1098 -0.4976
  962MOL0     O29738   1.711   5.511   8.781 -0.1359 -0.1967  0.5978
  962MOL0     C29739   1.607   5.450   8.714 -0.4377  0.3480  0.4372
  962MOL0     C29740   1.537   5.519   8.619  0.5233  0.3066 -0.5754
  962MOL0     C29741   1.425   5.462   8.570  1.0308 -0.6220 -0.9448
  962MOL0     C29742   1.379   5.335   8.618 -0.2661 -0.3596  0.7022
  962MOL0     O29743   1.267   5.275   8.581  0.7235  0.0933 -0.1960
  962MOL0     C29744   1.151   5.350   8.568  0.0730  0.7600  0.0884
  962MOL0     C29745   1.025   5.279   8.520 -0.0963  0.5989 -0.6237
  962MOL0     C29746   0.942   5.232   8.647  0.0531  0.5577 -0.6543
  962MOL0     C29747   0.823   5.143   8.626 -0.5812  0.4107  0.1491
  962MOL0     C29748   0.769   5.098   8.763 -0.3103  0.2283 -0.8562
  962MOL0     C29749   0.636   5.038   8.762  0.0508  0.0916  0.0049
  962MOL0     C29750   0.587   4.989   8.910 -0.0416  0.2690  0.7323
  962MOL0     C29751   0.450   4.935   8.894  0.0172  0.9268 -0.1436
  962MOL0     N29752   0.374   4.983   9.007  0.4687 -1.0345  0.2766
  962MOL0     C29753   0.311   5.103   9.024 -0.4177 -1.1406 -0.4863
  962MOL0     C29754   0.238   5.093   9.146 -0.1063  0.1358 -0.6061
  962MOL0     C29755   0.174   5.197   9.231  0.5393  0.1555 -0.2422
  962MOL0     C29756   0.037   5.237   9.183 -0.1471 -0.1186  0.2785
  962MOL0     C29757   0.044   5.293   9.035  0.7380 -0.4744  0.0242
  962MOL0     C29758  -0.089   5.336   8.988  0.2764  0.1353 -0.0145
  962MOL0     O29759  -0.091   5.389   8.858 -0.5298 -0.0622  0.6322
  962MOL0     C29760  -0.216   5.436   8.815 -0.7352 -0.0486 -0.1760
  962MOL0     C29761  -0.339   5.397   8.861  0.8587  0.8214 -0.0753
  962MOL0     C29762  -0.465   5.461   8.819  0.4915 -1.4118 -0.7868
  962MOL0     C29763  -0.595   5.411   8.877  0.1392 -0.0038  1.3755
  962MOL0     C29764  -0.459   5.569   8.721 -0.4200 -0.6173  0.2776
  962MOL0     C29765  -0.576   5.655   8.676 -0.0865  0.5051 -0.4921
  962MOL0     O29766  -0.544   5.722   8.562 -0.2655 -0.2160  0.0034
  962MOL0     C29767  -0.642   5.800   8.526  0.3229 -0.0717  0.2621
  962MOL0     C29768  -0.637   5.938   8.561  0.1183  0.5042  0.3347
  962MOL0     C29769  -0.739   6.022   8.506  0.4323  0.5836  0.1948
  962MOL0     C29770  -0.858   5.977   8.435 -0.2362  0.5072  0.1966
  962MOL0     O29771  -0.972   6.045   8.405 -0.5610  0.3005  0.4399
  962MOL0     C29772  -0.993   6.177   8.461 -0.1766  0.4982 -0.4108
  962MOL0     C29773  -1.135   6.223   8.447 -0.1257 -0.0022 -0.4708
  962MOL0     C29774  -1.138   6.378   8.446  0.0920 -0.4356  0.6719
  962MOL0     C29775  -1.282   6.432   8.443  0.1721 -0.2629  0.7177
  962MOL0     C29776  -1.289   6.586   8.453 -0.5393 -0.8181  0.1364
  962MOL0     C29777  -1.256   6.637   8.598  0.4671  0.3413  0.2450
  962MOL0     C29778  -1.327   6.775   8.641 -0.0432  0.5056  0.3259
  962MOL0     C29779  -1.472   6.751   8.693  0.3047  0.1114  0.1661
  962MOL0    Cl29780  -1.529   6.911   8.752  0.2613 -0.6263 -0.3623
  962MOL0     C29781  -0.851   5.841   8.400 -0.5638  0.5064 -0.5907
  962MOL0     C29782  -0.740   5.760   8.437 -0.2442 -0.3751 -0.3032
  962MOL0     O29783  -0.680   5.662   8.740  0.3685 -0.5775 -0.2828
  962MOL0     C29784  -0.325   5.603   8.670  0.3729  0.5541  0.3957
  962MOL0     C29785  -0.213   5.539   8.724 -1.3567 -0.1720  0.1251
  962MOL0     N29786   0.277   4.970   9.199  0.9269 -0.1980  0.4701
  962MOL0     N29787   0.348   4.901   9.115 -0.2893 -0.3181 -0.1929
  962MOL0     C29788   1.462   5.269   8.712  0.3531  0.9551  0.7707
  962MOL0     C29789   1.575   5.323   8.758 -0.4113 -0.6366  0.2625
  962MOL0     C29790   1.955   5.543   8.814  0.6288 -0.5900 -0.3601
  962MOL0     C29791   1.929   5.676   8.856 -0.5176 -0.1536 -0.2498
  962MOL0     C29792   2.023   5.754   8.915 -0.7620 -0.4416 -0.5430
  962MOL0     C29793   2.152   5.701   8.945  0.0141  0.2941 -0.1816
  962MOL0     O29794   2.234   5.787   9.013  0.4849  0.0911 -0.2461
  962MOL0     C29795   2.374   5.771   8.987  0.2958  0.3025 -0.1564
  962MOL0     C29796   2.447   5.902   9.018 -0.4810 -0.1168  0.6069
  962MOL0     C29797   2.389   6.001   8.913 -0.3419  0.1182  0.5792
  962MOL0     C29798   2.471   6.131   8.910 -0.7521 -0.3662 -0.2957
  962MOL0     C29799   2.426   6.232   8.999 -0.2512 -0.1032 -0.3165
  962MOL0     C29800   2.396   6.331   9.067  0.4515 -0.1899  1.5627
  962MOL0     C29801   2.180   5.571   8.904  0.2736 -0.8607  0.3449
  962MOL0     C29802   2.083   5.499   8.830 -0.1620 -0.4331  0.4095
  962MOL0     H29803   1.558   5.620   8.587 -0.4437  0.3028 -1.2511
  962MOL0     H29804   1.368   5.511   8.491  1.3560  1.6256  0.1373
  962MOL0     H29805   1.126   5.391   8.666 -1.0031  2.3859 -0.8260
  962MOL0     H29806   1.174   5.433   8.500  0.3408  1.6041  1.1785
  962MOL0     H29807   0.971   5.354   8.462  0.8816  2.3153  0.5846
  962MOL0     H29808   1.055   5.199   8.452  0.3572  0.2181  0.0112
  962MOL0     H29809   1.011   5.192   8.721 -2.0539  0.4010  1.3691
  962MOL0     H29810   0.890   5.308   8.707 -2.2788 -3.8213  3.6146
  962MOL0     H29811   0.740   5.191   8.574 -0.9793 -0.5524 -0.1126
  962MOL0     H29812   0.846   5.053   8.568  1.6073  0.3374  1.0201
  962MOL0     H29813   0.849   5.040   8.808 -1.9589 -0.4650  1.3447
  962MOL0     H29814   0.763   5.183   8.831 -0.2265 -1.1862  0.9693
  962MOL0     H29815   0.566   5.109   8.717 -1.9202 -1.2082  0.8621
  962MOL0     H29816   0.632   4.956   8.690 -1.5098  0.4805 -0.3881
  962MOL0     H29817   0.652   4.908   8.945  2.0167  2.2702  1.8069
  962MOL0     H29818   0.609   5.066   8.984  3.4922  0.6120 -0.4412
  962MOL0     H29819   0.467   4.829   8.912  3.9125  1.8688  3.3943
  962MOL0     H29820   0.397   4.967   8.804 -1.5586 -0.7447  0.1373
  962MOL0     H29821   0.345   5.182   8.958  0.0131 -2.9190 -2.5395
  962MOL0     H29822   0.154   5.155   9.330 -0.9337  1.0395 -0.1311
  962MOL0     H29823   0.231   5.289   9.243  0.3920  0.0123  1.9981
  962MOL0     H29824  -0.014   5.310   9.246 -3.0021 -0.7327 -1.1721
  962MOL0     H29825  -0.030   5.151   9.186 -1.9718  1.2061 -0.6009
  962MOL0     H29826   0.089   5.224   8.964  0.5141 -0.9706  0.3552
  962MOL0     H29827   0.102   5.386   9.041 -1.5155  0.9539  3.9934
  962MOL0     H29828  -0.137   5.407   9.056 -3.3598 -0.7634 -1.4035
  962MOL0     H29829  -0.158   5.251   8.996 -1.5632  1.6784  1.6835
  962MOL0     H29830  -0.344   5.321   8.938  1.7727  2.6628  1.9075
  962MOL0     H29831  -0.679   5.412   8.806  0.4119 -0.5508  1.0348
  962MOL0     H29832  -0.599   5.309   8.918  1.3370 -0.1327  1.2164
  962MOL0     H29833  -0.631   5.475   8.958 -0.4675 -0.3196  1.3661
  962MOL0     H29834  -0.563   5.979   8.628 -1.8264  2.0190  1.6671
  962MOL0     H29835  -0.727   6.128   8.523  0.8004  0.5212  0.3456
  962MOL0     H29836  -0.978   6.169   8.569 -0.6515  0.2473 -0.3602
  962MOL0     H29837  -0.908   6.242   8.438  0.6349  0.1731  1.4656
  962MOL0     H29838  -1.183   6.183   8.357 -0.1665 -1.9242  0.3649
  962MOL0     H29839  -1.196   6.193   8.533  0.2680  1.7346  0.4548
  962MOL0     H29840  -1.090   6.411   8.354 -1.6592  0.4046  0.0219
  962MOL0     H29841  -1.077   6.415   8.529  0.3973 -0.0412  0.2709
  962MOL0     H29842  -1.313   6.402   8.342 -0.6086 -0.9066  1.1401
  962MOL0     H29843  -1.348   6.389   8.518 -0.3394  0.7072  0.8462
  962MOL0     H29844  -1.382   6.636   8.425 -0.6133 -1.0065  0.0433
  962MOL0     H29845  -1.212   6.629   8.388 -1.3933  2.6458  1.1707
  962MOL0     H29846  -1.289   6.558   8.667  0.6689 -0.3902 -0.4799
  962MOL0     H29847  -1.149   6.659   8.603  0.2613  1.6809 -0.7721
  962MOL0     H29848  -1.334   6.827   8.545  0.5563 -1.0707 -0.6042
  962MOL0     H29849  -1.255   6.821   8.709  1.2889 -3.0345  1.5485
  962MOL0     H29850  -1.488   6.668   8.763 -2.1981  0.1057 -0.3226
  962MOL0     H29851  -1.536   6.720   8.610 -0.0576 -0.2696  0.5782
  962MOL0     H29852  -0.930   5.801   8.337 -0.3187 -2.9150  1.0997
  962MOL0     H29853  -0.736   5.656   8.404 -1.1590 -0.8985  1.1071
  962MOL0     H29854  -0.314   5.679   8.593 -1.0266  1.2143  0.8263
  962MOL0     H29855  -0.117   5.576   8.690 -1.0454 -1.1200 -0.0752
  962MOL0     H29856   1.420   5.182   8.760 -1.1049  2.0747  1.6123
  962MOL0     H29857   1.620   5.272   8.843 -2.9563 -0.9185  1.5427
  962MOL0     H29858   1.837   5.728   8.828  2.2409  4.0562 -2.5894
  962MOL0     H29859   1.989   5.853   8.944  0.4950  0.4776 -2.0338
  962MOL0     H29860   2.419   5.693   9.050  0.2272  0.2530 -0.1689
  962MOL0     H29861   2.388   5.737   8.884 -0.2029 -1.6845  0.3742
  962MOL0     H29862   2.550   5.881   8.987 -0.5457 -2.6906  1.8407
  962MOL0     H29863   2.457   5.931   9.123  1.8174  0.2794  0.3303
  962MOL0     H29864   2.282   6.016   8.930 -0.9185 -2.0929 -0.7221
  962MOL0     H29865   2.397   5.972   8.807 -1.5029  2.7270 -0.2954
  962MOL0     H29866   2.485   6.173   8.810  1.3358  2.9245  1.2125
  962MOL0     H29867   2.574   6.097   8.926 -1.6253 -3.3067 -0.2073
  962MOL0     H29868   2.366   6.404   9.140 -2.0941  0.5972 -0.1324
  962MOL0     H29869   2.272   5.519   8.927 -0.0547 -1.1245  1.0956
  962MOL0     H29870   2.103   5.401   8.788  0.2591 -0.5905  0.9634
  963MOL0     O29871   0.457   2.841   9.458 -0.1384  0.8694  0.4323
  963MOL0     C29872   0.489   2.738   9.514 -0.5984 -0.3240  0.0105
  963MOL0     O29873   0.413   2.634   9.515  1.0416  0.5529 -0.1841
  963MOL0     C29874   0.279   2.647   9.465 -0.5559  1.0712  0.2515
  963MOL0     C29875   0.246   2.571   9.353  0.4627 -1.2277  1.0805
  963MOL0     C29876   0.113   2.565   9.305 -0.0236 -0.5284  0.4080
  963MOL0     C29877   0.010   2.621   9.380 -0.7504  1.0939 -0.2053
  963MOL0     O29878  -0.105   2.610   9.308 -0.4858 -0.5862  0.1610
  963MOL0     C29879  -0.219   2.683   9.348 -0.2988 -0.3727 -0.4935
  963MOL0     C29880  -0.282   2.593   9.455  0.0401 -0.0988  1.0668
  963MOL0     C29881  -0.434   2.643   9.481  0.5507  0.6455  0.4005
  963MOL0     C29882  -0.471   2.601   9.623 -0.3077  0.0710  0.1328
  963MOL0     C29883  -0.608   2.673   9.660 -0.4618  1.0016  0.1817
  963MOL0     C29884  -0.665   2.633   9.802 -0.1558  0.2968  0.4852
  963MOL0     C29885  -0.561   2.662   9.918 -0.2487 -0.5038  0.1413
  963MOL0     C29886  -0.641   2.670  10.051 -0.3486 -0.3506 -0.3100
  963MOL0     N29887  -0.557   2.635  10.168 -0.0206  1.4800  0.1571
  963MOL0     C29888  -0.539   2.507  10.202 -0.0376  0.1809 -0.1531
  963MOL0     C29889  -0.438   2.518  10.295 -0.2729  0.0333  0.3295
  963MOL0     C29890  -0.385   2.391  10.359 -0.3937 -0.2671 -0.3897
  963MOL0     C29891  -0.245   2.412  10.421  0.8923 -0.3648 -0.5063
  963MOL0     C29892  -0.208   2.295  10.513 -0.0317 -0.2162  0.0299
  963MOL0     C29893  -0.073   2.306  10.590  0.3424 -0.0788 -0.1239
  963MOL0     O29894   0.037   2.256  10.517 -0.2670 -0.1472  0.1682
  963MOL0     C29895   0.163   2.302  10.543 -0.7031 -0.9778 -0.5496
  963MOL0     C29896   0.261   2.264  10.457 -0.0878  0.1199  0.3703
  963MOL0     C29897   0.399   2.299  10.480  0.2967  0.7133  0.7400
  963MOL0     C29898   0.503   2.251  10.385 -0.9103 -0.5450  0.2328
  963MOL0     C29899   0.431   2.392  10.584 -0.0780 -0.1569  0.4520
  963MOL0     C29900   0.565   2.434  10.606 -0.3014  0.3254 -1.2502
  963MOL0     O29901   0.629   2.400  10.726  0.7554 -0.3387  0.3812
  963MOL0     C29902   0.755   2.456  10.749 -0.1426  0.0802 -0.1809
  963MOL0     C29903   0.775   2.536  10.859  0.0115  0.1733 -0.3863
  963MOL0     C29904   0.907   2.590  10.883  0.7761 -0.6986  0.0895
  963MOL0     C29905   1.011   2.558  10.798  0.1334 -0.2280  0.0971
  963MOL0     O29906   1.142   2.605  10.813  0.0742  0.3154 -0.1276
  963MOL0     C29907   1.175   2.741  10.840  0.2569  0.2713 -0.6857
  963MOL0     C29908   1.152   2.823  10.705  0.6079  0.3063 -0.0798
  963MOL0     C29909   1.182   2.971  10.733  0.4594 -0.3880  0.4812
  963MOL0     C29910   1.327   2.997  10.698  0.8738 -0.1987  0.3480
  963MOL0     C29911   1.365   3.145  10.712 -0.5709  0.2276  0.0567
  963MOL0     C29912   1.310   3.229  10.593 -0.2450  1.0416 -0.3292
  963MOL0     C29913   1.183   3.308  10.630  0.7586  1.1864  0.0804
  963MOL0     C29914   1.169   3.438  10.553 -0.8630 -0.0560  0.8180
  963MOL0    Cl29915   1.143   3.402  10.374 -0.4636 -0.4304  0.1714
  963MOL0     C29916   0.993   2.475  10.691 -0.3231 -0.5750  0.0265
  963MOL0     C29917   0.863   2.421  10.666  0.4599  0.1673 -0.3045
  963MOL0     O29918   0.617   2.517  10.524  0.6466 -0.1975  0.0145
  963MOL0     C29919   0.329   2.431  10.663 -0.3049  0.5331 -0.1926
  963MOL0     C29920   0.200   2.389  10.648  0.3761 -0.1867 -0.2060
  963MOL0     N29921  -0.410   2.652  10.314  0.9209 -0.3517  0.2502
  963MOL0     N29922  -0.478   2.725  10.235 -0.6477  0.2315  0.3813
  963MOL0     C29923   0.046   2.688   9.495 -0.4835  0.0111  0.0514
  963MOL0     C29924   0.182   2.706   9.537 -0.3677 -0.5395  0.3898
  963MOL0     C29925   0.612   2.730   9.588 -0.1450  0.2576  0.2250
  963MOL0     C29926   0.705   2.829   9.567  0.0040  0.3724 -0.2607
  963MOL0     C29927   0.836   2.817   9.628 -0.2482  0.5797 -0.0182
  963MOL0     C29928   0.874   2.704   9.699  0.7336 -0.0835 -0.3889
  963MOL0     O29929   1.001   2.715   9.748 -1.3745 -0.6009  0.2720
  963MOL0     C29930   1.042   2.632   9.855 -0.3288 -0.4405 -0.2530
  963MOL0     C29931   1.188   2.602   9.843 -1.5552 -0.7166  0.0701
  963MOL0     C29932   1.212   2.520   9.724  0.3488 -0.0131  0.0681
  963MOL0     C29933   1.364   2.483   9.722  1.1077  0.4387 -0.1160
  963MOL0     C29934   1.387   2.374   9.827 -0.4401 -0.8069  0.5746
  963MOL0     C29935   1.391   2.278   9.907  0.0861  0.0509 -1.0249
  963MOL0     C29936   0.781   2.601   9.712 -0.1268  0.1565 -0.2810
  963MOL0     C29937   0.648   2.620   9.669 -0.3119 -1.1727 -0.1617
  963MOL0     H29938   0.330   2.545   9.290  0.5016  3.9373 -1.5758
  963MOL0     H29939   0.096   2.547   9.200 -1.1215 -1.0832  0.6575
  963MOL0     H29940  -0.189   2.777   9.395  0.8531 -0.9428 -0.0333
  963MOL0     H29941  -0.295   2.704   9.273  0.2576 -1.2049 -1.3093
  963MOL0     H29942  -0.278   2.486   9.433  2.6854 -0.4281  2.7382
  963MOL0     H29943  -0.220   2.601   9.544  0.8083 -1.6332  0.7030
  963MOL0     H29944  -0.431   2.751   9.492  0.4124  0.5313  1.6278
  963MOL0     H29945  -0.506   2.605   9.407 -0.5826  2.0226  0.7524
  963MOL0     H29946  -0.478   2.492   9.630  1.2053 -0.0325  0.3577
  963MOL0     H29947  -0.398   2.632   9.698 -1.4423 -1.2428  1.8713
  963MOL0     H29948  -0.603   2.782   9.650 -1.3882  0.9243 -1.5158
  963MOL0     H29949  -0.680   2.643   9.583 -1.8883 -1.9615  2.4562
  963MOL0     H29950  -0.761   2.685   9.803 -0.4780 -0.1585 -1.6341
  963MOL0     H29951  -0.697   2.528   9.812 -3.1650  0.9662 -0.8065
  963MOL0     H29952  -0.480   2.588   9.923 -1.6255 -2.1344 -0.6427
  963MOL0     H29953  -0.513   2.758   9.898  1.7928 -0.6933  3.4207
  963MOL0     H29954  -0.724   2.599  10.037 -0.7103 -0.1914  0.9108
  963MOL0     H29955  -0.688   2.768  10.062 -2.1816 -1.2843  0.8556
  963MOL0     H29956  -0.594   2.416  10.182 -2.1253  0.7960  2.1876
  963MOL0     H29957  -0.457   2.361  10.435  0.7067  2.7026  2.0724
  963MOL0     H29958  -0.381   2.308  10.288 -2.2582 -3.0026  2.4506
  963MOL0     H29959  -0.253   2.505  10.478 -1.6480  0.1707 -1.6026
  963MOL0     H29960  -0.165   2.423  10.347  1.4974 -0.7031  0.0792
  963MOL0     H29961  -0.203   2.194  10.471  1.0687 -0.6837  1.2190
  963MOL0     H29962  -0.284   2.293  10.592  1.6475  0.7333  1.7517
  963MOL0     H29963  -0.075   2.253  10.685 -2.2297  1.7380  0.9364
  963MOL0     H29964  -0.068   2.411  10.619  2.6312  0.2652 -1.5462
  963MOL0     H29965   0.232   2.219  10.363 -0.6671  0.3064  0.4554
  963MOL0     H29966   0.472   2.163  10.327  0.4657 -1.0383  0.2213
  963MOL0     H29967   0.523   2.330  10.313 -1.0494 -0.3970  0.3559
  963MOL0     H29968   0.597   2.221  10.432  1.7522  0.5884 -3.8370
  963MOL0     H29969   0.691   2.554  10.924 -0.2198  2.3725 -1.2304
  963MOL0     H29970   0.918   2.661  10.965  4.6421 -0.4230 -0.5089
  963MOL0     H29971   1.112   2.785  10.918 -0.7459  1.0273 -1.8608
  963MOL0     H29972   1.278   2.751  10.875  0.1387 -3.1098  1.0114
  963MOL0     H29973   1.229   2.792  10.634  0.1425  1.2505 -1.0259
  963MOL0     H29974   1.049   2.809  10.670 -0.3604  0.0107  2.6356
  963MOL0     H29975   1.171   2.993  10.840 -1.1127  0.9573  0.0886
  963MOL0     H29976   1.119   3.031  10.668  1.3616 -3.2803 -3.4635
  963MOL0     H29977   1.386   2.932  10.763 -2.7356 -2.5139  1.6314
  963MOL0     H29978   1.355   2.966  10.597  3.2536  0.9618  0.5934
  963MOL0     H29979   1.474   3.148  10.721 -0.6131 -2.0783  2.3639
  963MOL0     H29980   1.337   3.203  10.800  4.3328  0.2580  1.9496
  963MOL0     H29981   1.389   3.296  10.560  2.8460 -1.2500  1.7815
  963MOL0     H29982   1.291   3.163  10.508  0.6036  2.7090 -1.8659
  963MOL0     H29983   1.177   3.326  10.738  0.4909 -0.0774  0.2960
  963MOL0     H29984   1.095   3.250  10.600 -0.0002  3.1127 -1.6495
  963MOL0     H29985   1.259   3.497  10.570  0.4376 -1.5096 -0.6219
  963MOL0     H29986   1.089   3.497  10.597 -1.5791 -1.4724  1.5001
  963MOL0     H29987   1.079   2.442  10.634  0.7993  1.0291  0.7245
  963MOL0     H29988   0.858   2.348  10.586  0.0040 -0.5826  0.3971
  963MOL0     H29989   0.341   2.498  10.747 -5.9432  0.0088  1.4345
  963MOL0     H29990   0.126   2.422  10.720  0.3966 -0.5353 -0.0204
  963MOL0     H29991  -0.027   2.743   9.554  1.1553  2.8936 -0.4119
  963MOL0     H29992   0.218   2.754   9.627  1.5037 -1.9051  0.4448
  963MOL0     H29993   0.689   2.907   9.493 -2.7429 -0.4001 -0.5704
  963MOL0     H29994   0.914   2.891   9.613  1.0389 -0.4224  1.3208
  963MOL0     H29995   1.017   2.682   9.950 -0.3724  0.9206 -0.9591
  963MOL0     H29996   0.994   2.534   9.852  0.9507 -1.0663 -2.3045
  963MOL0     H29997   1.210   2.548   9.936 -4.1603  0.0883  1.2677
  963MOL0     H29998   1.237   2.700   9.839  2.9680 -2.7477 -0.2440
  963MOL0     H29999   1.187   2.579   9.636 -1.1147  3.2550  2.4820
  963MOL0     H30000   1.145   2.433   9.725 -0.6171  0.7169  0.4076
  963MOL0     H30001   1.423   2.572   9.741 -1.1098  2.2044 -0.9741
  963MOL0     H30002   1.382   2.450   9.619  1.9619 -0.3900  0.2922
  963MOL0     H30003   1.379   2.199   9.977  1.1638  0.6054 -0.1782
  963MOL0     H30004   0.809   2.502   9.747  1.4455  1.7728  3.5261
  963MOL0     H30005   0.591   2.528   9.679  1.5817 -2.4251 -0.2987
  964MOL0     O30006   9.832   2.799   1.945 -0.1639 -0.2440 -0.1439
  964MOL0     C30007   9.800   2.914   1.987  0.1779  0.9321  0.0594
  964MOL0     O30008   9.670   2.949   2.019 -0.2649  0.3332 -0.1900
  964MOL0     C30009   9.567   2.859   1.981  0.1255 -0.0738  0.2726
  964MOL0     C30010   9.550   2.795   1.855 -0.1181  0.2898 -0.1199
  964MOL0     C30011   9.447   2.700   1.828  0.5837  0.4693 -0.7324
  964MOL0     C30012   9.345   2.678   1.917  0.1168  0.2625  0.3713
  964MOL0     O30013   9.253   2.579   1.915 -0.0494 -0.2468 -0.5509
  964MOL0     C30014   9.191   2.548   1.794  0.8466  0.0032  0.1773
  964MOL0     C30015   9.074   2.459   1.826  0.3324 -0.1893 -0.2869
  964MOL0     C30016   8.956   2.489   1.728 -0.6021 -0.6468 -0.6045
  964MOL0     C30017   8.837   2.402   1.776  0.4916  1.1308 -0.6101
  964MOL0     C30018   8.738   2.362   1.653  0.3743  0.8214 -0.2316
  964MOL0     C30019   8.689   2.490   1.585  0.7342 -0.5553 -0.6579
  964MOL0     C30020   8.599   2.466   1.461  0.9488 -0.0099 -0.5593
  964MOL0     C30021   8.457   2.445   1.495  0.4381  0.0046  1.1771
  964MOL0     N30022   8.387   2.373   1.389  0.0267 -0.2637 -0.1069
  964MOL0     C30023   8.286   2.287   1.424  0.3453  0.2812  0.7895
  964MOL0     C30024   8.216   2.262   1.314  0.9149  0.6729 -0.2183
  964MOL0     C30025   8.099   2.162   1.315 -0.1027 -0.5098 -1.1339
  964MOL0     C30026   8.123   2.047   1.223  0.1561  0.0677  0.5830
  964MOL0     C30027   8.093   2.096   1.077  1.0802  0.1752  0.2701
  964MOL0     C30028   8.045   1.978   0.984  0.5413  0.1136 -0.4426
  964MOL0     O30029   7.913   1.941   1.013  0.2958 -0.0299 -0.5084
  964MOL0     C30030   7.852   1.873   0.915  0.2948  0.5454  0.5244
  964MOL0     C30031   7.743   1.931   0.842 -0.7600 -0.0801 -0.8446
  964MOL0     C30032   7.675   1.867   0.733 -0.3483  0.4371 -0.2188
  964MOL0     C30033   7.547   1.929   0.680  0.5197  0.7189 -0.8978
  964MOL0     C30034   7.724   1.741   0.693 -0.0967  1.0561  0.1833
  964MOL0     C30035   7.647   1.650   0.593  0.5521  0.3007 -0.0096
  964MOL0     O30036   7.678   1.517   0.593 -0.2448 -0.1251 -0.3517
  964MOL0     C30037   7.606   1.439   0.511  0.4855 -0.1473  0.1296
  964MOL0     C30038   7.467   1.436   0.520 -0.3458  0.6008  0.3645
  964MOL0     C30039   7.398   1.358   0.421 -0.1569  0.3840 -0.0946
  964MOL0     C30040   7.469   1.279   0.327 -0.2555  0.1421 -0.0921
  964MOL0     O30041   7.391   1.214   0.230  0.2885 -0.2016 -0.2783
  964MOL0     C30042   7.452   1.113   0.148  0.3408 -0.3998  0.1772
  964MOL0     C30043   7.333   1.077   0.056 -0.1018 -0.5338  0.3282
  964MOL0     C30044   7.210   1.022   0.140  0.1777 -0.7808 -0.1960
  964MOL0     C30045   7.117   1.132   0.188 -0.5217  0.2318 -0.1860
  964MOL0     C30046   6.985   1.077   0.236 -0.2591  0.1873  0.1384
  964MOL0     C30047   6.901   1.034   0.111 -0.4573  0.2614  0.1491
  964MOL0     C30048   6.763   0.992   0.136  0.6275  0.2136  0.7886
  964MOL0     C30049   6.668   1.116   0.151 -0.0473 -0.6761 -0.1047
  964MOL0    Cl30050   6.506   1.046   0.150  0.1483  0.2568  0.1717
  964MOL0     C30051   7.610   1.275   0.326 -0.5174 -1.1077  0.3871
  964MOL0     C30052   7.673   1.356   0.422  0.4920 -0.1216 -0.1087
  964MOL0     O30053   7.559   1.701   0.517 -0.0249  0.4117 -0.6557
  964MOL0     C30054   7.839   1.691   0.755 -0.1257 -0.2794 -1.0886
  964MOL0     C30055   7.899   1.755   0.863 -0.3407 -0.2443 -0.3906
  964MOL0     N30056   8.263   2.339   1.207 -0.4768 -0.2729  0.2786
  964MOL0     N30057   8.374   2.395   1.252  0.9195 -0.6825 -0.2223
  964MOL0     C30058   9.350   2.742   2.036  0.8607  0.2833 -0.0430
  964MOL0     C30059   9.452   2.836   2.060  0.0824 -0.0419  0.8166
  964MOL0     C30060   9.907   3.019   1.987 -1.0357  0.2740 -0.1853
  964MOL0     C30061   9.873   3.155   1.982 -0.6136  0.0629 -0.0596
  964MOL0     C30062   9.965   3.253   1.978  0.2374 -0.1124  0.0038
  964MOL0     C30063  10.100   3.225   1.985 -0.2949  0.0664  0.1154
  964MOL0     O30064  10.187   3.332   1.974  0.0655 -0.0177  0.3541
  964MOL0     C30065  10.325   3.309   1.967 -0.8327 -0.0542 -0.0962
  964MOL0     C30066  10.403   3.292   2.107  0.2758 -0.0491  0.0795
  964MOL0     C30067  10.547   3.338   2.113 -0.2933 -0.0720  0.0643
  964MOL0     C30068  10.633   3.286   1.993 -0.1989 -0.6099  0.6645
  964MOL0     C30069  10.761   3.354   1.995 -0.4278 -0.1626  0.0693
  964MOL0     C30070  10.868   3.415   2.013 -0.4787 -0.3218 -0.9705
  964MOL0     C30071  10.141   3.098   1.996 -0.0848  0.5137  0.5842
  964MOL0     C30072  10.051   2.994   2.002  1.4197  0.3596  0.5295
  964MOL0     H30073   9.622   2.807   1.775  1.2176 -0.7101  0.8868
  964MOL0     H30074   9.445   2.634   1.742 -1.1576 -1.9492  1.0417
  964MOL0     H30075   9.174   2.643   1.743  2.3380  0.8856  1.2596
  964MOL0     H30076   9.251   2.491   1.722  1.8605  0.1322  0.9159
  964MOL0     H30077   9.102   2.353   1.825  1.0175 -0.0158 -0.1277
  964MOL0     H30078   9.042   2.474   1.930  1.3213  1.7095 -0.2080
  964MOL0     H30079   8.938   2.596   1.712 -0.3684 -0.6545 -0.9328
  964MOL0     H30080   8.989   2.454   1.630  0.3288 -3.0009  0.4862
  964MOL0     H30081   8.882   2.307   1.805  0.5729  0.4620 -2.7295
  964MOL0     H30082   8.789   2.466   1.851  1.3577  1.6931 -0.5171
  964MOL0     H30083   8.794   2.287   1.597 -0.1741 -0.9250  1.4468
  964MOL0     H30084   8.653   2.306   1.693  1.0242  0.0103  0.0436
  964MOL0     H30085   8.644   2.554   1.661  1.4218 -0.4201 -0.3570
  964MOL0     H30086   8.777   2.551   1.562 -0.5101  1.6864  0.2155
  964MOL0     H30087   8.602   2.554   1.396 -0.2337 -0.2124 -0.9231
  964MOL0     H30088   8.643   2.383   1.406 -0.6776 -2.0794  1.0824
  964MOL0     H30089   8.410   2.541   1.514  0.7562  0.0046  2.0380
  964MOL0     H30090   8.441   2.390   1.589 -0.6681  1.0939  1.6510
  964MOL0     H30091   8.272   2.232   1.516  1.7911  1.3947  1.7335
  964MOL0     H30092   8.083   2.119   1.414 -0.8231  0.3375 -0.8627
  964MOL0     H30093   8.006   2.217   1.296  0.9519  2.5447  1.7258
  964MOL0     H30094   8.047   1.973   1.251 -0.1365  1.3334  3.5003
  964MOL0     H30095   8.224   2.009   1.240  0.6657  1.6353  1.2304
  964MOL0     H30096   8.182   2.129   1.022  0.6448 -1.3874 -1.4792
  964MOL0     H30097   8.014   2.170   1.090  0.8528 -0.5333  3.8692
  964MOL0     H30098   8.114   1.894   0.991  0.6968  0.2869  0.1238
  964MOL0     H30099   8.051   2.015   0.881  1.3519 -1.1652 -0.8745
  964MOL0     H30100   7.715   2.030   0.877  2.9084  0.8863 -0.2302
  964MOL0     H30101   7.558   1.945   0.572  0.6804  0.7371 -0.8799
  964MOL0     H30102   7.465   1.862   0.705  2.0446 -0.2080  2.0330
  964MOL0     H30103   7.521   2.018   0.738 -3.1333 -1.4417  1.0825
  964MOL0     H30104   7.418   1.503   0.589 -1.5572 -1.8749  2.0652
  964MOL0     H30105   7.290   1.365   0.422 -0.1857  2.0967 -3.2180
  964MOL0     H30106   7.542   1.143   0.093  0.1911  1.1614  0.7478
  964MOL0     H30107   7.464   1.022   0.207 -0.9795 -0.8389 -0.2042
  964MOL0     H30108   7.316   1.165  -0.008  0.9948 -1.4436 -1.2927
  964MOL0     H30109   7.367   1.001  -0.015  0.1340  0.7829 -1.0368
  964MOL0     H30110   7.247   0.972   0.230  0.6158 -0.3910 -0.1559
  964MOL0     H30111   7.159   0.948   0.077 -3.5324 -0.4811  2.1834
  964MOL0     H30112   7.160   1.178   0.278 -3.3674  0.5410  1.1011
  964MOL0     H30113   7.112   1.206   0.107  2.9132 -2.3611 -3.1039
  964MOL0     H30114   6.922   1.147   0.292 -2.2365 -0.8156 -0.7499
  964MOL0     H30115   7.009   0.997   0.306  2.0309  0.9778  0.3257
  964MOL0     H30116   6.897   1.117   0.040 -1.9933  2.3189  2.4694
  964MOL0     H30117   6.955   0.953   0.061  0.8839  1.3727 -0.2654
  964MOL0     H30118   6.759   0.915   0.213  0.1682  1.7500  2.3706
  964MOL0     H30119   6.731   0.937   0.047  0.4120 -0.8135  1.4800
  964MOL0     H30120   6.675   1.182   0.064  0.1994  2.0476  1.8700
  964MOL0     H30121   6.682   1.174   0.243 -2.9466  2.2202 -1.2793
  964MOL0     H30122   7.671   1.227   0.250 -1.1261 -2.2961  0.6180
  964MOL0     H30123   7.779   1.376   0.427  0.4409  0.0111  0.5322
  964MOL0     H30124   7.882   1.599   0.719 -0.2934 -0.9520  0.3428
  964MOL0     H30125   8.000   1.723   0.888 -0.4082  0.7238  1.2159
  964MOL0     H30126   9.274   2.734   2.113  0.6484 -0.9819 -0.3709
  964MOL0     H30127   9.446   2.892   2.153 -0.2558  1.5227 -0.1063
  964MOL0     H30128   9.770   3.185   1.971 -2.0123 -2.9857  2.9704
  964MOL0     H30129   9.933   3.357   1.977  0.4836  0.0017  1.6114
  964MOL0     H30130  10.347   3.213   1.919 -1.9343 -0.3175 -0.0978
  964MOL0     H30131  10.376   3.385   1.907  2.1552 -2.7767 -1.2845
  964MOL0     H30132  10.395   3.187   2.137 -2.1309  0.2732  0.7792
  964MOL0     H30133  10.341   3.356   2.171 -0.3506  1.8909 -2.3371
  964MOL0     H30134  10.583   3.314   2.213  0.1727  2.5899  0.6249
  964MOL0     H30135  10.553   3.447   2.103 -3.0849  0.2107  0.6876
  964MOL0     H30136  10.593   3.314   1.895  0.3590 -0.7505  0.3942
  964MOL0     H30137  10.650   3.178   1.991 -1.3446 -0.8767  2.6518
  964MOL0     H30138  10.956   3.473   2.035  0.8666 -2.4252 -0.5189
  964MOL0     H30139  10.242   3.060   1.987 -0.2877  0.1693 -0.2803
  964MOL0     H30140  10.092   2.894   2.011  0.1436 -0.4960 -2.2565
  965MOL0     O30141   2.061   1.689   5.569 -0.7409  0.1092 -0.0742
  965MOL0     C30142   2.074   1.635   5.673 -0.1312  0.2741  0.3172
  965MOL0     O30143   1.989   1.548   5.721 -0.7046 -0.1839  0.3950
  965MOL0     C30144   1.893   1.490   5.647 -0.5022 -0.3507 -0.3176
  965MOL0     C30145   1.782   1.458   5.723  0.7635 -0.2561  0.4573
  965MOL0     C30146   1.668   1.391   5.671 -0.3910  1.1153  0.0710
  965MOL0     C30147   1.679   1.337   5.535 -0.2964  1.4153  0.0050
  965MOL0     O30148   1.572   1.263   5.495  0.3421 -0.3706  0.1472
  965MOL0     C30149   1.528   1.281   5.357  0.0411  0.5450 -0.2546
  965MOL0     C30150   1.393   1.205   5.366  0.3174  1.0354  0.3914
  965MOL0     C30151   1.299   1.285   5.449 -0.1124 -0.3563 -0.3553
  965MOL0     C30152   1.251   1.417   5.385 -0.6936  0.3141  0.4051
  965MOL0     C30153   1.133   1.476   5.454 -0.2257 -0.6074  0.2488
  965MOL0     C30154   1.006   1.400   5.408  0.0883  0.7927  0.1294
  965MOL0     C30155   0.889   1.448   5.493 -0.5502  0.6478  0.3202
  965MOL0     C30156   0.862   1.599   5.498 -0.0035  0.1067 -0.0316
  965MOL0     N30157   0.727   1.641   5.470  0.2814 -0.6254 -0.3611
  965MOL0     C30158   0.695   1.768   5.431 -0.5747  0.0008 -0.4487
  965MOL0     C30159   0.568   1.760   5.408  0.2005 -0.9221  0.0694
  965MOL0     C30160   0.505   1.878   5.330  0.2201  0.5308  0.3292
  965MOL0     C30161   0.537   1.876   5.179  0.8844 -0.7966  0.1296
  965MOL0     C30162   0.673   1.940   5.145 -0.4391  0.4281 -1.0674
  965MOL0     C30163   0.668   2.078   5.080  1.0417  0.6284  0.7643
  965MOL0     O30164   0.795   2.119   5.036 -0.2559 -0.0843 -0.0585
  965MOL0     C30165   0.798   2.235   4.960  0.5650  0.6258 -0.7273
  965MOL0     C30166   0.697   2.328   4.951 -0.4640  0.0982 -0.0326
  965MOL0     C30167   0.721   2.450   4.888  0.4047  0.3027  0.8181
  965MOL0     C30168   0.606   2.551   4.868  0.0993 -0.2170 -0.6967
  965MOL0     C30169   0.851   2.480   4.825  0.5208  0.5610 -0.5029
  965MOL0     C30170   0.893   2.612   4.778 -1.0132  1.2043  0.6666
  965MOL0     O30171   0.962   2.603   4.660 -0.1352  0.1081 -0.1472
  965MOL0     C30172   1.005   2.707   4.586 -0.0748  0.1037  0.0190
  965MOL0     C30173   0.969   2.841   4.598 -0.4633  0.3568 -0.0196
  965MOL0     C30174   1.034   2.943   4.534 -0.3292 -0.6873 -0.1808
  965MOL0     C30175   1.148   2.922   4.452  0.2806 -0.1926 -0.3686
  965MOL0     O30176   1.221   3.019   4.392  0.4385  0.5293  0.1152
  965MOL0     C30177   1.185   3.162   4.403 -0.3848  0.0024  0.1833
  965MOL0     C30178   1.260   3.230   4.519 -0.2267  0.1011 -0.2640
  965MOL0     C30179   1.409   3.245   4.511 -0.4151 -1.2373 -0.0588
  965MOL0     C30180   1.466   3.306   4.645  0.0992  0.2718  0.3930
  965MOL0     C30181   1.622   3.279   4.654  0.5631 -0.6100 -0.4732
  965MOL0     C30182   1.711   3.361   4.561  1.8939 -0.2731  0.4710
  965MOL0     C30183   1.854   3.359   4.606  1.5247 -0.3918  0.1481
  965MOL0     C30184   1.947   3.434   4.503  0.1262  0.1728  0.0740
  965MOL0    Cl30185   1.885   3.593   4.449  0.5102 -0.0156 -0.0765
  965MOL0     C30186   1.184   2.787   4.442  0.4347  0.0427  0.1599
  965MOL0     C30187   1.106   2.677   4.497  0.0995  0.0651  0.2374
  965MOL0     O30188   0.862   2.712   4.840 -0.0618 -0.3949 -0.6493
  965MOL0     C30189   0.946   2.375   4.820  0.3413  0.0922 -0.1445
  965MOL0     C30190   0.910   2.257   4.885 -0.6375 -0.4149  0.0700
  965MOL0     N30191   0.514   1.642   5.443 -0.4948 -0.1438 -0.2376
  965MOL0     N30192   0.610   1.569   5.479 -0.3683 -0.0640 -0.4706
  965MOL0     C30193   1.792   1.367   5.456  0.5101 -0.0879  0.6882
  965MOL0     C30194   1.902   1.446   5.511  0.6247  0.2478 -1.1766
  965MOL0     C30195   2.176   1.701   5.765  0.0679 -0.1318  0.3613
  965MOL0     C30196   2.187   1.665   5.895 -0.0800  0.0079 -1.0758
  965MOL0     C30197   2.296   1.712   5.974 -0.0858  0.3760  0.1412
  965MOL0     C30198   2.396   1.798   5.924  0.2426 -0.4986  0.1914
  965MOL0     O30199   2.490   1.839   6.019 -0.6006  0.3021 -0.4925
  965MOL0     C30200   2.600   1.910   5.969 -0.3346  1.3561 -0.4278
  965MOL0     C30201   2.715   1.829   5.908  0.2030  0.3280 -0.1018
  965MOL0     C30202   2.769   1.742   6.025  0.2932 -0.4862 -0.4971
  965MOL0     C30203   2.853   1.625   5.985  0.3792 -0.3065  0.4948
  965MOL0     C30204   2.979   1.671   5.933  0.3836  0.4795  0.7427
  965MOL0     C30205   3.094   1.705   5.915 -0.2153  0.6946  0.1888
  965MOL0     C30206   2.371   1.853   5.789  0.3828  1.0356 -0.7303
  965MOL0     C30207   2.266   1.802   5.711  0.8872  0.3392 -0.7357
  965MOL0     H30208   1.785   1.505   5.821  0.8231  2.7536 -0.8865
  965MOL0     H30209   1.575   1.377   5.725 -1.5371 -1.6978 -2.3760
  965MOL0     H30210   1.530   1.388   5.334  0.0241  0.2373 -1.8018
  965MOL0     H30211   1.607   1.242   5.291  0.7410 -0.4219  1.1003
  965MOL0     H30212   1.357   1.201   5.262  0.1465  5.2550  0.0982
  965MOL0     H30213   1.420   1.107   5.406  0.4217  0.1667 -1.6782
  965MOL0     H30214   1.216   1.215   5.465 -1.2800  1.0579 -0.0875
  965MOL0     H30215   1.336   1.300   5.551 -1.8424  2.7581 -0.0836
  965MOL0     H30216   1.333   1.489   5.402 -1.6442  1.2846  1.0151
  965MOL0     H30217   1.235   1.396   5.279  0.1550 -0.9386  0.4999
  965MOL0     H30218   1.140   1.466   5.562 -0.9965  0.4867  0.4188
  965MOL0     H30219   1.137   1.583   5.432 -0.0047 -0.3703  1.3955
  965MOL0     H30220   0.990   1.421   5.302 -0.4456 -1.4132 -0.2916
  965MOL0     H30221   1.025   1.293   5.426  1.2616  1.2677  2.0718
  965MOL0     H30222   0.804   1.396   5.450  2.0638 -3.5944 -0.2686
  965MOL0     H30223   0.893   1.415   5.598 -0.9933  2.3789  0.9216
  965MOL0     H30224   0.919   1.649   5.419 -0.1057  0.7487  0.2904
  965MOL0     H30225   0.890   1.625   5.601 -2.6426 -0.6740  0.9504
  965MOL0     H30226   0.756   1.856   5.413 -0.7846 -0.3624 -3.5878
  965MOL0     H30227   0.398   1.885   5.353  0.4138  1.3694  1.0065
  965MOL0     H30228   0.553   1.966   5.372  1.4309  1.4657 -2.7246
  965MOL0     H30229   0.454   1.918   5.121  2.8162 -1.3727 -3.3527
  965MOL0     H30230   0.549   1.770   5.153 -2.2005 -0.6654 -2.5386
  965MOL0     H30231   0.733   1.869   5.087  1.5564  0.3044  1.0384
  965MOL0     H30232   0.725   1.965   5.237 -0.0491  2.5749 -1.8109
  965MOL0     H30233   0.630   2.150   5.153 -0.3935  1.4612 -0.7335
  965MOL0     H30234   0.608   2.062   4.990  0.5144 -1.4103  1.4243
  965MOL0     H30235   0.592   2.315   4.977 -0.3378  0.3661  0.6288
  965MOL0     H30236   0.619   2.617   4.782  1.7782 -1.8747 -1.8034
  965MOL0     H30237   0.508   2.507   4.852  0.5056 -1.0110 -1.0662
  965MOL0     H30238   0.598   2.604   4.963  0.1784  0.5834 -1.1313
  965MOL0     H30239   0.890   2.871   4.666  0.0255 -1.4544  1.4274
  965MOL0     H30240   0.997   3.044   4.545 -2.6858 -1.2467 -2.1455
  965MOL0     H30241   1.218   3.208   4.309  1.5373  1.2113  1.3828
  965MOL0     H30242   1.079   3.183   4.419 -0.4295 -0.8395  1.0596
  965MOL0     H30243   1.215   3.329   4.525  2.2747  1.3539 -0.7543
  965MOL0     H30244   1.243   3.177   4.614 -2.1784  0.2277 -0.5184
  965MOL0     H30245   1.449   3.297   4.424  2.6247 -1.3731  1.1592
  965MOL0     H30246   1.458   3.147   4.509 -0.4732 -1.2444 -1.5544
  965MOL0     H30247   1.429   3.409   4.648 -1.4121 -0.2757  2.3655
  965MOL0     H30248   1.419   3.256   4.730 -0.7703  2.2010  1.0875
  965MOL0     H30249   1.656   3.175   4.647  0.4041 -0.5881 -1.8461
  965MOL0     H30250   1.638   3.320   4.754  2.3728 -1.1233 -0.5128
  965MOL0     H30251   1.710   3.317   4.461  0.6859 -1.5301  0.9999
  965MOL0     H30252   1.676   3.464   4.552  2.0808 -0.1285  1.3027
  965MOL0     H30253   1.879   3.258   4.639 -0.6506 -0.7689  0.8240
  965MOL0     H30254   1.857   3.402   4.707  0.8791 -3.8695  1.7768
  965MOL0     H30255   1.949   3.377   4.410 -1.9871  0.6521 -0.3191
  965MOL0     H30256   2.049   3.441   4.543  0.5779  1.7834 -1.2633
  965MOL0     H30257   1.279   2.766   4.393  0.0907  1.4625 -1.1963
  965MOL0     H30258   1.136   2.574   4.482  2.6804  0.7370  0.4327
  965MOL0     H30259   1.031   2.377   4.753 -0.3739  1.0341 -1.0692
  965MOL0     H30260   0.979   2.173   4.878 -0.9187 -0.9637  2.7009
  965MOL0     H30261   1.793   1.332   5.353 -1.8544 -1.1581  0.9787
  965MOL0     H30262   1.988   1.462   5.448  0.8612  0.5793 -0.7698
  965MOL0     H30263   2.121   1.594   5.946  3.2179 -3.2753 -0.9927
  965MOL0     H30264   2.308   1.680   6.077 -2.0253  0.1952  0.3438
  965MOL0     H30265   2.572   1.993   5.903 -4.3255  2.1874  2.0021
  965MOL0     H30266   2.655   1.966   6.044  0.6390  1.5521 -1.2586
  965MOL0     H30267   2.793   1.898   5.876 -1.0597  2.4319  1.1583
  965MOL0     H30268   2.678   1.767   5.826 -1.0035  1.1058 -0.1580
  965MOL0     H30269   2.679   1.706   6.077 -1.6280  2.4136 -1.5569
  965MOL0     H30270   2.826   1.801   6.097 -0.6152  0.4161 -0.4920
  965MOL0     H30271   2.793   1.565   5.916 -0.0008 -2.9204  2.8952
  965MOL0     H30272   2.877   1.556   6.066  3.6478  1.9699  1.7007
  965MOL0     H30273   3.192   1.742   5.892 -1.6340  4.1342 -1.0340
  965MOL0     H30274   2.423   1.941   5.753  0.3079  0.6980 -1.6804
  965MOL0     H30275   2.260   1.836   5.608  0.0121  0.2897 -0.7058
  966MOL0     O30276   7.063   0.566   1.803  0.1264  0.5711  0.1912
  966MOL0     C30277   6.999   0.666   1.797 -0.9399 -0.8618  0.0551
  966MOL0     O30278   6.867   0.681   1.837  0.0693 -0.7081  0.1694
  966MOL0     C30279   6.783   0.575   1.849 -0.1757  0.2592 -0.9723
  966MOL0     C30280   6.771   0.470   1.756  0.1748  0.9304  0.9649
  966MOL0     C30281   6.667   0.380   1.780 -0.0678 -0.4627 -0.1451
  966MOL0     C30282   6.571   0.392   1.878  0.0037  0.2671 -0.5877
  966MOL0     O30283   6.462   0.308   1.890 -0.1859  0.2393  0.0463
  966MOL0     C30284   6.408   0.237   1.780 -0.1856  0.3620 -0.3031
  966MOL0     C30285   6.258   0.249   1.802  0.9926  0.2007  0.7879
  966MOL0     C30286   6.201   0.174   1.923 -0.0141 -0.4367 -0.1805
  966MOL0     C30287   6.058   0.229   1.982 -0.1342 -0.8612  1.8974
  966MOL0     C30288   5.943   0.218   1.872  0.4319  0.0338 -0.3003
  966MOL0     C30289   5.804   0.233   1.929  0.4924 -0.6250  0.0646
  966MOL0     C30290   5.776   0.102   2.008  0.8751 -0.1226 -1.5194
  966MOL0     C30291   5.620   0.109   2.036 -0.1990 -0.4610 -0.2135
  966MOL0     N30292   5.585   0.029   2.157 -0.1879  0.1695  1.1691
  966MOL0     C30293   5.574  -0.108   2.164  0.4110  0.7054  0.3635
  966MOL0     C30294   5.552  -0.137   2.302 -0.2046 -0.8011  1.0357
  966MOL0     C30295   5.533  -0.276   2.359  0.7335 -0.3996 -0.2049
  966MOL0     C30296   5.407  -0.301   2.445  1.0440 -0.4966  0.6876
  966MOL0     C30297   5.278  -0.248   2.385  0.7114 -0.1544  0.1878
  966MOL0     C30298   5.163  -0.243   2.485 -0.2177  0.0755  0.5178
  966MOL0     O30299   5.102  -0.374   2.474 -0.5972 -0.0500 -0.0018
  966MOL0     C30300   4.988  -0.392   2.553 -0.0650 -0.0187  0.5690
  966MOL0     C30301   4.955  -0.522   2.576 -0.5553 -0.5064  0.8088
  966MOL0     C30302   4.845  -0.564   2.655 -0.1270 -0.2130 -1.2737
  966MOL0     C30303   4.844  -0.719   2.683  0.4237 -0.0272 -1.1449
  966MOL0     C30304   4.750  -0.468   2.698  0.2293 -1.2871 -0.1382
  966MOL0     C30305   4.625  -0.488   2.773 -0.1786  0.6967 -0.3853
  966MOL0     O30306   4.533  -0.394   2.762  0.0901  0.8253  0.7244
  966MOL0     C30307   4.404  -0.425   2.790  1.0884  0.2888  0.5388
  966MOL0     C30308   4.355  -0.421   2.919  0.1359 -0.3887  0.6182
  966MOL0     C30309   4.225  -0.451   2.950  0.5910 -1.6541  0.8095
  966MOL0     C30310   4.135  -0.476   2.844  0.0954  0.3697  0.2895
  966MOL0     O30311   3.999  -0.498   2.869  0.4590 -0.4482 -0.0460
  966MOL0     C30312   3.953  -0.409   2.970 -0.5025  0.4211  0.5011
  966MOL0     C30313   3.793  -0.415   2.975 -0.3220 -0.5272  1.3402
  966MOL0     C30314   3.725  -0.371   2.842 -0.3036 -0.2886 -0.8733
  966MOL0     C30315   3.584  -0.425   2.820 -0.2688 -0.1137 -0.5059
  966MOL0     C30316   3.513  -0.365   2.700  0.1278  0.3361  0.1909
  966MOL0     C30317   3.367  -0.372   2.709 -0.2020 -0.2957  0.0587
  966MOL0     C30318   3.290  -0.294   2.608 -0.2460 -0.7642  0.9305
  966MOL0     C30319   3.280  -0.382   2.476 -0.8902 -0.8034 -0.7756
  966MOL0    Cl30320   3.263  -0.269   2.329 -0.4022 -0.5673  0.0946
  966MOL0     C30321   4.187  -0.478   2.712  0.8181 -0.9236  1.0940
  966MOL0     C30322   4.318  -0.459   2.681 -0.2587  0.1860  0.3825
  966MOL0     O30323   4.616  -0.595   2.837  0.1537  0.3910 -0.4255
  966MOL0     C30324   4.787  -0.332   2.669 -0.6283  0.4261 -0.1964
  966MOL0     C30325   4.900  -0.294   2.598 -0.5990 -0.8779 -0.8349
  966MOL0     N30326   5.546  -0.022   2.365 -0.0247  0.0553  0.2990
  966MOL0     N30327   5.567   0.076   2.284  0.2161  1.0350  0.0737
  966MOL0     C30328   6.592   0.490   1.974  1.0235 -0.2523  0.7694
  966MOL0     C30329   6.701   0.575   1.956 -0.1782 -0.5117 -0.8410
  966MOL0     C30330   7.074   0.787   1.754 -0.7960 -0.7302 -0.5245
  966MOL0     C30331   7.014   0.916   1.791 -0.1211 -0.0756 -0.1340
  966MOL0     C30332   7.065   1.044   1.764  0.2776  0.4388 -0.1107
  966MOL0     C30333   7.186   1.049   1.680 -0.3466 -0.2128 -0.1260
  966MOL0     O30334   7.245   1.162   1.628  0.2503 -0.2464 -0.0258
  966MOL0     C30335   7.291   1.250   1.737  0.3778 -0.4119 -0.1141
  966MOL0     C30336   7.350   1.384   1.671 -0.1645  0.3766  0.5248
  966MOL0     C30337   7.398   1.480   1.778 -0.2358  0.6285 -0.1795
  966MOL0     C30338   7.472   1.604   1.724 -0.0854  0.0003 -0.2781
  966MOL0     C30339   7.525   1.685   1.828 -0.6512  0.4617  0.0747
  966MOL0     C30340   7.559   1.770   1.908  0.2213  0.3306 -0.5543
  966MOL0     C30341   7.255   0.927   1.654  0.3465  0.1044 -0.3930
  966MOL0     C30342   7.204   0.800   1.692 -0.0409  0.1737  0.3035
  966MOL0     H30343   6.846   0.444   1.682  0.5264 -0.8952  1.9048
  966MOL0     H30344   6.666   0.305   1.701 -0.0658  0.8694 -1.4468
  966MOL0     H30345   6.447   0.284   1.689  1.8008  2.2577  1.3969
  966MOL0     H30346   6.451   0.137   1.791  3.0868  1.8951  3.3360
  966MOL0     H30347   6.254   0.357   1.818  0.4470  0.8825 -3.0166
  966MOL0     H30348   6.209   0.225   1.708  0.6849 -1.7369  1.3863
  966MOL0     H30349   6.202   0.070   1.889  0.2444 -0.3453 -0.4587
  966MOL0     H30350   6.270   0.165   2.008  3.6286 -1.4306 -3.0071
  966MOL0     H30351   6.042   0.170   2.072 -2.0005  1.4341  3.2017
  966MOL0     H30352   6.069   0.335   2.010  1.7929  0.5192 -3.0835
  966MOL0     H30353   5.973   0.295   1.801  1.8648 -1.7308 -1.6960
  966MOL0     H30354   5.949   0.129   1.809  1.8075  2.4782 -3.9802
  966MOL0     H30355   5.796   0.325   1.987  0.5174  0.6372 -1.8257
  966MOL0     H30356   5.727   0.242   1.851  0.1259 -2.3199  0.1977
  966MOL0     H30357   5.793   0.010   1.951 -1.2243 -1.6395  0.1313
  966MOL0     H30358   5.825   0.088   2.105 -0.2327 -3.0604 -1.2901
  966MOL0     H30359   5.576   0.063   1.946  1.0998 -1.0986 -0.5532
  966MOL0     H30360   5.579   0.209   2.049 -0.2886 -0.8271  3.0179
  966MOL0     H30361   5.598  -0.175   2.082 -1.5734  1.8774 -1.2571
  966MOL0     H30362   5.544  -0.347   2.276  2.1170 -1.1268  0.5702
  966MOL0     H30363   5.622  -0.307   2.414  0.6819 -0.5388 -0.1967
  966MOL0     H30364   5.410  -0.245   2.539  0.2216  3.7706 -1.5286
  966MOL0     H30365   5.398  -0.409   2.460 -0.5321 -0.5769 -0.4937
  966MOL0     H30366   5.255  -0.324   2.310  3.1804 -0.5717 -0.2476
  966MOL0     H30367   5.285  -0.149   2.339  2.2078 -0.3214 -0.0028
  966MOL0     H30368   5.095  -0.166   2.450  1.1247 -0.3445 -3.5497
  966MOL0     H30369   5.188  -0.219   2.589  4.6166  0.4708 -0.4937
  966MOL0     H30370   5.012  -0.597   2.523 -2.0457 -0.4363 -1.0287
  966MOL0     H30371   4.793  -0.768   2.599  0.4467  0.5723 -1.5112
  966MOL0     H30372   4.949  -0.749   2.683  1.7996  3.9473  1.8506
  966MOL0     H30373   4.797  -0.738   2.780  0.6879  0.9102 -0.8300
  966MOL0     H30374   4.426  -0.385   2.993  1.3949 -0.8912 -0.3041
  966MOL0     H30375   4.188  -0.443   3.052  0.8599  0.8910  0.7676
  966MOL0     H30376   3.994  -0.442   3.066  1.0954  3.1420  0.8553
  966MOL0     H30377   3.977  -0.304   2.955  1.4404  0.2536  2.0547
  966MOL0     H30378   3.769  -0.521   2.983  0.4949 -1.0000 -1.5559
  966MOL0     H30379   3.750  -0.348   3.050 -0.9572 -2.9102  3.2425
  966MOL0     H30380   3.792  -0.411   2.765 -1.9549 -3.5547 -0.8087
  966MOL0     H30381   3.724  -0.262   2.836  0.4965  0.1151  3.1453
  966MOL0     H30382   3.603  -0.533   2.817 -2.4414 -1.0471  5.3146
  966MOL0     H30383   3.526  -0.408   2.912  0.9791 -0.8272  0.4489
  966MOL0     H30384   3.551  -0.415   2.610  0.2486 -0.9352  0.9252
  966MOL0     H30385   3.531  -0.258   2.699  1.8503  0.1076  1.5804
  966MOL0     H30386   3.336  -0.477   2.710  0.0473 -0.4121 -1.6122
  966MOL0     H30387   3.333  -0.334   2.806  1.4776  2.8180 -0.4566
  966MOL0     H30388   3.338  -0.202   2.572 -0.8919 -1.4234 -1.8716
  966MOL0     H30389   3.190  -0.266   2.643  0.2618  1.2892  0.8646
  966MOL0     H30390   3.200  -0.456   2.483 -1.3048 -0.1776  3.4475
  966MOL0     H30391   3.379  -0.425   2.459 -0.1253  0.7741 -0.5363
  966MOL0     H30392   4.123  -0.492   2.625  1.2961 -1.1032  0.7641
  966MOL0     H30393   4.347  -0.469   2.577 -2.5850 -1.1897 -0.2037
  966MOL0     H30394   4.725  -0.254   2.712 -1.6108 -0.2776 -0.2884
  966MOL0     H30395   4.927  -0.189   2.595  0.1589 -1.0470 -0.2183
  966MOL0     H30396   6.532   0.493   2.064  0.8675 -0.9839  0.6956
  966MOL0     H30397   6.709   0.646   2.038 -1.6900 -1.2900  0.0034
  966MOL0     H30398   6.925   0.910   1.854  0.9389 -1.5588  1.2985
  966MOL0     H30399   7.017   1.133   1.804  2.9459  2.5326 -1.2109
  966MOL0     H30400   7.204   1.280   1.795 -1.5679 -3.3650 -1.2885
  966MOL0     H30401   7.372   1.209   1.799 -1.7034 -2.1944  1.5826
  966MOL0     H30402   7.270   1.423   1.608  2.0685  0.7956 -2.2293
  966MOL0     H30403   7.441   1.357   1.617  0.6193  0.9226  1.5179
  966MOL0     H30404   7.471   1.421   1.834  1.1669  1.9397 -0.5744
  966MOL0     H30405   7.314   1.517   1.838 -0.8720 -1.0816  0.0501
  966MOL0     H30406   7.406   1.668   1.663  0.4504 -0.6950 -1.6297
  966MOL0     H30407   7.550   1.567   1.657  0.3004  2.1945 -1.1381
  966MOL0     H30408   7.577   1.845   1.982  0.3500 -1.4489  1.3050
  966MOL0     H30409   7.342   0.930   1.589 -0.2557 -1.4882 -1.3344
  966MOL0     H30410   7.258   0.711   1.664 -2.4196 -1.7012  1.3214
  967MOL0     O30411   3.550   6.771   6.712 -0.2735 -0.3674  0.3556
  967MOL0     C30412   3.587   6.810   6.597 -0.0153 -1.1387 -0.6444
  967MOL0     O30413   3.507   6.860   6.505 -0.4357 -0.3766 -0.1621
  967MOL0     C30414   3.385   6.899   6.537  0.9369  0.7559 -1.0154
  967MOL0     C30415   3.289   6.878   6.439 -0.1885  0.1175 -0.4173
  967MOL0     C30416   3.160   6.921   6.461 -0.8891  0.1326 -0.7752
  967MOL0     C30417   3.119   6.985   6.580 -0.1118  0.4326 -0.1775
  967MOL0     O30418   2.981   7.003   6.607 -0.4660  0.6713 -0.0801
  967MOL0     C30419   2.940   7.002   6.739  0.3228  0.3254  0.2367
  967MOL0     C30420   2.786   7.002   6.757  0.0585 -1.2365 -0.2113
  967MOL0     C30421   2.744   6.979   6.908 -0.2126  0.1745  0.1439
  967MOL0     C30422   2.656   7.100   6.947 -0.7479  0.5324  1.0295
  967MOL0     C30423   2.620   7.116   7.096  0.5376 -1.3060 -0.5198
  967MOL0     C30424   2.557   6.995   7.155  0.3213 -0.7177 -0.2612
  967MOL0     C30425   2.441   6.933   7.077  0.4608  0.3827  0.5537
  967MOL0     C30426   2.359   6.839   7.165  0.1699  0.4462 -1.0451
  967MOL0     N30427   2.252   6.908   7.245  0.1218  0.0207  0.2132
  967MOL0     C30428   2.128   6.950   7.199 -0.5472 -0.7021 -0.0948
  967MOL0     C30429   2.078   7.022   7.302 -0.3433 -1.3613  0.6557
  967MOL0     C30430   1.948   7.096   7.288  0.5629 -0.3291  0.4199
  967MOL0     C30431   1.949   7.221   7.378  0.5688  0.3467 -0.7061
  967MOL0     C30432   1.930   7.185   7.529  0.5894  0.7184  0.3043
  967MOL0     C30433   1.855   7.287   7.614  0.5829  0.2679  0.4155
  967MOL0     O30434   1.937   7.398   7.659 -0.3635  0.8102  0.5690
  967MOL0     C30435   1.958   7.505   7.581  0.0333 -0.0239  0.7782
  967MOL0     C30436   2.080   7.568   7.593  0.1747  0.4180 -0.3969
  967MOL0     C30437   2.109   7.692   7.520  0.5857  0.2549  0.7557
  967MOL0     C30438   2.244   7.748   7.524  0.6659 -0.6326 -0.2031
  967MOL0     C30439   1.999   7.753   7.449 -0.6549  0.0232 -0.6517
  967MOL0     C30440   1.996   7.876   7.372  1.0376 -0.0395  0.8006
  967MOL0     O30441   1.894   7.891   7.286  0.3695 -0.3869  0.5804
  967MOL0     C30442   1.899   8.006   7.209  0.3463  0.0389  0.5469
  967MOL0     C30443   1.996   8.044   7.116  0.0382  0.5846  0.1620
  967MOL0     C30444   1.997   8.165   7.051 -0.2791 -0.5842 -1.1508
  967MOL0     C30445   1.894   8.261   7.073 -0.5548  0.6858  0.1975
  967MOL0     O30446   1.894   8.384   7.008  0.2855 -0.0432 -0.2316
  967MOL0     C30447   1.769   8.464   6.996 -0.3456 -0.4345  0.5725
  967MOL0     C30448   1.796   8.577   6.897  0.2874 -0.6483 -0.1202
  967MOL0     C30449   1.686   8.682   6.894  0.8155  0.3054  0.7590
  967MOL0     C30450   1.725   8.814   6.827 -0.0451  1.1281 -0.4242
  967MOL0     C30451   1.623   8.898   6.734 -0.5811  0.3543 -0.3459
  967MOL0     C30452   1.487   8.920   6.795 -0.9185  0.1193 -0.1131
  967MOL0     C30453   1.394   8.978   6.684  0.8304  0.0873  0.1059
  967MOL0     C30454   1.254   9.012   6.744 -0.7244 -0.1667 -0.1605
  967MOL0    Cl30455   1.271   9.142   6.865 -0.1635  0.5153 -0.1409
  967MOL0     C30456   1.797   8.231   7.164  0.7921  0.0693 -0.1865
  967MOL0     C30457   1.794   8.106   7.229  0.2530 -0.0651  0.6628
  967MOL0     O30458   2.092   7.953   7.381  0.0725  0.4244  0.6293
  967MOL0     C30459   1.877   7.676   7.431  0.6798 -0.3550 -0.7743
  967MOL0     C30460   1.860   7.558   7.501 -0.0283  0.2633 -1.7194
  967MOL0     N30461   2.173   7.035   7.404  0.7468  0.6852  0.4069
  967MOL0     N30462   2.273   6.956   7.370  0.1118 -0.3594 -0.5285
  967MOL0     C30463   3.221   6.999   6.680  0.2330 -0.2148  0.2886
  967MOL0     C30464   3.359   6.971   6.654 -0.1460  0.5792 -0.3248
  967MOL0     C30465   3.729   6.811   6.566 -0.5224 -0.0561 -1.0153
  967MOL0     C30466   3.820   6.767   6.663 -0.4017  0.5604  1.0830
  967MOL0     C30467   3.949   6.769   6.639  1.5779  0.2872 -0.1992
  967MOL0     C30468   4.010   6.824   6.526  0.0397  0.2442 -0.9472
  967MOL0     O30469   4.140   6.818   6.503  0.6905  0.5311  0.4398
  967MOL0     C30470   4.226   6.746   6.591  0.7076 -0.3394 -0.2932
  967MOL0     C30471   4.376   6.763   6.563  0.2712  0.0328 -0.2043
  967MOL0     C30472   4.397   6.733   6.409 -0.3128 -0.4978  0.2683
  967MOL0     C30473   4.542   6.750   6.362  0.1322 -0.0075 -0.4097
  967MOL0     C30474   4.634   6.674   6.437  0.5968  0.8108 -1.1701
  967MOL0     C30475   4.695   6.585   6.496  1.1150 -0.3928 -0.3542
  967MOL0     C30476   3.923   6.871   6.439  0.2366 -1.3701  0.0005
  967MOL0     C30477   3.778   6.862   6.456  0.1644  0.3143 -0.4965
  967MOL0     H30478   3.323   6.827   6.350  1.4229  0.4372 -0.0116
  967MOL0     H30479   3.084   6.888   6.391  2.4198 -5.6442 -2.3407
  967MOL0     H30480   2.988   6.931   6.807  0.0375  1.7581  1.9980
  967MOL0     H30481   2.969   7.104   6.768  0.1207  0.5313 -0.2619
  967MOL0     H30482   2.739   7.091   6.713  2.7715  0.1636 -0.4481
  967MOL0     H30483   2.747   6.916   6.701 -0.6535 -1.7281  1.0085
  967MOL0     H30484   2.682   6.888   6.911 -0.3128  0.2632  0.8048
  967MOL0     H30485   2.823   6.971   6.983 -0.1116  0.1036  0.0310
  967MOL0     H30486   2.709   7.183   6.899 -0.9126 -1.7052 -3.5390
  967MOL0     H30487   2.569   7.091   6.882  1.4801 -2.0920 -1.8502
  967MOL0     H30488   2.708   7.153   7.149 -0.7983  3.0372 -0.9764
  967MOL0     H30489   2.548   7.195   7.121  2.7622 -0.1873  3.0710
  967MOL0     H30490   2.636   6.921   7.170  1.1345 -0.6160 -3.4040
  967MOL0     H30491   2.527   7.026   7.256 -2.1219  0.7103 -1.3367
  967MOL0     H30492   2.384   7.022   7.046  1.0924  0.7270  0.3662
  967MOL0     H30493   2.468   6.876   6.988 -0.3771 -0.0301  0.5561
  967MOL0     H30494   2.422   6.768   7.221 -3.3580 -1.0764  1.3879
  967MOL0     H30495   2.301   6.763   7.112  0.8609 -1.4314  0.7130
  967MOL0     H30496   2.084   6.927   7.103 -0.0939  0.3483 -0.5762
  967MOL0     H30497   1.946   7.142   7.189  1.8778  0.8793  0.9299
  967MOL0     H30498   1.860   7.033   7.306 -1.2269  1.3143 -1.8793
  967MOL0     H30499   1.862   7.279   7.347  0.7130  1.1035  0.2427
  967MOL0     H30500   2.043   7.271   7.351 -0.1779  1.0126 -2.1703
  967MOL0     H30501   2.026   7.159   7.574  1.7336 -1.4220 -2.9290
  967MOL0     H30502   1.863   7.099   7.542  0.1176  1.2880  1.8227
  967MOL0     H30503   1.821   7.233   7.704 -0.1431 -0.9140 -0.5327
  967MOL0     H30504   1.764   7.318   7.563 -1.2796 -2.5923  1.6855
  967MOL0     H30505   2.159   7.533   7.659 -0.6946  1.2883  1.1675
  967MOL0     H30506   2.295   7.776   7.432  3.6203 -2.0152  0.8823
  967MOL0     H30507   2.244   7.829   7.598  1.7729  1.2072 -2.0934
  967MOL0     H30508   2.316   7.681   7.572  2.4236  1.5562  0.4469
  967MOL0     H30509   2.077   7.975   7.096 -0.5491  0.4077 -1.7949
  967MOL0     H30510   2.082   8.201   6.994 -1.6546  0.8984 -2.3920
  967MOL0     H30511   1.688   8.403   6.954 -0.1324  0.1555 -0.7308
  967MOL0     H30512   1.746   8.501   7.097 -1.3732  1.3566 -0.2786
  967MOL0     H30513   1.891   8.624   6.925 -0.2429 -0.2980  1.1500
  967MOL0     H30514   1.807   8.540   6.794  0.9919  2.5036 -1.3214
  967MOL0     H30515   1.664   8.700   7.000  2.0494  1.6401  0.8233
  967MOL0     H30516   1.594   8.646   6.847  2.5865  0.8053 -3.5500
  967MOL0     H30517   1.759   8.877   6.910  0.3937 -0.9086  1.0261
  967MOL0     H30518   1.818   8.796   6.772 -1.1763  1.0416 -2.3971
  967MOL0     H30519   1.610   8.850   6.636  2.7964  0.7679 -1.1043
  967MOL0     H30520   1.669   8.995   6.716  0.4576  0.1741  1.1903
  967MOL0     H30521   1.439   8.830   6.834  1.1211 -1.0356 -0.1258
  967MOL0     H30522   1.495   8.992   6.878  0.3029 -0.0863 -0.0305
  967MOL0     H30523   1.362   8.902   6.612 -2.4558 -0.5527  2.0573
  967MOL0     H30524   1.437   9.061   6.627 -2.0471  2.2407  0.8651
  967MOL0     H30525   1.211   8.920   6.785 -0.8191 -1.7438 -3.4431
  967MOL0     H30526   1.176   9.039   6.673 -0.1920  2.6779  0.2353
  967MOL0     H30527   1.712   8.297   7.176  1.7838  0.8792  3.9833
  967MOL0     H30528   1.701   8.087   7.282  0.0396  0.0224  0.3253
  967MOL0     H30529   1.791   7.720   7.381 -1.1795  1.3813  3.4941
  967MOL0     H30530   1.761   7.518   7.480  0.4295 -1.9234 -0.0493
  967MOL0     H30531   3.208   7.032   6.783  2.0370 -1.6535  1.0378
  967MOL0     H30532   3.429   7.002   6.730 -0.7331  1.6488 -0.1959
  967MOL0     H30533   3.776   6.744   6.759 -0.5502  0.6449  1.0351
  967MOL0     H30534   3.994   6.706   6.714 -1.4753  0.7089  2.1853
  967MOL0     H30535   4.208   6.782   6.693  2.5120 -0.4293  0.1050
  967MOL0     H30536   4.202   6.639   6.589 -2.4439  0.2848  0.0144
  967MOL0     H30537   4.435   6.698   6.628 -4.1199 -3.3444  0.8859
  967MOL0     H30538   4.408   6.864   6.589 -1.7639  1.1934 -1.8848
  967MOL0     H30539   4.348   6.819   6.364  0.0484  0.5303  1.7918
  967MOL0     H30540   4.361   6.632   6.383 -0.3507 -0.3695 -0.1931
  967MOL0     H30541   4.573   6.854   6.350 -4.2371  1.7178  1.0590
  967MOL0     H30542   4.548   6.716   6.258  3.0205  0.0316 -0.3364
  967MOL0     H30543   4.750   6.519   6.560 -0.3011 -0.7872  0.4819
  967MOL0     H30544   3.958   6.903   6.342  0.9444 -1.2959  0.2756
  967MOL0     H30545   3.702   6.905   6.392 -1.4314  2.1312  2.4086
  968MOL0     O30546   2.895   4.894  10.804 -0.5320 -0.6470 -0.3889
  968MOL0     C30547   2.811   4.898  10.713  1.3198 -0.7861 -0.1588
  968MOL0     O30548   2.832   4.935  10.584  0.4272 -0.7133  0.5566
  968MOL0     C30549   2.960   4.975  10.557  1.0040  0.4178  0.8880
  968MOL0     C30550   3.054   5.045  10.632  0.3663 -0.1786  0.3041
  968MOL0     C30551   3.181   5.082  10.587  0.5189 -0.6890  0.2680
  968MOL0     C30552   3.222   5.050  10.458  0.3301 -0.1674  0.5391
  968MOL0     O30553   3.347   5.066  10.412 -0.5791 -0.2214 -0.0993
  968MOL0     C30554   3.429   4.943  10.421 -0.2178 -0.0586  0.3368
  968MOL0     C30555   3.497   4.917  10.293  0.0434  0.5469 -0.3589
  968MOL0     C30556   3.590   5.026  10.247 -0.2548 -0.3436 -0.1815
  968MOL0     C30557   3.708   5.029  10.340  0.3010  0.2419  0.5081
  968MOL0     C30558   3.824   5.124  10.313  0.8161 -0.8415 -0.2927
  968MOL0     C30559   3.948   5.075  10.380  0.1973  0.0784  1.0210
  968MOL0     C30560   4.063   5.169  10.368 -0.2482  0.2222 -0.3931
  968MOL0     C30561   4.201   5.103  10.387  0.2889 -0.5146 -0.0218
  968MOL0     N30562   4.249   5.048  10.259 -0.2906  0.1344  0.4621
  968MOL0     C30563   4.370   5.099  10.199  1.3274 -0.3594 -0.0124
  968MOL0     C30564   4.383   5.020  10.088 -0.3429 -0.1105  0.2755
  968MOL0     C30565   4.493   5.022   9.989 -0.1993  0.2178  0.1990
  968MOL0     C30566   4.433   5.070   9.852 -0.3448 -0.0746  0.0973
  968MOL0     C30567   4.447   5.218   9.822  0.6703  0.4757 -0.2582
  968MOL0     C30568   4.323   5.308   9.831 -1.0461  0.2918 -0.4108
  968MOL0     O30569   4.269   5.319   9.957 -0.2069 -0.3550 -0.5868
  968MOL0     C30570   4.136   5.342   9.956  0.0950 -0.4870  0.2993
  968MOL0     C30571   4.052   5.237   9.922  0.0667 -0.0606  0.3626
  968MOL0     C30572   3.905   5.246   9.934 -0.3933 -0.8598  0.3183
  968MOL0     C30573   3.827   5.120   9.892  0.2949  1.0910  0.0203
  968MOL0     C30574   3.852   5.364   9.981 -0.1771 -1.5716 -0.2951
  968MOL0     C30575   3.708   5.396  10.012  0.0049  0.9696  0.4531
  968MOL0     O30576   3.667   5.524   9.988  0.1942 -0.2722 -0.5163
  968MOL0     C30577   3.532   5.545  10.008 -0.6339  0.0621  0.4687
  968MOL0     C30578   3.487   5.620  10.111  0.4931 -0.0771 -0.7714
  968MOL0     C30579   3.353   5.648  10.128 -0.0727  0.4322  0.1299
  968MOL0     C30580   3.259   5.587  10.040  0.2193  0.4615  1.1590
  968MOL0     O30581   3.119   5.601  10.043 -0.5370 -0.7626  0.4821
  968MOL0     C30582   3.072   5.710  10.120  0.3816 -1.0985 -1.1010
  968MOL0     C30583   2.933   5.737  10.074 -0.4082  0.1230  0.5725
  968MOL0     C30584   2.858   5.814  10.177  1.0991  0.0269 -0.1062
  968MOL0     C30585   2.706   5.829  10.149  0.1756  0.4857  0.5369
  968MOL0     C30586   2.642   5.874  10.282 -0.5453  0.4675 -0.8559
  968MOL0     C30587   2.516   5.951  10.265 -0.2191 -0.2837 -0.3350
  968MOL0     C30588   2.445   5.966  10.400 -0.4557 -0.1537 -0.9899
  968MOL0     C30589   2.321   6.048  10.364  0.6699  0.0666 -0.1821
  968MOL0    Cl30590   2.220   6.071  10.514 -0.4413  0.2116 -0.1808
  968MOL0     C30591   3.308   5.522   9.926 -0.8182 -0.5891 -1.1458
  968MOL0     C30592   3.446   5.490   9.913 -0.8091  0.9779  0.0468
  968MOL0     O30593   3.634   5.303  10.050  0.2211  0.5801  0.5996
  968MOL0     C30594   3.944   5.475  10.007  0.0456  0.0727  0.7328
  968MOL0     C30595   4.084   5.464   9.991  0.6176  0.7970 -0.4505
  968MOL0     N30596   4.290   4.919  10.091  0.7130 -0.2894 -0.4164
  968MOL0     N30597   4.218   4.929  10.197  0.6230 -0.3095  0.1347
  968MOL0     C30598   3.124   4.995  10.378 -0.0619 -0.6141  0.0948
  968MOL0     C30599   2.997   4.960  10.415  0.1200 -0.2733 -0.0098
  968MOL0     C30600   2.672   4.858  10.746  1.0574  0.7883 -0.0467
  968MOL0     C30601   2.565   4.908  10.662 -0.8962  0.0030  0.2798
  968MOL0     C30602   2.428   4.876  10.689  1.4880 -0.1502  0.4682
  968MOL0     C30603   2.393   4.794  10.795  0.0443 -0.1142  0.6645
  968MOL0     O30604   2.258   4.786  10.820  0.2334 -0.8229  0.2331
  968MOL0     C30605   2.210   4.676  10.905 -0.6443 -0.8730 -0.5420
  968MOL0     C30606   2.067   4.719  10.958 -0.9824 -0.0343 -0.2670
  968MOL0     C30607   1.964   4.727  10.833  0.4279  0.2229 -0.0136
  968MOL0     C30608   1.817   4.760  10.886  0.3917 -0.1514 -0.3039
  968MOL0     C30609   1.804   4.881  10.967  0.1769 -0.0221  0.3997
  968MOL0     C30610   1.794   4.983  11.028 -0.8682 -0.6020  0.0068
  968MOL0     C30611   2.494   4.738  10.870 -1.0350  0.3212 -0.9301
  968MOL0     C30612   2.629   4.774  10.853 -0.5310  0.2450 -0.5679
  968MOL0     H30613   3.034   5.071  10.736 -0.7789  2.7802 -0.5568
  968MOL0     H30614   3.247   5.125  10.661 -1.7941 -1.5565  3.0206
  968MOL0     H30615   3.503   4.949  10.502 -0.8828  0.5574  0.9124
  968MOL0     H30616   3.366   4.855  10.437 -1.1855  0.7045  0.8667
  968MOL0     H30617   3.539   4.816  10.291 -0.9252  0.1423 -1.8062
  968MOL0     H30618   3.415   4.919  10.221 -0.4414 -3.9765 -0.2586
  968MOL0     H30619   3.619   5.016  10.142 -0.6544 -1.7123 -0.1766
  968MOL0     H30620   3.536   5.122  10.248  2.0224  0.9981  0.3131
  968MOL0     H30621   3.675   5.048  10.443 -1.6258  0.1632 -0.0614
  968MOL0     H30622   3.737   4.924  10.345 -2.6550 -0.6302  1.3545
  968MOL0     H30623   3.837   5.131  10.205 -0.3728 -1.2200 -0.4769
  968MOL0     H30624   3.795   5.222  10.352 -0.5180 -1.1641 -0.4282
  968MOL0     H30625   3.923   5.055  10.485  1.4555  2.7030  1.8955
  968MOL0     H30626   3.981   4.981  10.334  1.3503  1.1390 -0.4325
  968MOL0     H30627   4.056   5.221  10.272 -0.3998  0.0391 -0.4810
  968MOL0     H30628   4.062   5.248  10.444  1.3625  0.9998 -1.1369
  968MOL0     H30629   4.221   5.027  10.464  2.2689  1.9157  2.0286
  968MOL0     H30630   4.279   5.176  10.409 -0.2911  0.3330 -0.7233
  968MOL0     H30631   4.436   5.172  10.244 -2.2789  3.6580 -0.5672
  968MOL0     H30632   4.569   5.098  10.010 -0.1166  0.1572  0.1171
  968MOL0     H30633   4.546   4.927   9.991 -0.9413 -0.1954  1.6917
  968MOL0     H30634   4.325   5.052   9.847 -0.2182 -1.0412  0.5266
  968MOL0     H30635   4.475   5.007   9.772 -0.4766  0.3801 -0.3314
  968MOL0     H30636   4.478   5.224   9.717  2.3927  2.7021  0.2800
  968MOL0     H30637   4.526   5.280   9.867 -2.2686  3.7832  0.8248
  968MOL0     H30638   4.247   5.274   9.759 -2.5916  2.9380 -0.1679
  968MOL0     H30639   4.358   5.407   9.799  1.5467  0.4095  2.3998
  968MOL0     H30640   4.095   5.140   9.901  0.5319  0.2973 -0.4126
  968MOL0     H30641   3.729   5.110   9.939 -1.3190 -2.3538 -3.4577
  968MOL0     H30642   3.819   5.128   9.783  0.3942  0.0309 -0.0807
  968MOL0     H30643   3.890   5.035   9.921 -3.3181 -1.4780  1.0167
  968MOL0     H30644   3.558   5.673  10.173 -2.0238  0.9420  1.4271
  968MOL0     H30645   3.319   5.702  10.216  0.1793 -1.7071  1.6060
  968MOL0     H30646   3.085   5.700  10.228 -0.1328  2.6774 -0.5443
  968MOL0     H30647   3.117   5.808  10.100 -0.1053 -0.3370  1.2382
  968MOL0     H30648   2.931   5.795   9.981 -0.9703  1.5508  1.4383
  968MOL0     H30649   2.889   5.637  10.063  1.9695 -1.1168  1.5417
  968MOL0     H30650   2.898   5.915  10.177 -2.1345  1.4198  1.0143
  968MOL0     H30651   2.862   5.771  10.278 -0.2925 -0.4414 -0.2327
  968MOL0     H30652   2.682   5.899  10.069  1.5434 -0.7491 -1.0259
  968MOL0     H30653   2.668   5.734  10.109 -3.3772  1.0574  2.1284
  968MOL0     H30654   2.708   5.934  10.346 -1.7370  0.1826  0.7106
  968MOL0     H30655   2.630   5.779  10.336  1.4644  0.3780 -0.4863
  968MOL0     H30656   2.535   6.043  10.210  2.4622 -0.2615  0.4773
  968MOL0     H30657   2.447   5.896  10.199  0.8252 -1.2312 -0.6728
  968MOL0     H30658   2.515   6.014  10.468  1.2980 -1.9708 -1.4295
  968MOL0     H30659   2.422   5.863  10.430  1.1505 -0.4377 -0.6349
  968MOL0     H30660   2.258   5.992  10.294  2.4712  1.2279 -2.8847
  968MOL0     H30661   2.343   6.148  10.327 -2.9651  1.1111  0.0286
  968MOL0     H30662   3.240   5.480   9.853 -1.1966 -3.4843  0.7125
  968MOL0     H30663   3.481   5.434   9.827 -2.9128  0.3833 -0.4898
  968MOL0     H30664   3.905   5.571  10.038  1.6553  0.3209  2.1652
  968MOL0     H30665   4.158   5.543   9.994  0.1841  1.2138  2.6115
  968MOL0     H30666   3.154   4.997  10.274 -0.5491  1.2660 -0.0462
  968MOL0     H30667   2.928   4.919  10.342  1.7681 -0.8881 -1.2866
  968MOL0     H30668   2.591   4.981  10.587 -5.3443 -0.0924 -1.7105
  968MOL0     H30669   2.350   4.920  10.627  2.0725  0.1286 -0.0832
  968MOL0     H30670   2.212   4.583  10.848  0.4884 -1.0344 -0.2573
  968MOL0     H30671   2.264   4.660  10.998  0.3320  0.6598 -0.8037
  968MOL0     H30672   2.081   4.809  11.019 -0.8178 -1.3052  1.6560
  968MOL0     H30673   2.023   4.638  11.017 -0.1928  0.3508  0.8777
  968MOL0     H30674   1.960   4.634  10.775  0.0045  1.3146 -1.8192
  968MOL0     H30675   2.000   4.805  10.766 -0.7105 -1.8103 -3.2705
  968MOL0     H30676   1.775   4.681  10.950 -1.1668  0.7473 -0.1664
  968MOL0     H30677   1.744   4.779  10.807  1.3855 -2.0346 -1.7798
  968MOL0     H30678   1.774   5.068  11.091 -4.7120 -2.4494  1.5794
  968MOL0     H30679   2.471   4.678  10.957  3.2605  0.3852  0.5048
  968MOL0     H30680   2.704   4.736  10.922 -0.6148  3.9124  1.8038
  969MOL0     O30681   9.377   7.740   8.254 -0.3736 -0.0076  0.1000
  969MOL0     C30682   9.454   7.832   8.224 -0.4199  0.7855 -0.8876
  969MOL0     O30683   9.423   7.957   8.190  0.0067 -0.5486  0.9131
  969MOL0     C30684   9.304   7.983   8.122  0.1473 -0.4471 -0.9583
  969MOL0     C30685   9.193   8.016   8.199 -0.7785 -0.2724  0.2855
  969MOL0     C30686   9.071   8.032   8.146  0.4606 -0.4996  0.1309
  969MOL0     C30687   9.051   8.029   8.011  0.1303  0.1980  0.1016
  969MOL0     O30688   8.923   8.041   7.970  1.1798  0.1910 -1.0526
  969MOL0     C30689   8.889   8.021   7.833 -0.2079  0.0902 -0.1132
  969MOL0     C30690   8.742   7.997   7.825  0.1040 -0.1066  0.8005
  969MOL0     C30691   8.694   7.870   7.906  0.1049  0.0841  0.0050
  969MOL0     C30692   8.544   7.869   7.924  0.3536  0.2570 -0.4703
  969MOL0     C30693   8.503   7.738   8.007  0.1091 -0.6787 -0.3307
  969MOL0     C30694   8.386   7.755   8.099  0.2084  0.3987 -0.2234
  969MOL0     C30695   8.314   7.624   8.134 -1.2696 -0.4611  0.0435
  969MOL0     C30696   8.186   7.655   8.202 -0.7650  0.8871 -0.4317
  969MOL0     N30697   8.083   7.713   8.122  0.3706  0.0566 -0.6466
  969MOL0     C30698   8.035   7.648   8.018 -0.4127 -0.0819  0.5864
  969MOL0     C30699   7.982   7.744   7.934 -0.0911  0.3232 -0.7365
  969MOL0     C30700   7.947   7.718   7.794 -0.3339 -0.7732  0.8430
  969MOL0     C30701   7.834   7.616   7.769  0.9464  0.8320 -0.1143
  969MOL0     C30702   7.698   7.681   7.804 -0.3908  0.7501  0.0234
  969MOL0     C30703   7.577   7.596   7.759  0.0195 -0.1579  0.1951
  969MOL0     O30704   7.553   7.469   7.822  0.5692 -0.0178  0.6790
  969MOL0     C30705   7.495   7.467   7.944  1.4494 -0.0788 -0.3033
  969MOL0     C30706   7.463   7.337   7.998  0.3604 -0.5104  0.7125
  969MOL0     C30707   7.371   7.330   8.096 -0.2279 -0.2957 -1.1245
  969MOL0     C30708   7.355   7.193   8.152 -0.5926  0.0529  0.7696
  969MOL0     C30709   7.325   7.448   8.164 -0.3687  0.2352 -0.2316
  969MOL0     C30710   7.221   7.450   8.271  0.1596  0.4177 -0.0766
  969MOL0     O30711   7.114   7.360   8.259  0.0393 -0.2276 -0.6410
  969MOL0     C30712   7.000   7.353   8.333 -0.2193  0.5678  0.1003
  969MOL0     C30713   6.928   7.239   8.298 -0.0612  0.2591  0.4389
  969MOL0     C30714   6.797   7.211   8.349  0.1285 -0.5080  0.6294
  969MOL0     C30715   6.752   7.296   8.463 -0.3735 -0.4269  0.2174
  969MOL0     O30716   6.632   7.280   8.525  0.4393  1.0459 -0.0960
  969MOL0     C30717   6.642   7.242   8.665 -0.0027 -0.0014  0.6378
  969MOL0     C30718   6.527   7.160   8.705  0.5698  0.2202 -0.0301
  969MOL0     C30719   6.401   7.252   8.685  0.0866 -1.0912  0.2994
  969MOL0     C30720   6.273   7.169   8.696  0.2289  0.1381 -0.1992
  969MOL0     C30721   6.151   7.245   8.710  0.7802 -0.5030 -0.1110
  969MOL0     C30722   6.037   7.148   8.698  0.6349 -0.2456  0.0405
  969MOL0     C30723   5.909   7.213   8.725 -0.2275  0.0385 -0.3891
  969MOL0     C30724   5.799   7.136   8.664  0.0513 -0.1529 -0.6048
  969MOL0    Cl30725   5.713   7.021   8.778  0.1652 -0.3891  0.2147
  969MOL0     C30726   6.832   7.407   8.494 -0.3508  0.2953 -0.5393
  969MOL0     C30727   6.949   7.443   8.428 -0.1639 -0.8112 -0.3763
  969MOL0     O30728   7.227   7.543   8.353  0.3648  0.3905  0.8964
  969MOL0     C30729   7.386   7.570   8.134 -0.7749 -0.3996  0.7475
  969MOL0     C30730   7.465   7.586   8.014 -0.1771 -0.1909 -0.4842
  969MOL0     N30731   7.986   7.862   8.003 -0.4099 -0.2562  0.0335
  969MOL0     N30732   8.054   7.844   8.118  0.5309  0.6125 -0.1136
  969MOL0     C30733   9.162   7.996   7.932  0.5656  0.3717 -0.0486
  969MOL0     C30734   9.290   7.975   7.990 -0.6909 -1.3689 -0.4205
  969MOL0     C30735   9.589   7.812   8.271  0.0109  0.8880 -0.5549
  969MOL0     C30736   9.685   7.916   8.254  0.4864  0.6392 -0.0704
  969MOL0     C30737   9.819   7.902   8.283 -0.1335  0.4322  0.0503
  969MOL0     C30738   9.854   7.775   8.335 -0.0689 -0.1448  0.0032
  969MOL0     O30739   9.973   7.751   8.387 -0.5511 -0.2014  0.5445
  969MOL0     C30740  10.082   7.749   8.292  0.0227  0.3906 -0.5163
  969MOL0     C30741  10.208   7.680   8.337  0.4202 -0.2840  0.0649
  969MOL0     C30742  10.171   7.534   8.376  0.0080  0.2559 -0.0427
  969MOL0     C30743  10.106   7.516   8.514 -0.8486  0.5158 -0.1464
  969MOL0     C30744  10.108   7.372   8.553  0.0100 -0.1454 -0.5567
  969MOL0     C30745  10.122   7.257   8.585  0.0503  0.1342  0.3960
  969MOL0     C30746   9.760   7.673   8.354 -0.3932 -0.1266  0.3117
  969MOL0     C30747   9.632   7.690   8.316 -0.4933 -0.5493  0.6589
  969MOL0     H30748   9.195   8.020   8.307 -0.9791 -0.7250  0.3073
  969MOL0     H30749   8.985   8.030   8.212  1.5289 -1.3284  1.5752
  969MOL0     H30750   8.914   8.106   7.768  0.3916 -0.1460 -0.1929
  969MOL0     H30751   8.942   7.927   7.817 -1.1770 -0.7727  1.4512
  969MOL0     H30752   8.704   8.083   7.881  2.7293  0.1333  2.3645
  969MOL0     H30753   8.703   7.992   7.723  1.3413  1.0356  0.2302
  969MOL0     H30754   8.712   7.781   7.845 -1.1621  0.9478 -1.7151
  969MOL0     H30755   8.742   7.875   8.004 -0.1955 -2.2944  0.3285
  969MOL0     H30756   8.509   7.949   7.989 -1.9348 -0.9467 -0.1339
  969MOL0     H30757   8.494   7.867   7.827  0.1833 -2.8500 -0.4293
  969MOL0     H30758   8.483   7.663   7.931  1.1581 -0.7433 -0.5506
  969MOL0     H30759   8.585   7.708   8.073 -0.4974 -0.7346  0.4189
  969MOL0     H30760   8.423   7.811   8.186 -1.9164 -0.2143  1.1515
  969MOL0     H30761   8.310   7.811   8.045  0.5717  0.2738 -0.8672
  969MOL0     H30762   8.300   7.578   8.036  1.4361  0.7782 -1.0266
  969MOL0     H30763   8.377   7.556   8.192 -2.1058 -0.1351  1.4089
  969MOL0     H30764   8.205   7.716   8.291 -0.1082 -0.6443  0.5237
  969MOL0     H30765   8.154   7.558   8.241  3.6680 -1.6819 -2.4524
  969MOL0     H30766   8.044   7.544   7.987 -2.6472 -0.1031 -0.2140
  969MOL0     H30767   7.921   7.802   7.729  1.5977  0.7392  1.9360
  969MOL0     H30768   8.041   7.688   7.747 -0.8428  0.1626 -0.8452
  969MOL0     H30769   7.849   7.523   7.825 -1.2696 -0.6074 -1.7675
  969MOL0     H30770   7.829   7.590   7.663 -1.5769  0.9391 -0.0785
  969MOL0     H30771   7.687   7.782   7.763 -0.3845  0.0225 -1.8791
  969MOL0     H30772   7.693   7.701   7.911 -0.0556  0.2561  0.1338
  969MOL0     H30773   7.600   7.562   7.658 -0.6878  0.5362 -0.2033
  969MOL0     H30774   7.490   7.660   7.744 -0.3824 -1.2685 -2.7511
  969MOL0     H30775   7.498   7.248   7.945 -4.4915 -1.2485 -1.8443
  969MOL0     H30776   7.260   7.157   8.195  0.0097 -2.8786 -0.1135
  969MOL0     H30777   7.354   7.127   8.065  1.9161 -1.0726  1.5054
  969MOL0     H30778   7.438   7.176   8.221 -0.3186  0.7588  0.6106
  969MOL0     H30779   6.977   7.162   8.240  0.1647  0.9240 -0.2691
  969MOL0     H30780   6.748   7.120   8.318  1.3079 -1.1995  0.7547
  969MOL0     H30781   6.732   7.185   8.690 -0.0256 -0.5355 -0.4387
  969MOL0     H30782   6.646   7.327   8.734  1.6651  0.4251  0.0717
  969MOL0     H30783   6.525   7.077   8.633  0.9757  1.3516 -1.4003
  969MOL0     H30784   6.534   7.127   8.809 -0.2012  0.4764  0.1116
  969MOL0     H30785   6.408   7.309   8.592 -1.8278  2.3587  2.0932
  969MOL0     H30786   6.393   7.325   8.766 -0.4693 -1.1445  0.2920
  969MOL0     H30787   6.261   7.113   8.603 -0.3388  2.6446 -1.7534
  969MOL0     H30788   6.293   7.087   8.766 -1.4833 -2.0571 -2.1380
  969MOL0     H30789   6.146   7.326   8.637  3.8829  2.8831  2.9833
  969MOL0     H30790   6.152   7.300   8.805  1.8609  0.3314 -0.5764
  969MOL0     H30791   6.029   7.097   8.601 -2.2277  0.4326 -0.1631
  969MOL0     H30792   6.045   7.059   8.761  1.8262 -1.3949 -1.6423
  969MOL0     H30793   5.897   7.314   8.684 -0.9340 -0.5154 -1.5816
  969MOL0     H30794   5.882   7.211   8.832  0.5606 -1.4736 -0.1904
  969MOL0     H30795   5.834   7.092   8.570  0.6103 -0.4647 -0.2559
  969MOL0     H30796   5.723   7.209   8.635  2.5148  2.5167 -0.7284
  969MOL0     H30797   6.787   7.478   8.564 -0.8256 -0.3100 -0.2104
  969MOL0     H30798   6.999   7.532   8.466 -0.6328  0.3279 -2.3144
  969MOL0     H30799   7.366   7.662   8.187 -0.1902 -0.1404  0.5343
  969MOL0     H30800   7.495   7.685   7.981  1.7303  0.1288  1.8889
  969MOL0     H30801   9.159   7.992   7.824  1.6696 -1.3448 -0.0440
  969MOL0     H30802   9.387   7.963   7.943 -0.9185  0.9901 -1.6197
  969MOL0     H30803   9.675   8.011   8.203  2.1187  1.6814  1.4095
  969MOL0     H30804   9.880   7.991   8.272  2.2284 -1.4060 -3.4751
  969MOL0     H30805  10.055   7.705   8.196  2.0483 -3.2143  0.4054
  969MOL0     H30806  10.117   7.852   8.281 -0.7751  0.9148  1.3299
  969MOL0     H30807  10.260   7.735   8.416  2.6306  1.4343 -2.4067
  969MOL0     H30808  10.272   7.683   8.248  1.4472 -3.7872  0.4993
  969MOL0     H30809  10.270   7.492   8.396 -0.2168 -0.8342 -1.1440
  969MOL0     H30810  10.122   7.475   8.299  0.9452 -2.4645  1.3159
  969MOL0     H30811  10.004   7.556   8.513 -1.4243 -0.8745 -0.8400
  969MOL0     H30812  10.163   7.572   8.588 -1.2637  2.0713 -0.9532
  969MOL0     H30813  10.141   7.161   8.629  2.0092  1.2571  2.1691
  969MOL0     H30814   9.775   7.575   8.398 -1.9787  0.5413  2.5731
  969MOL0     H30815   9.562   7.610   8.336 -0.6257 -0.2500  1.4713
  970MOL0     O30816   4.956   7.742   5.505  0.8414 -0.2775 -0.3774
  970MOL0     C30817   5.001   7.689   5.406  0.4149  0.3544  0.1073
  970MOL0     O30818   4.936   7.601   5.318  0.1160 -0.2128  0.4086
  970MOL0     C30819   4.800   7.578   5.337  0.3527  0.1395  0.2919
  970MOL0     C30820   4.758   7.447   5.338 -0.4571 -0.8313  0.3068
  970MOL0     C30821   4.633   7.412   5.383  1.1334  0.5135 -0.4356
  970MOL0     C30822   4.533   7.501   5.405  0.8504 -0.4499  0.0545
  970MOL0     O30823   4.408   7.460   5.446 -0.1382  0.8456 -0.0742
  970MOL0     C30824   4.367   7.498   5.581 -0.7184 -0.2232 -0.2459
  970MOL0     C30825   4.216   7.484   5.604  0.7928 -0.1239  0.6847
  970MOL0     C30826   4.153   7.619   5.577 -0.3836  0.7016 -0.0108
  970MOL0     C30827   4.007   7.615   5.593 -0.1164 -0.0785  0.6606
  970MOL0     C30828   3.948   7.755   5.548  0.3920 -1.1170  0.0421
  970MOL0     C30829   3.805   7.733   5.491  0.7458 -0.4929  0.2574
  970MOL0     C30830   3.755   7.852   5.398 -0.5802 -0.1381 -0.1767
  970MOL0     C30831   3.601   7.849   5.396  0.0666 -0.1708 -0.4299
  970MOL0     N30832   3.536   7.760   5.293 -0.8970 -1.1475  0.0202
  970MOL0     C30833   3.454   7.662   5.327  0.3954  0.0646  0.2443
  970MOL0     C30834   3.449   7.578   5.221  0.9019 -1.3540  0.0150
  970MOL0     C30835   3.357   7.461   5.221 -1.1504 -0.2218 -0.4890
  970MOL0     C30836   3.213   7.498   5.183 -0.0544  0.2508 -0.1869
  970MOL0     C30837   3.130   7.541   5.303  0.8018 -0.0048  0.5470
  970MOL0     C30838   2.979   7.535   5.275 -0.2829  0.0730  0.1683
  970MOL0     O30839   2.924   7.610   5.394  0.0359  0.1120  0.9502
  970MOL0     C30840   2.785   7.613   5.422  0.0816 -1.1725  0.0203
  970MOL0     C30841   2.747   7.707   5.522  0.4656  0.4081 -0.3248
  970MOL0     C30842   2.613   7.730   5.555 -0.6096 -0.7308 -1.1594
  970MOL0     C30843   2.594   7.822   5.669 -0.1261  0.1420 -0.0636
  970MOL0     C30844   2.510   7.663   5.484 -0.2427 -0.1340  0.1893
  970MOL0     C30845   2.364   7.681   5.506  0.2161 -0.3771  0.4731
  970MOL0     O30846   2.287   7.627   5.407 -0.0282  0.2087 -0.0900
  970MOL0     C30847   2.150   7.596   5.443 -0.9831  0.3730  0.0721
  970MOL0     C30848   2.071   7.566   5.335  0.7895 -0.3390 -0.2573
  970MOL0     C30849   1.936   7.545   5.350 -0.4097 -0.7939 -0.3016
  970MOL0     C30850   1.877   7.553   5.479  0.0288 -0.0221  1.4385
  970MOL0     O30851   1.744   7.542   5.478  0.5729  0.3205  0.5642
  970MOL0     C30852   1.672   7.602   5.586 -0.5073  0.6064  0.2689
  970MOL0     C30853   1.526   7.593   5.555 -0.6975  0.8732 -1.0027
  970MOL0     C30854   1.433   7.595   5.679  0.4816  0.0945 -0.1335
  970MOL0     C30855   1.346   7.477   5.722  0.5763  0.3338  0.0899
  970MOL0     C30856   1.262   7.525   5.841  0.0870 -0.4649  0.4188
  970MOL0     C30857   1.160   7.414   5.896 -0.1990 -0.8126  0.9788
  970MOL0     C30858   1.076   7.468   6.017 -0.1845 -0.5649 -0.3281
  970MOL0     C30859   0.971   7.568   5.967  0.1846 -0.5315  0.1848
  970MOL0    Cl30860   0.872   7.584   6.116  0.1709  0.3375  0.3560
  970MOL0     C30861   1.958   7.567   5.587  0.1011  0.7891  0.1986
  970MOL0     C30862   2.102   7.582   5.578  0.7867  0.9937  0.1375
  970MOL0     O30863   2.327   7.771   5.590  0.9355 -0.1736  0.1706
  970MOL0     C30864   2.555   7.576   5.381 -0.1072  0.2263  0.0495
  970MOL0     C30865   2.685   7.554   5.349  0.1323  0.2453 -0.0298
  970MOL0     N30866   3.527   7.622   5.120  0.3080 -0.1630 -0.0517
  970MOL0     N30867   3.599   7.721   5.171 -0.3148  0.4873  0.1675
  970MOL0     C30868   4.563   7.640   5.388  0.3454  0.0280  0.5473
  970MOL0     C30869   4.697   7.671   5.357 -0.0359  0.0429  1.4064
  970MOL0     C30870   5.141   7.737   5.384  0.1248 -0.9791 -0.1979
  970MOL0     C30871   5.234   7.649   5.335 -0.4777  0.4979  1.4445
  970MOL0     C30872   5.363   7.693   5.320 -0.6294 -0.4032  1.0206
  970MOL0     C30873   5.409   7.824   5.329  0.7583  0.2567 -0.0344
  970MOL0     O30874   5.536   7.875   5.296 -0.0995  0.3421 -0.9665
  970MOL0     C30875   5.611   7.806   5.198  0.0787  0.2734 -0.3708
  970MOL0     C30876   5.714   7.894   5.131  0.0048  0.1412 -0.3889
  970MOL0     C30877   5.805   7.822   5.037 -0.1677 -0.4445  0.1110
  970MOL0     C30878   5.865   7.891   4.919 -0.3863  0.1623 -0.1543
  970MOL0     C30879   5.768   7.940   4.823 -0.8791  0.7300 -0.2775
  970MOL0     C30880   5.682   7.979   4.749 -0.2249  0.3926 -0.3296
  970MOL0     C30881   5.307   7.912   5.378 -0.3718  0.9629 -0.1886
  970MOL0     C30882   5.182   7.869   5.408 -0.0644  0.8061  0.3494
  970MOL0     H30883   4.829   7.372   5.304 -0.5861 -0.3575 -1.0645
  970MOL0     H30884   4.600   7.311   5.361 -0.3717  1.0085 -0.5493
  970MOL0     H30885   4.416   7.435   5.655  1.4692 -0.9841 -2.2072
  970MOL0     H30886   4.406   7.597   5.603 -0.5194 -0.1994 -0.6862
  970MOL0     H30887   4.168   7.404   5.548 -0.6962 -1.8329  4.0817
  970MOL0     H30888   4.195   7.444   5.704  1.3271 -0.6212  0.6041
  970MOL0     H30889   4.197   7.687   5.650 -2.3269  1.2239  0.7383
  970MOL0     H30890   4.179   7.659   5.479  0.4904  2.8155  1.0235
  970MOL0     H30891   3.968   7.528   5.538  0.3864 -0.4665  0.9154
  970MOL0     H30892   3.975   7.592   5.695 -1.6751 -1.4848 -0.0954
  970MOL0     H30893   3.958   7.826   5.630  4.9315 -2.6416  1.1097
  970MOL0     H30894   3.995   7.794   5.457 -1.9569  0.0100 -0.7886
  970MOL0     H30895   3.815   7.646   5.426  0.2701  0.4583 -1.1240
  970MOL0     H30896   3.737   7.713   5.575 -0.0015  2.4774  0.4590
  970MOL0     H30897   3.781   7.943   5.452 -1.1867 -0.3880  0.5593
  970MOL0     H30898   3.790   7.852   5.294  1.2309  1.2860  0.3874
  970MOL0     H30899   3.574   7.952   5.374 -0.2349 -0.1623 -0.0502
  970MOL0     H30900   3.564   7.824   5.497 -0.9882 -1.8490 -1.1795
  970MOL0     H30901   3.398   7.642   5.418 -1.4315 -2.0315 -1.2314
  970MOL0     H30902   3.398   7.392   5.146 -1.3944 -0.7873 -0.1102
  970MOL0     H30903   3.365   7.403   5.313  0.2396  1.0374  0.2132
  970MOL0     H30904   3.159   7.409   5.148  0.1010  0.1166 -0.0866
  970MOL0     H30905   3.210   7.565   5.097 -0.0253 -0.5136 -0.7958
  970MOL0     H30906   3.138   7.648   5.329 -0.9987  0.7348 -1.6091
  970MOL0     H30907   3.171   7.483   5.386 -0.1572 -0.0011  1.0410
  970MOL0     H30908   2.948   7.430   5.273 -1.7620  0.4880 -0.9470
  970MOL0     H30909   2.940   7.588   5.187  2.0010  2.4206  0.4438
  970MOL0     H30910   2.826   7.764   5.569 -0.0736  0.0941  1.0224
  970MOL0     H30911   2.684   7.871   5.707  0.1658  0.7912 -1.5323
  970MOL0     H30912   2.535   7.906   5.630  0.1240 -1.3010 -3.9057
  970MOL0     H30913   2.544   7.766   5.749 -1.3543 -0.7986 -1.4259
  970MOL0     H30914   2.123   7.577   5.240 -1.2903 -0.8757 -1.5273
  970MOL0     H30915   1.862   7.524   5.273 -0.6779 -0.7576 -0.0569
  970MOL0     H30916   1.703   7.548   5.676 -0.8235  0.0386  0.0461
  970MOL0     H30917   1.706   7.705   5.589  0.6160  0.2419  0.3556
  970MOL0     H30918   1.498   7.678   5.492 -1.1862  2.5393  1.2964
  970MOL0     H30919   1.498   7.499   5.507 -3.3073  2.3642 -2.6467
  970MOL0     H30920   1.366   7.678   5.652  1.5221 -0.1422 -4.1798
  970MOL0     H30921   1.493   7.616   5.767 -0.4274 -0.5608  0.6699
  970MOL0     H30922   1.276   7.444   5.645 -2.7815 -1.7566  3.6715
  970MOL0     H30923   1.400   7.392   5.765 -1.5366 -1.1016  0.0272
  970MOL0     H30924   1.207   7.610   5.800  0.8716  1.0859  2.3931
  970MOL0     H30925   1.331   7.563   5.917 -0.5395  1.6463 -0.0106
  970MOL0     H30926   1.084   7.388   5.821 -1.5535  1.0946  1.6104
  970MOL0     H30927   1.225   7.334   5.933  1.0554  0.2374  1.1183
  970MOL0     H30928   1.140   7.517   6.091 -0.3870 -1.3277  0.3622
  970MOL0     H30929   1.035   7.384   6.073 -1.2734 -0.0201 -0.2754
  970MOL0     H30930   0.905   7.527   5.891  0.4117  0.0354 -0.3219
  970MOL0     H30931   1.014   7.658   5.923  1.3165 -1.8632 -1.6144
  970MOL0     H30932   1.915   7.560   5.687  0.1972 -5.1170  0.1955
  970MOL0     H30933   2.168   7.609   5.660 -0.7932 -1.2393  2.2652
  970MOL0     H30934   2.482   7.520   5.324  1.7073  1.9140 -4.3960
  970MOL0     H30935   2.715   7.503   5.259  0.8259 -1.0767  0.9079
  970MOL0     H30936   4.494   7.722   5.400  0.9977  0.5592  0.7763
  970MOL0     H30937   4.731   7.774   5.351  0.4107 -0.1308  0.8181
  970MOL0     H30938   5.188   7.552   5.319  3.0602 -1.3446  1.4359
  970MOL0     H30939   5.430   7.618   5.281  0.0527 -0.0531  1.4953
  970MOL0     H30940   5.654   7.722   5.254 -1.5634  0.5675  1.4727
  970MOL0     H30941   5.542   7.762   5.126 -0.0212  0.4201 -0.3658
  970MOL0     H30942   5.786   7.936   5.202  0.4483 -1.0084 -0.1492
  970MOL0     H30943   5.660   7.975   5.081  0.7049  0.8171 -0.0701
  970MOL0     H30944   5.746   7.736   5.003 -1.1352  0.0845  0.4066
  970MOL0     H30945   5.882   7.792   5.108 -0.0333  0.4372  0.3438
  970MOL0     H30946   5.945   7.835   4.871 -0.5816 -1.5755  1.4392
  970MOL0     H30947   5.906   7.983   4.962  1.4964 -0.1987 -1.0882
  970MOL0     H30948   5.595   8.018   4.700 -2.3212 -1.5050  1.6756
  970MOL0     H30949   5.334   8.017   5.383 -0.7206  1.0513 -0.1522
  970MOL0     H30950   5.119   7.946   5.450 -1.5455 -0.6441  0.8751
  971MOL0     O30951   3.231   4.255  10.514 -0.0442 -0.1457  0.0309
  971MOL0     C30952   3.335   4.216  10.465 -0.0034 -0.4668 -0.1038
  971MOL0     O30953   3.354   4.136  10.355  0.1266 -0.1017  0.0575
  971MOL0     C30954   3.231   4.086  10.316  0.0860 -0.0076  0.8867
  971MOL0     C30955   3.170   4.123  10.196 -0.4787  0.0890  0.3633
  971MOL0     C30956   3.044   4.077  10.159 -0.5379 -0.2025  0.6896
  971MOL0     C30957   2.978   3.980  10.226 -0.1775 -0.2545 -0.0037
  971MOL0     O30958   2.860   3.924  10.192  0.2657  0.0696 -1.0465
  971MOL0     C30959   2.834   3.906  10.055  0.7799  0.3305  0.8737
  971MOL0     C30960   2.753   3.787  10.042 -0.2973  0.9525 -0.2355
  971MOL0     C30961   2.736   3.752   9.900 -1.0676 -0.3022 -0.3927
  971MOL0     C30962   2.687   3.608   9.879 -0.0823 -0.1689 -0.0209
  971MOL0     C30963   2.658   3.554   9.735  0.0158  0.3699 -0.6549
  971MOL0     C30964   2.519   3.615   9.688  0.0927 -0.7750  0.5249
  971MOL0     C30965   2.494   3.559   9.553  0.0147 -0.4391 -0.4314
  971MOL0     C30966   2.363   3.602   9.491  0.5816 -0.3722  0.1066
  971MOL0     N30967   2.264   3.537   9.575  0.5334 -0.8521  0.7838
  971MOL0     C30968   2.199   3.415   9.546 -0.0764  0.2267  0.0344
  971MOL0     C30969   2.086   3.421   9.616  0.1696  0.3421  0.0730
  971MOL0     C30970   1.978   3.317   9.597 -0.3104  0.6599 -0.2200
  971MOL0     C30971   1.875   3.360   9.488  0.6157  0.1976 -0.1540
  971MOL0     C30972   1.758   3.256   9.490 -0.4328  0.5296  0.1788
  971MOL0     C30973   1.649   3.276   9.598  0.6202  0.2346  0.7783
  971MOL0     O30974   1.578   3.393   9.573  0.0141  0.4626 -0.8498
  971MOL0     C30975   1.447   3.395   9.599  0.6475  0.2051  0.0793
  971MOL0     C30976   1.375   3.497   9.544 -0.0642  0.1104 -0.5102
  971MOL0     C30977   1.242   3.519   9.567  0.2698  0.4917 -0.3291
  971MOL0     C30978   1.177   3.648   9.524  0.7400  0.0104  0.4818
  971MOL0     C30979   1.167   3.421   9.651 -0.4516 -0.2384  1.1594
  971MOL0     C30980   1.027   3.437   9.690 -0.5101  0.6065  0.0212
  971MOL0     O30981   0.954   3.543   9.645  0.4356 -0.4600  0.1450
  971MOL0     C30982   0.839   3.594   9.698 -0.1420 -0.4247 -0.3813
  971MOL0     C30983   0.786   3.570   9.833  0.4969  0.2289 -0.0638
  971MOL0     C30984   0.676   3.643   9.884 -0.4626 -0.4823  0.0805
  971MOL0     C30985   0.616   3.746   9.810 -0.1176 -0.1687  0.4635
  971MOL0     O30986   0.516   3.817   9.871  0.2446 -0.1956  0.8343
  971MOL0     C30987   0.422   3.889   9.770 -0.4536 -0.0454 -1.4755
  971MOL0     C30988   0.442   4.044   9.761 -0.7701 -0.1285  0.0945
  971MOL0     C30989   0.330   4.120   9.834  0.7325  0.1084  0.3761
  971MOL0     C30990   0.380   4.268   9.862 -0.5986 -0.7242  0.2623
  971MOL0     C30991   0.267   4.353   9.918 -0.1501  0.7876 -0.9019
  971MOL0     C30992   0.322   4.491   9.961 -0.4596  0.7053  0.1663
  971MOL0     C30993   0.431   4.485  10.074 -0.9402 -0.0658 -0.1475
  971MOL0     C30994   0.504   4.620  10.083 -0.0133  0.3874 -0.2286
  971MOL0    Cl30995   0.399   4.763  10.122  0.2731  0.1161  0.2818
  971MOL0     C30996   0.657   3.757   9.677 -0.2116 -0.1633 -0.0017
  971MOL0     C30997   0.768   3.691   9.626 -0.3252 -0.4599  0.5682
  971MOL0     O30998   0.977   3.358   9.775  0.9051 -0.3430  0.0623
  971MOL0     C30999   1.241   3.323   9.715 -0.2444 -0.0410  0.3691
  971MOL0     C31000   1.383   3.310   9.690 -0.0343  0.4368 -0.0332
  971MOL0     N31001   2.076   3.542   9.688 -0.0753  0.1950 -0.1278
  971MOL0     N31002   2.183   3.610   9.654  0.0961 -0.2967 -0.3889
  971MOL0     C31003   3.035   3.938  10.346 -1.1748  0.2136 -0.3604
  971MOL0     C31004   3.163   3.991  10.390 -0.0900 -1.2676 -0.9628
  971MOL0     C31005   3.463   4.248  10.541  0.1992 -0.4207  0.0562
  971MOL0     C31006   3.589   4.230  10.480  0.4709 -0.4557 -0.7037
  971MOL0     C31007   3.699   4.247  10.564 -0.3711 -0.0396 -0.0587
  971MOL0     C31008   3.699   4.294  10.693 -0.0265  0.2327  0.3939
  971MOL0     O31009   3.819   4.316  10.759 -0.1294  0.0484  0.5948
  971MOL0     C31010   3.821   4.270  10.895  0.0354  0.3081  0.5686
  971MOL0     C31011   3.810   4.391  10.985  0.4215  0.2994 -0.3131
  971MOL0     C31012   3.940   4.430  11.047 -0.2542  1.2350  1.0837
  971MOL0     C31013   4.054   4.448  10.941 -0.4803  0.6011  0.0539
  971MOL0     C31014   4.175   4.498  11.012 -0.0341 -0.4880  0.1277
  971MOL0     C31015   4.278   4.539  11.069  0.1448 -0.2894  0.7995
  971MOL0     C31016   3.571   4.315  10.747 -1.2725 -0.4785  0.1569
  971MOL0     C31017   3.455   4.290  10.676 -0.4516 -0.3188  0.3502
  971MOL0     H31018   3.217   4.192  10.126 -1.4555 -0.5707 -0.9902
  971MOL0     H31019   3.001   4.105  10.063 -1.3232 -0.4203  0.9785
  971MOL0     H31020   2.783   3.984   9.997 -3.3587 -3.6740 -1.5159
  971MOL0     H31021   2.929   3.887  10.004 -0.3240  2.1338 -2.1321
  971MOL0     H31022   2.789   3.712  10.113 -0.2471  1.4296  0.2503
  971MOL0     H31023   2.656   3.818  10.081  0.2877  2.8617 -0.1941
  971MOL0     H31024   2.671   3.824   9.849 -1.1025 -0.8905 -1.1971
  971MOL0     H31025   2.840   3.746   9.868 -0.1677 -3.2830  2.4814
  971MOL0     H31026   2.762   3.539   9.918 -1.1862 -1.7797 -0.6524
  971MOL0     H31027   2.599   3.601   9.942  1.7569 -3.3399  2.4971
  971MOL0     H31028   2.737   3.588   9.667  2.6086 -0.3936  1.7613
  971MOL0     H31029   2.653   3.446   9.754  0.6621  0.4215 -0.1787
  971MOL0     H31030   2.440   3.582   9.756  0.2797 -0.0637  1.0973
  971MOL0     H31031   2.525   3.724   9.688 -1.0565 -0.6475 -2.0400
  971MOL0     H31032   2.569   3.579   9.476 -1.2953 -1.1598 -1.9416
  971MOL0     H31033   2.499   3.450   9.558  2.1050 -0.3537  0.7287
  971MOL0     H31034   2.354   3.583   9.384 -1.6077 -0.0624  0.1841
  971MOL0     H31035   2.344   3.709   9.504 -0.4902 -0.5443  0.0109
  971MOL0     H31036   2.223   3.339   9.473 -1.1339 -1.1713  1.0917
  971MOL0     H31037   2.023   3.221   9.572 -0.1276  0.6803  0.0205
  971MOL0     H31038   1.921   3.304   9.689 -0.7232 -2.6709 -0.8303
  971MOL0     H31039   1.928   3.359   9.393  0.5612  1.0261 -0.1937
  971MOL0     H31040   1.833   3.457   9.516  1.3398  0.7400 -0.9192
  971MOL0     H31041   1.794   3.154   9.503  0.4243  0.8341  0.2702
  971MOL0     H31042   1.723   3.270   9.388 -0.8090 -0.0085  0.2334
  971MOL0     H31043   1.703   3.277   9.693  0.8263  0.2346  0.6634
  971MOL0     H31044   1.588   3.185   9.597 -0.1393  0.7146 -1.2802
  971MOL0     H31045   1.441   3.568   9.495  1.1268 -0.4919  0.1608
  971MOL0     H31046   1.087   3.636   9.463  1.5803  2.8864 -1.4777
  971MOL0     H31047   1.155   3.702   9.616 -0.6370 -2.4995  1.7522
  971MOL0     H31048   1.238   3.714   9.462 -0.3255 -1.6013 -2.4986
  971MOL0     H31049   0.829   3.504   9.908  0.9152  0.8775  0.2729
  971MOL0     H31050   0.643   3.622   9.985 -0.1910 -2.0417 -0.1245
  971MOL0     H31051   0.428   3.849   9.669  2.1434  0.5000 -1.6101
  971MOL0     H31052   0.323   3.862   9.808  1.5972 -0.2557  4.9183
  971MOL0     H31053   0.529   4.055   9.826  0.4190  0.3703 -1.5207
  971MOL0     H31054   0.468   4.075   9.659 -1.7377  0.8120  0.1239
  971MOL0     H31055   0.303   4.056   9.918 -0.2795 -1.5023 -1.1226
  971MOL0     H31056   0.234   4.136   9.784  0.9961  4.0189  0.8311
  971MOL0     H31057   0.471   4.262   9.922 -1.0070  2.4529  1.3624
  971MOL0     H31058   0.408   4.322   9.771 -0.9088  0.0151  0.5963
  971MOL0     H31059   0.213   4.316  10.006 -0.8374 -0.6926 -1.9041
  971MOL0     H31060   0.193   4.380   9.842 -1.4559  3.9092  1.2163
  971MOL0     H31061   0.361   4.535   9.869 -3.5567 -2.3143 -2.8585
  971MOL0     H31062   0.242   4.561   9.989  0.3202  1.0412  1.7044
  971MOL0     H31063   0.515   4.417  10.057 -1.1164 -0.5173  0.7211
  971MOL0     H31064   0.386   4.456  10.169 -0.6503  0.6315  0.2082
  971MOL0     H31065   0.556   4.655   9.993  0.8764  0.6613  0.3722
  971MOL0     H31066   0.582   4.619  10.159 -0.8992  0.0782  0.6849
  971MOL0     H31067   0.621   3.841   9.618  1.1550  1.7815  1.7335
  971MOL0     H31068   0.811   3.704   9.527  4.6213  0.7458  2.5624
  971MOL0     H31069   1.187   3.264   9.789  2.4965 -2.1307  0.8425
  971MOL0     H31070   1.442   3.230   9.734  0.5696  1.2861  0.7392
  971MOL0     H31071   2.992   3.858  10.404  4.8628 -1.0348  3.2695
  971MOL0     H31072   3.191   3.961  10.490 -2.4362 -0.2961  0.0476
  971MOL0     H31073   3.596   4.208  10.374  0.9852 -0.1838 -0.7296
  971MOL0     H31074   3.801   4.243  10.525 -1.1754 -1.7152 -2.2431
  971MOL0     H31075   3.728   4.214  10.910 -1.7887  1.9175 -3.2273
  971MOL0     H31076   3.911   4.212  10.918 -0.1025  0.3166  1.1400
  971MOL0     H31077   3.731   4.373  11.058 -2.3270  1.1647 -2.8571
  971MOL0     H31078   3.778   4.474  10.921  5.1477  0.9500 -2.2208
  971MOL0     H31079   3.973   4.354  11.118  0.4183  1.1441  0.6894
  971MOL0     H31080   3.913   4.526  11.092 -1.0821  1.7085 -0.3668
  971MOL0     H31081   4.023   4.533  10.879  1.2107  2.2075  1.3083
  971MOL0     H31082   4.078   4.354  10.890  2.2142  1.9026 -1.2871
  971MOL0     H31083   4.365   4.585  11.110  0.3909  0.0158 -0.0441
  971MOL0     H31084   3.558   4.354  10.848 -1.0401  2.5372 -0.8560
  971MOL0     H31085   3.365   4.281  10.735  0.0297  0.9139  1.3142
  972MOL0     O31086   7.922   5.615  11.095  0.1036 -0.0204  0.2577
  972MOL0     C31087   7.960   5.671  11.195  0.6031 -0.4046  0.4836
  972MOL0     O31088   7.903   5.660  11.317 -0.5235 -0.7952  0.9964
  972MOL0     C31089   7.779   5.612  11.340  0.6869  0.2593 -1.1056
  972MOL0     C31090   7.687   5.571  11.241 -0.6661 -0.2694 -0.9473
  972MOL0     C31091   7.568   5.501  11.261 -0.2134 -0.3285  0.9146
  972MOL0     C31092   7.528   5.477  11.389  0.0122  0.6540 -0.2623
  972MOL0     O31093   7.412   5.408  11.407 -0.3887 -0.2270 -0.0290
  972MOL0     C31094   7.327   5.427  11.521  1.0598  0.3125 -0.6512
  972MOL0     C31095   7.231   5.547  11.511 -0.5519 -0.1015  0.2192
  972MOL0     C31096   7.154   5.561  11.380 -0.4165  0.2461 -0.1146
  972MOL0     C31097   7.070   5.433  11.349 -0.1139  0.5801  1.5011
  972MOL0     C31098   7.016   5.434  11.197  0.3127  0.7524 -0.1632
  972MOL0     C31099   7.135   5.404  11.102  0.4544  0.2258 -0.7767
  972MOL0     C31100   7.097   5.371  10.958  0.2175 -0.5061 -0.1909
  972MOL0     C31101   7.073   5.500  10.875  0.8802  0.0832  0.6637
  972MOL0     N31102   7.198   5.556  10.833 -0.8897 -0.1526  0.2010
  972MOL0     C31103   7.254   5.671  10.896 -0.9000  0.8009 -0.4389
  972MOL0     C31104   7.366   5.692  10.819 -0.2065 -0.6738 -0.4482
  972MOL0     C31105   7.463   5.791  10.869  0.8409  0.3184 -0.7776
  972MOL0     C31106   7.577   5.820  10.774 -0.2445  0.6047  0.1925
  972MOL0     C31107   7.639   5.957  10.792 -0.6196 -0.7687 -1.1315
  972MOL0     C31108   7.703   5.982  10.933  0.0574 -0.7873 -0.2511
  972MOL0     O31109   7.816   5.903  10.947  0.0554 -0.3757 -0.3243
  972MOL0     C31110   7.926   5.949  10.866  0.5032 -0.1682 -0.1304
  972MOL0     C31111   7.967   5.868  10.764  0.4363 -0.7157 -0.1637
  972MOL0     C31112   8.077   5.894  10.691  0.7189  0.2159  0.1204
  972MOL0     C31113   8.093   5.806  10.579  0.3755 -0.0141 -0.4278
  972MOL0     C31114   8.143   6.023  10.696 -0.3813 -0.7796  0.8689
  972MOL0     C31115   8.257   6.068  10.617  0.2047  0.5106  0.2713
  972MOL0     O31116   8.328   5.970  10.551  1.0355  0.2334  0.6719
  972MOL0     C31117   8.431   6.003  10.459 -1.1264  1.2686 -0.3117
  972MOL0     C31118   8.457   6.131  10.398 -0.1437  0.8382 -0.3730
  972MOL0     C31119   8.564   6.147  10.305  0.2231  1.0657 -0.3115
  972MOL0     C31120   8.643   6.047  10.263  0.4653  0.4767 -0.0418
  972MOL0     O31121   8.733   6.044  10.160  0.3719  0.7531 -0.1708
  972MOL0     C31122   8.674   5.978  10.048  0.0126  0.3118 -0.3619
  972MOL0     C31123   8.709   6.052   9.931 -0.0030  0.2645 -0.0826
  972MOL0     C31124   8.865   6.068   9.906  0.0698 -0.6379 -0.0278
  972MOL0     C31125   8.926   6.187   9.980 -0.4724 -0.6543 -0.1092
  972MOL0     C31126   9.078   6.216   9.954  0.2168 -0.2234 -1.0781
  972MOL0     C31127   9.117   6.238   9.808 -0.1197  0.4874  0.1823
  972MOL0     C31128   9.052   6.363   9.738  0.0110 -0.7335 -0.6188
  972MOL0     C31129   9.145   6.483   9.719 -0.6784  0.9191  0.2159
  972MOL0    Cl31130   9.266   6.438   9.594  0.1476 -0.4434 -0.0110
  972MOL0     C31131   8.629   5.926  10.339 -0.7970 -0.3453  0.0468
  972MOL0     C31132   8.536   5.907  10.435  0.9396  0.4511 -0.7587
  972MOL0     O31133   8.280   6.188  10.617  0.2094 -0.3107  0.1969
  972MOL0     C31134   8.089   6.113  10.800 -0.5036 -1.3232  0.2540
  972MOL0     C31135   7.982   6.072  10.879 -0.0443  0.2309 -1.1003
  972MOL0     N31136   7.366   5.606  10.712 -0.2422  0.3191  0.7844
  972MOL0     N31137   7.255   5.522  10.717  0.4292 -0.0336  0.3317
  972MOL0     C31138   7.612   5.526  11.497 -1.0574  0.9428  0.4894
  972MOL0     C31139   7.737   5.583  11.466 -0.0804  0.8704 -0.6151
  972MOL0     C31140   8.093   5.734  11.199 -0.2575  0.7345  0.5390
  972MOL0     C31141   8.167   5.756  11.075 -1.0867 -1.1231 -0.0726
  972MOL0     C31142   8.290   5.828  11.083 -0.3927  0.2846  0.8810
  972MOL0     C31143   8.351   5.863  11.204 -0.6142  0.7933 -0.3102
  972MOL0     O31144   8.479   5.915  11.193  0.1435  0.2255 -0.4130
  972MOL0     C31145   8.560   5.916  11.315 -0.1454 -0.1208  0.0612
  972MOL0     C31146   8.699   5.966  11.307  0.6892 -0.1799 -0.1572
  972MOL0     C31147   8.781   5.920  11.186 -0.4685  0.1313 -0.2237
  972MOL0     C31148   8.922   5.992  11.175  0.1491 -0.1001  0.1342
  972MOL0     C31149   8.897   6.133  11.145 -0.1330 -0.5733 -0.1361
  972MOL0     C31150   8.873   6.248  11.125  0.1572 -0.0121  1.0392
  972MOL0     C31151   8.284   5.834  11.318  0.5390 -0.5309 -1.2284
  972MOL0     C31152   8.155   5.772  11.320 -1.1846 -0.3461 -0.5395
  972MOL0     H31153   7.703   5.587  11.134 -3.6488  0.8308 -1.3145
  972MOL0     H31154   7.501   5.455  11.189 -0.1348  1.2793 -0.2352
  972MOL0     H31155   7.274   5.336  11.549  0.6436  0.5728 -0.5803
  972MOL0     H31156   7.386   5.451  11.611 -0.5803 -2.0069  1.1575
  972MOL0     H31157   7.160   5.547  11.595  1.7138  0.0830  2.2389
  972MOL0     H31158   7.293   5.633  11.535 -1.6942  0.6117  0.6910
  972MOL0     H31159   7.097   5.655  11.373  1.3343  1.2501 -1.9295
  972MOL0     H31160   7.228   5.567  11.300 -1.3921  2.0835 -0.9668
  972MOL0     H31161   7.116   5.335  11.368 -2.8851 -1.8329 -2.5973
  972MOL0     H31162   6.978   5.432  11.407 -1.8110 -1.8139 -0.9972
  972MOL0     H31163   6.940   5.356  11.198 -0.2379  1.1609 -2.8556
  972MOL0     H31164   6.955   5.520  11.169 -0.5208  0.1201 -0.3220
  972MOL0     H31165   7.218   5.476  11.106  0.4666  0.1903 -0.3805
  972MOL0     H31166   7.171   5.314  11.152  1.6947  1.8348  1.3875
  972MOL0     H31167   7.174   5.309  10.912 -0.5815 -1.2046 -0.6203
  972MOL0     H31168   7.004   5.313  10.961 -1.0822  1.4965  1.2640
  972MOL0     H31169   7.027   5.580  10.933 -2.7521 -2.0151  0.9355
  972MOL0     H31170   7.017   5.480  10.783  0.2505 -0.3335  1.1333
  972MOL0     H31171   7.233   5.714  10.993  0.8374 -2.0435  1.3546
  972MOL0     H31172   7.410   5.886  10.880 -0.1057 -0.0568 -1.8859
  972MOL0     H31173   7.511   5.746  10.957 -0.8655 -1.7451 -0.8388
  972MOL0     H31174   7.537   5.813  10.673 -0.0306  0.0672  0.1449
  972MOL0     H31175   7.653   5.741  10.777 -0.8104  0.0947  1.7653
  972MOL0     H31176   7.553   6.023  10.788 -1.1690 -1.3836  0.0377
  972MOL0     H31177   7.710   5.991  10.716  0.2276  0.0041 -0.0344
  972MOL0     H31178   7.639   5.955  11.017  1.9788 -1.4480  1.0715
  972MOL0     H31179   7.710   6.089  10.957  0.7886 -1.0007  0.5389
  972MOL0     H31180   7.923   5.769  10.766  1.8584 -1.3899 -0.6945
  972MOL0     H31181   8.009   5.739  10.560 -0.1188  0.2598  0.6801
  972MOL0     H31182   8.107   5.867  10.489  2.6921  1.5216  0.8501
  972MOL0     H31183   8.182   5.745  10.598 -0.4410 -0.2875  3.3187
  972MOL0     H31184   8.392   6.215  10.420 -0.3238  0.7153 -0.4286
  972MOL0     H31185   8.573   6.243  10.255 -0.2281  1.0245 -0.4781
  972MOL0     H31186   8.709   5.875  10.040 -1.5598 -0.2412 -0.3882
  972MOL0     H31187   8.565   5.973  10.057  0.1354 -2.5267  0.2767
  972MOL0     H31188   8.662   6.000   9.848  0.2706  1.1386 -0.8099
  972MOL0     H31189   8.658   6.148   9.941 -2.1206 -0.7447 -0.5600
  972MOL0     H31190   8.882   6.094   9.801  1.3052 -0.0923  0.2761
  972MOL0     H31191   8.927   5.982   9.933  3.7660  1.3665 -1.3456
  972MOL0     H31192   8.871   6.274   9.942  0.9542  0.6722  0.7340
  972MOL0     H31193   8.917   6.185  10.089 -2.7204  2.1347 -0.1095
  972MOL0     H31194   9.145   6.138   9.992 -0.7339 -0.5973 -0.1484
  972MOL0     H31195   9.093   6.308  10.010 -0.2242  1.3702 -3.4415
  972MOL0     H31196   9.226   6.251   9.799  0.1071 -1.0038  0.4911
  972MOL0     H31197   9.097   6.151   9.745 -1.9155  1.0387 -0.0379
  972MOL0     H31198   8.967   6.403   9.795  1.6240  1.2247  0.5268
  972MOL0     H31199   9.011   6.333   9.641 -1.2323  0.6618 -0.5596
  972MOL0     H31200   9.198   6.519   9.808  1.8091 -0.1273 -0.7544
  972MOL0     H31201   9.074   6.553   9.675  0.4393  1.4284 -0.8218
  972MOL0     H31202   8.698   5.845  10.318  1.9989  2.0148 -0.5349
  972MOL0     H31203   8.527   5.809  10.480  0.3878  1.5182  1.5603
  972MOL0     H31204   8.141   6.208  10.812 -0.2376 -1.3332 -0.7854
  972MOL0     H31205   7.951   6.142  10.955  1.1236 -1.0264  0.5939
  972MOL0     H31206   7.594   5.498  11.600 -0.9280 -3.1619 -0.3995
  972MOL0     H31207   7.798   5.600  11.554 -1.2495 -3.2478  1.2031
  972MOL0     H31208   8.129   5.736  10.976  2.0957 -1.3289 -1.3712
  972MOL0     H31209   8.353   5.849  10.997  0.4673  0.9072  1.6487
  972MOL0     H31210   8.516   5.981  11.392  0.2139 -1.5541  1.5399
  972MOL0     H31211   8.545   5.820  11.365 -1.4803  0.5610  1.0356
  972MOL0     H31212   8.751   5.955  11.403  0.7726  1.9961  0.1052
  972MOL0     H31213   8.694   6.076  11.306  1.3523 -0.1488 -1.1186
  972MOL0     H31214   8.732   5.933  11.088  2.6195  3.7531 -1.5274
  972MOL0     H31215   8.795   5.813  11.206 -0.0126  0.0661 -0.8547
  972MOL0     H31216   8.979   5.945  11.094  1.2057  2.8001 -0.9082
  972MOL0     H31217   8.988   5.987  11.263  3.0494  0.4399 -1.8492
  972MOL0     H31218   8.847   6.348  11.097 -1.9699 -0.2790  1.9079
  972MOL0     H31219   8.316   5.856  11.420 -2.1927 -2.9942  0.3332
  972MOL0     H31220   8.103   5.755  11.413 -0.7888  2.0564  0.2005
  973MOL0     O31221   3.727   0.962   4.712 -0.0400  0.1045  0.3991
  973MOL0     C31222   3.711   1.055   4.629 -0.1449  0.6155  0.6267
  973MOL0     O31223   3.602   1.068   4.549  0.7950  0.0036 -0.1334
  973MOL0     C31224   3.516   0.962   4.541 -0.2825 -0.7007  0.0860
  973MOL0     C31225   3.548   0.849   4.466 -0.5139 -0.5047 -1.0397
  973MOL0     C31226   3.463   0.751   4.436 -0.2816 -0.4448 -0.1035
  973MOL0     C31227   3.333   0.750   4.485 -0.1526  0.0114 -1.2065
  973MOL0     O31228   3.231   0.654   4.453 -0.5230 -0.1779 -0.4262
  973MOL0     C31229   3.235   0.521   4.509 -0.1569  0.8191  0.0683
  973MOL0     C31230   3.104   0.443   4.473 -0.8048 -0.7039 -0.6508
  973MOL0     C31231   3.007   0.484   4.582 -0.1765  0.4159  0.1000
  973MOL0     C31232   2.894   0.373   4.590 -0.2415 -0.1622  0.2829
  973MOL0     C31233   2.789   0.361   4.470  0.1155  0.3265 -0.4337
  973MOL0     C31234   2.723   0.221   4.446 -0.0393  0.2991 -0.2022
  973MOL0     C31235   2.619   0.212   4.333 -0.2306 -0.0688 -0.3877
  973MOL0     C31236   2.554   0.070   4.333 -0.6100 -0.8939 -0.1693
  973MOL0     N31237   2.472   0.038   4.216  0.8461 -0.2105 -0.1220
  973MOL0     C31238   2.333   0.034   4.204 -0.5202 -0.2797 -0.6753
  973MOL0     C31239   2.316   0.002   4.072  0.8500 -0.2118 -0.5286
  973MOL0     C31240   2.178  -0.009   4.016 -0.2601 -0.7023 -0.2719
  973MOL0     C31241   2.158  -0.129   3.917 -0.1067 -0.5500  0.4463
  973MOL0     C31242   2.023  -0.151   3.853  0.3756  1.0397 -0.7082
  973MOL0     C31243   1.900  -0.136   3.946  0.1412 -0.0084  0.3825
  973MOL0     O31244   1.789  -0.199   3.878 -0.3168  0.5338  0.3393
  973MOL0     C31245   1.677  -0.217   3.954 -0.6010  0.0273 -1.2546
  973MOL0     C31246   1.674  -0.235   4.092  1.0055 -0.0843 -0.6443
  973MOL0     C31247   1.550  -0.277   4.153 -0.3602 -0.5104  1.1468
  973MOL0     C31248   1.561  -0.315   4.297 -0.3506  1.2751 -0.6217
  973MOL0     C31249   1.427  -0.286   4.072 -0.6060 -0.1715 -0.7000
  973MOL0     C31250   1.294  -0.337   4.121  0.3617  0.2056 -0.8686
  973MOL0     O31251   1.197  -0.366   4.031  0.4528 -0.2943 -0.4542
  973MOL0     C31252   1.078  -0.433   4.066 -1.0971 -0.3608 -0.6674
  973MOL0     C31253   1.026  -0.528   3.981 -0.8939  0.3938  0.3960
  973MOL0     C31254   0.914  -0.605   4.001 -0.3619 -0.2612  0.2191
  973MOL0     C31255   0.843  -0.584   4.122 -0.7213  0.7877  0.4263
  973MOL0     O31256   0.731  -0.662   4.136  0.3907  0.8488 -0.2304
  973MOL0     C31257   0.651  -0.680   4.254 -0.7842  1.1015  0.7947
  973MOL0     C31258   0.531  -0.591   4.233 -0.3860 -0.2915  0.1266
  973MOL0     C31259   0.428  -0.597   4.343  0.1553  0.4850  0.0671
  973MOL0     C31260   0.480  -0.596   4.492 -0.1456  0.2516 -0.1462
  973MOL0     C31261   0.362  -0.573   4.596 -0.3498  0.6817  0.7347
  973MOL0     C31262   0.410  -0.497   4.719  0.0555 -0.3684  0.1457
  973MOL0     C31263   0.300  -0.488   4.829  0.2696 -0.1686  0.2856
  973MOL0     C31264   0.322  -0.353   4.908 -0.2592  0.4369  0.1635
  973MOL0    Cl31265   0.486  -0.347   4.979  0.1421 -0.0663  0.2850
  973MOL0     C31266   0.887  -0.482   4.218  0.3653 -0.3135  0.0689
  973MOL0     C31267   1.004  -0.407   4.175 -0.3948 -0.4298 -0.0646
  973MOL0     O31268   1.284  -0.346   4.244  0.6645  1.0186  0.4900
  973MOL0     C31269   1.442  -0.263   3.933 -0.1815  0.3510 -0.3746
  973MOL0     C31270   1.565  -0.232   3.877 -0.1623  0.1546  0.6030
  973MOL0     N31271   2.434  -0.032   4.016  0.3095  0.6599 -0.4367
  973MOL0     N31272   2.523  -0.018   4.105 -0.0902  0.2746  0.3049
  973MOL0     C31273   3.299   0.853   4.577  0.6366 -0.1823  0.4145
  973MOL0     C31274   3.388   0.964   4.600  0.0591  0.2071 -0.4005
  973MOL0     C31275   3.823   1.144   4.608  0.0807  0.3543  0.8599
  973MOL0     C31276   3.952   1.098   4.637 -0.2669  0.5580  0.1766
  973MOL0     C31277   4.064   1.175   4.594 -0.2378 -0.0786  0.6837
  973MOL0     C31278   4.048   1.303   4.553 -0.1475 -0.3531 -0.1920
  973MOL0     O31279   4.168   1.367   4.551  0.5283 -0.4985 -0.3663
  973MOL0     C31280   4.150   1.513   4.545  0.6033 -0.6791  0.2182
  973MOL0     C31281   4.076   1.567   4.674 -0.6109  0.2549  0.2882
  973MOL0     C31282   4.137   1.506   4.808  0.7376 -0.0200  0.1230
  973MOL0     C31283   4.114   1.586   4.940  0.8758 -0.7518  0.3224
  973MOL0     C31284   3.966   1.602   4.971 -0.0406 -0.1464 -0.8298
  973MOL0     C31285   3.849   1.606   5.003  0.5551  0.3211  0.5638
  973MOL0     C31286   3.925   1.349   4.516  0.2877 -0.9741 -0.0405
  973MOL0     C31287   3.812   1.274   4.548  0.5643  0.3101 -1.1756
  973MOL0     H31288   3.647   0.847   4.420 -0.8672  3.9473 -2.4440
  973MOL0     H31289   3.499   0.663   4.384 -0.6439  0.1732 -1.4354
  973MOL0     H31290   3.316   0.458   4.469 -0.0447 -0.5194  2.2292
  973MOL0     H31291   3.257   0.526   4.616 -3.6828  1.1360  0.8942
  973MOL0     H31292   3.069   0.472   4.373 -3.4895  1.9857  0.8923
  973MOL0     H31293   3.138   0.339   4.476 -0.3872 -0.5545  0.1931
  973MOL0     H31294   3.043   0.501   4.683  0.7908  2.3657 -0.5259
  973MOL0     H31295   2.966   0.583   4.561 -1.0123 -0.2871 -1.9258
  973MOL0     H31296   2.940   0.275   4.600 -1.0113 -0.7127 -1.2148
  973MOL0     H31297   2.840   0.382   4.685 -0.5944 -1.3103  0.1985
  973MOL0     H31298   2.720   0.446   4.467  2.2662  2.1471 -2.8603
  973MOL0     H31299   2.866   0.380   4.394  0.8239 -1.4530 -0.2040
  973MOL0     H31300   2.803   0.152   4.418 -0.4631 -0.1061 -0.4333
  973MOL0     H31301   2.676   0.200   4.543  2.5391 -0.9162  0.8951
  973MOL0     H31302   2.534   0.277   4.357 -0.5931 -0.6046 -0.1951
  973MOL0     H31303   2.677   0.229   4.242  1.3444 -2.1033  0.1475
  973MOL0     H31304   2.490   0.066   4.422 -1.8838  3.7153 -0.6331
  973MOL0     H31305   2.635  -0.003   4.342 -1.4809 -1.9379 -0.5349
  973MOL0     H31306   2.260   0.064   4.277  1.3328 -0.0666  1.1842
  973MOL0     H31307   2.110  -0.020   4.101 -2.0357 -0.5669 -1.5968
  973MOL0     H31308   2.154   0.078   3.954  0.1890 -1.9415 -2.2906
  973MOL0     H31309   2.187  -0.224   3.963  1.1686 -0.3066  0.1870
  973MOL0     H31310   2.231  -0.114   3.837  2.1711 -1.1385  2.3069
  973MOL0     H31311   2.012  -0.250   3.809 -2.6263 -0.0864  2.1677
  973MOL0     H31312   2.025  -0.081   3.769  3.4133  0.0226 -1.6212
  973MOL0     H31313   1.881  -0.029   3.960  2.5555  1.0686 -3.1016
  973MOL0     H31314   1.927  -0.182   4.042 -0.9827  0.8838  1.1486
  973MOL0     H31315   1.754  -0.222   4.164 -0.5243 -2.0038  1.5254
  973MOL0     H31316   1.515  -0.243   4.366  0.0427 -1.8664  3.2867
  973MOL0     H31317   1.503  -0.405   4.321 -1.9646  2.3738 -0.2310
  973MOL0     H31318   1.666  -0.331   4.323 -0.6230  1.3943  0.6073
  973MOL0     H31319   1.075  -0.550   3.886 -0.6919  0.8280  0.3977
  973MOL0     H31320   0.896  -0.682   3.926  0.0241  0.5755 -0.7523
  973MOL0     H31321   0.617  -0.782   4.272 -0.0460  0.4786 -1.0302
  973MOL0     H31322   0.713  -0.653   4.340  3.4992 -1.8579 -0.9950
  973MOL0     H31323   0.570  -0.490   4.218  2.9796 -1.4589  0.0119
  973MOL0     H31324   0.481  -0.620   4.140  1.2101 -1.0976 -0.5195
  973MOL0     H31325   0.375  -0.692   4.326  0.9923  0.3545 -2.1894
  973MOL0     H31326   0.347  -0.523   4.339  0.0919  0.8027  3.6832
  973MOL0     H31327   0.533  -0.690   4.511  0.3399  0.9126  2.1634
  973MOL0     H31328   0.559  -0.521   4.506 -1.0481  1.4042 -0.9922
  973MOL0     H31329   0.314  -0.668   4.621 -0.1397  0.0698 -1.0772
  973MOL0     H31330   0.285  -0.512   4.550  0.5014  1.7320  0.6591
  973MOL0     H31331   0.499  -0.540   4.765  1.0879  3.7824  2.5887
  973MOL0     H31332   0.428  -0.394   4.684 -2.0445 -0.0834 -0.2315
  973MOL0     H31333   0.297  -0.571   4.900  2.1297  2.3332  3.5449
  973MOL0     H31334   0.204  -0.486   4.777  1.0890 -3.0268 -1.5803
  973MOL0     H31335   0.254  -0.348   4.993 -0.6004  1.5144 -0.1574
  973MOL0     H31336   0.318  -0.269   4.837  0.8321  1.6008  1.4008
  973MOL0     H31337   0.833  -0.464   4.311  1.1676 -1.2309  0.7373
  973MOL0     H31338   1.032  -0.326   4.242 -1.4778 -0.0160 -0.0962
  973MOL0     H31339   1.358  -0.279   3.867  0.1318 -0.8456 -0.5096
  973MOL0     H31340   1.578  -0.213   3.771 -1.4874  0.8023  0.5443
  973MOL0     H31341   3.205   0.846   4.629 -0.4842  3.2012 -0.8681
  973MOL0     H31342   3.350   1.048   4.656  1.9384 -0.0638  1.4366
  973MOL0     H31343   3.968   0.998   4.676 -4.0836 -1.1616 -2.0581
  973MOL0     H31344   4.162   1.154   4.634  1.1469  2.6010 -1.0444
  973MOL0     H31345   4.248   1.561   4.537 -0.0274  0.8258  1.0320
  973MOL0     H31346   4.094   1.543   4.456 -1.4891 -1.5759  1.1685
  973MOL0     H31347   3.968   1.554   4.663 -0.7649  0.7825  1.1576
  973MOL0     H31348   4.101   1.673   4.678 -0.1869  0.1969 -0.5222
  973MOL0     H31349   4.240   1.480   4.783  0.8588  1.1781 -0.7034
  973MOL0     H31350   4.082   1.413   4.820  1.5084 -0.7168 -1.5488
  973MOL0     H31351   4.160   1.685   4.936  0.5035 -0.5546  0.8631
  973MOL0     H31352   4.161   1.531   5.022 -2.6156 -1.1382  2.2446
  973MOL0     H31353   3.749   1.597   5.040  1.2075 -2.2844  1.8891
  973MOL0     H31354   3.915   1.446   4.468  1.1143 -0.4827  0.7346
  973MOL0     H31355   3.712   1.314   4.538  0.1423 -0.6431 -0.9114
  974MOL0     O31356   8.925   4.315   8.807  0.5601  0.5454  0.9018
  974MOL0     C31357   8.948   4.246   8.904  0.5334 -0.3943 -0.4166
  974MOL0     O31358   8.873   4.240   9.018 -0.0243 -0.2142 -0.1820
  974MOL0     C31359   8.769   4.323   9.039  0.1184  1.1435 -0.1841
  974MOL0     C31360   8.787   4.457   9.017  0.3922 -0.2386  0.3578
  974MOL0     C31361   8.692   4.547   9.068 -0.2514 -0.5067  0.6881
  974MOL0     C31362   8.581   4.499   9.140 -0.1552  0.1351 -0.7427
  974MOL0     O31363   8.480   4.565   9.199  0.0512  0.2438 -0.2654
  974MOL0     C31364   8.404   4.653   9.121  0.7319 -0.4964 -0.2195
  974MOL0     C31365   8.274   4.586   9.080  0.9748  0.5399 -0.3949
  974MOL0     C31366   8.172   4.680   8.998 -1.0029  0.0261  1.1028
  974MOL0     C31367   8.053   4.596   8.965  0.1337 -0.0934  0.0243
  974MOL0     C31368   7.962   4.672   8.879  0.6963 -0.4006 -0.1422
  974MOL0     C31369   7.823   4.611   8.869 -0.4136 -0.2249 -0.1599
  974MOL0     C31370   7.727   4.712   8.815 -0.7580 -0.2703 -0.5146
  974MOL0     C31371   7.589   4.661   8.795 -0.4580  0.1491 -0.1505
  974MOL0     N31372   7.493   4.772   8.751  0.3113  1.6251  0.2622
  974MOL0     C31373   7.393   4.758   8.659 -1.3296  0.3861  0.1763
  974MOL0     C31374   7.319   4.867   8.674  0.2613  0.1920 -0.2848
  974MOL0     C31375   7.210   4.902   8.575 -0.3565 -0.3591 -0.0787
  974MOL0     C31376   7.152   5.038   8.594 -0.0122  0.1923 -0.5070
  974MOL0     C31377   7.014   5.020   8.652  0.2599  0.1077 -0.0716
  974MOL0     C31378   6.920   4.985   8.539  0.1473 -0.2833  0.1377
  974MOL0     O31379   6.783   5.006   8.578 -0.8466  0.0141 -0.0478
  974MOL0     C31380   6.683   4.978   8.499  0.8037 -0.9787 -0.2226
  974MOL0     C31381   6.688   4.917   8.374 -0.9638  0.0677 -0.3984
  974MOL0     C31382   6.578   4.874   8.311  0.4474 -0.4012 -0.2799
  974MOL0     C31383   6.602   4.813   8.168 -0.9001 -0.3475  0.5753
  974MOL0     C31384   6.455   4.876   8.379  0.4188 -0.1752  0.5109
  974MOL0     C31385   6.326   4.813   8.330  0.7779 -0.5757 -0.7058
  974MOL0     O31386   6.217   4.841   8.395  0.0530  0.1864 -0.0689
  974MOL0     C31387   6.094   4.799   8.363 -0.0115  0.4028 -0.4244
  974MOL0     C31388   6.054   4.793   8.230  0.1817  0.6228 -0.2850
  974MOL0     C31389   5.921   4.775   8.199  0.2470 -0.5872 -0.4436
  974MOL0     C31390   5.819   4.746   8.301 -0.6625 -0.6327 -0.5396
  974MOL0     O31391   5.693   4.720   8.264  0.2671  0.9176 -0.4037
  974MOL0     C31392   5.617   4.647   8.357 -0.1268 -0.0766 -0.4972
  974MOL0     C31393   5.500   4.586   8.279  0.2007 -0.0674 -0.6590
  974MOL0     C31394   5.384   4.687   8.268 -0.0209  0.8549  1.1892
  974MOL0     C31395   5.276   4.645   8.171 -0.8968 -0.0440  0.1694
  974MOL0     C31396   5.158   4.743   8.160  0.7529  0.1216  0.0578
  974MOL0     C31397   5.043   4.690   8.088 -0.1185  0.5810 -0.6751
  974MOL0     C31398   5.017   4.539   8.110  0.2483  0.9738  0.2443
  974MOL0     C31399   4.897   4.493   8.035 -0.0037 -0.4304 -1.3575
  974MOL0    Cl31400   4.748   4.568   8.104  0.1717 -0.0162  0.1691
  974MOL0     C31401   5.859   4.755   8.437 -0.0229 -0.5606 -0.1968
  974MOL0     C31402   5.994   4.792   8.461 -0.6034 -0.1740 -0.6356
  974MOL0     O31403   6.331   4.757   8.218  0.1089  0.4550 -0.5036
  974MOL0     C31404   6.444   4.946   8.503  0.1892 -0.2841  0.0538
  974MOL0     C31405   6.556   5.007   8.553  0.6600 -0.6289 -0.0467
  974MOL0     N31406   7.364   4.944   8.778  0.1274 -0.1696 -1.4156
  974MOL0     N31407   7.464   4.877   8.830  0.7868 -0.6562 -0.4984
  974MOL0     C31408   8.565   4.362   9.160  0.1833 -0.3174 -0.7722
  974MOL0     C31409   8.662   4.278   9.116 -0.5734 -0.1258 -0.3704
  974MOL0     C31410   9.052   4.146   8.900 -0.2368 -0.2894  0.7271
  974MOL0     C31411   9.067   4.053   9.000 -0.1792 -0.5859 -0.1474
  974MOL0     C31412   9.176   3.968   9.004  0.0376  0.6454 -0.2286
  974MOL0     C31413   9.274   3.968   8.901 -0.3623 -0.5520 -0.0696
  974MOL0     O31414   9.390   3.883   8.921 -0.0629 -0.6144  0.6118
  974MOL0     C31415   9.449   3.813   8.812  0.1365  0.1201  0.8442
  974MOL0     C31416   9.368   3.700   8.759 -0.1308  0.5730 -0.2439
  974MOL0     C31417   9.349   3.591   8.875  1.0692  0.7266 -0.4772
  974MOL0     C31418   9.255   3.473   8.827 -0.2036  0.0571  0.1247
  974MOL0     C31419   9.284   3.345   8.891  0.2347 -0.5270 -0.2283
  974MOL0     C31420   9.302   3.245   8.953 -1.4264  0.2240 -0.4269
  974MOL0     C31421   9.265   4.068   8.802  0.3167  0.0464 -0.1641
  974MOL0     C31422   9.153   4.157   8.791 -0.0382  0.8282 -0.7666
  974MOL0     H31423   8.869   4.502   8.962 -1.8176  1.0030 -2.1766
  974MOL0     H31424   8.696   4.652   9.040 -0.2089  0.3053  3.4253
  974MOL0     H31425   8.375   4.745   9.173  1.4778 -0.2291 -0.2704
  974MOL0     H31426   8.455   4.680   9.028 -0.5774  0.5779 -0.6656
  974MOL0     H31427   8.295   4.497   9.019  1.9581 -0.0932  0.8159
  974MOL0     H31428   8.218   4.561   9.170  1.0239  2.3448  0.1749
  974MOL0     H31429   8.159   4.771   9.057  1.0222  0.8160  0.4553
  974MOL0     H31430   8.217   4.714   8.903 -0.5653  0.8416  1.5835
  974MOL0     H31431   8.080   4.511   8.901 -2.3368 -2.1289  1.4768
  974MOL0     H31432   8.013   4.565   9.062  0.9326  0.7018  0.6208
  974MOL0     H31433   7.948   4.767   8.932  0.7221 -0.4531 -0.0429
  974MOL0     H31434   8.006   4.694   8.781 -0.5505 -0.4941 -0.7484
  974MOL0     H31435   7.825   4.524   8.803 -0.8366  1.3425 -2.3494
  974MOL0     H31436   7.800   4.573   8.969  2.6812 -0.2075  0.6567
  974MOL0     H31437   7.725   4.796   8.885  3.4277  0.8241 -1.4163
  974MOL0     H31438   7.760   4.758   8.722  0.0209  1.4798  0.5745
  974MOL0     H31439   7.548   4.612   8.884  0.4855 -2.1243 -0.9001
  974MOL0     H31440   7.590   4.589   8.713 -2.5315  1.1214 -1.1031
  974MOL0     H31441   7.365   4.680   8.589 -0.1637  1.5657 -1.6898
  974MOL0     H31442   7.231   4.890   8.468 -3.2310  2.5305 -1.1329
  974MOL0     H31443   7.134   4.825   8.592 -1.5741  0.8195  0.0654
  974MOL0     H31444   7.150   5.087   8.496 -0.1525 -0.8128 -1.0159
  974MOL0     H31445   7.224   5.094   8.655  1.1871 -0.2859 -1.4389
  974MOL0     H31446   6.991   5.118   8.695  2.2255  0.5209  0.1564
  974MOL0     H31447   7.023   4.941   8.726  1.6427 -2.5374 -2.8434
  974MOL0     H31448   6.938   4.882   8.507 -1.3961 -0.4338 -0.3439
  974MOL0     H31449   6.927   5.057   8.458  0.1367 -1.2693 -0.7559
  974MOL0     H31450   6.788   4.905   8.335 -1.7496  0.9698 -2.8761
  974MOL0     H31451   6.582   4.706   8.161 -0.5225 -0.3384 -0.9841
  974MOL0     H31452   6.546   4.878   8.100  1.0115  0.9175  0.1421
  974MOL0     H31453   6.704   4.829   8.130 -2.5243  2.0513 -3.4333
  974MOL0     H31454   6.123   4.804   8.148  0.8729 -2.5599 -0.2392
  974MOL0     H31455   5.888   4.795   8.098  0.1751 -2.7927 -0.9035
  974MOL0     H31456   5.685   4.577   8.407 -1.4794 -0.2476  1.2172
  974MOL0     H31457   5.585   4.711   8.440 -0.5591 -0.3353 -0.4548
  974MOL0     H31458   5.539   4.556   8.181  4.2066  1.3343  0.2970
  974MOL0     H31459   5.462   4.498   8.332  1.4991  0.1234  0.6608
  974MOL0     H31460   5.421   4.789   8.254  1.2928  0.4901  1.7486
  974MOL0     H31461   5.335   4.694   8.366  1.6297  2.5821  1.9632
  974MOL0     H31462   5.324   4.632   8.074 -2.0348  1.2647 -0.6014
  974MOL0     H31463   5.252   4.540   8.190  0.2168 -0.0747  1.6026
  974MOL0     H31464   5.192   4.843   8.132 -0.4733 -0.1962 -2.8810
  974MOL0     H31465   5.119   4.767   8.259  1.2455  0.7863  0.1007
  974MOL0     H31466   4.952   4.734   8.132 -0.6024 -3.1387  2.6365
  974MOL0     H31467   5.040   4.716   7.982  1.0616 -1.6906 -1.3261
  974MOL0     H31468   5.001   4.521   8.216 -1.6012 -0.9754 -0.2884
  974MOL0     H31469   5.102   4.487   8.065  0.3173  1.9850 -0.8550
  974MOL0     H31470   4.887   4.387   8.059  0.0231  0.3686  2.9498
  974MOL0     H31471   4.906   4.518   7.929  2.9809 -1.0131 -1.3283
  974MOL0     H31472   5.800   4.736   8.526  3.5100 -1.7517  2.1066
  974MOL0     H31473   6.022   4.819   8.563  0.2814 -3.6762  0.2012
  974MOL0     H31474   6.351   4.961   8.557  0.7511  2.0093  0.4811
  974MOL0     H31475   6.558   5.051   8.652  1.3875  0.3493 -0.4783
  974MOL0     H31476   8.479   4.321   9.211 -1.2552 -0.1549 -2.9301
  974MOL0     H31477   8.660   4.175   9.150  0.7669  0.1995  0.8017
  974MOL0     H31478   9.004   4.057   9.088 -0.3583  4.6704 -0.1851
  974MOL0     H31479   9.169   3.891   9.080 -1.3976 -0.5888 -1.5391
  974MOL0     H31480   9.468   3.889   8.736  3.2098 -0.2731  1.0733
  974MOL0     H31481   9.547   3.788   8.854 -0.0207 -2.9406 -0.3703
  974MOL0     H31482   9.411   3.652   8.671 -3.0648 -3.2737  0.1689
  974MOL0     H31483   9.277   3.748   8.720 -1.2283 -2.4712 -1.7043
  974MOL0     H31484   9.305   3.627   8.968  0.7921 -0.3423 -0.1772
  974MOL0     H31485   9.443   3.536   8.887  0.0085 -0.9805  0.4233
  974MOL0     H31486   9.265   3.463   8.718 -0.4146  1.6025 -0.0720
  974MOL0     H31487   9.150   3.496   8.850 -0.0313  0.9429  0.0819
  974MOL0     H31488   9.311   3.151   9.003 -4.4050 -1.0258 -1.9702
  974MOL0     H31489   9.345   4.077   8.729 -1.7688  0.4240 -2.5559
  974MOL0     H31490   9.137   4.240   8.723 -1.0768 -0.6107 -2.3761
  975MOL0     O31491   5.407   2.764   7.621 -0.2622 -0.3436 -0.0833
  975MOL0     C31492   5.375   2.664   7.559 -0.6275  0.2504  0.3127
  975MOL0     O31493   5.260   2.638   7.507  0.3596 -0.1067  0.6183
  975MOL0     C31494   5.165   2.730   7.470  0.5888  0.3404  0.4405
  975MOL0     C31495   5.180   2.873   7.448 -0.2065 -0.2261  0.2660
  975MOL0     C31496   5.068   2.955   7.427 -1.0266  0.0265 -0.1377
  975MOL0     C31497   4.946   2.896   7.411  0.5792  1.1474 -0.9842
  975MOL0     O31498   4.838   2.971   7.371  0.9093  0.0935 -0.1550
  975MOL0     C31499   4.859   3.101   7.318  0.6695 -0.0132  0.6453
  975MOL0     C31500   4.737   3.138   7.233 -0.6871 -0.8280  0.2585
  975MOL0     C31501   4.598   3.107   7.301 -0.1483  0.9300 -0.1414
  975MOL0     C31502   4.481   3.178   7.236  0.3017  0.0323 -0.1157
  975MOL0     C31503   4.347   3.097   7.269  0.4715 -0.1989 -0.8281
  975MOL0     C31504   4.214   3.171   7.228  0.3979 -0.4551 -0.7164
  975MOL0     C31505   4.074   3.109   7.253  0.3655 -0.7077  0.7202
  975MOL0     C31506   3.973   3.228   7.277  0.0209  0.3386  0.1480
  975MOL0     N31507   3.958   3.328   7.169 -0.2347 -0.4877 -1.2368
  975MOL0     C31508   3.974   3.296   7.038  0.1576  1.0110 -0.1465
  975MOL0     C31509   3.942   3.412   6.972 -0.3201  0.1526 -0.0035
  975MOL0     C31510   3.940   3.418   6.829 -0.2725  0.1382  0.8448
  975MOL0     C31511   3.837   3.318   6.765  0.3980 -0.3990 -0.2278
  975MOL0     C31512   3.903   3.188   6.711  0.4123 -0.4134  0.6272
  975MOL0     C31513   3.785   3.093   6.668  0.2193  0.0284  0.4364
  975MOL0     O31514   3.710   3.120   6.546 -0.2058  0.5736 -0.4330
  975MOL0     C31515   3.585   3.068   6.513  0.5541 -0.0884 -0.2947
  975MOL0     C31516   3.515   2.986   6.604 -0.0202  0.3782  0.4108
  975MOL0     C31517   3.386   2.938   6.582 -0.3573 -0.4194  0.3259
  975MOL0     C31518   3.323   2.840   6.678  0.2998  0.3545 -0.7511
  975MOL0     C31519   3.335   2.964   6.457  0.2351  0.3946 -0.1212
  975MOL0     C31520   3.208   2.914   6.416 -0.6564 -0.0029  0.9685
  975MOL0     O31521   3.200   2.832   6.306  0.0087 -0.1985 -0.0827
  975MOL0     C31522   3.100   2.743   6.291  1.1609  0.4630 -1.0356
  975MOL0     C31523   3.022   2.687   6.399 -0.2518 -0.3584 -0.6251
  975MOL0     C31524   2.922   2.587   6.374 -0.7829  0.7267 -0.2415
  975MOL0     C31525   2.905   2.544   6.247 -0.6280  0.9287  0.8279
  975MOL0     O31526   2.814   2.449   6.227  0.7195  0.9285 -0.6056
  975MOL0     C31527   2.727   2.471   6.110 -0.2347 -1.2232 -0.1805
  975MOL0     C31528   2.586   2.427   6.134  0.5519  0.1907  0.1429
  975MOL0     C31529   2.491   2.476   6.016  0.3832  0.2366  0.0141
  975MOL0     C31530   2.361   2.397   6.027  0.4725  0.7801  0.9306
  975MOL0     C31531   2.251   2.448   5.936  0.2969 -1.5720  0.6549
  975MOL0     C31532   2.185   2.580   5.987  0.2977 -0.3305 -0.1521
  975MOL0     C31533   2.057   2.568   6.070 -0.3253  0.8830  0.1677
  975MOL0     C31534   1.980   2.701   6.073 -0.0015  0.0499 -0.5928
  975MOL0    Cl31535   1.884   2.729   6.224 -0.1457  0.5746  0.3817
  975MOL0     C31536   2.988   2.590   6.145 -0.1200 -0.0724  0.0001
  975MOL0     C31537   3.080   2.686   6.167 -0.1837  0.1454  0.3540
  975MOL0     O31538   3.115   2.947   6.484 -0.1913 -0.8111  0.4496
  975MOL0     C31539   3.390   3.048   6.364  0.3543  0.3131  0.1263
  975MOL0     C31540   3.514   3.108   6.397  0.0534 -0.1175  0.5613
  975MOL0     N31541   3.939   3.512   7.066  0.5240  0.1020 -1.3774
  975MOL0     N31542   3.945   3.467   7.188  0.0735  0.0688  0.3653
  975MOL0     C31543   4.926   2.758   7.434  0.3302 -0.0840 -0.7556
  975MOL0     C31544   5.035   2.673   7.461 -0.0103 -0.5392  0.3425
  975MOL0     C31545   5.481   2.556   7.575 -0.4834  0.0244 -0.3593
  975MOL0     C31546   5.472   2.434   7.510  0.0530  0.0550 -0.3714
  975MOL0     C31547   5.562   2.326   7.522 -0.2735 -0.1241  0.0078
  975MOL0     C31548   5.679   2.337   7.598 -1.1017  0.0723 -0.7677
  975MOL0     O31549   5.783   2.244   7.611 -0.2895  0.1329 -0.1345
  975MOL0     C31550   5.831   2.205   7.485  0.0611  0.3864  1.2558
  975MOL0     C31551   5.934   2.092   7.507 -0.0465  0.0371  1.0692
  975MOL0     C31552   5.866   1.951   7.529  0.3427 -0.1805  0.2882
  975MOL0     C31553   5.795   1.941   7.662  0.0149 -0.8312  0.0885
  975MOL0     C31554   5.766   1.806   7.701 -0.2487  0.0405 -0.3358
  975MOL0     C31555   5.749   1.689   7.741 -0.1505  0.6514  0.1616
  975MOL0     C31556   5.688   2.462   7.664  0.5141 -0.3983 -0.7216
  975MOL0     C31557   5.592   2.566   7.658 -0.2143 -0.0179  0.3457
  975MOL0     H31558   5.268   2.928   7.482 -1.0673  2.9552 -2.1980
  975MOL0     H31559   5.086   3.062   7.439 -1.4836 -0.1267  2.4441
  975MOL0     H31560   4.857   3.178   7.396  2.0939 -1.1383  1.8628
  975MOL0     H31561   4.949   3.103   7.255 -0.6920 -0.4339 -1.3961
  975MOL0     H31562   4.744   3.245   7.214 -0.2665 -0.5409  1.8335
  975MOL0     H31563   4.740   3.090   7.135  2.2894 -0.4535  0.0822
  975MOL0     H31564   4.577   3.000   7.296 -0.4169  0.9700  0.0766
  975MOL0     H31565   4.600   3.127   7.409  0.8326 -1.4388  0.3297
  975MOL0     H31566   4.488   3.285   7.254  3.4020  0.5389 -3.2825
  975MOL0     H31567   4.499   3.169   7.129 -0.0967  0.3044 -0.2070
  975MOL0     H31568   4.353   2.999   7.221 -1.0508 -1.9658  2.2712
  975MOL0     H31569   4.351   3.083   7.377  0.5905 -1.2098 -0.9504
  975MOL0     H31570   4.206   3.266   7.282 -2.0227 -2.6525  3.3027
  975MOL0     H31571   4.219   3.196   7.121  1.9596  1.5007 -0.2522
  975MOL0     H31572   4.044   3.048   7.167  0.7717 -0.0267  0.0763
  975MOL0     H31573   4.076   3.055   7.348  0.4850  1.6119  2.1240
  975MOL0     H31574   4.004   3.290   7.362 -4.2617  0.7754  1.6379
  975MOL0     H31575   3.879   3.189   7.316  0.3835  0.0110  0.6998
  975MOL0     H31576   3.985   3.202   6.985 -3.5371 -0.2262  0.9681
  975MOL0     H31577   3.919   3.521   6.800  3.9398  0.3072 -2.5283
  975MOL0     H31578   4.039   3.405   6.784 -0.6600  0.3743 -0.1043
  975MOL0     H31579   3.790   3.370   6.681  3.0482  0.4803 -1.2458
  975MOL0     H31580   3.762   3.301   6.843  0.4018 -2.2627 -0.5858
  975MOL0     H31581   3.969   3.154   6.790 -0.2596  1.1318  1.8996
  975MOL0     H31582   3.965   3.199   6.622  2.1161 -2.0339  1.5384
  975MOL0     H31583   3.723   3.089   6.758  0.3311  1.1480  0.5808
  975MOL0     H31584   3.828   2.996   6.645  0.1596  0.1693 -0.2777
  975MOL0     H31585   3.569   2.962   6.695 -0.6081 -0.8035  0.4646
  975MOL0     H31586   3.347   2.857   6.784  0.9681 -0.6145 -0.7256
  975MOL0     H31587   3.214   2.850   6.674  0.4706  3.6152  0.1410
  975MOL0     H31588   3.355   2.737   6.656  4.0436  1.3798 -0.8694
  975MOL0     H31589   3.027   2.730   6.499 -0.6203  3.4297 -2.0636
  975MOL0     H31590   2.856   2.558   6.455 -1.8103 -0.0384 -1.3216
  975MOL0     H31591   2.724   2.571   6.066  2.9763 -2.3610 -3.4073
  975MOL0     H31592   2.754   2.403   6.029  0.2776 -1.2062 -0.0289
  975MOL0     H31593   2.568   2.320   6.151  1.8121 -0.5338 -2.5342
  975MOL0     H31594   2.551   2.484   6.220  1.9340 -1.7612  2.1203
  975MOL0     H31595   2.534   2.450   5.919  0.2975  0.6516 -0.1393
  975MOL0     H31596   2.465   2.582   6.024  0.2302  0.3473 -1.6335
  975MOL0     H31597   2.392   2.298   5.994  2.7403  1.3723  1.1505
  975MOL0     H31598   2.329   2.392   6.132 -1.8432 -1.1739  0.2253
  975MOL0     H31599   2.167   2.383   5.909  0.6975 -1.0297 -2.2977
  975MOL0     H31600   2.295   2.451   5.836  0.8068 -3.1583  0.8143
  975MOL0     H31601   2.258   2.619   6.059  0.9566 -1.9803  0.1064
  975MOL0     H31602   2.171   2.655   5.909  0.8552 -0.3375 -0.2640
  975MOL0     H31603   2.087   2.542   6.172 -1.3551 -0.1249  0.2399
  975MOL0     H31604   2.005   2.487   6.017  0.3920 -0.3966  1.3357
  975MOL0     H31605   1.919   2.716   5.984  0.5976 -2.7281 -1.5564
  975MOL0     H31606   2.057   2.778   6.076  1.0700 -0.8596 -2.9062
  975MOL0     H31607   2.969   2.542   6.049 -0.7888  0.9267 -0.3839
  975MOL0     H31608   3.135   2.733   6.086 -2.4407 -1.7636 -2.4979
  975MOL0     H31609   3.342   3.078   6.271 -0.9696 -0.3469  0.5590
  975MOL0     H31610   3.563   3.174   6.326  0.1311  0.6165  1.2790
  975MOL0     H31611   4.825   2.718   7.440 -0.6199  2.3758  1.0990
  975MOL0     H31612   5.008   2.569   7.477 -0.1498 -0.9508 -2.1175
  975MOL0     H31613   5.380   2.408   7.458  0.2151 -0.6903 -0.2970
  975MOL0     H31614   5.545   2.236   7.464  2.0984 -3.2511  3.6493
  975MOL0     H31615   5.751   2.165   7.422  1.0910 -2.5526  1.6303
  975MOL0     H31616   5.870   2.290   7.429 -3.8689  0.2611 -2.1443
  975MOL0     H31617   6.004   2.124   7.585 -0.9122  0.5410  1.6457
  975MOL0     H31618   5.990   2.094   7.413 -1.7919  0.9612 -0.0014
  975MOL0     H31619   5.949   1.879   7.527  1.2399  0.8324 -1.0445
  975MOL0     H31620   5.799   1.915   7.452  0.7575 -3.8486  1.4647
  975MOL0     H31621   5.702   1.999   7.654 -0.6589 -1.8006  0.5541
  975MOL0     H31622   5.851   2.000   7.735 -0.3974 -2.4690  1.8093
  975MOL0     H31623   5.749   1.585   7.767  2.2057  0.5032 -0.2151
  975MOL0     H31624   5.776   2.486   7.723 -0.0861 -2.5625  1.1856
  975MOL0     H31625   5.601   2.659   7.713 -0.7235 -1.1350  2.4463
  976MOL0     O31626   8.730   4.377  11.353  0.1066  0.0543  0.0535
  976MOL0     C31627   8.796   4.412  11.251  0.6087  0.4577 -0.1763
  976MOL0     O31628   8.739   4.480  11.140 -0.8353  0.0442  0.1809
  976MOL0     C31629   8.606   4.507  11.130 -0.0254 -0.0748  0.9551
  976MOL0     C31630   8.576   4.639  11.084  0.6881  0.3889  0.9157
  976MOL0     C31631   8.440   4.689  11.066 -1.1848 -0.3447  0.2570
  976MOL0     C31632   8.339   4.589  11.065 -0.1138  0.5213  0.0631
  976MOL0     O31633   8.205   4.623  11.037  0.4614  0.2646  0.1726
  976MOL0     C31634   8.171   4.764  11.046  0.3730  0.3272 -0.2604
  976MOL0     C31635   8.016   4.785  11.038  0.7355  0.4339  0.1590
  976MOL0     C31636   7.967   4.931  11.050 -0.1178  0.2221 -0.3434
  976MOL0     C31637   7.822   4.933  11.103 -0.2151  0.6865  0.4581
  976MOL0     C31638   7.754   5.074  11.116  1.0158  0.2162 -0.4321
  976MOL0     C31639   7.761   5.137  11.251  0.4513 -0.1383 -0.6779
  976MOL0     C31640   7.900   5.191  11.272  0.8211  0.1123 -0.3272
  976MOL0     C31641   7.912   5.228  11.410 -0.8354 -0.1383 -0.6630
  976MOL0     N31642   8.045   5.276  11.456  0.5263  0.8172 -0.2190
  976MOL0     C31643   8.146   5.197  11.495 -0.1770  0.0498 -0.2667
  976MOL0     C31644   8.249   5.283  11.505 -0.4280 -0.0012  1.3065
  976MOL0     C31645   8.378   5.239  11.554 -0.9170  0.0333 -0.2327
  976MOL0     C31646   8.444   5.138  11.451  0.2937 -1.6099 -0.1442
  976MOL0     C31647   8.473   5.007  11.518 -0.3798  0.7262 -0.1279
  976MOL0     C31648   8.569   4.915  11.441  0.9558 -0.4001 -0.0709
  976MOL0     O31649   8.587   4.787  11.496  0.9594 -0.3649 -0.1630
  976MOL0     C31650   8.497   4.697  11.461 -0.2966  0.1909 -0.7356
  976MOL0     C31651   8.521   4.570  11.521 -1.2769  0.1411 -0.4714
  976MOL0     C31652   8.431   4.466  11.507 -0.9186  0.6099 -0.0608
  976MOL0     C31653   8.483   4.328  11.550  0.3123 -0.3631  0.8351
  976MOL0     C31654   8.305   4.483  11.449 -0.3956  0.2193  0.6360
  976MOL0     C31655   8.202   4.366  11.432  0.2568 -0.0726 -0.3045
  976MOL0     O31656   8.122   4.366  11.315 -0.4857 -0.6183  0.0515
  976MOL0     C31657   7.980   4.340  11.315 -0.1212 -0.3771 -0.6067
  976MOL0     C31658   7.903   4.409  11.224  0.2036 -0.0550  1.1900
  976MOL0     C31659   7.763   4.399  11.220 -0.2540  0.0585  0.9929
  976MOL0     C31660   7.700   4.304  11.294 -0.1442  0.7613 -0.2446
  976MOL0     O31661   7.564   4.282  11.281 -0.2481  0.1881  0.3409
  976MOL0     C31662   7.516   4.262  11.145  0.1497  0.3396  0.3233
  976MOL0     C31663   7.426   4.145  11.144 -0.9414  0.0292 -0.0207
  976MOL0     C31664   7.287   4.200  11.178 -0.1799  1.0917  0.7742
  976MOL0     C31665   7.174   4.087  11.170  0.5287 -0.3656 -0.4511
  976MOL0     C31666   7.034   4.136  11.187 -0.1345  0.0216 -0.7160
  976MOL0     C31667   7.012   4.215  11.317  0.0972 -0.1875  0.1572
  976MOL0     C31668   6.856   4.228  11.336 -0.3208 -0.9364 -0.3206
  976MOL0     C31669   6.838   4.315  11.460 -0.1602 -0.5846  0.3651
  976MOL0    Cl31670   6.664   4.347  11.489 -0.4090  0.1884  0.5652
  976MOL0     C31671   7.782   4.218  11.377  0.2670 -0.1873  0.7008
  976MOL0     C31672   7.915   4.243  11.398  0.4995 -0.7449  0.2540
  976MOL0     O31673   8.180   4.289  11.530  0.5209 -0.0419  0.2047
  976MOL0     C31674   8.280   4.612  11.386  0.2267  0.3250 -0.8317
  976MOL0     C31675   8.380   4.709  11.389  0.5372  0.5996 -0.8529
  976MOL0     N31676   8.216   5.410  11.467 -0.2587  0.1476 -0.5388
  976MOL0     N31677   8.091   5.403  11.437 -0.6147 -0.6799 -0.0788
  976MOL0     C31678   8.375   4.457  11.101  0.1629 -0.1015 -0.5661
  976MOL0     C31679   8.499   4.413  11.138 -0.4081  0.3017  0.0606
  976MOL0     C31680   8.938   4.387  11.238 -0.8803  0.0288 -0.3506
  976MOL0     C31681   9.015   4.353  11.353  0.0888  0.0142 -0.1250
  976MOL0     C31682   9.138   4.299  11.349  0.2730  0.3863 -0.4351
  976MOL0     C31683   9.204   4.295  11.226 -0.0477 -0.3244  0.1221
  976MOL0     O31684   9.334   4.261  11.226 -0.8005 -0.4818  0.1775
  976MOL0     C31685   9.380   4.173  11.116 -0.5039 -0.9317  0.1129
  976MOL0     C31686   9.532   4.145  11.136 -0.4677 -0.2411 -0.2613
  976MOL0     C31687   9.582   4.036  11.035 -0.3212  0.8790 -0.0282
  976MOL0     C31688   9.739   4.034  11.034  0.2689  0.4096 -0.1350
  976MOL0     C31689   9.790   3.995  11.165  0.1062 -0.0241 -0.5886
  976MOL0     C31690   9.839   3.964  11.271  0.5537  0.1259  0.1076
  976MOL0     C31691   9.131   4.340  11.114 -0.3010  0.0540 -1.3377
  976MOL0     C31692   8.995   4.363  11.118 -0.0167  0.3155  0.0497
  976MOL0     H31693   8.656   4.712  11.080  2.9267 -1.9748 -1.0903
  976MOL0     H31694   8.419   4.795  11.068 -1.1174 -0.3308  0.2049
  976MOL0     H31695   8.210   4.791  11.145  2.9249 -0.0532 -1.0923
  976MOL0     H31696   8.217   4.830  10.972 -1.3467 -0.3336 -2.0042
  976MOL0     H31697   7.993   4.746  10.938  1.1625  4.2983 -1.5913
  976MOL0     H31698   7.967   4.727  11.117  0.7116  0.7029  0.3406
  976MOL0     H31699   8.033   4.980  11.121 -0.2539  0.7209 -0.5583
  976MOL0     H31700   7.961   4.975  10.950 -7.7380  0.9207 -0.1735
  976MOL0     H31701   7.765   4.880  11.027 -0.3318 -0.6343  1.4282
  976MOL0     H31702   7.811   4.876  11.196 -1.5642  0.4769  0.1834
  976MOL0     H31703   7.778   5.152  11.043 -0.7172  0.4970 -0.7521
  976MOL0     H31704   7.648   5.056  11.094  1.4871 -0.4617 -2.3313
  976MOL0     H31705   7.689   5.216  11.273 -0.1224 -0.6140 -0.7953
  976MOL0     H31706   7.748   5.050  11.316 -0.6338 -0.1160 -0.8418
  976MOL0     H31707   7.978   5.118  11.252  1.0245  0.5959 -1.4009
  976MOL0     H31708   7.915   5.281  11.210  0.9667  1.7077  1.8969
  976MOL0     H31709   7.881   5.146  11.475  0.0471 -1.0874 -1.4160
  976MOL0     H31710   7.849   5.318  11.416  0.7603  0.9582  0.7803
  976MOL0     H31711   8.148   5.089  11.510 -0.4738  0.0620 -0.1363
  976MOL0     H31712   8.436   5.329  11.579 -0.7309  0.0973 -0.8630
  976MOL0     H31713   8.371   5.195  11.654  2.2362 -0.7527 -0.2536
  976MOL0     H31714   8.533   5.194  11.420 -0.5864 -0.8301 -1.4193
  976MOL0     H31715   8.383   5.133  11.360  2.9426 -2.5320 -2.0029
  976MOL0     H31716   8.378   4.953  11.523  1.4196 -2.5983  0.8802
  976MOL0     H31717   8.516   5.018  11.618 -1.7051 -2.9175  1.0021
  976MOL0     H31718   8.663   4.971  11.435 -0.0234  1.2984 -0.0924
  976MOL0     H31719   8.533   4.905  11.339  1.0708 -1.9447  0.0117
  976MOL0     H31720   8.610   4.554  11.582 -0.8479  1.6774 -0.6503
  976MOL0     H31721   8.453   4.288  11.647 -1.4349 -0.5317  0.2445
  976MOL0     H31722   8.449   4.253  11.478  0.2289  0.0594  0.4332
  976MOL0     H31723   8.593   4.335  11.548  0.2210  2.2466  1.5171
  976MOL0     H31724   7.950   4.473  11.149 -4.4597  2.5070  0.0310
  976MOL0     H31725   7.713   4.474  11.161  0.0016  0.0939  0.8166
  976MOL0     H31726   7.461   4.346  11.102 -3.8590 -3.3910 -2.6909
  976MOL0     H31727   7.601   4.247  11.078  0.4107 -2.6345  1.1702
  976MOL0     H31728   7.428   4.113  11.040  0.0442  1.2613 -0.4064
  976MOL0     H31729   7.462   4.074  11.218  1.0179 -1.0850 -1.9394
  976MOL0     H31730   7.247   4.270  11.103 -0.4116 -1.6543 -1.8567
  976MOL0     H31731   7.295   4.235  11.281  1.3389  0.0371  1.0418
  976MOL0     H31732   7.179   4.026  11.079 -2.4806 -1.8670  0.2686
  976MOL0     H31733   7.203   4.032  11.260  1.5614  1.1677  0.2051
  976MOL0     H31734   6.961   4.054  11.186 -1.7464  1.3651 -2.8962
  976MOL0     H31735   7.008   4.194  11.098  2.5351 -0.1085 -1.6725
  976MOL0     H31736   7.061   4.170  11.404 -2.8829  0.1199  2.1557
  976MOL0     H31737   7.056   4.314  11.305 -1.9851  0.9713  1.4957
  976MOL0     H31738   6.816   4.128  11.355  1.9902 -1.9554 -0.5286
  976MOL0     H31739   6.812   4.280  11.250  2.3357 -1.2294 -1.9723
  976MOL0     H31740   6.894   4.408  11.450 -0.3319 -0.4952  0.2269
  976MOL0     H31741   6.879   4.264  11.548  2.2478  0.4954 -0.0545
  976MOL0     H31742   7.743   4.138  11.439 -0.7943  1.0296  1.6557
  976MOL0     H31743   7.963   4.171  11.464 -1.6554 -3.2769 -0.7376
  976MOL0     H31744   8.183   4.631  11.340 -0.9801 -3.5004 -0.2324
  976MOL0     H31745   8.357   4.800  11.334 -2.1258  0.9370  0.6605
  976MOL0     H31746   8.301   4.378  11.109  1.9959 -1.8834 -0.4191
  976MOL0     H31747   8.508   4.314  11.181 -1.7321 -0.9153 -2.2553
  976MOL0     H31748   8.983   4.378  11.453  3.8585 -0.0321  1.2276
  976MOL0     H31749   9.200   4.267  11.432 -1.7793 -0.3969  0.8704
  976MOL0     H31750   9.326   4.081  11.093 -2.3291  0.2197 -0.4682
  976MOL0     H31751   9.374   4.228  11.022  0.6990 -0.2485  0.4172
  976MOL0     H31752   9.544   4.108  11.238 -0.1987 -1.3558 -0.6844
  976MOL0     H31753   9.582   4.241  11.121 -0.2460 -0.1802  0.7608
  976MOL0     H31754   9.546   4.056  10.934 -0.5437 -0.9215 -0.3331
  976MOL0     H31755   9.535   3.939  11.050 -0.2664  0.6628 -1.1758
  976MOL0     H31756   9.765   4.136  11.008 -1.2330  1.0244  0.6191
  976MOL0     H31757   9.774   3.960  10.962  0.6297 -0.6104  1.0491
  976MOL0     H31758   9.882   3.942  11.367 -0.6361 -1.4951  0.3229
  976MOL0     H31759   9.190   4.347  11.023 -1.0116 -1.6280 -1.9528
  976MOL0     H31760   8.951   4.379  11.020  1.4846 -0.9865 -0.8796
  977MOL0     O31761   9.166   1.220  11.261  1.1894  0.7113  0.0781
  977MOL0     C31762   9.260   1.145  11.290  0.0264 -0.2913  0.6738
  977MOL0     O31763   9.354   1.167  11.382 -0.8743 -0.1302 -0.1397
  977MOL0     C31764   9.350   1.274  11.472 -0.2146  0.4187 -0.0326
  977MOL0     C31765   9.470   1.314  11.518 -0.5053 -0.3039  0.6272
  977MOL0     C31766   9.488   1.414  11.615 -0.1867  0.7430  0.0035
  977MOL0     C31767   9.370   1.465  11.679 -0.4678  0.4877 -1.3991
  977MOL0     O31768   9.373   1.547  11.782  0.3126 -0.6768 -0.2195
  977MOL0     C31769   9.292   1.657  11.774 -0.4926  0.2170 -0.7747
  977MOL0     C31770   9.342   1.771  11.872  0.5633 -0.0173  0.2925
  977MOL0     C31771   9.264   1.903  11.839  0.2256 -0.2781  0.2435
  977MOL0     C31772   9.114   1.864  11.841  0.3205  0.6940 -0.1199
  977MOL0     C31773   9.022   1.985  11.868  0.1688  0.5084  0.2419
  977MOL0     C31774   8.870   1.959  11.823 -1.3557 -0.2848 -0.0600
  977MOL0     C31775   8.821   1.830  11.891  0.0035  0.0891 -0.0814
  977MOL0     C31776   8.679   1.777  11.851  0.1660 -0.1446  0.3739
  977MOL0     N31777   8.656   1.781  11.702  0.1759  0.4429 -0.5036
  977MOL0     C31778   8.689   1.681  11.612  0.5358 -0.0368 -0.2059
  977MOL0     C31779   8.648   1.720  11.490  0.2549 -0.5484  0.4105
  977MOL0     C31780   8.690   1.673  11.350  0.4753 -0.0140 -0.7174
  977MOL0     C31781   8.738   1.531  11.341  0.3075  0.1113 -0.8568
  977MOL0     C31782   8.609   1.451  11.356  0.1240 -0.6288 -0.0145
  977MOL0     C31783   8.639   1.295  11.320 -0.6380 -0.8975  0.2048
  977MOL0     O31784   8.744   1.241  11.398 -0.1094 -0.7678 -0.0608
  977MOL0     C31785   8.815   1.126  11.369 -0.7787  0.2157 -0.3082
  977MOL0     C31786   8.917   1.094  11.461  0.1126 -0.7866 -0.0210
  977MOL0     C31787   8.997   0.977  11.441  0.2823 -0.4474  0.2796
  977MOL0     C31788   9.112   0.958  11.529  0.0214  0.4585 -0.9754
  977MOL0     C31789   8.969   0.887  11.335 -0.3123  0.0255 -1.0006
  977MOL0     C31790   9.049   0.766  11.304  0.4794  0.1160  0.0096
  977MOL0     O31791   9.021   0.702  11.183 -0.0269  0.5673 -0.8115
  977MOL0     C31792   9.074   0.577  11.163  0.4026 -0.5543 -0.7277
  977MOL0     C31793   9.061   0.478  11.260  0.1066 -0.1189  0.2549
  977MOL0     C31794   9.106   0.342  11.224 -0.9091  0.2461 -0.3156
  977MOL0     C31795   9.171   0.318  11.108 -0.8279 -0.8753  0.0057
  977MOL0     O31796   9.231   0.194  11.079  0.0103  0.0508 -0.2733
  977MOL0     C31797   9.377   0.220  11.060  0.8024  0.4422  0.8531
  977MOL0     C31798   9.470   0.102  11.085  0.0312  0.9321  0.8849
  977MOL0     C31799   9.420  -0.020  11.000 -1.1464  0.0663 -0.3682
  977MOL0     C31800   9.503  -0.144  11.031 -0.2836  0.4886  0.5319
  977MOL0     C31801   9.482  -0.258  10.936  0.5580 -1.3441 -0.0814
  977MOL0     C31802   9.341  -0.315  10.957 -0.5220 -0.1677  0.3141
  977MOL0     C31803   9.324  -0.462  10.915  0.5353  1.3649  0.3132
  977MOL0     C31804   9.412  -0.560  10.982 -0.4854  0.2829  0.3222
  977MOL0    Cl31805   9.341  -0.723  10.954  0.3504  0.3079 -0.2207
  977MOL0     C31806   9.181   0.421  11.014  0.3378  0.4714 -0.0989
  977MOL0     C31807   9.149   0.555  11.046  0.3123  0.3157 -0.5331
  977MOL0     O31808   9.136   0.731  11.381  0.0809 -0.4395 -0.0657
  977MOL0     C31809   8.863   0.916  11.255  0.6635 -0.1268 -0.3567
  977MOL0     C31810   8.783   1.031  11.274 -1.2254  0.7165  0.6223
  977MOL0     N31811   8.575   1.834  11.513 -0.2941  0.5582 -0.0716
  977MOL0     N31812   8.577   1.870  11.635 -0.3739 -0.3780  0.7285
  977MOL0     C31813   9.244   1.410  11.644 -0.1314  0.1579  0.5095
  977MOL0     C31814   9.232   1.328  11.535 -0.9886  0.1598  0.1649
  977MOL0     C31815   9.295   1.037  11.186  0.1574 -0.7032 -0.6602
  977MOL0     C31816   9.201   0.987  11.098 -0.0565 -0.5515  0.0819
  977MOL0     C31817   9.235   0.890  11.008 -0.3655  0.3892 -0.0337
  977MOL0     C31818   9.359   0.829  11.009 -0.6310 -0.2343 -0.2893
  977MOL0     O31819   9.390   0.734  10.912 -0.3708  0.4260 -0.0171
  977MOL0     C31820   9.517   0.672  10.938  0.2636 -0.2125  0.6696
  977MOL0     C31821   9.551   0.592  10.808  0.0108 -0.0349  0.5793
  977MOL0     C31822   9.692   0.528  10.826 -0.5868  0.6419  0.0115
  977MOL0     C31823   9.748   0.468  10.696 -0.3771  0.6380 -0.7926
  977MOL0     C31824   9.651   0.404  10.602  0.0658 -1.0454  0.3894
  977MOL0     C31825   9.585   0.348  10.508 -1.0938  0.1590 -0.5098
  977MOL0     C31826   9.456   0.876  11.109 -0.0769 -0.2269 -0.1948
  977MOL0     C31827   9.420   0.980  11.195 -0.3680  0.6716  0.1238
  977MOL0     H31828   9.557   1.276  11.465  1.0725  0.5494  2.4547
  977MOL0     H31829   9.579   1.470  11.635  0.7329 -0.6236 -0.2299
  977MOL0     H31830   9.302   1.679  11.668 -0.7485 -0.2320 -0.8932
  977MOL0     H31831   9.186   1.629  11.783  0.2283 -2.9611 -1.1104
  977MOL0     H31832   9.308   1.747  11.973 -0.0061  1.5026  0.4817
  977MOL0     H31833   9.450   1.782  11.858  0.7758 -2.4645 -0.4532
  977MOL0     H31834   9.290   1.983  11.909 -0.9105 -2.2467  3.1190
  977MOL0     H31835   9.275   1.934  11.735 -2.4681  0.1997  0.0527
  977MOL0     H31836   9.095   1.824  11.741 -0.8974 -0.6820  0.6282
  977MOL0     H31837   9.092   1.784  11.913 -2.4084 -0.1732 -1.7746
  977MOL0     H31838   9.036   1.996  11.976 -0.7024 -1.3138  0.5834
  977MOL0     H31839   9.059   2.077  11.822 -0.1413  1.0959  1.1494
  977MOL0     H31840   8.819   2.053  11.847 -0.1510 -0.0620  1.8850
  977MOL0     H31841   8.862   1.952  11.714 -1.6811 -1.6620  0.0371
  977MOL0     H31842   8.895   1.753  11.868  1.9332  1.3507  1.6159
  977MOL0     H31843   8.824   1.843  11.999  2.1785 -3.7946  0.4976
  977MOL0     H31844   8.601   1.842  11.889 -0.2862 -0.9667  0.8601
  977MOL0     H31845   8.663   1.675  11.885 -0.6237  0.1344  0.8695
  977MOL0     H31846   8.738   1.588  11.638  0.1013  0.0413  0.9304
  977MOL0     H31847   8.605   1.694  11.284  0.6101 -0.7881 -1.1478
  977MOL0     H31848   8.772   1.737  11.318  2.0361 -0.9797  1.1395
  977MOL0     H31849   8.811   1.505  11.418 -1.4523  0.0813  0.8880
  977MOL0     H31850   8.795   1.511  11.251  1.2414 -0.4047 -0.1679
  977MOL0     H31851   8.543   1.485  11.276  1.7600  1.9916 -0.3557
  977MOL0     H31852   8.553   1.461  11.450 -0.0981 -1.0937 -0.0942
  977MOL0     H31853   8.657   1.288  11.212  0.5272  0.4015  0.2903
  977MOL0     H31854   8.544   1.244  11.335 -1.3796  0.1912 -0.6328
  977MOL0     H31855   8.948   1.164  11.538 -0.8578 -0.8845  0.4624
  977MOL0     H31856   9.138   1.043  11.593  2.5052 -0.1658 -1.0561
  977MOL0     H31857   9.088   0.883  11.605  1.9067 -0.3713 -1.1475
  977MOL0     H31858   9.207   0.923  11.489  1.1101 -0.5224  2.2288
  977MOL0     H31859   9.010   0.509  11.351 -3.0612  2.3689 -2.1405
  977MOL0     H31860   9.109   0.256  11.290  3.5073 -0.9978 -1.8325
  977MOL0     H31861   9.392   0.263  10.960 -1.8556  1.5442  0.8544
  977MOL0     H31862   9.417   0.300  11.122  0.9275  1.6986 -0.7838
  977MOL0     H31863   9.575   0.128  11.067 -0.4963  2.3626 -0.3811
  977MOL0     H31864   9.459   0.083  11.192  0.0223 -2.8144  0.3387
  977MOL0     H31865   9.433  -0.003  10.893  1.4084 -0.3065 -0.1783
  977MOL0     H31866   9.313  -0.037  11.018 -0.6328 -0.8677  2.3184
  977MOL0     H31867   9.607  -0.110  11.027  0.4189 -1.2382  2.7392
  977MOL0     H31868   9.491  -0.177  11.134 -1.7732  0.6424  0.4312
  977MOL0     H31869   9.554  -0.337  10.961  0.7806 -1.9789 -2.5004
  977MOL0     H31870   9.507  -0.237  10.832  1.1601  1.3385  0.5384
  977MOL0     H31871   9.319  -0.311  11.064 -0.3069 -1.5295  0.4289
  977MOL0     H31872   9.271  -0.255  10.898 -0.0504  0.3384  0.2629
  977MOL0     H31873   9.333  -0.479  10.808  2.0109 -3.2888  0.9622
  977MOL0     H31874   9.223  -0.486  10.948  0.9740  1.0197  1.4527
  977MOL0     H31875   9.416  -0.547  11.091 -1.7576  2.5249  0.1776
  977MOL0     H31876   9.507  -0.550  10.929  0.1133  2.4931  1.6481
  977MOL0     H31877   9.221   0.420  10.913 -2.8995 -0.5577 -1.4848
  977MOL0     H31878   9.149   0.622  10.961 -3.5522  1.4170  0.1329
  977MOL0     H31879   8.828   0.837  11.189  0.7246 -0.4564 -0.0011
  977MOL0     H31880   8.702   1.037  11.201 -0.4013 -2.3618 -0.7374
  977MOL0     H31881   9.154   1.428  11.703 -0.2834 -2.5144  1.2325
  977MOL0     H31882   9.133   1.286  11.518 -0.5885 -1.6027  1.8595
  977MOL0     H31883   9.095   1.010  11.100 -0.0940 -0.1982 -2.5922
  977MOL0     H31884   9.155   0.842  10.952 -0.1839  1.0340 -0.8672
  977MOL0     H31885   9.599   0.745  10.942  0.9111 -0.9831  1.8140
  977MOL0     H31886   9.519   0.602  11.021  2.1752  0.4635  1.2313
  977MOL0     H31887   9.557   0.654  10.718  1.3893 -0.3204  0.4464
  977MOL0     H31888   9.468   0.524  10.784 -0.3493  0.7547 -0.5198
  977MOL0     H31889   9.684   0.443  10.894 -1.0710 -0.3992 -1.2899
  977MOL0     H31890   9.762   0.606  10.858 -3.0539  3.0554 -0.0543
  977MOL0     H31891   9.825   0.393  10.717  0.1965  1.1603 -1.0286
  977MOL0     H31892   9.802   0.548  10.645  1.2256  0.4242  0.4930
  977MOL0     H31893   9.526   0.309  10.427  0.8071 -2.5908 -0.7118
  977MOL0     H31894   9.560   0.847  11.103 -0.0287 -0.0934 -0.0015
  977MOL0     H31895   9.487   1.039  11.256 -2.7055  3.7537 -0.0570
  978MOL0     O31896   3.996   1.991   8.136 -0.3344  0.3713 -0.3385
  978MOL0     C31897   4.099   1.964   8.213 -0.0943 -0.7401  0.2114
  978MOL0     O31898   4.223   1.918   8.167  0.5649 -0.6058 -0.0143
  978MOL0     C31899   4.247   1.863   8.045  0.2617  1.7080  0.4204
  978MOL0     C31900   4.385   1.815   8.028  0.9847 -0.6698 -0.1745
  978MOL0     C31901   4.414   1.758   7.905  0.0650  0.5665  0.2676
  978MOL0     C31902   4.325   1.748   7.802  0.2606 -0.5349 -0.2379
  978MOL0     O31903   4.375   1.723   7.675  0.5670 -0.0066  0.3597
  978MOL0     C31904   4.371   1.829   7.578 -0.9153  0.7475  0.2116
  978MOL0     C31905   4.468   1.808   7.457 -0.1879  0.7597  0.2845
  978MOL0     C31906   4.618   1.825   7.514  0.8128  0.7304  0.0486
  978MOL0     C31907   4.722   1.745   7.431 -0.2997  0.3209  0.2511
  978MOL0     C31908   4.861   1.747   7.500 -0.5605  0.0575 -0.2233
  978MOL0     C31909   4.959   1.671   7.407 -0.1014 -0.3840  0.1281
  978MOL0     C31910   5.107   1.678   7.462 -0.2101 -0.1970 -0.5109
  978MOL0     C31911   5.208   1.606   7.368  0.4286  0.3658 -0.1242
  978MOL0     N31912   5.179   1.483   7.299 -0.0540  0.3208 -0.7566
  978MOL0     C31913   5.087   1.459   7.201  0.6188 -0.7585 -0.1005
  978MOL0     C31914   5.099   1.336   7.155 -0.4056  0.0762 -0.7525
  978MOL0     C31915   5.028   1.263   7.035 -0.4355  0.7128 -0.6691
  978MOL0     C31916   5.113   1.299   6.914 -0.8938  0.8128 -0.5591
  978MOL0     C31917   5.213   1.189   6.872 -1.0664 -0.0252  0.7279
  978MOL0     C31918   5.291   1.215   6.745 -0.2544 -1.1488 -0.6970
  978MOL0     O31919   5.342   1.355   6.752  0.5411 -0.3556  0.0183
  978MOL0     C31920   5.468   1.362   6.793 -0.7116  0.4898  1.4156
  978MOL0     C31921   5.571   1.346   6.697 -0.4119  0.1825 -0.3223
  978MOL0     C31922   5.706   1.353   6.742  0.3545  0.8728 -0.0458
  978MOL0     C31923   5.807   1.303   6.640 -0.2821  0.9905 -0.8490
  978MOL0     C31924   5.740   1.394   6.874  0.9096  0.0700  0.1344
  978MOL0     C31925   5.879   1.407   6.924  0.4529 -0.0243 -0.0765
  978MOL0     O31926   5.894   1.394   7.059  0.2281 -0.6264  0.7377
  978MOL0     C31927   6.021   1.371   7.108 -0.0296  1.3953  0.0895
  978MOL0     C31928   6.127   1.460   7.099  0.1604  0.0246 -0.0298
  978MOL0     C31929   6.259   1.429   7.154  0.5835  0.3550  0.3532
  978MOL0     C31930   6.275   1.311   7.227  0.3934 -0.1705  0.9153
  978MOL0     O31931   6.405   1.289   7.272 -0.5341 -0.0983  0.6261
  978MOL0     C31932   6.431   1.166   7.350 -0.3450 -0.1958  1.0841
  978MOL0     C31933   6.556   1.218   7.427 -0.4549  0.4085  0.3008
  978MOL0     C31934   6.631   1.117   7.522  0.3389 -0.6995  0.5158
  978MOL0     C31935   6.525   1.029   7.600  0.9365 -0.1412 -0.4810
  978MOL0     C31936   6.587   0.951   7.719  0.3458 -0.4348 -0.4593
  978MOL0     C31937   6.710   0.865   7.684  0.0081  0.9741  0.9865
  978MOL0     C31938   6.778   0.783   7.798  0.6789 -0.4482 -0.3437
  978MOL0     C31939   6.847   0.860   7.908 -0.2066 -0.5271  0.7416
  978MOL0    Cl31940   6.758   0.861   8.056  0.3350 -0.0369 -0.1735
  978MOL0     C31941   6.170   1.223   7.245 -1.2508  1.1368  0.5528
  978MOL0     C31942   6.046   1.254   7.187 -0.1318 -0.0284 -0.3246
  978MOL0     O31943   5.970   1.427   6.838  0.2926 -0.4178  0.1747
  978MOL0     C31944   5.629   1.413   6.961 -0.1203  0.4878 -0.6900
  978MOL0     C31945   5.501   1.393   6.920 -0.2333 -0.3682 -0.3214
  978MOL0     N31946   5.200   1.281   7.243 -0.1693  0.7059  0.0806
  978MOL0     N31947   5.250   1.370   7.311 -0.5421 -1.0589  1.3335
  978MOL0     C31948   4.197   1.804   7.821  0.1290 -0.3286  0.1322
  978MOL0     C31949   4.154   1.853   7.939 -0.5201 -0.5598 -0.1233
  978MOL0     C31950   4.087   2.018   8.350 -0.5837  0.4492 -0.5639
  978MOL0     C31951   4.206   2.032   8.427  0.1653 -0.5363  0.6968
  978MOL0     C31952   4.201   2.095   8.550  0.7339 -1.4283  0.4919
  978MOL0     C31953   4.084   2.153   8.597 -0.0095 -0.4874  0.8047
  978MOL0     O31954   4.071   2.220   8.712  0.2130  0.4164  0.4443
  978MOL0     C31955   4.168   2.236   8.815 -0.0173 -0.3243  0.4300
  978MOL0     C31956   4.254   2.355   8.779 -0.2909 -0.2605 -0.3738
  978MOL0     C31957   4.346   2.401   8.903  0.8372  0.2722  0.1426
  978MOL0     C31958   4.408   2.541   8.886  0.0777 -1.0809 -0.5762
  978MOL0     C31959   4.470   2.590   9.014  0.2082  0.1721  0.0185
  978MOL0     C31960   4.538   2.642   9.105  0.9723  0.5153 -0.1840
  978MOL0     C31961   3.966   2.131   8.531 -0.8173  0.2530  0.4674
  978MOL0     C31962   3.963   2.057   8.401 -0.4942  0.3710  0.0323
  978MOL0     H31963   4.471   1.846   8.087  3.3848  2.3895 -4.6669
  978MOL0     H31964   4.511   1.711   7.892 -0.1256 -0.8509  3.0366
  978MOL0     H31965   4.270   1.822   7.536 -1.2469  0.7867  0.9742
  978MOL0     H31966   4.398   1.925   7.622 -3.7608  0.3245  3.3161
  978MOL0     H31967   4.454   1.706   7.420  0.6765  1.2841 -1.6224
  978MOL0     H31968   4.441   1.886   7.385 -1.3535 -0.3015 -0.4731
  978MOL0     H31969   4.637   1.931   7.496  0.0503  1.2926  2.3349
  978MOL0     H31970   4.617   1.800   7.620 -2.8030  1.3294  0.3058
  978MOL0     H31971   4.701   1.639   7.418  2.6665 -0.2417 -0.7568
  978MOL0     H31972   4.730   1.778   7.327 -0.6793 -2.7240 -0.8547
  978MOL0     H31973   4.888   1.852   7.495 -2.3925  0.4814 -3.5600
  978MOL0     H31974   4.860   1.696   7.597  0.2406 -1.5553 -1.0154
  978MOL0     H31975   4.919   1.569   7.406 -2.2280  0.4157  0.1956
  978MOL0     H31976   4.960   1.705   7.303  1.8654  0.1598  0.2860
  978MOL0     H31977   5.140   1.782   7.471 -0.5111  0.0684 -2.1345
  978MOL0     H31978   5.115   1.633   7.561  0.1943 -1.3399 -1.0410
  978MOL0     H31979   5.302   1.586   7.421 -1.0986 -0.2987  2.5723
  978MOL0     H31980   5.235   1.674   7.287 -0.8776 -1.5979 -2.3126
  978MOL0     H31981   5.017   1.529   7.157 -2.0284 -3.2006 -0.0264
  978MOL0     H31982   5.028   1.155   7.054  0.8708  0.2283 -2.9914
  978MOL0     H31983   4.925   1.294   7.017 -0.4414  0.9919 -0.1637
  978MOL0     H31984   5.169   1.390   6.935  1.4153 -1.1417  2.7474
  978MOL0     H31985   5.060   1.334   6.825  1.0900  1.0766 -1.7130
  978MOL0     H31986   5.170   1.089   6.864 -1.5479  0.3113 -1.4587
  978MOL0     H31987   5.293   1.188   6.947  3.7897 -3.6508 -3.6943
  978MOL0     H31988   5.236   1.206   6.651 -1.5425 -1.4974  0.0581
  978MOL0     H31989   5.372   1.143   6.734  1.5075  0.7493 -0.6748
  978MOL0     H31990   5.555   1.303   6.598 -0.7375 -0.1622 -0.1172
  978MOL0     H31991   5.876   1.228   6.680 -1.5971 -0.2482 -0.8438
  978MOL0     H31992   5.768   1.249   6.553  0.2693  0.6993 -0.9196
  978MOL0     H31993   5.865   1.390   6.607  1.9085 -0.4751 -1.0557
  978MOL0     H31994   6.117   1.554   7.044  2.7159  0.2666 -0.1895
  978MOL0     H31995   6.350   1.485   7.135  2.6594 -1.2557  4.4055
  978MOL0     H31996   6.348   1.132   7.413 -1.1859 -0.3766 -0.0823
  978MOL0     H31997   6.460   1.093   7.273 -0.8432  0.2061  0.4994
  978MOL0     H31998   6.637   1.238   7.356  0.7277 -0.1003  1.4679
  978MOL0     H31999   6.537   1.314   7.476 -2.2937  0.2183  0.0180
  978MOL0     H32000   6.698   1.169   7.590 -1.4672  1.1853  0.9337
  978MOL0     H32001   6.697   1.049   7.466  0.8731  0.2172  0.0109
  978MOL0     H32002   6.451   1.096   7.644 -0.7659 -2.4144  0.3710
  978MOL0     H32003   6.470   0.962   7.533 -0.9464 -0.0549  0.8815
  978MOL0     H32004   6.506   0.892   7.761  0.0479 -0.2660 -0.7868
  978MOL0     H32005   6.605   1.028   7.795  2.1144  0.8582 -2.0773
  978MOL0     H32006   6.682   0.787   7.613  2.6396  0.2805  0.5911
  978MOL0     H32007   6.784   0.928   7.633  0.6353 -0.4981  0.0257
  978MOL0     H32008   6.853   0.732   7.736  0.6759 -0.8169 -0.0467
  978MOL0     H32009   6.704   0.716   7.843 -1.6704  2.4702  0.4906
  978MOL0     H32010   6.868   0.961   7.873 -2.8675 -0.2794 -0.4194
  978MOL0     H32011   6.943   0.812   7.929  0.0672  0.0083  0.7143
  978MOL0     H32012   6.169   1.129   7.299 -0.3094  1.7890  1.7755
  978MOL0     H32013   5.971   1.176   7.197  1.1354 -1.1753  0.5449
  978MOL0     H32014   5.653   1.429   7.065  0.0676 -2.0895 -0.2654
  978MOL0     H32015   5.408   1.409   6.974 -1.5611  0.7536 -2.7519
  978MOL0     H32016   4.135   1.799   7.732  1.1823  1.1815 -0.7261
  978MOL0     H32017   4.053   1.890   7.936 -0.6538 -0.6684  1.8901
  978MOL0     H32018   4.304   2.012   8.385  0.1771  0.7560  0.0551
  978MOL0     H32019   4.296   2.118   8.598 -0.0983  1.9557  0.7113
  978MOL0     H32020   4.112   2.253   8.907  2.3495 -0.5825  2.0080
  978MOL0     H32021   4.219   2.142   8.835  1.5518  0.9705  3.0025
  978MOL0     H32022   4.196   2.438   8.737  0.3489 -2.1021 -5.7346
  978MOL0     H32023   4.326   2.316   8.706 -0.4898 -3.8919  1.1723
  978MOL0     H32024   4.425   2.328   8.925  1.4031  0.8991  0.2383
  978MOL0     H32025   4.270   2.399   8.982  0.1882 -4.3696 -0.2718
  978MOL0     H32026   4.322   2.604   8.862 -1.6345 -1.8400  2.8756
  978MOL0     H32027   4.482   2.533   8.806  1.5019 -1.7743  0.7447
  978MOL0     H32028   4.598   2.696   9.175 -0.6881 -1.4861  3.0418
  978MOL0     H32029   3.877   2.158   8.585 -1.3694 -1.1978  0.3395
  978MOL0     H32030   3.876   2.038   8.340  0.6109 -0.6921 -1.2846
  979MOL0     O32031   0.894   8.474   9.035  0.3302 -0.0515  0.6667
  979MOL0     C32032   0.913   8.596   9.021  0.4642 -0.0288  0.2396
  979MOL0     O32033   0.819   8.695   8.991 -0.5076  0.4173  0.1354
  979MOL0     C32034   0.691   8.660   8.974 -0.4078  0.0143  0.4398
  979MOL0     C32035   0.608   8.571   9.054 -0.2989  0.0829 -0.3267
  979MOL0     C32036   0.469   8.567   9.045  0.6953  0.0771 -0.0335
  979MOL0     C32037   0.411   8.641   8.941 -0.2395 -0.7292 -0.2045
  979MOL0     O32038   0.279   8.650   8.931 -0.1772  0.1719  0.5878
  979MOL0     C32039   0.191   8.546   8.993  0.6039  0.5239  0.1436
  979MOL0     C32040   0.047   8.570   8.934 -0.7250 -0.3470 -0.1598
  979MOL0     C32041  -0.035   8.452   8.937  0.7531  0.3567 -0.2709
  979MOL0     C32042  -0.115   8.432   9.069  0.7567  0.4972 -1.0093
  979MOL0     C32043  -0.205   8.312   9.046  0.1358 -0.6437  0.6689
  979MOL0     C32044  -0.351   8.341   9.075 -0.0942 -0.6277 -0.6154
  979MOL0     C32045  -0.434   8.218   9.044 -0.2676  0.1849 -0.9921
  979MOL0     C32046  -0.579   8.236   9.070 -0.4177 -0.1344  0.0852
  979MOL0     N32047  -0.603   8.245   9.214  0.1015 -0.5811 -0.4268
  979MOL0     C32048  -0.587   8.144   9.300  0.2815 -0.8303 -0.2606
  979MOL0     C32049  -0.622   8.189   9.423  0.2331  0.3343 -0.0804
  979MOL0     C32050  -0.630   8.099   9.545  0.1371  0.6383 -0.5440
  979MOL0     C32051  -0.749   8.005   9.537  0.4400 -0.7789 -0.6688
  979MOL0     C32052  -0.830   8.031   9.658 -0.2967 -0.1531  0.3012
  979MOL0     C32053  -0.895   8.169   9.661  0.2850 -0.0891 -0.7270
  979MOL0     O32054  -0.994   8.175   9.556  0.2762 -0.4970  0.4466
  979MOL0     C32055  -1.077   8.294   9.557 -0.1975 -0.2142 -0.5322
  979MOL0     C32056  -1.048   8.422   9.608 -0.4700 -1.0216 -0.9349
  979MOL0     C32057  -1.136   8.531   9.599  0.9187 -0.7592  0.1385
  979MOL0     C32058  -1.088   8.670   9.634 -0.2756 -0.4703 -0.2613
  979MOL0     C32059  -1.264   8.505   9.551 -0.1348 -0.0961 -0.0808
  979MOL0     C32060  -1.371   8.599   9.558 -0.6328 -0.1718 -0.7305
  979MOL0     O32061  -1.467   8.601   9.458 -0.6962  0.0108  0.6400
  979MOL0     C32062  -1.548   8.711   9.466 -0.7894  0.0851  0.6385
  979MOL0     C32063  -1.481   8.837   9.475  0.0287  0.1596 -0.0942
  979MOL0     C32064  -1.565   8.954   9.484  0.4100  0.2345  0.0286
  979MOL0     C32065  -1.711   8.941   9.486 -0.3536 -0.0606  0.3695
  979MOL0     O32066  -1.796   9.045   9.500  0.8255  0.0643 -0.4784
  979MOL0     C32067  -1.749   9.178   9.478 -0.2849  0.9796 -0.3777
  979MOL0     C32068  -1.853   9.279   9.523  0.1625 -0.1501 -0.2570
  979MOL0     C32069  -1.966   9.292   9.427 -0.1251 -0.1575 -0.4081
  979MOL0     C32070  -2.068   9.407   9.466  0.0313 -0.6037 -1.1962
  979MOL0     C32071  -2.141   9.384   9.605 -0.2798 -0.5345  0.3141
  979MOL0     C32072  -2.257   9.483   9.638  0.0354 -0.0828  0.4237
  979MOL0     C32073  -2.326   9.447   9.765 -0.5004 -0.2539  0.3172
  979MOL0     C32074  -2.473   9.442   9.748 -0.6371 -0.1225 -0.9511
  979MOL0    Cl32075  -2.545   9.581   9.659  0.1346 -0.1580  0.3239
  979MOL0     C32076  -1.763   8.811   9.478  0.4240 -0.7255  0.6068
  979MOL0     C32077  -1.686   8.702   9.476  0.2214 -0.0828 -0.4182
  979MOL0     O32078  -1.380   8.657   9.670  0.5207 -0.0156  0.3876
  979MOL0     C32079  -1.284   8.387   9.480 -0.5705  0.4313 -0.1993
  979MOL0     C32080  -1.194   8.283   9.492  0.2404 -0.0227 -0.8843
  979MOL0     N32081  -0.647   8.326   9.408  0.2800 -0.0627 -0.3405
  979MOL0     N32082  -0.615   8.359   9.289 -0.4302  0.1380  0.5122
  979MOL0     C32083   0.494   8.708   8.850  0.1640  0.4510  0.9481
  979MOL0     C32084   0.627   8.723   8.870 -0.1695 -0.1279  0.4161
  979MOL0     C32085   1.049   8.649   9.025 -0.0951  0.7392  0.2405
  979MOL0     C32086   1.067   8.761   9.110  0.0913 -0.1856  0.3460
  979MOL0     C32087   1.201   8.800   9.138 -0.3120  0.6924 -0.9012
  979MOL0     C32088   1.308   8.745   9.069 -0.5286 -0.2743 -0.2629
  979MOL0     O32089   1.436   8.775   9.078 -0.5702 -0.0365 -0.9089
  979MOL0     C32090   1.497   8.861   9.173  0.4636 -0.0418 -0.2209
  979MOL0     C32091   1.647   8.847   9.192 -0.9313  0.2108  0.3314
  979MOL0     C32092   1.735   8.911   9.078  0.8488  0.1432  0.1633
  979MOL0     C32093   1.795   9.056   9.110 -0.0357  0.6796 -0.5222
  979MOL0     C32094   1.703   9.159   9.088  0.4983 -0.3012  0.2877
  979MOL0     C32095   1.630   9.259   9.085  0.6244  0.8610 -0.0333
  979MOL0     C32096   1.286   8.638   8.982  0.9173 -0.3619 -1.4711
  979MOL0     C32097   1.161   8.584   8.967 -0.5700  0.2208  0.3269
  979MOL0     H32098   0.639   8.513   9.140 -3.0644  3.7399  3.5661
  979MOL0     H32099   0.407   8.503   9.107  0.6732  1.0808  1.0073
  979MOL0     H32100   0.231   8.447   8.970  0.6508  0.2289  1.4173
  979MOL0     H32101   0.176   8.549   9.102 -0.0041 -0.5869  0.1103
  979MOL0     H32102   0.003   8.653   8.990 -0.1878  0.2087 -0.5537
  979MOL0     H32103   0.046   8.586   8.826 -1.5753  3.0978  0.2384
  979MOL0     H32104  -0.119   8.475   8.871  0.3989  1.0250  0.4057
  979MOL0     H32105   0.023   8.364   8.907  0.2646  0.2722 -1.0079
  979MOL0     H32106  -0.045   8.408   9.150 -1.0140 -1.2940  0.0721
  979MOL0     H32107  -0.172   8.524   9.084  1.8056  1.1946 -1.1778
  979MOL0     H32108  -0.199   8.262   8.949 -2.0119 -2.0657  1.2170
  979MOL0     H32109  -0.173   8.233   9.115  0.9811 -0.6584  0.2775
  979MOL0     H32110  -0.367   8.377   9.177  1.5133  0.8149 -0.8221
  979MOL0     H32111  -0.378   8.432   9.020 -0.5671 -0.9345 -0.8982
  979MOL0     H32112  -0.415   8.197   8.938 -1.0268 -1.0723 -0.9020
  979MOL0     H32113  -0.402   8.133   9.105 -0.2725  0.8445 -0.0468
  979MOL0     H32114  -0.639   8.151   9.036  1.1836 -2.8601  3.4558
  979MOL0     H32115  -0.606   8.329   9.019 -1.0191 -1.3972 -1.9782
  979MOL0     H32116  -0.555   8.043   9.277  2.2274 -0.3168  0.0003
  979MOL0     H32117  -0.532   8.051   9.544  0.4313  1.2183 -0.5609
  979MOL0     H32118  -0.630   8.157   9.639  1.0284  1.6460 -1.1402
  979MOL0     H32119  -0.720   7.899   9.529  1.5600 -0.5005 -0.5186
  979MOL0     H32120  -0.801   8.023   9.443  0.0912  3.1373  0.1028
  979MOL0     H32121  -0.775   8.028   9.752  1.9802  2.7661 -0.7670
  979MOL0     H32122  -0.902   7.949   9.653 -0.5498  0.1101 -0.5133
  979MOL0     H32123  -0.833   8.259   9.661 -2.9029  2.4929  3.3814
  979MOL0     H32124  -0.954   8.175   9.753  1.1692 -0.7663 -0.0932
  979MOL0     H32125  -0.943   8.429   9.636 -0.5798 -0.7314 -0.5962
  979MOL0     H32126  -0.988   8.673   9.677 -1.7523 -0.2781  3.5718
  979MOL0     H32127  -1.099   8.741   9.551  0.5573 -1.1381 -0.9513
  979MOL0     H32128  -1.153   8.707   9.714 -0.3212  0.6941 -0.8108
  979MOL0     H32129  -1.376   8.861   9.490 -0.6175  2.6447  1.0150
  979MOL0     H32130  -1.518   9.049   9.507 -1.6479  1.1893  0.5117
  979MOL0     H32131  -1.668   9.194   9.550  2.8772 -2.7521 -2.6878
  979MOL0     H32132  -1.701   9.190   9.381  2.2140  3.5990  1.0273
  979MOL0     H32133  -1.898   9.240   9.615 -0.6953  1.9290  0.2703
  979MOL0     H32134  -1.804   9.375   9.542  0.3450 -0.5308  1.3282
  979MOL0     H32135  -2.027   9.202   9.424 -0.4716  0.0677 -0.1733
  979MOL0     H32136  -1.930   9.310   9.325  0.2639  1.2408 -0.0569
  979MOL0     H32137  -2.027   9.509   9.470 -1.7700  0.1223 -0.0034
  979MOL0     H32138  -2.143   9.390   9.389  1.5906 -1.8924 -2.5095
  979MOL0     H32139  -2.067   9.387   9.685  0.2358 -0.9258 -0.1432
  979MOL0     H32140  -2.190   9.286   9.611  1.8993 -1.7129 -0.0631
  979MOL0     H32141  -2.219   9.586   9.630 -0.5162  0.0004 -2.2321
  979MOL0     H32142  -2.325   9.469   9.554 -1.2490  3.1737  0.7808
  979MOL0     H32143  -2.302   9.524   9.838  0.6564  0.9975 -1.3125
  979MOL0     H32144  -2.282   9.352   9.798  1.0431 -0.2850 -1.6266
  979MOL0     H32145  -2.515   9.460   9.847 -0.5488  1.9220 -1.2333
  979MOL0     H32146  -2.514   9.350   9.705 -2.7296 -0.9862  2.4945
  979MOL0     H32147  -1.870   8.795   9.490 -0.1334  1.6984 -0.5177
  979MOL0     H32148  -1.735   8.606   9.473 -1.3029  0.5668  1.6023
  979MOL0     H32149  -1.376   8.369   9.425 -0.4202  0.3531 -0.4263
  979MOL0     H32150  -1.215   8.193   9.435  0.0709  0.8648 -2.2794
  979MOL0     H32151   0.456   8.758   8.761  0.1988 -2.0748 -0.5710
  979MOL0     H32152   0.679   8.789   8.801 -1.3932 -1.0919 -1.5168
  979MOL0     H32153   0.989   8.811   9.166  0.7336 -1.2615  2.2755
  979MOL0     H32154   1.212   8.881   9.210 -1.5696 -2.3698  3.0755
  979MOL0     H32155   1.473   8.964   9.142 -0.4518 -0.6253 -1.5535
  979MOL0     H32156   1.446   8.846   9.269  1.5613 -3.5491 -0.0516
  979MOL0     H32157   1.653   8.738   9.201  0.5002  0.1829 -0.6328
  979MOL0     H32158   1.687   8.880   9.288  0.4594 -0.3648 -0.0247
  979MOL0     H32159   1.693   8.896   8.978 -0.9949  0.2473  0.8886
  979MOL0     H32160   1.816   8.837   9.072 -0.1710 -0.9094 -1.5732
  979MOL0     H32161   1.883   9.069   9.046 -0.4395 -0.4016 -1.3441
  979MOL0     H32162   1.823   9.072   9.214 -0.5088  1.4177 -0.5094
  979MOL0     H32163   1.572   9.348   9.071  1.3799  1.0723 -2.2007
  979MOL0     H32164   1.371   8.586   8.939  3.6052  1.4181  1.3219
  979MOL0     H32165   1.150   8.497   8.902  0.0579  0.5052 -0.1712
  980MOL0     O32166   5.161   7.277  10.483 -0.2523 -0.3306 -0.6298
  980MOL0     C32167   5.140   7.155  10.484  0.1581  0.3347  0.1541
  980MOL0     O32168   5.214   7.055  10.437 -0.6862 -0.6610 -0.6552
  980MOL0     C32169   5.329   7.075  10.363  0.2945  0.2809 -0.5992
  980MOL0     C32170   5.449   7.066  10.427 -0.1616  0.7095 -0.6767
  980MOL0     C32171   5.571   7.076  10.356 -0.2762  0.4432  0.0977
  980MOL0     C32172   5.571   7.113  10.219  0.8264  0.6974 -0.0942
  980MOL0     O32173   5.681   7.152  10.146 -0.3549  0.1403 -0.5164
  980MOL0     C32174   5.806   7.099  10.186  1.0933 -0.0397 -0.0628
  980MOL0     C32175   5.816   6.950  10.133  0.1592 -0.2513 -0.0137
  980MOL0     C32176   5.912   6.954  10.015 -0.6718 -0.5501 -0.9728
  980MOL0     C32177   5.910   6.810   9.954 -0.7018  0.1993 -0.2724
  980MOL0     C32178   6.016   6.799   9.849  0.1964 -0.1009 -0.4626
  980MOL0     C32179   6.051   6.653   9.811  1.0404  1.0653 -0.5256
  980MOL0     C32180   6.170   6.644   9.719  0.3835  0.5329 -0.1614
  980MOL0     C32181   6.184   6.496   9.665 -0.1066  0.2436  1.0555
  980MOL0     N32182   6.233   6.400   9.762  0.3457 -0.0898 -0.1005
  980MOL0     C32183   6.184   6.271   9.782  0.6456 -0.4021  0.0212
  980MOL0     C32184   6.276   6.207   9.863 -0.6708 -0.6325 -0.4207
  980MOL0     C32185   6.265   6.077   9.933  0.5395 -0.4704 -0.0122
  980MOL0     C32186   6.321   6.067  10.081 -0.1588  1.0587 -0.4169
  980MOL0     C32187   6.254   6.160  10.183  0.1618  0.0855 -0.2232
  980MOL0     C32188   6.097   6.139  10.198 -0.5791  0.1523 -0.9466
  980MOL0     O32189   6.037   6.184  10.079  0.1877 -0.0897 -0.5231
  980MOL0     C32190   5.905   6.222  10.091  0.1843  0.3531 -0.0591
  980MOL0     C32191   5.859   6.318   9.999  0.8364  0.9256  0.0657
  980MOL0     C32192   5.726   6.368  10.010  0.3095  0.3310 -0.0223
  980MOL0     C32193   5.684   6.474   9.912  1.1929  0.3655 -0.1141
  980MOL0     C32194   5.649   6.338  10.121 -0.2571  0.0725  0.3130
  980MOL0     C32195   5.516   6.394  10.141 -0.4233  0.0877  0.3070
  980MOL0     O32196   5.494   6.522  10.102  0.0609 -0.0409 -0.0166
  980MOL0     C32197   5.370   6.572  10.111 -0.3505 -0.5055  0.5293
  980MOL0     C32198   5.260   6.516  10.040 -0.6881 -0.4142  0.2826
  980MOL0     C32199   5.131   6.565  10.045  0.3633  0.1250  0.2387
  980MOL0     C32200   5.104   6.681  10.128 -1.0946  0.3467 -0.2792
  980MOL0     O32201   4.985   6.737  10.136 -0.2109  0.0631 -0.5777
  980MOL0     C32202   4.967   6.865  10.197  0.0253  1.3472  0.5716
  980MOL0     C32203   4.835   6.922  10.155 -0.2317  0.0095 -0.8000
  980MOL0     C32204   4.714   6.854  10.216  0.4565  0.4608 -0.3443
  980MOL0     C32205   4.579   6.903  10.184 -0.0540  0.8932  0.6160
  980MOL0     C32206   4.472   6.809  10.227  0.6446  0.1101 -0.5632
  980MOL0     C32207   4.436   6.712  10.119 -0.2625  0.8959 -0.1156
  980MOL0     C32208   4.355   6.777  10.003  0.8771  0.1971  0.1347
  980MOL0     C32209   4.278   6.668   9.922  0.8536  0.5155 -0.7406
  980MOL0    Cl32210   4.387   6.532   9.873 -0.0129  0.0329 -0.0183
  980MOL0     C32211   5.213   6.723  10.214  0.3501  0.1170 -0.6588
  980MOL0     C32212   5.339   6.671  10.204 -0.0830 -0.3664  0.3947
  980MOL0     O32213   5.432   6.315  10.182 -0.3053 -0.0061 -0.2232
  980MOL0     C32214   5.692   6.249  10.214  0.1927 -0.3305 -0.3791
  980MOL0     C32215   5.820   6.188  10.200 -0.2898  0.3838 -0.2280
  980MOL0     N32216   6.389   6.291   9.870 -0.8041  0.7535 -0.8974
  980MOL0     N32217   6.361   6.398   9.802  0.1912  0.2554  0.0548
  980MOL0     C32218   5.445   7.133  10.163  0.7201  0.6503 -0.0462
  980MOL0     C32219   5.324   7.104  10.235  0.1881 -0.1709 -0.1363
  980MOL0     C32220   5.004   7.110  10.529  0.2197  0.6243 -0.7893
  980MOL0     C32221   4.985   6.975  10.547  0.2819  0.2520  0.0666
  980MOL0     C32222   4.858   6.925  10.578  0.7434 -0.1448  0.9112
  980MOL0     C32223   4.752   7.013  10.603 -0.4105  0.7516  0.2280
  980MOL0     O32224   4.626   6.961  10.632  0.1994 -0.4322 -0.7991
  980MOL0     C32225   4.509   7.044  10.648 -0.6753 -0.4023  0.1346
  980MOL0     C32226   4.390   6.963  10.617 -0.1197 -0.1164 -0.7236
  980MOL0     C32227   4.258   7.028  10.659 -0.2960 -0.6552 -0.1575
  980MOL0     C32228   4.193   6.966  10.779 -0.4555 -0.3333  1.0427
  980MOL0     C32229   4.055   7.012  10.799  0.8552 -1.0497 -0.3458
  980MOL0     C32230   3.937   7.045  10.819  0.0966 -0.6311  0.3153
  980MOL0     C32231   4.773   7.151  10.587  0.6291  0.3576  0.7298
  980MOL0     C32232   4.894   7.196  10.548 -1.3788  0.2582  0.2419
  980MOL0     H32233   5.465   7.041  10.531  1.2880  1.4814 -0.6925
  980MOL0     H32234   5.659   7.052  10.413 -0.9296 -1.6041  0.3255
  980MOL0     H32235   5.876   7.165  10.133  1.1869  1.4694  1.8331
  980MOL0     H32236   5.824   7.108  10.293  2.4095  0.1082 -0.2753
  980MOL0     H32237   5.859   6.884  10.209  3.6806  1.4359 -0.3908
  980MOL0     H32238   5.717   6.910  10.107 -0.1120 -0.6874  1.5837
  980MOL0     H32239   5.873   7.023   9.939 -0.9073 -1.2713 -1.5212
  980MOL0     H32240   6.016   6.978  10.040 -0.6521 -2.2660  0.8162
  980MOL0     H32241   5.915   6.743  10.041 -0.6988  2.9205  1.9881
  980MOL0     H32242   5.814   6.795   9.906 -0.1626 -1.5687 -0.8830
  980MOL0     H32243   5.986   6.860   9.764  1.0307 -1.3842 -1.7292
  980MOL0     H32244   6.112   6.841   9.880  0.1358 -0.6834  0.5743
  980MOL0     H32245   6.062   6.588   9.898  2.1172 -2.4445 -3.0787
  980MOL0     H32246   5.965   6.619   9.753  0.9013  2.1580 -0.9922
  980MOL0     H32247   6.150   6.701   9.627 -0.1608  0.7418  0.0838
  980MOL0     H32248   6.260   6.687   9.764  0.2297 -1.2500  2.0025
  980MOL0     H32249   6.256   6.486   9.584  0.2158  0.5917  1.2950
  980MOL0     H32250   6.093   6.455   9.620  1.8656 -1.6003 -1.5816
  980MOL0     H32251   6.087   6.230   9.753  1.2485 -0.4777 -2.0759
  980MOL0     H32252   6.159   6.051   9.925  0.4258  0.1737 -0.6672
  980MOL0     H32253   6.329   6.020   9.865 -0.2385 -0.3221 -0.9032
  980MOL0     H32254   6.424   6.104  10.076 -0.1123  1.1264  0.7853
  980MOL0     H32255   6.317   5.960  10.105 -2.1795  0.6951 -2.0830
  980MOL0     H32256   6.275   6.262  10.148 -0.1879 -0.0398 -0.8006
  980MOL0     H32257   6.299   6.139  10.281 -0.0880  1.6764  0.2572
  980MOL0     H32258   6.057   6.200  10.279  0.5925  1.5016 -1.3571
  980MOL0     H32259   6.071   6.037  10.228  1.2342 -0.2006 -0.4097
  980MOL0     H32260   5.929   6.339   9.918  0.1051  0.1601 -0.7764
  980MOL0     H32261   5.734   6.457   9.817  1.7748 -0.5554  0.3470
  980MOL0     H32262   5.578   6.479   9.885  1.4196 -0.2733 -1.1916
  980MOL0     H32263   5.701   6.577   9.945 -3.2439  1.4101 -0.4132
  980MOL0     H32264   5.281   6.437   9.969  0.6852  2.4045 -2.6943
  980MOL0     H32265   5.055   6.531   9.976 -1.6581 -0.7619  2.7211
  980MOL0     H32266   4.963   6.855  10.306  0.1377 -1.2176  0.3951
  980MOL0     H32267   5.046   6.938  10.176 -0.8342  1.7355 -1.4520
  980MOL0     H32268   4.841   7.028  10.183 -0.9184  0.2544 -1.5281
  980MOL0     H32269   4.820   6.914  10.047  2.5363 -0.5031 -1.1939
  980MOL0     H32270   4.729   6.869  10.323 -0.5604 -0.6648 -0.0206
  980MOL0     H32271   4.729   6.748  10.194  3.1248  0.4431  1.1041
  980MOL0     H32272   4.555   6.985  10.253 -2.2671  1.2363 -0.4736
  980MOL0     H32273   4.573   6.931  10.078 -1.9902  0.4205  0.5761
  980MOL0     H32274   4.377   6.848  10.266  0.8314 -1.6248  1.8439
  980MOL0     H32275   4.497   6.747  10.313 -1.9349  0.9808  0.9605
  980MOL0     H32276   4.529   6.669  10.080 -0.3994 -1.0778  1.5901
  980MOL0     H32277   4.376   6.630  10.161 -1.3818  1.1726 -1.1086
  980MOL0     H32278   4.433   6.811   9.934  0.7773  2.9319  1.2541
  980MOL0     H32279   4.297   6.865  10.034  1.7192 -0.0782  2.6700
  980MOL0     H32280   4.235   6.717   9.834 -0.0893  1.5658  0.2696
  980MOL0     H32281   4.201   6.630   9.990 -0.5450  2.7242 -0.9802
  980MOL0     H32282   5.196   6.793  10.295  0.0573  0.2032 -0.7937
  980MOL0     H32283   5.423   6.706  10.264 -0.1457  0.2937  0.1078
  980MOL0     H32284   5.646   6.228  10.310  0.5243  2.2548  0.4450
  980MOL0     H32285   5.842   6.122  10.283 -1.8871 -0.1635 -0.1962
  980MOL0     H32286   5.441   7.169  10.061 -2.8744  1.5654  0.3116
  980MOL0     H32287   5.228   7.122  10.187  0.1461  3.1885  0.9235
  980MOL0     H32288   5.062   6.898  10.537 -0.1918 -0.1590 -0.5126
  980MOL0     H32289   4.844   6.821  10.606 -0.5985  0.2913  1.9927
  980MOL0     H32290   4.508   7.082  10.750 -0.4644  1.5415 -0.5442
  980MOL0     H32291   4.497   7.133  10.586 -2.0789  0.5158  1.6655
  980MOL0     H32292   4.407   6.867  10.668  0.7321 -0.9952 -2.5541
  980MOL0     H32293   4.386   6.938  10.511  0.0990 -0.4494 -0.6584
  980MOL0     H32294   4.188   7.034  10.575 -0.5593 -1.7086 -0.0260
  980MOL0     H32295   4.282   7.133  10.679 -0.7875 -0.7634  1.0942
  980MOL0     H32296   4.254   6.989  10.866 -0.2002  0.3087  0.6925
  980MOL0     H32297   4.178   6.859  10.760  2.3650 -0.5606 -0.4363
  980MOL0     H32298   3.839   7.072  10.854 -0.6525  0.6653 -2.5099
  980MOL0     H32299   4.697   7.226  10.608  2.5408  1.6815  3.4805
  980MOL0     H32300   4.901   7.298  10.514  0.2955 -0.4472 -1.7178
  981MOL0     O32301   0.977   8.720   4.133 -0.3552  0.0203  0.7853
  981MOL0     C32302   0.954   8.781   4.029 -0.2792  0.0648  0.4030
  981MOL0     O32303   0.830   8.824   3.982 -0.3838  0.2550 -0.2948
  981MOL0     C32304   0.720   8.781   4.046  0.2588 -0.2184 -0.2363
  981MOL0     C32305   0.698   8.847   4.164 -0.5596 -0.6126 -0.3954
  981MOL0     C32306   0.599   8.797   4.250 -0.2317 -0.3422 -0.7112
  981MOL0     C32307   0.537   8.675   4.207  0.0924 -0.5446  0.4272
  981MOL0     O32308   0.441   8.614   4.284  0.2888  0.1693  0.2793
  981MOL0     C32309   0.483   8.561   4.416  0.1536 -0.1763 -0.7321
  981MOL0     C32310   0.381   8.593   4.518 -0.4474 -0.5435  0.2687
  981MOL0     C32311   0.250   8.519   4.484  0.2897  0.5599  0.2446
  981MOL0     C32312   0.150   8.567   4.581 -0.4162  0.0405  0.0583
  981MOL0     C32313   0.014   8.490   4.582  0.8165 -0.2577  0.8640
  981MOL0     C32314  -0.088   8.530   4.468 -0.5242  0.7105  0.3369
  981MOL0     C32315  -0.221   8.466   4.489  0.0223  0.5503 -0.2809
  981MOL0     C32316  -0.307   8.496   4.364  0.3749  0.1818  0.3743
  981MOL0     N32317  -0.435   8.424   4.373 -0.6995  0.2137  0.4907
  981MOL0     C32318  -0.540   8.438   4.463  0.1815  0.6693  0.0991
  981MOL0     C32319  -0.627   8.342   4.431 -0.0993 -0.6247 -0.3465
  981MOL0     C32320  -0.736   8.291   4.511 -0.6569  0.1356 -0.7071
  981MOL0     C32321  -0.867   8.375   4.492 -0.2358 -0.5929  0.1505
  981MOL0     C32322  -0.922   8.371   4.351  0.3184  1.3447 -0.6195
  981MOL0     C32323  -1.030   8.468   4.333  0.2355 -0.3903  1.0214
  981MOL0     O32324  -1.085   8.440   4.197 -0.2005  0.7838 -0.3364
  981MOL0     C32325  -1.210   8.486   4.163 -0.7725  1.2092  0.6614
  981MOL0     C32326  -1.275   8.406   4.074  0.2799  0.1897 -0.0695
  981MOL0     C32327  -1.418   8.442   4.053  0.3046  1.0684 -0.7056
  981MOL0     C32328  -1.472   8.369   3.941 -0.2352 -0.2375 -0.4127
  981MOL0     C32329  -1.487   8.542   4.136 -0.0470  0.4629  0.7863
  981MOL0     C32330  -1.637   8.564   4.127  0.4432  0.3689  0.1675
  981MOL0     O32331  -1.692   8.639   4.222  0.5906  0.1292 -0.7382
  981MOL0     C32332  -1.818   8.694   4.235  0.4184  1.0945 -0.2238
  981MOL0     C32333  -1.921   8.690   4.144 -0.2836  0.2757 -0.3824
  981MOL0     C32334  -2.046   8.733   4.177 -0.3767 -0.1260 -0.8532
  981MOL0     C32335  -2.066   8.789   4.301 -0.1888 -0.5622  0.5123
  981MOL0     O32336  -2.189   8.833   4.360  0.2639 -0.2552  0.5839
  981MOL0     C32337  -2.304   8.830   4.267  0.2428  0.6105  0.1763
  981MOL0     C32338  -2.367   8.688   4.271 -0.0024  0.0550  0.6889
  981MOL0     C32339  -2.476   8.661   4.382 -0.5725  0.7945 -0.3971
  981MOL0     C32340  -2.584   8.773   4.372  0.4311  0.4352  0.3997
  981MOL0     C32341  -2.699   8.729   4.466 -0.5426  0.5378  0.7423
  981MOL0     C32342  -2.825   8.812   4.461 -0.1628 -0.2386 -0.4101
  981MOL0     C32343  -2.947   8.731   4.510 -0.4189 -0.5277 -0.0177
  981MOL0     C32344  -3.024   8.672   4.391 -1.0737 -0.9462  0.3433
  981MOL0    Cl32345  -3.184   8.600   4.448 -0.2982 -0.0231 -0.5367
  981MOL0     C32346  -1.958   8.795   4.395  0.4598 -0.2636  0.3642
  981MOL0     C32347  -1.836   8.745   4.361  0.4252 -0.5908 -0.1566
  981MOL0     O32348  -1.698   8.502   4.042  0.3421 -0.2746 -0.5461
  981MOL0     C32349  -1.409   8.609   4.231 -0.0107 -0.0293 -0.6634
  981MOL0     C32350  -1.276   8.581   4.245 -0.4481  0.1126 -0.1709
  981MOL0     N32351  -0.584   8.281   4.312  0.7792  0.1130 -1.3078
  981MOL0     N32352  -0.470   8.328   4.274 -0.1788 -0.0646 -0.1454
  981MOL0     C32353   0.549   8.625   4.076 -1.4257  0.6596  0.1774
  981MOL0     C32354   0.651   8.670   3.996  0.6942 -0.8779  0.0310
  981MOL0     C32355   1.065   8.821   3.949 -0.2171  1.0990  0.4809
  981MOL0     C32356   1.050   8.903   3.835  0.7042  0.4342  0.6971
  981MOL0     C32357   1.146   8.919   3.740  0.4959  0.0918  0.2384
  981MOL0     C32358   1.274   8.878   3.758 -0.2134  0.1695  0.6523
  981MOL0     O32359   1.362   8.908   3.655  0.2244 -0.3993 -0.4542
  981MOL0     C32360   1.486   8.834   3.668  0.1564 -0.1457  0.1716
  981MOL0     C32361   1.568   8.841   3.540  0.0046  0.6293 -0.4267
  981MOL0     C32362   1.549   8.715   3.454  0.3154 -0.6052 -0.3293
  981MOL0     C32363   1.634   8.702   3.328 -0.1612  0.1462 -0.0904
  981MOL0     C32364   1.776   8.703   3.359  0.5813  0.4879  0.4885
  981MOL0     C32365   1.889   8.713   3.387 -0.0249 -0.0277 -0.5771
  981MOL0     C32366   1.290   8.806   3.882  0.4266 -0.1545 -0.0043
  981MOL0     C32367   1.186   8.777   3.970 -0.3505  1.1504  0.5141
  981MOL0     H32368   0.773   8.917   4.198 -0.7332 -0.3609 -0.5280
  981MOL0     H32369   0.592   8.840   4.350 -1.1792  1.8678 -1.6427
  981MOL0     H32370   0.492   8.452   4.412  1.6293 -0.0842 -0.4961
  981MOL0     H32371   0.576   8.607   4.452 -2.2447  3.1514  1.8976
  981MOL0     H32372   0.418   8.561   4.616 -0.5234  2.8969  1.5803
  981MOL0     H32373   0.379   8.701   4.534 -0.2544 -0.8851  3.1674
  981MOL0     H32374   0.209   8.526   4.383 -1.0692  0.3055  0.7599
  981MOL0     H32375   0.252   8.410   4.493 -3.0396  0.2030 -1.6807
  981MOL0     H32376   0.192   8.568   4.682  1.0806  2.3427 -0.5178
  981MOL0     H32377   0.135   8.673   4.558  2.3316  0.3196 -0.8151
  981MOL0     H32378   0.026   8.384   4.561 -2.3898 -0.9839  1.9910
  981MOL0     H32379  -0.038   8.529   4.671 -0.1384  0.6801 -0.0670
  981MOL0     H32380  -0.098   8.638   4.458  1.5135  1.0324  1.2208
  981MOL0     H32381  -0.049   8.492   4.373 -0.1342  0.4401  0.6012
  981MOL0     H32382  -0.215   8.361   4.521 -3.7965  0.6847  1.4519
  981MOL0     H32383  -0.260   8.521   4.576  1.0180 -1.0231  1.2306
  981MOL0     H32384  -0.250   8.462   4.277 -0.7225  0.6104 -0.5447
  981MOL0     H32385  -0.312   8.604   4.348 -1.5920 -0.2965 -3.9120
  981MOL0     H32386  -0.538   8.478   4.564 -0.2841 -1.3682  0.9484
  981MOL0     H32387  -0.765   8.189   4.482 -0.9873 -0.2942  1.0171
  981MOL0     H32388  -0.701   8.288   4.615  2.0461  0.4023 -1.5469
  981MOL0     H32389  -0.852   8.482   4.513  0.2353 -0.7003  0.3640
  981MOL0     H32390  -0.938   8.347   4.570  0.4278 -1.8102  0.3485
  981MOL0     H32391  -0.954   8.268   4.337  1.3266  0.8686  0.4108
  981MOL0     H32392  -0.847   8.402   4.278 -0.0297  1.0798 -1.0987
  981MOL0     H32393  -1.005   8.574   4.341  1.2272 -0.6686  1.8159
  981MOL0     H32394  -1.107   8.441   4.407  0.6604 -1.5785  1.0516
  981MOL0     H32395  -1.224   8.332   4.014 -1.7029  0.1081 -1.7798
  981MOL0     H32396  -1.400   8.345   3.862  0.1244  2.7406 -1.1083
  981MOL0     H32397  -1.504   8.270   3.975  0.7898  0.1684  1.9112
  981MOL0     H32398  -1.555   8.427   3.899  0.1988  2.3171  1.9953
  981MOL0     H32399  -1.898   8.636   4.052  0.9353 -2.1408  1.2372
  981MOL0     H32400  -2.125   8.717   4.104  1.2183 -0.6427 -2.5507
  981MOL0     H32401  -2.373   8.910   4.297  1.8281  1.5172  1.5361
  981MOL0     H32402  -2.273   8.863   4.167  0.0353 -1.2393 -0.5349
  981MOL0     H32403  -2.406   8.669   4.170  3.7138 -0.5129 -0.8040
  981MOL0     H32404  -2.295   8.609   4.293 -0.1124 -0.1756  0.2475
  981MOL0     H32405  -2.429   8.666   4.481  0.6502  0.9395 -0.9611
  981MOL0     H32406  -2.525   8.564   4.369  0.6935  0.0322  0.2806
  981MOL0     H32407  -2.552   8.872   4.406 -0.7474  1.0902 -0.3189
  981MOL0     H32408  -2.617   8.780   4.268  1.1879 -2.0996 -0.0914
  981MOL0     H32409  -2.667   8.730   4.571  2.5211  1.9249 -0.0778
  981MOL0     H32410  -2.730   8.630   4.434  0.5972  0.4878 -0.3002
  981MOL0     H32411  -2.811   8.901   4.522  0.4901 -1.7750  1.7695
  981MOL0     H32412  -2.846   8.855   4.362 -1.5175  1.0061  0.3795
  981MOL0     H32413  -3.020   8.792   4.563 -0.8509 -1.8596  0.9849
  981MOL0     H32414  -2.914   8.649   4.574  0.0007 -1.2736 -1.1512
  981MOL0     H32415  -2.963   8.597   4.340 -0.7670  0.1621 -0.9742
  981MOL0     H32416  -3.043   8.761   4.331 -1.9691 -1.5799 -0.3252
  981MOL0     H32417  -1.988   8.830   4.493 -3.8993  0.6625 -1.0853
  981MOL0     H32418  -1.750   8.758   4.425  1.3877 -1.6213 -1.1923
  981MOL0     H32419  -1.446   8.699   4.277  2.3701  2.8418 -3.8196
  981MOL0     H32420  -1.220   8.637   4.319 -1.4004 -0.5966  1.1216
  981MOL0     H32421   0.485   8.544   4.043  1.8333 -2.6332  1.2004
  981MOL0     H32422   0.672   8.617   3.903 -1.1273 -0.8266 -0.4450
  981MOL0     H32423   0.951   8.939   3.810  0.2672 -0.9461  0.3477
  981MOL0     H32424   1.128   8.962   3.642 -0.4162  1.2801  0.9017
  981MOL0     H32425   1.538   8.869   3.758  1.3064  0.4196 -0.6846
  981MOL0     H32426   1.467   8.728   3.685 -3.0060  0.5086  1.5064
  981MOL0     H32427   1.672   8.855   3.573 -0.2600  0.7231  0.4061
  981MOL0     H32428   1.538   8.932   3.488 -0.0159  0.4384 -0.7491
  981MOL0     H32429   1.450   8.701   3.408  1.1754  0.9481 -2.8508
  981MOL0     H32430   1.568   8.631   3.521 -3.1062  0.0373  1.7094
  981MOL0     H32431   1.617   8.791   3.267 -2.5243  0.0038  0.2619
  981MOL0     H32432   1.596   8.616   3.273  0.2792  0.2065 -0.4943
  981MOL0     H32433   1.991   8.736   3.410 -1.4451  2.8282  4.4835
  981MOL0     H32434   1.388   8.765   3.901 -0.5629 -2.8967 -0.2488
  981MOL0     H32435   1.219   8.713   4.052  1.8813 -2.0470 -2.5793
  982MOL0     O32436  10.612   5.836  10.269 -0.2218  0.6744 -0.1354
  982MOL0     C32437  10.705   5.787  10.213  0.1269 -0.8488 -0.0152
  982MOL0     O32438  10.706   5.662  10.157  0.4288  0.2295 -0.2063
  982MOL0     C32439  10.589   5.595  10.169 -0.0431 -0.2071  0.6246
  982MOL0     C32440  10.478   5.627  10.094  0.1511  0.1427 -0.0548
  982MOL0     C32441  10.355   5.569  10.119 -0.1036  0.1169  0.6180
  982MOL0     C32442  10.350   5.479  10.222  0.3979  0.9177 -1.0367
  982MOL0     O32443  10.220   5.434  10.237 -1.2073  0.5247  0.1870
  982MOL0     C32444  10.178   5.392  10.366 -0.6596  0.2100  0.3408
  982MOL0     C32445  10.023   5.393  10.372  0.4481 -0.1002  0.0426
  982MOL0     C32446   9.967   5.522  10.348  0.7804 -0.5313  0.4556
  982MOL0     C32447   9.820   5.515  10.337  0.1886 -0.7732  0.5315
  982MOL0     C32448   9.757   5.647  10.295  0.0171 -0.3540  0.9338
  982MOL0     C32449   9.611   5.635  10.317 -0.1115  0.6133 -0.1003
  982MOL0     C32450   9.536   5.770  10.282  0.8810 -0.1246 -0.7522
  982MOL0     C32451   9.383   5.754  10.314 -0.6182 -0.3659  0.0273
  982MOL0     N32452   9.309   5.718  10.191 -0.5571 -0.6174  0.3160
  982MOL0     C32453   9.261   5.803  10.100 -0.1692 -0.7305  0.7323
  982MOL0     C32454   9.222   5.728   9.999  0.3411  1.4272 -0.0403
  982MOL0     C32455   9.141   5.768   9.887  0.4034 -0.6593 -0.3860
  982MOL0     C32456   9.109   5.658   9.784  0.1278 -0.3720  0.4550
  982MOL0     C32457   9.006   5.713   9.681  0.3351 -0.7293  0.0558
  982MOL0     C32458   8.992   5.612   9.564 -0.5731 -0.0321  1.0271
  982MOL0     O32459   9.114   5.592   9.490  0.7877  0.3061  0.9992
  982MOL0     C32460   9.104   5.489   9.407 -0.0668 -0.0768 -0.8169
  982MOL0     C32461   9.219   5.417   9.392  0.5110  0.2336 -0.1905
  982MOL0     C32462   9.222   5.293   9.310 -0.0123 -0.8203 -0.6219
  982MOL0     C32463   9.361   5.225   9.288 -0.1276 -0.2975 -0.1681
  982MOL0     C32464   9.106   5.249   9.244  0.1444  0.0790  0.9053
  982MOL0     C32465   9.098   5.123   9.154 -1.2549  0.0784 -0.2243
  982MOL0     O32466   9.184   5.024   9.191  0.2464 -0.2917  0.3161
  982MOL0     C32467   9.189   4.902   9.121 -0.3925 -0.1046 -0.2028
  982MOL0     C32468   9.323   4.861   9.093  0.0331 -0.3843  0.3480
  982MOL0     C32469   9.338   4.737   9.027  0.0550  0.8904  0.4657
  982MOL0     C32470   9.227   4.653   8.983  0.8516 -0.5901 -1.4633
  982MOL0     O32471   9.233   4.538   8.917  0.3128 -0.1376  0.4004
  982MOL0     C32472   9.346   4.458   8.915 -0.3662  0.2810 -0.3214
  982MOL0     C32473   9.340   4.370   9.033 -0.5679 -0.3420  0.5350
  982MOL0     C32474   9.366   4.430   9.175  0.0624 -0.1119 -0.5587
  982MOL0     C32475   9.516   4.471   9.185  0.3392 -0.5213 -0.2802
  982MOL0     C32476   9.554   4.513   9.331  0.2206 -0.4728  0.5501
  982MOL0     C32477   9.489   4.641   9.375  0.5835 -0.2297 -0.2545
  982MOL0     C32478   9.540   4.708   9.499 -0.7811 -0.3660 -0.5578
  982MOL0     C32479   9.507   4.858   9.531 -0.0312  0.4750  0.2726
  982MOL0    Cl32480   9.330   4.863   9.555 -0.1595  0.0758  0.2288
  982MOL0     C32481   9.096   4.707   9.009 -0.0457  0.0382  0.0897
  982MOL0     C32482   9.079   4.831   9.075 -0.4326  0.2851 -0.6546
  982MOL0     O32483   9.015   5.114   9.063  0.0060  0.3726 -0.5155
  982MOL0     C32484   8.993   5.334   9.261 -0.1665  0.1024 -0.1733
  982MOL0     C32485   8.987   5.449   9.335 -0.0292 -0.3058  0.3346
  982MOL0     N32486   9.245   5.593  10.025  0.4309  0.2962  0.6364
  982MOL0     N32487   9.297   5.589  10.141  0.6815 -0.4103  0.7647
  982MOL0     C32488  10.453   5.448  10.313 -0.5038 -0.9829  0.1400
  982MOL0     C32489  10.573   5.512  10.286  0.1277  0.9745 -0.2047
  982MOL0     C32490  10.825   5.874  10.211  0.3546  0.6318  0.5449
  982MOL0     C32491  10.826   6.010  10.252  0.2405 -0.1270  0.5509
  982MOL0     C32492  10.940   6.085  10.259  0.1067  0.2897 -0.2460
  982MOL0     C32493  11.060   6.037  10.205 -0.1336 -0.4165 -0.7741
  982MOL0     O32494  11.171   6.108  10.213 -0.7598  0.0682 -0.6034
  982MOL0     C32495  11.243   6.136  10.089 -0.7585 -0.1215 -0.2287
  982MOL0     C32496  11.298   6.276  10.087 -0.4387  0.4211  0.5210
  982MOL0     C32497  11.359   6.310   9.950  0.9513  0.3191 -0.3277
  982MOL0     C32498  11.448   6.439   9.963 -0.6432  0.3088  0.0586
  982MOL0     C32499  11.465   6.498   9.831 -0.2933 -0.4167 -0.5797
  982MOL0     C32500  11.486   6.542   9.723 -0.0482 -0.5919 -0.0295
  982MOL0     C32501  11.067   5.907  10.157 -0.3086  0.1327  0.1934
  982MOL0     C32502  10.954   5.825  10.166  0.1606  0.6954 -0.8528
  982MOL0     H32503  10.489   5.699  10.014  1.4498  0.6705  0.5601
  982MOL0     H32504  10.269   5.592  10.057  1.0111 -1.4729 -1.6498
  982MOL0     H32505  10.222   5.293  10.385  2.5679  1.3630 -0.3941
  982MOL0     H32506  10.208   5.472  10.435  0.4362  0.6043 -0.5578
  982MOL0     H32507   9.985   5.315  10.305 -0.5547 -1.9600  2.6280
  982MOL0     H32508   9.986   5.357  10.468  1.3124 -1.2348 -0.0169
  982MOL0     H32509   9.999   5.597  10.421  0.6443 -0.2943  0.2718
  982MOL0     H32510  10.001   5.555  10.250  1.1558  0.5060  0.9230
  982MOL0     H32511   9.792   5.442  10.261  3.3077 -0.5626 -1.0040
  982MOL0     H32512   9.778   5.466  10.426  0.8394 -1.2677  0.5692
  982MOL0     H32513   9.799   5.726  10.358 -2.4148  0.5286  1.5512
  982MOL0     H32514   9.780   5.683  10.194 -1.5218 -0.9237  0.3589
  982MOL0     H32515   9.569   5.548  10.265 -0.8739  0.1994  1.1768
  982MOL0     H32516   9.594   5.613  10.423  1.8697  0.0958  0.1471
  982MOL0     H32517   9.570   5.841  10.358  0.5189 -0.2042 -0.5114
  982MOL0     H32518   9.551   5.798  10.178 -0.7337  1.0531 -0.7091
  982MOL0     H32519   9.337   5.842  10.359 -0.4674 -0.8420  1.1444
  982MOL0     H32520   9.378   5.670  10.385  2.4675 -1.1518 -0.5337
  982MOL0     H32521   9.258   5.912  10.099 -1.9293 -0.7593  0.5451
  982MOL0     H32522   9.042   5.787   9.930 -0.2351 -2.3747 -1.0403
  982MOL0     H32523   9.185   5.857   9.841  0.6523  0.3322  1.6691
  982MOL0     H32524   9.061   5.572   9.831  0.1921 -0.6998 -0.0586
  982MOL0     H32525   9.206   5.631   9.740 -0.1355 -1.4137  0.4887
  982MOL0     H32526   9.043   5.815   9.662 -0.7878 -0.6617 -2.0429
  982MOL0     H32527   8.904   5.716   9.719 -0.7331  2.4533 -2.6481
  982MOL0     H32528   8.899   5.622   9.508 -0.2177 -1.8958  0.0168
  982MOL0     H32529   8.968   5.521   9.619  1.8642  0.3297  2.8972
  982MOL0     H32530   9.306   5.445   9.451  0.0410  0.5214  0.3775
  982MOL0     H32531   9.435   5.299   9.319 -0.9391  1.4389 -2.1433
  982MOL0     H32532   9.360   5.129   9.342  1.6165 -1.5854 -2.2531
  982MOL0     H32533   9.376   5.202   9.182  0.8092 -2.1402  0.3167
  982MOL0     H32534   9.404   4.923   9.131 -0.3434  0.2574  0.1245
  982MOL0     H32535   9.439   4.714   8.998 -0.9116 -0.6990 -1.9367
  982MOL0     H32536   9.345   4.392   8.828 -1.0206  1.2825 -1.0880
  982MOL0     H32537   9.431   4.526   8.904 -0.9751  0.9317 -1.1329
  982MOL0     H32538   9.238   4.330   9.038 -1.4883  1.8488  0.6021
  982MOL0     H32539   9.416   4.297   9.003 -0.0672  0.9009 -1.3789
  982MOL0     H32540   9.346   4.351   9.247 -0.4518 -1.2160 -1.8565
  982MOL0     H32541   9.307   4.518   9.205 -0.7970 -0.5046 -1.0530
  982MOL0     H32542   9.582   4.393   9.145  0.6361  0.4314 -1.7390
  982MOL0     H32543   9.531   4.563   9.128 -1.7817  1.6876  2.4533
  982MOL0     H32544   9.663   4.525   9.330  0.3038 -1.0533 -1.0853
  982MOL0     H32545   9.521   4.431   9.396  0.2743 -1.5097 -0.6746
  982MOL0     H32546   9.499   4.720   9.301  1.5057 -2.4723 -2.6975
  982MOL0     H32547   9.381   4.629   9.386  0.4403  1.5887  0.6257
  982MOL0     H32548   9.647   4.689   9.516 -0.9765 -0.6750  0.4100
  982MOL0     H32549   9.497   4.649   9.581  0.7816 -2.3465 -1.0660
  982MOL0     H32550   9.547   4.926   9.455  2.6671 -1.0780  0.1970
  982MOL0     H32551   9.556   4.877   9.627 -0.2716  1.3786  0.2239
  982MOL0     H32552   9.009   4.662   8.962 -0.4503  0.9378 -0.0480
  982MOL0     H32553   8.982   4.872   9.100 -0.0555  0.1421  1.1096
  982MOL0     H32554   8.906   5.318   9.198  0.0517 -0.3431 -0.3686
  982MOL0     H32555   8.898   5.509   9.320 -0.4422 -1.0305 -0.1838
  982MOL0     H32556  10.434   5.401  10.409 -1.2679 -1.3008 -0.1582
  982MOL0     H32557  10.655   5.495  10.356  0.3835  1.1421 -0.4659
  982MOL0     H32558  10.731   6.052  10.285 -1.2373 -0.1842 -3.0986
  982MOL0     H32559  10.928   6.184  10.302  1.0103  0.7204 -0.9622
  982MOL0     H32560  11.324   6.063  10.087 -1.2818 -0.8047  1.6471
  982MOL0     H32561  11.169   6.131  10.008 -1.8015 -3.0859  0.7669
  982MOL0     H32562  11.375   6.286  10.164  0.5871  1.3561 -0.5924
  982MOL0     H32563  11.215   6.346  10.099 -1.7954 -1.1023  0.3961
  982MOL0     H32564  11.276   6.333   9.883 -0.1419 -1.2360  0.4304
  982MOL0     H32565  11.404   6.223   9.901  0.2176 -1.2249  1.5897
  982MOL0     H32566  11.548   6.422  10.003  0.6925  2.9463 -1.8127
  982MOL0     H32567  11.390   6.515  10.017 -2.8681  0.0453 -1.7847
  982MOL0     H32568  11.524   6.572   9.628 -2.4999  0.9985 -0.6083
  982MOL0     H32569  11.161   5.865  10.123 -1.5873 -2.9359  0.1165
  982MOL0     H32570  10.963   5.719  10.150  2.5976  0.8656 -0.9679
  983MOL0     O32571   9.586   3.884   1.228 -0.7839 -0.2542 -0.9920
  983MOL0     C32572   9.630   3.783   1.278  0.4071  0.8532 -0.8289
  983MOL0     O32573   9.562   3.701   1.369 -0.3499  0.5458  0.1934
  983MOL0     C32574   9.427   3.734   1.393 -0.3838 -0.1273  0.0660
  983MOL0     C32575   9.345   3.632   1.428  0.1466  0.4423  0.2407
  983MOL0     C32576   9.213   3.652   1.484 -0.5739 -0.6838  0.8713
  983MOL0     C32577   9.161   3.782   1.487  0.6477  0.9595  0.8594
  983MOL0     O32578   9.037   3.808   1.541  0.0215  0.2154  0.0618
  983MOL0     C32579   8.955   3.706   1.598 -0.4434  0.1742 -0.2873
  983MOL0     C32580   8.850   3.784   1.669  0.4612  0.4105 -0.5934
  983MOL0     C32581   8.714   3.710   1.642 -0.0958  0.5393  0.2355
  983MOL0     C32582   8.653   3.734   1.500  0.3669  0.4136 -0.2626
  983MOL0     C32583   8.605   3.879   1.484  0.9231 -0.7532 -0.1147
  983MOL0     C32584   8.525   3.891   1.346  0.8087 -1.0539 -0.8031
  983MOL0     C32585   8.445   4.023   1.318 -0.5844  0.6360 -0.1894
  983MOL0     C32586   8.310   4.003   1.392  0.2323 -0.1881 -0.0033
  983MOL0     N32587   8.232   4.129   1.391  1.0893 -0.1854 -0.4421
  983MOL0     C32588   8.189   4.204   1.500  0.3624 -0.3148 -0.1596
  983MOL0     C32589   8.127   4.305   1.440  0.7202  0.6360  0.4147
  983MOL0     C32590   8.064   4.422   1.500  0.6912  0.5400 -0.8115
  983MOL0     C32591   8.136   4.559   1.469  0.4448 -0.3947  0.4024
  983MOL0     C32592   8.265   4.588   1.563  0.1270 -0.7972  0.2783
  983MOL0     C32593   8.318   4.735   1.559 -0.0785 -0.4749 -0.4259
  983MOL0     O32594   8.196   4.812   1.572 -0.1718  0.3081 -0.0634
  983MOL0     C32595   8.217   4.942   1.597  0.0039  0.4570  0.5225
  983MOL0     C32596   8.331   5.018   1.555 -0.4656  0.0208 -0.8457
  983MOL0     C32597   8.352   5.154   1.594  0.2792 -0.1997  0.1264
  983MOL0     C32598   8.472   5.231   1.536 -0.0787  0.4165  0.8817
  983MOL0     C32599   8.262   5.213   1.685  0.5617  0.1182  0.0124
  983MOL0     C32600   8.272   5.351   1.736 -0.7067  0.4846  0.1614
  983MOL0     O32601   8.293   5.457   1.652  0.8012 -0.3954  0.2384
  983MOL0     C32602   8.326   5.586   1.708  0.1507  0.0118  0.5379
  983MOL0     C32603   8.456   5.627   1.735 -0.3374 -0.3681 -1.0065
  983MOL0     C32604   8.471   5.738   1.814  0.5152 -0.3278 -0.3405
  983MOL0     C32605   8.356   5.811   1.859  0.2121 -0.7908  0.1670
  983MOL0     O32606   8.361   5.921   1.944 -0.1408  0.0897 -0.2521
  983MOL0     C32607   8.482   5.996   1.958 -0.0803 -0.1107 -0.4231
  983MOL0     C32608   8.431   6.130   1.957 -0.0660 -0.2220 -0.2661
  983MOL0     C32609   8.379   6.183   2.099 -0.0979 -0.0981  0.1750
  983MOL0     C32610   8.315   6.326   2.068  0.7913  0.1614  0.4744
  983MOL0     C32611   8.273   6.391   2.198  1.0442 -0.1002 -0.5597
  983MOL0     C32612   8.265   6.550   2.197  0.6923  0.2797 -0.7411
  983MOL0     C32613   8.170   6.614   2.088 -0.4839 -0.2024 -0.5746
  983MOL0     C32614   8.215   6.748   2.041  0.5218  0.0782 -0.8855
  983MOL0    Cl32615   8.226   6.840   2.193 -0.0194 -0.2127  0.1621
  983MOL0     C32616   8.232   5.770   1.802  0.3447  0.1385 -0.0772
  983MOL0     C32617   8.210   5.658   1.730 -0.4055 -0.1151  0.6646
  983MOL0     O32618   8.259   5.365   1.857  0.0766 -0.6569 -0.7108
  983MOL0     C32619   8.151   5.135   1.721 -0.2244  0.3611  0.1399
  983MOL0     C32620   8.128   4.996   1.680 -0.2094 -0.8230  0.9951
  983MOL0     N32621   8.130   4.288   1.303  0.0033 -0.0911  0.5309
  983MOL0     N32622   8.198   4.184   1.273 -0.3689 -0.3690 -0.3639
  983MOL0     C32623   9.242   3.887   1.460 -0.0834  0.5331  0.1616
  983MOL0     C32624   9.375   3.867   1.415 -1.1481 -0.0526 -0.0846
  983MOL0     C32625   9.778   3.757   1.273 -0.0722  0.1067 -1.1981
  983MOL0     C32626   9.873   3.847   1.220  0.5997  0.1107  0.3283
  983MOL0     C32627  10.006   3.817   1.215  0.6639  0.1855  0.0899
  983MOL0     C32628  10.054   3.696   1.272 -0.3027 -0.4666  0.3118
  983MOL0     O32629  10.186   3.679   1.247 -0.5595  0.7149 -0.2405
  983MOL0     C32630  10.250   3.569   1.320 -0.2145 -1.2663  0.4784
  983MOL0     C32631  10.280   3.621   1.466  0.7395  0.2421  0.6243
  983MOL0     C32632  10.337   3.508   1.565 -0.9311 -0.0302  0.6998
  983MOL0     C32633  10.238   3.399   1.583  0.2542  0.5390  0.3533
  983MOL0     C32634  10.123   3.449   1.660  0.2553  0.4722  0.9361
  983MOL0     C32635  10.020   3.497   1.701 -0.1101  0.2090  0.1780
  983MOL0     C32636   9.960   3.610   1.339  0.2821  0.3040  0.1881
  983MOL0     C32637   9.825   3.646   1.341  1.2496  0.8938 -0.5220
  983MOL0     H32638   9.395   3.536   1.419 -0.1318  0.2163  0.9847
  983MOL0     H32639   9.174   3.558   1.522 -0.5898 -0.9814  0.1391
  983MOL0     H32640   8.914   3.640   1.521  1.4634  0.1345 -1.3510
  983MOL0     H32641   9.012   3.646   1.670  2.3520  2.7874 -0.0829
  983MOL0     H32642   8.868   3.780   1.777 -0.1319 -1.5730 -0.5359
  983MOL0     H32643   8.833   3.892   1.657 -3.2266  0.1582  1.0410
  983MOL0     H32644   8.729   3.604   1.662 -1.8665  0.0870 -0.6825
  983MOL0     H32645   8.653   3.741   1.727  0.7826  1.0370  0.7117
  983MOL0     H32646   8.728   3.717   1.423 -1.1500  2.9746 -2.4977
  983MOL0     H32647   8.571   3.663   1.480  1.2162 -0.2319 -1.5147
  983MOL0     H32648   8.531   3.900   1.562 -3.0167 -1.4698 -3.3189
  983MOL0     H32649   8.696   3.940   1.485  1.0293 -0.9117  1.0458
  983MOL0     H32650   8.599   3.883   1.266  2.0944  0.0076  0.2353
  983MOL0     H32651   8.454   3.809   1.336 -0.1203 -0.2401 -1.1049
  983MOL0     H32652   8.500   4.110   1.357  0.6181 -0.1413 -0.0964
  983MOL0     H32653   8.431   4.030   1.210  0.8960  2.6975 -0.3149
  983MOL0     H32654   8.321   3.971   1.496  1.1409  0.2446  0.0425
  983MOL0     H32655   8.254   3.917   1.355 -1.3604 -0.3809  2.5844
  983MOL0     H32656   8.197   4.180   1.605  0.3090 -1.7439 -0.4570
  983MOL0     H32657   7.962   4.424   1.459 -1.3297 -0.3638  3.6195
  983MOL0     H32658   8.047   4.414   1.607 -3.1785  1.9102 -1.1285
  983MOL0     H32659   8.055   4.632   1.482  3.0949  2.8228 -0.0422
  983MOL0     H32660   8.160   4.569   1.363 -0.6016  0.4851  0.2308
  983MOL0     H32661   8.346   4.518   1.541 -1.0997 -1.9763 -0.6420
  983MOL0     H32662   8.239   4.567   1.667  1.0677 -1.7182  0.3436
  983MOL0     H32663   8.382   4.753   1.471  1.6957 -0.4504  0.8133
  983MOL0     H32664   8.390   4.755   1.638  1.7080 -0.9144 -1.8662
  983MOL0     H32665   8.410   4.968   1.499  2.7933  2.5689  1.1173
  983MOL0     H32666   8.561   5.224   1.599  1.0209 -2.4160 -0.7561
  983MOL0     H32667   8.509   5.175   1.449 -0.2291  1.5970  0.0382
  983MOL0     H32668   8.451   5.332   1.502  4.9160  1.8895  1.4206
  983MOL0     H32669   8.541   5.565   1.710  1.7598  0.5684  2.9869
  983MOL0     H32670   8.571   5.772   1.839  0.6337  0.0123 -1.2468
  983MOL0     H32671   8.542   5.956   2.041 -2.8952 -2.8015  0.5343
  983MOL0     H32672   8.535   5.979   1.864 -1.7556  0.9732 -1.6061
  983MOL0     H32673   8.504   6.202   1.918  1.9508 -1.6132  0.7657
  983MOL0     H32674   8.355   6.142   1.879 -0.1659 -2.8694 -0.6705
  983MOL0     H32675   8.468   6.186   2.163  1.0201 -2.4969 -1.1473
  983MOL0     H32676   8.303   6.111   2.132  0.8882 -2.1107 -1.7048
  983MOL0     H32677   8.384   6.391   2.013  2.1713 -0.2636  1.6138
  983MOL0     H32678   8.223   6.314   2.011  0.7570 -0.1798  0.5961
  983MOL0     H32679   8.343   6.369   2.280  2.7559  1.1140 -1.6382
  983MOL0     H32680   8.181   6.342   2.231  0.6819  0.2240 -1.0891
  983MOL0     H32681   8.238   6.589   2.295  3.5620  2.2674 -0.6366
  983MOL0     H32682   8.368   6.580   2.176  1.9119 -0.3937  3.3741
  983MOL0     H32683   8.068   6.631   2.123 -0.0974 -0.6884  0.8620
  983MOL0     H32684   8.159   6.550   2.000 -3.6896  0.0912 -0.5066
  983MOL0     H32685   8.148   6.802   1.974  1.9881  0.1274 -2.3648
  983MOL0     H32686   8.315   6.741   1.998  0.6947 -0.1590 -0.4619
  983MOL0     H32687   8.143   5.827   1.830 -1.8566 -3.5057  0.9381
  983MOL0     H32688   8.111   5.628   1.696  0.0412 -0.0587 -0.7413
  983MOL0     H32689   8.073   5.173   1.785  1.5409  2.2401  1.2967
  983MOL0     H32690   8.046   4.940   1.724 -1.2605 -1.4527 -1.6068
  983MOL0     H32691   9.196   3.981   1.489 -1.4428 -0.3552  0.9466
  983MOL0     H32692   9.434   3.957   1.402 -2.9229  0.9268 -1.7702
  983MOL0     H32693   9.831   3.931   1.165  1.3796  0.1311 -0.2631
  983MOL0     H32694  10.074   3.882   1.160  0.8779  0.4543  0.6644
  983MOL0     H32695  10.180   3.487   1.308 -0.0414 -1.0490 -3.0095
  983MOL0     H32696  10.340   3.537   1.265 -1.0299  1.7260 -3.0384
  983MOL0     H32697  10.192   3.672   1.507  1.2165 -0.6146  2.8861
  983MOL0     H32698  10.363   3.691   1.455  1.1957 -0.3968 -0.1454
  983MOL0     H32699  10.353   3.572   1.652 -1.7240  4.2813 -2.0028
  983MOL0     H32700  10.430   3.462   1.529 -2.3146 -1.1854 -1.6938
  983MOL0     H32701  10.288   3.317   1.636  1.6838  0.2014 -1.4187
  983MOL0     H32702  10.212   3.367   1.481 -2.0774  0.2667  0.9842
  983MOL0     H32703   9.921   3.529   1.727 -0.3084 -0.8268  0.7476
  983MOL0     H32704   9.997   3.523   1.393 -0.2597 -0.1914 -0.2251
  983MOL0     H32705   9.765   3.574   1.395  0.6781  0.9527 -1.0677
  984MOL0     O32706   5.408   4.935   2.695  0.2034 -0.1609  0.7039
  984MOL0     C32707   5.423   5.017   2.790 -0.2652  0.4288 -0.7889
  984MOL0     O32708   5.322   5.097   2.845 -0.3523  0.4378  0.1871
  984MOL0     C32709   5.195   5.078   2.791  0.7754  0.1892 -0.6655
  984MOL0     C32710   5.141   5.186   2.710  0.3914  0.6429 -0.2459
  984MOL0     C32711   5.007   5.177   2.664 -0.0123  0.1328  0.4813
  984MOL0     C32712   4.936   5.053   2.677 -0.2367  0.1573  0.8564
  984MOL0     O32713   4.811   5.046   2.618  0.0721  0.3034 -0.1525
  984MOL0     C32714   4.729   4.931   2.658 -0.9996 -0.5280  0.9471
  984MOL0     C32715   4.592   4.964   2.589 -0.3956 -0.5368 -0.5784
  984MOL0     C32716   4.494   4.850   2.621  0.4789 -0.8949  0.1907
  984MOL0     C32717   4.348   4.899   2.623  1.0875 -0.0149 -0.6560
  984MOL0     C32718   4.257   4.780   2.636  0.2007  0.5684  0.0766
  984MOL0     C32719   4.262   4.693   2.517 -0.7444 -0.3566 -0.3495
  984MOL0     C32720   4.131   4.616   2.496 -0.4771 -0.5720 -0.4456
  984MOL0     C32721   4.120   4.544   2.360 -0.6006 -0.5405  1.1036
  984MOL0     N32722   4.186   4.413   2.351 -0.4916  0.1939 -0.0813
  984MOL0     C32723   4.131   4.297   2.418  0.6776 -0.1745 -0.7111
  984MOL0     C32724   4.218   4.201   2.378  0.4255  0.5669 -0.5847
  984MOL0     C32725   4.198   4.057   2.417 -1.0834  0.1485  0.7129
  984MOL0     C32726   4.158   4.037   2.564 -0.0123  0.0981 -0.7739
  984MOL0     C32727   4.157   3.888   2.622  0.3705  0.5145  0.3003
  984MOL0     C32728   4.061   3.793   2.556 -0.2838 -0.0113  0.4417
  984MOL0     O32729   3.938   3.845   2.599  0.1438 -0.0932 -0.1820
  984MOL0     C32730   3.827   3.828   2.517 -0.1358 -0.2608 -0.2380
  984MOL0     C32731   3.815   3.746   2.411  0.5561  0.1057 -0.0164
  984MOL0     C32732   3.705   3.741   2.332 -0.3736  0.4180 -0.8020
  984MOL0     C32733   3.708   3.634   2.231  0.7881 -0.1589 -0.3796
  984MOL0     C32734   3.593   3.819   2.366 -0.1688 -0.4502  1.3120
  984MOL0     C32735   3.462   3.821   2.291  1.0115 -0.1722 -0.4123
  984MOL0     O32736   3.409   3.697   2.242 -0.5241 -0.2475  0.0780
  984MOL0     C32737   3.279   3.690   2.197 -0.0577  0.3541 -0.3655
  984MOL0     C32738   3.178   3.665   2.291 -0.2797  0.5072  0.2133
  984MOL0     C32739   3.045   3.664   2.252  0.2372 -0.1615  0.0094
  984MOL0     C32740   3.009   3.695   2.122 -0.1651 -0.5610 -0.3625
  984MOL0     O32741   2.878   3.697   2.072  0.0720  0.3460  0.1375
  984MOL0     C32742   2.778   3.770   2.145 -0.1209 -0.0823  0.4708
  984MOL0     C32743   2.666   3.814   2.045 -0.7129  0.3727  0.1429
  984MOL0     C32744   2.718   3.916   1.941 -0.1775 -0.6581 -0.2280
  984MOL0     C32745   2.605   3.969   1.854  0.2060 -0.4639 -1.1140
  984MOL0     C32746   2.568   3.859   1.755 -0.4633  0.2472 -0.0255
  984MOL0     C32747   2.445   3.900   1.676  0.4396  0.6339  1.6827
  984MOL0     C32748   2.386   3.794   1.579 -0.0115 -0.4614 -0.0095
  984MOL0     C32749   2.250   3.827   1.537  0.0231  0.4657  0.2132
  984MOL0    Cl32750   2.238   3.759   1.369 -0.0310 -0.1542  0.3854
  984MOL0     C32751   3.108   3.721   2.028 -0.2963 -0.4646 -0.6901
  984MOL0     C32752   3.242   3.719   2.062 -1.3246 -0.0942 -0.5007
  984MOL0     O32753   3.403   3.928   2.295  0.3581  0.6479 -0.2941
  984MOL0     C32754   3.605   3.908   2.474  0.2669  1.0590  0.8662
  984MOL0     C32755   3.713   3.906   2.552 -0.1226  0.3284  0.1539
  984MOL0     N32756   4.313   4.247   2.291  0.5606 -0.0634 -0.2801
  984MOL0     N32757   4.300   4.378   2.274  0.1267 -0.9299  0.7855
  984MOL0     C32758   4.985   4.957   2.756 -0.0919 -0.4810  0.0981
  984MOL0     C32759   5.108   4.968   2.816  0.1825  0.4215 -0.0260
  984MOL0     C32760   5.554   5.031   2.860  0.4126 -0.5782 -0.1735
  984MOL0     C32761   5.632   4.928   2.870 -0.0657  0.0758 -1.2704
  984MOL0     C32762   5.755   4.928   2.935 -0.0392 -0.2549  0.8056
  984MOL0     C32763   5.807   5.043   2.981  0.6532  0.7345  0.2297
  984MOL0     O32764   5.931   5.057   3.044  0.4339  0.7880 -0.3445
  984MOL0     C32765   6.020   4.951   3.050  1.0748 -0.1329 -0.4605
  984MOL0     C32766   6.165   5.006   3.077  1.1556  0.0282 -0.3394
  984MOL0     C32767   6.212   5.096   2.968  0.3550 -0.8342 -0.7392
  984MOL0     C32768   6.344   5.166   2.994 -0.1415 -0.3877  0.4678
  984MOL0     C32769   6.409   5.218   2.875  0.0639  1.1048  0.7256
  984MOL0     C32770   6.462   5.266   2.780  0.1828 -0.0638  0.4684
  984MOL0     C32771   5.722   5.156   2.983  0.9196  0.4607  0.1316
  984MOL0     C32772   5.588   5.151   2.923 -0.4428  0.1888 -0.1951
  984MOL0     H32773   5.201   5.276   2.715  1.6974 -0.2681  2.5539
  984MOL0     H32774   4.968   5.255   2.600  1.5984 -1.8951 -3.2611
  984MOL0     H32775   4.766   4.834   2.625  1.4508  0.0258  1.8148
  984MOL0     H32776   4.727   4.929   2.767  0.2440  2.3510  1.1126
  984MOL0     H32777   4.554   5.062   2.620 -1.7941 -0.7893 -1.4205
  984MOL0     H32778   4.618   4.954   2.483  0.5616  1.1061 -0.5310
  984MOL0     H32779   4.507   4.756   2.566  1.2976 -1.9320  2.0378
  984MOL0     H32780   4.519   4.815   2.721  2.3980 -0.7780 -0.2078
  984MOL0     H32781   4.324   4.953   2.716  3.2418  0.3538 -0.2628
  984MOL0     H32782   4.312   4.955   2.536 -0.1762  0.1390 -0.0592
  984MOL0     H32783   4.271   4.722   2.728 -0.8423 -1.7733 -1.1706
  984MOL0     H32784   4.157   4.826   2.637 -0.5161 -0.7735 -2.2705
  984MOL0     H32785   4.298   4.752   2.433  0.3738  1.3736  1.2691
  984MOL0     H32786   4.338   4.616   2.537  0.9016  0.9063 -1.4524
  984MOL0     H32787   4.115   4.557   2.586 -0.0709  2.1622  1.5767
  984MOL0     H32788   4.057   4.697   2.501 -0.8591 -0.9032 -0.7101
  984MOL0     H32789   4.141   4.613   2.278  0.2287 -2.4211 -0.3592
  984MOL0     H32790   4.012   4.525   2.352 -0.4531 -0.6497 -1.7101
  984MOL0     H32791   4.039   4.287   2.473  0.4867 -0.0175 -1.0019
  984MOL0     H32792   4.126   4.016   2.345 -0.1841  1.2877 -0.9130
  984MOL0     H32793   4.290   4.001   2.401  0.9526  3.7392 -1.4905
  984MOL0     H32794   4.074   4.101   2.591 -0.9707 -0.8753 -1.3688
  984MOL0     H32795   4.243   4.079   2.618 -0.1959  0.1054 -0.4919
  984MOL0     H32796   4.128   3.904   2.726 -0.3902  1.9641 -0.0994
  984MOL0     H32797   4.257   3.843   2.625  0.3610  0.3703 -0.8350
  984MOL0     H32798   4.073   3.688   2.583 -0.6866 -0.8791 -2.4012
  984MOL0     H32799   4.076   3.794   2.448  0.4492 -0.0914  0.5392
  984MOL0     H32800   3.903   3.687   2.385  2.6415  1.9862  2.3037
  984MOL0     H32801   3.703   3.676   2.130 -3.3763  0.3867 -0.1179
  984MOL0     H32802   3.798   3.572   2.222 -0.1507 -1.2888 -3.4137
  984MOL0     H32803   3.625   3.563   2.240  0.7902 -0.5630 -2.7624
  984MOL0     H32804   3.195   3.656   2.398 -0.6782  0.8554  0.3093
  984MOL0     H32805   2.959   3.656   2.318  0.3283  2.5342  0.5942
  984MOL0     H32806   2.737   3.718   2.232 -0.7278  1.5345  1.1946
  984MOL0     H32807   2.821   3.863   2.185 -0.5182  0.1740  0.3033
  984MOL0     H32808   2.635   3.719   2.001 -0.2048 -0.1325  0.8454
  984MOL0     H32809   2.584   3.859   2.101 -0.8211 -0.9101  1.0627
  984MOL0     H32810   2.797   3.879   1.875  1.7694  2.7795 -0.0882
  984MOL0     H32811   2.767   4.000   1.992  0.9933 -1.1163 -0.5653
  984MOL0     H32812   2.521   4.005   1.915  2.9548  0.6651  2.3384
  984MOL0     H32813   2.624   4.069   1.812 -4.1146  1.2625  0.4183
  984MOL0     H32814   2.529   3.778   1.818 -5.2207  0.6300 -2.0366
  984MOL0     H32815   2.658   3.845   1.694 -0.5070  0.2921 -0.1003
  984MOL0     H32816   2.368   3.920   1.751 -1.3067 -1.4832  0.5823
  984MOL0     H32817   2.485   3.985   1.620 -1.5575  2.0427  2.2854
  984MOL0     H32818   2.389   3.690   1.611 -3.3555 -0.8563 -0.6157
  984MOL0     H32819   2.447   3.798   1.488 -1.0987  3.1608 -0.7683
  984MOL0     H32820   2.220   3.932   1.529 -4.7489 -0.6403  0.0094
  984MOL0     H32821   2.187   3.780   1.614  1.3881 -0.4065  0.8255
  984MOL0     H32822   3.081   3.716   1.923  0.3302 -0.0997 -0.8768
  984MOL0     H32823   3.319   3.739   1.988  1.7556  0.2400  2.5359
  984MOL0     H32824   3.524   3.974   2.505 -0.4672  0.7860 -0.4076
  984MOL0     H32825   3.714   3.959   2.646  0.3805  1.4674 -0.4767
  984MOL0     H32826   4.932   4.867   2.785  0.4533  0.0731  3.1398
  984MOL0     H32827   5.155   4.889   2.873 -0.7344  0.5167  0.8691
  984MOL0     H32828   5.616   4.844   2.802  0.4310  1.5100 -3.2549
  984MOL0     H32829   5.803   4.831   2.941  1.0341  0.2640  0.8538
  984MOL0     H32830   6.001   4.875   3.126  0.2794 -1.4941 -1.9708
  984MOL0     H32831   6.018   4.903   2.951  1.0518 -0.8454 -0.1177
  984MOL0     H32832   6.240   4.930   3.099 -0.4377 -1.4849  0.0877
  984MOL0     H32833   6.153   5.072   3.164 -2.1402  3.8033 -3.3110
  984MOL0     H32834   6.131   5.167   2.951  0.8160 -0.0198  0.3400
  984MOL0     H32835   6.219   5.040   2.875  1.0148  0.3943 -1.4529
  984MOL0     H32836   6.413   5.093   3.037 -2.3849 -2.5494  0.6514
  984MOL0     H32837   6.332   5.247   3.067  0.0414 -0.6418  0.7834
  984MOL0     H32838   6.523   5.312   2.705  2.0241  0.9130  2.4476
  984MOL0     H32839   5.763   5.251   3.017  2.8764  0.0440 -0.9013
  984MOL0     H32840   5.531   5.241   2.906 -0.1340  0.0889 -2.0351
  985MOL0     O32841   3.070  10.534   4.374  0.5129  0.7901 -0.2620
  985MOL0     C32842   3.181  10.535   4.334  0.4681 -0.3372  0.8573
  985MOL0     O32843   3.217  10.558   4.196  0.2719 -0.1769 -0.0395
  985MOL0     C32844   3.114  10.543   4.108  0.5464  0.2027  0.0111
  985MOL0     C32845   3.043  10.653   4.066  0.1158  0.1504  0.3076
  985MOL0     C32846   2.954  10.631   3.961 -0.0337 -0.7083  0.8953
  985MOL0     C32847   2.944  10.509   3.885 -0.1083  0.2394  0.3362
  985MOL0     O32848   2.863  10.500   3.775 -0.3324 -1.1806  0.0789
  985MOL0     C32849   2.798  10.614   3.704 -0.6460 -0.2659 -1.4548
  985MOL0     C32850   2.913  10.702   3.634  0.8708 -0.2578  0.1941
  985MOL0     C32851   2.836  10.792   3.540 -0.2760 -0.3710 -0.0642
  985MOL0     C32852   2.794  10.722   3.405 -0.4853  0.9636 -0.3040
  985MOL0     C32853   2.764  10.827   3.292  1.0136  0.3060  0.8091
  985MOL0     C32854   2.624  10.888   3.314  0.1695 -0.4109  0.4305
  985MOL0     C32855   2.574  10.969   3.188 -0.4878 -0.9351  0.2462
  985MOL0     C32856   2.436  11.028   3.212  0.4182  0.4237 -0.6245
  985MOL0     N32857   2.396  11.105   3.099 -0.2303 -0.6926  0.2750
  985MOL0     C32858   2.349  11.049   2.982 -1.5588 -0.4258  0.3230
  985MOL0     C32859   2.327  11.158   2.910  0.2889 -0.1071 -0.2151
  985MOL0     C32860   2.276  11.142   2.768  0.1681 -0.1178 -0.4633
  985MOL0     C32861   2.120  11.151   2.751  0.4658 -0.1943 -0.0123
  985MOL0     C32862   2.046  11.061   2.848  0.0209 -0.7864 -1.0678
  985MOL0     C32863   1.899  11.050   2.807 -0.0298  0.5086 -0.4522
  985MOL0     O32864   1.894  10.972   2.685  0.8444 -0.5202 -0.9179
  985MOL0     C32865   1.776  10.954   2.622  0.7677  0.3537 -0.3357
  985MOL0     C32866   1.782  10.918   2.483  0.1684 -0.1209 -0.9679
  985MOL0     C32867   1.673  10.872   2.426  0.6650  0.4041  0.2066
  985MOL0     C32868   1.686  10.850   2.271  0.7096  0.3747 -0.6884
  985MOL0     C32869   1.544  10.868   2.485  0.5404 -0.3092  0.6963
  985MOL0     C32870   1.409  10.822   2.428  0.1257 -0.1808 -0.7704
  985MOL0     O32871   1.299  10.850   2.499 -0.0879  0.2040 -0.6420
  985MOL0     C32872   1.182  10.816   2.445 -0.3892  0.6386 -0.9817
  985MOL0     C32873   1.098  10.911   2.398 -0.3835 -0.5035  0.2462
  985MOL0     C32874   0.971  10.872   2.345  0.0968  0.8214  0.7312
  985MOL0     C32875   0.925  10.740   2.348 -0.2570 -0.0463  0.1252
  985MOL0     O32876   0.800  10.709   2.296 -0.0180 -0.4469  0.0551
  985MOL0     C32877   0.742  10.585   2.328 -0.8660  0.0586  0.8571
  985MOL0     C32878   0.592  10.572   2.302 -1.9341  0.5123  0.2419
  985MOL0     C32879   0.527  10.703   2.348 -0.4461 -0.2256  0.8252
  985MOL0     C32880   0.383  10.693   2.346 -0.6643  0.2008 -0.0648
  985MOL0     C32881   0.307  10.830   2.330  0.6048  0.3109  0.3005
  985MOL0     C32882   0.162  10.831   2.383 -0.3062  0.8971  0.3568
  985MOL0     C32883   0.062  10.760   2.294  0.1640  0.6106 -1.0452
  985MOL0     C32884   0.033  10.843   2.158  0.2108  0.8306 -0.0952
  985MOL0    Cl32885  -0.102  10.777   2.057 -0.0640  0.3368 -0.0925
  985MOL0     C32886   1.006  10.640   2.408 -0.4867  0.6282  0.3862
  985MOL0     C32887   1.126  10.680   2.470  0.0349 -0.4526 -0.3681
  985MOL0     O32888   1.407  10.768   2.324 -0.2250 -0.3044 -0.5426
  985MOL0     C32889   1.542  10.922   2.613  1.3562  0.1512 -0.7962
  985MOL0     C32890   1.653  10.960   2.683  0.4645 -0.6160  0.6024
  985MOL0     N32891   2.368  11.274   2.972 -0.4711 -0.5304 -0.7801
  985MOL0     N32892   2.405  11.238   3.092 -0.1111 -0.3038  0.5939
  985MOL0     C32893   3.019  10.404   3.925 -0.6537 -0.5618 -0.5775
  985MOL0     C32894   3.097  10.420   4.039  0.1530  0.4986 -0.1160
  985MOL0     C32895   3.304  10.524   4.424 -0.4214 -0.5134  0.1894
  985MOL0     C32896   3.285  10.549   4.562  0.2640 -0.5326 -0.1054
  985MOL0     C32897   3.400  10.532   4.648  0.3211  0.2062  0.2040
  985MOL0     C32898   3.524  10.507   4.599  0.6710 -0.0704 -0.3046
  985MOL0     O32899   3.618  10.513   4.693 -0.2897 -0.5516 -0.4446
  985MOL0     C32900   3.761  10.509   4.647  0.7179 -0.1955  0.3703
  985MOL0     C32901   3.830  10.465   4.779  0.3702 -0.1356 -0.1503
  985MOL0     C32902   3.859  10.588   4.875 -0.4656 -0.4584  0.0294
  985MOL0     C32903   3.984  10.587   4.966 -0.9529 -0.0238 -0.2313
  985MOL0     C32904   4.106  10.524   4.904  0.0064 -0.3324 -0.0504
  985MOL0     C32905   4.184  10.452   4.845  0.2892 -0.0820  0.3305
  985MOL0     C32906   3.548  10.502   4.470  0.6658 -0.1570 -0.2070
  985MOL0     C32907   3.441  10.517   4.377  0.1443  0.7388 -0.3278
  985MOL0     H32908   3.051  10.750   4.113 -1.4663  0.2215  0.4899
  985MOL0     H32909   2.876  10.702   3.935 -0.3861 -1.6927 -0.8904
  985MOL0     H32910   2.734  10.561   3.633 -1.0979 -0.9461 -0.5655
  985MOL0     H32911   2.731  10.670   3.770 -2.5802 -1.7283 -2.0756
  985MOL0     H32912   2.967  10.759   3.710  0.5440 -3.0556  2.7182
  985MOL0     H32913   2.983  10.645   3.573  1.2564 -0.2507  0.6247
  985MOL0     H32914   2.754  10.835   3.598  1.6085 -1.7684  3.9715
  985MOL0     H32915   2.904  10.873   3.511 -2.9554  1.8044 -0.7991
  985MOL0     H32916   2.874  10.654   3.373 -1.4286 -1.3361  1.9057
  985MOL0     H32917   2.706  10.661   3.427  0.4637  0.1831  1.5295
  985MOL0     H32918   2.837  10.908   3.290  0.8049  0.4925  0.5497
  985MOL0     H32919   2.774  10.780   3.194  0.3372  0.2887  0.7404
  985MOL0     H32920   2.554  10.809   3.341 -1.5667 -0.9846 -4.6461
  985MOL0     H32921   2.638  10.961   3.394 -0.3864  0.0991  0.0662
  985MOL0     H32922   2.642  11.048   3.155  0.3985 -1.8109 -0.0956
  985MOL0     H32923   2.554  10.901   3.105  2.6320 -1.3646 -0.2734
  985MOL0     H32924   2.437  11.098   3.296 -1.1775 -1.7091  1.3063
  985MOL0     H32925   2.369  10.943   3.224  1.6902 -0.3267  1.8501
  985MOL0     H32926   2.317  10.948   2.959 -0.5807 -0.6596 -0.0674
  985MOL0     H32927   2.318  11.222   2.705 -0.6544 -0.1468 -1.0603
  985MOL0     H32928   2.306  11.042   2.736  0.9565 -0.5180  1.3843
  985MOL0     H32929   2.107  11.121   2.646  0.2187  0.5984 -0.2148
  985MOL0     H32930   2.077  11.250   2.767  0.8540 -0.2743  1.6856
  985MOL0     H32931   2.052  11.103   2.950  0.3581 -2.4900 -0.3541
  985MOL0     H32932   2.099  10.965   2.850  0.2093 -0.6828  0.3086
  985MOL0     H32933   1.870  11.153   2.784  0.9253  0.5985 -1.3405
  985MOL0     H32934   1.826  11.006   2.875 -0.1850  1.3631 -0.0492
  985MOL0     H32935   1.879  10.928   2.435 -0.3094  2.3779 -1.5235
  985MOL0     H32936   1.776  10.899   2.233 -0.2198  1.6521 -1.3297
  985MOL0     H32937   1.694  10.742   2.253 -0.1329  0.3645 -1.0703
  985MOL0     H32938   1.608  10.881   2.201  1.5427 -0.9701 -2.2872
  985MOL0     H32939   1.126  11.016   2.397  0.6093 -0.7567 -0.7666
  985MOL0     H32940   0.908  10.951   2.304 -0.2466  1.6190  2.6595
  985MOL0     H32941   0.798  10.504   2.281  0.3469  0.3356  1.7872
  985MOL0     H32942   0.765  10.565   2.433  2.9416 -3.2972 -0.3559
  985MOL0     H32943   0.559  10.564   2.198 -0.7889 -1.1860 -0.0166
  985MOL0     H32944   0.567  10.477   2.350  1.3263 -0.1546  0.8724
  985MOL0     H32945   0.562  10.779   2.278 -4.5741 -0.3414 -1.6921
  985MOL0     H32946   0.556  10.737   2.448 -0.2961  2.3404 -0.0299
  985MOL0     H32947   0.347  10.627   2.266 -0.3944  1.1714 -0.9997
  985MOL0     H32948   0.361  10.633   2.436  2.4718 -0.9248  0.0722
  985MOL0     H32949   0.304  10.853   2.223  1.8474  0.6389  0.3173
  985MOL0     H32950   0.366  10.908   2.380 -0.1413  0.1689  1.4201
  985MOL0     H32951   0.169  10.784   2.482  1.1111  0.7077  0.1813
  985MOL0     H32952   0.131  10.936   2.380  2.3808  1.7782 -2.6595
  985MOL0     H32953  -0.039  10.755   2.336  0.8168  0.7271  0.6009
  985MOL0     H32954   0.084  10.654   2.278  0.8155  0.8080 -1.4998
  985MOL0     H32955   0.125  10.864   2.103  1.0662  0.2141  1.0322
  985MOL0     H32956  -0.007  10.943   2.177  0.2685  0.7402  0.5330
  985MOL0     H32957   0.983  10.535   2.397 -2.3418  0.9403  0.9729
  985MOL0     H32958   1.193  10.608   2.514  1.1199  0.0966 -1.0757
  985MOL0     H32959   1.446  10.926   2.665  2.1934  1.1182  0.7428
  985MOL0     H32960   1.635  10.979   2.789 -4.0772  0.1154 -0.0908
  985MOL0     H32961   3.021  10.315   3.862  1.0191  0.3410 -1.8803
  985MOL0     H32962   3.164  10.334   4.039 -0.3474 -0.0441 -3.8841
  985MOL0     H32963   3.182  10.567   4.593  0.1340 -3.1877  1.2889
  985MOL0     H32964   3.381  10.544   4.755  0.8869 -1.6299  0.5463
  985MOL0     H32965   3.757  10.422   4.580 -1.0374  0.0929  0.0721
  985MOL0     H32966   3.790  10.601   4.596  1.4393 -0.7868 -0.2976
  985MOL0     H32967   3.923  10.417   4.748 -0.9134 -0.3333 -4.2807
  985MOL0     H32968   3.774  10.389   4.833 -0.5149  0.4313 -0.2533
  985MOL0     H32969   3.764  10.598   4.929 -1.4361  0.5997 -1.7450
  985MOL0     H32970   3.861  10.674   4.807  1.3541 -0.4226  0.0865
  985MOL0     H32971   3.961  10.521   5.050  0.9575  0.5277  0.8011
  985MOL0     H32972   4.005  10.686   5.007  3.7387 -1.7399  2.2684
  985MOL0     H32973   4.251  10.378   4.805  3.0518  2.4228 -0.0005
  985MOL0     H32974   3.642  10.498   4.416 -1.1561  1.8267 -3.8345
  985MOL0     H32975   3.469  10.508   4.273  1.0411  0.3850 -0.0599
  986MOL0     O32976   1.653   4.369   5.800  0.5645  1.1314 -0.4963
  986MOL0     C32977   1.650   4.488   5.769  0.5142  0.7354 -0.2161
  986MOL0     O32978   1.724   4.558   5.672  0.8496 -0.3957 -0.2040
  986MOL0     C32979   1.793   4.490   5.581 -0.5457  0.7825  0.2608
  986MOL0     C32980   1.914   4.543   5.544  0.0283 -0.7353 -0.1466
  986MOL0     C32981   1.989   4.487   5.443  0.2634 -0.5392 -0.0340
  986MOL0     C32982   1.944   4.381   5.375 -0.4534  0.2661  0.9338
  986MOL0     O32983   1.994   4.338   5.256  0.8197 -0.3884 -0.0876
  986MOL0     C32984   2.136   4.311   5.241  1.0520  0.0043 -0.0805
  986MOL0     C32985   2.156   4.238   5.105 -0.4618  0.9085  0.3743
  986MOL0     C32986   2.100   4.300   4.970 -0.7825 -0.4166  0.0991
  986MOL0     C32987   1.959   4.255   4.936  0.9217 -0.3957  0.0050
  986MOL0     C32988   1.928   4.283   4.788 -0.1980  0.0564  0.2104
  986MOL0     C32989   1.788   4.247   4.751  0.3472 -0.2384 -0.1575
  986MOL0     C32990   1.750   4.110   4.781  0.6924  0.7090 -0.2515
  986MOL0     C32991   1.612   4.067   4.725  0.1440 -0.8244 -0.3817
  986MOL0     N32992   1.606   4.026   4.582  0.8620  0.0972 -0.0575
  986MOL0     C32993   1.583   3.899   4.544  0.2309 -0.0182  0.4520
  986MOL0     C32994   1.606   3.917   4.411  0.8062  0.5892 -0.1076
  986MOL0     C32995   1.621   3.803   4.308 -0.5269 -0.6737  0.2017
  986MOL0     C32996   1.496   3.778   4.225 -0.2261  0.6823  0.4016
  986MOL0     C32997   1.514   3.638   4.154  0.0488 -1.3857 -0.2320
  986MOL0     C32998   1.373   3.605   4.101  0.0936  1.4786  0.4399
  986MOL0     O32999   1.284   3.563   4.202  0.0879  0.3952 -1.0423
  986MOL0     C33000   1.170   3.506   4.171 -0.4842 -1.0787 -0.4704
  986MOL0     C33001   1.075   3.503   4.281 -0.0024  0.1248 -0.1418
  986MOL0     C33002   0.948   3.441   4.266 -0.5895 -0.0401 -0.2439
  986MOL0     C33003   0.868   3.433   4.394 -0.5144  0.3339 -0.6882
  986MOL0     C33004   0.911   3.394   4.137 -0.6277 -0.9323  0.2767
  986MOL0     C33005   0.782   3.316   4.110  0.7951 -0.0427  0.0802
  986MOL0     O33006   0.788   3.213   4.019  1.3268 -0.0646 -0.0293
  986MOL0     C33007   0.674   3.176   3.950 -0.2161  0.4205 -0.4436
  986MOL0     C33008   0.664   3.037   3.911 -0.1119  0.6904  0.3780
  986MOL0     C33009   0.556   2.996   3.839 -0.1981  0.2943  0.9209
  986MOL0     C33010   0.454   3.083   3.807 -0.4732  0.4082  0.4234
  986MOL0     O33011   0.338   3.049   3.740  0.1235 -0.1496  0.6908
  986MOL0     C33012   0.326   2.909   3.693 -0.5724  0.3761  0.9712
  986MOL0     C33013   0.186   2.875   3.636 -0.4503 -0.4777  0.5319
  986MOL0     C33014   0.141   2.970   3.525 -0.2510 -0.3796 -0.2616
  986MOL0     C33015   0.003   2.923   3.478  0.2270  0.6575  0.7830
  986MOL0     C33016  -0.066   3.026   3.396  0.0080  0.7196  0.0949
  986MOL0     C33017  -0.214   2.981   3.354 -0.5912 -0.3378  0.0156
  986MOL0     C33018  -0.277   3.084   3.264 -0.3057  0.5212  0.0645
  986MOL0     C33019  -0.382   3.039   3.162  0.0778  0.2196 -0.1007
  986MOL0    Cl33020  -0.542   3.009   3.246 -0.1608 -0.3521 -0.2478
  986MOL0     C33021   0.472   3.219   3.824  0.2688 -0.9604 -0.0587
  986MOL0     C33022   0.581   3.267   3.898  0.2202  0.6364 -0.1885
  986MOL0     O33023   0.684   3.351   4.175  0.2317 -0.5038  0.5914
  986MOL0     C33024   1.006   3.393   4.034  0.7134  0.0718 -0.4445
  986MOL0     C33025   1.135   3.449   4.049  0.2179 -0.7791 -0.1666
  986MOL0     N33026   1.647   4.044   4.377 -0.0102 -0.3729  0.5225
  986MOL0     N33027   1.643   4.101   4.480  0.6226 -0.1123 -0.2753
  986MOL0     C33028   1.830   4.310   5.418  0.1444  0.6240  0.1950
  986MOL0     C33029   1.754   4.374   5.512  0.1611  0.2789 -0.0485
  986MOL0     C33030   1.549   4.576   5.837 -0.2310  0.1064  0.6425
  986MOL0     C33031   1.553   4.724   5.833 -0.1535  0.4068  0.4232
  986MOL0     C33032   1.468   4.804   5.912  0.2987  0.7378  0.1451
  986MOL0     C33033   1.361   4.744   5.985  0.3302 -0.5086  0.2265
  986MOL0     O33034   1.263   4.822   6.046  0.5190 -0.5012  0.1639
  986MOL0     C33035   1.124   4.776   6.048 -0.0293 -0.1862  0.3023
  986MOL0     C33036   1.036   4.890   5.998  0.0919 -0.3491 -0.7301
  986MOL0     C33037   1.084   4.960   5.860  0.3085  0.2406 -0.5576
  986MOL0     C33038   1.129   4.860   5.755 -0.0745 -0.0960  0.5962
  986MOL0     C33039   1.017   4.813   5.671  0.5562  0.6709  0.6419
  986MOL0     C33040   0.928   4.762   5.610 -1.1338  0.8159 -0.1533
  986MOL0     C33041   1.350   4.612   5.973 -0.1093  0.5476 -0.7216
  986MOL0     C33042   1.444   4.525   5.910 -0.1397  0.2448  0.0440
  986MOL0     H33043   1.968   4.620   5.598 -0.1989 -1.1038  0.6200
  986MOL0     H33044   2.087   4.527   5.417  1.8240 -3.6606  0.5207
  986MOL0     H33045   2.188   4.407   5.246  0.4211  0.5243 -2.3551
  986MOL0     H33046   2.169   4.255   5.329  0.2038 -0.9820 -0.3832
  986MOL0     H33047   2.265   4.248   5.101 -0.5091  1.5257  0.5264
  986MOL0     H33048   2.132   4.132   5.109  0.8183  0.6082  0.5491
  986MOL0     H33049   2.109   4.408   4.963  2.2430 -0.6946 -2.0013
  986MOL0     H33050   2.162   4.259   4.890 -0.3684 -1.5693  0.9714
  986MOL0     H33051   1.958   4.147   4.956  1.5624 -0.3571  0.2478
  986MOL0     H33052   1.886   4.303   5.002 -1.3226  1.5603 -3.5393
  986MOL0     H33053   1.947   4.388   4.765  0.3346  0.3646  1.8783
  986MOL0     H33054   1.997   4.221   4.730  0.4992  0.2030  0.8668
  986MOL0     H33055   1.721   4.312   4.808 -1.3934 -1.4313 -0.7637
  986MOL0     H33056   1.775   4.267   4.644 -0.0049 -3.6497 -0.8489
  986MOL0     H33057   1.818   4.038   4.735  0.2559 -0.9283  1.5350
  986MOL0     H33058   1.748   4.096   4.889 -1.1158 -3.0858 -0.5812
  986MOL0     H33059   1.548   4.155   4.729  1.4595  0.1817 -0.5955
  986MOL0     H33060   1.570   3.990   4.791 -2.3286  1.2294  0.6182
  986MOL0     H33061   1.568   3.800   4.586  4.5272 -0.6082  1.0271
  986MOL0     H33062   1.713   3.822   4.251  1.6031 -2.4319  2.7750
  986MOL0     H33063   1.640   3.713   4.368 -0.6295 -0.7698  0.0896
  986MOL0     H33064   1.461   3.854   4.155  1.3287  0.6258 -0.5026
  986MOL0     H33065   1.411   3.789   4.292 -0.5675  2.2371 -0.2598
  986MOL0     H33066   1.547   3.563   4.227 -0.6752 -1.7213 -0.2298
  986MOL0     H33067   1.582   3.653   4.070 -1.6087  4.0532 -0.9771
  986MOL0     H33068   1.386   3.516   4.038 -1.5138  1.1425  0.5509
  986MOL0     H33069   1.328   3.684   4.040  0.0745  2.3814  1.5994
  986MOL0     H33070   1.107   3.531   4.380  1.1113  2.3059 -1.0662
  986MOL0     H33071   0.832   3.331   4.413  1.5421 -0.1130  1.2291
  986MOL0     H33072   0.919   3.459   4.487 -0.0152 -0.0681 -0.8479
  986MOL0     H33073   0.781   3.499   4.383  0.9431  2.8031  1.5388
  986MOL0     H33074   0.742   2.968   3.940 -1.4295 -0.6057  0.9348
  986MOL0     H33075   0.536   2.894   3.806 -3.3632  1.6091 -1.9216
  986MOL0     H33076   0.407   2.885   3.623 -1.1330  0.7176  0.1889
  986MOL0     H33077   0.336   2.829   3.767  1.6509 -0.7189 -0.4206
  986MOL0     H33078   0.167   2.773   3.601  0.2453 -1.2583  2.2935
  986MOL0     H33079   0.136   2.888   3.732  2.7940  2.4268  2.0258
  986MOL0     H33080   0.207   2.973   3.437 -2.4567 -1.4874 -2.0520
  986MOL0     H33081   0.124   3.071   3.563 -4.1655 -1.2824  0.8459
  986MOL0     H33082   0.008   2.828   3.423  2.1622  0.4395  1.2562
  986MOL0     H33083  -0.065   2.912   3.563 -3.2556 -0.0270 -1.8539
  986MOL0     H33084  -0.004   3.046   3.309 -0.6828  0.9309 -0.3586
  986MOL0     H33085  -0.068   3.122   3.449 -0.8211  1.2692 -0.8976
  986MOL0     H33086  -0.200   2.889   3.297  2.0744 -1.0028  1.5501
  986MOL0     H33087  -0.270   2.963   3.447  2.1251  0.5598  1.9421
  986MOL0     H33088  -0.193   3.132   3.214  0.2635 -0.8463 -0.3454
  986MOL0     H33089  -0.329   3.157   3.327 -1.3777  0.7016 -0.9971
  986MOL0     H33090  -0.340   2.951   3.113  0.6035  1.1673 -1.4060
  986MOL0     H33091  -0.382   3.121   3.089  1.1489 -0.8790 -1.3946
  986MOL0     H33092   0.414   3.296   3.775 -0.4090 -1.4567 -0.0548
  986MOL0     H33093   0.600   3.373   3.912 -1.4902  1.1470 -1.4497
  986MOL0     H33094   0.990   3.333   3.944  3.6268 -0.4327 -0.7287
  986MOL0     H33095   1.200   3.444   3.962  1.8439 -0.3049  0.9773
  986MOL0     H33096   1.807   4.215   5.370  0.8881  1.5374 -2.0806
  986MOL0     H33097   1.657   4.328   5.527  0.0205 -0.0272 -1.7710
  986MOL0     H33098   1.624   4.782   5.773 -1.5883  0.4493 -1.3067
  986MOL0     H33099   1.476   4.912   5.909 -0.6651  0.8841  1.6557
  986MOL0     H33100   1.111   4.698   5.972  0.6034 -1.4051  1.4079
  986MOL0     H33101   1.091   4.736   6.144 -0.6436 -3.5831 -1.1696
  986MOL0     H33102   1.032   4.972   6.071  2.1810 -1.6577  0.9888
  986MOL0     H33103   0.934   4.858   5.976  0.1126 -0.7361 -0.2852
  986MOL0     H33104   1.161   5.035   5.879 -0.1601  0.1155  2.1176
  986MOL0     H33105   0.996   5.007   5.816 -0.8017 -0.2492  1.0500
  986MOL0     H33106   1.184   4.773   5.792 -3.0306 -1.6252  1.7108
  986MOL0     H33107   1.205   4.902   5.688 -1.8987  1.2076 -0.7703
  986MOL0     H33108   0.861   4.733   5.532 -0.9102  0.4518 -0.2144
  986MOL0     H33109   1.267   4.557   6.016 -0.5133  1.5657 -0.1847
  986MOL0     H33110   1.428   4.418   5.923  0.0457 -0.0153 -1.5762
  987MOL0     O33111   6.231   0.533  11.080  0.4280  0.6110 -0.1044
  987MOL0     C33112   6.273   0.647  11.084 -0.5974 -0.0291  0.2326
  987MOL0     O33113   6.195   0.761  11.073 -0.2286  0.6484  0.1068
  987MOL0     C33114   6.065   0.764  11.027  0.2791  0.1325 -0.2969
  987MOL0     C33115   5.997   0.679  10.942  0.2857  1.4630  0.1387
  987MOL0     C33116   5.861   0.692  10.920 -0.2451 -0.7290 -0.8673
  987MOL0     C33117   5.783   0.797  10.970  0.1830 -0.0069  1.0525
  987MOL0     O33118   5.654   0.825  10.947  0.4654 -1.2380 -0.7660
  987MOL0     C33119   5.607   0.814  10.813  0.1950  0.2515 -1.1098
  987MOL0     C33120   5.454   0.797  10.819  0.1021  0.0485 -0.6518
  987MOL0     C33121   5.382   0.927  10.873 -0.2888  0.5403  0.4722
  987MOL0     C33122   5.239   0.910  10.915  0.5246  0.4505  0.3299
  987MOL0     C33123   5.145   0.924  10.792  0.2052  0.1351  0.4510
  987MOL0     C33124   4.997   0.938  10.831  0.0390 -0.9231  1.2387
  987MOL0     C33125   4.893   0.951  10.714 -0.2026  0.0278 -0.5293
  987MOL0     C33126   4.761   1.007  10.780  0.1055  0.6142 -0.0409
  987MOL0     N33127   4.653   1.005  10.685 -0.5690  0.4725  1.2466
  987MOL0     C33128   4.674   1.042  10.555 -0.3207 -0.1916  0.7357
  987MOL0     C33129   4.560   1.007  10.497  0.0733  0.4735 -1.0914
  987MOL0     C33130   4.521   1.038  10.357 -0.1794 -0.1500 -0.1256
  987MOL0     C33131   4.612   0.964  10.262  0.5986  0.1651  0.4081
  987MOL0     C33132   4.591   0.813  10.241  0.2744 -0.6161  0.1775
  987MOL0     C33133   4.679   0.727  10.349 -0.6172  0.4188  0.5993
  987MOL0     O33134   4.641   0.589  10.335  0.2059 -0.3435 -0.2548
  987MOL0     C33135   4.523   0.546  10.393  0.3009  0.2106 -0.6298
  987MOL0     C33136   4.490   0.413  10.377 -0.4665  0.6627  0.3795
  987MOL0     C33137   4.382   0.350  10.449  0.5553 -0.6312  0.0701
  987MOL0     C33138   4.357   0.203  10.429 -0.0530 -0.3931  0.0398
  987MOL0     C33139   4.307   0.432  10.541 -0.0509  0.6570  0.1610
  987MOL0     C33140   4.193   0.373  10.621  0.0514  0.0654  0.4386
  987MOL0     O33141   4.113   0.281  10.564 -0.3502  0.2594  0.6027
  987MOL0     C33142   4.043   0.195  10.638  0.2089  1.0503  0.0330
  987MOL0     C33143   4.108   0.116  10.743  0.7987  0.5055  0.7351
  987MOL0     C33144   4.040   0.019  10.810  0.1566  0.0768  0.6258
  987MOL0     C33145   3.914  -0.010  10.773 -0.3286 -0.3426  0.3309
  987MOL0     O33146   3.862  -0.115  10.839  0.3090 -0.7592 -0.9960
  987MOL0     C33147   3.719  -0.140  10.819 -0.3620  0.5273  0.3827
  987MOL0     C33148   3.679  -0.230  10.933 -0.4358  0.6400  0.6051
  987MOL0     C33149   3.528  -0.271  10.935  0.2846  0.6106  0.9312
  987MOL0     C33150   3.521  -0.367  10.821 -0.1041  0.8315 -0.1254
  987MOL0     C33151   3.395  -0.445  10.817  0.3584  0.6846 -0.4796
  987MOL0     C33152   3.378  -0.524  10.694 -0.0780  0.1539  0.2357
  987MOL0     C33153   3.259  -0.628  10.711 -0.4669 -0.1599 -0.1496
  987MOL0     C33154   3.229  -0.710  10.583 -0.5055 -0.2944 -0.4024
  987MOL0    Cl33155   3.143  -0.600  10.469  0.3276 -0.3930  0.3217
  987MOL0     C33156   3.844   0.074  10.677  0.0696  0.7170  0.2672
  987MOL0     C33157   3.910   0.174  10.611 -0.6781 -0.1159  0.7368
  987MOL0     O33158   4.161   0.438  10.721  0.2616  0.6321  0.3617
  987MOL0     C33159   4.345   0.565  10.563 -1.0846  0.1807  0.5202
  987MOL0     C33160   4.449   0.617  10.491 -0.1855  0.8292 -0.3198
  987MOL0     N33161   4.473   0.945  10.583  0.3260 -0.5164 -0.4679
  987MOL0     N33162   4.542   0.934  10.700 -0.0372  1.0127 -0.3740
  987MOL0     C33163   5.854   0.875  11.060  0.2893 -1.0553  0.5729
  987MOL0     C33164   5.987   0.864  11.083 -0.9085 -0.5047 -0.8108
  987MOL0     C33165   6.413   0.655  11.119 -0.0018  0.5239  0.1909
  987MOL0     C33166   6.471   0.781  11.146  0.2387  0.5479 -0.0251
  987MOL0     C33167   6.602   0.790  11.188 -0.1041  0.2790 -0.6259
  987MOL0     C33168   6.685   0.674  11.180  0.7449  0.5619 -0.1660
  987MOL0     O33169   6.815   0.692  11.211  0.3503  0.1138 -0.3918
  987MOL0     C33170   6.909   0.598  11.161  1.1061  0.7421  0.3885
  987MOL0     C33171   7.048   0.655  11.154  0.2266 -0.2595  0.1475
  987MOL0     C33172   7.126   0.681  11.291 -0.1449  0.3320  0.0786
  987MOL0     C33173   7.140   0.559  11.384 -0.2661  0.7539  0.3813
  987MOL0     C33174   7.209   0.602  11.509  0.5015  0.0523 -0.1096
  987MOL0     C33175   7.267   0.644  11.609  0.7110  0.7210  0.2682
  987MOL0     C33176   6.628   0.548  11.156  0.0622 -0.1959 -0.3201
  987MOL0     C33177   6.491   0.544  11.133 -1.1041  0.0523  0.4767
  987MOL0     H33178   6.044   0.595  10.891 -1.6514  1.1112 -1.1599
  987MOL0     H33179   5.831   0.621  10.843 -0.8117 -2.0907  0.5547
  987MOL0     H33180   5.631   0.900  10.750  2.4415  1.0167  0.6833
  987MOL0     H33181   5.653   0.722  10.774  0.8352  0.8430 -1.7823
  987MOL0     H33182   5.421   0.774  10.717  2.4600  0.1799 -1.5029
  987MOL0     H33183   5.427   0.709  10.878 -3.7685 -0.8573 -3.4105
  987MOL0     H33184   5.435   0.947  10.967  0.4236  2.3996 -0.2866
  987MOL0     H33185   5.396   1.010  10.803 -2.4422  2.0987  1.7620
  987MOL0     H33186   5.220   0.816  10.968 -1.7344  0.0390 -1.0881
  987MOL0     H33187   5.223   0.991  10.987  1.0285  1.0132 -0.1799
  987MOL0     H33188   5.183   1.014  10.743  2.3874 -0.0674  1.6516
  987MOL0     H33189   5.164   0.835  10.732 -0.2226 -0.2894  0.9305
  987MOL0     H33190   4.968   0.847  10.884  0.7770 -1.5748  0.5393
  987MOL0     H33191   4.981   1.022  10.900 -1.8593 -0.5853  0.4648
  987MOL0     H33192   4.939   1.022  10.644 -0.6307  2.3930  1.4300
  987MOL0     H33193   4.886   0.848  10.679  0.8535 -1.6456  3.5729
  987MOL0     H33194   4.773   1.104  10.830  1.9627  0.4814 -0.1688
  987MOL0     H33195   4.734   0.933  10.856  2.1082 -1.3175 -1.0725
  987MOL0     H33196   4.756   1.101  10.514  0.7984 -1.5960  0.8782
  987MOL0     H33197   4.418   1.010  10.333  0.6125 -0.4763 -3.6662
  987MOL0     H33198   4.542   1.144  10.338 -0.0129  0.0458  1.0604
  987MOL0     H33199   4.717   0.980  10.290  0.9031 -1.0163 -0.0259
  987MOL0     H33200   4.600   1.018  10.167  1.3251  2.9166  1.7712
  987MOL0     H33201   4.625   0.783  10.142 -2.8033 -2.5380 -0.4226
  987MOL0     H33202   4.486   0.782  10.247 -0.1366  0.3574 -1.5004
  987MOL0     H33203   4.667   0.758  10.453 -0.6909 -3.2713  1.8438
  987MOL0     H33204   4.782   0.742  10.316 -1.0889 -0.4926 -1.4621
  987MOL0     H33205   4.562   0.349  10.325 -0.8743 -1.4627  2.2722
  987MOL0     H33206   4.381   0.143  10.518 -2.6415 -1.0692  0.3463
  987MOL0     H33207   4.254   0.179  10.402 -0.7354 -0.0101  2.1871
  987MOL0     H33208   4.422   0.172  10.346  0.4618  0.9151 -0.0653
  987MOL0     H33209   4.211   0.147  10.760  0.2910  1.7535  1.6823
  987MOL0     H33210   4.095  -0.034  10.887  0.4711 -0.0703  0.2988
  987MOL0     H33211   3.665  -0.045  10.823  0.0966  0.8336 -0.3609
  987MOL0     H33212   3.720  -0.174  10.715  1.3428 -0.2513  0.6183
  987MOL0     H33213   3.740  -0.321  10.936 -0.1693  0.5779 -2.7938
  987MOL0     H33214   3.687  -0.166  11.022 -1.4123 -0.2087  1.3323
  987MOL0     H33215   3.464  -0.183  10.923 -1.1983 -0.6184 -0.5754
  987MOL0     H33216   3.507  -0.317  11.032  1.6311 -1.0467  0.4910
  987MOL0     H33217   3.547  -0.312  10.730  1.9425  0.7680  0.3693
  987MOL0     H33218   3.605  -0.437  10.833  0.4573  1.3611 -0.8797
  987MOL0     H33219   3.309  -0.379  10.833  1.7766  1.8126  4.0619
  987MOL0     H33220   3.403  -0.521  10.895  2.2018  2.8922  1.6288
  987MOL0     H33221   3.359  -0.464  10.605  2.6215  1.6597  0.5802
  987MOL0     H33222   3.459  -0.597  10.676  0.7679  0.9911  0.5699
  987MOL0     H33223   3.167  -0.583  10.748 -0.9219  1.4162 -2.9178
  987MOL0     H33224   3.295  -0.692  10.792  0.6132  3.1927  2.2297
  987MOL0     H33225   3.172  -0.802  10.596  0.1411 -0.4021  2.2203
  987MOL0     H33226   3.323  -0.738  10.535 -0.2900 -1.0127  0.4155
  987MOL0     H33227   3.742   0.056  10.645 -0.5565  2.0449  1.4025
  987MOL0     H33228   3.858   0.233  10.536  0.1217  0.9175  0.9574
  987MOL0     H33229   4.280   0.612  10.636 -3.3113 -1.3251 -0.4018
  987MOL0     H33230   4.474   0.720  10.515 -0.0772  0.5321  0.9098
  987MOL0     H33231   5.807   0.953  11.120  2.8413  0.9002  0.2166
  987MOL0     H33232   6.040   0.933  11.147  0.1204  0.1788 -2.3261
  987MOL0     H33233   6.411   0.868  11.120  0.9204  0.3543 -2.5086
  987MOL0     H33234   6.643   0.886  11.218  0.5607 -1.0714  3.3801
  987MOL0     H33235   6.919   0.503  11.214  1.4294  0.7378  0.3221
  987MOL0     H33236   6.879   0.557  11.064  1.3350  0.4596  0.4380
  987MOL0     H33237   7.043   0.756  11.112  2.5387  0.6596  1.8810
  987MOL0     H33238   7.104   0.597  11.080  0.7285  0.9368 -0.4282
  987MOL0     H33239   7.083   0.761  11.352 -0.1244 -1.5898  2.7981
  987MOL0     H33240   7.229   0.715  11.277  0.6594 -1.0667  2.0692
  987MOL0     H33241   7.207   0.484  11.341 -1.3201 -1.0637  1.7923
  987MOL0     H33242   7.049   0.507  11.414  0.5784 -0.6591  0.5863
  987MOL0     H33243   7.304   0.670  11.706  1.6351  0.0024  0.1227
  987MOL0     H33244   6.685   0.458  11.174  2.5361  1.5113  1.0348
  987MOL0     H33245   6.465   0.440  11.115 -1.3483  0.3435 -0.9388
  988MOL0     O33246   9.600   2.854   3.892  0.2030  0.1497  0.1641
  988MOL0     C33247   9.659   2.787   3.976  0.4874 -0.3480  1.0225
  988MOL0     O33248   9.622   2.770   4.107  0.4737  0.6817 -0.1025
  988MOL0     C33249   9.503   2.840   4.134 -1.3331 -0.6910 -0.6889
  988MOL0     C33250   9.505   2.977   4.167  0.6355  0.0765  0.6210
  988MOL0     C33251   9.383   3.043   4.188 -0.3361  0.5262  0.2682
  988MOL0     C33252   9.269   2.967   4.157  1.0823 -0.6496 -0.7286
  988MOL0     O33253   9.150   3.031   4.155  0.2506  0.3048  0.1196
  988MOL0     C33254   9.128   3.159   4.222 -0.0692  0.1673 -0.1469
  988MOL0     C33255   8.983   3.211   4.205 -0.2662 -0.1656 -0.1374
  988MOL0     C33256   8.889   3.205   4.334  0.2095  0.6395 -0.0786
  988MOL0     C33257   8.850   3.057   4.365 -0.2176  0.5522 -0.6492
  988MOL0     C33258   8.743   3.045   4.480  0.7646 -0.2163  0.6931
  988MOL0     C33259   8.818   3.066   4.610  0.2132  0.1280 -0.2612
  988MOL0     C33260   8.731   3.083   4.735 -0.2120  0.0507 -0.4163
  988MOL0     C33261   8.638   2.965   4.770  0.1235  0.1157  0.3513
  988MOL0     N33262   8.520   2.958   4.680  0.3325 -0.0934 -0.3924
  988MOL0     C33263   8.497   2.871   4.577 -0.0117  0.8361  0.0646
  988MOL0     C33264   8.388   2.921   4.523 -0.4285 -0.2782 -0.1259
  988MOL0     C33265   8.318   2.859   4.411  0.9448  0.8206  0.0867
  988MOL0     C33266   8.188   2.792   4.471 -1.2315  0.6858 -0.4422
  988MOL0     C33267   8.133   2.688   4.367  0.1704 -0.1685 -0.0356
  988MOL0     C33268   8.046   2.745   4.255  0.0661  0.0512 -0.7768
  988MOL0     O33269   7.926   2.780   4.307 -0.0480 -0.2540 -0.2227
  988MOL0     C33270   7.812   2.786   4.229  0.8926 -0.2413  0.1729
  988MOL0     C33271   7.803   2.775   4.090 -0.4266  0.2911 -0.6170
  988MOL0     C33272   7.677   2.792   4.025 -0.7074 -0.5614 -0.3597
  988MOL0     C33273   7.683   2.788   3.881  0.6951  0.9232  0.0325
  988MOL0     C33274   7.560   2.824   4.103 -0.4582  0.4133 -0.0750
  988MOL0     C33275   7.422   2.857   4.046  0.1526 -0.1250 -0.6157
  988MOL0     O33276   7.385   2.799   3.925  0.0593 -0.4328  0.2950
  988MOL0     C33277   7.271   2.843   3.864 -0.0386  0.8452  0.1645
  988MOL0     C33278   7.151   2.820   3.918  0.4835 -0.3565 -0.3246
  988MOL0     C33279   7.032   2.856   3.850  0.3197  0.0963 -0.4295
  988MOL0     C33280   7.037   2.935   3.732 -0.2452 -0.2604 -0.5605
  988MOL0     O33281   6.921   2.988   3.707  0.0930 -0.6385  0.6918
  988MOL0     C33282   6.895   3.119   3.768 -0.0308  0.1764  0.3264
  988MOL0     C33283   6.741   3.132   3.786  0.4502 -1.3106 -0.8112
  988MOL0     C33284   6.688   3.021   3.877 -0.5448  0.4759  0.3814
  988MOL0     C33285   6.539   3.029   3.901  0.3993  0.5291  0.5217
  988MOL0     C33286   6.491   3.076   4.035  0.4160 -0.5836  0.1237
  988MOL0     C33287   6.339   3.072   4.055 -0.1424 -0.0571 -1.2129
  988MOL0     C33288   6.308   3.133   4.186  0.2408 -0.1323  0.1282
  988MOL0     C33289   6.167   3.098   4.213  0.4587 -0.2909  0.2807
  988MOL0    Cl33290   6.066   3.165   4.071  0.2826  0.2639  0.0550
  988MOL0     C33291   7.159   2.953   3.675 -0.7165  0.4419  0.5362
  988MOL0     C33292   7.281   2.911   3.742  0.2495  0.5318  0.5759
  988MOL0     O33293   7.351   2.932   4.122  0.4836  0.8861 -0.4762
  988MOL0     C33294   7.574   2.834   4.243 -0.0193 -0.3432  1.3043
  988MOL0     C33295   7.697   2.821   4.301 -0.1251  0.2039 -0.0238
  988MOL0     N33296   8.340   3.038   4.586  1.0344 -0.0689 -0.5149
  988MOL0     N33297   8.414   3.059   4.684 -0.2333 -0.0528  0.3872
  988MOL0     C33298   9.270   2.832   4.123  0.4741 -0.1481  0.1991
  988MOL0     C33299   9.388   2.774   4.111  0.5191  0.2037  0.5765
  988MOL0     C33300   9.792   2.729   3.928 -0.1158  0.1081  0.0688
  988MOL0     C33301   9.877   2.642   4.007 -0.4620 -0.0333  0.9004
  988MOL0     C33302   9.989   2.579   3.941 -0.2159 -0.2422 -0.7579
  988MOL0     C33303  10.028   2.619   3.816 -0.0663  1.0018 -0.2951
  988MOL0     O33304  10.146   2.590   3.754  0.3939 -0.4465 -0.9512
  988MOL0     C33305  10.227   2.485   3.807 -0.2436 -0.0463 -0.1508
  988MOL0     C33306  10.352   2.458   3.722  0.2202 -0.4964  0.6489
  988MOL0     C33307  10.457   2.574   3.744  0.2344 -0.5975  0.2087
  988MOL0     C33308  10.555   2.592   3.628 -0.2794  0.0284  0.0883
  988MOL0     C33309  10.692   2.590   3.686  0.1102 -0.7653 -0.2415
  988MOL0     C33310  10.805   2.573   3.732 -0.4768 -0.7806  0.0678
  988MOL0     C33311   9.949   2.689   3.734  0.2395 -0.3006 -0.5051
  988MOL0     C33312   9.838   2.757   3.796  0.3603  0.5361  1.1249
  988MOL0     H33313   9.597   3.033   4.173  0.9624 -0.6179  2.6595
  988MOL0     H33314   9.383   3.150   4.205  0.7485  0.8898 -1.7337
  988MOL0     H33315   9.152   3.144   4.328  2.2008  0.4703 -0.5692
  988MOL0     H33316   9.198   3.238   4.195 -0.8736  1.4963  1.4234
  988MOL0     H33317   8.994   3.316   4.177  2.4738 -0.7075 -1.4570
  988MOL0     H33318   8.932   3.158   4.124 -0.5297 -1.9441  1.1175
  988MOL0     H33319   8.944   3.244   4.420  0.6765  1.2171 -0.6226
  988MOL0     H33320   8.804   3.269   4.310 -0.2022 -0.5206 -1.9821
  988MOL0     H33321   8.817   3.005   4.275 -3.2909  0.4078  0.4519
  988MOL0     H33322   8.944   3.006   4.392 -0.6421  0.0560 -0.0713
  988MOL0     H33323   8.667   3.123   4.467 -0.6921 -1.3674  1.8762
  988MOL0     H33324   8.695   2.947   4.473 -3.1317  1.2752  2.9987
  988MOL0     H33325   8.884   2.981   4.627  2.1418  1.7766  1.0863
  988MOL0     H33326   8.889   3.150   4.613 -1.3205  1.4523  1.3282
  988MOL0     H33327   8.791   3.119   4.819  0.3442 -1.0233 -0.3303
  988MOL0     H33328   8.665   3.168   4.716 -2.0471 -0.9866  0.9657
  988MOL0     H33329   8.597   2.993   4.867 -0.4330  0.6179 -0.0235
  988MOL0     H33330   8.697   2.873   4.767 -0.7195 -0.4378 -2.4003
  988MOL0     H33331   8.544   2.779   4.546  0.2085  0.8813  0.2618
  988MOL0     H33332   8.294   2.932   4.332 -0.1685 -2.1717 -2.5846
  988MOL0     H33333   8.377   2.775   4.372  1.3603  1.0129  0.2936
  988MOL0     H33334   8.105   2.857   4.502  0.3287  2.4108  0.3374
  988MOL0     H33335   8.223   2.732   4.556  1.1809 -0.2781 -2.0165
  988MOL0     H33336   8.088   2.596   4.403  3.1713 -2.8099 -2.4086
  988MOL0     H33337   8.219   2.647   4.313 -1.8526 -0.9558 -2.8681
  988MOL0     H33338   8.014   2.671   4.180  1.1592 -0.1368 -1.0744
  988MOL0     H33339   8.091   2.830   4.203  0.1274 -0.6764 -1.9456
  988MOL0     H33340   7.890   2.767   4.025  0.5857 -0.0822  0.7576
  988MOL0     H33341   7.653   2.691   3.843  0.7127  0.7788  0.3808
  988MOL0     H33342   7.616   2.865   3.843  0.0308 -0.3436 -1.4195
  988MOL0     H33343   7.788   2.793   3.848  1.1672 -0.5569  1.2048
  988MOL0     H33344   7.143   2.763   4.010 -2.3366 -0.1193 -0.3437
  988MOL0     H33345   6.938   2.837   3.901  0.4536 -1.4600 -0.7122
  988MOL0     H33346   6.941   3.141   3.864  0.3677 -1.5917  0.5702
  988MOL0     H33347   6.923   3.202   3.702  2.6868 -0.4522  0.6065
  988MOL0     H33348   6.726   3.228   3.836 -0.5534 -1.2327 -1.2542
  988MOL0     H33349   6.704   3.138   3.683 -1.7334 -1.2552 -0.0641
  988MOL0     H33350   6.753   3.023   3.965  0.1156  2.6498 -0.0851
  988MOL0     H33351   6.702   2.924   3.829  0.8981  0.3275  1.0647
  988MOL0     H33352   6.496   3.088   3.819  0.6013  2.1499  1.5472
  988MOL0     H33353   6.499   2.927   3.897  1.6869  0.0452 -1.0849
  988MOL0     H33354   6.521   3.181   4.036  1.3496 -0.7847 -2.0562
  988MOL0     H33355   6.538   3.027   4.121 -2.1673  0.2761  2.1697
  988MOL0     H33356   6.285   3.114   3.969 -0.4497 -1.7440 -1.8823
  988MOL0     H33357   6.311   2.966   4.058  0.0528 -0.0912 -0.0550
  988MOL0     H33358   6.317   3.241   4.189 -0.7156 -0.0543  0.8604
  988MOL0     H33359   6.368   3.083   4.263  1.5616 -0.1398 -0.8881
  988MOL0     H33360   6.140   3.146   4.308  0.7065 -1.2159  0.8431
  988MOL0     H33361   6.167   2.989   4.221  0.3833 -0.4880 -1.9754
  988MOL0     H33362   7.165   3.014   3.585 -0.7440  1.2657  1.0847
  988MOL0     H33363   7.381   2.923   3.704 -1.2485  2.5290 -3.3407
  988MOL0     H33364   7.485   2.871   4.293 -1.6852 -1.9215 -0.3476
  988MOL0     H33365   7.716   2.857   4.401 -0.1881 -1.7050  0.7104
  988MOL0     H33366   9.179   2.774   4.105  1.9115 -2.5753  0.3408
  988MOL0     H33367   9.396   2.666   4.106 -1.8392 -0.2517  3.3833
  988MOL0     H33368   9.867   2.624   4.113 -1.2318 -0.1219  0.8165
  988MOL0     H33369  10.049   2.514   4.004  0.7824  0.4729 -0.9574
  988MOL0     H33370  10.264   2.500   3.908  0.1458  2.7442 -0.6213
  988MOL0     H33371  10.169   2.394   3.819  0.3388 -0.3256  0.6232
  988MOL0     H33372  10.327   2.462   3.615  2.7724 -1.2817 -0.0537
  988MOL0     H33373  10.377   2.353   3.740 -0.3931 -1.4543 -3.1358
  988MOL0     H33374  10.512   2.556   3.837  0.5666  0.0564  0.1485
  988MOL0     H33375  10.415   2.673   3.766  1.2754 -0.3109  1.0007
  988MOL0     H33376  10.529   2.686   3.578 -2.9098 -0.6893 -0.0182
  988MOL0     H33377  10.539   2.513   3.555  2.8539  0.5523 -1.3333
  988MOL0     H33378  10.900   2.565   3.780 -0.3123 -0.7113 -0.2469
  988MOL0     H33379   9.979   2.702   3.630  1.2672  2.5230  0.0620
  988MOL0     H33380   9.781   2.827   3.735  1.5729  1.2132  0.7273
  989MOL0     O33381   8.891   8.042   9.954 -0.4527 -0.0073 -0.3619
  989MOL0     C33382   8.806   8.129   9.951  0.2103  0.8291  0.8017
  989MOL0     O33383   8.702   8.125   9.864  0.1285 -0.3259  0.2979
  989MOL0     C33384   8.681   8.035   9.767  0.1123  0.5765 -0.1683
  989MOL0     C33385   8.698   7.898   9.787 -0.3606  0.0017 -0.0192
  989MOL0     C33386   8.670   7.794   9.699 -0.1041 -0.2972  0.1384
  989MOL0     C33387   8.629   7.832   9.570  0.2553  0.0441  0.1287
  989MOL0     O33388   8.612   7.740   9.468 -0.8699 -0.8420  0.8032
  989MOL0     C33389   8.492   7.659   9.472 -0.6392  0.7651 -0.7216
  989MOL0     C33390   8.489   7.542   9.361 -1.1042 -0.0852  0.4735
  989MOL0     C33391   8.565   7.418   9.411 -1.0030  0.3158 -0.1799
  989MOL0     C33392   8.719   7.400   9.395  0.8616 -0.0891 -0.3174
  989MOL0     C33393   8.773   7.270   9.453  1.0993  0.1610 -1.3807
  989MOL0     C33394   8.734   7.161   9.360 -0.7262 -0.5749  0.0255
  989MOL0     C33395   8.803   7.032   9.408  0.1198 -0.1408 -0.8879
  989MOL0     C33396   8.732   6.900   9.359  0.1464  0.0052  0.3864
  989MOL0     N33397   8.799   6.778   9.400 -0.4606  0.8154  0.0992
  989MOL0     C33398   8.813   6.668   9.323 -0.3272  0.0873  0.2594
  989MOL0     C33399   8.845   6.566   9.401 -0.0140  0.2787 -0.0510
  989MOL0     C33400   8.875   6.418   9.365 -0.0900 -0.6841  0.6629
  989MOL0     C33401   8.783   6.317   9.431  0.2558  0.3250 -0.2160
  989MOL0     C33402   8.632   6.342   9.401 -1.0089 -0.2271 -0.0751
  989MOL0     C33403   8.544   6.244   9.481  0.2679 -0.7229  0.7937
  989MOL0     O33404   8.409   6.286   9.462  0.1992  0.0396 -0.4018
  989MOL0     C33405   8.311   6.219   9.525 -0.8282  0.1149  0.5621
  989MOL0     C33406   8.321   6.095   9.593  0.1794  0.3987  0.5849
  989MOL0     C33407   8.218   6.030   9.657 -1.3441 -0.7303 -0.3162
  989MOL0     C33408   8.241   5.895   9.730  0.3942 -0.0974 -0.5351
  989MOL0     C33409   8.091   6.090   9.660  0.4082  0.0138 -0.2226
  989MOL0     C33410   7.979   6.032   9.735  1.1063 -0.3267  0.7084
  989MOL0     O33411   7.989   5.947   9.847  0.4778 -0.5394 -0.4734
  989MOL0     C33412   7.872   5.912   9.905  0.2167  0.4053  0.1774
  989MOL0     C33413   7.783   5.996   9.969 -0.4238 -0.1559  0.4482
  989MOL0     C33414   7.655   5.952  10.012  0.0754  0.4073  0.3524
  989MOL0     C33415   7.624   5.819   9.988  0.4019  0.0430  0.1129
  989MOL0     O33416   7.490   5.781  10.001  0.3615  1.2786  0.4175
  989MOL0     C33417   7.431   5.693   9.905  0.4138  0.7380  0.1148
  989MOL0     C33418   7.293   5.646   9.950  0.5487 -1.2583 -0.3208
  989MOL0     C33419   7.191   5.761   9.996  0.6191 -0.7115  0.0665
  989MOL0     C33420   7.114   5.820   9.875  0.3012  0.7284 -0.4835
  989MOL0     C33421   6.987   5.744   9.848 -0.6230  0.4811 -0.1905
  989MOL0     C33422   6.884   5.829   9.769 -0.5930 -0.7706  0.2020
  989MOL0     C33423   6.743   5.774   9.772  0.3641 -0.5440  0.3982
  989MOL0     C33424   6.649   5.866   9.705  0.6528 -0.0801  0.6157
  989MOL0    Cl33425   6.699   5.895   9.539  0.0452  0.2843 -0.2130
  989MOL0     C33426   7.718   5.728   9.936  0.4160 -0.1129  0.0812
  989MOL0     C33427   7.841   5.776   9.900 -0.2786  0.5572  0.2150
  989MOL0     O33428   7.866   6.085   9.702 -0.5186 -0.1549 -0.1126
  989MOL0     C33429   8.076   6.207   9.589 -0.0061 -0.0984  0.0450
  989MOL0     C33430   8.180   6.273   9.527  0.2239 -0.1526  0.7880
  989MOL0     N33431   8.853   6.621   9.525  0.1365  0.3477 -0.0146
  989MOL0     N33432   8.822   6.743   9.525  0.0707  0.2843 -0.3702
  989MOL0     C33433   8.594   7.969   9.542 -0.2117 -0.0917 -0.4582
  989MOL0     C33434   8.618   8.070   9.638 -0.1599 -0.0738 -0.0815
  989MOL0     C33435   8.808   8.233  10.057  0.4218  0.4771  0.1455
  989MOL0     C33436   8.764   8.359  10.032 -0.5865 -0.7336  0.5625
  989MOL0     C33437   8.766   8.463  10.124  0.5098  0.8446 -0.4383
  989MOL0     C33438   8.798   8.437  10.256  0.4981 -0.2279 -0.2303
  989MOL0     O33439   8.776   8.538  10.344 -0.8736 -0.1463 -0.0747
  989MOL0     C33440   8.812   8.514  10.479 -0.1467 -0.8035 -0.0076
  989MOL0     C33441   8.799   8.637  10.560  1.0634  0.2140 -0.3895
  989MOL0     C33442   8.850   8.771  10.502 -0.1444 -0.3577  0.8560
  989MOL0     C33443   8.835   8.883  10.601 -0.0332 -0.0744 -0.5382
  989MOL0     C33444   8.938   8.887  10.707  0.4745  0.1208  0.1897
  989MOL0     C33445   9.004   8.886  10.802 -0.0212 -0.1343  0.1827
  989MOL0     C33446   8.845   8.309  10.287 -0.3064 -0.3738 -0.5589
  989MOL0     C33447   8.853   8.212  10.189  0.0249  0.4845  0.3112
  989MOL0     H33448   8.729   7.866   9.886  0.1415  1.3670  0.2892
  989MOL0     H33449   8.694   7.692   9.728 -0.0609 -0.0051  1.1840
  989MOL0     H33450   8.489   7.609   9.570  0.3523  0.0250 -1.0510
  989MOL0     H33451   8.402   7.720   9.461 -2.1723 -1.0721  0.7955
  989MOL0     H33452   8.381   7.524   9.361 -0.8470 -1.9255  1.4436
  989MOL0     H33453   8.519   7.559   9.257  2.1149 -2.4963  0.8468
  989MOL0     H33454   8.545   7.392   9.515  3.0110  0.8348  0.9123
  989MOL0     H33455   8.519   7.339   9.350 -0.5408 -1.1356  1.2921
  989MOL0     H33456   8.759   7.405   9.293 -0.3374 -2.3747 -0.9462
  989MOL0     H33457   8.760   7.482   9.456 -2.6079 -0.3964  2.7736
  989MOL0     H33458   8.877   7.282   9.484  0.4605 -1.3228  1.7026
  989MOL0     H33459   8.726   7.244   9.548  3.6465  0.4972  0.0441
  989MOL0     H33460   8.627   7.141   9.353 -1.8049  4.0110  0.4003
  989MOL0     H33461   8.776   7.191   9.263  0.9987  1.3361  1.2780
  989MOL0     H33462   8.905   7.034   9.370 -0.6574  0.5290 -3.1292
  989MOL0     H33463   8.790   7.041   9.516 -0.1927  0.2490 -0.9557
  989MOL0     H33464   8.736   6.899   9.250 -0.1378 -0.1879  0.3781
  989MOL0     H33465   8.628   6.901   9.393 -1.8468  0.4062 -4.8079
  989MOL0     H33466   8.812   6.665   9.214 -3.4325 -0.3228  0.2138
  989MOL0     H33467   8.860   6.403   9.258  1.6063 -1.8403  0.5517
  989MOL0     H33468   8.976   6.388   9.397  0.0191  0.4465  1.4329
  989MOL0     H33469   8.799   6.299   9.538  0.5156 -2.1203 -0.6038
  989MOL0     H33470   8.805   6.216   9.396  2.7054 -0.9873  4.2829
  989MOL0     H33471   8.614   6.320   9.296  4.1473 -2.9173 -0.7119
  989MOL0     H33472   8.587   6.441   9.418 -2.1622 -0.6305 -0.7096
  989MOL0     H33473   8.572   6.222   9.584  3.2271 -0.3500  0.1570
  989MOL0     H33474   8.564   6.144   9.440  2.3056 -1.3404  3.0533
  989MOL0     H33475   8.415   6.040   9.589  1.3549  1.9953  3.3368
  989MOL0     H33476   8.333   5.841   9.708 -1.0165 -3.6369  1.4356
  989MOL0     H33477   8.233   5.914   9.837 -0.6259 -0.6331 -0.5078
  989MOL0     H33478   8.160   5.829   9.698  2.6966 -3.4190  0.0353
  989MOL0     H33479   7.795   6.104   9.975 -2.5776  0.1236  0.5620
  989MOL0     H33480   7.580   6.017  10.054  0.3165 -0.5747  2.4229
  989MOL0     H33481   7.425   5.746   9.809 -0.2278  0.7901  0.1754
  989MOL0     H33482   7.489   5.601   9.899  0.1101  0.0420  4.6938
  989MOL0     H33483   7.241   5.597   9.867 -0.5629 -5.5733  2.5891
  989MOL0     H33484   7.299   5.579  10.036 -3.8088  1.5761  2.6227
  989MOL0     H33485   7.260   5.838  10.033  2.2176 -0.8147 -2.4666
  989MOL0     H33486   7.122   5.721  10.071 -0.8097  2.5499  0.7009
  989MOL0     H33487   7.108   5.926   9.900  0.4164  0.6970 -0.3188
  989MOL0     H33488   7.180   5.809   9.788 -2.0125 -0.2998 -2.1959
  989MOL0     H33489   6.939   5.708   9.939 -0.3529 -1.5033 -0.7613
  989MOL0     H33490   7.013   5.651   9.795 -1.2570  1.2326 -1.8759
  989MOL0     H33491   6.883   5.932   9.805 -1.0703 -0.1105 -1.5884
  989MOL0     H33492   6.926   5.842   9.669  1.7629 -0.0468  1.2033
  989MOL0     H33493   6.688   5.746   9.862 -1.7714  2.6642  0.2549
  989MOL0     H33494   6.749   5.685   9.708 -1.3497 -0.4764  0.0839
  989MOL0     H33495   6.658   5.961   9.759  1.9249 -0.0024  0.3051
  989MOL0     H33496   6.551   5.820   9.716  1.1105 -1.6258 -1.2185
  989MOL0     H33497   7.702   5.623   9.915 -1.8783  0.5412 -1.9221
  989MOL0     H33498   7.917   5.712   9.856  1.3006  2.9279 -0.6463
  989MOL0     H33499   7.982   6.259   9.580  0.5217  1.6755  3.2891
  989MOL0     H33500   8.154   6.353   9.459  1.6556  1.1787  1.7586
  989MOL0     H33501   8.537   7.998   9.454 -1.0021  0.4545  0.2170
  989MOL0     H33502   8.582   8.171   9.624 -1.1142 -0.2632  0.8664
  989MOL0     H33503   8.729   8.373   9.931  0.6969  2.1362  0.4051
  989MOL0     H33504   8.719   8.558  10.102 -1.2705  0.0520 -0.2395
  989MOL0     H33505   8.750   8.438  10.528  1.5138 -0.2412  3.2285
  989MOL0     H33506   8.918   8.486  10.480  0.5280  1.5963  1.0516
  989MOL0     H33507   8.863   8.615  10.646  3.5459  1.9838 -1.6700
  989MOL0     H33508   8.697   8.638  10.599  1.1962  1.5442 -0.0484
  989MOL0     H33509   8.786   8.798  10.416 -0.6861  0.5226  1.5134
  989MOL0     H33510   8.955   8.761  10.474 -0.0039 -0.4128  1.4050
  989MOL0     H33511   8.734   8.886  10.642  0.3209 -3.2374  0.8346
  989MOL0     H33512   8.860   8.976  10.549  3.7597  0.1297  1.3393
  989MOL0     H33513   9.066   8.861  10.886 -2.5305 -1.7570  1.6855
  989MOL0     H33514   8.883   8.273  10.381 -0.3161 -2.9290 -1.4582
  989MOL0     H33515   8.892   8.115  10.220 -1.0572 -0.3285 -0.7927
  990MOL0     O33516   3.989   2.895   1.743  0.4501  0.0092 -0.4293
  990MOL0     C33517   4.051   2.954   1.836 -0.4761 -0.9377  0.8011
  990MOL0     O33518   3.989   3.035   1.927 -0.2632  0.0231  0.3340
  990MOL0     C33519   3.875   3.108   1.901 -0.0228 -0.0749  0.1424
  990MOL0     C33520   3.814   3.153   2.016  1.0447  0.6425  0.2749
  990MOL0     C33521   3.695   3.227   2.006  0.0260  0.5767  0.7413
  990MOL0     C33522   3.641   3.263   1.884 -0.0672 -0.3145 -0.4000
  990MOL0     O33523   3.522   3.337   1.869  0.1790  0.5529 -1.3323
  990MOL0     C33524   3.459   3.402   1.980 -0.3122 -0.8604 -1.4475
  990MOL0     C33525   3.353   3.299   2.035  0.2649  0.2694  0.2264
  990MOL0     C33526   3.225   3.273   1.954  0.2327 -0.3262  0.0667
  990MOL0     C33527   3.116   3.196   2.035  0.3891 -0.3393 -0.5771
  990MOL0     C33528   3.003   3.137   1.955  0.0955  0.0896  0.5574
  990MOL0     C33529   2.920   3.243   1.874  0.7657  0.4196  0.4414
  990MOL0     C33530   2.850   3.348   1.953  0.2816 -0.3054 -0.4182
  990MOL0     C33531   2.785   3.449   1.867 -0.4040  0.0120  0.0103
  990MOL0     N33532   2.657   3.400   1.822 -0.3515  0.1173 -0.2077
  990MOL0     C33533   2.630   3.326   1.715 -0.0662  0.5208  0.1968
  990MOL0     C33534   2.504   3.273   1.731 -0.5048 -0.4677 -0.0584
  990MOL0     C33535   2.432   3.182   1.632 -0.0318 -0.3117 -1.3467
  990MOL0     C33536   2.408   3.040   1.689  0.3665 -0.3070  1.0580
  990MOL0     C33537   2.285   3.039   1.781 -0.8712 -0.1191  0.5322
  990MOL0     C33538   2.294   2.942   1.887  0.4679  1.0604 -0.2351
  990MOL0     O33539   2.321   2.813   1.840  0.7396 -0.0043  0.6006
  990MOL0     C33540   2.223   2.737   1.792  0.3071 -0.4760  0.0373
  990MOL0     C33541   2.264   2.643   1.700  0.1581  0.8071  0.4270
  990MOL0     C33542   2.163   2.581   1.618 -0.2833  0.0877  0.1696
  990MOL0     C33543   2.226   2.486   1.515 -0.8625 -0.2075  0.2229
  990MOL0     C33544   2.026   2.594   1.652  0.2812 -0.2272 -0.1964
  990MOL0     C33545   1.925   2.523   1.570  0.5757  0.5931  0.4220
  990MOL0     O33546   1.959   2.389   1.534  0.3092 -0.6452 -0.7338
  990MOL0     C33547   1.876   2.328   1.450  0.0068  1.2538  1.3899
  990MOL0     C33548   1.849   2.199   1.485 -0.1476 -0.1554  0.5869
  990MOL0     C33549   1.752   2.131   1.417  0.2079 -0.7327  0.9404
  990MOL0     C33550   1.682   2.188   1.308 -0.4898  0.1451  0.3479
  990MOL0     O33551   1.589   2.122   1.226 -0.6967  0.0229 -0.0051
  990MOL0     C33552   1.507   2.028   1.289  0.2569  1.2517 -0.2647
  990MOL0     C33553   1.438   1.943   1.176 -0.0339  0.3294  0.6489
  990MOL0     C33554   1.525   1.904   1.057  0.5654 -0.6432  0.0485
  990MOL0     C33555   1.674   1.860   1.087 -0.9573  0.0229 -0.0442
  990MOL0     C33556   1.719   1.789   0.958  0.6812  0.7279 -0.7119
  990MOL0     C33557   1.757   1.885   0.844 -0.0613  0.8617 -0.6282
  990MOL0     C33558   1.795   1.814   0.710  0.7624 -0.0074 -0.6661
  990MOL0     C33559   1.941   1.762   0.709  0.0150 -0.7559 -0.4999
  990MOL0    Cl33560   2.017   1.806   0.555 -0.0753  0.0388 -0.0374
  990MOL0     C33561   1.721   2.318   1.263  0.7653 -0.4168 -0.9221
  990MOL0     C33562   1.824   2.379   1.332 -0.1227  0.6815  0.3987
  990MOL0     O33563   1.821   2.576   1.544  0.1360 -0.6988  0.0476
  990MOL0     C33564   1.985   2.684   1.756  0.2793 -0.1216 -0.9276
  990MOL0     C33565   2.086   2.763   1.811 -0.2612  0.3759  0.0939
  990MOL0     N33566   2.463   3.320   1.855 -0.2008 -0.2912 -0.4183
  990MOL0     N33567   2.553   3.398   1.911 -0.0636  0.2335  0.5700
  990MOL0     C33568   3.707   3.222   1.768  0.0331 -0.7287  0.4786
  990MOL0     C33569   3.822   3.138   1.774 -1.1937 -0.0298  0.2067
  990MOL0     C33570   4.195   2.933   1.844  0.5735 -0.5930  1.1645
  990MOL0     C33571   4.272   2.975   1.954 -0.3366 -0.6480  0.1724
  990MOL0     C33572   4.416   2.945   1.957 -0.1094  0.8444  0.2929
  990MOL0     C33573   4.472   2.880   1.846  0.3880  0.3227  0.0605
  990MOL0     O33574   4.598   2.836   1.832 -0.3698 -0.1719  0.2446
  990MOL0     C33575   4.689   2.923   1.762 -0.7280 -0.2953 -0.1164
  990MOL0     C33576   4.813   2.837   1.734 -0.3787  0.5978  0.3367
  990MOL0     C33577   4.788   2.734   1.617  0.5172 -0.5595 -0.4931
  990MOL0     C33578   4.915   2.644   1.604 -0.3292  1.0898  0.3547
  990MOL0     C33579   5.027   2.725   1.598 -0.3439  0.0260 -0.4570
  990MOL0     C33580   5.118   2.806   1.590 -0.5161 -0.4359 -0.6204
  990MOL0     C33581   4.394   2.842   1.738 -0.2167 -0.4862  0.0032
  990MOL0     C33582   4.260   2.865   1.730 -0.2420  1.0577  0.3288
  990MOL0     H33583   3.852   3.114   2.110 -1.7821 -2.2796  0.3508
  990MOL0     H33584   3.647   3.252   2.100 -2.6923 -0.0142 -0.3816
  990MOL0     H33585   3.546   3.425   2.042 -1.5671 -0.4844  0.2467
  990MOL0     H33586   3.412   3.494   1.944  0.5517 -0.4153 -1.4530
  990MOL0     H33587   3.397   3.201   2.061  0.2901  0.6649  1.7993
  990MOL0     H33588   3.313   3.343   2.127 -0.4583  0.9962 -0.4279
  990MOL0     H33589   3.196   3.367   1.906 -0.0563 -0.0669  0.7292
  990MOL0     H33590   3.255   3.208   1.871  1.7691 -1.3412  1.3693
  990MOL0     H33591   3.163   3.114   2.091 -0.0042 -1.2697 -1.5825
  990MOL0     H33592   3.076   3.264   2.111 -4.8092 -1.1255 -2.2728
  990MOL0     H33593   3.046   3.076   1.876  1.0359  1.2559  0.1254
  990MOL0     H33594   2.938   3.081   2.023  0.0920 -1.0766 -0.3896
  990MOL0     H33595   2.988   3.291   1.802 -1.3010  1.1688 -1.1275
  990MOL0     H33596   2.848   3.185   1.815  1.6642 -0.8526  0.5400
  990MOL0     H33597   2.771   3.313   2.021 -1.7310  4.3470 -0.0229
  990MOL0     H33598   2.927   3.395   2.016 -2.0061  1.4735  1.2058
  990MOL0     H33599   2.851   3.477   1.785  1.9318  2.4165  2.5196
  990MOL0     H33600   2.758   3.542   1.917 -0.1475  0.0285  0.1170
  990MOL0     H33601   2.682   3.305   1.623 -2.0875  1.2395 -1.1761
  990MOL0     H33602   2.341   3.237   1.607 -0.2945  1.5835  2.9335
  990MOL0     H33603   2.481   3.178   1.535 -0.5866  1.2986 -1.7221
  990MOL0     H33604   2.499   2.999   1.733  0.8465  2.3768  2.7610
  990MOL0     H33605   2.381   2.978   1.603 -1.9103 -0.8094  2.0454
  990MOL0     H33606   2.197   3.036   1.716 -0.5854 -1.5182  0.1547
  990MOL0     H33607   2.284   3.135   1.832  0.1558  0.4560 -0.4809
  990MOL0     H33608   2.216   2.941   1.963 -1.1964 -1.9975 -1.7548
  990MOL0     H33609   2.387   2.965   1.938  2.8008 -1.7828 -2.7707
  990MOL0     H33610   2.370   2.630   1.684 -0.1203  1.3189 -2.4216
  990MOL0     H33611   2.200   2.380   1.524 -0.5997 -0.4135 -1.2486
  990MOL0     H33612   2.188   2.517   1.417  0.8967  0.5761 -0.2521
  990MOL0     H33613   2.332   2.498   1.493 -1.1986  4.7537  0.1536
  990MOL0     H33614   1.890   2.175   1.582  1.3240  2.3208  0.6693
  990MOL0     H33615   1.716   2.032   1.444 -3.6677  0.5635  1.1110
  990MOL0     H33616   1.558   1.956   1.354 -0.4577 -1.4719 -2.5111
  990MOL0     H33617   1.425   2.069   1.348 -1.3946 -0.5579 -1.1940
  990MOL0     H33618   1.378   1.869   1.231  1.3417 -2.0912 -0.9323
  990MOL0     H33619   1.368   2.008   1.123 -0.0155 -1.7172 -2.1003
  990MOL0     H33620   1.531   1.994   0.995  1.1483 -0.7782 -0.0974
  990MOL0     H33621   1.485   1.813   1.012  2.2864 -2.3794  1.7961
  990MOL0     H33622   1.744   1.944   1.097 -0.9954  0.4425 -2.5023
  990MOL0     H33623   1.683   1.796   1.175 -1.8149 -0.1027 -0.0401
  990MOL0     H33624   1.640   1.719   0.929 -0.8122 -0.4054  4.8005
  990MOL0     H33625   1.806   1.728   0.982 -0.4082 -0.7915 -0.4854
  990MOL0     H33626   1.676   1.957   0.829 -0.6064  0.5202  0.6082
  990MOL0     H33627   1.838   1.947   0.884  0.4018 -0.6096  0.8281
  990MOL0     H33628   1.783   1.879   0.624 -0.4492  0.5201 -0.1189
  990MOL0     H33629   1.737   1.721   0.705  0.2249  0.3187 -0.5235
  990MOL0     H33630   1.950   1.653   0.721  0.3830 -0.7041 -0.2731
  990MOL0     H33631   1.993   1.815   0.789 -0.7154  2.0326 -1.7692
  990MOL0     H33632   1.675   2.382   1.189  0.7250  1.0773  0.3435
  990MOL0     H33633   1.865   2.477   1.312  1.7729 -0.3555 -1.0991
  990MOL0     H33634   1.882   2.687   1.791  0.7814 -0.1772  0.6293
  990MOL0     H33635   2.050   2.830   1.888  1.6996  0.1493  1.2951
  990MOL0     H33636   3.671   3.264   1.674  0.9889 -0.7944  0.0646
  990MOL0     H33637   3.869   3.109   1.681 -3.3264 -1.3064 -0.5388
  990MOL0     H33638   4.231   3.017   2.046  1.8810 -1.6466  1.7048
  990MOL0     H33639   4.483   2.980   2.035 -2.4494 -0.1932  2.9261
  990MOL0     H33640   4.646   2.960   1.669 -0.7513  1.2012  0.4647
  990MOL0     H33641   4.708   3.010   1.825  0.9754 -1.5617  1.2308
  990MOL0     H33642   4.842   2.777   1.821 -1.0063 -0.8098 -0.3980
  990MOL0     H33643   4.891   2.910   1.710 -0.1574  1.0717  2.2989
  990MOL0     H33644   4.758   2.786   1.526 -3.7196  0.3358  1.1707
  990MOL0     H33645   4.701   2.676   1.648  2.4555 -4.7610 -2.0654
  990MOL0     H33646   4.904   2.585   1.513  0.9024  0.9855  0.2648
  990MOL0     H33647   4.918   2.568   1.682 -2.4556  3.8443  3.4077
  990MOL0     H33648   5.206   2.865   1.572  1.0689 -2.1342  1.1115
  990MOL0     H33649   4.440   2.792   1.653 -0.1625  0.0280 -0.2730
  990MOL0     H33650   4.205   2.819   1.648  0.5290  1.1733 -0.2586
  991MOL0     O33651  10.090   4.216   1.249 -0.4049  0.3511 -0.4137
  991MOL0     C33652  10.095   4.221   1.367  0.5726  0.4045 -0.0153
  991MOL0     O33653   9.999   4.265   1.453 -0.4036 -0.0831 -0.5826
  991MOL0     C33654   9.864   4.272   1.418 -0.1381  1.0049  1.0773
  991MOL0     C33655   9.802   4.211   1.310  0.0435  0.4748 -0.0918
  991MOL0     C33656   9.660   4.212   1.306  0.4566  0.0209  0.5648
  991MOL0     C33657   9.579   4.270   1.400 -0.2110 -0.2168 -0.1584
  991MOL0     O33658   9.445   4.285   1.384 -0.2622 -0.0621 -0.6461
  991MOL0     C33659   9.357   4.254   1.492 -0.0211  0.2122  0.1070
  991MOL0     C33660   9.214   4.304   1.442  0.3743  0.1873 -0.0816
  991MOL0     C33661   9.112   4.262   1.541 -0.6973  0.3381  0.0859
  991MOL0     C33662   8.986   4.335   1.518 -0.1480  0.0019 -0.2146
  991MOL0     C33663   8.863   4.258   1.563 -0.0029 -0.2420 -0.0413
  991MOL0     C33664   8.769   4.361   1.610 -0.1676 -0.0106 -0.8897
  991MOL0     C33665   8.630   4.302   1.637 -0.9034  0.3436  0.4703
  991MOL0     C33666   8.604   4.211   1.761 -0.1110  0.4628  0.5826
  991MOL0     N33667   8.457   4.210   1.784 -0.5762  0.3561 -0.0139
  991MOL0     C33668   8.382   4.318   1.829 -0.2476 -0.0110  0.2380
  991MOL0     C33669   8.274   4.258   1.886 -0.2163 -0.1010  0.3737
  991MOL0     C33670   8.167   4.345   1.935  0.1980 -0.5540  0.5116
  991MOL0     C33671   8.140   4.337   2.085 -0.6833  0.2225 -0.6336
  991MOL0     C33672   8.022   4.424   2.137  0.7674  0.5120 -0.4881
  991MOL0     C33673   8.025   4.569   2.093  0.6419  0.2411  0.8169
  991MOL0     O33674   7.985   4.587   1.954  0.3289 -0.1403  0.4135
  991MOL0     C33675   7.868   4.650   1.922 -0.6065 -0.1272 -0.1077
  991MOL0     C33676   7.861   4.734   1.809  0.6303  0.1223 -0.0465
  991MOL0     C33677   7.742   4.800   1.775 -0.9231  0.6150 -0.0760
  991MOL0     C33678   7.745   4.897   1.650  0.0688 -0.2507 -0.3101
  991MOL0     C33679   7.638   4.794   1.872  0.3927 -0.2048  0.0566
  991MOL0     C33680   7.517   4.870   1.847 -0.0915  0.1644  0.4070
  991MOL0     O33681   7.406   4.801   1.878  0.4025  0.5476 -0.1561
  991MOL0     C33682   7.300   4.876   1.913  0.5796  1.1140 -0.2850
  991MOL0     C33683   7.238   4.944   1.817  0.7947  0.4930  0.0759
  991MOL0     C33684   7.129   5.026   1.836  0.3615  1.0910 -0.2407
  991MOL0     C33685   7.075   5.035   1.966  0.1972  0.0277  0.4705
  991MOL0     O33686   6.974   5.121   1.987  1.1850 -0.5106 -0.1566
  991MOL0     C33687   6.958   5.176   2.121 -0.5423  0.1219  0.0520
  991MOL0     C33688   6.808   5.214   2.143  1.0670  0.4796  0.0349
  991MOL0     C33689   6.763   5.307   2.035  0.2429 -0.2010 -0.2139
  991MOL0     C33690   6.610   5.334   2.022 -0.4150  0.0822  0.2012
  991MOL0     C33691   6.581   5.466   1.953 -0.0572 -0.6290  0.0113
  991MOL0     C33692   6.433   5.498   1.910  0.2305  0.3339 -0.9346
  991MOL0     C33693   6.417   5.637   1.854  0.7139 -0.0446  0.2936
  991MOL0     C33694   6.263   5.644   1.823 -0.0089  0.0586  0.2779
  991MOL0    Cl33695   6.166   5.676   1.967 -0.0148  0.4005 -0.3337
  991MOL0     C33696   7.141   4.956   2.065  0.0065 -0.2089 -0.0627
  991MOL0     C33697   7.246   4.865   2.035  0.2765 -0.0749 -0.4129
  991MOL0     O33698   7.521   4.993   1.827 -0.6063  0.0785 -0.3901
  991MOL0     C33699   7.647   4.700   1.970 -0.0325 -0.4788  0.6764
  991MOL0     C33700   7.755   4.630   2.000  0.5867 -0.4935 -0.1478
  991MOL0     N33701   8.283   4.118   1.875  0.8810  0.3991  0.3307
  991MOL0     N33702   8.391   4.092   1.815  0.6907  0.1381 -0.6380
  991MOL0     C33703   9.646   4.336   1.511 -0.6981  0.9793  0.0025
  991MOL0     C33704   9.787   4.325   1.519 -0.0935  0.3006 -0.5688
  991MOL0     C33705  10.215   4.162   1.427 -0.1521 -0.0907  0.0708
  991MOL0     C33706  10.225   4.128   1.566 -0.0787  0.3080 -0.0387
  991MOL0     C33707  10.342   4.063   1.613 -0.2286  0.1155 -0.0016
  991MOL0     C33708  10.447   4.036   1.522 -0.4775 -0.3605 -0.6118
  991MOL0     O33709  10.559   3.962   1.559  0.1554  0.4315 -0.1774
  991MOL0     C33710  10.555   3.895   1.690  0.1022  0.2785 -0.1801
  991MOL0     C33711  10.675   3.801   1.699 -0.0845  0.6776 -0.1164
  991MOL0     C33712  10.666   3.657   1.634  1.0988  1.0648  0.2132
  991MOL0     C33713  10.727   3.548   1.709  0.2045  0.2968  0.3160
  991MOL0     C33714  10.702   3.423   1.636  0.3042 -0.7600 -0.4512
  991MOL0     C33715  10.681   3.318   1.576  0.0238  0.1659 -0.6236
  991MOL0     C33716  10.439   4.075   1.389 -0.4316  0.1766  0.0236
  991MOL0     C33717  10.325   4.141   1.342 -0.1975 -0.1898 -0.5509
  991MOL0     H33718   9.850   4.140   1.244  0.7360  1.8630 -1.1487
  991MOL0     H33719   9.599   4.161   1.232  1.6778 -2.1194  0.9474
  991MOL0     H33720   9.356   4.148   1.519 -0.4134  0.4511  1.0820
  991MOL0     H33721   9.375   4.305   1.587 -0.2717  1.0453 -0.2893
  991MOL0     H33722   9.222   4.413   1.439 -0.3614  0.3107  1.5318
  991MOL0     H33723   9.191   4.264   1.343 -0.3889  0.6401 -0.0943
  991MOL0     H33724   9.101   4.153   1.539  3.6017 -0.2470  0.2020
  991MOL0     H33725   9.152   4.285   1.640  0.0881 -0.9326  0.0778
  991MOL0     H33726   9.012   4.422   1.579  1.3450 -0.6357  0.1014
  991MOL0     H33727   8.967   4.367   1.415 -4.8728 -0.7803  0.1765
  991MOL0     H33728   8.817   4.200   1.484 -1.2675  1.1144 -0.3459
  991MOL0     H33729   8.884   4.194   1.649 -1.2117 -1.4144 -0.5993
  991MOL0     H33730   8.812   4.402   1.702  0.2280  0.0603 -1.1048
  991MOL0     H33731   8.742   4.433   1.532 -1.7122 -0.1209 -0.4917
  991MOL0     H33732   8.568   4.393   1.638 -0.0384  1.0068 -1.2924
  991MOL0     H33733   8.598   4.245   1.550 -1.6153  0.0268  0.9312
  991MOL0     H33734   8.652   4.252   1.851 -0.8596 -0.1915  1.3008
  991MOL0     H33735   8.641   4.109   1.750 -1.2379  0.1276 -0.2263
  991MOL0     H33736   8.409   4.423   1.819 -0.4894 -0.0048 -0.3520
  991MOL0     H33737   8.193   4.450   1.919  2.9773 -1.3153 -0.3876
  991MOL0     H33738   8.076   4.325   1.877 -0.3786 -0.0793  1.2247
  991MOL0     H33739   8.227   4.381   2.134  0.3588 -2.9536  0.6303
  991MOL0     H33740   8.124   4.239   2.131  0.2023 -0.2985 -1.3964
  991MOL0     H33741   8.021   4.421   2.246  0.4971 -1.0772 -0.5152
  991MOL0     H33742   7.932   4.374   2.100  1.6952 -0.6450 -1.2479
  991MOL0     H33743   8.133   4.590   2.095  0.7575 -0.0139 -1.0751
  991MOL0     H33744   7.972   4.632   2.165 -1.5312 -1.5291  0.8721
  991MOL0     H33745   7.952   4.741   1.751  0.7040 -2.6374 -0.4367
  991MOL0     H33746   7.794   4.990   1.680 -1.4152 -0.4196  3.0411
  991MOL0     H33747   7.793   4.845   1.566  0.5163  1.3008 -1.0651
  991MOL0     H33748   7.646   4.935   1.623  1.1704  2.8245 -0.4280
  991MOL0     H33749   7.286   4.932   1.720 -0.4107 -3.1480 -0.2118
  991MOL0     H33750   7.083   5.077   1.751  0.4768 -1.9559 -2.2622
  991MOL0     H33751   6.987   5.108   2.202  2.3588  4.6663  3.2683
  991MOL0     H33752   7.024   5.262   2.133 -1.2588  0.9850 -1.8570
  991MOL0     H33753   6.745   5.127   2.126  0.1582  1.3418 -1.0984
  991MOL0     H33754   6.790   5.259   2.242  0.4315 -2.3178  1.2929
  991MOL0     H33755   6.795   5.276   1.935  0.2779 -1.5828  0.2012
  991MOL0     H33756   6.817   5.401   2.051  0.6856 -0.5169  0.1980
  991MOL0     H33757   6.569   5.253   1.961  1.2169 -0.2768 -0.4611
  991MOL0     H33758   6.559   5.331   2.119 -2.5744  1.6786 -0.8257
  991MOL0     H33759   6.646   5.472   1.865  1.4780 -1.0520  1.0595
  991MOL0     H33760   6.615   5.541   2.025 -1.5861 -2.3212  2.6513
  991MOL0     H33761   6.387   5.425   1.844 -2.2241 -1.4546  2.4427
  991MOL0     H33762   6.378   5.496   2.005 -0.5420 -0.7467 -1.3883
  991MOL0     H33763   6.475   5.638   1.761 -1.0186 -4.1248 -1.0353
  991MOL0     H33764   6.438   5.720   1.922 -0.8286  2.4430 -2.0326
  991MOL0     H33765   6.216   5.556   1.778 -0.9523  0.6475  0.1003
  991MOL0     H33766   6.258   5.720   1.745  4.4591 -1.1853 -1.5416
  991MOL0     H33767   7.129   4.976   2.171 -0.2862  0.3756 -0.2019
  991MOL0     H33768   7.283   4.799   2.113  0.3539 -0.3151 -0.6471
  991MOL0     H33769   7.563   4.693   2.038 -1.8047  0.6366 -1.2629
  991MOL0     H33770   7.768   4.563   2.084  2.2446 -0.2240 -0.1428
  991MOL0     H33771   9.602   4.379   1.601 -0.3657 -1.9234  1.6981
  991MOL0     H33772   9.853   4.360   1.597 -0.0381 -3.5637  1.3753
  991MOL0     H33773  10.158   4.147   1.648 -0.6322  1.2894 -0.7035
  991MOL0     H33774  10.339   4.038   1.719 -2.7801 -2.7747 -0.6153
  991MOL0     H33775  10.567   3.967   1.772 -1.1258  2.2713 -1.6403
  991MOL0     H33776  10.467   3.830   1.699  0.7497 -1.7409 -5.2318
  991MOL0     H33777  10.692   3.770   1.802  1.3538  1.4627 -0.0931
  991MOL0     H33778  10.763   3.851   1.657  0.4362 -0.1018  0.0286
  991MOL0     H33779  10.705   3.663   1.532 -0.2971 -0.0141 -0.4061
  991MOL0     H33780  10.560   3.631   1.644  0.1477  5.0129  3.1979
  991MOL0     H33781  10.689   3.541   1.811 -2.2257 -3.0990 -0.6724
  991MOL0     H33782  10.834   3.573   1.709  0.2374  0.2910  1.9900
  991MOL0     H33783  10.671   3.221   1.532  0.9814 -0.8645  1.3003
  991MOL0     H33784  10.518   4.048   1.320  1.8456  2.3369  1.5766
  991MOL0     H33785  10.315   4.155   1.234  0.8061 -1.3800 -0.8238
  992MOL0     O33786   6.367   3.699   5.291  1.1920  0.1357  0.2679
  992MOL0     C33787   6.380   3.717   5.165 -0.6765 -0.4893 -0.6950
  992MOL0     O33788   6.283   3.742   5.083 -0.1707 -0.7162 -0.4966
  992MOL0     C33789   6.161   3.745   5.142  0.8207  0.4317  0.3610
  992MOL0     C33790   6.091   3.625   5.132 -0.6030  0.8254 -0.1224
  992MOL0     C33791   5.966   3.620   5.189  0.3699 -0.5057 -0.5833
  992MOL0     C33792   5.910   3.714   5.264 -1.1070 -0.3961 -0.4253
  992MOL0     O33793   5.782   3.702   5.318  0.0945 -0.1777  0.0033
  992MOL0     C33794   5.677   3.712   5.221 -0.3967  0.3183  0.3435
  992MOL0     C33795   5.557   3.690   5.307  0.7531  0.6147  0.3705
  992MOL0     C33796   5.431   3.690   5.224 -0.0224  0.3064 -1.4415
  992MOL0     C33797   5.315   3.745   5.304  0.2426 -0.1601  0.1960
  992MOL0     C33798   5.191   3.732   5.211 -0.1783 -0.7542  0.7006
  992MOL0     C33799   5.060   3.789   5.271  1.1016  0.2756  0.9676
  992MOL0     C33800   4.998   3.701   5.378 -0.2941  0.4190 -0.8160
  992MOL0     C33801   4.888   3.778   5.447 -0.2959 -0.6776 -0.2930
  992MOL0     N33802   4.784   3.840   5.368  0.4871 -0.6053  0.0236
  992MOL0     C33803   4.665   3.776   5.334  1.0195 -0.3710  0.0348
  992MOL0     C33804   4.598   3.879   5.279  0.2706  0.9468 -1.2539
  992MOL0     C33805   4.462   3.873   5.212  0.1672  0.3898  0.0148
  992MOL0     C33806   4.462   3.753   5.119 -0.1989  0.0699  0.9602
  992MOL0     C33807   4.357   3.782   5.010 -0.4707 -0.2248 -0.2093
  992MOL0     C33808   4.218   3.801   5.071  0.6247  0.4506 -0.5463
  992MOL0     O33809   4.188   3.705   5.180  0.4338  0.4145 -0.0043
  992MOL0     C33810   4.084   3.616   5.157  1.1938 -0.4675 -0.1758
  992MOL0     C33811   3.970   3.617   5.248  0.7418 -0.4423  0.8244
  992MOL0     C33812   3.857   3.540   5.230 -0.2712  0.2404  0.6026
  992MOL0     C33813   3.749   3.545   5.345 -0.6409  0.8185 -0.1513
  992MOL0     C33814   3.859   3.461   5.109 -0.1154  0.5752  0.6078
  992MOL0     C33815   3.752   3.356   5.088  1.1580 -0.8079 -0.1096
  992MOL0     O33816   3.713   3.330   4.966 -0.3723  0.5471 -0.1195
  992MOL0     C33817   3.616   3.237   4.938  0.7327 -1.5078 -0.8518
  992MOL0     C33818   3.503   3.247   5.020 -0.1641  0.3299 -0.6574
  992MOL0     C33819   3.389   3.164   4.997 -0.3181 -0.0615  0.3463
  992MOL0     C33820   3.388   3.071   4.889  0.4899 -0.7778 -0.4495
  992MOL0     O33821   3.277   3.003   4.881 -0.0659  0.1461  0.7650
  992MOL0     C33822   3.245   2.932   4.761 -0.8087 -0.2166 -1.5878
  992MOL0     C33823   3.093   2.914   4.745 -0.4213 -0.5159 -1.3618
  992MOL0     C33824   3.052   2.845   4.618  0.0141 -0.0628 -0.0207
  992MOL0     C33825   2.894   2.824   4.609 -1.3623  0.9577 -0.1212
  992MOL0     C33826   2.839   2.835   4.468  0.0179 -0.1141 -0.1730
  992MOL0     C33827   2.863   2.714   4.373 -0.2089 -0.4128  0.2773
  992MOL0     C33828   2.779   2.592   4.424 -0.4656 -0.3394 -0.4451
  992MOL0     C33829   2.830   2.460   4.362 -0.7504  0.2337 -0.3061
  992MOL0    Cl33830   2.747   2.316   4.449 -0.5525 -0.1236 -0.0530
  992MOL0     C33831   3.504   3.067   4.812  0.6319 -0.2228  0.0041
  992MOL0     C33832   3.619   3.152   4.832  0.5103 -0.0827  0.9311
  992MOL0     O33833   3.722   3.294   5.193 -0.9870 -0.7786  0.1168
  992MOL0     C33834   3.957   3.473   5.011 -0.9197  0.2345  0.0466
  992MOL0     C33835   4.071   3.551   5.043 -0.0701 -0.6182  0.4508
  992MOL0     N33836   4.664   3.997   5.289 -0.7578 -0.1647  0.0922
  992MOL0     N33837   4.781   3.968   5.328 -0.4247 -0.2986  0.3121
  992MOL0     C33838   5.984   3.830   5.281 -1.1481 -1.4554  0.2188
  992MOL0     C33839   6.102   3.850   5.213  0.2257  0.1275 -0.5153
  992MOL0     C33840   6.518   3.739   5.125  1.2792  0.0445  0.0770
  992MOL0     C33841   6.632   3.687   5.193 -0.8958  0.0108  0.1527
  992MOL0     C33842   6.759   3.720   5.144 -0.6770 -0.3655 -0.1367
  992MOL0     C33843   6.781   3.802   5.042 -0.5076  0.1437  0.6375
  992MOL0     O33844   6.905   3.846   5.016  0.0544  0.0083  1.2679
  992MOL0     C33845   7.003   3.751   4.977 -0.5523 -0.6042 -0.9519
  992MOL0     C33846   7.124   3.804   4.913 -0.9220  0.0457  0.4464
  992MOL0     C33847   7.218   3.877   5.005 -0.1138 -0.4442  0.0614
  992MOL0     C33848   7.169   4.002   5.077  0.1636 -0.0972 -0.5048
  992MOL0     C33849   7.278   4.078   5.143 -0.2076  0.4867 -0.1202
  992MOL0     C33850   7.360   4.149   5.201  0.1671  0.5202  0.8655
  992MOL0     C33851   6.670   3.873   4.989 -0.2306 -0.4650 -0.4245
  992MOL0     C33852   6.541   3.839   5.031 -0.0087  0.1326 -0.0772
  992MOL0     H33853   6.119   3.540   5.070  0.9864  0.3633  1.1563
  992MOL0     H33854   5.899   3.536   5.171  1.2914 -1.5550  0.7249
  992MOL0     H33855   5.679   3.806   5.166 -2.6769  0.3097  0.1407
  992MOL0     H33856   5.671   3.627   5.151 -0.5905  1.2579 -0.8193
  992MOL0     H33857   5.567   3.587   5.343  0.1268  0.5195  0.2924
  992MOL0     H33858   5.542   3.753   5.395 -3.2978 -1.0249  1.0947
  992MOL0     H33859   5.442   3.758   5.139  1.7141  1.2558 -0.5104
  992MOL0     H33860   5.413   3.594   5.175  1.0184  1.1804 -3.6633
  992MOL0     H33861   5.306   3.697   5.402  1.3571 -1.5380 -0.3444
  992MOL0     H33862   5.325   3.853   5.321 -0.9770  0.1634 -0.9935
  992MOL0     H33863   5.226   3.782   5.120 -1.2105 -1.8679 -0.3305
  992MOL0     H33864   5.176   3.627   5.187 -1.5542 -0.7027  1.2769
  992MOL0     H33865   5.083   3.886   5.317  0.7251  0.5915  0.4963
  992MOL0     H33866   4.988   3.808   5.192 -1.0582 -4.3764  1.4783
  992MOL0     H33867   4.968   3.611   5.325  0.0616 -1.0767  1.4006
  992MOL0     H33868   5.065   3.672   5.460 -1.4750 -3.2721 -1.0089
  992MOL0     H33869   4.924   3.854   5.518 -0.7865  0.1375 -0.9072
  992MOL0     H33870   4.834   3.704   5.507 -2.6319 -0.0770 -1.5701
  992MOL0     H33871   4.636   3.674   5.353 -3.2696  1.0136  2.2280
  992MOL0     H33872   4.377   3.864   5.281 -1.9015  1.0976 -2.2968
  992MOL0     H33873   4.462   3.969   5.160  1.1305  0.8554  0.8505
  992MOL0     H33874   4.444   3.658   5.170  2.8709 -0.6748  0.8715
  992MOL0     H33875   4.559   3.734   5.073  0.1129  0.2758  1.5257
  992MOL0     H33876   4.340   3.700   4.939 -0.3090  0.3382 -0.9100
  992MOL0     H33877   4.379   3.872   4.952  0.4931 -0.5667 -0.3952
  992MOL0     H33878   4.141   3.782   4.995  0.9735 -1.2790 -0.5247
  992MOL0     H33879   4.212   3.904   5.107  0.4554  0.5228 -0.7735
  992MOL0     H33880   3.971   3.675   5.339 -0.2357 -0.9881  1.2073
  992MOL0     H33881   3.774   3.484   5.432  1.7478  3.4115  1.1301
  992MOL0     H33882   3.730   3.648   5.377 -0.6444  1.1194 -1.0846
  992MOL0     H33883   3.656   3.506   5.303  0.8978 -0.5691 -2.5132
  992MOL0     H33884   3.510   3.315   5.104  0.1622  3.1728 -2.8536
  992MOL0     H33885   3.304   3.161   5.064 -0.7306 -0.0599 -0.1715
  992MOL0     H33886   3.279   2.975   4.667 -2.0163 -1.1954 -2.4980
  992MOL0     H33887   3.289   2.832   4.772 -0.7993 -0.2057 -1.5254
  992MOL0     H33888   3.049   2.865   4.832  0.0208  1.6041  0.1362
  992MOL0     H33889   3.045   3.013   4.744 -0.2937 -0.4245 -3.0914
  992MOL0     H33890   3.105   2.750   4.613  0.8916  0.0369  3.8637
  992MOL0     H33891   3.089   2.905   4.534 -1.4346 -2.2433 -2.3320
  992MOL0     H33892   2.858   2.733   4.658 -1.0118  0.8798 -0.0048
  992MOL0     H33893   2.850   2.909   4.663  2.4133  1.1908  3.0654
  992MOL0     H33894   2.872   2.927   4.419 -4.6652  0.4738 -2.9356
  992MOL0     H33895   2.732   2.855   4.478 -0.2774 -0.7768 -1.6784
  992MOL0     H33896   2.825   2.739   4.273  0.3791 -1.6678 -0.2808
  992MOL0     H33897   2.971   2.697   4.380  0.2985  2.3318  0.5685
  992MOL0     H33898   2.669   2.598   4.418 -0.3948  0.0076 -1.7197
  992MOL0     H33899   2.790   2.574   4.531 -2.4278  0.6045 -0.0255
  992MOL0     H33900   2.936   2.452   4.387 -1.3966 -0.8886  2.4512
  992MOL0     H33901   2.825   2.455   4.253  2.5410  2.0616 -0.6729
  992MOL0     H33902   3.515   2.982   4.745 -2.2352 -0.4064 -0.3823
  992MOL0     H33903   3.709   3.162   4.773 -1.4170 -0.9102 -2.3896
  992MOL0     H33904   3.960   3.429   4.912  1.7021  1.1410 -0.3717
  992MOL0     H33905   4.155   3.555   4.974 -0.5199 -2.2661 -0.2527
  992MOL0     H33906   5.948   3.915   5.339  0.0588  1.3980 -2.8832
  992MOL0     H33907   6.137   3.952   5.221 -0.4022  0.3054  0.0506
  992MOL0     H33908   6.612   3.619   5.275  3.6875 -1.0980  0.6290
  992MOL0     H33909   6.834   3.676   5.208 -1.1461 -0.6341  0.2352
  992MOL0     H33910   7.036   3.686   5.059 -1.1146 -0.7252 -0.8146
  992MOL0     H33911   6.957   3.685   4.902 -1.1896  2.0610 -3.0592
  992MOL0     H33912   7.104   3.874   4.832 -0.2767 -3.1893 -2.7991
  992MOL0     H33913   7.181   3.726   4.862  0.2644  2.1152 -1.5426
  992MOL0     H33914   7.313   3.915   4.966 -0.0590  3.7204  3.4987
  992MOL0     H33915   7.260   3.805   5.076 -0.5553 -0.4121  0.3607
  992MOL0     H33916   7.095   3.970   5.151 -0.4956  1.6874 -0.3393
  992MOL0     H33917   7.121   4.073   5.008  0.7362  0.8307  0.0252
  992MOL0     H33918   7.427   4.223   5.241  0.8430  0.0153  0.6727
  992MOL0     H33919   6.691   3.952   4.917  2.4227 -0.8870 -0.2454
  992MOL0     H33920   6.452   3.888   4.992 -0.4288  0.4451  1.2491
  993MOL0     O33921   0.814   8.165   0.217 -0.5065  0.2312 -0.2413
  993MOL0     C33922   0.812   8.083   0.307 -0.2449  0.5265 -0.0986
  993MOL0     O33923   0.697   8.029   0.376 -0.8243  0.4489  0.2517
  993MOL0     C33924   0.587   8.032   0.295 -0.3284 -0.1470  0.0126
  993MOL0     C33925   0.557   7.924   0.217 -0.3648  0.2353  0.3952
  993MOL0     C33926   0.430   7.912   0.154  0.2254  0.6175  0.1732
  993MOL0     C33927   0.338   8.014   0.154 -0.4821 -0.2927  0.3141
  993MOL0     O33928   0.216   8.020   0.095  0.0863  1.3433 -0.0871
  993MOL0     C33929   0.148   7.896   0.073  0.5313 -0.7533  0.8662
  993MOL0     C33930   0.014   7.929   0.011  0.1837  0.3891 -0.4771
  993MOL0     C33931  -0.088   7.968   0.113 -0.5778 -0.2603  0.1642
  993MOL0     C33932  -0.191   7.866   0.140  0.0621  0.3824 -1.1242
  993MOL0     C33933  -0.291   7.906   0.255 -0.0512 -0.1348 -0.0413
  993MOL0     C33934  -0.356   7.785   0.319 -0.6013  0.3235  0.0447
  993MOL0     C33935  -0.258   7.684   0.385  0.5068  0.6859 -0.2808
  993MOL0     C33936  -0.230   7.714   0.526 -0.6307 -0.9485  0.1420
  993MOL0     N33937  -0.156   7.843   0.548 -0.0775  0.2740  0.7717
  993MOL0     C33938  -0.038   7.880   0.471  0.1774 -0.2839 -0.4260
  993MOL0     C33939  -0.019   8.004   0.509 -0.4635 -1.3635  1.1510
  993MOL0     C33940   0.095   8.082   0.460  0.1680 -1.1643  0.3697
  993MOL0     C33941   0.221   8.069   0.547  0.2800 -0.9072 -0.4851
  993MOL0     C33942   0.286   7.934   0.519  0.2590  0.2317  0.8514
  993MOL0     C33943   0.404   7.917   0.609 -0.2474 -0.2291 -0.0915
  993MOL0     O33944   0.482   7.800   0.566  0.2389  0.2693 -0.1504
  993MOL0     C33945   0.608   7.789   0.621 -0.0810 -0.7842  0.2895
  993MOL0     C33946   0.707   7.714   0.548  0.4768  1.2157  0.3494
  993MOL0     C33947   0.835   7.691   0.598 -0.0973  0.7487 -0.3768
  993MOL0     C33948   0.917   7.589   0.523  0.0275  0.3811 -0.3786
  993MOL0     C33949   0.882   7.755   0.718  0.2693 -0.1555  0.1022
  993MOL0     C33950   1.015   7.741   0.776 -0.7455  0.7159  0.1766
  993MOL0     O33951   1.084   7.613   0.773  0.2421 -0.3460  0.3475
  993MOL0     C33952   1.210   7.597   0.824 -0.0210 -0.3548 -0.5236
  993MOL0     C33953   1.285   7.502   0.755  0.0435  0.1328 -0.2633
  993MOL0     C33954   1.406   7.461   0.803 -0.7327  0.2358 -0.3880
  993MOL0     C33955   1.468   7.530   0.913 -0.8611  1.3762  0.1925
  993MOL0     O33956   1.591   7.502   0.953 -0.3212 -0.9244 -0.0707
  993MOL0     C33957   1.698   7.451   0.873  0.6282 -0.0241 -0.0341
  993MOL0     C33958   1.722   7.545   0.751 -0.4854  0.6922 -0.0951
  993MOL0     C33959   1.844   7.481   0.667  0.0880 -0.9030  0.7137
  993MOL0     C33960   1.883   7.559   0.542  0.4420 -1.3833 -0.4137
  993MOL0     C33961   1.989   7.491   0.454 -0.8632  0.8852  0.1094
  993MOL0     C33962   2.022   7.586   0.344  0.5093  0.0303  0.4784
  993MOL0     C33963   1.940   7.601   0.217 -0.2679  0.3172 -0.2642
  993MOL0     C33964   1.898   7.463   0.167 -0.1584  0.0382  1.0188
  993MOL0    Cl33965   1.736   7.406   0.224 -0.0106  0.1597  0.1417
  993MOL0     C33966   1.394   7.636   0.974 -0.6235 -0.6398 -0.2046
  993MOL0     C33967   1.259   7.657   0.935  0.1509 -0.2336  0.1475
  993MOL0     O33968   1.065   7.843   0.819  0.3633  0.3850 -0.2034
  993MOL0     C33969   0.791   7.839   0.783 -0.8118  0.2197  1.1173
  993MOL0     C33970   0.660   7.855   0.734  0.5946  1.0297 -1.1441
  993MOL0     N33971  -0.111   8.044   0.599 -0.3174 -1.0548 -0.5866
  993MOL0     N33972  -0.186   7.946   0.627  0.0395 -0.3194 -0.9868
  993MOL0     C33973   0.376   8.125   0.233  0.0514  0.2184 -0.2575
  993MOL0     C33974   0.491   8.134   0.313 -0.1731  0.3453  0.1867
  993MOL0     C33975   0.943   8.049   0.365  0.1203  0.4255  0.5026
  993MOL0     C33976   1.054   8.064   0.279  0.2652 -0.5587 -0.4598
  993MOL0     C33977   1.179   8.057   0.343 -0.2598  1.4171  1.3974
  993MOL0     C33978   1.197   8.031   0.477 -0.6838 -0.2830  0.0344
  993MOL0     O33979   1.323   8.031   0.538  0.0697 -0.0151 -0.4543
  993MOL0     C33980   1.368   7.910   0.611  0.3709 -0.3620  0.5824
  993MOL0     C33981   1.502   7.931   0.681  0.1438  0.3231 -0.1105
  993MOL0     C33982   1.613   7.965   0.587 -0.4746  0.3678 -0.2918
  993MOL0     C33983   1.637   7.863   0.471  0.6486  0.8861  0.2576
  993MOL0     C33984   1.759   7.892   0.404  0.5246  0.7008 -0.0729
  993MOL0     C33985   1.858   7.920   0.341 -1.0547  0.8767  0.3829
  993MOL0     C33986   1.086   8.012   0.553  0.0326 -0.0313 -0.1128
  993MOL0     C33987   0.956   8.023   0.502 -0.6600  0.1937 -0.2336
  993MOL0     H33988   0.628   7.843   0.207  2.4234  2.7778 -3.6371
  993MOL0     H33989   0.407   7.823   0.097  0.1730  0.0533  1.0552
  993MOL0     H33990   0.206   7.844  -0.003  2.8932  1.2071  1.2042
  993MOL0     H33991   0.136   7.834   0.163 -2.9003 -3.7699 -1.3900
  993MOL0     H33992   0.030   8.011  -0.060 -0.2541  1.6482  0.8414
  993MOL0     H33993  -0.030   7.843  -0.040 -0.8671  0.0513  0.9425
  993MOL0     H33994  -0.035   7.996   0.204 -1.6776 -1.8674  1.3495
  993MOL0     H33995  -0.143   8.045   0.058 -3.1545 -3.1269 -1.6401
  993MOL0     H33996  -0.252   7.839   0.053 -1.4987  0.1430 -0.0124
  993MOL0     H33997  -0.131   7.778   0.167 -1.2909  0.1641  1.5007
  993MOL0     H33998  -0.243   7.967   0.331 -1.7015 -0.4152  1.2869
  993MOL0     H33999  -0.376   7.965   0.220  0.7384  1.0406 -0.0319
  993MOL0     H34000  -0.422   7.825   0.396  0.5311  0.6288  0.8834
  993MOL0     H34001  -0.413   7.726   0.246 -1.7018  0.1877  0.9908
  993MOL0     H34002  -0.316   7.591   0.388  1.5510  0.0350  0.4227
  993MOL0     H34003  -0.158   7.668   0.344  0.8384  0.9892  0.3937
  993MOL0     H34004  -0.166   7.636   0.567  0.5979 -1.5407 -2.6634
  993MOL0     H34005  -0.325   7.722   0.579  0.7378  1.1169  2.5005
  993MOL0     H34006   0.042   7.823   0.424  0.9480  0.1621  0.3177
  993MOL0     H34007   0.118   8.053   0.357 -0.6549 -1.2645  0.2091
  993MOL0     H34008   0.065   8.187   0.462  4.3442  0.2523 -1.0571
  993MOL0     H34009   0.194   8.080   0.652  0.3324  2.2013 -0.6982
  993MOL0     H34010   0.280   8.160   0.530  0.6546 -0.2725  3.4544
  993MOL0     H34011   0.310   7.932   0.412 -0.0663  1.1566  0.7469
  993MOL0     H34012   0.201   7.865   0.526 -1.4028  1.5498 -3.1952
  993MOL0     H34013   0.372   7.887   0.710 -1.1436 -2.9654 -1.0938
  993MOL0     H34014   0.461   8.011   0.608  3.7041 -2.3610  1.6567
  993MOL0     H34015   0.672   7.657   0.462 -0.7081  1.3604  0.7213
  993MOL0     H34016   0.858   7.519   0.462 -1.1007  0.9552  0.0285
  993MOL0     H34017   0.995   7.626   0.456 -0.0887 -3.0073 -2.6542
  993MOL0     H34018   0.970   7.523   0.592 -1.2257  0.0326  0.2921
  993MOL0     H34019   1.247   7.448   0.669 -0.7979  0.8454 -0.3573
  993MOL0     H34020   1.463   7.386   0.750 -1.5982 -0.8612  0.1643
  993MOL0     H34021   1.790   7.443   0.931 -0.1855 -2.5041  1.0251
  993MOL0     H34022   1.672   7.349   0.844 -2.0136  0.1730  1.3770
  993MOL0     H34023   1.631   7.549   0.691 -2.1098  0.6748  2.2464
  993MOL0     H34024   1.741   7.645   0.791 -2.1869  0.5891  1.0901
  993MOL0     H34025   1.830   7.377   0.638  3.1224 -0.6422 -2.3173
  993MOL0     H34026   1.929   7.478   0.736 -0.9614 -2.8092  2.0049
  993MOL0     H34027   1.795   7.563   0.477  0.2617 -0.7506 -0.1350
  993MOL0     H34028   1.924   7.657   0.566  0.3506 -1.5281  0.3648
  993MOL0     H34029   1.948   7.394   0.425  3.6142 -1.4270  0.7211
  993MOL0     H34030   2.081   7.474   0.510 -1.2238  1.1177  0.7871
  993MOL0     H34031   2.032   7.687   0.385  1.2204  0.3385 -0.4122
  993MOL0     H34032   2.124   7.565   0.310  0.8163  0.7005  0.9555
  993MOL0     H34033   2.000   7.646   0.138 -0.5768 -1.0008 -1.2835
  993MOL0     H34034   1.848   7.657   0.241 -0.4327 -0.2879  0.5586
  993MOL0     H34035   1.975   7.393   0.201 -0.6962 -0.3290  1.5156
  993MOL0     H34036   1.893   7.466   0.058 -1.9046  1.3051  1.0856
  993MOL0     H34037   1.448   7.685   1.054  0.1735 -3.2138  0.9434
  993MOL0     H34038   1.206   7.736   0.986 -2.5899 -2.8390  1.6849
  993MOL0     H34039   0.819   7.881   0.879  2.7169  1.5242 -0.3128
  993MOL0     H34040   0.595   7.925   0.784 -2.7706 -0.7115 -2.7734
  993MOL0     H34041   0.320   8.216   0.252  1.6985  0.9064  1.6836
  993MOL0     H34042   0.513   8.212   0.385 -1.0063  1.8618 -1.1228
  993MOL0     H34043   1.039   8.103   0.180  0.0593  0.1658 -0.1479
  993MOL0     H34044   1.269   8.070   0.284  0.5876 -1.1583  2.0175
  993MOL0     H34045   1.292   7.877   0.682 -1.2814 -0.7975 -1.3077
  993MOL0     H34046   1.372   7.822   0.546 -1.0746 -0.7413  0.9735
  993MOL0     H34047   1.524   7.838   0.734  0.4484  0.1390 -0.5468
  993MOL0     H34048   1.488   7.999   0.765 -0.5433  1.8761 -1.4173
  993MOL0     H34049   1.706   7.981   0.642  1.4150 -1.3719 -2.7465
  993MOL0     H34050   1.575   8.059   0.546 -1.1875  0.5062  0.6466
  993MOL0     H34051   1.562   7.877   0.392 -2.1861  2.1224  2.9492
  993MOL0     H34052   1.619   7.762   0.509  2.3044  0.2771 -0.4951
  993MOL0     H34053   1.946   7.961   0.294 -0.1423 -2.0380 -0.6780
  993MOL0     H34054   1.102   8.005   0.660  0.5686 -1.8724 -0.2820
  993MOL0     H34055   0.863   8.020   0.559  0.2604  1.1295  1.4087
  994MOL0     O34056   1.310   4.498   1.281 -0.6601  0.7791 -0.4352
  994MOL0     C34057   1.368   4.388   1.309  0.9222 -0.0160  0.6951
  994MOL0     O34058   1.315   4.270   1.290 -0.7109 -0.0168  0.0470
  994MOL0     C34059   1.183   4.267   1.246  0.0251  0.3408  0.3646
  994MOL0     C34060   1.088   4.269   1.348  0.5307  0.2759 -0.4349
  994MOL0     C34061   0.955   4.255   1.319  0.6970 -0.6045  0.6559
  994MOL0     C34062   0.913   4.248   1.187 -0.0147  0.0579  0.3667
  994MOL0     O34063   0.776   4.241   1.149  0.3546 -0.3711  0.2725
  994MOL0     C34064   0.719   4.353   1.075 -0.0203  0.4557 -0.2517
  994MOL0     C34065   0.625   4.320   0.971  0.4497 -0.3744 -0.1630
  994MOL0     C34066   0.534   4.195   1.003  0.0516 -0.6062 -0.3443
  994MOL0     C34067   0.437   4.176   0.893  0.2729  0.3466  0.4283
  994MOL0     C34068   0.504   4.149   0.757 -0.2260 -0.3130  0.1573
  994MOL0     C34069   0.442   4.036   0.666 -0.1825 -0.0804 -0.2759
  994MOL0     C34070   0.470   4.052   0.511  0.6270 -0.1670 -0.2681
  994MOL0     C34071   0.407   4.183   0.445  0.2974 -0.1092 -0.8303
  994MOL0     N34072   0.259   4.170   0.434  0.3572  0.6579 -0.4233
  994MOL0     C34073   0.184   4.090   0.347 -0.5309 -0.5816  0.1549
  994MOL0     C34074   0.056   4.133   0.364  0.4426  0.2559  0.3239
  994MOL0     C34075  -0.060   4.089   0.277 -0.2142  0.3713  1.5723
  994MOL0     C34076  -0.200   4.113   0.333 -0.4025  0.8498  0.4309
  994MOL0     C34077  -0.223   4.028   0.466 -0.1146  1.1503  0.0555
  994MOL0     C34078  -0.195   3.877   0.434  0.0198 -0.1056 -0.9164
  994MOL0     O34079  -0.271   3.821   0.327  0.2436  0.2176 -0.1009
  994MOL0     C34080  -0.399   3.778   0.340  0.2209  0.2437  0.0843
  994MOL0     C34081  -0.462   3.753   0.462  0.3245 -0.0552 -0.0119
  994MOL0     C34082  -0.599   3.698   0.469 -0.9369  0.1437 -0.4938
  994MOL0     C34083  -0.656   3.677   0.613 -0.0632 -0.4950 -0.2384
  994MOL0     C34084  -0.670   3.673   0.350 -1.3067 -0.4055 -0.3263
  994MOL0     C34085  -0.810   3.616   0.337  0.7768 -0.7667 -0.7559
  994MOL0     O34086  -0.890   3.625   0.442 -0.3946  0.6532  0.1806
  994MOL0     C34087  -1.016   3.568   0.438 -0.6089  0.2291 -0.4209
  994MOL0     C34088  -1.043   3.434   0.482  0.1397 -0.4441  0.3516
  994MOL0     C34089  -1.173   3.387   0.500 -0.2179 -0.0799  0.8948
  994MOL0     C34090  -1.279   3.477   0.469  0.3259  0.7252  0.1822
  994MOL0     O34091  -1.409   3.453   0.475  0.2463  0.8352  0.0923
  994MOL0     C34092  -1.449   3.330   0.522  1.4489 -0.0270  0.3412
  994MOL0     C34093  -1.607   3.338   0.542 -0.5921 -0.1781 -0.5877
  994MOL0     C34094  -1.661   3.204   0.592  0.3353  0.9009 -0.1043
  994MOL0     C34095  -1.814   3.207   0.609 -1.0466 -0.4507  1.0172
  994MOL0     C34096  -1.891   3.090   0.674  0.3994  0.0023 -0.1977
  994MOL0     C34097  -2.039   3.132   0.680 -0.1369 -0.2561 -0.3645
  994MOL0     C34098  -2.123   3.013   0.751  0.3736  0.5982 -0.3632
  994MOL0     C34099  -2.267   3.049   0.785  0.2326  0.8089 -0.3600
  994MOL0    Cl34100  -2.276   3.164   0.917 -0.0249  0.1229  0.0209
  994MOL0     C34101  -1.251   3.609   0.428  0.8522  0.4316  0.1959
  994MOL0     C34102  -1.127   3.649   0.406 -0.2702 -0.6804  1.1305
  994MOL0     O34103  -0.843   3.565   0.229 -0.9907  1.3196  0.2377
  994MOL0     C34104  -0.607   3.720   0.232  0.3600  0.4226 -0.7120
  994MOL0     C34105  -0.476   3.769   0.225  0.2793  0.3788  0.7667
  994MOL0     N34106   0.059   4.246   0.451  0.5182  0.5875  0.6020
  994MOL0     N34107   0.178   4.266   0.492  0.5834  0.7938  0.2955
  994MOL0     C34108   1.005   4.261   1.080  1.0372  0.2026 -0.8710
  994MOL0     C34109   1.138   4.267   1.105 -0.6641  0.0153 -0.1438
  994MOL0     C34110   1.496   4.392   1.379  0.1811 -0.7761  1.0034
  994MOL0     C34111   1.561   4.514   1.402 -0.0318  0.2051  0.1608
  994MOL0     C34112   1.686   4.511   1.450 -0.1644  1.1294 -0.4074
  994MOL0     C34113   1.756   4.394   1.477 -0.8478  0.1302 -0.5362
  994MOL0     O34114   1.878   4.394   1.546 -0.0332 -0.4051 -0.6860
  994MOL0     C34115   1.876   4.362   1.680 -0.1848 -0.4040  0.1064
  994MOL0     C34116   1.966   4.246   1.712  0.5980  0.0359 -0.5320
  994MOL0     C34117   1.939   4.179   1.842 -0.1735 -0.1372  0.4422
  994MOL0     C34118   1.959   4.265   1.969 -1.5351  0.3888 -0.3288
  994MOL0     C34119   1.959   4.181   2.086 -0.4940  0.0393 -0.7781
  994MOL0     C34120   1.914   4.127   2.192  0.4800  0.1793  0.6070
  994MOL0     C34121   1.688   4.277   1.468 -0.6453 -0.8879 -0.2705
  994MOL0     C34122   1.562   4.272   1.411 -0.0820 -0.0051  0.5483
  994MOL0     H34123   1.113   4.267   1.454 -2.0646  0.7550  0.2656
  994MOL0     H34124   0.877   4.252   1.395  1.8196  0.2120  1.8681
  994MOL0     H34125   0.674   4.418   1.151 -1.3538 -3.6851  2.8878
  994MOL0     H34126   0.805   4.401   1.028 -0.8073 -0.1097 -2.3805
  994MOL0     H34127   0.562   4.406   0.945  1.4371  0.3680 -0.1371
  994MOL0     H34128   0.687   4.292   0.886 -0.2883 -1.4193 -0.3885
  994MOL0     H34129   0.607   4.113   1.000  1.3376  0.5108 -0.7625
  994MOL0     H34130   0.487   4.203   1.102 -0.5234  0.6120 -0.6948
  994MOL0     H34131   0.373   4.095   0.929  3.4049 -2.9119 -0.8375
  994MOL0     H34132   0.379   4.269   0.885  0.9182  1.2453  4.1274
  994MOL0     H34133   0.506   4.247   0.707  1.8652 -0.5981 -0.4354
  994MOL0     H34134   0.608   4.116   0.759  0.0380  0.5445  1.1704
  994MOL0     H34135   0.473   3.935   0.693 -0.4967 -0.0452  0.2370
  994MOL0     H34136   0.334   4.044   0.685 -0.1136 -1.8349  1.1598
  994MOL0     H34137   0.579   4.060   0.508  0.8260 -1.6892  1.3272
  994MOL0     H34138   0.430   3.960   0.470 -2.5122  1.8006 -1.9717
  994MOL0     H34139   0.458   4.210   0.352  1.2061  3.2063  0.4787
  994MOL0     H34140   0.424   4.270   0.509 -3.6890  1.2216 -1.2737
  994MOL0     H34141   0.229   4.012   0.286  0.5602  0.4875 -0.4515
  994MOL0     H34142  -0.058   4.140   0.180 -0.3680 -0.6431  1.0187
  994MOL0     H34143  -0.048   3.985   0.244  1.7974  0.9383  0.2855
  994MOL0     H34144  -0.279   4.091   0.261  0.3006  1.0055 -0.4093
  994MOL0     H34145  -0.200   4.215   0.374  1.3390  0.1083  2.4698
  994MOL0     H34146  -0.325   4.035   0.506 -1.0573 -2.9230 -1.1615
  994MOL0     H34147  -0.153   4.072   0.538 -0.3914  2.5717 -0.4976
  994MOL0     H34148  -0.222   3.814   0.520 -4.6100 -1.2159 -2.8512
  994MOL0     H34149  -0.088   3.864   0.415  0.0657  0.7467 -1.3128
  994MOL0     H34150  -0.411   3.766   0.556  3.3840  0.8217 -1.6486
  994MOL0     H34151  -0.745   3.734   0.643  0.5218 -0.6279  1.8888
  994MOL0     H34152  -0.679   3.571   0.611  3.3463 -1.3436 -1.3530
  994MOL0     H34153  -0.576   3.699   0.684  1.1224 -3.1147 -0.6493
  994MOL0     H34154  -0.957   3.374   0.511  1.1921  1.1977  0.8049
  994MOL0     H34155  -1.191   3.283   0.529 -2.1582  0.0817  0.4369
  994MOL0     H34156  -1.437   3.250   0.449 -2.0731 -0.2385 -0.2010
  994MOL0     H34157  -1.404   3.313   0.620 -1.4106 -0.8292  1.6229
  994MOL0     H34158  -1.644   3.420   0.604  0.5018  1.7994 -2.4135
  994MOL0     H34159  -1.654   3.356   0.445 -0.3836  1.8014 -0.3527
  994MOL0     H34160  -1.611   3.197   0.688  1.1521  0.0958 -0.5735
  994MOL0     H34161  -1.618   3.116   0.544  1.1774 -0.3973  2.8666
  994MOL0     H34162  -1.845   3.299   0.659 -1.6596  0.3722 -0.7976
  994MOL0     H34163  -1.853   3.232   0.510  0.9999  1.1036  0.5246
  994MOL0     H34164  -1.850   3.071   0.774  0.7671  1.5432 -0.0409
  994MOL0     H34165  -1.888   3.003   0.606 -4.0142 -0.5454  0.0316
  994MOL0     H34166  -2.054   3.230   0.727 -1.0610 -0.6427  0.1791
  994MOL0     H34167  -2.075   3.152   0.579  2.9252 -0.8474 -1.6843
  994MOL0     H34168  -2.073   2.978   0.842 -1.4598 -0.0547  0.4434
  994MOL0     H34169  -2.120   2.929   0.682 -1.7715 -0.7419  1.0406
  994MOL0     H34170  -2.327   2.961   0.810  1.7170 -0.2158 -0.2656
  994MOL0     H34171  -2.315   3.084   0.693 -1.4007  0.5280  0.3417
  994MOL0     H34172  -1.338   3.661   0.389 -0.2088 -2.5638 -1.8294
  994MOL0     H34173  -1.102   3.749   0.371  2.3390 -1.6335 -0.0311
  994MOL0     H34174  -0.666   3.719   0.141 -1.0269 -2.7878  0.0511
  994MOL0     H34175  -0.427   3.801   0.133 -0.6391 -1.5750 -0.4707
  994MOL0     H34176   0.986   4.286   0.976  1.0162 -1.0824 -1.1939
  994MOL0     H34177   1.214   4.276   1.028 -1.4494 -1.6856 -1.1885
  994MOL0     H34178   1.514   4.608   1.373  0.2163  0.0214 -0.8924
  994MOL0     H34179   1.735   4.608   1.456  1.3262  0.3225  1.4567
  994MOL0     H34180   1.911   4.452   1.731 -2.3261  1.7819 -1.9633
  994MOL0     H34181   1.772   4.351   1.713  0.4308  1.4560  3.0140
  994MOL0     H34182   2.070   4.280   1.725  1.5349 -3.1445  1.3788
  994MOL0     H34183   1.975   4.166   1.638  1.0948 -1.1348  0.7505
  994MOL0     H34184   2.010   4.097   1.849 -2.4486 -2.3568 -1.0130
  994MOL0     H34185   1.841   4.130   1.842  0.4483 -1.4636  1.4439
  994MOL0     H34186   1.879   4.339   1.956 -2.1678 -0.3322 -0.6308
  994MOL0     H34187   2.056   4.316   1.967  0.4859 -3.0566  0.3958
  994MOL0     H34188   1.878   4.087   2.285 -3.2334 -0.7154 -1.0304
  994MOL0     H34189   1.746   4.198   1.514  1.4922  0.0630 -1.1789
  994MOL0     H34190   1.528   4.170   1.394  1.2802  0.1754 -4.8329
  995MOL0     O34191   0.725   3.016   4.930  0.5325  0.0172 -0.1679
  995MOL0     C34192   0.674   2.946   5.016  0.0508  0.7177 -0.7902
  995MOL0     O34193   0.544   2.895   5.022 -0.4278 -0.0707 -0.6876
  995MOL0     C34194   0.449   2.938   4.932  0.0939  0.0852 -0.6753
  995MOL0     C34195   0.375   3.044   4.968  0.4454 -0.8401 -0.4145
  995MOL0     C34196   0.274   3.087   4.878 -0.2323 -0.2659 -0.3645
  995MOL0     C34197   0.256   3.026   4.746 -0.4810 -0.2262 -0.6112
  995MOL0     O34198   0.160   3.062   4.659 -1.1779  0.4898 -0.0163
  995MOL0     C34199   0.102   3.190   4.671  0.6946 -0.0322  0.4496
  995MOL0     C34200  -0.025   3.214   4.574  0.4038 -0.0556  1.2789
  995MOL0     C34201  -0.128   3.105   4.551  1.2025  0.1813  0.3519
  995MOL0     C34202  -0.200   3.109   4.419 -0.7296  0.4822  0.0531
  995MOL0     C34203  -0.313   3.017   4.419  0.7987 -0.5434  0.4602
  995MOL0     C34204  -0.363   2.999   4.273  0.0489 -0.1154 -0.1108
  995MOL0     C34205  -0.452   3.112   4.216  0.5748 -0.1693 -0.6863
  995MOL0     C34206  -0.483   3.074   4.075 -0.1284  0.1242 -0.7478
  995MOL0     N34207  -0.564   2.955   4.067  0.5091  0.1320 -1.1551
  995MOL0     C34208  -0.687   2.935   4.128  0.0866  0.8724  0.5292
  995MOL0     C34209  -0.735   2.824   4.065  0.4885  0.4428  0.3403
  995MOL0     C34210  -0.879   2.777   4.060  0.7277  0.3919  0.3315
  995MOL0     C34211  -0.983   2.878   4.111  0.3703 -0.6574 -1.3916
  995MOL0     C34212  -1.118   2.813   4.122 -0.1727  0.2647  0.8372
  995MOL0     C34213  -1.203   2.927   4.190  0.3800  0.4662 -0.7903
  995MOL0     O34214  -1.321   2.860   4.230  0.5688 -0.7282 -0.5154
  995MOL0     C34215  -1.429   2.926   4.286  0.7352 -1.0322 -0.4413
  995MOL0     C34216  -1.441   3.071   4.294 -0.5597  0.8538 -0.2985
  995MOL0     C34217  -1.557   3.126   4.361 -0.5390 -0.9538 -0.1252
  995MOL0     C34218  -1.552   3.278   4.385  0.4578  0.1756  0.5951
  995MOL0     C34219  -1.668   3.047   4.403 -0.1323 -0.6059 -0.0121
  995MOL0     C34220  -1.783   3.106   4.471 -0.0039 -0.4516 -0.6837
  995MOL0     O34221  -1.837   3.030   4.573  0.0301 -0.0388 -0.2272
  995MOL0     C34222  -1.936   3.101   4.626  0.3616  0.5798  0.7019
  995MOL0     C34223  -1.916   3.174   4.744  0.3392  0.1799 -0.3994
  995MOL0     C34224  -2.015   3.246   4.806  1.0610 -0.3092 -1.0380
  995MOL0     C34225  -2.150   3.246   4.753  0.3448  0.1200  0.2172
  995MOL0     O34226  -2.258   3.311   4.807 -0.7866  0.4279 -0.1901
  995MOL0     C34227  -2.248   3.405   4.918  0.0800  0.4405  0.2355
  995MOL0     C34228  -2.385   3.473   4.954  0.2788  0.3051 -0.6332
  995MOL0     C34229  -2.505   3.476   4.853 -0.7151 -0.2690  0.0716
  995MOL0     C34230  -2.635   3.528   4.917 -0.3685  0.6019  0.2558
  995MOL0     C34231  -2.737   3.559   4.799 -0.2983 -0.6012  0.2947
  995MOL0     C34232  -2.874   3.604   4.849 -0.4592  0.2756  0.0964
  995MOL0     C34233  -2.953   3.686   4.745  0.2401 -0.0280 -0.4305
  995MOL0     C34234  -2.896   3.815   4.705 -0.2145  0.0282  0.6513
  995MOL0    Cl34235  -3.006   3.881   4.578  0.2496  0.4039 -0.2546
  995MOL0     C34236  -2.174   3.155   4.642  0.3666  0.1233  0.1406
  995MOL0     C34237  -2.071   3.079   4.590  0.4471  0.0184  0.0335
  995MOL0     O34238  -1.840   3.203   4.417 -0.5170 -0.4361  0.4411
  995MOL0     C34239  -1.648   2.907   4.400  0.6258 -0.6928 -0.4917
  995MOL0     C34240  -1.534   2.849   4.343 -0.1826 -0.0677  0.0348
  995MOL0     N34241  -0.626   2.768   3.997  0.1208 -0.6890 -0.9251
  995MOL0     N34242  -0.527   2.845   3.999  0.4344  0.3038  0.1825
  995MOL0     C34243   0.333   2.917   4.716 -0.2540  0.4027 -0.5859
  995MOL0     C34244   0.428   2.875   4.808  0.6292  0.7155 -0.6881
  995MOL0     C34245   0.755   2.907   5.127 -0.4461 -0.8029 -1.2386
  995MOL0     C34246   0.870   2.971   5.154 -0.3002 -0.3886  0.4745
  995MOL0     C34247   0.959   2.932   5.254  0.0602 -0.7189 -0.1526
  995MOL0     C34248   0.936   2.815   5.326 -0.4507 -0.2376 -1.1308
  995MOL0     O34249   1.023   2.787   5.430 -0.7180  0.3548 -0.4654
  995MOL0     C34250   1.058   2.653   5.452 -0.4575  0.0228 -0.1797
  995MOL0     C34251   1.207   2.628   5.487  0.6909  0.7919 -0.0994
  995MOL0     C34252   1.236   2.670   5.628 -0.7919 -0.6116 -1.0777
  995MOL0     C34253   1.250   2.823   5.655  0.1100  0.7615 -0.3050
  995MOL0     C34254   1.281   2.839   5.802 -0.0622 -0.5528  0.4455
  995MOL0     C34255   1.308   2.839   5.921 -0.7406 -0.4477 -0.6235
  995MOL0     C34256   0.818   2.747   5.301 -0.1002 -0.6596  0.4547
  995MOL0     C34257   0.727   2.795   5.202  0.4568  0.2767  0.3641
  995MOL0     H34258   0.372   3.101   5.061 -0.7190 -3.7100  1.4464
  995MOL0     H34259   0.237   3.185   4.905  1.7308  0.6974 -0.9606
  995MOL0     H34260   0.053   3.189   4.769 -0.6446 -0.3875 -0.2085
  995MOL0     H34261   0.173   3.273   4.662 -0.9263  1.7292  2.6520
  995MOL0     H34262  -0.074   3.304   4.613 -0.8453 -0.7385  1.3277
  995MOL0     H34263   0.017   3.246   4.479  0.3386 -0.5988  1.0635
  995MOL0     H34264  -0.090   3.008   4.587  0.6535  0.4705  1.7688
  995MOL0     H34265  -0.202   3.133   4.626 -0.8695  1.2466 -1.9774
  995MOL0     H34266  -0.225   3.211   4.388  1.7103  1.9785  2.4979
  995MOL0     H34267  -0.129   3.068   4.347  0.3830 -1.7832  2.3058
  995MOL0     H34268  -0.278   2.921   4.457  0.2744 -1.2471 -0.7975
  995MOL0     H34269  -0.387   3.055   4.491 -2.5850 -1.7193 -2.1585
  995MOL0     H34270  -0.279   2.976   4.207  1.0666  2.5401  0.1458
  995MOL0     H34271  -0.430   2.913   4.281  0.0282 -0.1012 -0.1347
  995MOL0     H34272  -0.537   3.129   4.283  1.0532 -0.8056  0.0962
  995MOL0     H34273  -0.399   3.207   4.221  1.7327 -0.7785 -1.1488
  995MOL0     H34274  -0.395   3.072   4.010 -1.1278  3.2583 -2.4417
  995MOL0     H34275  -0.523   3.157   4.015 -0.8684  1.0307  0.9383
  995MOL0     H34276  -0.746   3.001   4.192 -0.8210 -0.1276  0.7459
  995MOL0     H34277  -0.910   2.757   3.957  1.7042 -1.3226  0.3491
  995MOL0     H34278  -0.882   2.688   4.123  0.7010 -1.2483 -1.8888
  995MOL0     H34279  -0.989   2.975   4.060  1.8079 -0.6750 -1.6546
  995MOL0     H34280  -0.957   2.902   4.215 -1.1196  0.2508 -1.2090
  995MOL0     H34281  -1.108   2.728   4.192  0.0569 -0.6267 -0.2435
  995MOL0     H34282  -1.159   2.774   4.029  0.7911 -2.4697  1.4471
  995MOL0     H34283  -1.223   3.011   4.123  1.8481  2.4569  1.1287
  995MOL0     H34284  -1.162   2.976   4.278 -0.8796  0.4554 -0.1692
  995MOL0     H34285  -1.358   3.121   4.246  0.2080 -1.6238 -1.7367
  995MOL0     H34286  -1.445   3.291   4.403  0.6140 -0.2745  0.0443
  995MOL0     H34287  -1.576   3.341   4.299  1.5873  0.7401  0.6661
  995MOL0     H34288  -1.615   3.310   4.468 -1.5206  0.4879 -0.9598
  995MOL0     H34289  -1.815   3.190   4.781  0.3580 -0.2472 -0.2590
  995MOL0     H34290  -2.003   3.311   4.892 -3.3954  1.9410 -1.7782
  995MOL0     H34291  -2.217   3.350   5.007 -0.7718 -0.2100  0.1466
  995MOL0     H34292  -2.182   3.488   4.892 -0.2189 -0.3271 -3.6130
  995MOL0     H34293  -2.427   3.415   5.037  0.3058 -1.3688 -1.7409
  995MOL0     H34294  -2.364   3.575   4.988  1.6608 -0.1932  0.1296
  995MOL0     H34295  -2.510   3.392   4.784  3.0142  0.2529 -1.0206
  995MOL0     H34296  -2.474   3.548   4.777  2.2004  0.3063  1.6285
  995MOL0     H34297  -2.669   3.445   4.980 -0.1253 -0.7270 -1.2959
  995MOL0     H34298  -2.622   3.618   4.978  0.9878 -0.3815  1.5105
  995MOL0     H34299  -2.743   3.471   4.734 -4.1743 -0.1572 -0.1582
  995MOL0     H34300  -2.700   3.641   4.736 -3.3698 -0.0966 -1.0697
  995MOL0     H34301  -2.933   3.516   4.875  1.3960 -0.7284  1.1050
  995MOL0     H34302  -2.869   3.665   4.940  2.5966  2.7058 -1.4954
  995MOL0     H34303  -3.046   3.713   4.795 -1.6462  0.0877 -3.7252
  995MOL0     H34304  -2.972   3.613   4.667  0.0855 -3.2440  2.3954
  995MOL0     H34305  -2.798   3.795   4.660  0.6910  2.5239  1.3370
  995MOL0     H34306  -2.877   3.890   4.783  3.1745  3.7175 -3.2193
  995MOL0     H34307  -2.275   3.134   4.610  0.3731 -1.9820  1.2796
  995MOL0     H34308  -2.083   3.013   4.505  1.9586  2.6497 -2.4231
  995MOL0     H34309  -1.711   2.839   4.455 -1.7515 -1.4446 -3.7899
  995MOL0     H34310  -1.520   2.743   4.363  2.9311  0.3519  0.5994
  995MOL0     H34311   0.316   2.865   4.622 -1.0016  2.6945 -1.7768
  995MOL0     H34312   0.489   2.788   4.786  1.3063  0.0854  3.1262
  995MOL0     H34313   0.894   3.060   5.098  2.5485 -1.0028  0.5973
  995MOL0     H34314   1.050   2.987   5.276 -0.1917  0.5758 -2.0980
  995MOL0     H34315   1.003   2.604   5.533 -0.1550 -0.1906 -0.1020
  995MOL0     H34316   1.052   2.605   5.354  4.6048 -0.3337 -0.5662
  995MOL0     H34317   1.277   2.666   5.412 -0.1798 -1.3212 -2.0719
  995MOL0     H34318   1.227   2.521   5.490 -1.6828  0.3015  1.8410
  995MOL0     H34319   1.326   2.616   5.657  0.1133  2.5792  3.1100
  995MOL0     H34320   1.157   2.643   5.698  3.1181 -2.1527  3.2780
  995MOL0     H34321   1.159   2.881   5.639 -0.5093  0.7663  2.7318
  995MOL0     H34322   1.325   2.871   5.592 -0.3070  0.4812 -1.0256
  995MOL0     H34323   1.336   2.854   6.023 -1.1292 -0.7777 -0.4693
  995MOL0     H34324   0.796   2.655   5.353  0.3439 -0.6345  0.6947
  995MOL0     H34325   0.643   2.732   5.176  1.0647 -0.9564  1.3029
  996MOL0     O34326   8.312   8.207   3.969 -0.3535  0.4451  0.5178
  996MOL0     C34327   8.317   8.096   3.910 -0.4359  0.0382  0.6953
  996MOL0     O34328   8.210   8.037   3.852 -1.2291 -0.4382  1.3059
  996MOL0     C34329   8.089   8.097   3.820 -0.1607 -0.3173 -0.9080
  996MOL0     C34330   7.979   8.018   3.810 -0.5603 -0.0681  0.4528
  996MOL0     C34331   7.855   8.075   3.790 -0.1599 -0.5064  0.2325
  996MOL0     C34332   7.840   8.207   3.783 -0.6061  0.4307  0.3585
  996MOL0     O34333   7.724   8.266   3.771 -0.3699  0.7249 -1.0804
  996MOL0     C34334   7.607   8.188   3.785 -0.1120 -1.0150 -0.2446
  996MOL0     C34335   7.502   8.304   3.813 -0.8150  0.7091  0.1568
  996MOL0     C34336   7.362   8.244   3.828  0.4317  0.6164 -0.2665
  996MOL0     C34337   7.260   8.354   3.887  0.1588  0.0856 -0.5202
  996MOL0     C34338   7.125   8.288   3.930  1.1800  0.4615  0.0961
  996MOL0     C34339   7.037   8.381   4.010  0.0925  0.6581 -0.3989
  996MOL0     C34340   6.893   8.323   4.014  0.2268  0.1079  0.1020
  996MOL0     C34341   6.786   8.422   4.038 -0.5896  1.1580 -0.0683
  996MOL0     N34342   6.656   8.353   4.052  0.0929  0.4197  0.0348
  996MOL0     C34343   6.602   8.251   3.971  0.7392  0.3184 -0.0012
  996MOL0     C34344   6.486   8.223   4.033  0.4476 -0.1280  0.3393
  996MOL0     C34345   6.390   8.129   3.967 -0.7929  0.4772  0.3800
  996MOL0     C34346   6.333   8.020   4.053 -0.4156  0.0089  0.6452
  996MOL0     C34347   6.214   7.938   3.994 -0.7604 -0.0097 -0.4947
  996MOL0     C34348   6.089   8.018   3.988 -0.1441 -0.2785 -0.7910
  996MOL0     O34349   6.002   7.969   3.882  0.2867 -1.2387 -0.1243
  996MOL0     C34350   5.870   7.970   3.904 -0.6644 -0.1197 -0.2459
  996MOL0     C34351   5.791   7.901   3.823  0.2329  0.0738  0.1983
  996MOL0     C34352   5.647   7.902   3.818  0.6988 -0.0250 -0.3999
  996MOL0     C34353   5.571   7.794   3.737  0.1832 -0.0080  0.7579
  996MOL0     C34354   5.581   7.989   3.910  0.7577 -0.1457 -0.1436
  996MOL0     C34355   5.437   7.997   3.931  0.0419  0.1133  0.5529
  996MOL0     O34356   5.400   8.089   4.019 -0.0618  0.1087  0.0213
  996MOL0     C34357   5.278   8.101   4.080 -0.2759  0.5758  0.3129
  996MOL0     C34358   5.176   8.005   4.097  0.1696 -0.1507 -0.7113
  996MOL0     C34359   5.064   8.028   4.173  0.5173  0.4079 -0.3298
  996MOL0     C34360   5.041   8.152   4.241  0.2010  0.3361 -0.2079
  996MOL0     O34361   4.923   8.162   4.306  0.4205 -0.0490  0.9477
  996MOL0     C34362   4.928   8.242   4.423 -0.4590  0.7203  0.2164
  996MOL0     C34363   4.797   8.207   4.497  0.7421 -0.3807  0.4313
  996MOL0     C34364   4.806   8.062   4.552 -0.2195 -1.8928  0.1695
  996MOL0     C34365   4.723   8.045   4.681 -1.1866  0.0654 -0.2580
  996MOL0     C34366   4.662   7.899   4.698 -0.6498 -0.5006  0.0701
  996MOL0     C34367   4.556   7.880   4.585 -0.7841  0.4897 -0.2708
  996MOL0     C34368   4.455   7.754   4.608 -0.0717 -0.5576  0.5979
  996MOL0     C34369   4.404   7.692   4.484 -0.4566 -0.4176  0.1194
  996MOL0    Cl34370   4.254   7.766   4.446  0.0815 -0.1105 -0.4359
  996MOL0     C34371   5.145   8.241   4.241  0.4833 -0.3157  0.8109
  996MOL0     C34372   5.265   8.213   4.158 -0.4223  0.5874  0.2165
  996MOL0     O34373   5.356   7.933   3.866 -0.3061  0.1949  0.0993
  996MOL0     C34374   5.664   8.071   3.993 -1.1412  0.4941  0.1567
  996MOL0     C34375   5.802   8.055   3.995 -0.3133  0.2501 -0.2466
  996MOL0     N34376   6.477   8.299   4.153  0.5057  0.5815 -0.4772
  996MOL0     N34377   6.579   8.377   4.160 -0.0985  0.3791 -0.4818
  996MOL0     C34378   7.945   8.291   3.777 -0.9987  0.7034  0.8397
  996MOL0     C34379   8.068   8.239   3.797 -0.2447  0.5639  0.2686
  996MOL0     C34380   8.447   8.028   3.912 -0.2743 -0.4395 -0.4293
  996MOL0     C34381   8.547   8.055   4.005 -0.6571 -0.2240  0.0203
  996MOL0     C34382   8.672   7.989   4.008  1.1226 -0.2280 -1.0289
  996MOL0     C34383   8.695   7.886   3.917  0.0623 -0.0014 -0.5681
  996MOL0     O34384   8.816   7.826   3.915 -0.6624 -0.0610  0.4770
  996MOL0     C34385   8.926   7.919   3.940 -0.2952 -0.5297  0.1525
  996MOL0     C34386   9.064   7.866   3.905 -0.2318  0.1942 -0.6705
  996MOL0     C34387   9.124   7.762   4.006 -0.7169 -0.1228  0.0652
  996MOL0     C34388   9.263   7.711   3.961  0.1001  0.1234  0.4390
  996MOL0     C34389   9.374   7.802   3.967 -0.3853  0.0250 -0.1380
  996MOL0     C34390   9.476   7.871   3.968 -0.5714 -0.1041 -0.0504
  996MOL0     C34391   8.594   7.846   3.833  1.3718 -0.3919 -0.4964
  996MOL0     C34392   8.465   7.918   3.832 -0.5215 -0.4570  0.8119
  996MOL0     H34393   7.990   7.910   3.802  1.3633 -0.0024  1.6439
  996MOL0     H34394   7.775   8.001   3.787 -0.8465  0.1380  1.4821
  996MOL0     H34395   7.585   8.126   3.698 -3.1504 -2.1835  1.2186
  996MOL0     H34396   7.594   8.115   3.866  0.3128 -0.3142  0.4709
  996MOL0     H34397   7.538   8.346   3.907  1.5685 -1.4154  0.3174
  996MOL0     H34398   7.515   8.385   3.740 -0.6818  1.0370  0.5405
  996MOL0     H34399   7.322   8.196   3.738 -1.3058 -1.3467  1.4493
  996MOL0     H34400   7.354   8.157   3.895  0.7310  1.1939  0.5406
  996MOL0     H34401   7.308   8.405   3.971  1.3890 -1.1498 -0.4274
  996MOL0     H34402   7.247   8.441   3.822  1.3017  1.1154  0.5759
  996MOL0     H34403   7.080   8.264   3.833 -1.8447 -3.4209  2.1858
  996MOL0     H34404   7.142   8.195   3.985 -0.3581  0.4476  0.6035
  996MOL0     H34405   7.078   8.388   4.112  1.7318 -2.0588 -0.7724
  996MOL0     H34406   7.023   8.480   3.967 -1.2470  0.3531 -0.7145
  996MOL0     H34407   6.872   8.269   3.922  1.2579  0.6564 -0.4782
  996MOL0     H34408   6.894   8.258   4.103 -3.1007  1.6876  1.4356
  996MOL0     H34409   6.774   8.496   3.959 -3.9532  0.7343 -0.0903
  996MOL0     H34410   6.806   8.479   4.130 -0.3910  0.2417  0.4641
  996MOL0     H34411   6.649   8.208   3.883  0.5057 -0.1462  0.0991
  996MOL0     H34412   6.303   8.188   3.937 -0.9447  0.4400  0.7401
  996MOL0     H34413   6.436   8.083   3.879 -0.5330 -1.6629  1.5646
  996MOL0     H34414   6.312   8.054   4.155  0.6364 -0.7826  1.1382
  996MOL0     H34415   6.419   7.953   4.052  1.4265  2.2467  0.3385
  996MOL0     H34416   6.198   7.847   4.052 -2.3402  0.3027 -0.3938
  996MOL0     H34417   6.244   7.904   3.894 -4.5227 -2.8293 -0.8727
  996MOL0     H34418   6.115   8.123   3.975  0.7665 -0.3826  0.0434
  996MOL0     H34419   6.043   8.011   4.087 -0.2563 -1.7981 -0.9153
  996MOL0     H34420   5.836   7.831   3.753 -0.2699 -0.8484  0.7639
  996MOL0     H34421   5.511   7.730   3.803  3.2532 -0.4502  3.3770
  996MOL0     H34422   5.513   7.836   3.654  3.8438  0.7828 -1.6136
  996MOL0     H34423   5.634   7.723   3.683 -2.3335  1.4863 -4.9181
  996MOL0     H34424   5.203   7.908   4.058  2.1302  0.0669 -0.0061
  996MOL0     H34425   4.990   7.949   4.178 -0.1709  0.8452 -2.3812
  996MOL0     H34426   5.007   8.219   4.495  0.0768  3.3880  0.6047
  996MOL0     H34427   4.933   8.349   4.400 -1.6301  0.6257 -0.5563
  996MOL0     H34428   4.787   8.277   4.581  2.6285  1.0809 -0.4669
  996MOL0     H34429   4.705   8.220   4.440  0.7517  0.1644  0.5333
  996MOL0     H34430   4.912   8.046   4.575 -0.3378 -0.6586  1.7082
  996MOL0     H34431   4.778   7.989   4.475  1.2264 -3.2788  0.9059
  996MOL0     H34432   4.789   8.063   4.767 -2.5663 -0.8252  1.0450
  996MOL0     H34433   4.653   8.126   4.703 -1.5843  0.0352 -1.3737
  996MOL0     H34434   4.618   7.894   4.798 -1.2060  0.2381 -0.1243
  996MOL0     H34435   4.740   7.822   4.701 -0.6611 -0.4989  0.4287
  996MOL0     H34436   4.497   7.972   4.580  1.4002  1.9432 -0.5580
  996MOL0     H34437   4.603   7.865   4.487 -0.1990  0.8839 -0.0530
  996MOL0     H34438   4.364   7.776   4.666 -1.0571 -0.1194 -1.0570
  996MOL0     H34439   4.518   7.681   4.659 -0.7207  0.0796  2.4089
  996MOL0     H34440   4.380   7.587   4.506 -0.4201 -0.4004  0.2393
  996MOL0     H34441   4.478   7.704   4.404 -0.5681  0.9665  0.1976
  996MOL0     H34442   5.124   8.329   4.301 -0.7831  0.1839 -0.2840
  996MOL0     H34443   5.352   8.276   4.142 -0.9673  0.4494 -5.2124
  996MOL0     H34444   5.631   8.147   4.064 -1.8719 -0.3992  0.8047
  996MOL0     H34445   5.861   8.118   4.061  0.4535  0.1760 -0.8483
  996MOL0     H34446   7.945   8.398   3.759  1.8956  1.1267  2.7128
  996MOL0     H34447   8.145   8.314   3.783 -2.6373  2.9364 -0.8971
  996MOL0     H34448   8.530   8.137   4.075  0.5933 -0.9426  1.2030
  996MOL0     H34449   8.737   8.034   4.082  0.2434  0.8950 -0.9023
  996MOL0     H34450   8.908   8.002   3.871 -3.5419 -0.0682  1.3982
  996MOL0     H34451   8.932   7.956   4.043 -2.3613  1.8588 -0.4987
  996MOL0     H34452   9.134   7.950   3.913 -0.1156  0.0490 -0.1601
  996MOL0     H34453   9.063   7.821   3.805  2.4497 -0.8884 -0.2762
  996MOL0     H34454   9.051   7.681   4.006 -0.4559 -0.3767 -1.0772
  996MOL0     H34455   9.149   7.805   4.104  1.7010 -0.3986 -0.3615
  996MOL0     H34456   9.249   7.668   3.861  2.4009  3.4553 -1.4822
  996MOL0     H34457   9.292   7.626   4.024 -3.1553 -0.0084  2.0252
  996MOL0     H34458   9.572   7.918   3.976 -0.5483  0.2246 -1.8900
  996MOL0     H34459   8.608   7.762   3.766  0.6018  0.3752 -1.6621
  996MOL0     H34460   8.393   7.889   3.757 -0.8827  1.8059  0.2000
  997MOL0     O34461   2.980   0.398   8.863  0.0559 -0.1481  0.2369
  997MOL0     C34462   3.010   0.315   8.948  1.2874 -0.0829 -0.2486
  997MOL0     O34463   2.946   0.298   9.067  0.6279  0.5517 -0.2463
  997MOL0     C34464   2.814   0.314   9.087 -0.3014  0.3592  0.0644
  997MOL0     C34465   2.711   0.374   9.007  0.7076 -0.3380 -0.2846
  997MOL0     C34466   2.579   0.382   9.051  0.8742  0.4044  0.7818
  997MOL0     C34467   2.541   0.338   9.177  0.6928  0.9881  0.6143
  997MOL0     O34468   2.415   0.335   9.230 -0.0190 -0.5573  0.0687
  997MOL0     C34469   2.300   0.349   9.149  0.7336  0.4097 -0.1333
  997MOL0     C34470   2.272   0.500   9.136  0.9425 -0.9962  0.2093
  997MOL0     C34471   2.221   0.547   8.999  0.7940 -0.3388 -0.4746
  997MOL0     C34472   2.075   0.513   8.974  0.4213 -0.2189  0.8983
  997MOL0     C34473   2.049   0.512   8.818 -0.9553  1.2800 -0.7475
  997MOL0     C34474   1.904   0.482   8.776 -0.1372  0.2827 -0.2700
  997MOL0     C34475   1.882   0.530   8.635 -0.7366  0.5895 -0.4550
  997MOL0     C34476   1.731   0.516   8.593  0.1945 -0.1593  0.1747
  997MOL0     N34477   1.696   0.578   8.470 -0.9048 -0.7200  0.1340
  997MOL0     C34478   1.670   0.508   8.355 -0.2858  0.0042 -0.8132
  997MOL0     C34479   1.640   0.598   8.261  0.1578 -0.4400 -0.1381
  997MOL0     C34480   1.620   0.578   8.115 -0.9161  0.1915 -0.5106
  997MOL0     C34481   1.531   0.459   8.085  0.7876 -0.0190  1.1052
  997MOL0     C34482   1.516   0.424   7.930  0.1075  0.0227 -0.1132
  997MOL0     C34483   1.639   0.373   7.864 -0.2566 -0.3357  0.5462
  997MOL0     O34484   1.718   0.479   7.815  0.1615  0.3054  0.1785
  997MOL0     C34485   1.826   0.436   7.740 -0.2112 -0.4142  0.1436
  997MOL0     C34486   1.817   0.422   7.601  0.5729 -0.3560 -0.0030
  997MOL0     C34487   1.918   0.359   7.524 -0.2639 -0.0770 -0.1277
  997MOL0     C34488   1.892   0.343   7.379  0.1302 -0.3878  0.2643
  997MOL0     C34489   2.036   0.318   7.589 -0.4462  0.0766 -0.2697
  997MOL0     C34490   2.143   0.248   7.511  0.1138  0.4442  0.5117
  997MOL0     O34491   2.277   0.257   7.562  0.1394 -0.6636  0.4720
  997MOL0     C34492   2.369   0.206   7.480 -0.3690 -0.0191 -0.0310
  997MOL0     C34493   2.392   0.263   7.358  0.4532  0.0494  0.7332
  997MOL0     C34494   2.496   0.225   7.274  0.2369 -0.4288  1.0388
  997MOL0     C34495   2.577   0.117   7.314 -1.1327 -0.0434  0.8959
  997MOL0     O34496   2.675   0.070   7.226 -0.6467 -0.1638  0.4135
  997MOL0     C34497   2.800   0.129   7.264  0.3991 -0.3117  0.1547
  997MOL0     C34498   2.913   0.029   7.264  0.5254  0.8061 -0.2275
  997MOL0     C34499   3.048   0.110   7.286  0.0236  0.4959 -0.2224
  997MOL0     C34500   3.170   0.013   7.254  0.4757 -0.2885 -0.0702
  997MOL0     C34501   3.295   0.096   7.238  0.4327 -0.7200  0.1825
  997MOL0     C34502   3.417   0.003   7.237  0.3495 -0.4519 -0.0195
  997MOL0     C34503   3.546   0.081   7.221  0.2999 -0.4534  0.0848
  997MOL0     C34504   3.677   0.005   7.252 -1.3669 -0.8507  0.4239
  997MOL0    Cl34505   3.835   0.097   7.259  0.1251 -0.1926 -0.3086
  997MOL0     C34506   2.559   0.057   7.432  0.3267  0.3294 -0.7273
  997MOL0     C34507   2.456   0.092   7.519 -0.0269 -1.1072  0.4839
  997MOL0     O34508   2.113   0.178   7.417  0.4825 -0.4524  0.5056
  997MOL0     C34509   2.047   0.343   7.722  0.2520 -0.6565 -0.7883
  997MOL0     C34510   1.949   0.399   7.794  0.0631  0.0102  0.0909
  997MOL0     N34511   1.652   0.726   8.314 -0.5586 -0.1341 -0.3004
  997MOL0     N34512   1.683   0.709   8.441  0.3368 -0.0240 -0.1086
  997MOL0     C34513   2.645   0.284   9.254  0.6523 -0.1249 -0.0312
  997MOL0     C34514   2.782   0.271   9.213  0.2049 -0.2120 -0.3103
  997MOL0     C34515   3.141   0.259   8.935 -0.7339  0.1234  0.0790
  997MOL0     C34516   3.190   0.199   9.047 -0.1457 -0.2746 -1.2211
  997MOL0     C34517   3.312   0.137   9.045  0.2312  0.5499  0.0358
  997MOL0     C34518   3.386   0.131   8.938 -0.6786  0.0724 -0.1380
  997MOL0     O34519   3.505   0.068   8.957  0.0131 -0.6978 -0.0467
  997MOL0     C34520   3.618   0.150   8.951  0.4306  0.6105  0.0778
  997MOL0     C34521   3.750   0.081   8.974 -0.1801  1.0177  0.1586
  997MOL0     C34522   3.766   0.050   9.123  0.7733  0.7578  0.2458
  997MOL0     C34523   3.880  -0.054   9.157  0.3886 -0.0628 -0.8443
  997MOL0     C34524   3.852  -0.182   9.096  0.3978 -0.3857 -0.2294
  997MOL0     C34525   3.821  -0.295   9.084  1.1497  0.1255  0.6948
  997MOL0     C34526   3.340   0.192   8.810 -0.1090 -0.2738 -0.5549
  997MOL0     C34527   3.219   0.257   8.816  0.3914  0.0294  1.1455
  997MOL0     H34528   2.720   0.422   8.910 -3.5959  3.6421  0.9554
  997MOL0     H34529   2.504   0.422   8.984  1.0999 -3.0421 -1.8153
  997MOL0     H34530   2.324   0.311   9.049 -0.0739  2.6123 -1.2226
  997MOL0     H34531   2.219   0.302   9.205  2.0542 -0.3009  1.2391
  997MOL0     H34532   2.202   0.535   9.212 -1.6454  0.1410 -2.4770
  997MOL0     H34533   2.366   0.556   9.147  0.5942 -0.8133  2.9467
  997MOL0     H34534   2.219   0.656   8.992 -0.3565 -0.3104 -0.0026
  997MOL0     H34535   2.294   0.510   8.927  2.6294 -0.2952  1.2728
  997MOL0     H34536   2.046   0.413   9.008 -0.3829 -1.2697 -2.4483
  997MOL0     H34537   2.009   0.590   9.014  1.6381  0.9661  0.6910
  997MOL0     H34538   2.079   0.612   8.784  3.6933  0.4832  0.3589
  997MOL0     H34539   2.123   0.450   8.767 -0.8539  1.2184 -0.5250
  997MOL0     H34540   1.881   0.375   8.778  0.6577  0.0563 -1.8903
  997MOL0     H34541   1.824   0.507   8.847 -1.2026 -1.3256 -0.8552
  997MOL0     H34542   1.905   0.637   8.632  0.6204  0.3377  0.2911
  997MOL0     H34543   1.946   0.479   8.562 -0.4771 -0.2021  0.3190
  997MOL0     H34544   1.669   0.540   8.680  1.9213 -2.5235  2.2237
  997MOL0     H34545   1.702   0.411   8.585 -1.2387  0.0612  1.8825
  997MOL0     H34546   1.674   0.400   8.345 -0.0264 -0.3527  2.2649
  997MOL0     H34547   1.577   0.666   8.067 -1.1157  0.2928 -0.1506
  997MOL0     H34548   1.724   0.571   8.082 -0.2462 -1.1646  1.7057
  997MOL0     H34549   1.431   0.486   8.119  0.6770  0.6677  0.2806
  997MOL0     H34550   1.557   0.372   8.145 -1.2901 -2.3850 -1.2032
  997MOL0     H34551   1.493   0.513   7.871 -1.8720 -1.9777 -2.5890
  997MOL0     H34552   1.442   0.344   7.921  0.7764 -0.6198  0.0272
  997MOL0     H34553   1.594   0.320   7.779  3.2853 -0.2209 -1.6326
  997MOL0     H34554   1.692   0.305   7.931  3.0061  2.3385  0.9388
  997MOL0     H34555   1.720   0.444   7.557  0.8984  0.3366 -0.3867
  997MOL0     H34556   1.894   0.240   7.342  2.1673  0.0527 -1.0047
  997MOL0     H34557   1.793   0.380   7.352 -1.0166 -4.2765 -1.5705
  997MOL0     H34558   1.969   0.402   7.327 -2.5815  1.1317 -2.3329
  997MOL0     H34559   2.343   0.353   7.323  0.5703 -0.5180 -0.9587
  997MOL0     H34560   2.502   0.270   7.175 -1.9011  1.3112  1.6215
  997MOL0     H34561   2.818   0.216   7.200  0.3019 -1.5805 -1.6655
  997MOL0     H34562   2.792   0.168   7.366 -1.7507  2.2758 -0.8788
  997MOL0     H34563   2.885  -0.029   7.353 -1.7099 -0.3611 -1.6108
  997MOL0     H34564   2.912  -0.041   7.180 -1.8352  0.1139  0.3169
  997MOL0     H34565   3.067   0.152   7.385  0.0884  2.5702 -1.0691
  997MOL0     H34566   3.050   0.192   7.213  1.6870  0.9737  0.3057
  997MOL0     H34567   3.182  -0.062   7.332  0.2870  1.0752  1.3180
  997MOL0     H34568   3.142  -0.042   7.163 -1.9869  0.8909 -0.1160
  997MOL0     H34569   3.308   0.158   7.327 -0.8951 -0.0938 -0.0350
  997MOL0     H34570   3.291   0.166   7.154 -2.6719  2.2653  2.5431
  997MOL0     H34571   3.419  -0.068   7.320 -3.6572 -1.3728 -0.4947
  997MOL0     H34572   3.404  -0.066   7.153 -3.6581 -3.9762  3.0222
  997MOL0     H34573   3.545   0.175   7.277 -1.2188 -0.0163 -0.6100
  997MOL0     H34574   3.550   0.107   7.115  1.6790  2.0391  0.6566
  997MOL0     H34575   3.689  -0.080   7.184  2.4903  0.3178 -0.5898
  997MOL0     H34576   3.670  -0.045   7.349  0.8363 -2.6799 -0.2868
  997MOL0     H34577   2.614  -0.036   7.447  1.2628  0.1397 -4.3051
  997MOL0     H34578   2.435   0.041   7.613 -1.8298  0.4751  0.9981
  997MOL0     H34579   2.137   0.310   7.773 -0.0487 -1.3308 -0.6833
  997MOL0     H34580   1.955   0.402   7.902  0.4926 -0.8739  0.1026
  997MOL0     H34581   2.618   0.246   9.352 -0.8169 -0.4515 -0.5301
  997MOL0     H34582   2.857   0.220   9.272  1.6441  1.2275 -0.8023
  997MOL0     H34583   3.134   0.189   9.139 -0.1834 -0.6170 -1.2819
  997MOL0     H34584   3.341   0.079   9.133  3.1144 -2.1724 -2.4534
  997MOL0     H34585   3.623   0.194   8.851  0.0653  3.6103  1.2705
  997MOL0     H34586   3.604   0.225   9.030 -1.3754 -1.8940  2.3405
  997MOL0     H34587   3.834   0.149   8.958  0.9265 -0.7114 -2.0043
  997MOL0     H34588   3.757  -0.005   8.907 -1.1290  1.0840 -0.0316
  997MOL0     H34589   3.674   0.031   9.178  0.8320  0.1910  0.1524
  997MOL0     H34590   3.803   0.144   9.165  1.3725  1.3586 -1.5147
  997MOL0     H34591   3.884  -0.071   9.265 -1.7771 -2.6252 -1.0390
  997MOL0     H34592   3.978  -0.020   9.124  1.5481 -0.2365  2.1073
  997MOL0     H34593   3.790  -0.397   9.068 -1.1588  0.7156  0.9966
  997MOL0     H34594   3.404   0.200   8.723  0.9639  3.7108  0.3753
  997MOL0     H34595   3.179   0.296   8.723  3.0060  1.7062  0.6179
  998MOL0     O34596   6.426   3.123   1.789  0.0324 -0.6196 -0.2480
  998MOL0     C34597   6.453   3.009   1.834  0.2553 -0.2791  0.4305
  998MOL0     O34598   6.382   2.940   1.924  0.0334 -0.0985  0.3151
  998MOL0     C34599   6.273   3.005   1.974 -0.1045  0.0054 -0.3853
  998MOL0     C34600   6.287   3.089   2.091  1.3069  0.6858  0.2923
  998MOL0     C34601   6.172   3.145   2.150 -0.9468  0.2183  0.8147
  998MOL0     C34602   6.055   3.149   2.079 -0.3850  0.3222  0.6203
  998MOL0     O34603   5.936   3.191   2.126  0.8727  0.2773  0.5128
  998MOL0     C34604   5.947   3.259   2.255 -0.6397 -0.8826 -0.0868
  998MOL0     C34605   5.818   3.338   2.254  0.0862 -0.5041 -0.1796
  998MOL0     C34606   5.770   3.392   2.394  0.2246  0.2556  0.7242
  998MOL0     C34607   5.630   3.445   2.381  0.2700  0.0876  0.0130
  998MOL0     C34608   5.605   3.548   2.490  0.4083  0.1059  0.0165
  998MOL0     C34609   5.472   3.619   2.467  0.0113 -0.2134  0.0910
  998MOL0     C34610   5.347   3.537   2.459  0.7322  0.5548 -0.1430
  998MOL0     C34611   5.224   3.636   2.474 -0.3905 -0.3575 -0.2468
  998MOL0     N34612   5.089   3.578   2.472  0.4920  0.0058 -0.7720
  998MOL0     C34613   5.036   3.501   2.370 -0.6803 -0.4606 -0.6807
  998MOL0     C34614   4.904   3.500   2.388 -0.0444  0.1634 -0.4695
  998MOL0     C34615   4.816   3.447   2.277  0.2747  0.2925 -0.7082
  998MOL0     C34616   4.768   3.311   2.319 -0.0857 -0.0585 -0.4528
  998MOL0     C34617   4.644   3.274   2.232  0.8603 -0.5524  0.4450
  998MOL0     C34618   4.517   3.348   2.264  0.9440  0.0145  0.0575
  998MOL0     O34619   4.415   3.321   2.166 -0.4868  0.3480  0.3998
  998MOL0     C34620   4.382   3.398   2.054 -0.4172  0.3503  0.5735
  998MOL0     C34621   4.324   3.335   1.945 -0.4858  0.1288  0.4794
  998MOL0     C34622   4.305   3.398   1.821  0.0240 -0.4881 -0.4506
  998MOL0     C34623   4.246   3.316   1.704 -0.8310 -0.8551 -0.3582
  998MOL0     C34624   4.318   3.542   1.819 -0.4869  0.8602  0.1794
  998MOL0     C34625   4.296   3.624   1.697 -0.8893 -0.8081  0.0524
  998MOL0     O34626   4.332   3.757   1.700 -0.0312 -0.7130 -0.0526
  998MOL0     C34627   4.285   3.836   1.595 -0.6484  0.8260  0.8461
  998MOL0     C34628   4.190   3.933   1.625  0.2400 -0.1260  0.2373
  998MOL0     C34629   4.135   4.025   1.525 -0.9076  0.8123  0.8051
  998MOL0     C34630   4.172   3.998   1.384  0.3014  0.4485  0.3353
  998MOL0     O34631   4.125   4.063   1.269  0.6693  0.1558 -0.3487
  998MOL0     C34632   3.990   4.119   1.273 -0.3745 -0.3301  0.0020
  998MOL0     C34633   3.938   4.147   1.137 -0.3763  0.4021 -0.1853
  998MOL0     C34634   3.791   4.195   1.151  0.4959  0.7412  0.3088
  998MOL0     C34635   3.721   4.196   1.006  0.0365  0.5535  0.6355
  998MOL0     C34636   3.582   4.261   1.003 -0.8662  0.2830 -0.5757
  998MOL0     C34637   3.573   4.410   1.037 -0.3241  0.7926  1.0401
  998MOL0     C34638   3.429   4.440   1.059  0.3364  0.2138 -0.5932
  998MOL0     C34639   3.417   4.580   1.120  1.6703  0.7953 -0.2578
  998MOL0    Cl34640   3.253   4.594   1.198  0.3579  0.3953 -0.1101
  998MOL0     C34641   4.270   3.903   1.357 -0.4331  0.4815  0.0914
  998MOL0     C34642   4.326   3.818   1.459  0.1343 -0.0295  0.1713
  998MOL0     O34643   4.256   3.570   1.594 -0.1309  0.2326 -0.4976
  998MOL0     C34644   4.368   3.606   1.936 -0.3462  0.5466  0.4880
  998MOL0     C34645   4.406   3.537   2.048 -0.0771  0.3772  0.6552
  998MOL0     N34646   4.876   3.564   2.510 -0.0198 -0.1906  0.3003
  998MOL0     N34647   4.987   3.605   2.553  0.1889 -0.2987 -0.1410
  998MOL0     C34648   6.053   3.090   1.946  0.6267 -0.3359 -0.1336
  998MOL0     C34649   6.155   3.012   1.901  0.6714 -0.1028  0.4856
  998MOL0     C34650   6.584   2.953   1.786  0.3015 -0.8589  0.1168
  998MOL0     C34651   6.692   3.023   1.731  0.2306 -0.1196  0.8792
  998MOL0     C34652   6.805   2.952   1.696 -0.4702 -0.5255 -0.1099
  998MOL0     C34653   6.827   2.809   1.711 -0.4520 -0.5180  0.1880
  998MOL0     O34654   6.943   2.743   1.677 -0.4244 -0.9098 -0.1871
  998MOL0     C34655   7.039   2.825   1.612  0.1762 -0.1792 -0.0885
  998MOL0     C34656   7.156   2.738   1.588 -0.3326 -0.3204 -0.9664
  998MOL0     C34657   7.250   2.747   1.710  0.0795 -0.5556  0.8204
  998MOL0     C34658   7.378   2.662   1.703  0.1379 -0.4084 -0.1001
  998MOL0     C34659   7.450   2.682   1.828  0.2623 -0.2496  0.8632
  998MOL0     C34660   7.518   2.714   1.920 -0.8230  0.4150  0.5633
  998MOL0     C34661   6.718   2.739   1.768 -0.1668 -0.0621 -0.8837
  998MOL0     C34662   6.603   2.812   1.807 -0.0978  1.0834  1.3777
  998MOL0     H34663   6.384   3.095   2.140  2.7267 -1.0294 -2.1120
  998MOL0     H34664   6.186   3.196   2.245 -1.8702  3.3942 -0.6557
  998MOL0     H34665   5.945   3.186   2.336 -0.3080 -0.2357  0.5066
  998MOL0     H34666   6.031   3.324   2.278 -1.1047 -1.2566  3.0660
  998MOL0     H34667   5.827   3.421   2.184 -2.9057 -2.3014 -3.0193
  998MOL0     H34668   5.739   3.268   2.222 -1.3454  0.8314  0.3005
  998MOL0     H34669   5.791   3.312   2.466  0.9850  0.1688  0.4168
  998MOL0     H34670   5.830   3.481   2.412 -2.7103  2.4463  0.3187
  998MOL0     H34671   5.614   3.491   2.284  1.4577  0.7739  0.1245
  998MOL0     H34672   5.555   3.366   2.390 -0.4548  0.5717 -1.4644
  998MOL0     H34673   5.590   3.485   2.578 -3.9080 -1.0376 -1.2555
  998MOL0     H34674   5.682   3.625   2.498 -0.8146  1.4785 -0.8830
  998MOL0     H34675   5.460   3.686   2.552  0.2938 -2.5863  2.1402
  998MOL0     H34676   5.471   3.678   2.375 -1.7894  0.1654  0.3130
  998MOL0     H34677   5.347   3.490   2.361  1.1673  2.3004 -1.0171
  998MOL0     H34678   5.339   3.472   2.547 -3.2000  4.1469  2.5600
  998MOL0     H34679   5.228   3.718   2.403 -2.4033  0.1270  0.1310
  998MOL0     H34680   5.232   3.682   2.573 -0.6242 -2.0358  0.6014
  998MOL0     H34681   5.088   3.453   2.289  1.3580  1.5782 -0.6765
  998MOL0     H34682   4.730   3.513   2.263 -1.3240 -1.5576 -0.0331
  998MOL0     H34683   4.871   3.440   2.183  0.3754 -2.4338 -0.5226
  998MOL0     H34684   4.731   3.305   2.422 -2.5057 -0.3943 -1.2574
  998MOL0     H34685   4.852   3.249   2.285  0.7589  2.0154 -2.3924
  998MOL0     H34686   4.627   3.166   2.235  3.0657 -0.9474  0.1848
  998MOL0     H34687   4.670   3.289   2.127  0.5964 -2.6586  0.0227
  998MOL0     H34688   4.544   3.453   2.281  4.4426 -0.6788 -0.3599
  998MOL0     H34689   4.475   3.318   2.360 -1.4351  1.4990 -0.4342
  998MOL0     H34690   4.298   3.230   1.959  0.8005 -0.4395 -1.1667
  998MOL0     H34691   4.311   3.319   1.616 -0.4175  0.1773 -0.0379
  998MOL0     H34692   4.245   3.211   1.732  0.3647 -0.9638 -0.6580
  998MOL0     H34693   4.144   3.349   1.680  0.8286  3.2979 -2.7401
  998MOL0     H34694   4.148   3.928   1.724 -1.0968  0.6411 -0.2574
  998MOL0     H34695   4.069   4.105   1.556  1.7793  3.4341  0.2089
  998MOL0     H34696   3.918   4.056   1.325 -1.5071  0.7666 -0.1705
  998MOL0     H34697   3.999   4.207   1.337 -0.3120  0.3876 -0.9668
  998MOL0     H34698   4.001   4.221   1.086 -0.4865 -1.3432 -3.0484
  998MOL0     H34699   3.944   4.058   1.074  0.8948 -0.3018  0.8825
  998MOL0     H34700   3.788   4.295   1.195 -0.9590  0.9114 -0.0952
  998MOL0     H34701   3.734   4.125   1.212  2.3345 -2.3661 -1.2852
  998MOL0     H34702   3.793   4.255   0.949 -2.1464  3.7535  0.9023
  998MOL0     H34703   3.714   4.095   0.964  0.3965  1.1580 -0.9481
  998MOL0     H34704   3.526   4.201   1.075 -1.2484 -0.3472 -1.3765
  998MOL0     H34705   3.529   4.246   0.908 -3.0400  1.3430  0.4023
  998MOL0     H34706   3.636   4.435   1.123  3.0776 -1.7540 -0.4688
  998MOL0     H34707   3.609   4.471   0.954  3.0737 -0.5430  1.3591
  998MOL0     H34708   3.383   4.373   1.132  1.5010 -0.5142 -0.4912
  998MOL0     H34709   3.371   4.439   0.967 -0.3697 -0.9582 -0.1549
  998MOL0     H34710   3.426   4.658   1.044 -0.4051 -1.8739 -3.5309
  998MOL0     H34711   3.483   4.599   1.206 -0.0434  1.1588  1.0326
  998MOL0     H34712   4.309   3.896   1.256 -1.0922  3.2095 -0.4231
  998MOL0     H34713   4.404   3.748   1.430  0.2417  0.6562 -1.2457
  998MOL0     H34714   4.388   3.712   1.934 -1.2295  0.7122 -0.3007
  998MOL0     H34715   4.443   3.594   2.133  0.3246  3.2909 -1.3079
  998MOL0     H34716   5.969   3.119   1.884 -0.4703  2.7297  2.5294
  998MOL0     H34717   6.142   2.975   1.800 -1.4833  0.1020  0.6388
  998MOL0     H34718   6.711   3.130   1.719  3.0739 -0.5463  0.9875
  998MOL0     H34719   6.887   3.006   1.650  0.4982 -0.8619  1.1429
  998MOL0     H34720   7.003   2.854   1.513 -0.9242  3.2228  1.1567
  998MOL0     H34721   7.060   2.918   1.665 -1.2435  1.5669 -2.4019
  998MOL0     H34722   7.210   2.765   1.497 -0.5861 -1.2453 -1.4042
  998MOL0     H34723   7.123   2.634   1.574  2.2698 -1.1725 -1.3085
  998MOL0     H34724   7.194   2.728   1.802  0.3310 -1.4131  0.8061
  998MOL0     H34725   7.282   2.851   1.701  0.9919 -0.9742 -1.7306
  998MOL0     H34726   7.445   2.692   1.622  0.4412  1.4442  0.7714
  998MOL0     H34727   7.352   2.556   1.702 -0.2559 -0.3380  1.1942
  998MOL0     H34728   7.593   2.728   1.995 -2.3074 -0.2487  2.2578
  998MOL0     H34729   6.719   2.631   1.775 -1.8168  0.0194  1.3817
  998MOL0     H34730   6.526   2.754   1.857 -1.1932 -0.3501 -1.7214
  999MOL0     O34731   3.189   4.662   6.953 -0.0433  0.4533  0.1629
  999MOL0     C34732   3.304   4.625   6.992 -0.0865  0.8650  0.7461
  999MOL0     O34733   3.329   4.539   7.106 -0.5812 -0.1061  0.1522
  999MOL0     C34734   3.220   4.491   7.177 -0.9126 -0.1284 -0.1570
  999MOL0     C34735   3.119   4.417   7.107  0.0711  0.4026 -1.4342
  999MOL0     C34736   3.018   4.360   7.188  0.4241  0.3425  0.0191
  999MOL0     C34737   3.005   4.373   7.326 -0.4220 -0.7624  1.4037
  999MOL0     O34738   2.894   4.331   7.402  0.1557 -0.1213 -0.0319
  999MOL0     C34739   2.913   4.290   7.541  1.5434  0.4485  0.3461
  999MOL0     C34740   2.801   4.187   7.574 -0.2092  0.2615 -0.3446
  999MOL0     C34741   2.661   4.245   7.554  0.7213 -0.4055 -0.1047
  999MOL0     C34742   2.618   4.331   7.679 -0.0184  0.3912  0.1249
  999MOL0     C34743   2.470   4.344   7.689 -0.5040 -0.8058 -0.5278
  999MOL0     C34744   2.406   4.446   7.589 -0.0059  0.0454 -0.9918
  999MOL0     C34745   2.270   4.403   7.572  0.5847  0.3049  1.1041
  999MOL0     C34746   2.218   4.479   7.442 -0.0845  1.6861 -0.0664
  999MOL0     N34747   2.232   4.627   7.455  0.0648  0.6249 -0.2251
  999MOL0     C34748   2.327   4.703   7.398 -0.5773  1.0612 -0.3177
  999MOL0     C34749   2.304   4.829   7.432  0.2748  0.4673  0.2559
  999MOL0     C34750   2.401   4.951   7.397  0.2442 -0.5587  0.4668
  999MOL0     C34751   2.372   5.017   7.266  0.9109  0.2263  0.7533
  999MOL0     C34752   2.229   5.083   7.267 -1.1733 -0.0164  0.6498
  999MOL0     C34753   2.214   5.184   7.152  0.1078 -0.7239 -0.2690
  999MOL0     O34754   2.090   5.174   7.085  0.5183  0.2018 -0.5551
  999MOL0     C34755   2.025   5.264   7.001 -0.5859  0.0034  0.0308
  999MOL0     C34756   1.907   5.215   6.946 -0.4435  1.2934  1.2731
  999MOL0     C34757   1.844   5.299   6.846 -0.3649  0.1010  0.5336
  999MOL0     C34758   1.716   5.243   6.782 -0.4875  0.3194  0.2017
  999MOL0     C34759   1.896   5.429   6.810 -0.3452  0.5100  0.1801
  999MOL0     C34760   1.837   5.524   6.716 -1.0118  1.0251 -1.3320
  999MOL0     O34761   1.734   5.475   6.638 -0.0731  0.0825 -0.4036
  999MOL0     C34762   1.687   5.532   6.521  1.2102  0.2995 -0.9639
  999MOL0     C34763   1.548   5.520   6.499  0.2168 -0.2406  0.3394
  999MOL0     C34764   1.487   5.569   6.386 -0.1523 -0.1762  0.1775
  999MOL0     C34765   1.569   5.622   6.285  0.2816  0.8605  0.7974
  999MOL0     O34766   1.499   5.657   6.174 -0.4359  0.6082 -0.3670
  999MOL0     C34767   1.553   5.753   6.081  0.6631 -0.9005  0.1145
  999MOL0     C34768   1.430   5.798   6.007  0.4994 -0.3613 -0.0098
  999MOL0     C34769   1.331   5.893   6.072 -0.3256  0.2651  0.8409
  999MOL0     C34770   1.223   5.935   5.969 -0.8617 -0.0975  0.6434
  999MOL0     C34771   1.115   6.027   6.034  0.4773 -0.4966  0.2224
  999MOL0     C34772   1.015   6.084   5.933  0.4830 -0.6606  0.2537
  999MOL0     C34773   0.923   6.194   6.003 -0.0662 -0.7771 -0.0670
  999MOL0     C34774   0.858   6.287   5.902  0.8150  0.3268  0.5057
  999MOL0    Cl34775   0.970   6.360   5.790 -0.4905 -0.4785  0.3646
  999MOL0     C34776   1.709   5.648   6.307  0.1675  0.4915  0.1272
  999MOL0     C34777   1.758   5.600   6.429 -1.0251  0.2717 -0.4501
  999MOL0     O34778   1.890   5.627   6.698  0.0061 -0.5806 -0.2258
  999MOL0     C34779   2.008   5.467   6.884  1.1332  0.1865  0.0837
  999MOL0     C34780   2.075   5.387   6.976  0.4288 -0.5412  0.3926
  999MOL0     N34781   2.188   4.834   7.511 -0.2429  0.0672  0.1295
  999MOL0     N34782   2.146   4.706   7.517 -0.5742  0.1849  0.0920
  999MOL0     C34783   3.105   4.446   7.392  0.3547 -0.8767 -0.3598
  999MOL0     C34784   3.212   4.503   7.318  0.6592 -0.4977 -0.0343
  999MOL0     C34785   3.422   4.701   6.922 -0.2106  0.3085 -0.0207
  999MOL0     C34786   3.557   4.673   6.967  1.7468  0.0740  1.0764
  999MOL0     C34787   3.659   4.757   6.939 -0.6962 -0.7151 -0.2487
  999MOL0     C34788   3.646   4.869   6.862  0.0217  0.4459 -0.8925
  999MOL0     O34789   3.754   4.945   6.844 -0.4679  0.0263 -0.4304
  999MOL0     C34790   3.735   5.089   6.807 -0.3061  0.6626 -0.3129
  999MOL0     C34791   3.865   5.154   6.794  0.2156 -0.7584 -0.1139
  999MOL0     C34792   3.966   5.121   6.904 -0.5605  0.4797  0.9061
  999MOL0     C34793   3.925   5.120   7.051 -0.1542 -0.9703  0.7458
  999MOL0     C34794   3.901   5.262   7.083  0.7450  0.4354 -0.5292
  999MOL0     C34795   3.873   5.377   7.095 -0.5872 -0.0710 -0.7728
  999MOL0     C34796   3.517   4.890   6.811 -1.1222 -0.0428 -0.1345
  999MOL0     C34797   3.409   4.806   6.834  1.1618  0.3601  0.0123
  999MOL0     H34798   3.120   4.391   7.002 -0.8136 -0.9614 -1.1300
  999MOL0     H34799   2.936   4.306   7.143 -0.4571 -0.9435  2.9280
  999MOL0     H34800   3.014   4.252   7.556  1.3841 -0.2420 -0.2665
  999MOL0     H34801   2.901   4.385   7.593 -1.7909  0.6105 -0.4433
  999MOL0     H34802   2.799   4.102   7.505  1.7254  0.9360 -1.3215
  999MOL0     H34803   2.829   4.154   7.675 -1.0958 -0.3379 -0.2818
  999MOL0     H34804   2.653   4.310   7.466  0.9940  5.2023  3.4955
  999MOL0     H34805   2.592   4.162   7.538 -0.9983  0.6458  1.4451
  999MOL0     H34806   2.644   4.268   7.765  2.1705 -0.4410 -1.0389
  999MOL0     H34807   2.669   4.427   7.694  1.7830 -0.7181  1.4314
  999MOL0     H34808   2.431   4.243   7.673  0.0536 -1.0957 -0.1050
  999MOL0     H34809   2.454   4.372   7.794  0.1390 -1.0672 -0.3554
  999MOL0     H34810   2.422   4.550   7.619  1.6186  0.2554 -2.4095
  999MOL0     H34811   2.457   4.428   7.493  0.6253 -3.9870 -0.0902
  999MOL0     H34812   2.274   4.296   7.550  2.1517  0.5700 -0.0584
  999MOL0     H34813   2.199   4.419   7.654 -1.4780 -2.9116  0.1354
  999MOL0     H34814   2.118   4.443   7.416  0.2669  1.1434 -0.6995
  999MOL0     H34815   2.289   4.445   7.366  0.5637  3.0461 -0.0973
  999MOL0     H34816   2.413   4.668   7.342 -0.3425  2.6400 -0.9663
  999MOL0     H34817   2.393   5.017   7.484 -0.2202 -1.4016  1.0870
  999MOL0     H34818   2.502   4.907   7.398  1.2371  1.6049  0.5877
  999MOL0     H34819   2.387   4.939   7.191  0.8458  2.4652 -1.7330
  999MOL0     H34820   2.438   5.103   7.247  0.6766  0.4857  1.1037
  999MOL0     H34821   2.224   5.139   7.361 -2.2213  0.0780  0.5587
  999MOL0     H34822   2.143   5.018   7.287 -0.4946 -1.7734 -1.8050
  999MOL0     H34823   2.292   5.170   7.077 -0.1831  0.7592 -0.8760
  999MOL0     H34824   2.241   5.285   7.183 -3.0466  0.5080 -1.1109
  999MOL0     H34825   1.871   5.118   6.979 -1.0590  1.8741  2.3633
  999MOL0     H34826   1.646   5.326   6.794  0.7796  1.6895 -1.3341
  999MOL0     H34827   1.729   5.204   6.680  0.1570 -0.5239  0.5882
  999MOL0     H34828   1.679   5.156   6.838 -1.1971 -0.8596 -1.9504
  999MOL0     H34829   1.482   5.466   6.566 -1.6681 -0.4559 -1.6104
  999MOL0     H34830   1.380   5.581   6.372 -0.2606  0.6585  1.5738
  999MOL0     H34831   1.598   5.838   6.132  0.4857  2.0544 -4.1763
  999MOL0     H34832   1.627   5.716   6.010  0.9080  2.1772 -1.4047
  999MOL0     H34833   1.474   5.857   5.926 -1.8774  0.2421 -0.9601
  999MOL0     H34834   1.387   5.706   5.966 -0.7245 -0.1569  0.7559
  999MOL0     H34835   1.382   5.986   6.098 -0.4556  1.7286 -3.3070
  999MOL0     H34836   1.288   5.847   6.161  2.2226 -0.4203  1.7920
  999MOL0     H34837   1.270   5.975   5.878 -0.0540 -0.2895  0.9672
  999MOL0     H34838   1.171   5.846   5.933  1.1187 -1.1395  0.2147
  999MOL0     H34839   1.173   6.104   6.084  1.7823 -0.6142 -1.0410
  999MOL0     H34840   1.066   5.974   6.116  1.1017  1.7808  2.1478
  999MOL0     H34841   1.069   6.146   5.861  1.6011  1.5228  2.7924
  999MOL0     H34842   0.963   6.013   5.868  0.7275 -1.1371  0.5705
  999MOL0     H34843   0.985   6.256   6.069 -1.6544 -1.8262  2.5684
  999MOL0     H34844   0.852   6.145   6.069  0.1683 -2.5755 -1.0879
  999MOL0     H34845   0.799   6.366   5.950 -3.3122 -1.1345 -1.7011
  999MOL0     H34846   0.791   6.237   5.832 -0.5101  1.0166  1.2544
  999MOL0     H34847   1.774   5.690   6.231  0.0764  1.5605  0.6228
  999MOL0     H34848   1.865   5.610   6.447 -1.6232  1.4037  3.3785
  999MOL0     H34849   2.052   5.564   6.865  0.4379  0.3617 -0.6890
  999MOL0     H34850   2.168   5.411   7.026 -0.2149  0.3592  1.2023
  999MOL0     H34851   3.107   4.472   7.497  0.2358  0.1797 -0.6054
  999MOL0     H34852   3.299   4.559   7.351  2.6115 -2.6815 -1.2476
  999MOL0     H34853   3.574   4.570   7.000  5.1354 -0.3693 -1.5087
  999MOL0     H34854   3.761   4.735   6.969 -0.0994  0.1119 -1.5995
  999MOL0     H34855   3.667   5.109   6.724 -2.1246  0.2864  1.0259
  999MOL0     H34856   3.672   5.131   6.886 -2.0247  2.8327 -2.7145
  999MOL0     H34857   3.831   5.258   6.801  1.0830 -0.2300 -2.6929
  999MOL0     H34858   3.912   5.144   6.696 -0.1062 -1.2849 -0.2187
  999MOL0     H34859   4.055   5.182   6.884 -0.0386 -0.4794  0.1809
  999MOL0     H34860   3.993   5.018   6.877 -1.2648  0.7215 -0.8201
  999MOL0     H34861   4.007   5.076   7.108  0.8336 -0.5306 -0.2910
  999MOL0     H34862   3.832   5.067   7.073  0.4789 -1.8234  1.4034
  999MOL0     H34863   3.844   5.479   7.105  2.8448  1.2688 -2.6918
  999MOL0     H34864   3.506   4.975   6.745  0.5855  1.3543  1.2782
  999MOL0     H34865   3.310   4.826   6.793  0.1717 -2.8162  0.5715
 1000MOL0     O34866   6.923   8.981   1.052 -0.3354 -0.4642  0.2762
 1000MOL0     C34867   6.830   9.055   1.081  0.3034  0.1736 -0.3714
 1000MOL0     O34868   6.810   9.111   1.207 -0.7353  0.0196 -0.2568
 1000MOL0     C34869   6.889   9.064   1.305 -0.4225  0.2327  0.1480
 1000MOL0     C34870   7.010   9.127   1.335  0.0697 -0.0073  0.6900
 1000MOL0     C34871   7.091   9.090   1.445  0.0850 -0.1366  0.4776
 1000MOL0     C34872   7.064   8.971   1.504 -0.2096  0.5677 -0.6540
 1000MOL0     O34873   7.147   8.941   1.610 -0.1684  0.3316  0.2438
 1000MOL0     C34874   7.136   8.810   1.664  0.4443  0.4861  0.2505
 1000MOL0     C34875   7.227   8.788   1.783 -0.3071 -0.9106  0.4360
 1000MOL0     C34876   7.169   8.743   1.915  0.4060  0.1912 -0.3199
 1000MOL0     C34877   7.272   8.737   2.020 -0.5003  0.6712  0.3014
 1000MOL0     C34878   7.318   8.872   2.071  0.1242  0.1753  0.3060
 1000MOL0     C34879   7.213   8.972   2.118  0.7978  0.6783 -0.1856
 1000MOL0     C34880   7.277   9.111   2.159 -0.0595  1.5512  0.1447
 1000MOL0     C34881   7.183   9.213   2.236  0.3357 -0.4363 -0.0367
 1000MOL0     N34882   7.179   9.164   2.371  0.7060  0.5394 -0.2816
 1000MOL0     C34883   7.264   9.207   2.472 -0.5845  0.0781 -0.2577
 1000MOL0     C34884   7.227   9.132   2.581 -0.1606  0.1159  0.0226
 1000MOL0     C34885   7.298   9.117   2.712 -0.3114 -0.6401 -0.5258
 1000MOL0     C34886   7.284   9.256   2.779 -0.0498  0.8291 -0.2041
 1000MOL0     C34887   7.152   9.282   2.851 -0.2160  0.3509  0.3351
 1000MOL0     C34888   7.167   9.406   2.915  0.0496 -0.2519 -0.2547
 1000MOL0     O34889   7.147   9.525   2.827  0.0289 -0.1619  0.2003
 1000MOL0     C34890   7.020   9.562   2.786 -0.2131 -0.1376 -0.8696
 1000MOL0     C34891   7.012   9.679   2.722  0.3768  0.2368 -0.1147
 1000MOL0     C34892   6.894   9.735   2.680  0.5783  0.0446 -0.6663
 1000MOL0     C34893   6.891   9.866   2.614 -0.6656 -0.2867  0.3590
 1000MOL0     C34894   6.778   9.658   2.696  0.4343 -0.0333 -0.3460
 1000MOL0     C34895   6.649   9.702   2.640  0.0180 -0.1100  0.3316
 1000MOL0     O34896   6.618   9.659   2.523 -0.4424  0.1431 -0.1913
 1000MOL0     C34897   6.487   9.669   2.475 -0.2368 -0.5784 -0.3147
 1000MOL0     C34898   6.465   9.767   2.377  0.1813 -0.3262 -0.2678
 1000MOL0     C34899   6.343   9.783   2.309 -0.2853  0.6552 -0.8450
 1000MOL0     C34900   6.229   9.698   2.355 -1.0039  0.2715  0.3616
 1000MOL0     O34901   6.103   9.718   2.307 -0.5966 -0.3869 -0.0813
 1000MOL0     C34902   6.083   9.799   2.183  0.7115 -0.8176  0.3558
 1000MOL0     C34903   5.928   9.816   2.143 -0.6006  1.2038 -0.7521
 1000MOL0     C34904   5.843   9.876   2.262 -0.6472 -0.2869  0.5464
 1000MOL0     C34905   5.695   9.891   2.218  0.1384  0.2387  0.0908
 1000MOL0     C34906   5.609   9.925   2.341 -0.4826  0.8901  0.2941
 1000MOL0     C34907   5.477   9.966   2.295  0.3091  0.5116  0.2093
 1000MOL0     C34908   5.380  10.023   2.396 -0.2104 -0.3128 -0.2126
 1000MOL0     C34909   5.338   9.921   2.504 -0.5886  0.3992  0.5125
 1000MOL0    Cl34910   5.461   9.928   2.637  0.0702 -0.0499 -0.3120
 1000MOL0     C34911   6.257   9.596   2.446 -0.2496 -0.5038  0.1780
 1000MOL0     C34912   6.385   9.575   2.499  0.1696  0.8709 -0.7596
 1000MOL0     O34913   6.569   9.766   2.710  0.0377  0.0792 -0.5982
 1000MOL0     C34914   6.774   9.547   2.776 -0.4989 -0.7340 -0.0308
 1000MOL0     C34915   6.896   9.501   2.821  0.0933  0.3624 -0.9472
 1000MOL0     N34916   7.114   9.061   2.541 -0.3818 -0.2177  0.5329
 1000MOL0     N34917   7.087   9.085   2.422  0.8751  0.0114 -0.1942
 1000MOL0     C34918   6.944   8.895   1.467  0.3063  0.0045 -0.0910
 1000MOL0     C34919   6.859   8.947   1.371  0.8343  1.0313  0.0220
 1000MOL0     C34920   6.742   9.105   0.976 -0.3285  0.6090  0.4917
 1000MOL0     C34921   6.658   9.208   1.006  0.8704 -0.3715 -0.4821
 1000MOL0     C34922   6.578   9.269   0.906 -0.6916  0.5111  0.4141
 1000MOL0     C34923   6.597   9.223   0.768 -0.5629 -0.4657 -0.7357
 1000MOL0     O34924   6.538   9.300   0.664 -0.4820  1.2365  0.4927
 1000MOL0     C34925   6.483   9.222   0.550 -0.4181  0.7046 -1.3976
 1000MOL0     C34926   6.411   9.312   0.447 -0.2934  0.0825 -0.4291
 1000MOL0     C34927   6.286   9.372   0.497  0.5292  0.4890  0.2377
 1000MOL0     C34928   6.185   9.280   0.565  0.0903  0.3159  0.0083
 1000MOL0     C34929   6.162   9.156   0.496  0.6573 -0.0526 -0.2018
 1000MOL0     C34930   6.149   9.045   0.454 -0.0073  0.0813 -0.8714
 1000MOL0     C34931   6.678   9.106   0.742 -0.1256 -0.4949  0.0732
 1000MOL0     C34932   6.747   9.048   0.846  0.5049  0.0892 -0.0257
 1000MOL0     H34933   7.039   9.215   1.278 -2.1785 -0.4624 -1.2956
 1000MOL0     H34934   7.175   9.156   1.461  0.2843 -0.0203 -0.9228
 1000MOL0     H34935   7.033   8.783   1.692 -0.1077  1.6545 -0.5936
 1000MOL0     H34936   7.165   8.730   1.595 -1.7506  0.6618 -0.9580
 1000MOL0     H34937   7.307   8.722   1.749 -1.3735 -2.0404  0.0254
 1000MOL0     H34938   7.268   8.887   1.803 -2.6619  0.3297 -0.5191
 1000MOL0     H34939   7.088   8.805   1.953 -0.2795 -0.5839 -0.4906
 1000MOL0     H34940   7.133   8.641   1.899  2.5737 -1.3888  3.5156
 1000MOL0     H34941   7.224   8.684   2.103  0.0730 -0.5450 -0.1331
 1000MOL0     H34942   7.360   8.683   1.986  1.1814  3.1281  0.4546
 1000MOL0     H34943   7.388   8.854   2.153 -0.6683 -0.6323  0.8310
 1000MOL0     H34944   7.379   8.913   1.990  2.4627 -2.1888  0.7323
 1000MOL0     H34945   7.146   8.999   2.036  0.1389 -1.3926 -0.3636
 1000MOL0     H34946   7.150   8.929   2.195 -0.0336  1.1770 -0.5737
 1000MOL0     H34947   7.370   9.087   2.212 -0.2065 -2.2090 -1.0078
 1000MOL0     H34948   7.311   9.152   2.064  3.4633 -6.0481 -2.6560
 1000MOL0     H34949   7.079   9.220   2.202 -0.8903  1.8464  3.6079
 1000MOL0     H34950   7.228   9.312   2.229  0.4518 -0.5903 -2.2451
 1000MOL0     H34951   7.351   9.272   2.472 -1.4710  1.2925 -0.2517
 1000MOL0     H34952   7.253   9.038   2.773  0.9635 -0.3966  0.7850
 1000MOL0     H34953   7.403   9.089   2.700  0.8306  1.7454  2.6763
 1000MOL0     H34954   7.304   9.334   2.705  0.5262  2.0916  1.2348
 1000MOL0     H34955   7.358   9.264   2.859 -0.3567  0.0441  0.1728
 1000MOL0     H34956   7.153   9.205   2.928  0.0089  0.5263  0.5097
 1000MOL0     H34957   7.059   9.267   2.796  0.3794  0.9728 -0.8807
 1000MOL0     H34958   7.267   9.419   2.959  0.2615 -1.0793 -0.4862
 1000MOL0     H34959   7.097   9.401   2.999 -0.0414 -1.2079 -0.3779
 1000MOL0     H34960   7.104   9.731   2.697  0.4392 -0.1882 -0.8126
 1000MOL0     H34961   6.821   9.868   2.530  1.6182  2.8402 -1.7169
 1000MOL0     H34962   6.861   9.946   2.684  0.7550  1.1976 -0.6518
 1000MOL0     H34963   6.988   9.898   2.576 -1.9434  3.0873 -0.5335
 1000MOL0     H34964   6.542   9.840   2.354 -1.1820  0.8545 -1.3470
 1000MOL0     H34965   6.323   9.863   2.238  1.3742  0.4526 -1.5946
 1000MOL0     H34966   6.120   9.902   2.189  0.1180 -0.2566 -3.2899
 1000MOL0     H34967   6.134   9.742   2.104 -1.9710 -0.8072 -1.5299
 1000MOL0     H34968   5.915   9.869   2.049  1.7801  1.3391 -1.0628
 1000MOL0     H34969   5.888   9.715   2.131 -2.7966  1.7097  1.4726
 1000MOL0     H34970   5.885   9.976   2.277 -1.6117 -0.0353  1.6951
 1000MOL0     H34971   5.847   9.816   2.353  1.9625 -1.6578 -0.3490
 1000MOL0     H34972   5.695   9.974   2.147 -1.2490  2.9879  3.0311
 1000MOL0     H34973   5.653   9.796   2.184 -0.5998  0.1168  1.2842
 1000MOL0     H34974   5.651   9.999   2.409  0.6563 -0.2851  0.9317
 1000MOL0     H34975   5.600   9.833   2.401 -1.0351 -0.2846 -1.5120
 1000MOL0     H34976   5.484  10.042   2.216 -2.6453  0.0393 -0.6363
 1000MOL0     H34977   5.411   9.894   2.247 -1.4872  4.0722 -3.2774
 1000MOL0     H34978   5.297  10.056   2.333  1.1730 -0.0902 -1.9842
 1000MOL0     H34979   5.431  10.111   2.436 -1.9180 -0.1230  1.7014
 1000MOL0     H34980   5.324   9.817   2.473 -1.6264  0.3634  1.0774
 1000MOL0     H34981   5.240   9.956   2.537 -2.6965 -3.3248 -1.1027
 1000MOL0     H34982   6.170   9.533   2.467 -2.1187  1.6095 -0.7850
 1000MOL0     H34983   6.404   9.484   2.553  1.3560 -0.1421 -2.7724
 1000MOL0     H34984   6.677   9.502   2.794 -0.2234 -1.3792 -0.1417
 1000MOL0     H34985   6.897   9.406   2.872  1.8526  0.6255 -0.4395
 1000MOL0     H34986   6.909   8.808   1.521  0.3920  0.8806  1.4361
 1000MOL0     H34987   6.765   8.896   1.353  1.0151  0.6933  0.0205
 1000MOL0     H34988   6.642   9.249   1.105 -3.6789 -1.8157 -0.4041
 1000MOL0     H34989   6.497   9.338   0.925 -0.2003  1.2200 -0.0032
 1000MOL0     H34990   6.565   9.172   0.498 -1.5717 -0.8703 -1.7792
 1000MOL0     H34991   6.411   9.149   0.588 -0.0791  1.2485  0.4081
 1000MOL0     H34992   6.395   9.249   0.359  0.5125 -0.6564 -0.0666
 1000MOL0     H34993   6.480   9.395   0.429  0.6524 -0.5076  0.3315
 1000MOL0     H34994   6.231   9.434   0.425  2.3463  2.8170  0.7455
 1000MOL0     H34995   6.312   9.436   0.583 -1.3442  0.2979  0.9928
 1000MOL0     H34996   6.086   9.324   0.582 -0.8531 -1.9399  0.8421
 1000MOL0     H34997   6.218   9.243   0.663  2.0155  0.3328 -0.6098
 1000MOL0     H34998   6.151   8.944   0.418 -0.8032 -0.3747  0.3332
 1000MOL0     H34999   6.706   9.072   0.643  1.5462 -0.0141  0.3490
 1000MOL0     H35000   6.804   8.958   0.830  1.8100  0.2615  2.9994
 1001MOL0     O35001   4.160   9.411   1.253  0.4165  0.1623  0.4801
 1001MOL0     C35002   4.174   9.457   1.139 -0.3846 -0.9029  0.1636
 1001MOL0     O35003   4.095   9.554   1.077  0.0870 -0.2417 -0.3078
 1001MOL0     C35004   3.958   9.530   1.062 -0.1522 -0.2239  0.1744
 1001MOL0     C35005   3.883   9.649   1.025 -0.3677  1.0130 -0.5507
 1001MOL0     C35006   3.745   9.651   1.003  0.3493  0.9000 -0.3050
 1001MOL0     C35007   3.678   9.539   1.024 -0.2561  0.5344  0.0470
 1001MOL0     O35008   3.540   9.552   1.026  0.5634  0.4108 -0.2727
 1001MOL0     C35009   3.460   9.444   0.969  0.7131 -0.0478 -0.6364
 1001MOL0     C35010   3.324   9.500   0.922  0.3617  0.3691 -0.4091
 1001MOL0     C35011   3.242   9.553   1.044  0.3859 -0.0654 -0.4002
 1001MOL0     C35012   3.092   9.550   1.029  0.4268 -0.9484 -0.3484
 1001MOL0     C35013   3.029   9.564   1.163  0.0067 -0.1100 -0.8792
 1001MOL0     C35014   2.882   9.523   1.157  0.6767  0.4313  0.7826
 1001MOL0     C35015   2.800   9.583   1.048  0.3653 -0.3327 -0.6374
 1001MOL0     C35016   2.795   9.734   1.065 -0.3075  0.0938  0.4572
 1001MOL0     N35017   2.736   9.797   0.948  0.7101 -0.0969 -0.1514
 1001MOL0     C35018   2.626   9.886   0.945  0.0481  0.2113  0.3242
 1001MOL0     C35019   2.593   9.903   0.815 -0.2527 -0.7794  0.8210
 1001MOL0     C35020   2.467   9.960   0.760  1.4148  0.5967  0.6788
 1001MOL0     C35021   2.361   9.854   0.699 -0.4666 -0.2067  0.0991
 1001MOL0     C35022   2.403   9.833   0.556  0.3840  0.4587  0.1676
 1001MOL0     C35023   2.302   9.744   0.492 -0.5563 -0.2600  0.6329
 1001MOL0     O35024   2.216   9.843   0.431 -0.3004  0.0003 -0.0980
 1001MOL0     C35025   2.085   9.846   0.454 -0.0889 -0.0540 -0.5077
 1001MOL0     C35026   2.041   9.943   0.531  1.0591 -0.3198 -0.3945
 1001MOL0     C35027   1.903   9.966   0.552  0.7158 -0.0177  0.6249
 1001MOL0     C35028   1.859  10.098   0.602  0.6380 -0.0502 -0.3914
 1001MOL0     C35029   1.814   9.868   0.501 -0.5974  0.7321 -0.5402
 1001MOL0     C35030   1.667   9.883   0.525  1.3609 -0.2587 -0.2780
 1001MOL0     O35031   1.603   9.991   0.474 -0.1937 -0.2769 -0.6241
 1001MOL0     C35032   1.492  10.052   0.526  1.0595  0.5930 -0.6901
 1001MOL0     C35033   1.438  10.046   0.663 -0.6155  0.8640  0.2574
 1001MOL0     C35034   1.309  10.097   0.697 -0.8921  0.0008 -0.4494
 1001MOL0     C35035   1.237  10.176   0.599 -0.1060  0.2241  0.0617
 1001MOL0     O35036   1.118  10.223   0.643  0.0049 -0.3293  0.1197
 1001MOL0     C35037   1.028  10.271   0.540 -0.1701 -0.0461 -0.1497
 1001MOL0     C35038   0.885  10.326   0.582  0.0515  0.2133 -0.5672
 1001MOL0     C35039   0.819  10.222   0.669  1.0139 -0.1227 -0.1447
 1001MOL0     C35040   0.777  10.097   0.599  0.2709 -0.5821 -0.2039
 1001MOL0     C35041   0.707  10.114   0.463  1.0125  0.3260  0.7294
 1001MOL0     C35042   0.682   9.964   0.410  0.4227  0.1199  0.2330
 1001MOL0     C35043   0.600   9.870   0.492 -0.2379  0.3508 -0.8825
 1001MOL0     C35044   0.584   9.723   0.432  0.5504 -1.4809  0.0907
 1001MOL0    Cl35045   0.451   9.716   0.303 -0.5579 -0.3676 -0.5125
 1001MOL0     C35046   1.288  10.191   0.468 -0.8286  0.1220  0.4334
 1001MOL0     C35047   1.414  10.123   0.440  0.0909  0.0104  0.7937
 1001MOL0     O35048   1.617   9.800   0.598  0.2559  0.5319 -0.7141
 1001MOL0     C35049   1.867   9.754   0.436 -0.0667 -0.6851 -0.0332
 1001MOL0     C35050   2.005   9.745   0.410  0.3388 -0.3272  0.1576
 1001MOL0     N35051   2.689   9.846   0.742  0.2114 -0.5525 -1.3011
 1001MOL0     N35052   2.759   9.774   0.818 -0.0426  0.2908 -0.0487
 1001MOL0     C35053   3.743   9.414   1.057 -0.5542  0.1355  1.2944
 1001MOL0     C35054   3.885   9.416   1.080 -0.3741 -0.1920  0.0367
 1001MOL0     C35055   4.307   9.444   1.064 -0.0484  0.4919 -0.0521
 1001MOL0     C35056   4.398   9.361   1.116 -0.4809 -0.4991 -0.6857
 1001MOL0     C35057   4.519   9.344   1.040 -0.1632  0.1574  0.2926
 1001MOL0     C35058   4.537   9.398   0.916  0.6585 -0.7495  0.6261
 1001MOL0     O35059   4.650   9.382   0.843  0.3637  0.3411 -0.4241
 1001MOL0     C35060   4.669   9.249   0.785  0.1968  0.0339 -1.1049
 1001MOL0     C35061   4.772   9.165   0.870 -0.6023 -0.6659  0.6147
 1001MOL0     C35062   4.906   9.241   0.877  0.1582 -0.5236  0.3944
 1001MOL0     C35063   4.978   9.264   0.743 -0.5060 -0.8792  0.4358
 1001MOL0     C35064   5.104   9.333   0.778 -1.0671  0.1155 -0.7521
 1001MOL0     C35065   5.206   9.395   0.797  0.8813  0.3377  0.3744
 1001MOL0     C35066   4.429   9.470   0.858 -0.0509  0.3142 -1.1613
 1001MOL0     C35067   4.321   9.498   0.936  0.9749 -0.1101  1.0501
 1001MOL0     H35068   3.943   9.739   1.018  0.5488  0.3636 -1.1920
 1001MOL0     H35069   3.688   9.741   0.981 -0.5099  0.3228 -0.4950
 1001MOL0     H35070   3.512   9.378   0.899  2.0618  0.3685 -0.0554
 1001MOL0     H35071   3.452   9.377   1.055  0.7212 -0.7465 -1.1687
 1001MOL0     H35072   3.337   9.576   0.845 -0.6127  1.7248  0.7181
 1001MOL0     H35073   3.283   9.408   0.879  5.6639 -2.4593 -0.2693
 1001MOL0     H35074   3.262   9.489   1.130  1.3689  0.2556 -0.3833
 1001MOL0     H35075   3.274   9.657   1.062 -2.1538  1.6094 -4.2349
 1001MOL0     H35076   3.066   9.642   0.975  0.1061 -1.1497 -0.5407
 1001MOL0     H35077   3.056   9.463   0.974 -1.3908 -2.4494  2.9426
 1001MOL0     H35078   3.067   9.484   1.227 -1.1203  0.7485  0.9076
 1001MOL0     H35079   3.044   9.663   1.207 -2.5090  0.0903 -0.3732
 1001MOL0     H35080   2.880   9.417   1.131  0.5920  0.6349 -0.0755
 1001MOL0     H35081   2.837   9.550   1.253  1.4233  2.0063  0.7245
 1001MOL0     H35082   2.838   9.542   0.955 -1.5668 -0.1537 -1.5616
 1001MOL0     H35083   2.698   9.544   1.052  0.3556 -0.2977 -0.5315
 1001MOL0     H35084   2.896   9.773   1.081  0.0775 -1.1022  1.0890
 1001MOL0     H35085   2.745   9.765   1.157 -2.1887 -3.0765  0.6527
 1001MOL0     H35086   2.568   9.921   1.030  2.1581  0.2930  1.8022
 1001MOL0     H35087   2.421  10.026   0.834  3.4872  1.9664  0.8578
 1001MOL0     H35088   2.494  10.038   0.687  1.6486  1.1745  1.3694
 1001MOL0     H35089   2.260   9.894   0.711  0.4639  2.0365  1.1064
 1001MOL0     H35090   2.375   9.766   0.761  3.4124  0.9979  1.2304
 1001MOL0     H35091   2.495   9.775   0.545  0.2931  0.2212  0.6226
 1001MOL0     H35092   2.422   9.928   0.504  3.6451 -0.6364 -0.8548
 1001MOL0     H35093   2.259   9.677   0.567 -3.3171  0.7415  0.0621
 1001MOL0     H35094   2.357   9.682   0.420 -0.7247 -0.5103  0.7195
 1001MOL0     H35095   2.109  10.019   0.570  1.2116 -1.2913  1.3511
 1001MOL0     H35096   1.769  10.096   0.664  0.1435 -0.8703 -1.1184
 1001MOL0     H35097   1.927  10.158   0.664 -2.2647  4.3332 -1.0479
 1001MOL0     H35098   1.826  10.152   0.513 -0.9006 -2.0028 -1.0826
 1001MOL0     H35099   1.487   9.985   0.738  1.0841 -1.6709 -2.7288
 1001MOL0     H35100   1.275  10.090   0.800 -1.4134  1.4890 -0.4953
 1001MOL0     H35101   1.073  10.340   0.468 -1.2032 -0.2495 -0.9964
 1001MOL0     H35102   1.003  10.190   0.472  0.1644  1.9172 -2.7764
 1001MOL0     H35103   0.898  10.414   0.646 -0.0401  0.0617 -0.3395
 1001MOL0     H35104   0.823  10.361   0.498 -2.0637  0.9786  1.2042
 1001MOL0     H35105   0.729  10.254   0.723  1.1781 -1.7293  1.1721
 1001MOL0     H35106   0.884  10.196   0.754  0.2775 -0.3022  0.3719
 1001MOL0     H35107   0.865  10.034   0.586  3.1986  2.9835  0.6232
 1001MOL0     H35108   0.703  10.055   0.668 -1.8829  1.7177 -0.9748
 1001MOL0     H35109   0.780  10.153   0.392 -0.6969  2.0181 -0.1836
 1001MOL0     H35110   0.614  10.172   0.468  0.6901 -0.0527 -0.4963
 1001MOL0     H35111   0.624   9.973   0.318 -0.2716 -1.2942  0.5194
 1001MOL0     H35112   0.777   9.917   0.384  0.3947  0.2650 -0.1361
 1001MOL0     H35113   0.499   9.911   0.499 -0.2628  0.0233  1.2784
 1001MOL0     H35114   0.645   9.846   0.589  2.9494 -2.5228 -2.8663
 1001MOL0     H35115   0.560   9.649   0.510  0.4394 -0.1101  1.4075
 1001MOL0     H35116   0.676   9.690   0.383  0.6464  0.5994 -1.2669
 1001MOL0     H35117   1.241  10.252   0.393 -2.1676 -0.8561  0.4358
 1001MOL0     H35118   1.447  10.119   0.336  2.4856  1.4842  1.4108
 1001MOL0     H35119   1.800   9.674   0.406  1.2733 -1.3339 -1.4451
 1001MOL0     H35120   2.050   9.661   0.359 -0.5603 -0.9128  0.3060
 1001MOL0     H35121   3.684   9.324   1.064  1.3588 -1.5091 -1.7250
 1001MOL0     H35122   3.937   9.329   1.119  2.0504  1.4478  0.6353
 1001MOL0     H35123   4.377   9.318   1.214  0.4695  0.5485  0.0020
 1001MOL0     H35124   4.603   9.281   1.067 -1.5990 -2.0611 -0.1754
 1001MOL0     H35125   4.574   9.195   0.783  0.0158  0.2477  0.3720
 1001MOL0     H35126   4.702   9.244   0.681  0.5158 -0.9071 -0.9708
 1001MOL0     H35127   4.782   9.067   0.823  0.6546 -0.4658  0.4343
 1001MOL0     H35128   4.733   9.138   0.968 -3.6393  0.2449 -0.2157
 1001MOL0     H35129   4.969   9.195   0.953  1.4299  1.3661  0.5766
 1001MOL0     H35130   4.894   9.343   0.916  3.5574 -0.4376  1.5882
 1001MOL0     H35131   4.919   9.329   0.677  1.3925  0.1026 -0.3724
 1001MOL0     H35132   4.984   9.165   0.698  1.7705 -0.3808 -0.4765
 1001MOL0     H35133   5.294   9.455   0.806  1.3154  0.0395 -1.4937
 1001MOL0     H35134   4.430   9.506   0.755 -0.6493 -0.8154 -1.5846
 1001MOL0     H35135   4.237   9.549   0.890 -0.4484 -0.6604  2.9110
 1002MOL0     O35136   1.993   6.328   3.478 -0.1639 -0.2000 -0.3106
 1002MOL0     C35137   2.013   6.364   3.590  0.2177 -1.0349 -0.1280
 1002MOL0     O35138   1.924   6.442   3.663 -0.7778 -0.1876  0.3862
 1002MOL0     C35139   1.796   6.448   3.621 -0.2373 -0.6394 -0.4896
 1002MOL0     C35140   1.717   6.338   3.580 -0.0482 -0.0060 -0.7031
 1002MOL0     C35141   1.583   6.362   3.537 -0.4510  1.0951 -0.2378
 1002MOL0     C35142   1.519   6.487   3.533  0.1028  0.2930 -0.9024
 1002MOL0     O35143   1.385   6.499   3.501 -0.4208  0.9398  0.2134
 1002MOL0     C35144   1.331   6.623   3.554  0.3054 -0.3976  0.0878
 1002MOL0     C35145   1.177   6.606   3.553  0.6321  0.0735  0.0802
 1002MOL0     C35146   1.108   6.736   3.590  0.0970 -0.0429 -0.6067
 1002MOL0     C35147   0.954   6.710   3.589 -0.3341 -0.5144 -0.8137
 1002MOL0     C35148   0.879   6.837   3.604 -0.4480 -0.0708 -0.4701
 1002MOL0     C35149   0.885   6.889   3.747  0.6015 -0.3518 -0.1961
 1002MOL0     C35150   0.794   6.830   3.857  1.1157  0.3664 -0.3727
 1002MOL0     C35151   0.645   6.807   3.822 -0.2393  0.1754  0.1403
 1002MOL0     N35152   0.569   6.930   3.800 -1.0887  0.2433 -0.9158
 1002MOL0     C35153   0.570   7.010   3.686 -0.5205 -0.2768 -0.6478
 1002MOL0     C35154   0.509   7.132   3.728 -0.4577 -0.3664 -0.5936
 1002MOL0     C35155   0.470   7.241   3.633 -0.4244  0.3603 -0.4753
 1002MOL0     C35156   0.590   7.337   3.629  0.4212  0.8554 -0.4210
 1002MOL0     C35157   0.721   7.275   3.573 -0.2241 -0.1722 -0.0082
 1002MOL0     C35158   0.824   7.382   3.542 -0.2428  1.0721 -1.1059
 1002MOL0     O35159   0.851   7.455   3.667 -0.3784 -0.5478  0.1516
 1002MOL0     C35160   0.942   7.560   3.677 -0.2749 -0.8402 -0.1871
 1002MOL0     C35161   0.964   7.618   3.807 -0.3192  0.5040 -0.0916
 1002MOL0     C35162   1.059   7.724   3.833  0.2337  0.2472 -0.0302
 1002MOL0     C35163   1.083   7.753   3.982  0.5137  0.5777 -0.5132
 1002MOL0     C35164   1.118   7.781   3.720 -0.6858  0.8213  0.6530
 1002MOL0     C35165   1.195   7.902   3.734  1.1193 -0.6904  0.0696
 1002MOL0     O35166   1.205   7.963   3.849 -0.0700 -0.0358  0.2887
 1002MOL0     C35167   1.284   8.075   3.865  1.0181 -0.2679  0.1853
 1002MOL0     C35168   1.222   8.202   3.852 -0.1821 -0.2533  0.0693
 1002MOL0     C35169   1.296   8.322   3.850 -0.9482 -0.3732 -0.1128
 1002MOL0     C35170   1.436   8.322   3.866  0.1443  0.2728 -0.3994
 1002MOL0     O35171   1.495   8.445   3.857 -0.0740  0.6063 -0.1904
 1002MOL0     C35172   1.639   8.449   3.878  0.0247 -0.0230 -0.2645
 1002MOL0     C35173   1.682   8.587   3.825 -0.2286 -0.1797  0.5358
 1002MOL0     C35174   1.839   8.588   3.817  0.4979 -0.7363  0.5416
 1002MOL0     C35175   1.892   8.728   3.797  0.1273 -0.4073  0.0866
 1002MOL0     C35176   2.041   8.742   3.826  0.5852 -0.0827 -0.0926
 1002MOL0     C35177   2.085   8.875   3.758  0.3183  0.4027  0.6367
 1002MOL0     C35178   2.231   8.908   3.780  0.1885  0.2539  0.2365
 1002MOL0     C35179   2.272   8.912   3.931 -0.4431  0.1807 -0.5832
 1002MOL0    Cl35180   2.427   9.006   3.949 -0.2029  0.1578 -0.3349
 1002MOL0     C35181   1.496   8.193   3.883  0.5568  0.4904 -0.3860
 1002MOL0     C35182   1.419   8.071   3.884  0.1607 -0.7585  0.1748
 1002MOL0     O35183   1.229   7.952   3.630 -0.0895  0.5081  0.0448
 1002MOL0     C35184   1.084   7.731   3.593  0.0198 -0.4387 -0.0324
 1002MOL0     C35185   1.013   7.619   3.566  0.6314  0.4665 -0.6517
 1002MOL0     N35186   0.477   7.119   3.857  0.0026 -0.4661 -0.2762
 1002MOL0     N35187   0.518   7.004   3.897 -0.8855  0.3317 -0.2790
 1002MOL0     C35188   1.611   6.594   3.569  0.6995 -0.8365  0.1478
 1002MOL0     C35189   1.743   6.571   3.613  0.1800  0.3126 -0.7726
 1002MOL0     C35190   2.150   6.359   3.653  0.3535 -0.2083  0.6218
 1002MOL0     C35191   2.217   6.465   3.709 -0.0750  0.1687 -0.3460
 1002MOL0     C35192   2.341   6.455   3.775 -0.5231 -0.0653  0.1900
 1002MOL0     C35193   2.414   6.338   3.773  0.6463 -0.2191  0.0903
 1002MOL0     O35194   2.537   6.330   3.838  0.2870  0.4026 -0.5982
 1002MOL0     C35195   2.626   6.215   3.817  0.8661  0.0574  0.5673
 1002MOL0     C35196   2.768   6.240   3.877 -0.3599 -0.0288 -0.4006
 1002MOL0     C35197   2.870   6.303   3.770 -0.1212  1.1010  0.8315
 1002MOL0     C35198   2.927   6.191   3.677  0.1688 -1.1679 -0.4722
 1002MOL0     C35199   3.010   6.086   3.746 -0.4449 -0.9071  0.5268
 1002MOL0     C35200   3.067   5.996   3.801 -0.0293 -0.0638  0.4246
 1002MOL0     C35201   2.352   6.225   3.703 -0.9325  0.2498 -0.9459
 1002MOL0     C35202   2.225   6.235   3.642 -1.0459 -0.4709 -0.3839
 1002MOL0     H35203   1.767   6.241   3.577  1.1134  0.5430  0.1016
 1002MOL0     H35204   1.531   6.274   3.502 -0.5987  0.0856  2.2729
 1002MOL0     H35205   1.359   6.646   3.657  0.3655 -3.7049  0.9466
 1002MOL0     H35206   1.363   6.695   3.478  1.6380 -0.4678  0.5504
 1002MOL0     H35207   1.152   6.575   3.451  0.4206  1.4663 -0.3121
 1002MOL0     H35208   1.143   6.533   3.627 -2.0019  1.3787  0.2968
 1002MOL0     H35209   1.157   6.772   3.682  0.9465  1.4021 -1.5822
 1002MOL0     H35210   1.129   6.815   3.517 -0.1041 -1.4393 -2.2224
 1002MOL0     H35211   0.929   6.668   3.491 -0.9274 -1.4422 -0.2911
 1002MOL0     H35212   0.940   6.642   3.674  3.0321 -0.5844 -0.1621
 1002MOL0     H35213   0.917   6.917   3.540 -2.5635  2.1379  0.8507
 1002MOL0     H35214   0.772   6.823   3.586 -0.1342  1.2217 -4.0396
 1002MOL0     H35215   0.982   6.894   3.797 -1.0279  1.0654  3.1191
 1002MOL0     H35216   0.852   6.993   3.749  0.8087 -0.2946  0.1817
 1002MOL0     H35217   0.838   6.730   3.859  1.1371  0.3394 -1.4740
 1002MOL0     H35218   0.804   6.871   3.958 -0.9332 -1.0153  0.4502
 1002MOL0     H35219   0.611   6.744   3.905  2.5753 -0.3142  1.0593
 1002MOL0     H35220   0.632   6.745   3.733 -0.2371 -2.9802  2.1488
 1002MOL0     H35221   0.596   6.987   3.583 -2.2280 -0.6022 -1.0427
 1002MOL0     H35222   0.450   7.192   3.536 -2.3040 -2.6964  1.2812
 1002MOL0     H35223   0.377   7.292   3.659  0.2772  1.8054 -0.6899
 1002MOL0     H35224   0.616   7.361   3.732  0.8374 -2.9423  0.5028
 1002MOL0     H35225   0.563   7.422   3.566 -2.6739  2.6799  2.9958
 1002MOL0     H35226   0.703   7.223   3.478  0.3532  0.0009 -0.2119
 1002MOL0     H35227   0.764   7.206   3.646 -1.1077  0.3001  0.9903
 1002MOL0     H35228   0.786   7.462   3.478  0.2997  2.3775  0.1436
 1002MOL0     H35229   0.918   7.336   3.509 -0.5304 -1.5633  1.3916
 1002MOL0     H35230   0.915   7.569   3.890 -1.9267 -1.5746 -2.1459
 1002MOL0     H35231   1.051   7.671   4.047  1.3331  0.9981  0.4564
 1002MOL0     H35232   1.190   7.775   3.989  0.6564  0.0399 -0.9131
 1002MOL0     H35233   1.022   7.835   4.022  1.7838  1.5121 -0.4441
 1002MOL0     H35234   1.115   8.195   3.837 -0.5688 -0.8281  2.5467
 1002MOL0     H35235   1.248   8.420   3.848  1.3812  0.8220 -1.4288
 1002MOL0     H35236   1.672   8.432   3.981  1.9151 -1.2336 -1.0068
 1002MOL0     H35237   1.691   8.378   3.814 -0.8837  0.2123 -1.2814
 1002MOL0     H35238   1.640   8.585   3.724 -0.0416 -2.8449  0.4547
 1002MOL0     H35239   1.635   8.667   3.883 -2.0223 -1.4238  0.8712
 1002MOL0     H35240   1.871   8.523   3.736 -2.6784 -3.2863  1.1225
 1002MOL0     H35241   1.884   8.551   3.910 -0.6077 -0.9516  1.0064
 1002MOL0     H35242   1.882   8.754   3.691 -2.3700  1.9376  0.7563
 1002MOL0     H35243   1.830   8.799   3.853  2.0272  1.9910 -0.6486
 1002MOL0     H35244   2.093   8.651   3.795  0.0565 -0.7881  1.0597
 1002MOL0     H35245   2.043   8.760   3.934 -0.6638  2.1812 -0.3788
 1002MOL0     H35246   2.064   8.875   3.651 -0.2520  3.1847  0.7020
 1002MOL0     H35247   2.023   8.957   3.793 -1.4588 -1.2979  1.6632
 1002MOL0     H35248   2.258   9.002   3.731  0.0749 -1.2468 -2.9641
 1002MOL0     H35249   2.298   8.840   3.727 -1.6925 -0.4236 -1.3887
 1002MOL0     H35250   2.296   8.815   3.975 -1.4737  1.4241  3.0183
 1002MOL0     H35251   2.198   8.962   3.994  1.5887  0.5309  1.6710
 1002MOL0     H35252   1.602   8.175   3.899 -0.0846 -1.1992  2.7990
 1002MOL0     H35253   1.460   7.970   3.892  1.7256 -0.2801 -1.0981
 1002MOL0     H35254   1.131   7.779   3.508 -0.9148  0.8101  0.1371
 1002MOL0     H35255   1.013   7.608   3.458 -1.8092 -1.6346 -0.5472
 1002MOL0     H35256   1.577   6.697   3.566  1.1732 -0.5661  2.2819
 1002MOL0     H35257   1.809   6.658   3.618  1.3218 -0.5644  0.0184
 1002MOL0     H35258   2.153   6.552   3.713  0.5560  0.6022  0.5378
 1002MOL0     H35259   2.390   6.536   3.828 -1.8839  0.9778 -0.0776
 1002MOL0     H35260   2.581   6.127   3.862 -1.1735 -0.3766 -2.0572
 1002MOL0     H35261   2.634   6.187   3.711  0.6639 -1.3365  0.9089
 1002MOL0     H35262   2.813   6.146   3.911  3.4571  2.5113  2.4874
 1002MOL0     H35263   2.747   6.309   3.959 -1.8204  0.5345 -1.2141
 1002MOL0     H35264   2.950   6.355   3.823 -1.4377  3.3838  0.7018
 1002MOL0     H35265   2.821   6.372   3.700 -0.0520 -2.0759 -2.6660
 1002MOL0     H35266   2.990   6.225   3.595  0.8533  0.5013  0.6896
 1002MOL0     H35267   2.837   6.144   3.636 -0.7200  0.7566 -0.8554
 1002MOL0     H35268   3.133   5.928   3.853 -0.2904 -1.0374 -0.4816
 1002MOL0     H35269   2.397   6.126   3.706 -0.3304  0.5371 -0.2065
 1002MOL0     H35270   2.185   6.161   3.574  1.1368 -1.4634 -0.6981
 1003MOL0     O35271   1.858  10.111  11.261  1.1074  0.5609 -0.7443
 1003MOL0     C35272   1.834  10.048  11.371 -1.0112 -0.5976  0.3885
 1003MOL0     O35273   1.930  10.018  11.466 -0.5460  0.5395 -0.1231
 1003MOL0     C35274   2.064  10.034  11.437  0.0784  0.7702  0.0101
 1003MOL0     C35275   2.123  10.007  11.313  0.1710 -0.5193 -0.7682
 1003MOL0     C35276   2.261   9.999  11.297 -0.0535  0.7005 -0.2037
 1003MOL0     C35277   2.346  10.012  11.398 -0.6069  0.3679 -0.9110
 1003MOL0     O35278   2.486  10.013  11.379  1.1762  0.5241  0.6012
 1003MOL0     C35279   2.572  10.079  11.471 -0.3660 -0.3649 -0.2104
 1003MOL0     C35280   2.718  10.041  11.433 -0.1891 -0.2801 -0.0278
 1003MOL0     C35281   2.760  10.091  11.297  0.0781 -0.2299  0.0520
 1003MOL0     C35282   2.901  10.061  11.269  0.2429 -0.3760  0.2967
 1003MOL0     C35283   2.948  10.121  11.128 -0.1810  0.3398 -0.8743
 1003MOL0     C35284   3.077  10.069  11.089  0.2664 -0.3433  0.5255
 1003MOL0     C35285   3.090  10.102  10.943  0.1375  0.5784 -0.0187
 1003MOL0     C35286   3.071   9.977  10.852  1.2356  0.1162  0.6614
 1003MOL0     N35287   3.130   9.852  10.905  0.3414  0.1905 -0.1949
 1003MOL0     C35288   3.062   9.731  10.902  0.0166  0.9371 -0.5955
 1003MOL0     C35289   3.149   9.641  10.958 -0.2070  0.2662  0.7343
 1003MOL0     C35290   3.138   9.495  10.976  0.6800 -0.8814  0.5830
 1003MOL0     C35291   3.245   9.428  10.896 -0.2596  0.8501  0.3149
 1003MOL0     C35292   3.254   9.450  10.738  0.0148 -0.7531 -0.2722
 1003MOL0     C35293   3.128   9.393  10.678 -0.1743 -0.3029  0.0250
 1003MOL0     O35294   3.027   9.489  10.674 -0.5472 -0.5806  0.0128
 1003MOL0     C35295   2.892   9.460  10.673  0.1425 -1.0739  0.0651
 1003MOL0     C35296   2.803   9.574  10.652  0.0719 -0.9245  0.3392
 1003MOL0     C35297   2.661   9.563  10.642  0.5126  0.6910 -0.2523
 1003MOL0     C35298   2.569   9.689  10.648 -0.4637  0.0446  0.7750
 1003MOL0     C35299   2.611   9.429  10.622  0.4734  0.9034  0.0077
 1003MOL0     C35300   2.462   9.397  10.590 -0.1680 -0.3424  0.6945
 1003MOL0     O35301   2.377   9.497  10.540  0.1972 -0.3232  0.2119
 1003MOL0     C35302   2.243   9.481  10.547 -0.1342  0.0135 -0.6462
 1003MOL0     C35303   2.169   9.560  10.463  0.7714 -0.1802 -0.2545
 1003MOL0     C35304   2.032   9.567  10.467  0.4450  0.8950  0.9676
 1003MOL0     C35305   1.961   9.512  10.570  0.9309  0.0280  0.4091
 1003MOL0     O35306   1.825   9.519  10.592 -0.0711  0.3404 -0.2245
 1003MOL0     C35307   1.782   9.649  10.627 -0.4433  0.4975 -0.9138
 1003MOL0     C35308   1.638   9.641  10.661  0.4633  1.1373  0.5960
 1003MOL0     C35309   1.538   9.549  10.576 -0.4443 -0.2653  0.4146
 1003MOL0     C35310   1.392   9.563  10.606 -0.9712  0.2662  0.5691
 1003MOL0     C35311   1.344   9.689  10.537  0.0108  1.8532 -0.1409
 1003MOL0     C35312   1.202   9.705  10.581  0.4492  0.4070  0.4620
 1003MOL0     C35313   1.144   9.832  10.516 -0.3087  0.1713  0.1028
 1003MOL0     C35314   1.001   9.856  10.582 -0.2132 -0.1702  0.8695
 1003MOL0    Cl35315   0.953  10.011  10.512  0.1222  0.7883  0.3960
 1003MOL0     C35316   2.036   9.441  10.669 -0.2965 -0.0019  0.4900
 1003MOL0     C35317   2.175   9.425  10.646  0.6582  0.4119 -0.0235
 1003MOL0     O35318   2.435   9.280  10.610  0.0145 -0.1097  0.5459
 1003MOL0     C35319   2.700   9.318  10.650 -0.1254 -0.4949  0.5271
 1003MOL0     C35320   2.835   9.330  10.670  0.2564  0.1784  0.7227
 1003MOL0     N35321   3.252   9.711  11.003 -0.2595  0.1627 -0.2178
 1003MOL0     N35322   3.252   9.841  10.969  0.7971 -0.2079 -0.0977
 1003MOL0     C35323   2.289  10.038  11.527  0.5382 -0.3114 -0.0993
 1003MOL0     C35324   2.151  10.048  11.543  0.4932 -0.5607  0.3277
 1003MOL0     C35325   1.706   9.988  11.405 -0.0230 -0.3026  0.1184
 1003MOL0     C35326   1.690   9.904  11.517  0.0223  0.5746  0.0075
 1003MOL0     C35327   1.565   9.847  11.547 -0.5797  0.2668 -0.1292
 1003MOL0     C35328   1.451   9.889  11.468 -0.6129 -0.0157  0.4296
 1003MOL0     O35329   1.323   9.851  11.492  0.0452 -0.3093 -0.3516
 1003MOL0     C35330   1.287   9.822  11.629  0.4121  0.9819  0.0524
 1003MOL0     C35331   1.140   9.806  11.657  0.3725  0.0494 -0.5009
 1003MOL0     C35332   1.116   9.725  11.788  0.7223 -0.1835 -0.3356
 1003MOL0     C35333   0.975   9.668  11.810 -0.0901 -0.9734  0.6345
 1003MOL0     C35334   0.987   9.570  11.920  0.2497  0.2520  0.8398
 1003MOL0     C35335   1.008   9.477  11.993  1.0397 -0.1093  0.8259
 1003MOL0     C35336   1.474   9.958  11.353  0.1707  0.0537  0.3536
 1003MOL0     C35337   1.600  10.006  11.319  0.8634  0.3091  1.0255
 1003MOL0     H35338   2.058   9.985  11.228  0.0967 -0.5479 -0.7038
 1003MOL0     H35339   2.298   9.984  11.196  0.7541 -0.1191  0.1963
 1003MOL0     H35340   2.556  10.187  11.476 -0.0230 -0.3075 -0.3408
 1003MOL0     H35341   2.564  10.038  11.572 -0.5985  0.8655  0.2885
 1003MOL0     H35342   2.783  10.089  11.508  2.2820 -0.5963 -1.8254
 1003MOL0     H35343   2.729   9.933  11.439 -1.0275 -0.3599  0.2041
 1003MOL0     H35344   2.701  10.039  11.221 -1.8027  0.9871  0.6059
 1003MOL0     H35345   2.746  10.199  11.292  1.6411 -0.0529 -2.3640
 1003MOL0     H35346   2.967  10.107  11.343  0.0509 -0.6231  0.6239
 1003MOL0     H35347   2.914   9.952  11.268  1.9587 -0.3318  3.3500
 1003MOL0     H35348   2.872  10.086  11.057 -0.9596  0.0957  0.0562
 1003MOL0     H35349   2.943  10.231  11.124  1.0250  0.3820 -1.8143
 1003MOL0     H35350   3.149  10.127  11.148 -1.2653  1.8898  0.3130
 1003MOL0     H35351   3.088   9.963  11.113 -3.5399 -1.8524 -3.2074
 1003MOL0     H35352   3.027  10.183  10.905  2.2925  1.4827 -1.8539
 1003MOL0     H35353   3.191  10.135  10.919  0.7778 -0.1200  1.5687
 1003MOL0     H35354   3.125   9.989  10.758 -1.9158  2.2715 -1.0395
 1003MOL0     H35355   2.970   9.966  10.812  1.1725  0.5679  0.6948
 1003MOL0     H35356   2.972   9.692  10.854  0.9064 -0.0320 -1.5320
 1003MOL0     H35357   3.166   9.470  11.078 -0.1738 -0.5452  0.9038
 1003MOL0     H35358   3.042   9.450  10.947  1.4562 -2.7165  0.6893
 1003MOL0     H35359   3.234   9.319  10.901 -0.3641  0.8453  0.0458
 1003MOL0     H35360   3.337   9.471  10.936  0.8877  0.7307 -2.0150
 1003MOL0     H35361   3.341   9.402  10.692 -0.8349 -1.2722 -1.3692
 1003MOL0     H35362   3.264   9.556  10.711 -1.4857 -1.0169 -2.1163
 1003MOL0     H35363   3.102   9.301  10.730 -0.7113 -1.1513 -1.6735
 1003MOL0     H35364   3.162   9.364  10.578  1.8737 -1.1644  0.9149
 1003MOL0     H35365   2.848   9.672  10.646 -0.8420 -0.5132 -0.0585
 1003MOL0     H35366   2.549   9.728  10.548  0.5793  0.5756  0.7548
 1003MOL0     H35367   2.477   9.666  10.701 -0.3077  0.2291  1.1279
 1003MOL0     H35368   2.621   9.766  10.705 -1.6929  0.0953  1.8669
 1003MOL0     H35369   2.231   9.608  10.388  2.6049 -2.3662 -0.2654
 1003MOL0     H35370   1.980   9.617  10.386  2.9299  1.0828 -0.6305
 1003MOL0     H35371   1.840   9.693  10.709 -0.7741  0.0586 -0.4338
 1003MOL0     H35372   1.795   9.714  10.540 -1.0733  0.8262 -0.7706
 1003MOL0     H35373   1.638   9.611  10.767 -1.7775 -1.6076 -0.0621
 1003MOL0     H35374   1.602   9.744  10.659 -2.3069  0.3051 -3.0477
 1003MOL0     H35375   1.559   9.445  10.600 -1.1329 -0.9733 -1.8204
 1003MOL0     H35376   1.560   9.566  10.470 -0.4943  3.1983  0.8535
 1003MOL0     H35377   1.339   9.475  10.567  0.8808 -0.2800 -0.8625
 1003MOL0     H35378   1.373   9.569  10.714 -5.3394  0.1600 -0.0004
 1003MOL0     H35379   1.354   9.672  10.429  1.6559 -1.4846  0.4334
 1003MOL0     H35380   1.397   9.777  10.574 -2.5445  1.9870  3.7528
 1003MOL0     H35381   1.138   9.622  10.550 -2.3092  1.7829  2.0258
 1003MOL0     H35382   1.191   9.712  10.690  0.4119  0.5723  0.4477
 1003MOL0     H35383   1.128   9.792  10.416 -0.9729 -0.4051  0.4350
 1003MOL0     H35384   1.218   9.912  10.509  2.1596 -1.9323  0.7066
 1003MOL0     H35385   1.008   9.858  10.691  0.2208 -2.3978  0.9324
 1003MOL0     H35386   0.931   9.774  10.564 -2.0324  1.4683  0.1612
 1003MOL0     H35387   1.989   9.394  10.755  0.1955 -0.7274  0.3605
 1003MOL0     H35388   2.235   9.373  10.721  0.4127  0.3088  0.1023
 1003MOL0     H35389   2.659   9.218  10.639 -0.0482 -0.7404  2.1698
 1003MOL0     H35390   2.895   9.240  10.674 -1.8588 -1.5008 -1.8009
 1003MOL0     H35391   2.346  10.036  11.619 -0.7790  3.4016  0.9557
 1003MOL0     H35392   2.118  10.058  11.645 -1.8740  0.3992 -0.4642
 1003MOL0     H35393   1.766   9.870  11.587 -0.4369  1.3195  0.8940
 1003MOL0     H35394   1.554   9.775  11.628 -0.6835 -2.9260 -2.7946
 1003MOL0     H35395   1.331   9.725  11.654 -2.5571 -0.8754 -1.3516
 1003MOL0     H35396   1.318   9.895  11.705 -0.3344 -0.0089  1.3363
 1003MOL0     H35397   1.084   9.761  11.574 -1.6710  0.4147  0.6036
 1003MOL0     H35398   1.107   9.909  11.669  0.5853  0.0256  0.3081
 1003MOL0     H35399   1.143   9.780  11.878 -0.1978 -0.8808  0.3992
 1003MOL0     H35400   1.182   9.637  11.790 -1.3670 -1.8633 -1.0449
 1003MOL0     H35401   0.932   9.622  11.720 -0.9646  0.9997 -0.0023
 1003MOL0     H35402   0.904   9.748  11.830  0.4902 -0.1519 -0.4822
 1003MOL0     H35403   1.034   9.384  12.041 -0.5966  0.8631  3.8234
 1003MOL0     H35404   1.387   9.977  11.292  0.1684 -1.2154 -0.0716
 1003MOL0     H35405   1.607  10.065  11.228  2.4036 -3.4329 -1.5127
 1004MOL0     O35406   0.863   8.673   6.728 -0.0553  0.0146  0.6079
 1004MOL0     C35407   0.963   8.734   6.689  0.6631 -0.0301 -0.0505
 1004MOL0     O35408   0.965   8.877   6.658 -0.0719  0.0277  1.4547
 1004MOL0     C35409   0.846   8.941   6.635 -0.3523 -0.4512 -0.2149
 1004MOL0     C35410   0.782   8.936   6.512 -0.9356 -0.0402 -0.1701
 1004MOL0     C35411   0.662   9.005   6.489 -0.2849 -0.5240 -0.1125
 1004MOL0     C35412   0.609   9.091   6.584  0.0768  0.1818  0.3879
 1004MOL0     O35413   0.494   9.153   6.544  0.4368 -0.1674 -0.0075
 1004MOL0     C35414   0.433   9.243   6.644  0.6442  0.6017  0.2550
 1004MOL0     C35415   0.304   9.269   6.577 -0.7787 -0.5688 -0.1536
 1004MOL0     C35416   0.208   9.327   6.685  0.7319 -0.8552  0.2676
 1004MOL0     C35417   0.091   9.396   6.615 -0.0965 -0.3053  0.0048
 1004MOL0     C35418  -0.005   9.458   6.715  0.7703  0.8777  0.6522
 1004MOL0     C35419  -0.133   9.510   6.638  0.5483  0.6557 -0.8061
 1004MOL0     C35420  -0.261   9.527   6.736 -1.4296  0.3437 -0.3192
 1004MOL0     C35421  -0.377   9.427   6.716 -0.3502 -0.5378  0.1815
 1004MOL0     N35422  -0.444   9.422   6.585 -0.3457 -0.4144 -0.0352
 1004MOL0     C35423  -0.479   9.527   6.507  0.5755 -0.9399 -0.0472
 1004MOL0     C35424  -0.509   9.470   6.387 -0.0633  0.6748  0.1283
 1004MOL0     C35425  -0.548   9.537   6.257 -0.3879  0.3175  0.8104
 1004MOL0     C35426  -0.695   9.541   6.235 -0.0916  0.5917 -0.2201
 1004MOL0     C35427  -0.720   9.604   6.101  0.0443 -0.1442  0.7585
 1004MOL0     C35428  -0.876   9.622   6.071 -0.4462  0.5080  0.2288
 1004MOL0     O35429  -0.890   9.714   5.958  0.0346 -0.4088 -0.6087
 1004MOL0     C35430  -1.016   9.761   5.923 -0.0287 -0.2704 -0.5257
 1004MOL0     C35431  -1.041   9.835   5.806 -0.5894 -0.8205  0.1574
 1004MOL0     C35432  -1.165   9.880   5.765 -0.1531  0.0784  0.0607
 1004MOL0     C35433  -1.166   9.957   5.636 -0.0222 -0.3294  0.6416
 1004MOL0     C35434  -1.282   9.856   5.845 -0.1726 -1.0334  0.0931
 1004MOL0     C35435  -1.421   9.893   5.810  0.2304 -0.1371 -0.2205
 1004MOL0     O35436  -1.522   9.842   5.891  0.0447  0.6103  0.3240
 1004MOL0     C35437  -1.646   9.902   5.881 -0.8992  0.0488  1.0323
 1004MOL0     C35438  -1.710   9.908   5.756  0.8677  0.4430  0.3496
 1004MOL0     C35439  -1.829   9.977   5.749  1.0152 -1.0982  0.2030
 1004MOL0     C35440  -1.890  10.031   5.860 -0.0102  0.6548  0.1745
 1004MOL0     O35441  -2.008  10.094   5.846  0.3202 -0.0935 -0.0645
 1004MOL0     C35442  -2.048  10.168   5.729  0.3166  0.5586  0.3070
 1004MOL0     C35443  -2.189  10.220   5.737 -0.5889 -1.5297  0.5727
 1004MOL0     C35444  -2.222  10.313   5.853 -0.0016 -0.4538 -1.0106
 1004MOL0     C35445  -2.364  10.275   5.912  0.3265 -0.3168 -0.9844
 1004MOL0     C35446  -2.386  10.338   6.055  0.6294 -0.7538  0.9799
 1004MOL0     C35447  -2.537  10.366   6.085 -0.7943 -0.3435  0.2906
 1004MOL0     C35448  -2.569  10.409   6.225 -0.6645 -0.6778 -0.0337
 1004MOL0     C35449  -2.520  10.309   6.324 -0.1619  0.4326  0.5576
 1004MOL0    Cl35450  -2.603  10.309   6.485  0.2652  0.2319 -0.4352
 1004MOL0     C35451  -1.825  10.018   5.982 -0.2699 -0.3225 -0.8792
 1004MOL0     C35452  -1.698   9.956   5.991 -0.2302 -0.4965  0.4783
 1004MOL0     O35453  -1.439   9.979   5.718 -0.7910  0.1497  0.2555
 1004MOL0     C35454  -1.258   9.789   5.961 -0.4870  0.0471  0.2760
 1004MOL0     C35455  -1.133   9.738   6.005  0.4989  0.1572 -0.5930
 1004MOL0     N35456  -0.497   9.334   6.398  0.6623  0.6981 -0.6026
 1004MOL0     N35457  -0.462   9.309   6.515 -0.2750  0.7047 -0.0951
 1004MOL0     C35458   0.673   9.093   6.706 -0.4266  0.3323 -0.2008
 1004MOL0     C35459   0.786   9.012   6.733  0.0262 -1.1148  0.4553
 1004MOL0     C35460   1.076   8.651   6.648 -0.3412 -0.0048 -0.4037
 1004MOL0     C35461   1.179   8.691   6.560 -0.1167  0.1916 -0.9207
 1004MOL0     C35462   1.285   8.609   6.529  0.0704  0.2569  0.3099
 1004MOL0     C35463   1.292   8.477   6.580 -0.4864 -0.6692  0.6669
 1004MOL0     O35464   1.395   8.385   6.553 -0.2048 -0.2663  0.1977
 1004MOL0     C35465   1.505   8.427   6.478 -0.1510 -0.6069 -0.2372
 1004MOL0     C35466   1.594   8.303   6.437 -0.1392 -0.6784  1.2210
 1004MOL0     C35467   1.545   8.247   6.295  0.6208  0.4273  0.0510
 1004MOL0     C35468   1.592   8.109   6.251 -0.1202 -1.1887  0.5383
 1004MOL0     C35469   1.735   8.112   6.225  1.3764  0.1608 -0.6383
 1004MOL0     C35470   1.853   8.135   6.211  0.2368  0.1803 -0.0331
 1004MOL0     C35471   1.185   8.438   6.657 -0.2423  0.3291  0.6352
 1004MOL0     C35472   1.078   8.519   6.691  0.2037 -0.0067  1.2252
 1004MOL0     H35473   0.826   8.887   6.425 -0.6357  0.0202 -0.0530
 1004MOL0     H35474   0.611   8.993   6.393  0.2679  2.0089 -0.7744
 1004MOL0     H35475   0.417   9.182   6.733  1.3999 -0.1307 -0.1018
 1004MOL0     H35476   0.480   9.339   6.667 -1.2361  1.4810  0.5875
 1004MOL0     H35477   0.308   9.351   6.505 -2.0295  0.1440  0.5392
 1004MOL0     H35478   0.248   9.186   6.533  0.5946 -1.9624  0.6559
 1004MOL0     H35479   0.168   9.244   6.743  2.5586 -2.0558 -0.1139
 1004MOL0     H35480   0.261   9.394   6.752 -2.2747  1.6610  0.3421
 1004MOL0     H35481   0.131   9.483   6.562 -1.9192  0.6985  0.1882
 1004MOL0     H35482   0.042   9.325   6.547 -2.4312 -0.9401  2.2035
 1004MOL0     H35483  -0.041   9.385   6.789 -1.0681 -0.0261 -1.0573
 1004MOL0     H35484   0.050   9.542   6.759  1.0160  0.6707  0.7434
 1004MOL0     H35485  -0.106   9.601   6.583  1.8076 -0.3287 -1.8745
 1004MOL0     H35486  -0.174   9.435   6.569  1.5228  0.8795 -1.6499
 1004MOL0     H35487  -0.211   9.500   6.830  4.2449  3.0286 -2.0701
 1004MOL0     H35488  -0.307   9.626   6.731 -3.3716 -0.3946  1.6040
 1004MOL0     H35489  -0.446   9.446   6.799 -0.0867  0.2365  0.2297
 1004MOL0     H35490  -0.333   9.327   6.721 -2.7960 -1.6366  1.7623
 1004MOL0     H35491  -0.462   9.634   6.519 -0.4982 -0.9798  2.7508
 1004MOL0     H35492  -0.513   9.641   6.252  1.1745 -0.2426 -0.7239
 1004MOL0     H35493  -0.494   9.490   6.174 -0.2446  0.0202  1.0720
 1004MOL0     H35494  -0.733   9.589   6.325  2.6233  1.4939  0.5442
 1004MOL0     H35495  -0.721   9.435   6.222  0.3076  0.2749  1.3721
 1004MOL0     H35496  -0.681   9.552   6.013  0.2381  1.6337 -0.2518
 1004MOL0     H35497  -0.674   9.703   6.107 -1.8654  0.7073  3.3042
 1004MOL0     H35498  -0.924   9.651   6.165 -3.8855 -0.9178 -0.9296
 1004MOL0     H35499  -0.909   9.520   6.050  0.0182 -0.1189  2.3179
 1004MOL0     H35500  -0.955   9.858   5.744 -0.3602 -0.1281  0.7210
 1004MOL0     H35501  -1.240   9.916   5.567  0.3817  3.1659 -2.1291
 1004MOL0     H35502  -1.204  10.057   5.658  1.0186  0.1788  0.1491
 1004MOL0     H35503  -1.067   9.962   5.592 -0.3118  0.0921  0.0319
 1004MOL0     H35504  -1.665   9.867   5.666 -0.5087 -0.5900  0.0962
 1004MOL0     H35505  -1.883   9.982   5.654  0.7320  1.0830  0.4113
 1004MOL0     H35506  -1.972  10.246   5.718  0.3409  0.5274  0.2552
 1004MOL0     H35507  -2.041  10.099   5.644  0.9619 -2.1562  2.4371
 1004MOL0     H35508  -2.208  10.266   5.640  3.5071 -0.4116  0.1594
 1004MOL0     H35509  -2.264  10.139   5.741 -2.2499 -0.1326 -0.8028
 1004MOL0     H35510  -2.213  10.418   5.823  0.1223  0.7818  2.8107
 1004MOL0     H35511  -2.144  10.292   5.927 -0.5243  1.0526  0.0198
 1004MOL0     H35512  -2.429  10.335   5.848 -0.2700 -0.7722 -0.8029
 1004MOL0     H35513  -2.381  10.168   5.920  1.3558 -0.4306 -0.0656
 1004MOL0     H35514  -2.348  10.440   6.060 -2.8430  0.6915  0.5949
 1004MOL0     H35515  -2.338  10.274   6.130  3.2368 -0.0379  0.0117
 1004MOL0     H35516  -2.578  10.447   6.023 -1.9520  0.0890  1.5635
 1004MOL0     H35517  -2.602  10.279   6.069 -0.9098  0.0563 -1.8176
 1004MOL0     H35518  -2.674  10.441   6.236 -0.4559 -0.2758  0.9236
 1004MOL0     H35519  -2.523  10.506   6.243 -2.2243 -0.2254  1.9570
 1004MOL0     H35520  -2.412  10.319   6.339  0.2135 -0.3700 -1.3202
 1004MOL0     H35521  -2.527  10.204   6.293 -1.5240  0.1050  1.8614
 1004MOL0     H35522  -1.859  10.066   6.073 -1.2768  0.0223 -1.4191
 1004MOL0     H35523  -1.650   9.935   6.087 -0.2813 -1.2776  0.3339
 1004MOL0     H35524  -1.342   9.774   6.027 -1.5538 -0.5827 -1.1687
 1004MOL0     H35525  -1.125   9.693   6.103 -1.8890 -1.3152 -0.9881
 1004MOL0     H35526   0.635   9.150   6.790 -2.6864 -1.8473  0.3873
 1004MOL0     H35527   0.835   9.018   6.829  2.1224 -1.4739 -0.5434
 1004MOL0     H35528   1.175   8.787   6.509 -0.1982  0.0891 -1.1087
 1004MOL0     H35529   1.366   8.648   6.468 -0.5581 -1.5622 -1.7831
 1004MOL0     H35530   1.478   8.475   6.383  0.9012 -0.2469 -0.3661
 1004MOL0     H35531   1.554   8.501   6.542 -0.4057  0.5076 -1.2797
 1004MOL0     H35532   1.577   8.223   6.510 -1.8949 -0.9682  0.5525
 1004MOL0     H35533   1.698   8.332   6.423 -0.8228  1.6040  0.2943
 1004MOL0     H35534   1.593   8.313   6.223  0.4745 -0.0657 -0.5162
 1004MOL0     H35535   1.437   8.264   6.284  0.5068 -1.4616 -3.0390
 1004MOL0     H35536   1.548   8.066   6.161  3.4544 -1.7774 -1.1011
 1004MOL0     H35537   1.577   8.034   6.329 -0.1916 -1.1453  0.5666
 1004MOL0     H35538   1.954   8.148   6.179  0.4177 -0.9423  0.0625
 1004MOL0     H35539   1.183   8.335   6.689  3.2483  0.7042  2.6159
 1004MOL0     H35540   0.993   8.476   6.745 -0.4249 -1.5129 -0.8410
 1005MOL0     O35541   8.342   1.516   6.742 -0.1880  0.2558  0.4210
 1005MOL0     C35542   8.365   1.623   6.672  0.4171  0.1265 -0.1700
 1005MOL0     O35543   8.267   1.698   6.616 -0.2274  0.4616 -0.7877
 1005MOL0     C35544   8.142   1.639   6.614  0.0928 -0.3340 -0.7151
 1005MOL0     C35545   8.034   1.723   6.643 -0.3280  0.5162 -0.7473
 1005MOL0     C35546   7.897   1.685   6.635  0.4962 -0.0981  0.1849
 1005MOL0     C35547   7.867   1.562   6.595  0.1875 -0.1947  0.4260
 1005MOL0     O35548   7.731   1.518   6.600 -0.7305 -0.2168 -0.1600
 1005MOL0     C35549   7.618   1.605   6.635 -0.3121 -0.0968 -0.3470
 1005MOL0     C35550   7.486   1.523   6.633 -0.3894  0.1922  0.4310
 1005MOL0     C35551   7.363   1.610   6.678  0.6270  0.3513  0.0522
 1005MOL0     C35552   7.230   1.536   6.660 -0.3553 -1.0348 -0.0341
 1005MOL0     C35553   7.110   1.628   6.691  0.1799 -0.4482  0.0596
 1005MOL0     C35554   6.974   1.558   6.700  0.8336 -0.0177 -0.2503
 1005MOL0     C35555   6.869   1.661   6.742 -0.1569 -0.8631  0.2064
 1005MOL0     C35556   6.724   1.610   6.722  0.3784 -0.5667 -0.4728
 1005MOL0     N35557   6.631   1.681   6.799 -0.4748  0.1864 -0.7304
 1005MOL0     C35558   6.603   1.808   6.771 -0.8035 -0.1754 -0.0966
 1005MOL0     C35559   6.527   1.857   6.875 -0.6738 -0.4639  0.2090
 1005MOL0     C35560   6.478   1.993   6.900 -0.2159 -0.1039 -0.6223
 1005MOL0     C35561   6.521   2.038   7.043  0.4291 -0.8373  0.0183
 1005MOL0     C35562   6.481   2.183   7.072 -0.4762 -0.3684  0.1974
 1005MOL0     C35563   6.340   2.199   7.116  0.4544 -0.2011 -0.5810
 1005MOL0     O35564   6.303   2.318   7.180 -0.6759  0.3760  0.5462
 1005MOL0     C35565   6.175   2.362   7.169 -0.3800 -0.0555 -0.0405
 1005MOL0     C35566   6.155   2.495   7.191  0.1715 -0.4710 -0.6085
 1005MOL0     C35567   6.026   2.553   7.181  0.9516  1.3539  0.6822
 1005MOL0     C35568   6.016   2.708   7.184  0.5820  0.1207  0.1722
 1005MOL0     C35569   5.916   2.469   7.152  0.5200 -0.5837 -0.0148
 1005MOL0     C35570   5.779   2.525   7.131  0.2431 -0.3610  0.1843
 1005MOL0     O35571   5.696   2.467   7.041  0.8871  0.3911  0.0905
 1005MOL0     C35572   5.557   2.483   7.048 -1.3633  0.1558 -0.0321
 1005MOL0     C35573   5.488   2.444   6.933  0.3578  0.5182  0.2307
 1005MOL0     C35574   5.347   2.427   6.938 -0.0499  0.1820  0.0299
 1005MOL0     C35575   5.275   2.455   7.054  0.3080  0.1836  1.3878
 1005MOL0     O35576   5.141   2.443   7.064  1.2094  0.2115 -0.6150
 1005MOL0     C35577   5.074   2.323   7.011  0.2750  0.2610 -0.0476
 1005MOL0     C35578   4.930   2.311   7.068  1.0404 -0.2114 -0.5271
 1005MOL0     C35579   4.920   2.297   7.218  0.0651 -0.1493  0.5072
 1005MOL0     C35580   4.787   2.239   7.262 -0.1404  0.3288  0.1803
 1005MOL0     C35581   4.656   2.286   7.204  0.1973 -1.1315 -1.2025
 1005MOL0     C35582   4.546   2.235   7.299  0.3441 -0.1673  0.0371
 1005MOL0     C35583   4.401   2.269   7.259 -0.1992 -0.5749  0.8805
 1005MOL0     C35584   4.288   2.198   7.332  0.2717  0.2586 -0.6790
 1005MOL0    Cl35585   4.236   2.300   7.471 -0.0673  0.1339 -0.1030
 1005MOL0     C35586   5.341   2.497   7.171 -0.4373 -1.0054  0.3073
 1005MOL0     C35587   5.481   2.500   7.170 -1.3084  0.3258 -0.3667
 1005MOL0     O35588   5.750   2.618   7.204  0.9248 -0.4435  0.1421
 1005MOL0     C35589   5.941   2.324   7.156  0.5359  0.6256 -0.0328
 1005MOL0     C35590   6.069   2.275   7.155 -0.7874  0.1877  0.0399
 1005MOL0     N35591   6.527   1.748   6.967  0.2502  0.3150 -0.1784
 1005MOL0     N35592   6.582   1.643   6.920  0.4306  0.9069 -0.3848
 1005MOL0     C35593   7.972   1.466   6.571  0.5339 -0.0964  0.7717
 1005MOL0     C35594   8.111   1.505   6.587  0.0136 -0.5404  0.3253
 1005MOL0     C35595   8.505   1.651   6.634 -0.3072 -0.5466  0.6926
 1005MOL0     C35596   8.606   1.555   6.658  0.5937 -0.0386 -0.2442
 1005MOL0     C35597   8.741   1.586   6.624  0.0430  0.1191  0.5889
 1005MOL0     C35598   8.776   1.705   6.560  0.3786 -0.1272  0.7080
 1005MOL0     O35599   8.904   1.734   6.504 -0.3009  0.3604 -0.1257
 1005MOL0     C35600   9.002   1.630   6.480  0.4610 -0.3010 -1.1126
 1005MOL0     C35601   9.103   1.630   6.607  0.9085  0.3602  0.1865
 1005MOL0     C35602   9.180   1.749   6.629  0.4350  0.1558  0.1189
 1005MOL0     C35603   9.299   1.770   6.533 -0.1647 -0.2647 -0.4115
 1005MOL0     C35604   9.398   1.664   6.521  0.1739 -0.0636 -0.1059
 1005MOL0     C35605   9.482   1.575   6.510 -0.9160 -0.0566 -0.4571
 1005MOL0     C35606   8.678   1.806   6.537 -0.1956 -0.0640  1.0843
 1005MOL0     C35607   8.538   1.774   6.565 -0.9774 -0.6016 -0.4731
 1005MOL0     H35608   8.044   1.826   6.677 -0.0762  0.2188  0.1243
 1005MOL0     H35609   7.818   1.753   6.664 -1.0185 -1.6299 -0.2035
 1005MOL0     H35610   7.626   1.637   6.740 -0.9375  0.7191 -0.5397
 1005MOL0     H35611   7.614   1.696   6.574  0.5361 -0.1259 -0.4555
 1005MOL0     H35612   7.471   1.493   6.529  2.0639  1.8716 -0.5082
 1005MOL0     H35613   7.493   1.436   6.699  1.3296  1.1062  1.5294
 1005MOL0     H35614   7.369   1.644   6.781 -0.7574  0.5477  0.0928
 1005MOL0     H35615   7.353   1.706   6.626  0.0982  1.3903  2.0002
 1005MOL0     H35616   7.225   1.507   6.555 -0.0300  2.8297 -1.2721
 1005MOL0     H35617   7.224   1.460   6.738 -1.0614  1.6171  2.6908
 1005MOL0     H35618   7.137   1.680   6.783  1.7626 -0.0489 -0.5866
 1005MOL0     H35619   7.100   1.706   6.615 -0.4386  0.4106  1.0006
 1005MOL0     H35620   6.938   1.525   6.602 -0.5977 -0.6589  0.4584
 1005MOL0     H35621   6.963   1.478   6.774 -2.9193  1.8672  1.4884
 1005MOL0     H35622   6.888   1.686   6.846  0.8405 -0.8179  0.0270
 1005MOL0     H35623   6.887   1.752   6.685  1.8529 -3.0332 -2.9651
 1005MOL0     H35624   6.723   1.504   6.748 -1.0527 -1.4278 -3.6651
 1005MOL0     H35625   6.716   1.619   6.614  5.8640  1.1147 -1.0801
 1005MOL0     H35626   6.628   1.870   6.685 -2.0243  0.1826 -0.2139
 1005MOL0     H35627   6.517   2.063   6.826 -0.9100  0.3920 -0.5304
 1005MOL0     H35628   6.369   2.000   6.898 -0.4981  0.1623  4.1240
 1005MOL0     H35629   6.630   2.029   7.048  0.4269 -1.5599 -0.9544
 1005MOL0     H35630   6.475   1.984   7.127  0.1571  1.2588  1.2939
 1005MOL0     H35631   6.504   2.242   6.982 -1.2070  0.5478  0.5964
 1005MOL0     H35632   6.550   2.219   7.149  0.7303  0.6279 -1.2893
 1005MOL0     H35633   6.302   2.117   7.178 -2.5506  1.2101 -0.3777
 1005MOL0     H35634   6.283   2.205   7.022 -2.3519 -0.1430  1.0014
 1005MOL0     H35635   6.240   2.555   7.221  0.1187  1.3485 -3.5778
 1005MOL0     H35636   6.001   2.758   7.280 -1.3023 -2.0354  1.0877
 1005MOL0     H35637   6.110   2.749   7.143  0.6603  1.5223  1.6598
 1005MOL0     H35638   5.942   2.745   7.112 -0.7831  0.0030  1.4758
 1005MOL0     H35639   5.541   2.423   6.841 -0.6580  0.3437 -0.3274
 1005MOL0     H35640   5.311   2.386   6.844  0.5068  0.6009 -0.3698
 1005MOL0     H35641   5.081   2.341   6.903  0.3343  3.9724  0.4469
 1005MOL0     H35642   5.132   2.232   7.031 -0.1817 -0.5631 -2.1856
 1005MOL0     H35643   4.883   2.405   7.037  0.7229 -0.2600 -0.1981
 1005MOL0     H35644   4.882   2.223   7.026 -2.4126  1.0429  0.4767
 1005MOL0     H35645   4.951   2.393   7.261  1.9459 -0.5650  0.1658
 1005MOL0     H35646   5.007   2.232   7.231  1.2197  1.3590  0.6613
 1005MOL0     H35647   4.794   2.133   7.235  0.5749  0.8417 -1.8264
 1005MOL0     H35648   4.779   2.256   7.369  0.9588 -0.2568  0.3707
 1005MOL0     H35649   4.650   2.261   7.098  1.1359  0.2827 -1.6147
 1005MOL0     H35650   4.647   2.395   7.212  0.2548 -1.2446  3.5446
 1005MOL0     H35651   4.554   2.127   7.290  1.3634  0.0709 -3.8070
 1005MOL0     H35652   4.562   2.276   7.399  0.2046  2.7930 -1.0258
 1005MOL0     H35653   4.400   2.245   7.152  1.3335 -1.7210  1.0839
 1005MOL0     H35654   4.394   2.376   7.280  2.8396  0.0626 -0.7557
 1005MOL0     H35655   4.317   2.098   7.366 -0.7895  0.4462  0.8789
 1005MOL0     H35656   4.206   2.189   7.261 -2.1813  0.3943  1.9470
 1005MOL0     H35657   5.279   2.500   7.260  1.5224 -3.2724  1.9122
 1005MOL0     H35658   5.537   2.512   7.262  0.2134  3.0135 -1.5241
 1005MOL0     H35659   5.853   2.264   7.136  1.1155 -0.5514  0.8390
 1005MOL0     H35660   6.082   2.168   7.145  0.8973 -0.1387  3.8217
 1005MOL0     H35661   7.951   1.361   6.549  2.0233 -0.4369  0.8276
 1005MOL0     H35662   8.199   1.446   6.566  4.2994  2.9547  5.5670
 1005MOL0     H35663   8.578   1.459   6.702 -4.2570  0.1659 -2.1962
 1005MOL0     H35664   8.824   1.522   6.651 -0.8368 -0.3344  2.4336
 1005MOL0     H35665   8.956   1.531   6.470  0.4600 -0.4624  0.3123
 1005MOL0     H35666   9.044   1.646   6.380  0.1297 -1.1284 -1.3989
 1005MOL0     H35667   9.167   1.543   6.594 -0.1187 -0.9251  2.8834
 1005MOL0     H35668   9.047   1.619   6.701 -3.8344  2.9835 -1.9561
 1005MOL0     H35669   9.221   1.751   6.730 -1.4461  0.7801  0.9088
 1005MOL0     H35670   9.119   1.838   6.613 -1.5987 -1.3257 -0.8767
 1005MOL0     H35671   9.352   1.862   6.559  1.2210 -0.2408 -3.0774
 1005MOL0     H35672   9.264   1.791   6.432  0.2845  1.2722 -0.2820
 1005MOL0     H35673   9.561   1.502   6.509  0.4972  1.4144 -0.8215
 1005MOL0     H35674   8.696   1.890   6.470  0.4706 -1.3038 -0.3481
 1005MOL0     H35675   8.459   1.844   6.540 -0.4109  0.1370 -0.2142
 1006MOL0     O35676   5.758   7.801   2.463  0.3834  0.0717 -0.5870
 1006MOL0     C35677   5.791   7.911   2.414  0.1614  0.3874  0.6279
 1006MOL0     O35678   5.703   8.013   2.386  0.1125 -0.0062 -0.1827
 1006MOL0     C35679   5.572   8.005   2.439 -0.6180  0.2440 -0.0921
 1006MOL0     C35680   5.507   8.110   2.507 -0.2503 -0.4348 -0.5242
 1006MOL0     C35681   5.369   8.091   2.553 -0.5142 -0.5494 -0.4415
 1006MOL0     C35682   5.302   7.970   2.541  0.2888  0.7830  0.5768
 1006MOL0     O35683   5.181   7.963   2.599  0.2063 -0.5555 -1.1037
 1006MOL0     C35684   5.097   7.842   2.609 -0.7065 -0.3713 -0.3386
 1006MOL0     C35685   4.965   7.879   2.662 -0.5579  0.2766  0.1157
 1006MOL0     C35686   4.877   7.750   2.672  0.3363  0.1354  0.5222
 1006MOL0     C35687   4.743   7.775   2.738  0.1392  0.2172  0.4471
 1006MOL0     C35688   4.656   7.851   2.640  0.7738  0.0786 -0.1831
 1006MOL0     C35689   4.554   7.928   2.713 -0.1399 -1.4033 -0.7562
 1006MOL0     C35690   4.436   7.843   2.776 -0.4825  0.1894  0.6570
 1006MOL0     C35691   4.347   7.926   2.878 -0.0002  0.1470 -0.4030
 1006MOL0     N35692   4.418   7.958   2.999  0.0896  0.7494 -0.0773
 1006MOL0     C35693   4.486   7.858   3.079 -0.1588  0.2582 -0.1712
 1006MOL0     C35694   4.557   7.942   3.173 -0.1510  0.8777  0.0832
 1006MOL0     C35695   4.655   7.885   3.277  0.3375 -0.9766 -0.2757
 1006MOL0     C35696   4.782   7.965   3.282  0.0550 -0.4251 -0.2147
 1006MOL0     C35697   4.862   7.969   3.151 -0.5102  0.4162 -1.3787
 1006MOL0     C35698   4.982   8.063   3.171 -0.2484  0.0610  0.7638
 1006MOL0     O35699   5.051   8.057   3.042 -0.9416 -0.3398  0.0192
 1006MOL0     C35700   5.189   8.067   3.036 -0.3476  0.0160  1.1523
 1006MOL0     C35701   5.257   8.115   3.148 -1.0798  0.1144 -0.5785
 1006MOL0     C35702   5.396   8.132   3.142  0.0081 -1.2564 -0.8181
 1006MOL0     C35703   5.456   8.170   3.272 -1.1710 -0.0524 -0.7431
 1006MOL0     C35704   5.467   8.110   3.022  0.2667 -0.3465  1.0540
 1006MOL0     C35705   5.615   8.135   3.013 -0.5670 -0.3394 -0.2302
 1006MOL0     O35706   5.689   8.138   3.126  0.2724  0.0463 -0.0408
 1006MOL0     C35707   5.802   8.213   3.128  0.3392  0.0080 -0.5390
 1006MOL0     C35708   5.801   8.343   3.170 -0.2317 -0.2260 -0.8847
 1006MOL0     C35709   5.921   8.416   3.182  0.0626 -0.4358 -0.2891
 1006MOL0     C35710   6.042   8.346   3.157 -0.6146 -0.9539  0.2896
 1006MOL0     O35711   6.155   8.428   3.179  0.4760 -0.3383 -0.2809
 1006MOL0     C35712   6.287   8.379   3.157  0.6129  0.7903  0.3934
 1006MOL0     C35713   6.321   8.358   3.008 -1.0747  1.2089  0.4007
 1006MOL0     C35714   6.478   8.361   2.996 -0.3006  0.3323  0.3097
 1006MOL0     C35715   6.557   8.237   3.050  0.0648 -0.6833  0.6414
 1006MOL0     C35716   6.706   8.245   3.005 -0.0111 -0.3512 -0.1037
 1006MOL0     C35717   6.778   8.348   3.082  0.1413  0.4140  0.4704
 1006MOL0     C35718   6.942   8.353   3.059  0.3243  0.4214  0.7630
 1006MOL0     C35719   7.013   8.474   3.120 -0.2194 -0.0302  0.0246
 1006MOL0    Cl35720   7.177   8.505   3.066 -0.1491 -0.1812 -0.6034
 1006MOL0     C35721   6.043   8.216   3.114  1.4854  0.8000  0.4646
 1006MOL0     C35722   5.919   8.145   3.095 -0.2176  0.4901  0.3212
 1006MOL0     O35723   5.662   8.159   2.904 -0.9691  0.0191  1.1162
 1006MOL0     C35724   5.401   8.071   2.911 -0.3144  1.1560 -0.1685
 1006MOL0     C35725   5.267   8.049   2.914  0.3472 -0.3535 -0.2350
 1006MOL0     N35726   4.532   8.073   3.130  0.3010  0.4781 -0.2116
 1006MOL0     N35727   4.447   8.081   3.035 -0.3683 -0.1964 -0.4683
 1006MOL0     C35728   5.362   7.868   2.465  0.5127  0.8369 -0.1597
 1006MOL0     C35729   5.490   7.881   2.414  0.7630 -0.6678 -0.5001
 1006MOL0     C35730   5.931   7.940   2.397  0.4169 -0.4768  0.2286
 1006MOL0     C35731   5.977   8.069   2.361  0.4477  1.0168  0.7262
 1006MOL0     C35732   6.114   8.089   2.338  0.6668  0.1043 -0.0338
 1006MOL0     C35733   6.205   7.983   2.345 -0.9557 -0.3482  0.0300
 1006MOL0     O35734   6.337   8.018   2.317  0.4982 -0.6227 -0.1085
 1006MOL0     C35735   6.449   7.970   2.400  0.3379  0.5350  0.4482
 1006MOL0     C35736   6.564   7.951   2.304  0.5758  0.7053 -0.5339
 1006MOL0     C35737   6.700   7.924   2.379 -0.0054 -0.3478  0.3473
 1006MOL0     C35738   6.818   7.908   2.273  0.3327  0.3971 -0.0130
 1006MOL0     C35739   6.851   8.028   2.201  0.2793  0.1791  0.2521
 1006MOL0     C35740   6.875   8.129   2.148  0.2007 -0.2300 -0.0194
 1006MOL0     C35741   6.161   7.854   2.371 -0.9997 -0.5714  0.5251
 1006MOL0     C35742   6.027   7.835   2.407  0.3440 -0.4055  0.6214
 1006MOL0     H35743   5.561   8.205   2.505  1.1766 -1.2279 -1.3682
 1006MOL0     H35744   5.318   8.179   2.592  0.3783 -0.2868  0.1597
 1006MOL0     H35745   5.092   7.792   2.511 -0.8623 -0.3945 -0.3190
 1006MOL0     H35746   5.136   7.765   2.676 -0.8525 -0.6486 -0.5636
 1006MOL0     H35747   4.992   7.928   2.756  2.2935  0.3784 -0.6676
 1006MOL0     H35748   4.936   7.955   2.589  0.2886  0.9446  0.4610
 1006MOL0     H35749   4.875   7.711   2.570 -1.1567  0.6705  0.3332
 1006MOL0     H35750   4.919   7.675   2.740 -1.8421 -2.1013 -0.4310
 1006MOL0     H35751   4.707   7.681   2.779 -1.1369  1.4029  2.1926
 1006MOL0     H35752   4.753   7.843   2.823  1.4071  1.8788 -0.9660
 1006MOL0     H35753   4.710   7.920   2.575 -1.0421  0.0219 -1.8551
 1006MOL0     H35754   4.608   7.784   2.568  2.5411 -0.6616 -0.7188
 1006MOL0     H35755   4.604   7.990   2.788 -0.0919 -1.3410 -0.8390
 1006MOL0     H35756   4.511   8.006   2.649  1.0701  1.8643  2.1315
 1006MOL0     H35757   4.372   7.819   2.691  0.1764  1.5427 -0.2646
 1006MOL0     H35758   4.469   7.751   2.824  1.3316  0.4260 -0.0370
 1006MOL0     H35759   4.261   7.863   2.902  0.4479 -0.1951  0.3540
 1006MOL0     H35760   4.309   8.021   2.838  0.1490 -0.8202 -3.0324
 1006MOL0     H35761   4.472   7.751   3.071 -1.4776  0.5158 -1.8922
 1006MOL0     H35762   4.600   7.897   3.371 -2.3899  4.3287 -2.1811
 1006MOL0     H35763   4.696   7.785   3.263  0.2423 -0.6570 -3.4564
 1006MOL0     H35764   4.840   7.932   3.368 -0.8755 -0.5525  0.3778
 1006MOL0     H35765   4.766   8.068   3.313  1.4440  0.2165 -1.5124
 1006MOL0     H35766   4.803   8.021   3.075 -0.7458  1.5577 -0.4369
 1006MOL0     H35767   4.871   7.864   3.119  1.2251  0.5120 -1.3051
 1006MOL0     H35768   5.031   8.022   3.259  0.1115 -0.2239  0.4355
 1006MOL0     H35769   4.944   8.164   3.189 -0.7046  0.0136  0.1283
 1006MOL0     H35770   5.206   8.139   3.240  0.2893  1.2919 -0.0800
 1006MOL0     H35771   5.518   8.095   3.322 -1.6739  0.6945  1.0903
 1006MOL0     H35772   5.518   8.260   3.268 -1.2642  0.0308 -0.3523
 1006MOL0     H35773   5.381   8.205   3.344 -1.1284 -0.4787 -0.4912
 1006MOL0     H35774   5.710   8.395   3.199 -0.0669 -0.9102  1.0009
 1006MOL0     H35775   5.924   8.520   3.210  2.2778 -0.6390  0.3948
 1006MOL0     H35776   6.354   8.455   3.198 -0.3233  2.7168 -1.4920
 1006MOL0     H35777   6.308   8.289   3.215  1.0605  0.5130 -0.1775
 1006MOL0     H35778   6.283   8.261   2.971  0.4862  0.4288  0.7754
 1006MOL0     H35779   6.280   8.432   2.939 -1.2782 -1.8666 -3.1030
 1006MOL0     H35780   6.511   8.445   3.058 -0.8213  2.0363 -1.6125
 1006MOL0     H35781   6.514   8.388   2.896  2.0838 -1.5898  0.5528
 1006MOL0     H35782   6.549   8.233   3.159 -2.2665  1.6173  0.6698
 1006MOL0     H35783   6.520   8.150   2.995  2.6203 -0.8785 -0.9175
 1006MOL0     H35784   6.713   8.258   2.897  1.0579 -0.0629 -0.0099
 1006MOL0     H35785   6.743   8.151   3.047 -0.6582 -0.1184  1.0377
 1006MOL0     H35786   6.737   8.445   3.052  0.1731  0.1163 -0.5739
 1006MOL0     H35787   6.745   8.341   3.186 -1.2961  0.5437  0.0465
 1006MOL0     H35788   6.959   8.329   2.954  2.6971 -0.7207  1.3352
 1006MOL0     H35789   6.985   8.265   3.109  1.2659  0.5162  0.1361
 1006MOL0     H35790   7.015   8.468   3.229  0.7235  1.9931  0.1612
 1006MOL0     H35791   6.959   8.564   3.091  2.3514  0.5521 -3.6760
 1006MOL0     H35792   6.140   8.166   3.114 -0.3063 -3.0374 -0.4746
 1006MOL0     H35793   5.923   8.040   3.068  4.0327  1.2469 -3.1688
 1006MOL0     H35794   5.449   8.049   2.816  0.4702  0.2205  0.4319
 1006MOL0     H35795   5.214   8.028   2.822  0.7620  2.5580 -1.2398
 1006MOL0     H35796   5.312   7.774   2.440  0.8257  1.3688 -3.1911
 1006MOL0     H35797   5.544   7.805   2.358  0.4094 -0.3324 -1.3115
 1006MOL0     H35798   5.916   8.157   2.348 -2.9001 -1.3192 -0.5741
 1006MOL0     H35799   6.149   8.185   2.300 -3.0374  0.8704 -1.9880
 1006MOL0     H35800   6.484   8.037   2.479  2.3546  0.6124 -0.4356
 1006MOL0     H35801   6.423   7.876   2.449  3.2789 -0.5711  0.0909
 1006MOL0     H35802   6.584   8.039   2.243 -3.4460  1.2841 -1.3517
 1006MOL0     H35803   6.536   7.870   2.236 -0.4973  1.9438 -1.6318
 1006MOL0     H35804   6.699   7.831   2.436  4.0634 -0.4128  0.5679
 1006MOL0     H35805   6.714   8.008   2.448 -1.5288  1.6466 -1.6118
 1006MOL0     H35806   6.801   7.846   2.185 -0.5560  3.2333 -1.9863
 1006MOL0     H35807   6.910   7.875   2.323  1.1088  2.5394  0.0914
 1006MOL0     H35808   6.889   8.223   2.100  0.0102  1.0194  2.2513
 1006MOL0     H35809   6.237   7.778   2.361 -0.2990  0.2008 -0.2303
 1006MOL0     H35810   5.993   7.736   2.437 -1.2829  0.4881  1.8627
 1007MOL0     O35811   0.094   3.430   4.001  0.6227 -0.7536  0.6060
 1007MOL0     C35812   0.151   3.465   3.897 -0.1571  0.0771  0.0995
 1007MOL0     O35813   0.103   3.458   3.765  0.2385  0.0008  0.7356
 1007MOL0     C35814   0.016   3.363   3.725 -0.4482  0.8788  0.3732
 1007MOL0     C35815  -0.097   3.395   3.643 -0.0014 -0.7695 -0.6689
 1007MOL0     C35816  -0.196   3.298   3.619 -0.6767 -0.8353 -1.1479
 1007MOL0     C35817  -0.199   3.173   3.681 -0.2369  0.1086 -0.1061
 1007MOL0     O35818  -0.298   3.074   3.685  0.7962 -0.8077  0.0582
 1007MOL0     C35819  -0.427   3.122   3.637  0.3029  0.2104  0.4180
 1007MOL0     C35820  -0.538   3.025   3.651 -0.7988 -0.3454 -0.3770
 1007MOL0     C35821  -0.686   3.065   3.601 -0.0503  0.1435 -0.8191
 1007MOL0     C35822  -0.797   2.958   3.631  0.4965  0.2811  0.6275
 1007MOL0     C35823  -0.939   3.017   3.643 -0.9285  0.2326 -0.1738
 1007MOL0     C35824  -1.054   2.920   3.676  0.1635  0.0136 -0.1078
 1007MOL0     C35825  -1.191   2.979   3.697  0.7259 -0.2390  0.0166
 1007MOL0     C35826  -1.199   3.087   3.807 -0.4070  0.0697 -0.4513
 1007MOL0     N35827  -1.334   3.146   3.815 -0.0876 -0.3868 -0.5207
 1007MOL0     C35828  -1.449   3.091   3.865  0.8891 -0.6229  0.4685
 1007MOL0     C35829  -1.536   3.198   3.887 -0.4172  0.9146  0.3621
 1007MOL0     C35830  -1.639   3.193   3.981  0.8801  0.1551 -0.4908
 1007MOL0     C35831  -1.763   3.261   3.936  0.3507  0.2858 -0.2645
 1007MOL0     C35832  -1.852   3.195   3.827 -0.5128 -0.2590 -0.3617
 1007MOL0     C35833  -1.928   3.296   3.744 -1.2427 -0.7259 -0.4767
 1007MOL0     O35834  -2.014   3.379   3.827 -0.0389 -0.4131  0.3722
 1007MOL0     C35835  -2.141   3.333   3.828 -0.8860 -1.6997  0.1404
 1007MOL0     C35836  -2.198   3.207   3.805 -0.3716  0.2730 -1.4742
 1007MOL0     C35837  -2.334   3.174   3.824 -0.8361 -0.6008  0.0981
 1007MOL0     C35838  -2.367   3.025   3.824  0.1080  0.2163 -0.2107
 1007MOL0     C35839  -2.425   3.279   3.854  0.5980 -0.5988 -0.0696
 1007MOL0     C35840  -2.573   3.254   3.876  0.7478 -0.6001 -0.6230
 1007MOL0     O35841  -2.637   3.345   3.962 -0.3225 -0.1836 -0.0290
 1007MOL0     C35842  -2.761   3.314   3.997  0.2350  0.6752 -0.0870
 1007MOL0     C35843  -2.867   3.397   3.957 -0.1268 -0.0406  0.6752
 1007MOL0     C35844  -2.996   3.373   4.004  0.2475 -0.5726  0.4145
 1007MOL0     C35845  -3.027   3.269   4.088 -0.7236 -1.0500 -0.2663
 1007MOL0     O35846  -3.160   3.261   4.125 -0.7349  0.2605 -0.5178
 1007MOL0     C35847  -3.213   3.149   4.184 -0.0785  0.3455  0.3326
 1007MOL0     C35848  -3.371   3.167   4.195 -0.1662 -0.2851  0.3013
 1007MOL0     C35849  -3.459   3.166   4.074  0.3617  0.3118  0.2545
 1007MOL0     C35850  -3.605   3.209   4.105 -0.1715  0.4670 -0.4558
 1007MOL0     C35851  -3.678   3.192   3.971  0.7790 -0.0432  0.5364
 1007MOL0     C35852  -3.816   3.247   4.000  0.1226 -0.5845  0.5102
 1007MOL0     C35853  -3.901   3.237   3.875  0.7215 -0.3116  0.0696
 1007MOL0     C35854  -4.039   3.271   3.909  1.0047  0.2550 -0.4305
 1007MOL0    Cl35855  -4.054   3.446   3.954  0.0087 -0.4050 -0.2907
 1007MOL0     C35856  -2.915   3.193   4.133 -0.8557  0.4014 -0.1535
 1007MOL0     C35857  -2.786   3.204   4.075 -0.3886 -0.4272 -0.5396
 1007MOL0     O35858  -2.631   3.161   3.814 -0.8278  0.1844 -0.0331
 1007MOL0     C35859  -2.372   3.411   3.851  0.4311 -0.3049 -1.0768
 1007MOL0     C35860  -2.228   3.434   3.858  0.3317 -0.3713 -0.8172
 1007MOL0     N35861  -1.479   3.311   3.835  0.8862 -0.2814  0.5134
 1007MOL0     N35862  -1.365   3.279   3.789 -0.6582 -1.0346 -0.0152
 1007MOL0     C35863  -0.067   3.140   3.729 -0.0056 -0.6761  0.7151
 1007MOL0     C35864   0.035   3.232   3.757  0.2530  0.7345  0.2614
 1007MOL0     C35865   0.286   3.523   3.912 -0.0670 -0.1071 -0.5138
 1007MOL0     C35866   0.344   3.529   4.040 -0.1321  1.5492 -0.2230
 1007MOL0     C35867   0.462   3.600   4.061 -0.7954 -0.2933  0.5088
 1007MOL0     C35868   0.531   3.660   3.959  0.5947 -1.2414  1.4707
 1007MOL0     O35869   0.643   3.737   3.968  0.1101 -0.1689 -0.4043
 1007MOL0     C35870   0.752   3.664   4.040  1.5367 -0.4404  0.4181
 1007MOL0     C35871   0.876   3.741   4.018 -0.4236  0.0795 -0.2989
 1007MOL0     C35872   0.881   3.883   4.072  0.2102  0.3339  0.3258
 1007MOL0     C35873   0.882   3.900   4.222 -0.5304  1.0648 -0.2825
 1007MOL0     C35874   0.830   4.039   4.247  0.2952  0.9892 -0.0063
 1007MOL0     C35875   0.781   4.146   4.263 -0.5235 -0.2165  1.0265
 1007MOL0     C35876   0.479   3.650   3.831  0.0876 -0.4596 -0.2405
 1007MOL0     C35877   0.360   3.582   3.809  0.4465  0.4898 -0.0545
 1007MOL0     H35878  -0.101   3.500   3.615 -0.8587 -0.0745  1.7860
 1007MOL0     H35879  -0.282   3.329   3.561 -1.0587 -1.9183 -1.1677
 1007MOL0     H35880  -0.459   3.206   3.701  1.0494  0.4642  0.4667
 1007MOL0     H35881  -0.426   3.146   3.531  0.2775  0.0090  0.3716
 1007MOL0     H35882  -0.520   2.940   3.585 -2.0217  0.7107 -2.1645
 1007MOL0     H35883  -0.537   2.994   3.756 -1.5979 -1.9537 -0.8150
 1007MOL0     H35884  -0.722   3.143   3.669  2.7252  0.6117  0.2742
 1007MOL0     H35885  -0.684   3.093   3.495  0.5921  0.1173 -0.8202
 1007MOL0     H35886  -0.797   2.902   3.537 -0.9899  0.2921  0.5991
 1007MOL0     H35887  -0.782   2.892   3.718 -1.5413 -3.2030 -1.4069
 1007MOL0     H35888  -0.935   3.089   3.725 -1.8755 -0.5100  0.5454
 1007MOL0     H35889  -0.967   3.054   3.544 -3.1323 -0.8147 -0.0182
 1007MOL0     H35890  -1.057   2.848   3.594  1.0670  1.3877 -1.3994
 1007MOL0     H35891  -1.017   2.873   3.768 -0.9016 -2.3917 -0.8252
 1007MOL0     H35892  -1.217   3.023   3.600  1.8839  3.3341  1.1598
 1007MOL0     H35893  -1.258   2.896   3.719  1.5146 -1.6037 -2.3194
 1007MOL0     H35894  -1.130   3.170   3.790 -1.0799  0.4841 -1.2329
 1007MOL0     H35895  -1.177   3.037   3.902  1.3808  0.9212 -0.3893
 1007MOL0     H35896  -1.457   2.990   3.904 -0.7640 -1.1786 -1.1461
 1007MOL0     H35897  -1.674   3.091   4.004 -3.2348  1.2580 -1.0317
 1007MOL0     H35898  -1.594   3.236   4.071 -2.0802  0.6835  0.8500
 1007MOL0     H35899  -1.737   3.365   3.917  0.3687  0.4095  0.4325
 1007MOL0     H35900  -1.829   3.260   4.023  1.9978  0.7497  1.0339
 1007MOL0     H35901  -1.922   3.129   3.879 -0.0689  1.3692  2.5694
 1007MOL0     H35902  -1.800   3.139   3.750  0.4587 -0.0966  0.1568
 1007MOL0     H35903  -1.985   3.253   3.661 -2.7573  1.1821 -0.5172
 1007MOL0     H35904  -1.857   3.365   3.699  0.2725  0.2902  3.1197
 1007MOL0     H35905  -2.139   3.116   3.805  0.9179  1.0791 -0.6243
 1007MOL0     H35906  -2.429   3.000   3.911  0.9958 -3.2322 -0.4570
 1007MOL0     H35907  -2.410   2.984   3.732  0.4945 -0.9900  0.1322
 1007MOL0     H35908  -2.273   2.972   3.840  0.0273  0.1523  0.0500
 1007MOL0     H35909  -2.840   3.472   3.883 -0.4207 -3.7513 -3.6431
 1007MOL0     H35910  -3.075   3.445   3.985 -0.2843 -0.5528  2.4621
 1007MOL0     H35911  -3.185   3.065   4.120  1.3329  0.4330  0.7881
 1007MOL0     H35912  -3.165   3.123   4.280  0.9758 -3.5499 -1.0358
 1007MOL0     H35913  -3.404   3.094   4.270  1.7252 -1.0660  0.4314
 1007MOL0     H35914  -3.390   3.268   4.233 -1.8503 -0.1890 -0.7091
 1007MOL0     H35915  -3.455   3.066   4.028  3.1380  0.6569 -0.4782
 1007MOL0     H35916  -3.412   3.233   4.001  2.6735 -1.1336  0.3079
 1007MOL0     H35917  -3.650   3.141   4.178  2.8558 -1.8801 -0.5402
 1007MOL0     H35918  -3.620   3.306   4.152 -1.1766 -0.8511  2.1044
 1007MOL0     H35919  -3.688   3.087   3.942 -2.3368  0.3213  0.0006
 1007MOL0     H35920  -3.627   3.246   3.890  1.2008 -2.2150 -0.7303
 1007MOL0     H35921  -3.867   3.193   4.080 -1.3227  0.2058  0.1544
 1007MOL0     H35922  -3.818   3.347   4.044  0.0750 -0.7428  0.8681
 1007MOL0     H35923  -3.891   3.140   3.825 -3.3791  0.2628 -2.3646
 1007MOL0     H35924  -3.882   3.319   3.806 -4.0028  2.5519  1.7347
 1007MOL0     H35925  -4.088   3.210   3.986 -2.2798 -1.3982 -3.4970
 1007MOL0     H35926  -4.102   3.263   3.819  0.4258 -1.3051  0.0755
 1007MOL0     H35927  -2.936   3.101   4.186 -0.0884 -2.2424 -3.9820
 1007MOL0     H35928  -2.702   3.137   4.083 -1.2370 -1.7706 -2.2538
 1007MOL0     H35929  -2.441   3.494   3.844 -0.9901 -1.5783 -3.0935
 1007MOL0     H35930  -2.187   3.526   3.897  1.0734 -1.3428  0.7784
 1007MOL0     H35931  -0.055   3.033   3.742  0.5004 -1.2721 -3.4306
 1007MOL0     H35932   0.133   3.205   3.793 -0.1974 -0.5423  0.6145
 1007MOL0     H35933   0.300   3.484   4.128  3.2068 -0.7123  0.4740
 1007MOL0     H35934   0.505   3.587   4.159  1.6137 -1.2933 -0.5962
 1007MOL0     H35935   0.718   3.667   4.144 -3.2679  1.1784 -0.9271
 1007MOL0     H35936   0.758   3.558   4.011 -0.7022 -0.6398  0.4468
 1007MOL0     H35937   0.890   3.743   3.910 -1.9503 -0.9288 -0.5463
 1007MOL0     H35938   0.964   3.692   4.061 -0.6922  0.6395  0.9239
 1007MOL0     H35939   0.792   3.937   4.036  0.5090  2.0026  1.9599
 1007MOL0     H35940   0.972   3.929   4.032  1.7754 -0.6860  2.5289
 1007MOL0     H35941   0.978   3.887   4.272 -1.2508 -1.6459  0.5218
 1007MOL0     H35942   0.823   3.821   4.269  2.2075  1.1584  3.8443
 1007MOL0     H35943   0.726   4.236   4.285 -1.5475 -1.5083  4.4753
 1007MOL0     H35944   0.536   3.693   3.750 -1.1203 -1.3157 -1.5991
 1007MOL0     H35945   0.327   3.573   3.706 -0.6986 -1.0901  0.4075
 1008MOL0     O35946   3.646   4.769   2.138  0.4441 -0.1009 -0.1063
 1008MOL0     C35947   3.589   4.805   2.030 -0.4964 -0.1001 -0.6889
 1008MOL0     O35948   3.656   4.806   1.905 -0.5016 -0.0479  0.3054
 1008MOL0     C35949   3.778   4.753   1.907  0.2440 -0.5596  1.5457
 1008MOL0     C35950   3.791   4.615   1.898  0.1964  0.1531 -0.2588
 1008MOL0     C35951   3.917   4.550   1.896 -0.5408 -0.4727 -0.5537
 1008MOL0     C35952   4.033   4.631   1.879 -0.4674 -0.0530 -0.5502
 1008MOL0     O35953   4.159   4.593   1.867 -0.0484  0.2836 -0.0274
 1008MOL0     C35954   4.178   4.452   1.880  0.1274  0.4007 -0.0972
 1008MOL0     C35955   4.319   4.408   1.850 -0.6849  0.1604  0.4348
 1008MOL0     C35956   4.343   4.262   1.856  0.2123  0.6527 -0.7178
 1008MOL0     C35957   4.493   4.228   1.850 -0.2127 -0.0983  0.2741
 1008MOL0     C35958   4.523   4.077   1.850 -0.1005 -0.1252  0.3951
 1008MOL0     C35959   4.666   4.041   1.829  0.0307  0.0207  0.4023
 1008MOL0     C35960   4.681   3.890   1.815  0.5665  0.2572  0.0016
 1008MOL0     C35961   4.821   3.846   1.793 -0.7917  0.4370  0.1015
 1008MOL0     N35962   4.838   3.704   1.839  0.1486  0.0003  0.5995
 1008MOL0     C35963   4.918   3.615   1.772 -1.6622  0.5800 -0.0691
 1008MOL0     C35964   4.934   3.507   1.854 -0.6180 -0.0835 -0.4339
 1008MOL0     C35965   5.019   3.377   1.837  0.7192  0.3039 -0.1681
 1008MOL0     C35966   4.954   3.286   1.733 -1.0322  0.3461  0.0479
 1008MOL0     C35967   5.052   3.189   1.679 -0.1456 -0.0529 -0.4057
 1008MOL0     C35968   5.020   3.159   1.533  0.6632  0.1831  0.9771
 1008MOL0     O35969   4.885   3.101   1.515  0.5943 -0.1194 -0.0149
 1008MOL0     C35970   4.799   3.175   1.443  0.4940  0.6582  0.7029
 1008MOL0     C35971   4.833   3.225   1.318 -0.4556  0.1548  0.6786
 1008MOL0     C35972   4.756   3.313   1.252 -0.4943 -0.1366  0.0793
 1008MOL0     C35973   4.798   3.361   1.118  0.3955 -0.8288  0.1992
 1008MOL0     C35974   4.627   3.341   1.307  0.9673 -0.6116 -0.5319
 1008MOL0     C35975   4.517   3.416   1.234 -0.0056  0.6275  0.0995
 1008MOL0     O35976   4.383   3.376   1.257 -0.1313 -0.3236 -0.0301
 1008MOL0     C35977   4.281   3.442   1.195  0.9953  0.1169  0.4944
 1008MOL0     C35978   4.215   3.546   1.262 -0.8117  0.7988  0.7234
 1008MOL0     C35979   4.110   3.614   1.199  1.0571  0.5403  0.8304
 1008MOL0     C35980   4.064   3.585   1.064 -0.9013 -1.2283 -0.5132
 1008MOL0     O35981   3.972   3.664   1.002  0.0401  0.4821 -0.2532
 1008MOL0     C35982   3.862   3.709   1.080 -0.1661  0.6831 -1.0586
 1008MOL0     C35983   3.774   3.781   0.978  0.1936  0.0436  0.5736
 1008MOL0     C35984   3.629   3.823   1.021  0.2958 -1.1102  0.2936
 1008MOL0     C35985   3.546   3.867   0.893  0.5033 -0.5924  0.1803
 1008MOL0     C35986   3.401   3.910   0.933  0.3733 -0.0654  1.0732
 1008MOL0     C35987   3.292   3.903   0.826 -0.4187  0.1966 -0.1965
 1008MOL0     C35988   3.181   3.991   0.872 -0.4435  0.9256  0.6158
 1008MOL0     C35989   3.091   4.052   0.760 -0.5641 -0.1896 -0.1954
 1008MOL0    Cl35990   2.995   3.915   0.697  0.1184 -0.1196 -0.0440
 1008MOL0     C35991   4.145   3.497   0.990 -0.1316  0.5300 -0.2060
 1008MOL0     C35992   4.248   3.418   1.059  0.4432 -0.2859 -1.0731
 1008MOL0     O35993   4.558   3.525   1.195  0.6332  0.0343  0.1779
 1008MOL0     C35994   4.599   3.293   1.436  0.4312  0.4038 -0.4370
 1008MOL0     C35995   4.680   3.206   1.496 -0.8483 -0.1729  0.1654
 1008MOL0     N35996   4.853   3.532   1.964  0.5832 -0.0753  0.1323
 1008MOL0     N35997   4.798   3.646   1.951 -0.4894 -0.3432 -0.2276
 1008MOL0     C35998   4.021   4.769   1.890 -0.2412  0.3731  1.0880
 1008MOL0     C35999   3.894   4.833   1.901 -0.2558 -0.1751 -0.5131
 1008MOL0     C36000   3.448   4.852   2.036  0.3929 -0.0114  0.3553
 1008MOL0     C36001   3.372   4.888   1.925  0.1391  1.0979 -0.9526
 1008MOL0     C36002   3.239   4.936   1.938 -0.7931  0.2815 -0.1271
 1008MOL0     C36003   3.178   4.929   2.065  0.1264  0.6812  0.1934
 1008MOL0     O36004   3.045   4.951   2.077 -0.3857 -0.0340  0.1387
 1008MOL0     C36005   2.979   5.015   1.964 -0.6846  0.4337  0.3565
 1008MOL0     C36006   2.837   5.046   2.021 -0.5743 -0.1001  0.3064
 1008MOL0     C36007   2.765   5.152   1.938  0.1085 -0.7254 -0.4740
 1008MOL0     C36008   2.624   5.179   2.007  1.1739  0.2389  0.5849
 1008MOL0     C36009   2.529   5.067   2.011 -0.5456  0.3235 -0.7264
 1008MOL0     C36010   2.465   4.972   2.032 -0.2245  0.3117  0.5240
 1008MOL0     C36011   3.250   4.897   2.176 -0.0225  0.0195 -0.5679
 1008MOL0     C36012   3.387   4.871   2.160 -0.3095  0.4254 -0.2272
 1008MOL0     H36013   3.698   4.560   1.901 -0.8118  1.7987 -0.6155
 1008MOL0     H36014   3.919   4.443   1.915  0.7234 -0.0127  2.4134
 1008MOL0     H36015   4.153   4.425   1.983  2.8474  1.4189  0.9078
 1008MOL0     H36016   4.127   4.385   1.809 -0.6462 -1.5802  2.1951
 1008MOL0     H36017   4.352   4.441   1.751 -1.0518 -1.7675 -0.3681
 1008MOL0     H36018   4.385   4.453   1.925  0.5416 -0.3592 -0.3028
 1008MOL0     H36019   4.294   4.214   1.942 -1.0479  0.1671 -1.6665
 1008MOL0     H36020   4.293   4.223   1.767 -1.8248  2.4210 -0.4316
 1008MOL0     H36021   4.527   4.258   1.750 -2.3180 -1.5183 -0.9307
 1008MOL0     H36022   4.562   4.273   1.921  0.5539 -2.2257  0.9703
 1008MOL0     H36023   4.488   4.029   1.942 -0.2513  0.2715  0.5474
 1008MOL0     H36024   4.477   4.037   1.759  1.8345  0.2521 -0.7959
 1008MOL0     H36025   4.697   4.098   1.741 -0.3812  1.8880  1.4005
 1008MOL0     H36026   4.715   4.078   1.920  0.6358  0.8323 -0.2331
 1008MOL0     H36027   4.646   3.853   1.912 -0.1403  0.3795 -0.1970
 1008MOL0     H36028   4.614   3.852   1.737 -1.2943  2.9830  0.1292
 1008MOL0     H36029   4.890   3.902   1.857  0.2092 -0.9103  0.2627
 1008MOL0     H36030   4.855   3.861   1.690  4.0318 -1.2908  1.1596
 1008MOL0     H36031   4.969   3.624   1.677  0.2940  1.5431  0.9999
 1008MOL0     H36032   5.121   3.393   1.800  2.0404 -2.1807  2.0953
 1008MOL0     H36033   5.009   3.319   1.929  1.6234 -1.1610 -0.9461
 1008MOL0     H36034   4.919   3.358   1.658 -0.4072 -0.1904 -0.7705
 1008MOL0     H36035   4.871   3.230   1.779 -0.0566 -1.0737  0.1244
 1008MOL0     H36036   5.041   3.098   1.738 -1.4701  0.2595 -0.1373
 1008MOL0     H36037   5.152   3.232   1.684 -0.2760  0.2483 -0.3309
 1008MOL0     H36038   5.090   3.094   1.480 -1.8125 -0.9350 -1.1932
 1008MOL0     H36039   5.025   3.254   1.481 -3.6882 -1.1111 -2.4090
 1008MOL0     H36040   4.931   3.201   1.277 -1.4940 -3.4234 -0.1246
 1008MOL0     H36041   4.901   3.330   1.099  0.8962  0.0622  1.3438
 1008MOL0     H36042   4.740   3.307   1.043 -1.6324  2.1180 -0.5401
 1008MOL0     H36043   4.785   3.469   1.104  1.0385 -0.7899 -0.1380
 1008MOL0     H36044   4.249   3.563   1.364  0.8169 -0.0335  0.3520
 1008MOL0     H36045   4.074   3.698   1.257  1.7901 -0.7282  3.2740
 1008MOL0     H36046   3.803   3.623   1.112 -1.2118  0.8842 -2.3287
 1008MOL0     H36047   3.891   3.775   1.162 -0.6521  0.1157 -0.4159
 1008MOL0     H36048   3.821   3.871   0.939 -0.5861 -0.4450 -1.6363
 1008MOL0     H36049   3.774   3.720   0.887  0.4917  2.6847 -1.3134
 1008MOL0     H36050   3.648   3.907   1.089  0.9247 -0.9903 -0.0287
 1008MOL0     H36051   3.573   3.743   1.071  1.3863 -0.5774  2.5322
 1008MOL0     H36052   3.594   3.949   0.839 -0.1611 -0.1773  0.1998
 1008MOL0     H36053   3.537   3.791   0.814 -0.6950  0.2722 -0.5627
 1008MOL0     H36054   3.412   4.007   0.983 -1.5010  0.4833  0.5026
 1008MOL0     H36055   3.368   3.839   1.010 -1.1998  0.6563  1.1015
 1008MOL0     H36056   3.329   3.931   0.727  0.3374 -2.0889 -0.6215
 1008MOL0     H36057   3.253   3.801   0.818  1.2550 -0.8640  3.1098
 1008MOL0     H36058   3.219   4.078   0.927  0.8486  0.1462  0.9952
 1008MOL0     H36059   3.117   3.936   0.942 -2.7156 -2.5327 -3.6865
 1008MOL0     H36060   3.143   4.112   0.684 -1.7235  0.8951 -0.1608
 1008MOL0     H36061   3.023   4.126   0.803  0.1375  3.3286 -4.4491
 1008MOL0     H36062   4.121   3.468   0.888 -1.3227 -1.8556  0.6825
 1008MOL0     H36063   4.290   3.332   1.008 -1.2859 -0.7247 -1.8441
 1008MOL0     H36064   4.508   3.331   1.480 -0.2096 -1.6737  0.1630
 1008MOL0     H36065   4.662   3.168   1.596 -3.0528  1.8417  0.6275
 1008MOL0     H36066   4.107   4.835   1.878 -0.3825  0.0568 -3.0298
 1008MOL0     H36067   3.888   4.941   1.904 -2.6034 -0.2770  0.4645
 1008MOL0     H36068   3.428   4.874   1.833  1.8308 -1.9444  0.4061
 1008MOL0     H36069   3.194   4.972   1.846  0.6118  0.2512 -0.8549
 1008MOL0     H36070   3.033   5.108   1.942  2.5807 -0.5797  3.1720
 1008MOL0     H36071   2.968   4.953   1.874 -3.1931 -0.5003  1.2244
 1008MOL0     H36072   2.849   5.074   2.126  0.1158  0.7126  0.0210
 1008MOL0     H36073   2.770   4.960   2.021 -0.6445 -0.0635  1.6772
 1008MOL0     H36074   2.755   5.118   1.834 -1.9070 -0.6976 -0.3200
 1008MOL0     H36075   2.829   5.241   1.945  4.4822 -3.2904 -2.8071
 1008MOL0     H36076   2.565   5.258   1.958 -0.4812 -0.1263  1.8811
 1008MOL0     H36077   2.633   5.235   2.101 -1.8684  1.1588  0.4704
 1008MOL0     H36078   2.414   4.888   2.077 -1.1358  1.5602  1.9260
 1008MOL0     H36079   3.194   4.895   2.268 -0.4676  0.2468 -0.8328
 1008MOL0     H36080   3.443   4.869   2.253 -2.5744 -1.4540  1.2300
 1009MOL0     O36081   3.423   1.501   8.935  1.2034 -0.0843  0.3225
 1009MOL0     C36082   3.465   1.393   8.976  0.1124  0.3035 -0.3807
 1009MOL0     O36083   3.412   1.318   9.085  0.3848  0.2664  0.0642
 1009MOL0     C36084   3.295   1.371   9.137 -0.5478 -0.3167 -0.4805
 1009MOL0     C36085   3.310   1.444   9.256 -0.0891  0.1456 -0.1815
 1009MOL0     C36086   3.199   1.483   9.332 -0.5722 -0.5758  0.1381
 1009MOL0     C36087   3.066   1.460   9.278 -0.1319 -1.0161 -0.4487
 1009MOL0     O36088   2.958   1.505   9.358 -1.0105  0.1219 -0.8172
 1009MOL0     C36089   2.838   1.535   9.292  0.1969 -0.7019  0.7168
 1009MOL0     C36090   2.744   1.619   9.374  0.2372 -1.2417  0.0469
 1009MOL0     C36091   2.716   1.584   9.526 -0.3726 -0.4243  0.2831
 1009MOL0     C36092   2.699   1.429   9.534 -0.6673 -0.2827  0.1380
 1009MOL0     C36093   2.672   1.390   9.682  0.0960  0.7576  0.6561
 1009MOL0     C36094   2.529   1.413   9.723  0.2060  0.1639 -0.5264
 1009MOL0     C36095   2.412   1.335   9.653 -0.7100 -0.7043 -0.2315
 1009MOL0     C36096   2.285   1.364   9.727  1.1550 -0.3022 -0.2835
 1009MOL0     N36097   2.250   1.501   9.758 -0.9993 -0.0985  0.2951
 1009MOL0     C36098   2.186   1.585   9.679  1.3254 -0.0814 -0.3660
 1009MOL0     C36099   2.189   1.705   9.742  0.9836  0.3445  0.5578
 1009MOL0     C36100   2.141   1.840   9.698 -0.7431  0.5862 -1.3073
 1009MOL0     C36101   1.992   1.848   9.750  0.5462 -0.3017  0.6044
 1009MOL0     C36102   1.908   1.721   9.746 -0.0993  1.4746 -0.2634
 1009MOL0     C36103   1.770   1.732   9.819 -0.2721  0.0767 -0.3095
 1009MOL0     O36104   1.733   1.595   9.848 -0.4310  0.0356 -0.2008
 1009MOL0     C36105   1.632   1.566   9.935  0.0617  0.2558  0.3307
 1009MOL0     C36106   1.627   1.438   9.989 -0.7485  0.4148 -0.2429
 1009MOL0     C36107   1.546   1.402  10.101  0.0310  0.2373  0.4578
 1009MOL0     C36108   1.572   1.258  10.146  0.7664  0.7055  0.8530
 1009MOL0     C36109   1.454   1.487  10.151 -0.3716  0.8327  0.4008
 1009MOL0     C36110   1.376   1.462  10.269  0.0444  0.5422 -0.8659
 1009MOL0     O36111   1.378   1.334  10.328  0.5679  0.0076  0.5548
 1009MOL0     C36112   1.287   1.300  10.430 -1.0098 -0.2954  0.5002
 1009MOL0     C36113   1.175   1.358  10.484  0.2684  0.0598  0.1071
 1009MOL0     C36114   1.101   1.313  10.598  0.5536  0.0077  0.0035
 1009MOL0     C36115   1.150   1.203  10.666 -0.4270 -0.1305 -1.2115
 1009MOL0     O36116   1.099   1.181  10.790 -0.3950  0.2356  0.6122
 1009MOL0     C36117   1.093   1.045  10.832 -0.0613  0.6847  0.1807
 1009MOL0     C36118   0.972   1.057  10.917  1.4073 -0.0054 -0.5112
 1009MOL0     C36119   0.834   1.051  10.849 -0.8269 -0.6823  0.0214
 1009MOL0     C36120   0.720   1.054  10.947 -0.4582  0.0765  1.1462
 1009MOL0     C36121   0.580   1.074  10.886 -0.5929 -0.2941  0.1813
 1009MOL0     C36122   0.467   1.087  10.988  0.3395 -0.1056 -0.0062
 1009MOL0     C36123   0.453   0.954  11.077  0.8971 -0.6830  0.0418
 1009MOL0     C36124   0.316   0.919  11.119 -0.5649 -0.1730 -0.0625
 1009MOL0    Cl36125   0.240   1.053  11.210  0.5723 -0.2394 -0.0052
 1009MOL0     C36126   1.265   1.142  10.622  0.1263  0.0726  0.6759
 1009MOL0     C36127   1.325   1.181  10.496 -0.2491 -0.8218 -0.0510
 1009MOL0     O36128   1.325   1.559  10.324 -0.0113 -0.4443  0.0803
 1009MOL0     C36129   1.459   1.616  10.100 -0.3698  0.4982 -0.1546
 1009MOL0     C36130   1.542   1.654   9.988  0.2697  0.3174 -0.7747
 1009MOL0     N36131   2.252   1.682   9.866  0.5468  0.2467  0.6389
 1009MOL0     N36132   2.287   1.560   9.871  0.3614 -0.4927  0.4701
 1009MOL0     C36133   3.064   1.391   9.156  0.9341 -0.0048  0.4614
 1009MOL0     C36134   3.172   1.339   9.090  0.3200 -1.0667 -0.0142
 1009MOL0     C36135   3.586   1.344   8.914  0.3250 -1.3017  0.0867
 1009MOL0     C36136   3.674   1.433   8.847  0.3939 -0.8822 -0.1442
 1009MOL0     C36137   3.803   1.389   8.804  0.6173  0.0653 -0.4116
 1009MOL0     C36138   3.841   1.247   8.807 -0.3507  0.0669  0.6222
 1009MOL0     O36139   3.966   1.201   8.764 -0.4139 -0.0283 -0.2977
 1009MOL0     C36140   4.060   1.304   8.724  0.2698 -0.6378 -0.0634
 1009MOL0     C36141   4.181   1.247   8.657  0.0444 -0.7735  0.8248
 1009MOL0     C36142   4.299   1.348   8.655 -0.7856 -0.2697  0.3206
 1009MOL0     C36143   4.433   1.266   8.651  0.5352 -0.4447  0.5206
 1009MOL0     C36144   4.552   1.359   8.639  0.0067 -0.6474 -0.7146
 1009MOL0     C36145   4.646   1.425   8.622  0.2990 -0.5430  0.1141
 1009MOL0     C36146   3.751   1.169   8.878 -0.4883 -0.6881 -0.0881
 1009MOL0     C36147   3.626   1.214   8.927 -0.3418  0.3182 -0.2571
 1009MOL0     H36148   3.416   1.441   9.283 -0.1903 -1.3708  0.1409
 1009MOL0     H36149   3.207   1.531   9.429 -2.5513  1.7912 -0.7799
 1009MOL0     H36150   2.865   1.587   9.200  0.2746 -1.8024  0.1116
 1009MOL0     H36151   2.786   1.441   9.275 -0.2510 -0.0965 -1.5591
 1009MOL0     H36152   2.778   1.723   9.364  3.0412 -1.9620  1.2573
 1009MOL0     H36153   2.644   1.621   9.330  0.8781  1.2004 -1.5160
 1009MOL0     H36154   2.803   1.607   9.587  0.3370 -1.8187 -0.1645
 1009MOL0     H36155   2.643   1.650   9.574  1.9491  0.5602  2.7073
 1009MOL0     H36156   2.609   1.396   9.481 -2.7510  2.8012  1.4096
 1009MOL0     H36157   2.785   1.376   9.493 -2.0359 -0.8268 -2.2471
 1009MOL0     H36158   2.691   1.283   9.695 -0.3178  0.5783 -0.1701
 1009MOL0     H36159   2.739   1.445   9.749  1.0766 -2.3989  2.4691
 1009MOL0     H36160   2.527   1.387   9.829  0.0648 -1.2801 -0.8582
 1009MOL0     H36161   2.507   1.519   9.714 -3.6544 -0.4423  0.1360
 1009MOL0     H36162   2.396   1.364   9.549 -0.2790 -2.8320 -0.9272
 1009MOL0     H36163   2.432   1.228   9.653  0.2590 -0.5326 -0.2963
 1009MOL0     H36164   2.273   1.300   9.815  1.0031  0.0223 -0.0670
 1009MOL0     H36165   2.203   1.317   9.672  0.9840 -1.3092  0.7784
 1009MOL0     H36166   2.136   1.560   9.586 -3.5726  3.3864  0.9684
 1009MOL0     H36167   2.201   1.918   9.745 -0.6376  1.0434 -2.1871
 1009MOL0     H36168   2.148   1.847   9.589  0.0917 -0.8237 -1.3688
 1009MOL0     H36169   1.939   1.917   9.684  0.3553 -0.6241  0.4250
 1009MOL0     H36170   1.975   1.896   9.847 -0.3856 -0.9744  0.7827
 1009MOL0     H36171   1.959   1.640   9.799  0.6811  0.8977 -1.8232
 1009MOL0     H36172   1.897   1.701   9.639  0.8666 -0.0939 -0.1020
 1009MOL0     H36173   1.696   1.790   9.763 -1.8895 -1.5921 -0.0103
 1009MOL0     H36174   1.782   1.786   9.914 -0.0063  0.6629 -0.6699
 1009MOL0     H36175   1.702   1.371   9.948  0.7530  1.1309  1.2276
 1009MOL0     H36176   1.661   1.226  10.091  0.7217  2.0004 -0.0250
 1009MOL0     H36177   1.594   1.245  10.252  3.4232 -0.9633  0.2005
 1009MOL0     H36178   1.494   1.187  10.114  2.5078 -0.7399 -0.4304
 1009MOL0     H36179   1.145   1.453  10.444  0.1200  0.4115  1.0321
 1009MOL0     H36180   1.026   1.387  10.625 -0.4422 -0.4468 -1.3534
 1009MOL0     H36181   1.074   0.962  10.763  0.2237 -0.9019  1.9229
 1009MOL0     H36182   1.184   1.021  10.888 -0.6000 -0.0699  0.7477
 1009MOL0     H36183   0.966   0.966  10.978  1.3985  0.1160 -0.3297
 1009MOL0     H36184   0.983   1.150  10.973  4.1469  2.1761 -4.2113
 1009MOL0     H36185   0.823   0.958  10.793 -0.3879 -1.5198  1.2745
 1009MOL0     H36186   0.842   1.144  10.791  0.7839  0.2312  1.5933
 1009MOL0     H36187   0.724   0.961  11.005  0.3290 -0.9168 -0.4353
 1009MOL0     H36188   0.729   1.132  11.023 -1.0664  1.0387  0.2618
 1009MOL0     H36189   0.560   0.997  10.811  2.1191  1.8680 -3.0565
 1009MOL0     H36190   0.591   1.170  10.834  0.3142 -0.3377  0.2787
 1009MOL0     H36191   0.461   1.176  11.051 -0.2686 -1.2284  1.6080
 1009MOL0     H36192   0.378   1.092  10.924  1.1378 -4.8345 -1.9007
 1009MOL0     H36193   0.515   0.978  11.164  1.1355  1.6210 -0.7024
 1009MOL0     H36194   0.483   0.863  11.024 -2.1484 -1.2484 -0.9138
 1009MOL0     H36195   0.320   0.828  11.179 -1.0825  1.4459  2.5837
 1009MOL0     H36196   0.265   0.894  11.025  1.3331  1.1178 -1.4895
 1009MOL0     H36197   1.297   1.050  10.670 -0.4056  0.2502  1.3708
 1009MOL0     H36198   1.398   1.116  10.450 -0.7575 -0.3355 -1.5865
 1009MOL0     H36199   1.387   1.690  10.134  0.8743  0.7642  2.1301
 1009MOL0     H36200   1.535   1.758   9.957  1.0002  0.6159  0.0132
 1009MOL0     H36201   2.970   1.371   9.106  0.4956  1.1242  0.7912
 1009MOL0     H36202   3.150   1.282   9.000 -0.0729  0.7845 -1.1293
 1009MOL0     H36203   3.656   1.540   8.843  3.3821 -0.3253 -0.3208
 1009MOL0     H36204   3.870   1.462   8.759  2.6499 -4.1920 -5.2991
 1009MOL0     H36205   4.023   1.378   8.652 -0.6950 -1.1233 -0.0888
 1009MOL0     H36206   4.077   1.374   8.807 -0.5264  0.1650 -0.5488
 1009MOL0     H36207   4.150   1.224   8.555 -0.5161  2.6229  0.0898
 1009MOL0     H36208   4.210   1.151   8.700  0.1912 -1.2516 -0.2929
 1009MOL0     H36209   4.295   1.415   8.742 -1.2528  1.5391 -1.0527
 1009MOL0     H36210   4.290   1.399   8.559  0.6105 -0.8912 -0.1715
 1009MOL0     H36211   4.430   1.206   8.560 -1.6544  2.4590 -1.5290
 1009MOL0     H36212   4.449   1.208   8.742 -2.4343  2.8310  3.4656
 1009MOL0     H36213   4.729   1.484   8.590  0.8538 -2.1674 -1.6871
 1009MOL0     H36214   3.785   1.068   8.895  2.5720 -0.4344 -3.5296
 1009MOL0     H36215   3.572   1.146   8.993 -1.7724  1.8560  0.2421
 1010MOL0     O36216   8.497   9.909   8.475  0.0143  0.0490  0.0130
 1010MOL0     C36217   8.428   9.973   8.556 -0.4484 -0.3501  0.7331
 1010MOL0     O36218   8.444  10.098   8.587  0.1087 -0.2458 -0.3901
 1010MOL0     C36219   8.565  10.154   8.583  0.5078  0.0610  0.6253
 1010MOL0     C36220   8.675  10.100   8.658  0.4560  0.7250  0.2350
 1010MOL0     C36221   8.798  10.173   8.661  0.1074  0.5479  0.5552
 1010MOL0     C36222   8.814  10.282   8.572 -0.5747 -0.4870 -0.2826
 1010MOL0     O36223   8.934  10.353   8.559  0.2849  0.4561  0.1430
 1010MOL0     C36224   8.940  10.473   8.643  0.1287  0.1159 -0.0226
 1010MOL0     C36225   9.049  10.552   8.587 -0.9000  0.2757 -0.7080
 1010MOL0     C36226   9.070  10.684   8.665 -0.9466  0.2801  0.0922
 1010MOL0     C36227   9.195  10.761   8.630  0.1810  0.2444  0.1372
 1010MOL0     C36228   9.204  10.905   8.686  0.6736 -0.6298  0.4807
 1010MOL0     C36229   9.331  10.978   8.647 -1.1331  0.2230 -0.9120
 1010MOL0     C36230   9.328  11.113   8.699 -0.1034 -0.2672 -0.1128
 1010MOL0     C36231   9.420  11.208   8.633 -0.8563  0.1019 -0.0180
 1010MOL0     N36232   9.560  11.157   8.613  0.1117 -0.3550 -0.1203
 1010MOL0     C36233   9.621  11.125   8.495  0.3340  0.5774  0.6816
 1010MOL0     C36234   9.754  11.133   8.510 -0.1321 -0.2761 -0.2544
 1010MOL0     C36235   9.864  11.101   8.404 -0.0716 -0.1955 -0.4157
 1010MOL0     C36236   9.858  11.216   8.296 -0.3394 -1.5073 -0.8398
 1010MOL0     C36237   9.944  11.337   8.346  0.7131  0.4481  0.2674
 1010MOL0     C36238   9.952  11.456   8.248 -0.4831 -0.8193 -0.2649
 1010MOL0     O36239   9.821  11.491   8.189 -0.9118 -0.1300 -0.7335
 1010MOL0     C36240   9.714  11.534   8.272  0.1019 -0.2441 -0.8205
 1010MOL0     C36241   9.588  11.515   8.212 -0.8550 -0.0290 -0.2463
 1010MOL0     C36242   9.466  11.549   8.272  0.4005  0.0562 -0.5225
 1010MOL0     C36243   9.340  11.541   8.196  0.5983 -0.5737  0.9314
 1010MOL0     C36244   9.469  11.584   8.411  0.0280  1.4383  0.3263
 1010MOL0     C36245   9.345  11.592   8.484 -0.4398  1.0647  0.6949
 1010MOL0     O36246   9.260  11.481   8.504  0.3777  0.3768  0.6731
 1010MOL0     C36247   9.139  11.512   8.572 -0.7382 -0.6058 -0.5022
 1010MOL0     C36248   9.028  11.551   8.491  0.4911 -0.2156 -0.1240
 1010MOL0     C36249   8.898  11.553   8.551 -0.0006  0.4761  0.6897
 1010MOL0     C36250   8.884  11.533   8.691 -1.1241  0.1502  0.0177
 1010MOL0     O36251   8.772  11.545   8.763 -0.0146 -0.1076 -0.2724
 1010MOL0     C36252   8.645  11.543   8.693 -0.3266 -0.6007 -0.4998
 1010MOL0     C36253   8.531  11.568   8.792 -0.0300  0.2297 -0.5212
 1010MOL0     C36254   8.509  11.446   8.873  0.6500 -0.7129  0.9383
 1010MOL0     C36255   8.387  11.473   8.963  0.0730 -0.3157  0.0369
 1010MOL0     C36256   8.289  11.355   8.971  0.8211  0.8746  0.6661
 1010MOL0     C36257   8.204  11.344   9.095 -0.9237 -0.6672 -0.4111
 1010MOL0     C36258   8.078  11.255   9.066  0.6621 -0.8855 -0.4520
 1010MOL0     C36259   7.971  11.321   8.979  0.1855  0.3782  0.4321
 1010MOL0    Cl36260   7.933  11.487   9.032  0.1253 -0.4032 -0.0458
 1010MOL0     C36261   9.006  11.498   8.771  1.1395  1.0649  0.5355
 1010MOL0     C36262   9.124  11.476   8.705 -0.3908 -1.0120 -0.3094
 1010MOL0     O36263   9.336  11.703   8.540  0.5065  0.0759 -0.2803
 1010MOL0     C36264   9.594  11.609   8.472  0.4269  0.2211  0.2073
 1010MOL0     C36265   9.715  11.587   8.404  0.2459 -0.3731  0.6414
 1010MOL0     N36266   9.776  11.185   8.641  0.2819  0.4276 -0.9556
 1010MOL0     N36267   9.660  11.184   8.700  0.2767 -0.0860 -0.7118
 1010MOL0     C36268   8.701  10.335   8.511  0.2396 -0.3013 -0.5404
 1010MOL0     C36269   8.578  10.273   8.515  0.0093  0.8055  0.0270
 1010MOL0     C36270   8.295   9.916   8.583  0.6601 -0.2250 -0.0899
 1010MOL0     C36271   8.190  10.007   8.597 -0.5206 -0.6292 -0.7523
 1010MOL0     C36272   8.064   9.963   8.623  0.1197  0.1097  0.4702
 1010MOL0     C36273   8.035   9.825   8.630  0.7617 -0.8421  0.9240
 1010MOL0     O36274   7.904   9.801   8.650  0.4268 -0.0286  0.4067
 1010MOL0     C36275   7.879   9.707   8.746 -0.0543  0.0984 -0.0929
 1010MOL0     C36276   7.732   9.674   8.746 -0.2358 -0.4834 -0.1105
 1010MOL0     C36277   7.645   9.796   8.776  0.5559 -0.6470  0.0611
 1010MOL0     C36278   7.494   9.761   8.782 -0.7810 -0.7131  0.6155
 1010MOL0     C36279   7.414   9.858   8.855  0.0898 -0.5570  0.2180
 1010MOL0     C36280   7.341   9.936   8.915 -0.0073  0.8634 -0.2612
 1010MOL0     C36281   8.139   9.728   8.611  0.0770 -0.6397 -0.1296
 1010MOL0     C36282   8.270   9.779   8.596  1.2699  0.7541 -0.9952
 1010MOL0     H36283   8.664  10.004   8.708 -1.7363 -0.2792 -1.9584
 1010MOL0     H36284   8.884  10.135   8.716  0.3617  3.3861  2.3168
 1010MOL0     H36285   8.843  10.524   8.653  0.9002  1.4284  1.3459
 1010MOL0     H36286   8.969  10.443   8.744 -0.8005  0.1197  0.2556
 1010MOL0     H36287   9.143  10.496   8.599 -1.1851  0.1433  1.1799
 1010MOL0     H36288   9.032  10.573   8.481 -2.0592 -1.0072 -0.7996
 1010MOL0     H36289   8.981  10.745   8.651 -2.5465 -2.3959 -2.5616
 1010MOL0     H36290   9.091  10.656   8.769  2.1605 -4.0539 -1.3879
 1010MOL0     H36291   9.274  10.712   8.686 -0.7015  0.3942  1.5521
 1010MOL0     H36292   9.210  10.753   8.522  1.9234 -1.8578  0.4631
 1010MOL0     H36293   9.124  10.969   8.649  1.8452  1.9538  2.0771
 1010MOL0     H36294   9.196  10.909   8.795  0.9484 -0.4357  0.4943
 1010MOL0     H36295   9.417  10.929   8.695 -0.4869  0.8224 -1.4290
 1010MOL0     H36296   9.347  10.972   8.539  3.1567 -0.6452 -0.4208
 1010MOL0     H36297   9.227  11.155   8.697  0.0074 -0.0136 -1.7556
 1010MOL0     H36298   9.357  11.101   8.803  1.1693  0.2141 -0.3937
 1010MOL0     H36299   9.418  11.293   8.702  1.3047  0.0622  0.1713
 1010MOL0     H36300   9.376  11.252   8.544 -1.1121  1.6728  0.8490
 1010MOL0     H36301   9.580  11.091   8.400 -0.1908 -1.2245  1.5196
 1010MOL0     H36302   9.951  11.107   8.470 -1.5761 -1.4993  1.8348
 1010MOL0     H36303   9.841  11.000   8.371  1.4005 -0.0758 -1.9485
 1010MOL0     H36304   9.754  11.247   8.278  0.3521 -0.0669 -2.6707
 1010MOL0     H36305   9.895  11.189   8.197 -0.3056  2.2085 -1.9935
 1010MOL0     H36306  10.044  11.304   8.376  1.6740  1.0093 -2.1410
 1010MOL0     H36307   9.890  11.367   8.436 -0.7140  0.4277 -0.5514
 1010MOL0     H36308  10.015  11.428   8.163  0.6424 -2.1857  0.9702
 1010MOL0     H36309  10.003  11.542   8.294 -1.2608 -0.1218 -0.6716
 1010MOL0     H36310   9.603  11.484   8.109 -0.5505  0.1376 -0.2524
 1010MOL0     H36311   9.276  11.628   8.208 -0.7501 -1.4111  0.1396
 1010MOL0     H36312   9.356  11.525   8.089 -1.4549 -0.5600  0.5791
 1010MOL0     H36313   9.278  11.455   8.225 -1.7009 -0.6033 -3.2700
 1010MOL0     H36314   9.041  11.558   8.384  0.8458  0.3396 -0.0534
 1010MOL0     H36315   8.818  11.589   8.488  1.3734  0.5347 -1.1022
 1010MOL0     H36316   8.645  11.623   8.619  1.1456 -0.4349 -0.3555
 1010MOL0     H36317   8.619  11.446   8.648 -2.8627 -0.3543  0.2527
 1010MOL0     H36318   8.542  11.659   8.852  0.3273  1.6276 -2.5983
 1010MOL0     H36319   8.439  11.589   8.736  0.0872  1.6290 -0.2406
 1010MOL0     H36320   8.597  11.408   8.927  0.1332 -0.5905  1.8930
 1010MOL0     H36321   8.474  11.376   8.797 -2.7686  0.7533  1.0001
 1010MOL0     H36322   8.419  11.491   9.066  0.4354  1.8641 -0.4229
 1010MOL0     H36323   8.331  11.564   8.941 -1.3820 -1.2613 -0.3426
 1010MOL0     H36324   8.345  11.261   8.957 -2.5600 -1.0496 -1.3011
 1010MOL0     H36325   8.217  11.363   8.889 -1.0756 -2.2997  1.8268
 1010MOL0     H36326   8.268  11.301   9.173 -1.3445  0.4974  0.6117
 1010MOL0     H36327   8.163  11.437   9.136  2.6648  0.6371  0.5933
 1010MOL0     H36328   8.050  11.218   9.165  0.2392 -2.1659 -1.0226
 1010MOL0     H36329   8.113  11.166   9.014  1.9066  0.2266 -1.5948
 1010MOL0     H36330   7.878  11.264   8.975 -0.3477  1.1464  1.4483
 1010MOL0     H36331   8.019  11.328   8.881 -1.7911 -0.7560 -0.6657
 1010MOL0     H36332   8.992  11.458   8.871  2.0793 -0.5805  0.0585
 1010MOL0     H36333   9.216  11.452   8.758 -0.2052  2.1613  1.0394
 1010MOL0     H36334   9.583  11.630   8.578 -1.6332  0.3333  0.0083
 1010MOL0     H36335   9.806  11.582   8.463 -0.1435  0.4190  1.3399
 1010MOL0     H36336   8.713  10.423   8.448  0.1517 -1.1565 -1.7858
 1010MOL0     H36337   8.487  10.318   8.476 -0.3997  2.6959  2.8541
 1010MOL0     H36338   8.199  10.114   8.610  0.1147 -0.7951  0.3177
 1010MOL0     H36339   7.991  10.042   8.638  0.6664  0.7004  0.1245
 1010MOL0     H36340   7.941   9.616   8.741 -0.2281 -0.1433  1.7092
 1010MOL0     H36341   7.914   9.751   8.839 -1.2603 -0.0147  0.4339
 1010MOL0     H36342   7.714   9.612   8.834  3.1328  0.3646  1.3478
 1010MOL0     H36343   7.697   9.635   8.650  0.7828 -0.1848 -0.6246
 1010MOL0     H36344   7.664   9.867   8.695 -0.5026  0.2569  0.5856
 1010MOL0     H36345   7.682   9.846   8.867  3.3875  3.1199 -2.8102
 1010MOL0     H36346   7.488   9.670   8.842  0.7642 -0.8121  0.6492
 1010MOL0     H36347   7.443   9.747   8.687 -0.1350 -0.2203  0.1840
 1010MOL0     H36348   7.266   9.993   8.966 -1.9295  0.9575 -2.9556
 1010MOL0     H36349   8.116   9.622   8.619 -3.9589 -0.1755 -2.6425
 1010MOL0     H36350   8.354   9.712   8.586  2.2519  1.0576  3.1777
 1011MOL0     O36351   8.931   9.106   9.727  0.4666 -0.5580  0.2586
 1011MOL0     C36352   8.909   8.993   9.692  0.1054 -0.4289  0.5079
 1011MOL0     O36353   8.825   8.909   9.747 -0.9070  0.0259  0.0364
 1011MOL0     C36354   8.779   8.930   9.871 -0.0663  0.0391 -0.4437
 1011MOL0     C36355   8.670   9.021   9.898  0.1156 -0.0047  1.0583
 1011MOL0     C36356   8.636   9.038  10.030  0.0707 -0.2288 -0.6144
 1011MOL0     C36357   8.693   8.953  10.135  0.1115 -0.5388 -0.5913
 1011MOL0     O36358   8.633   8.957  10.258 -0.1310 -0.1055  0.3226
 1011MOL0     C36359   8.500   9.001  10.264 -0.5162 -0.7060 -0.2665
 1011MOL0     C36360   8.446   8.961  10.409 -1.0887  0.4835 -0.1745
 1011MOL0     C36361   8.454   8.806  10.432 -1.0174 -0.1417 -0.7576
 1011MOL0     C36362   8.331   8.736  10.380  0.2619  0.4747 -0.5844
 1011MOL0     C36363   8.335   8.590  10.422  1.0434 -0.1131 -0.0763
 1011MOL0     C36364   8.216   8.504  10.369  0.2536 -0.4876  0.3727
 1011MOL0     C36365   8.202   8.359  10.421 -0.4999  0.0199  0.1758
 1011MOL0     C36366   8.259   8.343  10.561  0.1945 -0.2122 -0.6140
 1011MOL0     N36367   8.170   8.402  10.671 -0.0277 -0.1072 -0.3221
 1011MOL0     C36368   8.040   8.350  10.699 -0.9383 -1.2226  0.5717
 1011MOL0     C36369   8.021   8.372  10.832  0.0264 -0.4213 -0.0772
 1011MOL0     C36370   7.919   8.322  10.926  0.1618 -1.1246 -0.0658
 1011MOL0     C36371   7.783   8.351  10.868  0.2813  0.5988 -0.0387
 1011MOL0     C36372   7.754   8.503  10.853  0.1439  0.9595  0.0888
 1011MOL0     C36373   7.623   8.520  10.776  0.8448  0.1714  0.1059
 1011MOL0     O36374   7.525   8.475  10.875 -0.2253  0.1980 -0.1665
 1011MOL0     C36375   7.407   8.455  10.812 -0.0941 -0.0447 -0.7610
 1011MOL0     C36376   7.318   8.557  10.794 -0.0670 -0.9052  1.3741
 1011MOL0     C36377   7.196   8.540  10.725 -0.0052 -0.2049  0.1734
 1011MOL0     C36378   7.103   8.665  10.715  0.1496  0.4103 -0.2564
 1011MOL0     C36379   7.170   8.418  10.668 -0.1273  0.2145  0.5346
 1011MOL0     C36380   7.047   8.383  10.595 -0.5958 -0.0201 -0.0661
 1011MOL0     O36381   7.022   8.252  10.587  0.7914  0.6789  0.6655
 1011MOL0     C36382   6.903   8.200  10.537  0.2399  0.4482 -0.1001
 1011MOL0     C36383   6.915   8.079  10.467  0.0563  0.2965 -0.6343
 1011MOL0     C36384   6.810   8.014  10.403  0.1972 -0.9152  0.1037
 1011MOL0     C36385   6.683   8.083  10.415  0.3265  0.2946 -0.7915
 1011MOL0     O36386   6.588   8.013  10.346  0.0690 -0.0094  0.5468
 1011MOL0     C36387   6.451   8.020  10.408  0.3182 -0.1889  0.0900
 1011MOL0     C36388   6.356   7.912  10.359  0.5473  0.2448 -0.4859
 1011MOL0     C36389   6.311   7.949  10.218 -0.2333  0.1992  0.0489
 1011MOL0     C36390   6.245   7.824  10.150 -0.5046 -0.0871 -1.6254
 1011MOL0     C36391   6.358   7.718  10.115  0.3822 -0.1987  0.2924
 1011MOL0     C36392   6.311   7.608  10.015 -0.2774 -0.6158 -0.0589
 1011MOL0     C36393   6.230   7.513  10.112  0.6924  0.5125  0.7033
 1011MOL0     C36394   6.150   7.405  10.041  0.6590 -0.5985 -0.9885
 1011MOL0    Cl36395   6.250   7.267   9.985  0.0764 -0.1143 -0.4023
 1011MOL0     C36396   6.661   8.197  10.486  0.1381  0.3469 -0.3628
 1011MOL0     C36397   6.773   8.258  10.547 -0.6539  0.4970  0.2785
 1011MOL0     O36398   6.978   8.470  10.548  0.0478 -0.0363 -0.7521
 1011MOL0     C36399   7.265   8.317  10.680 -0.8173  0.0393  0.5462
 1011MOL0     C36400   7.380   8.332  10.754 -0.4020  0.7293  0.5134
 1011MOL0     N36401   8.124   8.443  10.882 -0.5375 -0.1816 -0.0263
 1011MOL0     N36402   8.217   8.445  10.789 -0.7088  0.0807 -0.0192
 1011MOL0     C36403   8.802   8.866  10.108  0.6143 -0.4612  0.6240
 1011MOL0     C36404   8.847   8.855   9.973 -0.1638  0.3720  0.5258
 1011MOL0     C36405   8.991   8.951   9.572  0.2004  1.4546  0.1246
 1011MOL0     C36406   9.048   9.046   9.480  0.4055  0.6389 -0.0806
 1011MOL0     C36407   9.126   8.999   9.381 -0.5056  0.7176 -0.0981
 1011MOL0     C36408   9.152   8.861   9.348 -0.2522  0.2219  0.1833
 1011MOL0     O36409   9.223   8.798   9.247  0.8671  0.2165  0.1102
 1011MOL0     C36410   9.282   8.874   9.144  0.7298 -0.5474  0.2771
 1011MOL0     C36411   9.408   8.940   9.199 -0.4240  0.2537  0.0303
 1011MOL0     C36412   9.474   9.032   9.093 -0.3514 -1.0091 -0.5453
 1011MOL0     C36413   9.620   9.085   9.128  0.2632  0.3420  1.2141
 1011MOL0     C36414   9.694   9.119   9.003 -0.6426  0.0691  0.1393
 1011MOL0     C36415   9.761   9.134   8.905 -0.9698 -0.4255 -0.4787
 1011MOL0     C36416   9.092   8.776   9.441 -0.3386 -0.7967 -0.2721
 1011MOL0     C36417   9.013   8.816   9.548  0.5117 -0.2643  0.0488
 1011MOL0     H36418   8.603   9.060   9.822  1.7936  0.6823 -0.1075
 1011MOL0     H36419   8.551   9.101  10.053 -0.6517 -0.6091 -2.1019
 1011MOL0     H36420   8.486   9.109  10.255  0.2979 -0.6070 -0.4192
 1011MOL0     H36421   8.440   8.962  10.181 -0.8123 -0.3710 -0.2114
 1011MOL0     H36422   8.497   9.014  10.489 -3.0287  2.6568 -0.2723
 1011MOL0     H36423   8.340   8.988  10.418 -0.6457  2.0260  0.5834
 1011MOL0     H36424   8.550   8.770  10.396  0.2089  1.9830  0.1786
 1011MOL0     H36425   8.460   8.786  10.540 -0.6302  0.3615 -0.6821
 1011MOL0     H36426   8.238   8.785  10.410  0.8477  0.6781  0.9895
 1011MOL0     H36427   8.340   8.746  10.272  0.5830  0.3790 -0.5703
 1011MOL0     H36428   8.420   8.529  10.391 -1.0676 -3.4570  0.0741
 1011MOL0     H36429   8.330   8.589  10.531 -0.7837  0.1779 -0.1137
 1011MOL0     H36430   8.118   8.553  10.375 -0.1918 -1.3961  0.7807
 1011MOL0     H36431   8.238   8.514  10.262 -1.9228  4.3518  0.1157
 1011MOL0     H36432   8.099   8.323  10.409 -0.8138  0.3530  1.6500
 1011MOL0     H36433   8.260   8.295  10.354 -1.4131  2.5492 -3.2880
 1011MOL0     H36434   8.361   8.382  10.566  0.4434  0.0804 -4.9294
 1011MOL0     H36435   8.254   8.235  10.577 -3.8742 -0.2901 -1.3086
 1011MOL0     H36436   7.991   8.288  10.625 -0.9353  1.1040 -1.5277
 1011MOL0     H36437   7.928   8.215  10.945  0.0033 -1.0311  0.5620
 1011MOL0     H36438   7.939   8.362  11.026 -0.8257 -2.7797  0.8601
 1011MOL0     H36439   7.703   8.303  10.926  0.0425 -1.1072 -1.7049
 1011MOL0     H36440   7.779   8.300  10.772 -1.6074  0.9948 -0.2074
 1011MOL0     H36441   7.835   8.543  10.790  2.5745 -4.3905 -0.7513
 1011MOL0     H36442   7.755   8.553  10.950  1.8225 -1.1230  1.2347
 1011MOL0     H36443   7.610   8.462  10.684  1.8425 -0.5067  0.3692
 1011MOL0     H36444   7.608   8.625  10.749 -1.0618 -0.2040 -0.4345
 1011MOL0     H36445   7.342   8.657  10.828 -2.9738  0.7449 -0.9215
 1011MOL0     H36446   7.130   8.742  10.789 -1.5604  1.8993 -1.0861
 1011MOL0     H36447   7.113   8.711  10.616 -3.3116  1.2183 -0.3722
 1011MOL0     H36448   6.996   8.650  10.731  0.4439  0.1686  1.7823
 1011MOL0     H36449   7.012   8.034  10.449  0.6867  1.2762  0.1712
 1011MOL0     H36450   6.835   7.916  10.364  1.9238 -0.5060  0.1455
 1011MOL0     H36451   6.460   8.016  10.517 -2.0310 -0.3894  0.3273
 1011MOL0     H36452   6.404   8.116  10.383 -0.6665 -0.2629  1.5629
 1011MOL0     H36453   6.404   7.815  10.372  0.4139  0.3840  1.1955
 1011MOL0     H36454   6.272   7.918  10.429 -0.0395 -1.0815 -1.0333
 1011MOL0     H36455   6.402   7.971  10.162 -0.1487  0.4868  0.3003
 1011MOL0     H36456   6.244   8.035  10.218  0.5643  0.8737 -2.1203
 1011MOL0     H36457   6.170   7.780  10.216  1.7859  0.0236  1.2669
 1011MOL0     H36458   6.192   7.852  10.058 -3.0265 -0.8309 -0.5001
 1011MOL0     H36459   6.415   7.675  10.198  1.1744 -0.6240 -0.4559
 1011MOL0     H36460   6.429   7.777  10.056  1.8385  2.3700  4.2329
 1011MOL0     H36461   6.256   7.664   9.938  1.5672  2.1059  0.4319
 1011MOL0     H36462   6.402   7.562   9.975  0.8721  2.1783 -0.9041
 1011MOL0     H36463   6.160   7.572  10.172 -1.5510 -1.1713 -0.1121
 1011MOL0     H36464   6.296   7.457  10.180 -1.1960 -1.2236  1.2023
 1011MOL0     H36465   6.091   7.447   9.960 -0.6633  3.2577  1.6887
 1011MOL0     H36466   6.072   7.363  10.104 -0.9367 -1.0615 -3.1638
 1011MOL0     H36467   6.563   8.244  10.489 -1.2473 -2.3925  1.0259
 1011MOL0     H36468   6.764   8.359  10.585 -3.1717  0.1438  0.7998
 1011MOL0     H36469   7.261   8.220  10.631 -1.0945  0.7649 -0.9484
 1011MOL0     H36470   7.459   8.257  10.763 -0.1508  0.8572 -0.5198
 1011MOL0     H36471   8.831   8.793  10.183 -0.8313 -0.1252  1.5639
 1011MOL0     H36472   8.923   8.790   9.931 -1.0201  0.1643 -0.7626
 1011MOL0     H36473   9.041   9.150   9.508  3.1415  0.8687  0.0795
 1011MOL0     H36474   9.170   9.067   9.308 -0.5485  0.1456 -0.6640
 1011MOL0     H36475   9.311   8.809   9.061 -1.8412 -1.3200 -0.1102
 1011MOL0     H36476   9.217   8.956   9.112 -1.3799 -1.7343  1.2419
 1011MOL0     H36477   9.486   8.869   9.228 -0.5656 -0.6484 -1.6673
 1011MOL0     H36478   9.388   8.983   9.297 -3.0126 -1.9372  0.6022
 1011MOL0     H36479   9.410   9.119   9.075 -0.4072 -1.1544 -1.0628
 1011MOL0     H36480   9.466   8.983   8.996 -0.5937 -0.9978 -0.5303
 1011MOL0     H36481   9.677   9.012   9.186 -0.6981  1.1888  3.3352
 1011MOL0     H36482   9.594   9.168   9.195  1.7998  1.2082  0.7874
 1011MOL0     H36483   9.809   9.142   8.809  0.3102 -1.1396  0.0652
 1011MOL0     H36484   9.119   8.674   9.414  0.3588 -0.8066  0.4285
 1011MOL0     H36485   8.985   8.741   9.621  0.2345 -0.4069 -0.2036
 1012MOL0     O36486   5.750  10.312   1.182  0.0549  0.4288  0.5784
 1012MOL0     C36487   5.847  10.309   1.105 -0.8458 -0.3529  0.1080
 1012MOL0     O36488   5.941  10.408   1.078 -0.2080 -0.1433 -0.7223
 1012MOL0     C36489   5.891  10.530   1.117  0.9263 -0.1433  0.3981
 1012MOL0     C36490   5.902  10.588   1.246 -0.0845  0.2977 -0.8450
 1012MOL0     C36491   5.865  10.723   1.267  0.0076  0.1755  0.2463
 1012MOL0     C36492   5.810  10.795   1.159  1.2224 -0.2202  0.6569
 1012MOL0     O36493   5.764  10.924   1.166  0.1794  0.2926 -0.4893
 1012MOL0     C36494   5.853  11.020   1.227 -0.5669  0.5628  0.5384
 1012MOL0     C36495   5.836  11.167   1.186  0.6025  0.0356 -0.6483
 1012MOL0     C36496   5.685  11.205   1.219 -0.1454  0.6821 -0.5680
 1012MOL0     C36497   5.654  11.329   1.127  0.3626  0.3488 -0.9750
 1012MOL0     C36498   5.512  11.382   1.152 -0.5209 -0.0859 -0.4010
 1012MOL0     C36499   5.478  11.516   1.088 -0.3840  0.0478  0.5377
 1012MOL0     C36500   5.588  11.619   1.088  0.1560  0.1643 -0.9398
 1012MOL0     C36501   5.642  11.673   1.228 -0.6844  0.1101 -0.1705
 1012MOL0     N36502   5.778  11.726   1.202  0.0632  0.4853 -0.5854
 1012MOL0     C36503   5.825  11.860   1.204 -0.8561 -0.7834  0.2512
 1012MOL0     C36504   5.966  11.842   1.199  0.6706  0.2513 -0.2085
 1012MOL0     C36505   6.050  11.963   1.195  0.0892 -0.6671 -0.2278
 1012MOL0     C36506   6.003  12.077   1.097  0.2782  0.4020  1.0404
 1012MOL0     C36507   6.083  12.210   1.105  0.4000 -0.2483  0.4629
 1012MOL0     C36508   6.101  12.264   1.244 -0.5356 -0.4792 -0.1595
 1012MOL0     O36509   6.144  12.404   1.238  0.2394  0.1097 -0.3978
 1012MOL0     C36510   6.129  12.456   1.363  0.0611 -0.3991  0.0437
 1012MOL0     C36511   6.015  12.509   1.409  0.0326  0.2728  0.0401
 1012MOL0     C36512   6.006  12.568   1.534  0.1618 -0.1848 -0.9027
 1012MOL0     C36513   5.866  12.621   1.567  0.5789 -0.3779 -0.3493
 1012MOL0     C36514   6.123  12.582   1.618 -0.1510  0.1731 -0.0586
 1012MOL0     C36515   6.126  12.661   1.742  1.0909 -1.0619  0.3100
 1012MOL0     O36516   6.043  12.768   1.770  0.8257  0.0297  0.5495
 1012MOL0     C36517   6.063  12.833   1.887 -0.1282  0.4365 -1.7923
 1012MOL0     C36518   6.182  12.909   1.911 -0.4588  0.3377  0.4258
 1012MOL0     C36519   6.206  12.960   2.033 -0.0747 -0.4360  0.2920
 1012MOL0     C36520   6.119  12.940   2.137 -0.0606  0.2942 -0.0815
 1012MOL0     O36521   6.133  13.000   2.258 -0.8868 -0.4963  0.2569
 1012MOL0     C36522   6.111  13.140   2.277 -0.4259  0.1260  0.2096
 1012MOL0     C36523   6.246  13.208   2.280  0.6056 -1.0800 -0.6725
 1012MOL0     C36524   6.337  13.151   2.383 -0.2265 -0.1443 -0.2871
 1012MOL0     C36525   6.432  13.255   2.426 -1.5338 -0.0761 -0.1627
 1012MOL0     C36526   6.530  13.214   2.535  0.0495 -0.4758 -0.9690
 1012MOL0     C36527   6.636  13.322   2.553  0.1431  0.3913 -1.1039
 1012MOL0     C36528   6.719  13.301   2.677 -0.2098  0.1188 -0.3353
 1012MOL0     C36529   6.828  13.404   2.692  0.0077  0.4766  0.2438
 1012MOL0    Cl36530   6.943  13.414   2.548 -0.3469  0.1265 -0.3339
 1012MOL0     C36531   6.001  12.872   2.122  0.4954 -0.8796 -0.1521
 1012MOL0     C36532   5.977  12.810   1.997 -0.8190  0.8362  0.0166
 1012MOL0     O36533   6.215  12.625   1.808  0.1736 -0.1105 -0.1358
 1012MOL0     C36534   6.248  12.522   1.568  0.8226  0.3854  0.1162
 1012MOL0     C36535   6.244  12.469   1.440  0.4477  0.7432 -0.2199
 1012MOL0     N36536   5.997  11.708   1.188 -0.0060 -0.3520  0.2123
 1012MOL0     N36537   5.882  11.644   1.168  0.0187  0.2560  0.4905
 1012MOL0     C36538   5.788  10.731   1.040  0.0378  0.7420 -0.0568
 1012MOL0     C36539   5.839  10.605   1.010  0.7106 -0.0489  1.0889
 1012MOL0     C36540   5.864  10.178   1.053  0.5412 -0.2783  0.8567
 1012MOL0     C36541   5.755  10.094   1.018  0.4983 -0.1617 -0.1292
 1012MOL0     C36542   5.794   9.972   0.965  0.8447  0.1491  0.0557
 1012MOL0     C36543   5.917   9.931   0.939  0.0598 -0.2064  0.4769
 1012MOL0     O36544   5.930   9.820   0.870 -0.5500  0.0905 -0.1437
 1012MOL0     C36545   6.026   9.725   0.923 -0.2058  0.3224  0.1616
 1012MOL0     C36546   6.011   9.592   0.847  1.2515 -0.4230  0.1775
 1012MOL0     C36547   6.102   9.485   0.903 -0.3606  0.4050 -0.2951
 1012MOL0     C36548   6.022   9.371   0.973 -0.3933  0.9607  0.4599
 1012MOL0     C36549   5.960   9.300   0.861  0.3739 -0.9795 -0.2969
 1012MOL0     C36550   5.914   9.254   0.762 -0.0373  0.4204  0.0649
 1012MOL0     C36551   6.024  10.016   0.966  0.7831  0.3572  0.2123
 1012MOL0     C36552   5.995  10.143   1.019 -0.1189 -0.3070 -0.5328
 1012MOL0     H36553   5.933  10.530   1.333 -2.2549 -1.2656 -1.0143
 1012MOL0     H36554   5.880  10.766   1.365  1.9212 -0.9420  0.5025
 1012MOL0     H36555   5.837  11.011   1.335 -2.1870 -1.1086  0.2243
 1012MOL0     H36556   5.954  10.997   1.192 -0.1360  1.9865  0.7976
 1012MOL0     H36557   5.908  11.239   1.226  3.4225 -2.0476 -1.6229
 1012MOL0     H36558   5.850  11.170   1.078 -2.4111  3.6124 -1.1168
 1012MOL0     H36559   5.618  11.120   1.205  1.1897 -0.4106 -0.5001
 1012MOL0     H36560   5.668  11.233   1.324 -0.3002  0.5502 -0.5569
 1012MOL0     H36561   5.725  11.408   1.153  1.5365 -1.1873  0.7054
 1012MOL0     H36562   5.669  11.297   1.023  2.2579 -1.6118 -0.1751
 1012MOL0     H36563   5.434  11.310   1.130  0.1445 -1.0258  0.2231
 1012MOL0     H36564   5.513  11.405   1.259  2.5974 -3.7199  0.6010
 1012MOL0     H36565   5.454  11.493   0.984 -1.3341 -0.6040  0.8836
 1012MOL0     H36566   5.380  11.549   1.125 -0.7398 -2.8864  2.5528
 1012MOL0     H36567   5.665  11.561   1.038 -0.4645 -1.4818 -0.0674
 1012MOL0     H36568   5.567  11.709   1.029  1.9612  1.6030  0.4901
 1012MOL0     H36569   5.642  11.596   1.305  2.3272 -0.9546 -1.1258
 1012MOL0     H36570   5.570  11.748   1.262 -1.2949 -0.5370 -0.0078
 1012MOL0     H36571   5.770  11.951   1.227  0.8493  0.1745  0.7379
 1012MOL0     H36572   6.045  12.014   1.292 -0.6168 -0.2084 -0.5017
 1012MOL0     H36573   6.149  11.923   1.170  0.4960  0.7781 -1.0545
 1012MOL0     H36574   5.895  12.090   1.105  0.2972  0.1209  1.9160
 1012MOL0     H36575   6.025  12.043   0.996  1.3108  0.3949  1.2519
 1012MOL0     H36576   6.035  12.283   1.040  1.4473 -0.2207 -0.2956
 1012MOL0     H36577   6.181  12.201   1.057  0.6241  2.6244  0.2424
 1012MOL0     H36578   6.177  12.210   1.301  1.0221  1.0429 -0.7053
 1012MOL0     H36579   6.006  12.252   1.298 -0.9223 -0.8560 -0.9063
 1012MOL0     H36580   5.927  12.499   1.347 -1.9630 -1.9542  2.9680
 1012MOL0     H36581   5.789  12.556   1.523 -1.4667 -0.3021  2.8069
 1012MOL0     H36582   5.842  12.612   1.673 -0.7691 -2.1643 -0.7415
 1012MOL0     H36583   5.851  12.722   1.527 -3.4400 -0.4559  0.5071
 1012MOL0     H36584   6.256  12.921   1.833  0.8514 -0.8592  1.4397
 1012MOL0     H36585   6.296  13.011   2.066 -1.6431  1.5302  1.8590
 1012MOL0     H36586   6.047  13.183   2.199  0.8747 -1.8041 -2.0267
 1012MOL0     H36587   6.061  13.154   2.373  0.7415  1.3390  0.6670
 1012MOL0     H36588   6.291  13.193   2.181  1.7191 -2.0052 -0.0548
 1012MOL0     H36589   6.232  13.315   2.299  0.0657 -1.2406 -0.1279
 1012MOL0     H36590   6.389  13.064   2.342 -1.6542 -0.8590 -0.6653
 1012MOL0     H36591   6.279  13.117   2.470 -1.2421  0.6428 -0.6348
 1012MOL0     H36592   6.479  13.301   2.339 -2.0398 -2.0167 -1.5067
 1012MOL0     H36593   6.371  13.337   2.466 -2.7073  0.2078 -2.3479
 1012MOL0     H36594   6.572  13.116   2.509  1.8831  0.0300 -0.0236
 1012MOL0     H36595   6.470  13.202   2.626  1.6346 -0.3696  0.1222
 1012MOL0     H36596   6.698  13.318   2.463 -0.7079  1.9990 -1.7928
 1012MOL0     H36597   6.589  13.417   2.581  1.1974  1.0414 -1.4866
 1012MOL0     H36598   6.771  13.205   2.671  3.3240  1.8775 -0.3452
 1012MOL0     H36599   6.658  13.314   2.767 -1.0182 -1.0488 -0.6921
 1012MOL0     H36600   6.895  13.376   2.774  0.6728  0.1550 -0.4005
 1012MOL0     H36601   6.778  13.499   2.713 -2.2037 -0.7201  0.6704
 1012MOL0     H36602   5.940  12.852   2.209  1.8095 -0.1894  0.9787
 1012MOL0     H36603   5.889  12.748   1.985  0.0565 -0.3014 -0.7238
 1012MOL0     H36604   6.336  12.513   1.631  0.0408 -1.2116  1.0709
 1012MOL0     H36605   6.337  12.429   1.401 -0.2579  0.4395 -1.6658
 1012MOL0     H36606   5.721  10.780   0.970  0.3914  1.6752  0.2304
 1012MOL0     H36607   5.818  10.552   0.918  0.2669 -3.0609  2.7808
 1012MOL0     H36608   5.650  10.116   1.039  0.4211 -2.1015  1.9349
 1012MOL0     H36609   5.709   9.906   0.951 -0.7419  1.4656  2.6622
 1012MOL0     H36610   6.127   9.765   0.932 -0.6383  1.3651  0.5679
 1012MOL0     H36611   6.005   9.700   1.027 -1.2934 -0.9424 -0.3223
 1012MOL0     H36612   6.045   9.618   0.746  0.7366 -2.5195 -0.5831
 1012MOL0     H36613   5.905   9.563   0.839  1.3249 -0.3791 -1.1630
 1012MOL0     H36614   6.171   9.530   0.975 -0.2789  0.4858 -0.4220
 1012MOL0     H36615   6.166   9.437   0.829  1.2566 -1.7486  2.3134
 1012MOL0     H36616   5.952   9.422   1.039 -2.3277 -1.1773  0.1948
 1012MOL0     H36617   6.080   9.300   1.033  2.0992  2.2238 -0.3202
 1012MOL0     H36618   5.881   9.208   0.670  3.7827 -0.5620 -0.9709
 1012MOL0     H36619   6.126   9.996   0.933  0.6064 -0.2101  0.0133
 1012MOL0     H36620   6.074  10.217   1.015 -0.5641  0.4696  2.6897
 1013MOL0     O36621   0.590   2.905   2.881 -0.4768 -0.2480  0.5259
 1013MOL0     C36622   0.710   2.896   2.851  0.2101 -0.4961  0.3867
 1013MOL0     O36623   0.814   2.927   2.936  0.1111  0.1382  0.1629
 1013MOL0     C36624   0.786   3.013   3.040 -0.3791  0.3794 -0.2893
 1013MOL0     C36625   0.883   3.014   3.139  0.0580 -0.7641  0.5801
 1013MOL0     C36626   0.889   3.101   3.245 -0.4330 -0.7289  0.0187
 1013MOL0     C36627   0.774   3.177   3.265  0.6077  0.4160 -0.0936
 1013MOL0     O36628   0.758   3.245   3.376 -0.0834  0.0018 -0.1758
 1013MOL0     C36629   0.715   3.176   3.491 -0.1463  0.6379 -0.4157
 1013MOL0     C36630   0.560   3.140   3.472 -1.2318 -2.0016  0.3534
 1013MOL0     C36631   0.482   3.278   3.457 -0.9112  0.0188  0.3202
 1013MOL0     C36632   0.334   3.256   3.416  1.4243  0.6136 -0.0015
 1013MOL0     C36633   0.278   3.384   3.366  0.1339 -0.3377 -0.1898
 1013MOL0     C36634   0.130   3.374   3.325  0.2281 -1.0175 -0.1948
 1013MOL0     C36635   0.063   3.523   3.320 -0.0612  0.8168 -0.3606
 1013MOL0     C36636  -0.079   3.525   3.263 -0.2337  0.2856 -0.3192
 1013MOL0     N36637  -0.075   3.496   3.122  0.4325 -0.0145 -0.0462
 1013MOL0     C36638  -0.076   3.596   3.033 -1.0174 -0.6441 -0.7476
 1013MOL0     C36639  -0.091   3.525   2.915  0.1842 -0.7784 -0.5784
 1013MOL0     C36640  -0.068   3.571   2.778  0.2827 -0.3821 -0.4107
 1013MOL0     C36641  -0.146   3.703   2.753 -0.4516 -0.0206  0.5311
 1013MOL0     C36642  -0.141   3.740   2.607  0.3024 -0.2002  0.9623
 1013MOL0     C36643  -0.219   3.870   2.578  0.0753  0.2480  0.5083
 1013MOL0     O36644  -0.351   3.852   2.628  0.2515 -0.4963  0.7014
 1013MOL0     C36645  -0.445   3.914   2.542  0.5769 -0.4682  0.7677
 1013MOL0     C36646  -0.457   3.879   2.412  0.2996 -0.5912 -0.2275
 1013MOL0     C36647  -0.563   3.922   2.331  0.3918 -0.1557 -0.2940
 1013MOL0     C36648  -0.555   3.894   2.191  0.2607  0.2586 -0.8019
 1013MOL0     C36649  -0.666   3.992   2.388 -0.3069 -0.2754 -0.0478
 1013MOL0     C36650  -0.791   4.031   2.313  0.8712  0.2215  0.4928
 1013MOL0     O36651  -0.791   4.035   2.182 -0.3923  0.7684  0.1000
 1013MOL0     C36652  -0.878   4.117   2.111  0.0136 -0.6760  0.0586
 1013MOL0     C36653  -0.825   4.187   2.003  0.6571  0.0386  0.0540
 1013MOL0     C36654  -0.911   4.256   1.916  0.6095  1.1522  1.0376
 1013MOL0     C36655  -1.050   4.252   1.937 -0.2543 -0.4601  0.2688
 1013MOL0     O36656  -1.132   4.313   1.848 -0.1776 -0.2296 -0.8216
 1013MOL0     C36657  -1.083   4.413   1.756 -0.3308 -0.1771  0.1413
 1013MOL0     C36658  -1.195   4.481   1.679 -0.8091  0.4298 -0.1765
 1013MOL0     C36659  -1.283   4.556   1.771  0.1833 -0.4719 -0.5165
 1013MOL0     C36660  -1.380   4.641   1.687 -1.3672  0.1066  0.3666
 1013MOL0     C36661  -1.433   4.762   1.779  0.2339 -0.1550  0.0971
 1013MOL0     C36662  -1.564   4.815   1.747  0.1316  0.6193 -0.6153
 1013MOL0     C36663  -1.677   4.703   1.721 -0.9255  0.4529 -0.3607
 1013MOL0     C36664  -1.694   4.615   1.844  0.2607  0.5160  0.4318
 1013MOL0    Cl36665  -1.865   4.549   1.795  0.1375  0.0921 -0.0312
 1013MOL0     C36666  -1.105   4.176   2.045  0.3198  0.0297 -0.8700
 1013MOL0     C36667  -1.014   4.109   2.126  0.4145  0.2050 -1.1504
 1013MOL0     O36668  -0.884   4.054   2.389 -0.8309 -1.0223  0.0018
 1013MOL0     C36669  -0.651   4.037   2.526 -0.5277 -0.1363  0.3116
 1013MOL0     C36670  -0.535   4.001   2.596  1.4748 -0.1881 -0.6587
 1013MOL0     N36671  -0.099   3.392   2.947 -0.1372  0.1310  0.3190
 1013MOL0     N36672  -0.091   3.370   3.071 -0.4508 -0.5340 -0.0919
 1013MOL0     C36673   0.672   3.191   3.167 -0.9527 -0.5047  0.6462
 1013MOL0     C36674   0.679   3.106   3.055  0.1029  0.1903  0.4331
 1013MOL0     C36675   0.749   2.869   2.712  0.5171 -0.3097  0.5794
 1013MOL0     C36676   0.883   2.900   2.667  0.1418  0.2356  0.1926
 1013MOL0     C36677   0.902   2.878   2.534 -0.0785  0.0962 -0.0245
 1013MOL0     C36678   0.818   2.816   2.440  0.3739  0.3135 -0.7704
 1013MOL0     O36679   0.867   2.779   2.312 -0.4391  0.2694  0.3338
 1013MOL0     C36680   0.994   2.805   2.261 -1.3643 -0.7813 -0.1662
 1013MOL0     C36681   1.019   2.727   2.135 -1.1979  0.8413 -0.0795
 1013MOL0     C36682   0.926   2.762   2.014 -0.3371  0.3158  0.4612
 1013MOL0     C36683   0.777   2.741   2.044 -0.5977 -0.3963  0.6310
 1013MOL0     C36684   0.706   2.760   1.913 -0.3894  0.2411 -0.1466
 1013MOL0     C36685   0.636   2.780   1.816  0.5651  0.1032  1.2226
 1013MOL0     C36686   0.691   2.784   2.490  0.2865 -0.3493 -0.2444
 1013MOL0     C36687   0.652   2.819   2.621  0.4822 -0.4661 -0.2556
 1013MOL0     H36688   0.976   2.960   3.123  0.3930 -0.3502  1.1117
 1013MOL0     H36689   0.971   3.096   3.316  0.0897  0.1772 -0.5091
 1013MOL0     H36690   0.770   3.082   3.498 -1.7508 -0.3300 -0.2870
 1013MOL0     H36691   0.739   3.234   3.580  1.7232  0.6077 -0.8544
 1013MOL0     H36692   0.555   3.084   3.379 -0.4597  1.8036 -2.1996
 1013MOL0     H36693   0.508   3.082   3.549 -2.1627 -0.3337  1.0403
 1013MOL0     H36694   0.491   3.327   3.554 -0.9578 -2.4484  1.6599
 1013MOL0     H36695   0.526   3.339   3.378 -0.4453  1.4476  1.6411
 1013MOL0     H36696   0.326   3.176   3.342  2.4784  0.5370 -0.0484
 1013MOL0     H36697   0.278   3.222   3.503 -1.2548  2.6018 -0.8091
 1013MOL0     H36698   0.278   3.455   3.448 -1.8893 -3.1565  2.4833
 1013MOL0     H36699   0.343   3.414   3.283  0.5809 -2.2288 -0.5909
 1013MOL0     H36700   0.114   3.329   3.226 -0.8080  1.1141 -1.0838
 1013MOL0     H36701   0.084   3.303   3.394  0.4336  0.9788  2.0961
 1013MOL0     H36702   0.051   3.538   3.428  2.3771 -1.0053  0.2390
 1013MOL0     H36703   0.117   3.606   3.273  1.4386 -0.1114 -0.3308
 1013MOL0     H36704  -0.122   3.620   3.296 -0.1113 -0.4117  2.0473
 1013MOL0     H36705  -0.140   3.451   3.316  2.9469 -2.4334 -0.0940
 1013MOL0     H36706  -0.071   3.702   3.053  1.3605 -0.9400  0.5319
 1013MOL0     H36707   0.039   3.588   2.767 -0.0233  1.6151 -0.6348
 1013MOL0     H36708  -0.098   3.492   2.707  1.7907  0.5594 -2.1724
 1013MOL0     H36709  -0.102   3.787   2.809 -1.5928  0.0416  1.3618
 1013MOL0     H36710  -0.250   3.689   2.785 -0.2604 -3.3369 -0.0038
 1013MOL0     H36711  -0.179   3.668   2.534  0.7662  3.0970 -2.9014
 1013MOL0     H36712  -0.037   3.760   2.580  0.0950  0.0611  0.3353
 1013MOL0     H36713  -0.220   3.898   2.472 -3.8259 -0.7190  0.1413
 1013MOL0     H36714  -0.186   3.953   2.642  0.6793  1.4131 -1.2444
 1013MOL0     H36715  -0.376   3.810   2.389  1.0538 -1.0771  3.3874
 1013MOL0     H36716  -0.478   3.821   2.164 -1.3901 -2.3571  1.0487
 1013MOL0     H36717  -0.645   3.852   2.147  0.0719 -0.5140  0.2727
 1013MOL0     H36718  -0.544   3.986   2.133 -2.0643 -0.3022 -2.2735
 1013MOL0     H36719  -0.718   4.175   1.987  0.9407  2.3567 -0.0579
 1013MOL0     H36720  -0.870   4.298   1.824  0.0845  1.1530  0.8019
 1013MOL0     H36721  -1.027   4.486   1.816 -1.5221  1.6380 -0.8898
 1013MOL0     H36722  -1.018   4.371   1.679  0.3039  0.0275  0.5590
 1013MOL0     H36723  -1.149   4.549   1.607  1.5030 -1.9898 -1.1378
 1013MOL0     H36724  -1.251   4.401   1.628  3.1228 -1.2722 -2.2707
 1013MOL0     H36725  -1.215   4.616   1.832  0.1509  0.0834 -1.0162
 1013MOL0     H36726  -1.335   4.484   1.835  2.9928  1.0752  3.9945
 1013MOL0     H36727  -1.313   4.684   1.612 -1.1204  0.3451  0.7196
 1013MOL0     H36728  -1.452   4.576   1.637 -1.6981  0.2469  0.6551
 1013MOL0     H36729  -1.371   4.852   1.775 -2.9339  2.1478 -2.2910
 1013MOL0     H36730  -1.435   4.726   1.883 -0.1440 -1.0715 -0.2211
 1013MOL0     H36731  -1.599   4.888   1.821 -0.5997 -1.2109  0.9328
 1013MOL0     H36732  -1.557   4.867   1.651 -3.9125  4.9262  1.0622
 1013MOL0     H36733  -1.643   4.642   1.638  3.0980  0.3285  1.1574
 1013MOL0     H36734  -1.768   4.759   1.695 -0.9360 -0.5350 -2.6562
 1013MOL0     H36735  -1.699   4.677   1.934  2.5514 -0.0011  0.9711
 1013MOL0     H36736  -1.605   4.552   1.845  1.1639  1.5274 -3.0122
 1013MOL0     H36737  -1.212   4.155   2.043 -0.1987  1.8784  1.6517
 1013MOL0     H36738  -1.057   4.048   2.205  2.4911 -0.2490 -0.2975
 1013MOL0     H36739  -0.716   4.105   2.580 -0.9745 -1.6645  1.8072
 1013MOL0     H36740  -0.527   4.033   2.700 -1.4503  2.8748 -1.1855
 1013MOL0     H36741   0.594   3.266   3.174 -0.5363 -0.0032  0.0501
 1013MOL0     H36742   0.606   3.111   2.976  0.3501 -2.2177 -0.0225
 1013MOL0     H36743   0.953   2.935   2.743  1.0800 -1.7510  0.2872
 1013MOL0     H36744   1.004   2.902   2.504 -0.1048  1.9205  1.1851
 1013MOL0     H36745   1.008   2.912   2.245 -0.9030 -0.5716  1.4768
 1013MOL0     H36746   1.073   2.786   2.334 -0.1476  3.2011 -0.2214
 1013MOL0     H36747   1.006   2.619   2.147  0.8211  0.5192 -0.3712
 1013MOL0     H36748   1.122   2.732   2.098 -0.3276 -1.2719  1.8389
 1013MOL0     H36749   0.961   2.703   1.929 -0.6039  0.8564 -0.0237
 1013MOL0     H36750   0.936   2.869   1.994 -2.7105  0.3050 -1.2011
 1013MOL0     H36751   0.740   2.820   2.109  1.6055  0.0973  1.3799
 1013MOL0     H36752   0.754   2.644   2.089  1.7171 -0.9499  0.7792
 1013MOL0     H36753   0.566   2.816   1.743  0.4150  3.4323  2.8308
 1013MOL0     H36754   0.628   2.729   2.419 -2.1122  0.4594  1.1539
 1013MOL0     H36755   0.553   2.793   2.656 -0.1252  1.3463 -0.5068
 1014MOL0     O36756   9.156   8.796  11.116 -0.0926  0.7500 -0.1086
 1014MOL0     C36757   9.219   8.697  11.151  0.7870 -1.3558  0.5601
 1014MOL0     O36758   9.163   8.571  11.172  0.2541  0.0514 -0.8029
 1014MOL0     C36759   9.029   8.551  11.153 -0.8394 -0.1296 -0.2387
 1014MOL0     C36760   8.974   8.445  11.226  1.8008 -0.9575  0.7085
 1014MOL0     C36761   8.835   8.421  11.238 -0.1957 -0.6377 -0.1635
 1014MOL0     C36762   8.750   8.502  11.162  0.2775 -0.2512  0.3918
 1014MOL0     O36763   8.617   8.491  11.194  0.0098 -0.2740  0.1275
 1014MOL0     C36764   8.525   8.445  11.098  0.2636  0.3116  0.5981
 1014MOL0     C36765   8.387   8.497  11.134  0.4048  0.4989 -1.0456
 1014MOL0     C36766   8.345   8.414  11.260 -0.4905  0.5186  0.0602
 1014MOL0     C36767   8.214   8.452  11.324 -0.4469 -0.1159  0.3790
 1014MOL0     C36768   8.172   8.354  11.434 -0.1152  1.2223  0.3273
 1014MOL0     C36769   8.042   8.412  11.487 -0.1926 -0.4830 -0.3284
 1014MOL0     C36770   8.051   8.546  11.560  0.0457  0.5503 -0.1948
 1014MOL0     C36771   7.907   8.576  11.613 -0.1520 -0.5386  0.3977
 1014MOL0     N36772   7.902   8.687  11.698  0.3204  0.4466  0.6584
 1014MOL0     C36773   7.907   8.821  11.653 -0.1472 -0.5715  0.4563
 1014MOL0     C36774   7.907   8.899  11.759  0.2576  0.5376 -0.9165
 1014MOL0     C36775   7.902   9.051  11.755  0.4505  0.1653  0.5279
 1014MOL0     C36776   7.769   9.118  11.718 -0.1483 -0.2029  0.3716
 1014MOL0     C36777   7.778   9.261  11.692  0.4270 -0.7884  0.3463
 1014MOL0     C36778   7.638   9.322  11.663 -0.3502  0.2698  0.0370
 1014MOL0     O36779   7.662   9.458  11.633  1.1344 -0.1109 -0.1384
 1014MOL0     C36780   7.560   9.533  11.678  1.3291 -0.2417 -0.0685
 1014MOL0     C36781   7.585   9.634  11.770 -0.1603  0.0540 -0.1291
 1014MOL0     C36782   7.490   9.738  11.804  0.5437 -0.1011 -0.3772
 1014MOL0     C36783   7.536   9.828  11.910  0.3661  0.0532 -0.5748
 1014MOL0     C36784   7.358   9.734  11.749 -0.7483 -0.4080 -0.5208
 1014MOL0     C36785   7.265   9.832  11.805  0.2829  1.7157 -0.2204
 1014MOL0     O36786   7.233   9.937  11.729 -0.0977 -0.1372 -0.2635
 1014MOL0     C36787   7.179  10.042  11.800  0.2748  0.4444 -0.2740
 1014MOL0     C36788   7.262  10.135  11.860 -0.1076  0.0149  0.3999
 1014MOL0     C36789   7.209  10.237  11.940  0.0213 -0.4756  0.3289
 1014MOL0     C36790   7.072  10.258  11.953  0.1669  1.2377  0.2817
 1014MOL0     O36791   7.018  10.352  12.035  0.1034  0.2596 -0.1255
 1014MOL0     C36792   7.095  10.463  12.089 -0.2169 -0.4960 -0.0428
 1014MOL0     C36793   7.134  10.555  11.973 -0.8427 -0.0202 -0.7382
 1014MOL0     C36794   7.007  10.596  11.896 -0.1566 -0.1954 -0.0856
 1014MOL0     C36795   7.022  10.662  11.755  0.8664  0.2583  0.0360
 1014MOL0     C36796   6.909  10.753  11.710 -0.1775  0.0920  0.9320
 1014MOL0     C36797   6.791  10.684  11.657  0.3417 -0.0095  0.2565
 1014MOL0     C36798   6.780  10.723  11.511 -0.1919  1.1273  0.4164
 1014MOL0     C36799   6.640  10.727  11.472  0.4162 -0.3324 -0.4708
 1014MOL0    Cl36800   6.610  10.776  11.303  0.3235  0.1310 -0.1454
 1014MOL0     C36801   6.986  10.162  11.893  0.1742 -0.9649  0.2026
 1014MOL0     C36802   7.041  10.047  11.825  0.3603 -0.6123 -0.5714
 1014MOL0     O36803   7.197   9.795  11.902 -0.0177  0.4117 -0.4302
 1014MOL0     C36804   7.331   9.627  11.662  0.1402 -0.0339 -0.1662
 1014MOL0     C36805   7.428   9.529  11.627 -0.2304 -0.4997  0.3794
 1014MOL0     N36806   7.904   8.815  11.872  0.2761 -0.4312 -0.8060
 1014MOL0     N36807   7.898   8.691  11.833  0.3976 -0.4636  0.4755
 1014MOL0     C36808   8.805   8.583  11.063 -0.6583  0.1995 -0.2511
 1014MOL0     C36809   8.946   8.610  11.054 -0.1857 -0.2895 -0.1870
 1014MOL0     C36810   9.359   8.723  11.178 -0.7322  0.0066  0.4306
 1014MOL0     C36811   9.445   8.637  11.242 -0.0157  0.6499 -0.4887
 1014MOL0     C36812   9.580   8.671  11.245 -0.9038 -0.6299  0.7650
 1014MOL0     C36813   9.640   8.791  11.194  0.2029 -0.3040 -1.1774
 1014MOL0     O36814   9.778   8.799  11.189  0.2599 -0.2495  0.6027
 1014MOL0     C36815   9.839   8.838  11.064  0.5989 -0.4979 -0.2999
 1014MOL0     C36816   9.987   8.819  11.068  0.2509  0.2710  0.5493
 1014MOL0     C36817  10.068   8.935  11.136  0.6673 -0.4542  0.4055
 1014MOL0     C36818  10.044   8.945  11.285 -0.7156  0.5012  0.0580
 1014MOL0     C36819  10.174   8.973  11.351 -0.4181 -0.0618  0.0808
 1014MOL0     C36820  10.269   8.988  11.417 -0.4062  0.4485  0.4463
 1014MOL0     C36821   9.557   8.877  11.126  0.6171  0.3234  1.1196
 1014MOL0     C36822   9.421   8.845  11.129 -0.9923  0.4023 -0.5859
 1014MOL0     H36823   9.039   8.389  11.292  1.4119 -0.9889  1.0726
 1014MOL0     H36824   8.789   8.363  11.317  2.3099 -2.6121 -0.0555
 1014MOL0     H36825   8.561   8.486  11.003 -1.5044  1.5023  0.3751
 1014MOL0     H36826   8.518   8.338  11.080 -1.1519  0.3772  0.6502
 1014MOL0     H36827   8.400   8.605  11.147  4.6148  0.0208  0.1563
 1014MOL0     H36828   8.319   8.479  11.050  1.8490 -1.0114 -1.9618
 1014MOL0     H36829   8.345   8.307  11.235  2.5733  0.0719  1.4213
 1014MOL0     H36830   8.423   8.423  11.337 -1.1986  0.9336  0.7408
 1014MOL0     H36831   8.230   8.553  11.364  0.6184 -0.2407  0.3000
 1014MOL0     H36832   8.141   8.459  11.243 -1.0173  5.4233  0.9565
 1014MOL0     H36833   8.155   8.257  11.386  0.7514 -0.6982  3.5716
 1014MOL0     H36834   8.242   8.343  11.517  0.0427 -1.3112 -0.0558
 1014MOL0     H36835   7.973   8.425  11.403 -1.5538  0.6827  0.9201
 1014MOL0     H36836   8.004   8.336  11.555  0.4710 -0.2529  0.3165
 1014MOL0     H36837   8.112   8.554  11.650 -1.8748  3.1983  0.9918
 1014MOL0     H36838   8.085   8.631  11.500  1.6303 -0.9423 -1.5145
 1014MOL0     H36839   7.850   8.490  11.648 -0.7267 -0.4538 -0.3179
 1014MOL0     H36840   7.865   8.603  11.516 -2.0478 -3.0569  0.4065
 1014MOL0     H36841   7.906   8.850  11.548 -1.4361 -0.7304  0.4116
 1014MOL0     H36842   7.931   9.079  11.857  0.5267  1.0440  0.2737
 1014MOL0     H36843   7.978   9.093  11.689 -0.8884 -0.3784 -1.4261
 1014MOL0     H36844   7.706   9.099  11.805 -0.2185  0.4748  0.4680
 1014MOL0     H36845   7.726   9.069  11.630 -0.3293  1.0151 -0.2319
 1014MOL0     H36846   7.833   9.274  11.598 -0.1825 -0.2069  0.0628
 1014MOL0     H36847   7.828   9.320  11.769  0.0249  2.4047 -1.6833
 1014MOL0     H36848   7.585   9.300  11.756  1.8951  1.2633  1.6663
 1014MOL0     H36849   7.603   9.265  11.576  0.4879 -0.4229  0.1363
 1014MOL0     H36850   7.687   9.624  11.805 -0.5183 -4.3959  0.2155
 1014MOL0     H36851   7.497   9.804  12.009  1.4012  0.8814  0.0650
 1014MOL0     H36852   7.644   9.814  11.921  0.6967  0.7769 -2.5717
 1014MOL0     H36853   7.516   9.932  11.885  1.5605  0.7092  0.9911
 1014MOL0     H36854   7.368  10.122  11.842  0.0470  0.2365  1.1076
 1014MOL0     H36855   7.284  10.295  11.995 -1.0196  0.6950  0.5692
 1014MOL0     H36856   7.023  10.529  12.138 -0.3696 -1.3421  0.9167
 1014MOL0     H36857   7.175  10.432  12.157 -1.0885 -1.6355  0.4921
 1014MOL0     H36858   7.183  10.645  12.011 -0.9432  1.3657 -3.6314
 1014MOL0     H36859   7.208  10.496  11.917  0.7548  1.7214 -0.5794
 1014MOL0     H36860   6.943  10.659  11.959  1.2245 -0.1922  1.3564
 1014MOL0     H36861   6.945  10.508  11.876 -1.8564  1.1383 -0.9716
 1014MOL0     H36862   7.105  10.733  11.764 -0.0679  1.9248 -2.9629
 1014MOL0     H36863   7.061  10.590  11.683 -0.1989  0.0376 -0.3385
 1014MOL0     H36864   6.954  10.820  11.635 -0.3560  0.3053  1.0133
 1014MOL0     H36865   6.885  10.824  11.790 -0.2081 -2.0995  2.9642
 1014MOL0     H36866   6.800  10.575  11.667 -0.5733 -0.1592 -0.4309
 1014MOL0     H36867   6.705  10.723  11.711  0.0209  1.3776 -1.1773
 1014MOL0     H36868   6.842  10.660  11.445  3.2373  3.0102  1.6008
 1014MOL0     H36869   6.809  10.827  11.494  2.1568  0.3718 -0.6930
 1014MOL0     H36870   6.581  10.797  11.532 -1.9428  0.8093 -3.8807
 1014MOL0     H36871   6.600  10.628  11.496  0.5309  0.0984  1.7386
 1014MOL0     H36872   6.879  10.170  11.911 -0.0078 -2.0041 -0.3243
 1014MOL0     H36873   6.980   9.960  11.800 -1.3035 -0.2223  1.8481
 1014MOL0     H36874   7.243   9.622  11.600  2.2304  0.1229 -3.3689
 1014MOL0     H36875   7.406   9.457  11.549  2.9296 -2.1192  0.8101
 1014MOL0     H36876   8.729   8.633  11.004 -0.0684 -1.9501 -3.0244
 1014MOL0     H36877   8.999   8.678  10.988  1.9151 -1.3896  0.2845
 1014MOL0     H36878   9.398   8.550  11.288 -1.7185  0.6559 -2.0696
 1014MOL0     H36879   9.654   8.605  11.290 -1.1103 -0.9418  0.6525
 1014MOL0     H36880   9.794   8.769  10.992  0.9534 -0.7835 -0.2504
 1014MOL0     H36881   9.811   8.941  11.040  0.5867 -0.3624  0.2791
 1014MOL0     H36882  10.010   8.801  10.963 -1.9335 -0.4927  0.1480
 1014MOL0     H36883  10.008   8.726  11.123  2.6847 -1.2564 -2.5974
 1014MOL0     H36884  10.039   9.024  11.080 -0.1898 -0.9661  0.0060
 1014MOL0     H36885  10.174   8.916  11.118  1.7813  3.8585  1.3413
 1014MOL0     H36886  10.007   8.854  11.333  2.0330 -0.2643  0.8716
 1014MOL0     H36887   9.975   9.026  11.310 -0.1577  0.4382  1.9254
 1014MOL0     H36888  10.349   8.990  11.488  0.0971 -0.6396 -0.0597
 1014MOL0     H36889   9.585   8.963  11.065 -2.6579  0.8919  0.2125
 1014MOL0     H36890   9.360   8.917  11.075 -0.6628 -0.5939 -2.3721
 1015MOL0     O36891   2.693   2.060   8.645  0.2234 -0.8591 -0.1792
 1015MOL0     C36892   2.676   1.945   8.594 -0.1067 -0.5132  0.0468
 1015MOL0     O36893   2.562   1.874   8.589  0.7093  0.1381 -0.0131
 1015MOL0     C36894   2.438   1.926   8.603  0.0167 -0.3434 -0.1941
 1015MOL0     C36895   2.331   1.837   8.640 -0.2843  0.5111  0.3245
 1015MOL0     C36896   2.204   1.883   8.630  1.2244  0.8679 -0.4235
 1015MOL0     C36897   2.174   2.007   8.582  0.2780  0.8838 -1.4720
 1015MOL0     O36898   2.050   2.038   8.567  0.5306  0.0832  0.4941
 1015MOL0     C36899   2.011   2.175   8.585  0.1679 -0.3454  0.0866
 1015MOL0     C36900   1.866   2.160   8.634 -0.2928 -0.2342 -0.1076
 1015MOL0     C36901   1.865   2.096   8.771 -0.2808  0.1786  0.0708
 1015MOL0     C36902   1.723   2.087   8.825 -0.3460  0.2290  0.2609
 1015MOL0     C36903   1.703   1.985   8.940 -0.1378  0.1661  0.6711
 1015MOL0     C36904   1.547   1.975   8.964  0.2024 -0.5209  0.7596
 1015MOL0     C36905   1.521   1.891   9.090  1.3239  0.0412  0.0945
 1015MOL0     C36906   1.375   1.853   9.116 -0.3738 -0.6280  0.0720
 1015MOL0     N36907   1.318   1.753   9.027  0.0721  0.1534  0.0501
 1015MOL0     C36908   1.345   1.617   9.031  0.9656  1.0988  0.5659
 1015MOL0     C36909   1.263   1.570   8.932 -0.0181  0.2340  0.0419
 1015MOL0     C36910   1.263   1.428   8.866 -0.6805 -0.4392 -0.1597
 1015MOL0     C36911   1.362   1.421   8.764 -0.7136  0.8145 -0.5060
 1015MOL0     C36912   1.331   1.473   8.626  0.1469 -0.0097 -0.3244
 1015MOL0     C36913   1.425   1.419   8.522  0.4882  0.0418  1.1534
 1015MOL0     O36914   1.397   1.473   8.386 -0.0801 -0.3645 -0.8335
 1015MOL0     C36915   1.442   1.406   8.278 -0.7455 -0.3806 -0.3335
 1015MOL0     C36916   1.553   1.316   8.283 -0.1859  0.0098  0.8653
 1015MOL0     C36917   1.612   1.247   8.178  0.7882 -0.2580  0.0679
 1015MOL0     C36918   1.731   1.164   8.208 -0.1393  0.0142 -0.3883
 1015MOL0     C36919   1.555   1.267   8.044  0.4609  0.6103 -1.1169
 1015MOL0     C36920   1.599   1.204   7.922 -0.3848 -0.2804  0.0263
 1015MOL0     O36921   1.529   1.231   7.801 -0.6107  0.4565 -0.1230
 1015MOL0     C36922   1.604   1.227   7.685 -0.3930  0.9250  0.1372
 1015MOL0     C36923   1.649   1.105   7.629  0.0594  0.0674  0.0516
 1015MOL0     C36924   1.722   1.111   7.510  0.6037 -0.2836  0.9485
 1015MOL0     C36925   1.762   1.236   7.453  0.0650 -0.2187 -0.7742
 1015MOL0     O36926   1.800   1.252   7.324  0.2638 -0.0224 -0.0509
 1015MOL0     C36927   1.919   1.179   7.284 -0.4882  0.0452  0.3364
 1015MOL0     C36928   1.926   1.158   7.134  0.3532 -0.9263  0.6862
 1015MOL0     C36929   1.827   1.057   7.090  0.6680  0.4636  0.6196
 1015MOL0     C36930   1.756   1.090   6.968 -0.0932 -0.2510 -0.0180
 1015MOL0     C36931   1.639   1.004   6.934  0.1878  0.8671 -0.4536
 1015MOL0     C36932   1.532   1.063   6.853  0.1655 -0.1403 -0.0290
 1015MOL0     C36933   1.456   1.182   6.919  0.1071  0.4549 -0.5446
 1015MOL0     C36934   1.310   1.183   6.878  0.2890  0.3070 -0.3372
 1015MOL0    Cl36935   1.297   1.192   6.706  0.5237  0.0120 -0.1106
 1015MOL0     C36936   1.725   1.353   7.515  1.1289 -0.3534 -0.3270
 1015MOL0     C36937   1.636   1.353   7.628 -0.1126 -0.6596  0.6568
 1015MOL0     O36938   1.692   1.126   7.925 -0.6719  0.3927  0.1321
 1015MOL0     C36939   1.437   1.350   8.040  0.0619 -0.4452  1.0006
 1015MOL0     C36940   1.383   1.420   8.154 -0.4204 -0.1180  0.6416
 1015MOL0     N36941   1.184   1.678   8.886  0.0657  0.0523  0.3244
 1015MOL0     N36942   1.217   1.782   8.947  0.2893 -0.5167 -0.3800
 1015MOL0     C36943   2.285   2.090   8.555 -1.0013 -0.4980 -1.1199
 1015MOL0     C36944   2.418   2.048   8.558 -0.1076 -0.1617 -0.9590
 1015MOL0     C36945   2.800   1.882   8.557 -0.3124  0.4247 -0.0963
 1015MOL0     C36946   2.922   1.907   8.613 -0.0712  0.0290 -0.6506
 1015MOL0     C36947   3.038   1.834   8.565 -0.8488 -0.1942  0.4581
 1015MOL0     C36948   3.037   1.748   8.455  1.0885 -0.2446 -0.1924
 1015MOL0     O36949   3.154   1.694   8.418 -0.3750  0.5247  0.7353
 1015MOL0     C36950   3.160   1.630   8.288  0.5029  0.0878  0.1873
 1015MOL0     C36951   3.308   1.591   8.248 -0.1928  0.4483 -0.2184
 1015MOL0     C36952   3.377   1.526   8.368 -0.1764 -0.5420  0.1471
 1015MOL0     C36953   3.514   1.500   8.321 -0.5931 -0.1083  0.2987
 1015MOL0     C36954   3.586   1.406   8.406  0.1933  0.2968 -0.3028
 1015MOL0     C36955   3.664   1.329   8.465  0.2524  0.4265  0.6369
 1015MOL0     C36956   2.913   1.715   8.406 -0.0779 -0.8955  0.4866
 1015MOL0     C36957   2.792   1.783   8.451 -0.7331 -0.3352  0.9131
 1015MOL0     H36958   2.359   1.735   8.662 -2.9959 -0.2790  0.3723
 1015MOL0     H36959   2.124   1.815   8.655 -1.4975  3.5379 -1.2076
 1015MOL0     H36960   2.068   2.231   8.659 -1.0652 -1.5511  2.0384
 1015MOL0     H36961   2.028   2.226   8.490  1.2885  1.0877  1.0186
 1015MOL0     H36962   1.825   2.261   8.644 -2.7273 -1.1048 -0.6020
 1015MOL0     H36963   1.808   2.101   8.562 -0.0770 -0.8717  0.2350
 1015MOL0     H36964   1.917   2.000   8.777  2.9644  1.8374  0.4944
 1015MOL0     H36965   1.917   2.167   8.836  2.2088 -1.4149 -0.0689
 1015MOL0     H36966   1.691   2.187   8.858 -1.2918  0.5604 -1.5611
 1015MOL0     H36967   1.654   2.060   8.745 -1.8637  1.2226  1.1794
 1015MOL0     H36968   1.735   1.889   8.900 -0.5490  0.9198 -1.6563
 1015MOL0     H36969   1.758   2.012   9.030  2.4689 -1.0441 -0.4637
 1015MOL0     H36970   1.505   2.076   8.976  0.1666 -0.4487  0.0778
 1015MOL0     H36971   1.507   1.929   8.873  2.0882  1.8847 -1.4940
 1015MOL0     H36972   1.585   1.803   9.096 -2.5591 -2.9560  1.9254
 1015MOL0     H36973   1.544   1.955   9.175  1.1833 -0.4904  0.5395
 1015MOL0     H36974   1.312   1.943   9.122  0.9435  0.2952  0.3842
 1015MOL0     H36975   1.363   1.809   9.215  3.0007  0.3705  1.0334
 1015MOL0     H36976   1.417   1.569   9.095 -1.5772 -0.1679  2.6517
 1015MOL0     H36977   1.284   1.358   8.947 -3.3578  0.2459  1.2559
 1015MOL0     H36978   1.165   1.409   8.821 -0.2478  1.8461 -2.3193
 1015MOL0     H36979   1.378   1.314   8.751 -1.0358  0.8269 -1.0400
 1015MOL0     H36980   1.450   1.476   8.797 -1.3336  1.4330  0.1708
 1015MOL0     H36981   1.345   1.582   8.625  1.4231 -0.1519 -0.2425
 1015MOL0     H36982   1.229   1.458   8.592 -0.1600  1.6452 -0.2360
 1015MOL0     H36983   1.408   1.312   8.504 -0.2301  0.5676 -1.8166
 1015MOL0     H36984   1.530   1.430   8.550  1.4453 -4.1140 -0.0512
 1015MOL0     H36985   1.597   1.309   8.382  2.8305 -3.4304 -0.4708
 1015MOL0     H36986   1.690   1.070   8.247 -0.4701 -0.6769 -2.2920
 1015MOL0     H36987   1.798   1.133   8.127  1.8000 -1.4901  1.6560
 1015MOL0     H36988   1.796   1.216   8.280  0.3507 -2.2392  0.9180
 1015MOL0     H36989   1.639   1.008   7.676  2.4867  0.0472  0.6750
 1015MOL0     H36990   1.751   1.016   7.465  1.8056  0.9505 -1.0697
 1015MOL0     H36991   1.999   1.247   7.314  0.1486 -1.1759  1.5464
 1015MOL0     H36992   1.939   1.079   7.324  0.8798 -0.7148 -2.0537
 1015MOL0     H36993   1.912   1.249   7.075  0.5589  1.2247  3.7227
 1015MOL0     H36994   2.021   1.112   7.108 -0.1896 -1.1149 -1.0518
 1015MOL0     H36995   1.752   1.049   7.170  1.7289  1.0073  1.6966
 1015MOL0     H36996   1.862   0.953   7.085 -3.7139 -1.1908 -1.2763
 1015MOL0     H36997   1.708   1.187   6.983 -0.4531  0.0962 -2.8382
 1015MOL0     H36998   1.833   1.094   6.890  2.7141  2.0655  2.6377
 1015MOL0     H36999   1.582   0.967   7.021 -0.6985 -0.1798 -1.4418
 1015MOL0     H37000   1.671   0.919   6.873  0.4581  0.6612 -0.0360
 1015MOL0     H37001   1.560   1.084   6.749  2.1031 -0.8168  0.3047
 1015MOL0     H37002   1.464   0.978   6.842 -1.7654  0.7931  3.4179
 1015MOL0     H37003   1.505   1.277   6.897  0.2208  0.5120 -0.0642
 1015MOL0     H37004   1.463   1.166   7.027  0.6012  0.8256 -0.5181
 1015MOL0     H37005   1.266   1.272   6.925 -0.1539  0.1943 -0.5325
 1015MOL0     H37006   1.268   1.094   6.926  2.0951  0.3874  1.5576
 1015MOL0     H37007   1.746   1.450   7.471 -2.3317  0.6592 -0.0127
 1015MOL0     H37008   1.590   1.437   7.678  1.5004  1.0478 -0.5631
 1015MOL0     H37009   1.390   1.371   7.945  1.6133 -1.0540  0.0717
 1015MOL0     H37010   1.303   1.494   8.147  1.3239  2.1358  2.7648
 1015MOL0     H37011   2.260   2.193   8.534 -3.4627 -0.8489 -0.2043
 1015MOL0     H37012   2.501   2.111   8.530  1.1373 -1.9288 -1.4205
 1015MOL0     H37013   2.942   1.978   8.693  1.2835 -3.5092  2.4328
 1015MOL0     H37014   3.135   1.844   8.613  0.8344 -2.8590 -2.0569
 1015MOL0     H37015   3.107   1.537   8.309 -0.3740  0.7283  0.8699
 1015MOL0     H37016   3.097   1.679   8.213 -0.4647 -1.2370  0.1147
 1015MOL0     H37017   3.362   1.683   8.224 -3.0212  2.4561  0.5917
 1015MOL0     H37018   3.305   1.523   8.162 -1.3221 -1.0090  0.9191
 1015MOL0     H37019   3.331   1.432   8.401  0.1270 -0.0611  2.0861
 1015MOL0     H37020   3.371   1.589   8.457  0.3398  0.3695 -0.4390
 1015MOL0     H37021   3.579   1.588   8.315  0.5390 -1.0402 -3.8988
 1015MOL0     H37022   3.518   1.451   8.223  0.4669 -1.3285  0.9180
 1015MOL0     H37023   3.735   1.263   8.510  0.7491 -0.4121 -1.2649
 1015MOL0     H37024   2.893   1.632   8.339 -3.8332 -1.1497  1.6845
 1015MOL0     H37025   2.702   1.749   8.402 -1.1555 -0.1985  1.5718
 1016MOL0     O37026   9.934  10.714   5.251 -0.0506  0.2545  0.5652
 1016MOL0     C37027   9.840  10.650   5.202  0.2396 -0.7909 -0.0682
 1016MOL0     O37028   9.706  10.668   5.231  0.3162  0.5570  0.5961
 1016MOL0     C37029   9.652  10.750   5.333 -0.9332 -0.5754 -0.7354
 1016MOL0     C37030   9.731  10.802   5.440  1.0106  0.2073 -0.4586
 1016MOL0     C37031   9.674  10.863   5.552 -0.6188  0.0158 -0.5827
 1016MOL0     C37032   9.541  10.885   5.547  0.3765 -0.3298 -0.1271
 1016MOL0     O37033   9.486  10.938   5.668 -0.8250  0.4486 -0.4257
 1016MOL0     C37034   9.340  10.933   5.688 -0.2812  0.3353 -0.9632
 1016MOL0     C37035   9.286  11.024   5.803 -0.3845 -0.2013 -0.7790
 1016MOL0     C37036   9.369  11.001   5.938 -0.4122 -0.1609  0.1577
 1016MOL0     C37037   9.257  10.959   6.046 -0.5845  0.4428 -0.0239
 1016MOL0     C37038   9.156  11.074   6.075  0.6524  0.2183 -0.4611
 1016MOL0     C37039   9.070  11.035   6.196 -0.6957 -0.2228  1.1321
 1016MOL0     C37040   9.122  11.107   6.323  0.5160  0.7721 -0.3491
 1016MOL0     C37041   9.106  11.258   6.321 -0.0228 -0.0136  0.2274
 1016MOL0     N37042   9.143  11.330   6.438  0.1462  0.0000  1.0248
 1016MOL0     C37043   9.058  11.392   6.532 -0.0242  0.3441  0.1353
 1016MOL0     C37044   9.139  11.426   6.637 -0.2927 -0.1223  0.1186
 1016MOL0     C37045   9.076  11.468   6.770 -0.0855  0.4683  0.4324
 1016MOL0     C37046   9.118  11.380   6.881 -0.3993 -0.1967 -0.7004
 1016MOL0     C37047   9.064  11.435   7.021 -0.5051  0.0942  1.0270
 1016MOL0     C37048   9.148  11.389   7.138  0.4463  0.7417  0.0957
 1016MOL0     O37049   9.083  11.438   7.259 -0.5034  0.3261  0.6893
 1016MOL0     C37050   8.982  11.374   7.323 -0.6349 -0.4850 -0.0135
 1016MOL0     C37051   8.934  11.246   7.317 -0.5984  0.7047  0.1541
 1016MOL0     C37052   8.830  11.194   7.405 -0.1394 -0.6098 -0.0945
 1016MOL0     C37053   8.801  11.045   7.393 -0.5904 -0.1906  0.3707
 1016MOL0     C37054   8.761  11.283   7.487  0.0931  0.5442 -0.7771
 1016MOL0     C37055   8.653  11.237   7.587  0.5402 -0.8472  0.6434
 1016MOL0     O37056   8.571  11.339   7.627 -0.1959  0.2137 -0.0588
 1016MOL0     C37057   8.468  11.306   7.716  0.0064  0.0162  0.4923
 1016MOL0     C37058   8.468  11.350   7.851  0.8342 -0.5149 -1.2926
 1016MOL0     C37059   8.364  11.305   7.932 -0.3612 -0.9700  0.1817
 1016MOL0     C37060   8.275  11.206   7.893 -0.1906 -1.1956  0.5733
 1016MOL0     O37061   8.166  11.159   7.967  0.1397 -0.2830 -0.0241
 1016MOL0     C37062   8.138  11.201   8.098 -0.3918 -0.3142 -0.2445
 1016MOL0     C37063   8.003  11.157   8.141 -0.7217  0.6093  0.3949
 1016MOL0     C37064   7.984  11.005   8.163 -0.9438 -0.6123  0.1142
 1016MOL0     C37065   8.043  10.966   8.291 -0.1413 -0.0148 -0.5949
 1016MOL0     C37066   8.021  10.813   8.323  0.0978  0.5287  0.2167
 1016MOL0     C37067   7.873  10.777   8.344  0.1191  0.3786 -0.3676
 1016MOL0     C37068   7.873  10.648   8.426  0.0911  0.4320 -0.6717
 1016MOL0     C37069   7.737  10.589   8.452 -0.2293  0.1308  1.1368
 1016MOL0    Cl37070   7.663  10.700   8.562 -0.1052  0.2024 -0.1773
 1016MOL0     C37071   8.273  11.167   7.762 -0.8692  0.3560  0.0745
 1016MOL0     C37072   8.363  11.224   7.674 -0.4135  0.0586  0.7982
 1016MOL0     O37073   8.649  11.124   7.622  0.5932  0.7257  0.1001
 1016MOL0     C37074   8.806  11.421   7.494 -0.6614 -0.0782 -0.4848
 1016MOL0     C37075   8.912  11.463   7.413 -0.1742 -0.4573  0.5974
 1016MOL0     N37076   9.265  11.393   6.597 -0.0652 -0.3167 -0.5124
 1016MOL0     N37077   9.270  11.339   6.483 -0.3197 -0.4744 -0.2270
 1016MOL0     C37078   9.463  10.841   5.438  0.2977 -0.2295 -0.5389
 1016MOL0     C37079   9.519  10.778   5.332 -0.7215 -0.7158  0.9256
 1016MOL0     C37080   9.869  10.567   5.088 -0.2990 -0.2805  0.0897
 1016MOL0     C37081   9.976  10.592   5.003 -0.0357 -0.9753  0.5147
 1016MOL0     C37082   9.998  10.517   4.891  0.6132 -0.6173  1.6054
 1016MOL0     C37083   9.915  10.407   4.861  0.3138 -0.3486 -0.4867
 1016MOL0     O37084   9.920  10.331   4.746 -0.1849  0.5848 -0.1848
 1016MOL0     C37085  10.011  10.363   4.640 -0.3767 -0.0954  0.6123
 1016MOL0     C37086   9.973  10.262   4.525  0.0140 -0.1796  0.0642
 1016MOL0     C37087   9.978  10.300   4.382  0.5811 -0.0846 -0.1374
 1016MOL0     C37088  10.120  10.344   4.347  0.0415 -0.2150 -0.0090
 1016MOL0     C37089  10.125  10.396   4.209 -0.8920 -0.0430 -0.1368
 1016MOL0     C37090  10.135  10.410   4.088  0.1770  0.1339 -0.5741
 1016MOL0     C37091   9.809  10.376   4.950  0.3917  0.6209 -0.2261
 1016MOL0     C37092   9.780  10.460   5.056 -0.4886 -0.0414 -0.0556
 1016MOL0     H37093   9.834  10.769   5.450  0.5015 -1.5288 -0.6210
 1016MOL0     H37094   9.728  10.889   5.643 -3.0091  0.8384  0.7033
 1016MOL0     H37095   9.291  10.967   5.596 -0.0583  0.5605 -0.9999
 1016MOL0     H37096   9.314  10.828   5.700  1.4470 -0.0668 -0.5147
 1016MOL0     H37097   9.300  11.129   5.777  0.1673 -0.1291 -0.2201
 1016MOL0     H37098   9.180  11.000   5.804 -0.0562 -1.9279  1.6661
 1016MOL0     H37099   9.437  10.915   5.931 -1.5694 -1.3065  2.0671
 1016MOL0     H37100   9.415  11.092   5.978 -3.1457  1.2077  0.3952
 1016MOL0     H37101   9.199  10.873   6.010  1.0518 -0.7698  0.1055
 1016MOL0     H37102   9.299  10.930   6.143  0.6889 -0.7173 -0.8775
 1016MOL0     H37103   9.225  11.158   6.087  0.9177  0.4661 -2.9859
 1016MOL0     H37104   9.089  11.101   5.992  0.4481 -0.6137 -0.5775
 1016MOL0     H37105   8.973  11.080   6.172  0.5136  0.6852 -2.7208
 1016MOL0     H37106   9.058  10.927   6.207 -1.4476 -0.5188 -1.7583
 1016MOL0     H37107   9.071  11.060   6.407  0.6068 -1.0986 -1.2726
 1016MOL0     H37108   9.227  11.075   6.327  0.6102  0.6267 -2.4483
 1016MOL0     H37109   9.001  11.284   6.302 -0.7539 -0.5725  3.1093
 1016MOL0     H37110   9.155  11.308   6.237 -2.2435  0.5787 -0.7944
 1016MOL0     H37111   8.952  11.410   6.516 -0.2894 -0.6167  0.7163
 1016MOL0     H37112   9.097  11.571   6.800 -0.3791  0.3109  1.1977
 1016MOL0     H37113   8.969  11.448   6.756 -0.6812  4.4454 -2.0506
 1016MOL0     H37114   9.227  11.382   6.880 -0.2236 -2.7935  1.5773
 1016MOL0     H37115   9.094  11.275   6.864 -0.9144 -0.2153  0.0909
 1016MOL0     H37116   8.964  11.392   7.032 -1.0571  0.8356 -0.8193
 1016MOL0     H37117   9.053  11.544   7.012 -0.3235 -0.0143 -0.7285
 1016MOL0     H37118   9.241  11.446   7.127  1.5254 -0.7443  1.1397
 1016MOL0     H37119   9.165  11.282   7.134 -1.2187  0.4882 -1.4418
 1016MOL0     H37120   8.983  11.170   7.256 -0.1416  2.0008 -1.1279
 1016MOL0     H37121   8.692  11.042   7.382 -0.3081 -0.6889 -3.4468
 1016MOL0     H37122   8.847  11.004   7.303  0.7320  2.0348 -0.0455
 1016MOL0     H37123   8.839  10.986   7.477 -0.2935 -0.8303 -0.2009
 1016MOL0     H37124   8.529  11.422   7.903 -0.9678 -0.3735  0.8099
 1016MOL0     H37125   8.355  11.357   8.027 -1.2934  0.2116 -0.5193
 1016MOL0     H37126   8.214  11.160   8.166 -0.2877 -0.0825 -0.2230
 1016MOL0     H37127   8.131  11.310   8.104 -0.0812 -0.3723  1.8125
 1016MOL0     H37128   7.989  11.210   8.236  0.4738 -3.2383  2.9678
 1016MOL0     H37129   7.935  11.196   8.066 -1.8266 -1.7329  0.0694
 1016MOL0     H37130   8.030  10.947   8.082  0.3545  0.5111  0.0217
 1016MOL0     H37131   7.875  10.991   8.156 -0.6850 -1.9879 -2.3799
 1016MOL0     H37132   8.151  10.983   8.295 -0.4896  2.9595 -1.2630
 1016MOL0     H37133   8.000  11.021   8.376  1.0377 -1.3545  0.9286
 1016MOL0     H37134   8.078  10.798   8.415  0.7011 -1.5937 -0.4431
 1016MOL0     H37135   8.048  10.744   8.242 -1.2318  1.2955 -0.9378
 1016MOL0     H37136   7.815  10.858   8.389  0.6957  1.0777 -0.8678
 1016MOL0     H37137   7.824  10.767   8.247 -3.2609 -0.4604  1.2817
 1016MOL0     H37138   7.913  10.670   8.525  0.3788  1.4297 -0.9988
 1016MOL0     H37139   7.931  10.579   8.363  1.1318  0.9599 -0.3143
 1016MOL0     H37140   7.761  10.492   8.496  1.5608 -2.4037 -4.5685
 1016MOL0     H37141   7.674  10.568   8.365  0.3764  0.3035  0.6514
 1016MOL0     H37142   8.206  11.090   7.724  0.0662 -1.5764  2.0946
 1016MOL0     H37143   8.358  11.194   7.570  3.7028  1.7255 -0.0895
 1016MOL0     H37144   8.763  11.495   7.560 -0.5336  0.5819 -1.1330
 1016MOL0     H37145   8.940  11.567   7.405  1.0270 -0.9129 -3.5229
 1016MOL0     H37146   9.361  10.875   5.427  0.2289 -1.0091 -2.8537
 1016MOL0     H37147   9.447  10.761   5.252 -0.8510  1.1992  0.5867
 1016MOL0     H37148  10.038  10.677   5.030 -0.9578  0.6072 -1.9639
 1016MOL0     H37149  10.072  10.538   4.815 -1.2338 -0.0247 -0.0984
 1016MOL0     H37150   9.986  10.464   4.605 -0.6258 -0.0664  0.8703
 1016MOL0     H37151  10.117  10.346   4.663 -0.2749  0.5796  0.6763
 1016MOL0     H37152   9.867  10.239   4.540 -0.7970  3.3987  0.6707
 1016MOL0     H37153  10.037  10.178   4.552  0.2993  1.3257  5.1224
 1016MOL0     H37154   9.907  10.379   4.355 -0.2210  0.1459  2.4119
 1016MOL0     H37155   9.962  10.210   4.322 -3.1252  0.5930 -0.3921
 1016MOL0     H37156  10.194  10.265   4.366 -0.2219  0.1489  3.0792
 1016MOL0     H37157  10.153  10.423   4.415  0.7322 -0.8510  0.4160
 1016MOL0     H37158  10.138  10.412   3.981  1.4320 -2.4780 -0.6615
 1016MOL0     H37159   9.729  10.307   4.925 -1.3810  2.1128  1.0882
 1016MOL0     H37160   9.696  10.421   5.114 -2.4891  2.1133 -1.3385
 1017MOL0     O37161  10.477  10.074   9.541 -0.0252 -0.0861 -0.9044
 1017MOL0     C37162  10.426   9.964   9.541 -0.4124  0.1213  0.2851
 1017MOL0     O37163  10.471   9.844   9.599 -0.0906 -0.1421  0.0026
 1017MOL0     C37164  10.598   9.850   9.654  0.1719  0.5544  1.0778
 1017MOL0     C37165  10.612   9.834   9.795  0.5240 -0.6399  0.0860
 1017MOL0     C37166  10.735   9.839   9.856 -0.0788  0.2312 -0.2755
 1017MOL0     C37167  10.859   9.856   9.787  0.2631 -0.9417 -0.9712
 1017MOL0     O37168  10.988   9.872   9.842  0.3359  0.1289  0.8515
 1017MOL0     C37169  10.994   9.836   9.983  0.1772 -0.2504  0.0911
 1017MOL0     C37170  11.142   9.825  10.014  0.6969  0.2438 -0.1515
 1017MOL0     C37171  11.217   9.960  10.001 -1.2690  0.1248 -0.2375
 1017MOL0     C37172  11.369   9.946  10.056 -0.7738 -0.1305  0.4642
 1017MOL0     C37173  11.433  10.083  10.054  0.4810  0.3125  0.2547
 1017MOL0     C37174  11.459  10.138   9.914  0.8210  0.5394  0.4893
 1017MOL0     C37175  11.495  10.288   9.925  0.2497 -0.1216  0.1284
 1017MOL0     C37176  11.621  10.319   9.993 -0.4581  0.3631  0.3686
 1017MOL0     N37177  11.741  10.240   9.954  0.2031  0.1142 -0.2885
 1017MOL0     C37178  11.821  10.269   9.841 -0.1647  0.3231 -0.4636
 1017MOL0     C37179  11.902  10.161   9.827 -1.2453 -0.9914  0.0648
 1017MOL0     C37180  11.991  10.126   9.711  0.8135 -0.3034  0.6375
 1017MOL0     C37181  12.121  10.216   9.730 -0.1999 -0.1157  0.9684
 1017MOL0     C37182  12.221  10.160   9.634  0.2091 -0.3458  0.2730
 1017MOL0     C37183  12.350  10.108   9.691  0.7091  0.3722 -0.4384
 1017MOL0     O37184  12.431  10.059   9.587 -0.9363  0.1198 -0.5402
 1017MOL0     C37185  12.571  10.046   9.620  0.0764  0.2241 -0.4345
 1017MOL0     C37186  12.662   9.994   9.518  0.9014 -0.5683  0.5696
 1017MOL0     C37187  12.798   9.975   9.535  0.3116 -1.0413 -0.4713
 1017MOL0     C37188  12.865   9.923   9.408 -0.6771  0.6924 -0.5113
 1017MOL0     C37189  12.860  10.000   9.661 -0.3755  0.1169 -0.4529
 1017MOL0     C37190  13.006   9.982   9.689 -0.1843 -0.0676 -0.5682
 1017MOL0     O37191  13.095   9.953   9.594  0.5817 -0.1903  0.4045
 1017MOL0     C37192  13.212   9.905   9.643  0.2945  0.7653 -0.9691
 1017MOL0     C37193  13.219   9.762   9.640  0.2086  0.3373  0.5738
 1017MOL0     C37194  13.334   9.696   9.684 -0.3963  0.8133 -0.4027
 1017MOL0     C37195  13.446   9.774   9.731 -0.0680 -1.1638 -0.2248
 1017MOL0     O37196  13.565   9.710   9.772  0.9526 -0.1437 -0.3936
 1017MOL0     C37197  13.654   9.763   9.876  0.4716  0.1516  0.9712
 1017MOL0     C37198  13.718   9.633   9.940  0.5592 -0.1921  0.4485
 1017MOL0     C37199  13.842   9.659  10.032 -1.1044  0.3947  0.0065
 1017MOL0     C37200  13.865   9.797  10.082 -0.7380 -0.8837 -0.5947
 1017MOL0     C37201  13.982   9.807  10.178 -0.6392  0.0678 -0.0113
 1017MOL0     C37202  14.002   9.951  10.229 -0.4180 -0.6971  0.1686
 1017MOL0     C37203  14.128   9.982  10.317 -0.2559 -0.9144 -0.4722
 1017MOL0     C37204  14.108   9.953  10.469  0.0216  0.2805  0.1633
 1017MOL0    Cl37205  14.240  10.030  10.555 -0.2049  0.4874 -0.2793
 1017MOL0     C37206  13.443   9.917   9.711 -0.2769  0.6783 -0.1052
 1017MOL0     C37207  13.326   9.978   9.667 -0.9713  0.5995 -0.6709
 1017MOL0     O37208  13.028   9.980   9.806 -0.2060 -0.1399  0.0604
 1017MOL0     C37209  12.764  10.049   9.761 -0.7724  0.5843 -0.2393
 1017MOL0     C37210  12.627  10.068   9.743  0.4202 -0.3323  0.0022
 1017MOL0     N37211  11.871  10.073   9.932 -0.0014 -0.1073  0.6071
 1017MOL0     N37212  11.774  10.116  10.000 -0.1077  0.5499  0.9645
 1017MOL0     C37213  10.838   9.863   9.645  0.1197  0.1455  0.2569
 1017MOL0     C37214  10.715   9.849   9.574  0.0249  0.3701  0.8071
 1017MOL0     C37215  10.290   9.962   9.470  0.2144 -0.6587  0.5347
 1017MOL0     C37216  10.193   9.865   9.511  0.2390  0.2795  0.3515
 1017MOL0     C37217  10.063   9.856   9.468  1.2047  0.3614 -0.5341
 1017MOL0     C37218  10.021   9.940   9.364 -0.4852 -0.2445  1.0496
 1017MOL0     O37219   9.893   9.920   9.316 -0.0509 -0.6956  0.9274
 1017MOL0     C37220   9.846  10.004   9.212  0.0557 -0.1348 -0.1052
 1017MOL0     C37221   9.708   9.961   9.163 -0.2511  0.3027  0.6221
 1017MOL0     C37222   9.712   9.813   9.127  0.5080 -0.6292 -0.6171
 1017MOL0     C37223   9.579   9.768   9.070  0.5515 -0.3312 -0.6317
 1017MOL0     C37224   9.594   9.634   9.025 -0.3277  0.6851 -0.3811
 1017MOL0     C37225   9.615   9.521   8.982  0.1339 -0.1959  0.1690
 1017MOL0     C37226  10.115  10.033   9.313 -0.3100  0.2650 -0.2738
 1017MOL0     C37227  10.238  10.053   9.373 -0.0324  0.2977  0.2103
 1017MOL0     H37228  10.524   9.810   9.853  0.1623 -1.7211 -0.8739
 1017MOL0     H37229  10.735   9.836   9.964  3.0654 -2.9938 -0.2038
 1017MOL0     H37230  10.954   9.917  10.045 -2.1080  0.8577 -2.5850
 1017MOL0     H37231  10.949   9.740  10.010  0.2368 -0.5905 -0.9721
 1017MOL0     H37232  11.142   9.778  10.112  0.4440 -0.7523 -0.6166
 1017MOL0     H37233  11.190   9.755   9.945  3.0188 -0.7954  2.3289
 1017MOL0     H37234  11.226   9.978   9.893 -1.4817 -1.3843 -0.5369
 1017MOL0     H37235  11.164  10.040  10.052 -0.3746  1.4775 -1.3601
 1017MOL0     H37236  11.377   9.894  10.152  0.1746  0.6406  0.8325
 1017MOL0     H37237  11.424   9.893   9.978 -0.1229  2.3608 -0.9035
 1017MOL0     H37238  11.367  10.142  10.117 -2.0286 -1.9472 -0.0788
 1017MOL0     H37239  11.531  10.083  10.103  0.2258  0.1249  0.7685
 1017MOL0     H37240  11.543  10.085   9.870  2.1386  1.3066  1.9439
 1017MOL0     H37241  11.365  10.125   9.861  0.1509  0.4372  1.6608
 1017MOL0     H37242  11.493  10.327   9.823 -0.3346  0.1910  0.2518
 1017MOL0     H37243  11.417  10.337   9.984  1.8103  2.4145  0.2345
 1017MOL0     H37244  11.606  10.290  10.098 -0.5605 -2.5915 -0.3839
 1017MOL0     H37245  11.631  10.428   9.988 -2.0132  0.4933 -0.7235
 1017MOL0     H37246  11.808  10.354   9.774 -0.4691  0.9315  0.3543
 1017MOL0     H37247  12.008  10.018   9.710 -1.0693 -0.6209  0.8095
 1017MOL0     H37248  11.948  10.147   9.613  2.0402  0.4240  0.2281
 1017MOL0     H37249  12.162  10.210   9.831 -0.3074 -3.2778  0.9091
 1017MOL0     H37250  12.105  10.323   9.718 -1.3852 -0.3900 -0.0273
 1017MOL0     H37251  12.244  10.249   9.574  0.8939 -0.5435  0.2330
 1017MOL0     H37252  12.183  10.078   9.572  2.1902  0.1967 -1.7928
 1017MOL0     H37253  12.327  10.030   9.765 -1.1110  0.5906 -0.7457
 1017MOL0     H37254  12.389  10.191   9.750 -2.0479  3.5568 -2.7603
 1017MOL0     H37255  12.613   9.982   9.422  1.3730 -1.6047  0.4519
 1017MOL0     H37256  12.818   9.957   9.315 -1.6722  0.8037  0.0214
 1017MOL0     H37257  12.972   9.944   9.415 -0.4365 -0.6456  0.3045
 1017MOL0     H37258  12.850   9.814   9.409 -2.6916  0.9126  1.7447
 1017MOL0     H37259  13.135   9.711   9.593  0.1143  2.2253 -1.4934
 1017MOL0     H37260  13.338   9.588   9.693 -2.1050  0.9054  3.1149
 1017MOL0     H37261  13.729   9.826   9.826  0.3467 -0.0720  0.4995
 1017MOL0     H37262  13.594   9.812   9.953  0.9955  0.8364  0.9643
 1017MOL0     H37263  13.633   9.591   9.995 -3.4698  1.4440 -3.8802
 1017MOL0     H37264  13.741   9.555   9.868 -1.5854 -0.1892 -0.3266
 1017MOL0     H37265  13.929   9.621   9.978 -3.1303 -3.9709 -0.6374
 1017MOL0     H37266  13.835   9.597  10.122  1.3640 -2.9369 -1.8634
 1017MOL0     H37267  13.887   9.863   9.998  0.6789 -0.7415 -0.1433
 1017MOL0     H37268  13.775   9.823  10.138  0.4910  0.7240  0.7443
 1017MOL0     H37269  14.075   9.779  10.129 -2.3314 -1.7838 -2.4003
 1017MOL0     H37270  13.967   9.739  10.262 -0.6034 -0.9177 -0.7869
 1017MOL0     H37271  14.020  10.012  10.140  1.6648  0.9916  1.6469
 1017MOL0     H37272  13.909   9.977  10.282 -1.4277 -0.8477 -1.4457
 1017MOL0     H37273  14.161  10.086  10.312 -0.4248 -0.5519  3.3404
 1017MOL0     H37274  14.211   9.923  10.277  1.4783  0.5085  0.8526
 1017MOL0     H37275  14.109   9.845  10.485  0.9095  0.3338  0.5323
 1017MOL0     H37276  14.013   9.978  10.517 -0.3677 -0.2626 -0.3043
 1017MOL0     H37277  13.528   9.979   9.737 -0.2856  0.8501 -0.4771
 1017MOL0     H37278  13.320  10.086   9.656  1.0101  0.9000  0.7478
 1017MOL0     H37279  12.791  10.079   9.861  0.4110 -0.6856 -0.1467
 1017MOL0     H37280  12.570  10.114   9.823 -1.5383 -1.0525 -0.9253
 1017MOL0     H37281  10.929   9.879   9.587  1.0266 -1.4817  1.1803
 1017MOL0     H37282  10.703   9.845   9.467  0.1633 -0.3140  0.8180
 1017MOL0     H37283  10.223   9.781   9.572  2.1137  0.3892 -0.3676
 1017MOL0     H37284   9.988   9.784   9.500  1.8256 -0.8586 -1.6682
 1017MOL0     H37285   9.838  10.106   9.251  0.1865 -0.1783  0.0329
 1017MOL0     H37286   9.915  10.003   9.127  0.1390  2.2502 -0.1373
 1017MOL0     H37287   9.685  10.015   9.071 -2.4179 -0.0519  0.8906
 1017MOL0     H37288   9.627   9.989   9.232 -2.2798  2.2349 -2.2986
 1017MOL0     H37289   9.722   9.757   9.221  0.0585 -1.4468 -1.0484
 1017MOL0     H37290   9.791   9.786   9.056  0.5898 -0.6463 -0.5204
 1017MOL0     H37291   9.547   9.827   8.984  0.2730  0.6694  0.1373
 1017MOL0     H37292   9.505   9.769   9.150  4.7832  0.7718  3.7926
 1017MOL0     H37293   9.634   9.431   8.927  1.3862  0.1114  0.0545
 1017MOL0     H37294  10.085  10.094   9.229 -0.9203 -2.3098 -2.0285
 1017MOL0     H37295  10.292  10.137   9.331 -0.6965  1.4875  1.6501
 1018MOL0     O37296  11.153   1.541   4.653 -0.2869 -0.9051  0.3434
 1018MOL0     C37297  11.144   1.615   4.558 -1.5326  0.4433 -0.6081
 1018MOL0     O37298  11.030   1.658   4.511  0.2443 -0.0230  0.3507
 1018MOL0     C37299  10.897   1.623   4.534  0.0961 -0.0299 -0.4554
 1018MOL0     C37300  10.793   1.686   4.463 -0.1857 -0.0957  0.0417
 1018MOL0     C37301  10.661   1.656   4.484  0.4654 -0.2630 -0.4458
 1018MOL0     C37302  10.618   1.551   4.570 -0.1028 -0.6897  0.9088
 1018MOL0     O37303  10.481   1.514   4.579 -0.0490  0.2818  0.0780
 1018MOL0     C37304  10.454   1.381   4.551 -0.1943 -0.0629  0.8097
 1018MOL0     C37305  10.449   1.337   4.407  0.1009 -0.2378  0.3285
 1018MOL0     C37306  10.334   1.392   4.317 -1.0104  0.3916  0.0945
 1018MOL0     C37307  10.367   1.372   4.172 -0.2111 -0.9939  0.5822
 1018MOL0     C37308  10.237   1.408   4.085 -0.1014 -0.3239 -0.3172
 1018MOL0     C37309  10.097   1.339   4.124 -0.5384  0.1806  0.1077
 1018MOL0     C37310   9.998   1.379   4.014  0.7851  0.1225  0.3584
 1018MOL0     C37311   9.871   1.298   4.028 -0.0428 -0.8724 -0.6827
 1018MOL0     N37312   9.797   1.296   3.901  0.5081 -0.4782 -0.2153
 1018MOL0     C37313   9.846   1.242   3.790  0.0054  0.4433 -0.0535
 1018MOL0     C37314   9.750   1.273   3.703 -0.2932  0.5710 -0.3617
 1018MOL0     C37315   9.723   1.212   3.562  0.6938  0.2366 -0.2539
 1018MOL0     C37316   9.849   1.176   3.488  0.1840 -0.5794  0.5444
 1018MOL0     C37317   9.824   1.182   3.335 -0.3514  0.3618  0.3734
 1018MOL0     C37318   9.959   1.153   3.266  0.1127 -0.2499  1.2232
 1018MOL0     O37319   9.982   1.011   3.270  0.0243 -0.5749  0.5003
 1018MOL0     C37320   9.919   0.926   3.177  0.0258  0.1263 -0.5506
 1018MOL0     C37321   9.864   0.963   3.058 -0.4980 -1.2161 -0.3624
 1018MOL0     C37322   9.805   0.876   2.975 -0.1429  0.3835  0.0306
 1018MOL0     C37323   9.761   0.929   2.834  0.6195 -0.1371 -0.6035
 1018MOL0     C37324   9.788   0.743   3.020  0.6631 -0.3335  0.2546
 1018MOL0     C37325   9.720   0.633   2.946 -0.2492  0.2386 -0.0768
 1018MOL0     O37326   9.656   0.548   3.015  0.0233  0.6802 -0.0485
 1018MOL0     C37327   9.571   0.452   2.964 -1.1354 -0.9395  0.7240
 1018MOL0     C37328   9.628   0.343   2.906  0.2603 -0.1418 -0.3231
 1018MOL0     C37329   9.542   0.243   2.868 -0.5952  0.6621 -0.3040
 1018MOL0     C37330   9.403   0.244   2.871 -0.0881 -0.4566  0.7778
 1018MOL0     O37331   9.330   0.137   2.841  0.0715  0.3809 -0.4370
 1018MOL0     C37332   9.378   0.004   2.826  0.2273 -0.5580  0.9457
 1018MOL0     C37333   9.375  -0.078   2.958 -0.5750 -0.6704 -0.1056
 1018MOL0     C37334   9.484  -0.033   3.065 -0.2160  1.6743  1.3902
 1018MOL0     C37335   9.621  -0.092   3.023  0.0569  0.0026 -0.5922
 1018MOL0     C37336   9.730  -0.040   3.111  0.1790 -0.2142 -0.3420
 1018MOL0     C37337   9.749   0.112   3.110  0.6165  0.0538  0.6904
 1018MOL0     C37338   9.853   0.151   3.215 -0.0132  0.0080 -0.0290
 1018MOL0     C37339   9.865   0.298   3.203 -0.6080 -0.6100  0.1887
 1018MOL0    Cl37340   9.973   0.339   3.062 -0.1963 -0.8002  0.2271
 1018MOL0     C37341   9.347   0.359   2.931  0.1877  0.8064 -0.6905
 1018MOL0     C37342   9.432   0.462   2.973  0.3331 -0.1107 -0.1229
 1018MOL0     O37343   9.735   0.627   2.825  0.0276  0.6157 -0.2052
 1018MOL0     C37344   9.828   0.705   3.154  0.3513  0.1476  0.2286
 1018MOL0     C37345   9.891   0.800   3.233  0.2332 -0.9193  0.3245
 1018MOL0     N37346   9.656   1.353   3.765 -0.5244  0.3099  0.4359
 1018MOL0     N37347   9.687   1.362   3.884  0.2167  0.0044  0.3252
 1018MOL0     C37348  10.723   1.484   4.648 -0.2025  0.2355  0.4191
 1018MOL0     C37349  10.857   1.518   4.619  0.6211 -0.3872 -0.6753
 1018MOL0     C37350  11.270   1.676   4.512  0.1086  0.1709  0.2756
 1018MOL0     C37351  11.264   1.792   4.429  0.8916  0.2903  0.0590
 1018MOL0     C37352  11.384   1.840   4.369 -0.1017 -0.8114 -0.2471
 1018MOL0     C37353  11.509   1.781   4.407 -0.4733 -0.4316  0.3183
 1018MOL0     O37354  11.626   1.808   4.340  0.0272 -0.0272  0.0345
 1018MOL0     C37355  11.646   1.937   4.282  0.4711  0.3090 -0.3469
 1018MOL0     C37356  11.773   1.951   4.202 -0.3590 -0.6171 -1.0753
 1018MOL0     C37357  11.888   1.877   4.269  0.1374 -0.0261 -0.3943
 1018MOL0     C37358  12.020   1.916   4.210 -0.8232 -0.2286 -0.4549
 1018MOL0     C37359  12.051   2.058   4.218  0.1086  0.6318 -0.0462
 1018MOL0     C37360  12.053   2.177   4.235 -0.1017 -0.6032 -0.2459
 1018MOL0     C37361  11.509   1.682   4.499 -0.4673  0.1292 -0.5035
 1018MOL0     C37362  11.395   1.642   4.561  0.3589 -0.2708 -0.1355
 1018MOL0     H37363  10.830   1.773   4.410  1.5763 -0.8819 -0.0893
 1018MOL0     H37364  10.582   1.710   4.432  0.8352 -0.1941 -0.9466
 1018MOL0     H37365  10.531   1.326   4.607  0.9154  0.9125  0.2878
 1018MOL0     H37366  10.361   1.348   4.598 -1.0677  0.7626 -0.3074
 1018MOL0     H37367  10.546   1.361   4.364  1.1487  0.9438  3.0980
 1018MOL0     H37368  10.444   1.228   4.414 -0.4001 -0.1321  2.6091
 1018MOL0     H37369  10.246   1.331   4.341 -0.3787 -0.0485  1.3958
 1018MOL0     H37370  10.308   1.498   4.323 -0.3956  0.6179 -0.9215
 1018MOL0     H37371  10.443   1.450   4.160 -0.9096  0.2519  3.4620
 1018MOL0     H37372  10.408   1.272   4.156  3.4868 -0.1049  3.2634
 1018MOL0     H37373  10.227   1.517   4.089  0.6788 -0.2295 -0.7420
 1018MOL0     H37374  10.257   1.382   3.981  0.8593 -3.0226  0.4554
 1018MOL0     H37375  10.124   1.234   4.138  0.7389  0.8668  4.2384
 1018MOL0     H37376  10.048   1.370   4.217  0.9278 -1.1169  1.3858
 1018MOL0     H37377   9.984   1.487   4.009 -3.7392 -0.3386 -2.0101
 1018MOL0     H37378  10.041   1.367   3.914  1.4855  1.8139  0.4300
 1018MOL0     H37379   9.806   1.340   4.105  0.3650  1.6580 -1.6195
 1018MOL0     H37380   9.888   1.197   4.067  1.4551  0.3829  2.2272
 1018MOL0     H37381   9.933   1.180   3.773 -1.2752 -1.4469  0.0464
 1018MOL0     H37382   9.669   1.118   3.577 -2.4695  1.2820 -3.4249
 1018MOL0     H37383   9.667   1.285   3.503 -1.6354 -2.0425 -1.0614
 1018MOL0     H37384   9.883   1.082   3.530  1.6203  0.0435  0.8331
 1018MOL0     H37385   9.921   1.253   3.517 -0.5512 -0.2952  1.7148
 1018MOL0     H37386   9.786   1.280   3.302 -0.5811  0.2383  0.2677
 1018MOL0     H37387   9.750   1.111   3.299 -0.9840  1.5811 -0.8385
 1018MOL0     H37388  10.042   1.207   3.313 -1.2181  0.8576  2.4075
 1018MOL0     H37389   9.949   1.199   3.168  2.1194 -0.6517  0.7773
 1018MOL0     H37390   9.887   1.062   3.019  0.6737 -1.6030 -0.7031
 1018MOL0     H37391   9.836   0.893   2.763 -0.1517  2.0306 -2.6615
 1018MOL0     H37392   9.670   0.882   2.798 -0.6811  1.0605  0.9543
 1018MOL0     H37393   9.751   1.038   2.825  0.7578 -0.1327 -0.7024
 1018MOL0     H37394   9.733   0.321   2.886 -0.5241 -2.8092 -2.0721
 1018MOL0     H37395   9.603   0.160   2.835 -1.0629 -0.4560  1.4802
 1018MOL0     H37396   9.312  -0.054   2.760 -2.0310  1.9660  0.8376
 1018MOL0     H37397   9.474   0.010   2.772  0.0356  0.4789  0.7030
 1018MOL0     H37398   9.274  -0.071   3.001 -1.1278 -3.6202 -0.6757
 1018MOL0     H37399   9.385  -0.182   2.925 -2.2823 -1.3020  1.2082
 1018MOL0     H37400   9.458  -0.070   3.164 -2.3220 -0.9787 -0.0145
 1018MOL0     H37401   9.481   0.076   3.067 -0.6664  1.7174 -0.1412
 1018MOL0     H37402   9.628  -0.200   3.042  3.4114 -0.0870 -1.7056
 1018MOL0     H37403   9.638  -0.082   2.915 -1.9903 -3.8448 -1.4769
 1018MOL0     H37404   9.821  -0.093   3.080  0.2370  0.3460 -1.1623
 1018MOL0     H37405   9.712  -0.063   3.217  0.6683  4.5465  1.0532
 1018MOL0     H37406   9.776   0.135   3.007  0.7334 -1.9667  0.2308
 1018MOL0     H37407   9.656   0.165   3.130  0.2294 -0.8437  1.3792
 1018MOL0     H37408   9.937   0.090   3.182 -0.7431  0.1522 -2.2856
 1018MOL0     H37409   9.830   0.122   3.318 -0.3423  0.9370  0.1706
 1018MOL0     H37410   9.917   0.336   3.291  0.6752  0.1047 -0.8421
 1018MOL0     H37411   9.770   0.351   3.196  0.3159  1.5462  2.7130
 1018MOL0     H37412   9.239   0.348   2.938  0.4663 -1.4959  4.8579
 1018MOL0     H37413   9.395   0.554   3.015  0.8044  1.2012 -2.4112
 1018MOL0     H37414   9.808   0.609   3.200  1.1455 -0.9685 -1.6637
 1018MOL0     H37415   9.934   0.780   3.331 -0.1585 -1.0382  0.4731
 1018MOL0     H37416  10.700   1.409   4.723  0.2488  0.0407  0.3661
 1018MOL0     H37417  10.934   1.451   4.658  0.6713 -0.2809 -0.5908
 1018MOL0     H37418  11.164   1.826   4.404  0.8906  0.9835  0.9369
 1018MOL0     H37419  11.364   1.923   4.302 -0.7252 -1.5971 -1.0606
 1018MOL0     H37420  11.563   1.947   4.212 -0.9045 -1.0698  1.0001
 1018MOL0     H37421  11.635   2.010   4.363 -3.1673  1.5057 -1.7071
 1018MOL0     H37422  11.794   2.055   4.175  3.0823 -1.0837 -0.6750
 1018MOL0     H37423  11.774   1.901   4.104 -0.1726  0.3563 -1.5835
 1018MOL0     H37424  11.874   1.768   4.269  2.0031 -0.3305  1.6396
 1018MOL0     H37425  11.878   1.905   4.374 -0.5178 -1.1324 -0.1497
 1018MOL0     H37426  12.045   1.884   4.108 -1.2050 -2.5992  0.1506
 1018MOL0     H37427  12.102   1.885   4.276  1.4963  0.6545 -2.7219
 1018MOL0     H37428  12.046   2.277   4.272 -1.9759 -1.0414  0.7197
 1018MOL0     H37429  11.606   1.648   4.535  0.5386  3.0814 -0.1189
 1018MOL0     H37430  11.404   1.568   4.640  0.8130  0.4609  0.5107
 1019MOL0     O37431   9.076   3.672   4.067 -0.1781 -0.1027 -0.5088
 1019MOL0     C37432   9.070   3.632   4.183  0.8068  0.0709 -0.6077
 1019MOL0     O37433   9.172   3.574   4.244  0.2375 -0.3963 -0.0642
 1019MOL0     C37434   9.300   3.586   4.197 -0.0862 -0.8904  0.0980
 1019MOL0     C37435   9.395   3.500   4.239  0.3011  0.2170 -0.8248
 1019MOL0     C37436   9.524   3.495   4.186 -0.3104 -0.1656  0.5206
 1019MOL0     C37437   9.568   3.593   4.105 -0.0269  0.5252  0.0420
 1019MOL0     O37438   9.702   3.580   4.061  0.4308 -0.4718  0.2725
 1019MOL0     C37439   9.758   3.676   3.970  0.9487  0.9180  0.2975
 1019MOL0     C37440   9.900   3.661   3.958 -0.3151  0.1791 -1.0704
 1019MOL0     C37441   9.971   3.776   3.877  0.0877 -0.0949 -0.0928
 1019MOL0     C37442  10.120   3.750   3.860 -0.2419 -0.5467 -0.1507
 1019MOL0     C37443  10.200   3.721   3.980 -0.9799  0.4220  0.2906
 1019MOL0     C37444  10.352   3.709   3.963 -0.2458  0.6538  1.0538
 1019MOL0     C37445  10.395   3.621   3.841  0.1738 -0.0967  0.2620
 1019MOL0     C37446  10.367   3.473   3.850 -0.9832 -0.4193 -0.4426
 1019MOL0     N37447  10.432   3.408   3.973  0.3585  0.5301 -0.5271
 1019MOL0     C37448  10.377   3.402   4.104  0.8934  0.7261 -0.0908
 1019MOL0     C37449  10.445   3.319   4.179 -0.3015  0.1319 -0.6706
 1019MOL0     C37450  10.420   3.265   4.314 -1.0828 -0.4332 -1.2154
 1019MOL0     C37451  10.486   3.359   4.422 -0.4501 -0.6684  0.2135
 1019MOL0     C37452  10.641   3.338   4.422 -0.0210 -0.8816  0.7654
 1019MOL0     C37453  10.695   3.429   4.535 -0.8788 -0.7877  0.0864
 1019MOL0     O37454  10.671   3.365   4.666 -0.5171 -0.8871 -0.4505
 1019MOL0     C37455  10.780   3.339   4.752  0.9745  0.2654  0.4236
 1019MOL0     C37456  10.748   3.320   4.887 -0.2341 -0.4875 -0.6040
 1019MOL0     C37457  10.852   3.310   4.979  0.3946  0.6705 -0.9555
 1019MOL0     C37458  10.809   3.284   5.123  0.2750  0.8339 -0.3552
 1019MOL0     C37459  10.986   3.307   4.944  0.7776  0.2990 -0.1793
 1019MOL0     C37460  11.108   3.299   5.036  0.8550 -0.2089 -0.1318
 1019MOL0     O37461  11.227   3.294   4.979  0.0658  0.5369 -0.1482
 1019MOL0     C37462  11.330   3.244   5.060  0.6342 -0.9100 -0.4266
 1019MOL0     C37463  11.438   3.324   5.108 -0.3097  0.0787 -1.0551
 1019MOL0     C37464  11.530   3.252   5.184 -0.4095  0.6631  0.0300
 1019MOL0     C37465  11.522   3.116   5.217  0.2355 -0.4642 -0.4027
 1019MOL0     O37466  11.623   3.069   5.284 -1.0425 -0.4515 -0.3059
 1019MOL0     C37467  11.631   2.927   5.311 -0.4838 -1.0521  0.0916
 1019MOL0     C37468  11.778   2.902   5.353 -0.8541 -0.0831  0.4659
 1019MOL0     C37469  11.809   2.923   5.503  0.6913  0.0498 -0.4376
 1019MOL0     C37470  11.959   2.881   5.523  0.2386 -0.0504  0.1787
 1019MOL0     C37471  12.003   2.911   5.673  0.6209 -0.1221 -0.1620
 1019MOL0     C37472  12.158   2.893   5.693  0.6589  0.6224 -0.6808
 1019MOL0     C37473  12.196   2.924   5.840 -0.1074  0.2009  0.7722
 1019MOL0     C37474  12.349   2.918   5.848 -0.6020  0.3483  0.2044
 1019MOL0    Cl37475  12.406   2.970   6.012 -0.0040 -0.4829  0.0231
 1019MOL0     C37476  11.413   3.048   5.162 -0.3468  0.5226 -0.3223
 1019MOL0     C37477  11.321   3.107   5.077 -0.4961  0.1806 -0.7233
 1019MOL0     O37478  11.092   3.312   5.155  0.6171 -0.0935 -0.2340
 1019MOL0     C37479  11.013   3.317   4.810  0.9881  0.6174  0.7648
 1019MOL0     C37480  10.911   3.325   4.712  0.5256 -0.2366 -0.0379
 1019MOL0     N37481  10.544   3.269   4.098 -0.1867  0.2986 -0.5477
 1019MOL0     N37482  10.531   3.318   3.975  0.5898 -0.1308 -0.6782
 1019MOL0     C37483   9.486   3.696   4.062  0.0452  0.2580  0.0297
 1019MOL0     C37484   9.351   3.691   4.113 -0.1745  0.4920 -0.7392
 1019MOL0     C37485   8.947   3.611   4.250  0.7410 -0.0392 -0.4976
 1019MOL0     C37486   8.825   3.590   4.178 -0.4104 -0.2955 -0.7656
 1019MOL0     C37487   8.709   3.561   4.249  0.0323 -0.7188  0.2373
 1019MOL0     C37488   8.705   3.545   4.385  0.5567 -0.3592 -0.2232
 1019MOL0     O37489   8.593   3.497   4.459  0.3810 -0.2499 -0.2574
 1019MOL0     C37490   8.517   3.393   4.397  0.1508 -0.4769  0.0714
 1019MOL0     C37491   8.393   3.357   4.467  1.3395 -0.0909 -0.3776
 1019MOL0     C37492   8.285   3.465   4.436 -0.0533  0.2010  0.0022
 1019MOL0     C37493   8.157   3.417   4.500 -0.3737 -0.5162 -0.2531
 1019MOL0     C37494   8.052   3.501   4.453 -0.6815 -0.1735  1.1817
 1019MOL0     C37495   7.976   3.575   4.396  0.1651  0.8494 -0.3989
 1019MOL0     C37496   8.822   3.571   4.456 -0.0413  0.4950  0.5377
 1019MOL0     C37497   8.936   3.609   4.387 -0.2815  0.6053  0.0058
 1019MOL0     H37498   9.370   3.420   4.308 -3.3951  1.7986 -0.0671
 1019MOL0     H37499   9.600   3.425   4.220  0.1146  1.3817  2.9885
 1019MOL0     H37500   9.713   3.671   3.871  0.6017 -0.6210  0.5035
 1019MOL0     H37501   9.743   3.774   4.015  0.0721 -0.0761  2.2905
 1019MOL0     H37502   9.939   3.657   4.060 -1.8090 -3.0812 -0.4793
 1019MOL0     H37503   9.922   3.560   3.921  1.6450  0.4257 -0.6997
 1019MOL0     H37504   9.927   3.809   3.783 -1.0653  0.9952  0.7981
 1019MOL0     H37505   9.962   3.871   3.931  1.2204  0.3897 -0.7310
 1019MOL0     H37506  10.116   3.666   3.791 -1.9300 -1.4859  1.0065
 1019MOL0     H37507  10.160   3.843   3.819  0.8104 -0.1778  1.6121
 1019MOL0     H37508  10.191   3.806   4.048 -0.2018  1.6527 -1.0735
 1019MOL0     H37509  10.160   3.632   4.029 -1.2256  0.3177 -0.1014
 1019MOL0     H37510  10.396   3.809   3.955  0.7691  0.1054 -1.2631
 1019MOL0     H37511  10.392   3.668   4.056  0.6667  0.7503  0.7141
 1019MOL0     H37512  10.349   3.668   3.754 -1.9273 -1.7602  0.3882
 1019MOL0     H37513  10.504   3.634   3.835  0.1415 -0.0132 -0.1385
 1019MOL0     H37514  10.418   3.430   3.764 -0.2243 -0.3449 -0.0356
 1019MOL0     H37515  10.262   3.449   3.832 -1.8281  0.1091  2.9832
 1019MOL0     H37516  10.283   3.442   4.140 -0.8892 -1.0817 -2.3821
 1019MOL0     H37517  10.315   3.248   4.342 -0.6427  0.9939  1.7902
 1019MOL0     H37518  10.470   3.168   4.322 -0.6027 -0.0758  0.5212
 1019MOL0     H37519  10.448   3.323   4.518  1.2717 -0.8839  0.8403
 1019MOL0     H37520  10.460   3.463   4.399 -2.6127 -1.8311 -3.5865
 1019MOL0     H37521  10.693   3.373   4.333  0.4054 -2.3079  0.4343
 1019MOL0     H37522  10.670   3.234   4.433  2.3268 -0.1029  2.9879
 1019MOL0     H37523  10.646   3.526   4.544  0.0929 -0.3668  1.1547
 1019MOL0     H37524  10.801   3.457   4.533 -0.7997 -0.4605  3.3851
 1019MOL0     H37525  10.643   3.308   4.915  0.2398 -0.1219  1.5087
 1019MOL0     H37526  10.702   3.262   5.136  0.4137  0.0766 -0.4509
 1019MOL0     H37527  10.861   3.199   5.167 -0.1993  0.9915  0.5355
 1019MOL0     H37528  10.826   3.377   5.177 -0.9554 -0.1937  1.9423
 1019MOL0     H37529  11.449   3.429   5.086  1.6382  0.1370 -0.0461
 1019MOL0     H37530  11.609   3.308   5.232  1.0726  0.7664 -2.3764
 1019MOL0     H37531  11.550   2.885   5.371 -0.7231 -1.6805 -0.6524
 1019MOL0     H37532  11.633   2.871   5.217  1.4244  0.3404 -0.7816
 1019MOL0     H37533  11.815   2.802   5.328  2.0445  1.0773 -0.3471
 1019MOL0     H37534  11.839   2.977   5.302 -3.4778  2.4606  0.7952
 1019MOL0     H37535  11.746   2.858   5.565 -1.1644  0.0762 -2.2180
 1019MOL0     H37536  11.787   3.025   5.536  2.7644  0.6869 -0.8344
 1019MOL0     H37537  11.964   2.774   5.500 -0.1501 -0.5181  2.0714
 1019MOL0     H37538  12.022   2.936   5.453  1.5180 -2.6589 -0.8557
 1019MOL0     H37539  11.943   2.843   5.735 -0.8945  0.8794 -0.4767
 1019MOL0     H37540  11.963   3.008   5.704 -2.1866 -1.0008 -0.6804
 1019MOL0     H37541  12.194   2.795   5.658  0.9998  0.9131 -1.1655
 1019MOL0     H37542  12.219   2.948   5.621  3.2775 -2.3987 -1.0281
 1019MOL0     H37543  12.140   2.856   5.905 -1.9742 -0.3104 -1.2370
 1019MOL0     H37544  12.177   3.029   5.863 -0.7029  0.2174  0.2140
 1019MOL0     H37545  12.402   2.979   5.776  1.1587 -0.5832  0.6391
 1019MOL0     H37546  12.390   2.818   5.830 -0.1032  0.7235 -0.7611
 1019MOL0     H37547  11.397   2.945   5.192  0.0570 -0.5362 -3.3668
 1019MOL0     H37548  11.250   3.047   5.022  0.6897 -1.6800 -0.3370
 1019MOL0     H37549  11.113   3.333   4.770  0.2675  1.4782 -0.7976
 1019MOL0     H37550  10.944   3.335   4.609 -2.0049  0.0288 -0.8889
 1019MOL0     H37551   9.515   3.780   4.000  1.5155  0.7285  1.2920
 1019MOL0     H37552   9.291   3.777   4.086 -1.3481  0.4425  1.5032
 1019MOL0     H37553   8.824   3.578   4.070  2.0722 -0.6001 -0.8148
 1019MOL0     H37554   8.628   3.524   4.187 -0.1001 -0.3539  0.1933
 1019MOL0     H37555   8.494   3.425   4.295  0.0471  2.0557  0.8163
 1019MOL0     H37556   8.576   3.303   4.374  0.2760 -0.4190  0.1655
 1019MOL0     H37557   8.412   3.366   4.575 -1.9518  4.1253  0.1027
 1019MOL0     H37558   8.349   3.261   4.440 -0.7639  1.3356 -2.4039
 1019MOL0     H37559   8.264   3.477   4.330  0.5562 -0.5838 -0.2183
 1019MOL0     H37560   8.314   3.559   4.482 -1.6530  1.3855 -1.3074
 1019MOL0     H37561   8.166   3.425   4.609 -1.9531  5.9136 -0.1950
 1019MOL0     H37562   8.137   3.315   4.467 -1.3870 -0.2917 -0.3472
 1019MOL0     H37563   7.911   3.656   4.367 -0.0601  1.0600  0.6713
 1019MOL0     H37564   8.827   3.563   4.564  4.6497  0.4952  0.5317
 1019MOL0     H37565   9.020   3.627   4.453 -1.7579  1.5996  1.7099
 1020MOL0     O37566   0.008  10.102   3.022  0.2655 -0.6910  0.1258
 1020MOL0     C37567   0.071  10.113   2.916  0.2377 -0.1766 -0.4369
 1020MOL0     O37568   0.014  10.124   2.793  0.5096  0.4756  0.1658
 1020MOL0     C37569  -0.112  10.068   2.770  0.4076  0.8094 -0.0365
 1020MOL0     C37570  -0.135   9.925   2.794  0.0141  0.1930  0.2824
 1020MOL0     C37571  -0.260   9.871   2.745 -0.2445 -0.0407 -0.5351
 1020MOL0     C37572  -0.371   9.954   2.713 -0.8313 -1.1806 -0.5749
 1020MOL0     O37573  -0.492   9.904   2.693  0.3502 -0.0406  0.0397
 1020MOL0     C37574  -0.550   9.814   2.792 -0.2649  0.0549  0.2248
 1020MOL0     C37575  -0.690   9.765   2.748 -0.1210  0.3657 -0.2567
 1020MOL0     C37576  -0.764   9.688   2.855  0.2912  0.6258  0.9001
 1020MOL0     C37577  -0.894   9.622   2.799  0.3871  0.3609  0.1632
 1020MOL0     C37578  -0.929   9.511   2.898 -0.2119  1.0061 -0.8130
 1020MOL0     C37579  -1.076   9.467   2.875 -0.1876  0.5537 -0.2165
 1020MOL0     C37580  -1.182   9.541   2.960  0.5101  0.1237 -1.6032
 1020MOL0     C37581  -1.196   9.497   3.107  0.8501 -0.2879  0.1885
 1020MOL0     N37582  -1.336   9.495   3.155  0.2782 -0.4331  0.0263
 1020MOL0     C37583  -1.413   9.601   3.155  0.0961 -0.6655  0.1913
 1020MOL0     C37584  -1.536   9.556   3.169  0.3620 -0.5922  0.7697
 1020MOL0     C37585  -1.663   9.644   3.176  0.1108 -0.3381  0.0751
 1020MOL0     C37586  -1.715   9.656   3.034  0.5388  0.0230 -0.2088
 1020MOL0     C37587  -1.777   9.531   2.979  0.3834  0.9039  0.2946
 1020MOL0     C37588  -1.880   9.459   3.064  0.1273 -0.0479 -0.8439
 1020MOL0     O37589  -1.996   9.540   3.085  0.2148  0.4124  1.0363
 1020MOL0     C37590  -2.115   9.499   3.038  0.6570  0.3176  0.0886
 1020MOL0     C37591  -2.200   9.405   3.100 -0.1142  1.1360 -0.1765
 1020MOL0     C37592  -2.328   9.355   3.044 -0.6125 -0.4233  0.2708
 1020MOL0     C37593  -2.413   9.262   3.127 -0.2877  0.1609 -0.1588
 1020MOL0     C37594  -2.363   9.397   2.912  0.6347 -0.3805  0.1338
 1020MOL0     C37595  -2.496   9.360   2.847  0.6350 -0.8196 -0.2904
 1020MOL0     O37596  -2.543   9.229   2.860 -0.6178  0.0554 -0.5865
 1020MOL0     C37597  -2.646   9.192   2.780  0.4520 -0.5768 -0.4590
 1020MOL0     C37598  -2.622   9.097   2.683  0.2656 -0.3143  0.0262
 1020MOL0     C37599  -2.726   9.063   2.602  0.3277  0.3629 -0.5988
 1020MOL0     C37600  -2.853   9.120   2.614  0.4878 -0.2528 -0.3057
 1020MOL0     O37601  -2.946   9.061   2.525  0.0366 -0.3509 -0.4374
 1020MOL0     C37602  -3.089   9.060   2.564 -0.6345  0.4159 -0.2743
 1020MOL0     C37603  -3.112   8.943   2.645 -0.1978  0.0087  0.0381
 1020MOL0     C37604  -3.259   8.937   2.697  0.3346 -0.3552 -0.3746
 1020MOL0     C37605  -3.288   8.837   2.797  0.1897  0.1089  0.1690
 1020MOL0     C37606  -3.426   8.851   2.852 -0.0367 -0.0768 -0.0798
 1020MOL0     C37607  -3.471   8.732   2.945  0.1536  0.2716  0.6401
 1020MOL0     C37608  -3.490   8.605   2.862 -0.4588  0.6942  0.0826
 1020MOL0     C37609  -3.469   8.485   2.953 -1.1605 -0.4665 -0.3488
 1020MOL0    Cl37610  -3.585   8.482   3.090  0.2818  0.2217  0.1807
 1020MOL0     C37611  -2.876   9.215   2.719 -0.0007 -0.6335  0.1812
 1020MOL0     C37612  -2.769   9.245   2.802  0.5124 -1.0948  0.1261
 1020MOL0     O37613  -2.557   9.458   2.793 -0.0413  0.1998 -0.4155
 1020MOL0     C37614  -2.276   9.506   2.855  0.5821  0.3626 -0.3038
 1020MOL0     C37615  -2.151   9.536   2.914 -0.2625 -0.5837  0.0744
 1020MOL0     N37616  -1.535   9.412   3.177  0.6225  0.3892 -0.1872
 1020MOL0     N37617  -1.414   9.383   3.176  0.7159  0.6043 -0.1177
 1020MOL0     C37618  -0.348  10.089   2.708 -0.4367 -0.2445 -0.4283
 1020MOL0     C37619  -0.219  10.144   2.727  0.3583  0.5647 -0.0305
 1020MOL0     C37620   0.214  10.125   2.932 -0.4848 -0.0077  0.1940
 1020MOL0     C37621   0.274  10.165   3.048 -0.9440  0.7705 -0.3766
 1020MOL0     C37622   0.410  10.161   3.082 -0.4059 -0.2014 -0.2840
 1020MOL0     C37623   0.494  10.115   2.986 -0.1175  0.7301  0.5530
 1020MOL0     O37624   0.632  10.124   3.011  0.2796  0.7823  0.1429
 1020MOL0     C37625   0.728  10.039   2.948  0.9272  0.8050  0.0423
 1020MOL0     C37626   0.877  10.084   2.985  0.4369 -0.7909 -0.3083
 1020MOL0     C37627   0.915  10.059   3.133 -0.4738  0.0856  0.3718
 1020MOL0     C37628   0.834  10.139   3.241 -0.3852 -0.7094 -0.5336
 1020MOL0     C37629   0.846  10.280   3.213 -0.1775 -0.3121  0.0843
 1020MOL0     C37630   0.861  10.393   3.185  0.5617 -0.2959  0.2308
 1020MOL0     C37631   0.439  10.085   2.854 -0.7494 -0.0417  0.6821
 1020MOL0     C37632   0.302  10.083   2.830 -0.1895 -0.1165  0.3417
 1020MOL0     H37633  -0.055   9.859   2.826  0.9677 -0.3685 -2.8882
 1020MOL0     H37634  -0.277   9.764   2.748  0.4243 -0.1387 -0.0729
 1020MOL0     H37635  -0.491   9.728   2.825 -1.0530 -0.5120  0.1667
 1020MOL0     H37636  -0.566   9.875   2.881 -2.7045  0.6951 -0.5637
 1020MOL0     H37637  -0.746   9.853   2.715  1.0427  1.0793 -0.4074
 1020MOL0     H37638  -0.679   9.704   2.658 -1.7075 -0.3619  0.0218
 1020MOL0     H37639  -0.696   9.610   2.889 -0.1838 -0.7837 -1.2237
 1020MOL0     H37640  -0.799   9.753   2.936  0.2170  1.2265  0.3910
 1020MOL0     H37641  -0.978   9.690   2.785  1.5609  2.1309  1.3099
 1020MOL0     H37642  -0.879   9.577   2.700  0.1737  0.1330  0.2336
 1020MOL0     H37643  -0.853   9.434   2.884 -1.3064  0.0667 -1.6851
 1020MOL0     H37644  -0.933   9.553   2.999  3.6044  2.3713 -1.0499
 1020MOL0     H37645  -1.102   9.463   2.769  0.8514  0.0818 -0.4656
 1020MOL0     H37646  -1.088   9.360   2.897 -3.5796  0.2868 -2.6229
 1020MOL0     H37647  -1.156   9.647   2.960  1.3533 -0.0719 -1.6116
 1020MOL0     H37648  -1.276   9.528   2.906  0.6160  0.9701 -2.0128
 1020MOL0     H37649  -1.137   9.573   3.159 -1.1881  0.6819  1.1816
 1020MOL0     H37650  -1.147   9.400   3.119  2.7191  0.5473 -0.2865
 1020MOL0     H37651  -1.379   9.704   3.159 -0.1937 -0.5447 -0.3834
 1020MOL0     H37652  -1.749   9.598   3.224  0.0389 -1.6493 -1.2356
 1020MOL0     H37653  -1.642   9.738   3.228  3.0334 -1.7783  1.7787
 1020MOL0     H37654  -1.636   9.676   2.962  0.1615  1.0186 -0.3677
 1020MOL0     H37655  -1.785   9.741   3.033  1.7973  1.1077  0.2687
 1020MOL0     H37656  -1.710   9.444   2.974  0.4483  0.9456  0.4298
 1020MOL0     H37657  -1.821   9.542   2.880  1.4134 -3.3002 -0.8619
 1020MOL0     H37658  -1.844   9.413   3.156 -3.3001 -1.0566  0.1699
 1020MOL0     H37659  -1.910   9.374   3.002 -0.4376  0.0803 -0.7508
 1020MOL0     H37660  -2.159   9.369   3.193  0.3934 -4.6685 -2.2700
 1020MOL0     H37661  -2.394   9.258   3.234 -2.1210 -2.0239  0.1643
 1020MOL0     H37662  -2.520   9.283   3.114 -0.8234 -3.0599 -2.1413
 1020MOL0     H37663  -2.387   9.164   3.086 -1.6334 -0.2083 -0.1764
 1020MOL0     H37664  -2.530   9.041   2.683 -0.0855 -0.9022 -0.0071
 1020MOL0     H37665  -2.731   8.981   2.531  0.2659  0.2779 -0.4957
 1020MOL0     H37666  -3.119   9.147   2.623 -4.1071 -0.9278  0.1203
 1020MOL0     H37667  -3.154   9.042   2.478 -2.5247 -1.5589  1.4500
 1020MOL0     H37668  -3.088   8.861   2.577 -0.7767  0.8462 -1.2190
 1020MOL0     H37669  -3.054   8.943   2.738 -0.8261 -2.7758  0.5352
 1020MOL0     H37670  -3.325   8.931   2.609 -0.1547  0.1347 -0.0492
 1020MOL0     H37671  -3.294   9.034   2.735 -0.4115 -0.7961  0.0888
 1020MOL0     H37672  -3.259   8.737   2.762  1.9252  0.6376 -0.0029
 1020MOL0     H37673  -3.228   8.859   2.886  0.0446  1.6731 -0.0980
 1020MOL0     H37674  -3.504   8.882   2.782 -2.5907  1.0952  3.0226
 1020MOL0     H37675  -3.414   8.942   2.912 -0.2213  1.0871 -1.7545
 1020MOL0     H37676  -3.389   8.718   3.017 -1.0339  1.8584  2.3752
 1020MOL0     H37677  -3.567   8.742   2.996 -1.3327  3.8543 -2.4111
 1020MOL0     H37678  -3.421   8.599   2.777  0.8942  0.8483  1.1418
 1020MOL0     H37679  -3.590   8.615   2.818 -0.3615 -2.0460 -0.9199
 1020MOL0     H37680  -3.365   8.492   2.986 -0.6322 -1.5187 -1.7176
 1020MOL0     H37681  -3.474   8.391   2.898  1.1895 -0.6082 -0.4039
 1020MOL0     H37682  -2.976   9.254   2.729  0.3547  0.1314  0.8999
 1020MOL0     H37683  -2.783   9.316   2.884 -0.0401 -0.3730 -0.5784
 1020MOL0     H37684  -2.294   9.557   2.761 -0.4924 -0.6151 -0.6604
 1020MOL0     H37685  -2.088   9.614   2.871 -0.2362  1.2879  3.2197
 1020MOL0     H37686  -0.434  10.150   2.683  0.1369  1.9434  2.3964
 1020MOL0     H37687  -0.211  10.251   2.708  1.0472  0.4944 -0.1694
 1020MOL0     H37688   0.202  10.176   3.129  0.4806 -2.4217  1.4890
 1020MOL0     H37689   0.437  10.186   3.184 -1.2887  0.5750 -0.2254
 1020MOL0     H37690   0.723   9.943   3.002 -0.4937 -1.8880 -4.3454
 1020MOL0     H37691   0.712  10.017   2.842  1.1477  1.6005 -0.1615
 1020MOL0     H37692   0.887  10.188   2.951 -0.9871 -1.1146 -1.8534
 1020MOL0     H37693   0.941  10.019   2.924 -1.6125 -3.1612 -0.0810
 1020MOL0     H37694   1.023  10.069   3.139 -0.1549 -1.8401 -0.9899
 1020MOL0     H37695   0.886   9.954   3.150 -3.1739  0.9404  1.5879
 1020MOL0     H37696   0.880  10.136   3.341 -1.3522  1.0195  0.0234
 1020MOL0     H37697   0.729  10.108   3.243 -1.0922  1.5333  0.6696
 1020MOL0     H37698   0.860  10.497   3.160  0.0872 -0.8578 -2.3817
 1020MOL0     H37699   0.500  10.063   2.768 -1.4914 -1.0439  0.3939
 1020MOL0     H37700   0.277  10.044   2.731  0.6216 -1.8913  0.7792
 1021MOL0     O37701   5.531  11.041   9.099  0.1083  1.1209 -0.1161
 1021MOL0     C37702   5.506  10.935   9.038  0.2862  0.5592 -1.0850
 1021MOL0     O37703   5.399  10.904   8.969 -0.1288  0.5086  0.4417
 1021MOL0     C37704   5.294  10.990   8.984 -0.4212 -0.6008  0.9504
 1021MOL0     C37705   5.199  10.981   9.080  0.1040  0.4123  0.3522
 1021MOL0     C37706   5.111  11.083   9.109 -0.5521 -0.0341  0.0450
 1021MOL0     C37707   5.114  11.203   9.026  1.0500  0.4713 -0.5602
 1021MOL0     O37708   5.039  11.305   9.079 -0.0590  0.0683  0.5464
 1021MOL0     C37709   4.960  11.370   8.978 -0.0815 -0.1114  0.1471
 1021MOL0     C37710   4.820  11.341   9.025 -0.2945 -0.3847 -0.6651
 1021MOL0     C37711   4.738  11.277   8.909  0.4535  0.0435  0.2655
 1021MOL0     C37712   4.782  11.133   8.858  0.8679 -0.1302 -0.9830
 1021MOL0     C37713   4.660  11.056   8.806  0.3048 -0.7182  0.4727
 1021MOL0     C37714   4.583  11.121   8.685 -0.5653 -0.3009  0.3804
 1021MOL0     C37715   4.470  11.044   8.637  0.0417 -0.0193 -0.0625
 1021MOL0     C37716   4.503  10.910   8.567  0.1785 -0.1058 -0.4667
 1021MOL0     N37717   4.384  10.828   8.549 -0.1024  0.9092 -0.4164
 1021MOL0     C37718   4.284  10.863   8.456  0.2986 -0.0356 -0.3709
 1021MOL0     C37719   4.191  10.761   8.479 -1.3071 -0.5152  0.0998
 1021MOL0     C37720   4.068  10.727   8.393 -0.4096 -0.8394  0.9789
 1021MOL0     C37721   4.058  10.772   8.246 -0.3068  0.3607  0.1431
 1021MOL0     C37722   4.181  10.720   8.162  0.2528 -0.6235 -0.2942
 1021MOL0     C37723   4.227  10.820   8.063  0.0859 -1.3859  0.5132
 1021MOL0     O37724   4.283  10.929   8.130 -0.5172 -0.3417 -0.5065
 1021MOL0     C37725   4.379  11.015   8.068  0.5710  0.8654 -1.5891
 1021MOL0     C37726   4.435  10.984   7.947 -0.2728 -0.0807  0.3685
 1021MOL0     C37727   4.536  11.068   7.895  0.2782  0.3195 -0.4916
 1021MOL0     C37728   4.597  11.027   7.771 -0.4360  0.6385 -0.8495
 1021MOL0     C37729   4.571  11.186   7.958  0.8611 -0.1978 -0.5928
 1021MOL0     C37730   4.677  11.261   7.906 -0.9447  0.4295 -0.0183
 1021MOL0     O37731   4.645  11.358   7.810 -0.7137  1.1735  0.1776
 1021MOL0     C37732   4.510  11.375   7.771 -0.2696  0.3867  0.6924
 1021MOL0     C37733   4.434  11.475   7.828 -0.7516  0.7306  0.3825
 1021MOL0     C37734   4.309  11.506   7.775 -0.7139 -0.5145 -0.7864
 1021MOL0     C37735   4.259  11.431   7.668  1.3572 -0.6485  0.5868
 1021MOL0     O37736   4.137  11.466   7.620  0.2168 -0.4191 -0.3729
 1021MOL0     C37737   4.042  11.361   7.610  0.1116 -0.5132  0.5021
 1021MOL0     C37738   3.907  11.424   7.614  0.0410 -0.6328 -0.5734
 1021MOL0     C37739   3.871  11.457   7.762  0.2179 -0.0538  0.4476
 1021MOL0     C37740   3.721  11.448   7.781 -0.0248 -0.9471 -0.7932
 1021MOL0     C37741   3.673  11.562   7.881 -0.4346 -0.2229 -0.3651
 1021MOL0     C37742   3.522  11.556   7.908 -0.0667 -0.6402 -0.0149
 1021MOL0     C37743   3.470  11.685   7.992  0.2786 -0.1555  0.7108
 1021MOL0     C37744   3.451  11.681   8.144 -0.3942 -0.3397 -0.5642
 1021MOL0    Cl37745   3.606  11.624   8.217  0.1000  0.0258 -0.2947
 1021MOL0     C37746   4.335  11.334   7.611  1.0751 -0.3306  0.3977
 1021MOL0     C37747   4.460  11.303   7.664 -0.3696  0.0901 -0.0019
 1021MOL0     O37748   4.793  11.243   7.949  0.1241 -0.1054 -0.0866
 1021MOL0     C37749   4.509  11.225   8.069  0.5686 -0.0483  0.8360
 1021MOL0     C37750   4.414  11.137   8.129 -0.8823  0.1045  0.8196
 1021MOL0     N37751   4.237  10.672   8.565 -0.0202  0.0699 -0.5183
 1021MOL0     N37752   4.355  10.711   8.599 -0.4429  0.5730  0.0083
 1021MOL0     C37753   5.201  11.207   8.917  0.2205 -0.7667  0.8073
 1021MOL0     C37754   5.288  11.103   8.896  0.5040 -0.4385 -0.3729
 1021MOL0     C37755   5.625  10.846   9.011  0.4606  0.2743 -0.0403
 1021MOL0     C37756   5.738  10.847   9.101 -0.5938  0.0281 -0.0170
 1021MOL0     C37757   5.854  10.781   9.065 -0.0906  0.1689  0.2878
 1021MOL0     C37758   5.864  10.701   8.948 -0.5708 -0.1384 -0.5755
 1021MOL0     O37759   5.976  10.633   8.907 -0.1932  0.0117  0.1101
 1021MOL0     C37760   6.103  10.684   8.954 -0.1561 -0.8628 -0.1736
 1021MOL0     C37761   6.208  10.590   8.912 -0.2792 -0.2522 -0.5579
 1021MOL0     C37762   6.214  10.579   8.757 -0.9084  0.2892 -0.3303
 1021MOL0     C37763   6.332  10.496   8.713 -0.0869 -1.1610  0.0894
 1021MOL0     C37764   6.336  10.366   8.767  0.4956  0.3081 -0.3815
 1021MOL0     C37765   6.352  10.259   8.809  0.2950 -0.0288  0.4851
 1021MOL0     C37766   5.752  10.693   8.869  0.6812 -0.1981  0.3691
 1021MOL0     C37767   5.638  10.772   8.902 -0.6585 -0.0892  0.0329
 1021MOL0     H37768   5.186  10.886   9.131 -1.3812 -0.4188 -1.4683
 1021MOL0     H37769   5.045  11.061   9.192 -1.5462 -0.7437 -0.8928
 1021MOL0     H37770   4.976  11.478   8.981  2.3086 -0.4166  0.3498
 1021MOL0     H37771   4.991  11.341   8.878 -4.5531  2.9037 -2.4911
 1021MOL0     H37772   4.826  11.283   9.117  3.2714 -1.4377 -1.4277
 1021MOL0     H37773   4.763  11.432   9.048 -0.3296 -0.3991 -0.6923
 1021MOL0     H37774   4.637  11.276   8.951  0.6760  3.6861  1.2342
 1021MOL0     H37775   4.722  11.348   8.828 -3.7401 -1.3390 -0.3582
 1021MOL0     H37776   4.867  11.143   8.789 -0.0908  0.6279 -2.0930
 1021MOL0     H37777   4.816  11.072   8.942 -0.8949 -0.1073 -0.2095
 1021MOL0     H37778   4.698  10.958   8.773  0.1576  0.1738 -2.6044
 1021MOL0     H37779   4.573  11.028   8.866 -2.0263  0.6713 -2.0360
 1021MOL0     H37780   4.543  11.219   8.710 -1.3463 -0.3770 -0.5074
 1021MOL0     H37781   4.649  11.132   8.598 -1.0068 -0.7986 -0.0200
 1021MOL0     H37782   4.406  11.028   8.725 -0.8937 -2.0476 -1.0359
 1021MOL0     H37783   4.403  11.103   8.573 -0.8040 -0.5824  0.2848
 1021MOL0     H37784   4.571  10.852   8.630 -0.5667 -0.3204  0.1646
 1021MOL0     H37785   4.545  10.926   8.468  0.2196 -1.8384 -0.7709
 1021MOL0     H37786   4.285  10.946   8.386  1.5659 -0.0674 -0.4160
 1021MOL0     H37787   4.068  10.618   8.386 -2.9285 -1.0526  3.0362
 1021MOL0     H37788   3.979  10.762   8.447  1.7061  1.1570  3.4579
 1021MOL0     H37789   4.049  10.880   8.242 -0.1019  0.3422 -1.6206
 1021MOL0     H37790   3.967  10.728   8.205  0.2070  0.5547 -1.2859
 1021MOL0     H37791   4.160  10.625   8.110 -4.4144  0.4617 -0.9113
 1021MOL0     H37792   4.264  10.697   8.228 -1.1462 -0.2120  1.6924
 1021MOL0     H37793   4.147  10.853   7.997  2.6288  2.2281 -1.1286
 1021MOL0     H37794   4.297  10.775   7.991  2.2371  2.0631  0.1967
 1021MOL0     H37795   4.414  10.899   7.882 -2.8399  2.4369 -2.3971
 1021MOL0     H37796   4.525  11.018   7.689 -0.0675 -1.0382 -1.0224
 1021MOL0     H37797   4.676  11.095   7.735  0.2223  0.0785 -0.4922
 1021MOL0     H37798   4.644  10.930   7.791  0.7782  1.6615  1.8302
 1021MOL0     H37799   4.481  11.536   7.904  1.0285 -0.0504 -0.0359
 1021MOL0     H37800   4.263  11.592   7.824  2.2540  0.2493  0.8785
 1021MOL0     H37801   4.051  11.324   7.507  1.2593 -0.1799  0.4701
 1021MOL0     H37802   4.065  11.284   7.684  3.8976  2.3238  2.6484
 1021MOL0     H37803   3.899  11.519   7.560 -1.8302 -0.5920 -0.2736
 1021MOL0     H37804   3.840  11.350   7.570  0.5127 -1.7436  0.5229
 1021MOL0     H37805   3.908  11.559   7.778 -0.4665  0.5483 -1.5248
 1021MOL0     H37806   3.920  11.403   7.844 -2.3450 -2.5856  0.4373
 1021MOL0     H37807   3.666  11.464   7.687 -1.5345 -3.6238 -0.4874
 1021MOL0     H37808   3.681  11.353   7.817 -3.3973  0.0440 -1.5683
 1021MOL0     H37809   3.700  11.662   7.847 -1.3791  0.5054  0.9192
 1021MOL0     H37810   3.722  11.539   7.976 -1.0583 -1.3009 -0.2798
 1021MOL0     H37811   3.470  11.563   7.813  0.5624 -1.3398 -0.4243
 1021MOL0     H37812   3.476  11.466   7.950 -3.4071  1.4868  1.3033
 1021MOL0     H37813   3.372  11.703   7.945  0.0091 -1.2068  0.8488
 1021MOL0     H37814   3.537  11.769   7.971 -2.3160  1.5598 -1.4459
 1021MOL0     H37815   3.378  11.601   8.162  2.7040 -3.6465 -1.3315
 1021MOL0     H37816   3.416  11.772   8.194 -1.0089 -0.5128 -0.6636
 1021MOL0     H37817   4.288  11.277   7.531  4.0888 -1.9658 -0.3688
 1021MOL0     H37818   4.519  11.229   7.610 -1.8429  0.2886 -1.9943
 1021MOL0     H37819   4.530  11.321   8.115 -1.9581  2.2317 -2.2898
 1021MOL0     H37820   4.370  11.165   8.224 -1.3197 -0.9391  0.9458
 1021MOL0     H37821   5.220  11.295   8.857  2.4529 -2.6672 -1.5057
 1021MOL0     H37822   5.367  11.102   8.822  2.6122  0.1769  1.7736
 1021MOL0     H37823   5.747  10.919   9.182 -0.7080 -2.1059  2.0341
 1021MOL0     H37824   5.944  10.794   9.123 -0.3816  3.1432  0.2341
 1021MOL0     H37825   6.127  10.785   8.921  0.9952 -0.7361  0.9659
 1021MOL0     H37826   6.114  10.681   9.063  0.7101  0.6413 -0.1898
 1021MOL0     H37827   6.172  10.492   8.944 -1.7479  0.6034  0.5628
 1021MOL0     H37828   6.306  10.621   8.950 -0.2535  2.7513 -2.7089
 1021MOL0     H37829   6.219  10.678   8.710 -1.3695  1.1563  1.3535
 1021MOL0     H37830   6.125  10.530   8.716 -0.7843  1.0758 -1.6100
 1021MOL0     H37831   6.421  10.550   8.747 -0.4966  1.3351 -2.3765
 1021MOL0     H37832   6.325  10.486   8.604  2.3760 -1.8161 -0.0713
 1021MOL0     H37833   6.378  10.156   8.825  1.4029 -0.1357 -1.6810
 1021MOL0     H37834   5.751  10.638   8.775  1.9540  0.1637  0.1248
 1021MOL0     H37835   5.566  10.770   8.820  2.2833  0.4569 -2.7670
 1022MOL0     O37836   4.701   4.656   0.195  0.0068  0.5034 -0.5966
 1022MOL0     C37837   4.731   4.566   0.272 -0.7088  0.4771  0.4230
 1022MOL0     O37838   4.638   4.479   0.324  1.3943  0.1963 -0.4727
 1022MOL0     C37839   4.501   4.497   0.298 -0.3417 -0.0672  0.4178
 1022MOL0     C37840   4.415   4.591   0.351  0.2237  0.4394 -0.2938
 1022MOL0     C37841   4.277   4.590   0.310 -0.5178  0.1189 -0.7447
 1022MOL0     C37842   4.235   4.513   0.207  0.1800 -0.2286  0.2856
 1022MOL0     O37843   4.101   4.534   0.170 -0.6612 -0.2006  0.2853
 1022MOL0     C37844   4.052   4.469   0.051 -0.3430  0.2227  0.4799
 1022MOL0     C37845   3.909   4.431   0.063  0.3158  0.3491  0.7142
 1022MOL0     C37846   3.830   4.559   0.104  0.4529  0.5915 -0.2317
 1022MOL0     C37847   3.682   4.533   0.079  0.3212  0.2168  0.6397
 1022MOL0     C37848   3.607   4.444   0.174  0.1488 -0.6282  0.9731
 1022MOL0     C37849   3.463   4.424   0.109  0.1225 -0.6985 -0.2676
 1022MOL0     C37850   3.395   4.332   0.209 -0.2617 -0.1229 -0.5117
 1022MOL0     C37851   3.248   4.320   0.155 -0.5813 -0.1310 -0.2500
 1022MOL0     N37852   3.164   4.222   0.233 -0.2536 -0.1616  0.2740
 1022MOL0     C37853   3.165   4.089   0.217  1.0107  0.3638 -0.4817
 1022MOL0     C37854   3.106   4.037   0.325 -0.0483  0.5036 -0.7888
 1022MOL0     C37855   3.110   3.885   0.333  0.8306 -0.8281  1.0760
 1022MOL0     C37856   2.971   3.829   0.306  0.0250  0.4799  0.2582
 1022MOL0     C37857   2.923   3.843   0.163 -0.1714  0.0810  0.0674
 1022MOL0     C37858   2.943   3.714   0.092  0.2080 -0.3633  0.9481
 1022MOL0     O37859   2.952   3.743  -0.047 -0.2284 -0.7522  0.2089
 1022MOL0     C37860   2.837   3.726  -0.115 -0.6439 -0.0065 -0.0705
 1022MOL0     C37861   2.853   3.706  -0.250  0.0340  0.0810  0.1531
 1022MOL0     C37862   2.756   3.641  -0.333  0.0594 -0.6510 -0.4006
 1022MOL0     C37863   2.789   3.606  -0.471  0.0664  0.7734  0.3786
 1022MOL0     C37864   2.624   3.615  -0.273 -1.0586 -0.1960 -0.7106
 1022MOL0     C37865   2.515   3.555  -0.341  0.3132  0.1372 -0.0954
 1022MOL0     O37866   2.391   3.562  -0.279  0.3524 -0.0943 -0.1556
 1022MOL0     C37867   2.275   3.594  -0.345 -0.4160  0.5853  0.9261
 1022MOL0     C37868   2.263   3.630  -0.483 -0.7775 -0.3305  0.5579
 1022MOL0     C37869   2.137   3.660  -0.544  1.2498 -0.1187  0.0083
 1022MOL0     C37870   2.024   3.656  -0.462 -1.1227 -1.1319 -0.5464
 1022MOL0     O37871   1.898   3.686  -0.514 -0.5336 -0.4207 -0.0541
 1022MOL0     C37872   1.838   3.582  -0.594  0.0838  0.3544 -0.3086
 1022MOL0     C37873   1.769   3.639  -0.713 -1.4204 -0.4580 -0.2636
 1022MOL0     C37874   1.659   3.746  -0.686 -0.5149  0.7730  0.1887
 1022MOL0     C37875   1.597   3.769  -0.833 -0.1136  0.2293 -1.0051
 1022MOL0     C37876   1.511   3.893  -0.825  0.0128 -0.5660 -0.1456
 1022MOL0     C37877   1.398   3.904  -0.935 -0.7106 -0.8476 -0.3402
 1022MOL0     C37878   1.315   4.029  -0.944  0.3733  0.6963 -1.1769
 1022MOL0     C37879   1.200   4.028  -1.049  1.3187  0.2531  0.0535
 1022MOL0    Cl37880   1.110   4.186  -1.028 -0.2392  0.2077 -0.5944
 1022MOL0     C37881   2.032   3.613  -0.323 -0.1013  0.3548  0.4063
 1022MOL0     C37882   2.159   3.583  -0.273  0.2557 -0.2291  0.0116
 1022MOL0     O37883   2.532   3.506  -0.452  0.2226 -1.0077 -0.1999
 1022MOL0     C37884   2.606   3.651  -0.136 -0.7744  0.4742 -0.1955
 1022MOL0     C37885   2.707   3.710  -0.068 -0.0414 -0.5616 -0.2031
 1022MOL0     N37886   3.075   4.139   0.417 -0.3305  0.4889  0.0866
 1022MOL0     N37887   3.104   4.252   0.355 -0.0061 -0.5085  0.4755
 1022MOL0     C37888   4.327   4.423   0.141 -0.7586  0.0985 -0.2114
 1022MOL0     C37889   4.451   4.420   0.197 -0.2620  0.9578 -0.0155
 1022MOL0     C37890   4.869   4.547   0.315  0.9204 -0.5148 -0.4244
 1022MOL0     C37891   4.945   4.662   0.326 -0.1442  0.8518  0.1934
 1022MOL0     C37892   5.080   4.651   0.365  0.1563  0.5657 -0.8323
 1022MOL0     C37893   5.147   4.533   0.405  0.0038  0.7988  0.2247
 1022MOL0     O37894   5.282   4.530   0.436 -0.0852 -0.4465 -0.0780
 1022MOL0     C37895   5.328   4.430   0.524 -0.7731  0.0466  0.7972
 1022MOL0     C37896   5.386   4.319   0.438  0.2129  0.1025 -0.8745
 1022MOL0     C37897   5.510   4.371   0.367  0.1769  0.1473 -0.3137
 1022MOL0     C37898   5.575   4.285   0.266 -0.4888  0.1622  0.4473
 1022MOL0     C37899   5.502   4.287   0.138  1.1593 -0.4219 -0.4391
 1022MOL0     C37900   5.449   4.285   0.026 -0.4078 -0.0392  0.4411
 1022MOL0     C37901   5.068   4.417   0.400  0.7181 -0.5718  0.0362
 1022MOL0     C37902   4.924   4.422   0.365  0.6385 -0.0552 -0.2084
 1022MOL0     H37903   4.461   4.672   0.406 -1.1960  1.6761 -0.8755
 1022MOL0     H37904   4.205   4.653   0.361 -0.1136 -0.7318  0.9490
 1022MOL0     H37905   4.059   4.536  -0.036  2.6663 -0.0027  0.4355
 1022MOL0     H37906   4.105   4.378   0.022 -0.2166  0.3535  0.3010
 1022MOL0     H37907   3.881   4.403  -0.039  0.1903 -1.0644  1.1159
 1022MOL0     H37908   3.894   4.345   0.129  0.2717 -0.4772 -0.3509
 1022MOL0     H37909   3.840   4.581   0.211 -1.8065  0.9372 -0.0568
 1022MOL0     H37910   3.859   4.651   0.053 -5.7705  2.6158 -0.9297
 1022MOL0     H37911   3.634   4.628   0.100 -0.9840 -0.2658 -0.0789
 1022MOL0     H37912   3.651   4.510  -0.023 -0.8041  0.1801  0.9775
 1022MOL0     H37913   3.664   4.352   0.184  0.2734 -0.8576 -1.3882
 1022MOL0     H37914   3.607   4.477   0.279 -1.4933 -0.5958  0.9777
 1022MOL0     H37915   3.415   4.520   0.090 -1.4811 -1.9989 -3.8073
 1022MOL0     H37916   3.484   4.371   0.015  3.3092  0.8483 -0.5985
 1022MOL0     H37917   3.442   4.234   0.216 -2.7988 -1.3613  0.4736
 1022MOL0     H37918   3.394   4.379   0.308  2.2073  1.7568 -1.2715
 1022MOL0     H37919   3.242   4.293   0.049  1.4719 -0.5517 -0.3051
 1022MOL0     H37920   3.197   4.417   0.159  1.2341  0.9465 -1.6588
 1022MOL0     H37921   3.201   4.042   0.126 -2.9234  0.9307 -2.5094
 1022MOL0     H37922   3.180   3.834   0.266 -0.0616 -3.0173  1.7214
 1022MOL0     H37923   3.138   3.859   0.436  0.8646 -0.2519  1.2136
 1022MOL0     H37924   2.893   3.880   0.364 -0.6302 -2.5762  2.2544
 1022MOL0     H37925   2.970   3.725   0.340 -3.1058 -0.0326 -1.1025
 1022MOL0     H37926   2.972   3.927   0.114 -0.7121 -0.5640 -1.6412
 1022MOL0     H37927   2.820   3.877   0.151  0.8119  3.1943 -0.2905
 1022MOL0     H37928   2.875   3.635   0.125 -1.7102  1.2927  1.0941
 1022MOL0     H37929   3.037   3.667   0.123  0.6629  1.6623  2.8509
 1022MOL0     H37930   2.946   3.746  -0.289  0.4845 -1.2960 -0.2431
 1022MOL0     H37931   2.889   3.644  -0.492  0.2788 -1.0180 -2.5061
 1022MOL0     H37932   2.802   3.497  -0.473  1.3331  0.9235 -0.8521
 1022MOL0     H37933   2.730   3.654  -0.550  0.0068  0.5514  0.2849
 1022MOL0     H37934   2.352   3.640  -0.544 -0.7798  1.4794  0.8070
 1022MOL0     H37935   2.127   3.704  -0.642  0.6777  0.1638  0.1918
 1022MOL0     H37936   1.912   3.508  -0.624  0.3785 -0.2241  1.6597
 1022MOL0     H37937   1.763   3.528  -0.534  0.2149  1.2593  0.7059
 1022MOL0     H37938   1.855   3.681  -0.767 -0.4754 -1.6491  0.2667
 1022MOL0     H37939   1.735   3.557  -0.777  1.0834 -1.0602 -0.9250
 1022MOL0     H37940   1.702   3.839  -0.647  2.7821  0.4589 -2.2692
 1022MOL0     H37941   1.590   3.704  -0.612 -0.5814  4.7906  2.7102
 1022MOL0     H37942   1.680   3.791  -0.900  2.7225  0.4042  2.2895
 1022MOL0     H37943   1.540   3.682  -0.866 -2.5069 -0.1481  3.3321
 1022MOL0     H37944   1.583   3.975  -0.833  1.0054 -1.4208 -0.2598
 1022MOL0     H37945   1.461   3.896  -0.727 -1.2063  0.9909 -0.7742
 1022MOL0     H37946   1.437   3.879  -1.034 -0.7868 -0.7328 -0.4000
 1022MOL0     H37947   1.335   3.816  -0.917  1.9062 -2.4339  2.0310
 1022MOL0     H37948   1.374   4.118  -0.969 -1.2281  2.4808  0.9764
 1022MOL0     H37949   1.278   4.051  -0.844 -0.0628 -0.9105 -0.9560
 1022MOL0     H37950   1.131   3.943  -1.038 -0.6464  2.0212  2.8533
 1022MOL0     H37951   1.242   4.015  -1.149 -1.4292  2.9161 -1.6363
 1022MOL0     H37952   1.944   3.614  -0.259 -1.9948 -1.7166 -1.9737
 1022MOL0     H37953   2.160   3.547  -0.170  1.8611  1.0746  0.4971
 1022MOL0     H37954   2.514   3.632  -0.081 -1.7060  0.7275 -1.6099
 1022MOL0     H37955   2.700   3.735   0.038  1.6685  1.3922 -0.4806
 1022MOL0     H37956   4.307   4.353   0.061  2.6411  0.7378 -1.8241
 1022MOL0     H37957   4.516   4.345   0.152  2.1143  3.4911 -1.1105
 1022MOL0     H37958   4.907   4.762   0.306 -1.3926  0.7383  1.8133
 1022MOL0     H37959   5.147   4.734   0.385  1.8002 -1.2381  1.8354
 1022MOL0     H37960   5.400   4.473   0.595  0.6334 -0.9759  0.0308
 1022MOL0     H37961   5.245   4.397   0.587  2.2050 -4.9188  2.6995
 1022MOL0     H37962   5.310   4.278   0.370  0.9114  2.3525 -3.1999
 1022MOL0     H37963   5.417   4.248   0.515  0.8147  0.8927 -0.3770
 1022MOL0     H37964   5.586   4.403   0.440 -0.8523  1.2071  0.3267
 1022MOL0     H37965   5.486   4.465   0.317 -0.1310  0.2446  0.0150
 1022MOL0     H37966   5.583   4.179   0.293 -1.8321  0.6015  2.8509
 1022MOL0     H37967   5.674   4.324   0.241 -0.0111 -0.6826  0.9657
 1022MOL0     H37968   5.401   4.283  -0.070 -0.6030  1.4404  0.4861
 1022MOL0     H37969   5.107   4.318   0.425 -1.3983 -0.7043  3.4305
 1022MOL0     H37970   4.857   4.337   0.371  0.6192  0.0413  1.3071
 1023MOL0     O37971   2.460   5.642   7.797 -0.0278 -0.0773  0.3031
 1023MOL0     C37972   2.563   5.619   7.730 -0.0304 -0.5936  0.4248
 1023MOL0     O37973   2.588   5.661   7.601 -0.0083  0.1283 -0.5593
 1023MOL0     C37974   2.494   5.743   7.547  0.5227 -0.4071  0.0629
 1023MOL0     C37975   2.372   5.699   7.505  0.7894  0.4256 -0.5198
 1023MOL0     C37976   2.285   5.773   7.426 -1.0310 -0.3586  0.2380
 1023MOL0     C37977   2.325   5.903   7.397  0.5479 -0.1277  0.1741
 1023MOL0     O37978   2.239   5.990   7.326  0.1305 -0.1527  0.6830
 1023MOL0     C37979   2.170   5.952   7.207 -0.5055  0.2923  0.3007
 1023MOL0     C37980   2.014   5.944   7.201 -0.0557 -0.1229  0.2028
 1023MOL0     C37981   1.968   5.887   7.069 -0.0569 -0.2457  0.0734
 1023MOL0     C37982   1.820   5.894   7.050 -0.1350  0.0861  0.6421
 1023MOL0     C37983   1.777   5.833   6.909  0.1198 -0.1237 -0.3535
 1023MOL0     C37984   1.630   5.815   6.903  0.4123 -0.1727  0.5030
 1023MOL0     C37985   1.567   5.709   7.005 -0.3219  0.7030 -0.6002
 1023MOL0     C37986   1.596   5.564   6.977  0.5425 -0.3584 -0.2882
 1023MOL0     N37987   1.580   5.466   7.084 -0.6627  0.5184  0.0113
 1023MOL0     C37988   1.673   5.415   7.169  0.1908 -0.2564 -0.2468
 1023MOL0     C37989   1.616   5.315   7.244 -0.7283  0.0612  0.6922
 1023MOL0     C37990   1.676   5.222   7.343  0.0158 -0.0851 -0.9049
 1023MOL0     C37991   1.723   5.080   7.284  0.0974  0.2582  0.4115
 1023MOL0     C37992   1.818   5.001   7.384  0.3575 -0.2321 -0.7370
 1023MOL0     C37993   1.784   5.011   7.538 -0.3709  0.3146  0.2288
 1023MOL0     O37994   1.660   4.949   7.573  0.0730 -0.9951 -0.2750
 1023MOL0     C37995   1.658   4.817   7.609 -0.0195 -0.7564  1.5157
 1023MOL0     C37996   1.767   4.733   7.600  0.0726  0.1120 -0.4128
 1023MOL0     C37997   1.755   4.597   7.602 -0.1753 -0.5953 -0.6905
 1023MOL0     C37998   1.878   4.509   7.568  0.1907  0.6990 -0.5200
 1023MOL0     C37999   1.631   4.538   7.639  1.0892  0.2629  1.0412
 1023MOL0     C38000   1.609   4.394   7.639  0.0961 -0.2133 -0.2290
 1023MOL0     O38001   1.534   4.361   7.751  0.8198  0.2456  0.0153
 1023MOL0     C38002   1.453   4.248   7.751 -0.3687 -0.4604 -0.2664
 1023MOL0     C38003   1.405   4.194   7.644 -1.1255 -0.1565  0.0851
 1023MOL0     C38004   1.325   4.086   7.660 -0.2104  0.2419  0.2239
 1023MOL0     C38005   1.280   4.038   7.783  1.0714 -0.5549  0.3804
 1023MOL0     O38006   1.197   3.929   7.792  0.3513 -0.5970 -0.1830
 1023MOL0     C38007   1.089   3.945   7.887  0.1539 -0.5210  0.1750
 1023MOL0     C38008   1.110   3.849   8.007 -0.3402 -0.0602  0.2459
 1023MOL0     C38009   1.125   3.695   7.964  0.1190 -0.4534 -0.0172
 1023MOL0     C38010   1.125   3.608   8.082  0.8323  0.0471 -0.4836
 1023MOL0     C38011   1.176   3.467   8.048 -0.9481  0.7389  0.4714
 1023MOL0     C38012   1.071   3.354   8.033  0.9130  0.8478 -0.5869
 1023MOL0     C38013   0.981   3.378   7.903  0.1835 -0.6498 -0.0843
 1023MOL0     C38014   0.880   3.269   7.856  0.8369  0.1525 -0.1531
 1023MOL0    Cl38015   0.925   3.098   7.897 -0.1386 -0.4183 -0.3235
 1023MOL0     C38016   1.344   4.088   7.892 -0.1690 -0.3360 -0.0188
 1023MOL0     C38017   1.433   4.190   7.877  0.2270  0.1360  0.8501
 1023MOL0     O38018   1.656   4.317   7.550 -1.1101 -0.0264 -0.3123
 1023MOL0     C38019   1.521   4.624   7.661  0.1922 -0.5744 -0.5125
 1023MOL0     C38020   1.538   4.759   7.651  1.2114 -0.9588  0.2614
 1023MOL0     N38021   1.485   5.307   7.197 -0.3830 -0.2832  0.0004
 1023MOL0     N38022   1.463   5.400   7.111 -0.5073  1.0543 -0.0667
 1023MOL0     C38023   2.441   5.960   7.453  0.5063  0.3223 -0.0493
 1023MOL0     C38024   2.526   5.883   7.533  0.1089  0.5812  0.6400
 1023MOL0     C38025   2.669   5.553   7.814  0.6435 -0.5975 -0.0853
 1023MOL0     C38026   2.801   5.548   7.763  0.9604  0.6949  0.7181
 1023MOL0     C38027   2.909   5.505   7.832 -0.5709 -0.0601 -0.1622
 1023MOL0     C38028   2.892   5.441   7.954  0.1745 -0.6252 -0.4383
 1023MOL0     O38029   2.990   5.406   8.043 -0.3710  0.7778 -0.3930
 1023MOL0     C38030   3.119   5.459   8.023  0.4574  0.3223  0.3564
 1023MOL0     C38031   3.238   5.412   8.110 -0.4608 -0.6171  0.0502
 1023MOL0     C38032   3.377   5.443   8.044 -0.3045 -1.0363  0.0304
 1023MOL0     C38033   3.474   5.408   8.160  0.6723  0.0508  0.7055
 1023MOL0     C38034   3.606   5.458   8.111  0.3124  0.4241  0.2280
 1023MOL0     C38035   3.719   5.485   8.084  0.2785  0.3137 -0.2266
 1023MOL0     C38036   2.761   5.436   8.001 -0.0731  0.4425  0.2528
 1023MOL0     C38037   2.657   5.492   7.938  0.5570  1.1158 -0.2761
 1023MOL0     H38038   2.355   5.594   7.528 -2.0495  0.6546 -1.2083
 1023MOL0     H38039   2.208   5.711   7.380  1.3689 -2.3846 -1.3492
 1023MOL0     H38040   2.202   6.023   7.129  0.6608  0.9288  1.3257
 1023MOL0     H38041   2.206   5.852   7.180 -0.6868  0.2508  0.2119
 1023MOL0     H38042   1.976   5.889   7.288  0.4584 -0.7209  0.0545
 1023MOL0     H38043   1.985   6.049   7.206  3.7745  1.1223  4.9075
 1023MOL0     H38044   2.008   5.944   6.985 -1.3008 -0.4611 -0.6941
 1023MOL0     H38045   1.984   5.779   7.071 -1.8180 -0.5332  2.0587
 1023MOL0     H38046   1.772   5.834   7.128 -2.0492 -1.1819 -1.3878
 1023MOL0     H38047   1.780   5.996   7.055  2.9535  1.4534 -0.2357
 1023MOL0     H38048   1.817   5.884   6.821 -0.0938  1.3987  0.3992
 1023MOL0     H38049   1.828   5.738   6.894  0.1347  0.1778 -2.6428
 1023MOL0     H38050   1.586   5.915   6.910  3.0743  1.1557 -0.1378
 1023MOL0     H38051   1.595   5.782   6.805 -0.3511 -3.1300  1.6819
 1023MOL0     H38052   1.608   5.723   7.105 -0.3304 -1.1576 -0.3025
 1023MOL0     H38053   1.458   5.716   7.009 -0.2596  1.0076  2.1082
 1023MOL0     H38054   1.696   5.557   6.933  0.5107  3.3205 -1.2564
 1023MOL0     H38055   1.521   5.519   6.911 -0.6019  1.3092 -0.1789
 1023MOL0     H38056   1.774   5.452   7.182 -0.8133  2.0835  1.7634
 1023MOL0     H38057   1.758   5.278   7.388 -1.9741  1.5789  0.8407
 1023MOL0     H38058   1.608   5.195   7.424 -0.9220  1.1276 -1.2653
 1023MOL0     H38059   1.777   5.102   7.192 -1.7201 -0.4124 -0.8736
 1023MOL0     H38060   1.639   5.012   7.267 -1.2233  1.7057  0.9510
 1023MOL0     H38061   1.922   5.032   7.376  0.6524 -0.3982  1.7184
 1023MOL0     H38062   1.814   4.893   7.367 -0.9961 -0.4629  0.7414
 1023MOL0     H38063   1.773   5.117   7.561  1.0423  0.4627  0.3015
 1023MOL0     H38064   1.870   4.972   7.593 -1.7020 -0.2120  2.0168
 1023MOL0     H38065   1.866   4.771   7.577  0.3100 -0.3295 -0.1374
 1023MOL0     H38066   1.887   4.484   7.462 -2.3739  3.0118 -1.4104
 1023MOL0     H38067   1.970   4.559   7.601 -0.7119  2.2118 -0.1909
 1023MOL0     H38068   1.870   4.414   7.622  1.7217 -0.2411 -1.8670
 1023MOL0     H38069   1.436   4.231   7.547  0.4295 -0.7714  0.3065
 1023MOL0     H38070   1.279   4.042   7.572  1.1535 -0.6015 -0.0881
 1023MOL0     H38071   1.075   4.049   7.918  1.5322 -0.0927 -0.5509
 1023MOL0     H38072   0.995   3.916   7.841  0.6302 -0.3206 -0.9602
 1023MOL0     H38073   1.199   3.884   8.059 -0.7389 -0.0572  0.9350
 1023MOL0     H38074   1.023   3.852   8.073 -2.1238 -0.5888 -1.9240
 1023MOL0     H38075   1.206   3.673   7.895  0.9588  1.0969  0.4167
 1023MOL0     H38076   1.027   3.682   7.918 -0.4100  1.9754  0.2595
 1023MOL0     H38077   1.180   3.647   8.168 -1.2175 -0.5330  1.1974
 1023MOL0     H38078   1.024   3.605   8.127  1.5499  1.0936  1.3144
 1023MOL0     H38079   1.238   3.435   8.133 -2.1913  0.6244  1.3702
 1023MOL0     H38080   1.250   3.473   7.968 -1.6334 -0.9140 -0.3364
 1023MOL0     H38081   1.126   3.260   8.020 -0.0099  0.4658 -1.9427
 1023MOL0     H38082   1.019   3.351   8.129  3.3624  2.6559  0.9274
 1023MOL0     H38083   1.044   3.392   7.815 -0.0762 -0.3540 -0.2236
 1023MOL0     H38084   0.927   3.471   7.920  0.1638 -0.9050  1.4302
 1023MOL0     H38085   0.874   3.262   7.747 -2.0414 -2.4249  0.0483
 1023MOL0     H38086   0.785   3.305   7.895  1.0006  0.4573 -0.0303
 1023MOL0     H38087   1.315   4.073   7.995  0.3958  1.1964  0.3906
 1023MOL0     H38088   1.469   4.228   7.972 -1.0552 -0.4750  1.6120
 1023MOL0     H38089   1.422   4.588   7.688 -0.6649  0.6356 -1.8894
 1023MOL0     H38090   1.441   4.808   7.658  1.9441  0.8710 -1.4066
 1023MOL0     H38091   2.458   6.067   7.455 -0.5339  0.5591 -1.8888
 1023MOL0     H38092   2.624   5.914   7.569  1.0757 -0.6546 -0.7908
 1023MOL0     H38093   2.812   5.602   7.670 -3.3660 -3.0500 -2.4306
 1023MOL0     H38094   3.005   5.528   7.786 -0.3776  1.4341  0.9325
 1023MOL0     H38095   3.146   5.427   7.922 -2.6331 -0.8036 -0.2187
 1023MOL0     H38096   3.110   5.568   8.019 -0.6636  0.2160 -1.1394
 1023MOL0     H38097   3.225   5.306   8.131 -4.6364 -0.1657  0.6113
 1023MOL0     H38098   3.233   5.461   8.208 -1.2709  0.2118 -0.3914
 1023MOL0     H38099   3.394   5.549   8.021 -2.2724 -0.5760  0.5120
 1023MOL0     H38100   3.387   5.379   7.955  1.2443  1.4844 -1.7525
 1023MOL0     H38101   3.464   5.300   8.174 -0.3909  0.0044 -0.2414
 1023MOL0     H38102   3.449   5.451   8.257 -1.5867 -1.9329  1.0970
 1023MOL0     H38103   3.818   5.511   8.054 -0.8821  1.2970 -3.6493
 1023MOL0     H38104   2.750   5.378   8.092 -0.6678  0.2621  0.0732
 1023MOL0     H38105   2.562   5.500   7.989  0.8453  1.6410  0.2008
 1024MOL0     O38106   5.445   3.975   2.490  0.5446 -0.1929 -0.2765
 1024MOL0     C38107   5.477   4.086   2.433  0.2715 -0.5614  0.3158
 1024MOL0     O38108   5.373   4.177   2.384  0.3863 -0.1888 -0.0637
 1024MOL0     C38109   5.246   4.129   2.354 -0.2937 -0.8225 -1.1378
 1024MOL0     C38110   5.132   4.188   2.415  0.3215 -0.0873  0.1439
 1024MOL0     C38111   5.011   4.123   2.412 -0.2793  0.8939  0.0860
 1024MOL0     C38112   4.995   4.007   2.329 -0.2215  0.7875  0.3641
 1024MOL0     O38113   4.859   3.970   2.314 -0.7141 -0.2535  0.4018
 1024MOL0     C38114   4.834   3.856   2.229  0.8014  0.3740 -0.0482
 1024MOL0     C38115   4.686   3.865   2.193 -0.3751  0.3400 -0.3050
 1024MOL0     C38116   4.586   3.883   2.322  0.0735 -0.5659 -0.0427
 1024MOL0     C38117   4.609   3.764   2.417  0.0858 -1.1780  0.4546
 1024MOL0     C38118   4.521   3.760   2.542  0.4833  0.5149 -1.1106
 1024MOL0     C38119   4.524   3.888   2.631  0.2522  1.1274  0.6581
 1024MOL0     C38120   4.667   3.929   2.677 -0.3936  0.8381  0.3932
 1024MOL0     C38121   4.733   3.811   2.745 -1.1532  0.4057  0.2904
 1024MOL0     N38122   4.855   3.855   2.810 -0.4523 -0.4133  0.2342
 1024MOL0     C38123   4.971   3.898   2.747  0.5750  0.3559 -0.0782
 1024MOL0     C38124   5.046   3.924   2.861 -0.6529 -0.1561  0.2648
 1024MOL0     C38125   5.182   3.984   2.854 -1.4175  0.2135  0.3275
 1024MOL0     C38126   5.300   3.889   2.819  0.6800  0.5685 -0.3168
 1024MOL0     C38127   5.417   3.954   2.884 -0.5815 -0.1908 -0.3638
 1024MOL0     C38128   5.549   3.876   2.852 -0.0328 -0.6430 -0.9582
 1024MOL0     O38129   5.533   3.746   2.912  0.1199  0.1540  0.5096
 1024MOL0     C38130   5.638   3.661   2.887 -0.5236 -0.5102 -0.8206
 1024MOL0     C38131   5.751   3.688   2.816  0.1154  0.4498  0.7091
 1024MOL0     C38132   5.852   3.596   2.788  0.1018  0.3777 -0.2908
 1024MOL0     C38133   5.978   3.646   2.740 -0.1839 -0.9294 -0.2871
 1024MOL0     C38134   5.836   3.463   2.827 -0.8562  0.6576  0.1446
 1024MOL0     C38135   5.938   3.358   2.807  0.1044  0.4859 -0.0772
 1024MOL0     O38136   6.005   3.344   2.691  0.3672  0.4866 -0.4003
 1024MOL0     C38137   6.070   3.229   2.662  0.3657 -0.1896  0.4650
 1024MOL0     C38138   6.038   3.104   2.712 -0.5166  0.2298  0.0801
 1024MOL0     C38139   6.103   2.985   2.680  1.1740  0.3981 -0.8730
 1024MOL0     C38140   6.219   2.993   2.609  0.0381  1.1223  0.1242
 1024MOL0     O38141   6.280   2.870   2.591 -0.4216 -0.6345 -1.6982
 1024MOL0     C38142   6.402   2.877   2.507  0.3553  0.6807  0.3827
 1024MOL0     C38143   6.528   2.928   2.586  0.1451  0.3098  1.0369
 1024MOL0     C38144   6.647   2.963   2.491  0.3555  0.3496  0.1946
 1024MOL0     C38145   6.757   3.028   2.574  0.5237  0.6523 -0.0609
 1024MOL0     C38146   6.817   2.924   2.671 -0.3830  0.3257 -0.2096
 1024MOL0     C38147   6.865   2.793   2.614 -0.2446 -0.1955 -0.2292
 1024MOL0     C38148   6.943   2.717   2.723 -0.2597  0.5844 -0.2364
 1024MOL0     C38149   6.919   2.571   2.700  0.5390 -0.7986  0.0227
 1024MOL0    Cl38150   7.059   2.462   2.747 -0.2722 -0.5988 -0.1847
 1024MOL0     C38151   6.263   3.113   2.559  0.5004 -0.0305  0.1277
 1024MOL0     C38152   6.191   3.231   2.596 -0.1025 -0.0925  0.2817
 1024MOL0     O38153   5.962   3.291   2.907 -0.0568 -0.0354  0.6434
 1024MOL0     C38154   5.717   3.432   2.905  0.0604 -0.2564  0.6766
 1024MOL0     C38155   5.616   3.523   2.921 -0.6605 -0.3836  0.2618
 1024MOL0     N38156   4.967   3.936   2.972  0.5740  0.4582 -0.2218
 1024MOL0     N38157   4.857   3.881   2.945 -0.1871 -0.6494 -0.2801
 1024MOL0     C38158   5.098   3.949   2.258 -1.1205  0.3951  0.9278
 1024MOL0     C38159   5.228   4.006   2.287 -0.4400 -0.1846 -0.1521
 1024MOL0     C38160   5.624   4.123   2.441  0.3978 -1.2759 -0.5504
 1024MOL0     C38161   5.674   4.230   2.364 -0.6540 -0.1646 -0.1348
 1024MOL0     C38162   5.805   4.260   2.373 -0.1880  0.7607  0.5435
 1024MOL0     C38163   5.890   4.184   2.446 -0.8274  0.1878 -0.5574
 1024MOL0     O38164   6.026   4.218   2.433 -0.3101  0.1254  0.3621
 1024MOL0     C38165   6.126   4.135   2.494 -0.8783 -0.0883 -0.6652
 1024MOL0     C38166   6.201   4.206   2.599 -0.8543  0.3392 -0.6279
 1024MOL0     C38167   6.324   4.305   2.558  0.0923 -0.2507  0.0332
 1024MOL0     C38168   6.276   4.429   2.471 -0.3634  0.7799  0.2556
 1024MOL0     C38169   6.388   4.523   2.447 -0.5019 -0.2771  0.1195
 1024MOL0     C38170   6.483   4.600   2.424 -0.3317 -0.6812 -0.7202
 1024MOL0     C38171   5.845   4.071   2.518  0.2724 -0.6411  0.4330
 1024MOL0     C38172   5.707   4.036   2.513  0.5356  1.0922 -0.5711
 1024MOL0     H38173   5.141   4.271   2.486 -0.3563 -0.0214  0.1610
 1024MOL0     H38174   4.925   4.170   2.460 -0.3826  2.2817 -1.4045
 1024MOL0     H38175   4.882   3.851   2.131 -3.5776 -0.5715 -2.4081
 1024MOL0     H38176   4.860   3.766   2.285  1.1119  0.2186 -0.4378
 1024MOL0     H38177   4.675   3.937   2.112  2.0053  0.8495 -0.2406
 1024MOL0     H38178   4.677   3.769   2.142  0.8809 -0.3919  0.7827
 1024MOL0     H38179   4.619   3.971   2.377 -0.4976  0.2118 -0.9217
 1024MOL0     H38180   4.482   3.886   2.289  0.2813 -4.0636 -1.4613
 1024MOL0     H38181   4.586   3.678   2.354 -2.5349  0.8076 -1.5233
 1024MOL0     H38182   4.713   3.756   2.452  0.5268 -0.3076 -0.5979
 1024MOL0     H38183   4.416   3.740   2.518  0.7100 -1.2577 -0.7942
 1024MOL0     H38184   4.552   3.673   2.601 -0.7276 -0.0030 -1.2063
 1024MOL0     H38185   4.480   3.966   2.569  1.0208  1.8903  1.0567
 1024MOL0     H38186   4.454   3.875   2.715 -3.8324 -0.6280 -2.6084
 1024MOL0     H38187   4.717   3.967   2.588  1.2772 -1.7962  0.0899
 1024MOL0     H38188   4.648   4.008   2.751 -1.1233  1.9558 -0.9351
 1024MOL0     H38189   4.752   3.727   2.679 -2.2096 -1.8855  2.7274
 1024MOL0     H38190   4.671   3.771   2.825 -2.9730  0.9318 -0.8029
 1024MOL0     H38191   4.988   3.884   2.641  2.0935  1.3699 -0.0092
 1024MOL0     H38192   5.182   4.067   2.784 -1.6803  0.1734  0.2811
 1024MOL0     H38193   5.200   4.020   2.956  0.9514 -1.1317  0.4701
 1024MOL0     H38194   5.304   3.883   2.710  1.6997  0.5647 -0.2836
 1024MOL0     H38195   5.269   3.792   2.861 -0.4813  1.6768  1.5587
 1024MOL0     H38196   5.396   3.953   2.992  1.4831 -2.2779  0.1135
 1024MOL0     H38197   5.421   4.058   2.850  0.2651 -0.1869 -0.2707
 1024MOL0     H38198   5.634   3.938   2.882 -0.0983  0.5481 -3.0323
 1024MOL0     H38199   5.558   3.877   2.743 -2.2790 -2.7586 -1.2395
 1024MOL0     H38200   5.775   3.793   2.813 -0.7372  0.6317 -0.2911
 1024MOL0     H38201   6.032   3.577   2.675  1.7116 -0.0915  0.3269
 1024MOL0     H38202   5.971   3.744   2.691  0.2392 -0.7020  0.0985
 1024MOL0     H38203   6.033   3.668   2.832  0.3563 -2.0328 -0.3358
 1024MOL0     H38204   5.940   3.090   2.757 -0.1913 -0.5913  0.5550
 1024MOL0     H38205   6.055   2.893   2.711 -1.6151  2.0589  0.0825
 1024MOL0     H38206   6.423   2.775   2.474  0.3665  0.0620  2.1948
 1024MOL0     H38207   6.387   2.935   2.416  0.7844 -0.3568 -0.3668
 1024MOL0     H38208   6.499   3.022   2.633 -1.5643  1.1718 -1.4650
 1024MOL0     H38209   6.553   2.857   2.665 -0.0095 -0.0588  0.7619
 1024MOL0     H38210   6.610   3.038   2.420  1.3757  2.0035  1.3328
 1024MOL0     H38211   6.673   2.872   2.436  0.2153  0.4109  0.0273
 1024MOL0     H38212   6.835   3.069   2.509  1.3569  0.0452  0.5383
 1024MOL0     H38213   6.730   3.119   2.629  1.9322  1.4449 -0.6413
 1024MOL0     H38214   6.755   2.908   2.759 -1.0852  2.1669 -0.3220
 1024MOL0     H38215   6.909   2.975   2.702  0.5918 -1.3986 -0.1280
 1024MOL0     H38216   6.775   2.737   2.587  0.3357 -1.1534 -0.2128
 1024MOL0     H38217   6.925   2.800   2.522 -0.8306  2.1606 -0.4991
 1024MOL0     H38218   6.921   2.745   2.826  0.3905  3.5594 -0.8216
 1024MOL0     H38219   7.051   2.735   2.723 -0.1800  0.7865  3.2710
 1024MOL0     H38220   6.897   2.551   2.594  1.8653  1.2039 -0.6824
 1024MOL0     H38221   6.826   2.538   2.748  1.2560 -2.1298  0.5437
 1024MOL0     H38222   6.352   3.115   2.496  0.8103 -1.0525  0.5232
 1024MOL0     H38223   6.233   3.328   2.569 -0.9509  0.5790  1.2811
 1024MOL0     H38224   5.690   3.335   2.946 -0.3951 -0.2600  0.3662
 1024MOL0     H38225   5.535   3.481   2.980  1.0053 -1.8595  1.5998
 1024MOL0     H38226   5.092   3.850   2.213 -0.5000  1.3049 -1.2646
 1024MOL0     H38227   5.316   3.950   2.257 -0.9429 -1.3351  0.4196
 1024MOL0     H38228   5.613   4.298   2.306 -2.6288 -2.4909 -0.9853
 1024MOL0     H38229   5.843   4.344   2.316  0.0103 -0.1470 -0.6906
 1024MOL0     H38230   6.092   4.035   2.524 -3.2349  0.7911 -0.1880
 1024MOL0     H38231   6.191   4.114   2.408  0.1438  0.1195  0.0350
 1024MOL0     H38232   6.256   4.131   2.657 -0.1034  0.2084 -1.4925
 1024MOL0     H38233   6.136   4.247   2.677  0.6554 -0.7260  1.2702
 1024MOL0     H38234   6.400   4.251   2.501  1.8895  1.7764  0.3392
 1024MOL0     H38235   6.366   4.340   2.653 -1.9130 -0.3777  1.0190
 1024MOL0     H38236   6.193   4.476   2.525  0.2122  1.3551  0.6489
 1024MOL0     H38237   6.240   4.396   2.373 -2.1951 -0.6647  1.3573
 1024MOL0     H38238   6.573   4.659   2.417 -0.1618 -0.8490 -0.0431
 1024MOL0     H38239   5.912   4.014   2.581 -1.9411 -4.5964 -0.4903
 1024MOL0     H38240   5.661   3.955   2.569  4.8944 -0.7251  0.7704
  11.38747  11.38747  11.38747
